<event>
 7    1  0.2966651E-011  0.5052886E+02  0.7816164E-02  0.1300439E+00
        -11   -1    0    0    0    0  0.00000000000E+00  0.00000000000E+00  0.45593999997E+02  0.45594000000E+02  0.51100000000E-03 0.  1.
         11   -1    0    0    0    0 -0.00000000000E+00 -0.00000000000E+00 -0.45593999997E+02  0.45594000000E+02  0.51100000000E-03 0. -1.
    9900012    2    1    2    0    0  0.35046249062E+02 -0.52382851129E+01  0.19937063665E+02  0.50528859431E+02  0.29999998726E+02 0.  0.
         12    1    1    2    0    0 -0.35046249062E+02  0.52382851129E+01 -0.19937063665E+02  0.40659140569E+02  0.00000000000E+00 0. -1.
         11    1    3    3    0    0  0.56301448693E+01 -0.79259047861E+01  0.72014573503E+01  0.12098739032E+02  0.51100000000E-03 0. -1.
        -11    1    3    3    0    0  0.13485484664E+02  0.11767591065E+02  0.69899881168E+01  0.19214432862E+02  0.51100000000E-03 0.  1.
        -12    1    3    3    0    0  0.15930619529E+02 -0.90799713916E+01  0.57456181975E+01  0.19215687537E+02  0.00000000000E+00 0.  1.
</event>
<event>
 7    1  0.2966651E-011  0.5052886E+02  0.7816164E-02  0.1300439E+00
        -11   -1    0    0    0    0  0.00000000000E+00  0.00000000000E+00  0.45593999997E+02  0.45594000000E+02  0.51100000000E-03 0. -1.
         11   -1    0    0    0    0 -0.00000000000E+00 -0.00000000000E+00 -0.45593999997E+02  0.45594000000E+02  0.51100000000E-03 0.  1.
    9900012    2    1    2    0    0 -0.26865187686E+01  0.27232453088E+02 -0.30072274481E+02  0.50528861092E+02  0.30000003776E+02 0.  0.
         12    1    1    2    0    0  0.26865187686E+01 -0.27232453088E+02  0.30072274481E+02  0.40659138908E+02  0.00000000000E+00 0. -1.
         11    1    3    3    0    0  0.88189841835E+01  0.30496876440E+01 -0.62241264877E+00  0.93521374306E+01  0.51100000000E-03 0. -1.
        -11    1    3    3    0    0 -0.12872267069E+02  0.24015408911E+02 -0.26958108146E+02  0.38329815023E+02  0.51100000000E-03 0.  1.
        -12    1    3    3    0    0  0.13667641169E+01  0.16735653228E+00 -0.24917536864E+01  0.28469086382E+01  0.00000000000E+00 0.  1.
</event>
<event>
 7    1  0.2966651E-011  0.5052885E+02  0.7816164E-02  0.1300439E+00
        -11   -1    0    0    0    0  0.00000000000E+00  0.00000000000E+00  0.45593999997E+02  0.45594000000E+02  0.51100000000E-03 0.  1.
         11   -1    0    0    0    0 -0.00000000000E+00 -0.00000000000E+00 -0.45593999997E+02  0.45594000000E+02  0.51100000000E-03 0. -1.
    9900012    2    1    2    0    0  0.26515803931E+01 -0.24588607962E+02  0.32272835989E+02  0.50528850196E+02  0.29999970655E+02 0.  0.
         12    1    1    2    0    0 -0.26515803931E+01  0.24588607962E+02 -0.32272835989E+02  0.40659149804E+02  0.00000000000E+00 0. -1.
         11    1    3    3    0    0  0.72843925301E+01 -0.15490684847E+02  0.72371524663E+01  0.18584941960E+02  0.51100000000E-03 0. -1.
        -11    1    3    3    0    0 -0.54532019009E+01 -0.12874823723E+02  0.24261555848E+02  0.28002171153E+02  0.51100000000E-03 0.  1.
         12    1    3    3    0    0  0.82038976392E+00  0.37769006086E+01  0.77412767426E+00  0.39417370826E+01  0.00000000000E+00 0. -1.
</event>
<event>
 7    1  0.2966651E-011  0.5052884E+02  0.7816164E-02  0.1300439E+00
        -11   -1    0    0    0    0  0.00000000000E+00  0.00000000000E+00  0.45593999997E+02  0.45594000000E+02  0.51100000000E-03 0.  1.
         11   -1    0    0    0    0 -0.00000000000E+00 -0.00000000000E+00 -0.45593999997E+02  0.45594000000E+02  0.51100000000E-03 0. -1.
    9900012    2    1    2    0    0  0.24156689949E+02 -0.79244072399E+01  0.31730507385E+02  0.50528843610E+02  0.29999950638E+02 0.  0.
         12    1    1    2    0    0 -0.24156689949E+02  0.79244072399E+01 -0.31730507385E+02  0.40659156390E+02  0.00000000000E+00 0. -1.
         11    1    3    3    0    0  0.14230800186E+02 -0.47014253417E+01  0.12652844949E+02  0.19614116339E+02  0.51100000000E-03 0.  1.
        -11    1    3    3    0    0  0.27720733423E+01  0.68008142268E+01  0.16875925731E+02  0.18404682401E+02  0.51100000000E-03 0. -1.
        -12    1    3    3    0    0  0.71538164208E+01 -0.10023796125E+02  0.22017367055E+01  0.12510044870E+02  0.00000000000E+00 0.  1.
</event>
<event>
 7    1  0.2966651E-011  0.5052886E+02  0.7816164E-02  0.1300439E+00
        -11   -1    0    0    0    0  0.00000000000E+00  0.00000000000E+00  0.45593999997E+02  0.45594000000E+02  0.51100000000E-03 0. -1.
         11   -1    0    0    0    0 -0.00000000000E+00 -0.00000000000E+00 -0.45593999997E+02  0.45594000000E+02  0.51100000000E-03 0.  1.
    9900012    2    1    2    0    0  0.38617733840E+02  0.60166052176E+01 -0.11208787929E+02  0.50528857952E+02  0.29999994230E+02 0.  0.
         12    1    1    2    0    0 -0.38617733840E+02 -0.60166052176E+01  0.11208787929E+02  0.40659142048E+02  0.00000000000E+00 0. -1.
         11    1    3    3    0    0  0.27778816949E+02 -0.38878939146E+01 -0.36229783881E+01  0.28282580555E+02  0.51100000000E-03 0.  1.
        -11    1    3    3    0    0  0.17645809063E+01  0.18005262560E+01 -0.95901842761E+01  0.99160110571E+01  0.51100000000E-03 0. -1.
         12    1    3    3    0    0  0.90743359845E+01  0.81039728762E+01  0.20043747352E+01  0.12330266340E+02  0.00000000000E+00 0. -1.
</event>
<event>
 7    1  0.2966651E-011  0.5052888E+02  0.7816164E-02  0.1300439E+00
        -11   -1    0    0    0    0  0.00000000000E+00  0.00000000000E+00  0.45593999997E+02  0.45594000000E+02  0.51100000000E-03 0. -1.
         11   -1    0    0    0    0 -0.00000000000E+00 -0.00000000000E+00 -0.45593999997E+02  0.45594000000E+02  0.51100000000E-03 0.  1.
    9900012    2    1    2    0    0 -0.37362126873E+02 -0.13905545938E+02 -0.79919397316E+01  0.50528882536E+02  0.30000068956E+02 0.  0.
         12    1    1    2    0    0  0.37362126873E+02  0.13905545938E+02  0.79919397316E+01  0.40659117464E+02  0.00000000000E+00 0. -1.
         11    1    3    3    0    0 -0.68083251947E+01  0.40479702524E+01  0.50238168805E+01  0.93796637163E+01  0.51100000000E-03 0. -1.
        -11    1    3    3    0    0 -0.12851541645E+02 -0.96959748981E+01 -0.14355618310E+02  0.21569836096E+02  0.51100000000E-03 0.  1.
        -12    1    3    3    0    0 -0.17702260033E+02 -0.82575412921E+01  0.13398616978E+01  0.19579382724E+02  0.00000000000E+00 0.  1.
</event>
<event>
 7    1  0.2966651E-011  0.5052886E+02  0.7816164E-02  0.1300439E+00
        -11   -1    0    0    0    0  0.00000000000E+00  0.00000000000E+00  0.45593999997E+02  0.45594000000E+02  0.51100000000E-03 0.  1.
         11   -1    0    0    0    0 -0.00000000000E+00 -0.00000000000E+00 -0.45593999997E+02  0.45594000000E+02  0.51100000000E-03 0. -1.
    9900012    2    1    2    0    0 -0.89038451018E+01 -0.95112219363E+01  0.38515240766E+02  0.50528861156E+02  0.30000003969E+02 0.  0.
         12    1    1    2    0    0  0.89038451018E+01  0.95112219363E+01 -0.38515240766E+02  0.40659138844E+02  0.00000000000E+00 0. -1.
         11    1    3    3    0    0 -0.91344191171E+00  0.68392046604E+01  0.10074910015E+02  0.12211179656E+02  0.51100000000E-03 0. -1.
        -11    1    3    3    0    0 -0.42557498649E+01 -0.11000164283E+02  0.31624933756E+01  0.12211322033E+02  0.51100000000E-03 0.  1.
        -12    1    3    3    0    0 -0.37346533252E+01 -0.53502623134E+01  0.25277837375E+02  0.26106359467E+02  0.00000000000E+00 0.  1.
</event>
<event>
 7    1  0.2966651E-011  0.5052886E+02  0.7816164E-02  0.1300439E+00
        -11   -1    0    0    0    0  0.00000000000E+00  0.00000000000E+00  0.45593999997E+02  0.45594000000E+02  0.51100000000E-03 0.  1.
         11   -1    0    0    0    0 -0.00000000000E+00 -0.00000000000E+00 -0.45593999997E+02  0.45594000000E+02  0.51100000000E-03 0. -1.
    9900012    2    1    2    0    0  0.26407567846E+02  0.29788582932E+02  0.82732372681E+01  0.50528858746E+02  0.29999996643E+02 0.  0.
         12    1    1    2    0    0 -0.26407567846E+02 -0.29788582932E+02 -0.82732372681E+01  0.40659141254E+02  0.00000000000E+00 0. -1.
         11    1    3    3    0    0  0.43241554416E+01 -0.27700481480E+01  0.79505273777E+01  0.94647965044E+01  0.51100000000E-03 0. -1.
        -11    1    3    3    0    0  0.62165992548E+01  0.13464038409E+02 -0.50436395055E+01  0.15664122583E+02  0.51100000000E-03 0.  1.
         12    1    3    3    0    0  0.15866813149E+02  0.19094592671E+02  0.53663493959E+01  0.25399939658E+02  0.00000000000E+00 0. -1.
</event>
<event>
 7    1  0.2966651E-011  0.5052885E+02  0.7816164E-02  0.1300439E+00
        -11   -1    0    0    0    0  0.00000000000E+00  0.00000000000E+00  0.45593999997E+02  0.45594000000E+02  0.51100000000E-03 0. -1.
         11   -1    0    0    0    0 -0.00000000000E+00 -0.00000000000E+00 -0.45593999997E+02  0.45594000000E+02  0.51100000000E-03 0.  1.
    9900012    2    1    2    0    0  0.20696417727E+01  0.40602242784E+02 -0.58360246458E+00  0.50528854313E+02  0.29999983169E+02 0.  0.
         12    1    1    2    0    0 -0.20696417727E+01 -0.40602242784E+02  0.58360246458E+00  0.40659145687E+02  0.00000000000E+00 0. -1.
         11    1    3    3    0    0 -0.38788017740E+01 -0.14688961599E+01  0.78623047567E-01  0.41483660609E+01  0.51100000000E-03 0. -1.
        -11    1    3    3    0    0  0.47134947074E+01  0.35195579968E+02  0.68040938293E+01  0.36155795866E+02  0.51100000000E-03 0.  1.
        -12    1    3    3    0    0  0.12349488393E+01  0.68755589764E+01 -0.74663193415E+01  0.10224692386E+02  0.00000000000E+00 0.  1.
</event>
<event>
 7    1  0.2966651E-011  0.5052885E+02  0.7816164E-02  0.1300439E+00
        -11   -1    0    0    0    0  0.00000000000E+00  0.00000000000E+00  0.45593999997E+02  0.45594000000E+02  0.51100000000E-03 0.  1.
         11   -1    0    0    0    0 -0.00000000000E+00 -0.00000000000E+00 -0.45593999997E+02  0.45594000000E+02  0.51100000000E-03 0. -1.
    9900012    2    1    2    0    0  0.24909185529E+02  0.31686678060E+01  0.31979027301E+02  0.50528853840E+02  0.29999981732E+02 0.  0.
         12    1    1    2    0    0 -0.24909185529E+02 -0.31686678060E+01 -0.31979027301E+02  0.40659146160E+02  0.00000000000E+00 0. -1.
         11    1    3    3    0    0  0.17032559149E+02  0.50152197037E+01  0.39439013540E+01  0.18188316525E+02  0.51100000000E-03 0. -1.
        -11    1    3    3    0    0  0.81675074234E+01 -0.65931755371E+01  0.23637705833E+02  0.25863473828E+02  0.51100000000E-03 0.  1.
        -12    1    3    3    0    0 -0.29088104418E+00  0.47466236395E+01  0.43974201138E+01  0.64770634870E+01  0.00000000000E+00 0.  1.
</event>
<event>
 7    1  0.2966651E-011  0.5052886E+02  0.7816164E-02  0.1300439E+00
        -11   -1    0    0    0    0  0.00000000000E+00  0.00000000000E+00  0.45593999997E+02  0.45594000000E+02  0.51100000000E-03 0.  1.
         11   -1    0    0    0    0 -0.00000000000E+00 -0.00000000000E+00 -0.45593999997E+02  0.45594000000E+02  0.51100000000E-03 0. -1.
    9900012    2    1    2    0    0 -0.54583718899E+01  0.13789236551E+01  0.40267486342E+02  0.50528859447E+02  0.29999998776E+02 0.  0.
         12    1    1    2    0    0  0.54583718899E+01 -0.13789236551E+01 -0.40267486342E+02  0.40659140553E+02  0.00000000000E+00 0. -1.
         11    1    3    3    0    0  0.56990767029E+01 -0.24629442321E+01  0.84458618598E+01  0.10482278014E+02  0.51100000000E-03 0. -1.
        -11    1    3    3    0    0 -0.60808581215E+01  0.12473439136E+02  0.14726288851E+02  0.20234305102E+02  0.51100000000E-03 0.  1.
        -12    1    3    3    0    0 -0.50765904713E+01 -0.86315712493E+01  0.17095335632E+02  0.19812276331E+02  0.00000000000E+00 0.  1.
</event>
<event>
 7    1  0.2966651E-011  0.5052886E+02  0.7816164E-02  0.1300439E+00
        -11   -1    0    0    0    0  0.00000000000E+00  0.00000000000E+00  0.45593999997E+02  0.45594000000E+02  0.51100000000E-03 0.  1.
         11   -1    0    0    0    0 -0.00000000000E+00 -0.00000000000E+00 -0.45593999997E+02  0.45594000000E+02  0.51100000000E-03 0. -1.
    9900012    2    1    2    0    0  0.11457012039E+02  0.23097505586E+02  0.31438952999E+02  0.50528860132E+02  0.30000000856E+02 0.  0.
         12    1    1    2    0    0 -0.11457012039E+02 -0.23097505586E+02 -0.31438952999E+02  0.40659139868E+02  0.00000000000E+00 0. -1.
         11    1    3    3    0    0  0.47735035814E+01  0.11509378369E+02 -0.88476806795E+00  0.12491394705E+02  0.51100000000E-03 0. -1.
        -11    1    3    3    0    0  0.26725509705E+01  0.19211731962E+01  0.25113365728E+02  0.25328137981E+02  0.51100000000E-03 0.  1.
        -12    1    3    3    0    0  0.40109574870E+01  0.96669540204E+01  0.72103553391E+01  0.12709327445E+02  0.00000000000E+00 0.  1.
</event>
<event>
 7    1  0.2966651E-011  0.5052887E+02  0.7816164E-02  0.1300439E+00
        -11   -1    0    0    0    0  0.00000000000E+00  0.00000000000E+00  0.45593999997E+02  0.45594000000E+02  0.51100000000E-03 0. -1.
         11   -1    0    0    0    0 -0.00000000000E+00 -0.00000000000E+00 -0.45593999997E+02  0.45594000000E+02  0.51100000000E-03 0.  1.
    9900012    2    1    2    0    0 -0.10443096221E+01 -0.34824099477E+02 -0.20960828869E+02  0.50528870228E+02  0.30000031545E+02 0.  0.
         12    1    1    2    0    0  0.10443096221E+01  0.34824099477E+02  0.20960828869E+02  0.40659129772E+02  0.00000000000E+00 0. -1.
         11    1    3    3    0    0  0.63578308987E+01 -0.34854459215E+01 -0.42007831580E+01  0.83795540699E+01  0.51100000000E-03 0. -1.
        -11    1    3    3    0    0 -0.35845295806E+01 -0.19181762389E+02  0.18431169151E+01  0.19600661746E+02  0.51100000000E-03 0.  1.
        -12    1    3    3    0    0 -0.38176109402E+01 -0.12156891166E+02 -0.18603162626E+02  0.22548654412E+02  0.00000000000E+00 0.  1.
</event>
<event>
 7    1  0.2966651E-011  0.5052887E+02  0.7816164E-02  0.1300439E+00
        -11   -1    0    0    0    0  0.00000000000E+00  0.00000000000E+00  0.45593999997E+02  0.45594000000E+02  0.51100000000E-03 0. -1.
         11   -1    0    0    0    0 -0.00000000000E+00 -0.00000000000E+00 -0.45593999997E+02  0.45594000000E+02  0.51100000000E-03 0.  1.
    9900012    2    1    2    0    0  0.23478622672E+02  0.27924781105E+01 -0.33077500103E+02  0.50528872247E+02  0.30000037682E+02 0.  0.
         12    1    1    2    0    0 -0.23478622672E+02 -0.27924781105E+01  0.33077500103E+02  0.40659127753E+02  0.00000000000E+00 0. -1.
         11    1    3    3    0    0  0.25003689907E+02 -0.23960027659E+01 -0.34041100979E+02  0.42305104826E+02  0.51100000000E-03 0. -1.
        -11    1    3    3    0    0 -0.17284674800E+01  0.59070933125E+01 -0.89612954212E+00  0.62196784201E+01  0.51100000000E-03 0.  1.
         12    1    3    3    0    0  0.20340024485E+00 -0.71861243612E+00  0.18597304183E+01  0.20040890004E+01  0.00000000000E+00 0. -1.
</event>
<event>
 7    1  0.2966651E-011  0.5052886E+02  0.7816164E-02  0.1300439E+00
        -11   -1    0    0    0    0  0.00000000000E+00  0.00000000000E+00  0.45593999997E+02  0.45594000000E+02  0.51100000000E-03 0.  1.
         11   -1    0    0    0    0 -0.00000000000E+00 -0.00000000000E+00 -0.45593999997E+02  0.45594000000E+02  0.51100000000E-03 0. -1.
    9900012    2    1    2    0    0  0.98706017322E+01  0.35312276820E+02  0.17572130321E+02  0.50528862813E+02  0.30000009006E+02 0.  0.
         12    1    1    2    0    0 -0.98706017322E+01 -0.35312276820E+02 -0.17572130321E+02  0.40659137187E+02  0.00000000000E+00 0. -1.
         11    1    3    3    0    0 -0.31406125057E+00  0.15369779995E+01 -0.59789353036E+01  0.61813108210E+01  0.51100000000E-03 0. -1.
        -11    1    3    3    0    0  0.12021107809E+02  0.25911124707E+02  0.22162212505E+02  0.36153244390E+02  0.51100000000E-03 0.  1.
         12    1    3    3    0    0 -0.18364448266E+01  0.78641741136E+01  0.13888531200E+01  0.81943076022E+01  0.00000000000E+00 0. -1.
</event>
<event>
 7    1  0.2966651E-011  0.5052885E+02  0.7816164E-02  0.1300439E+00
        -11   -1    0    0    0    0  0.00000000000E+00  0.00000000000E+00  0.45593999997E+02  0.45594000000E+02  0.51100000000E-03 0.  1.
         11   -1    0    0    0    0 -0.00000000000E+00 -0.00000000000E+00 -0.45593999997E+02  0.45594000000E+02  0.51100000000E-03 0. -1.
    9900012    2    1    2    0    0 -0.27444191224E+02  0.54633719827E+01  0.29498035369E+02  0.50528853969E+02  0.29999982124E+02 0.  0.
         12    1    1    2    0    0  0.27444191224E+02 -0.54633719827E+01 -0.29498035369E+02  0.40659146031E+02  0.00000000000E+00 0. -1.
         11    1    3    3    0    0 -0.14733168475E+02  0.69088781917E+01  0.76065899129E+01  0.17962713090E+02  0.51100000000E-03 0. -1.
        -11    1    3    3    0    0 -0.59616954928E+01  0.25686742921E+01  0.23644991282E+02  0.24519900361E+02  0.51100000000E-03 0.  1.
        -12    1    3    3    0    0 -0.67493272565E+01 -0.40141805011E+01 -0.17535458255E+01  0.80462405179E+01  0.00000000000E+00 0.  1.
</event>
<event>
 7    1  0.2966651E-011  0.5052886E+02  0.7816164E-02  0.1300439E+00
        -11   -1    0    0    0    0  0.00000000000E+00  0.00000000000E+00  0.45593999997E+02  0.45594000000E+02  0.51100000000E-03 0.  1.
         11   -1    0    0    0    0 -0.00000000000E+00 -0.00000000000E+00 -0.45593999997E+02  0.45594000000E+02  0.51100000000E-03 0. -1.
    9900012    2    1    2    0    0 -0.52354279780E+01  0.69150865836E+01  0.39723259410E+02  0.50528862445E+02  0.30000007887E+02 0.  0.
         12    1    1    2    0    0  0.52354279780E+01 -0.69150865836E+01 -0.39723259410E+02  0.40659137555E+02  0.00000000000E+00 0. -1.
         11    1    3    3    0    0  0.11259330576E+01 -0.82280953109E+00  0.72731467921E+00  0.15728088499E+01  0.51100000000E-03 0. -1.
        -11    1    3    3    0    0 -0.11960547743E+02 -0.64164308910E+01  0.24095614360E+02  0.27655450084E+02  0.51100000000E-03 0.  1.
        -12    1    3    3    0    0  0.55991867074E+01  0.14154327006E+02  0.14900330371E+02  0.21300603511E+02  0.00000000000E+00 0.  1.
</event>
<event>
 7    1  0.2966651E-011  0.5052885E+02  0.7816164E-02  0.1300439E+00
        -11   -1    0    0    0    0  0.00000000000E+00  0.00000000000E+00  0.45593999997E+02  0.45594000000E+02  0.51100000000E-03 0.  1.
         11   -1    0    0    0    0 -0.00000000000E+00 -0.00000000000E+00 -0.45593999997E+02  0.45594000000E+02  0.51100000000E-03 0. -1.
    9900012    2    1    2    0    0  0.33537287174E+02  0.94461275115E+01  0.20956791990E+02  0.50528854824E+02  0.29999984722E+02 0.  0.
         12    1    1    2    0    0 -0.33537287174E+02 -0.94461275115E+01 -0.20956791990E+02  0.40659145176E+02  0.00000000000E+00 0. -1.
         11    1    3    3    0    0  0.13528040866E+02 -0.33504716884E+01  0.10083294220E+02  0.17201929333E+02  0.51100000000E-03 0. -1.
        -11    1    3    3    0    0  0.77653456477E+01  0.16571437819E+02  0.37983292939E+01  0.18690651410E+02  0.51100000000E-03 0.  1.
        -12    1    3    3    0    0  0.12243900660E+02 -0.37748386195E+01  0.70751684764E+01  0.14636274080E+02  0.00000000000E+00 0.  1.
</event>
<event>
 7    1  0.2966651E-011  0.5052885E+02  0.7816164E-02  0.1300439E+00
        -11   -1    0    0    0    0  0.00000000000E+00  0.00000000000E+00  0.45593999997E+02  0.45594000000E+02  0.51100000000E-03 0.  1.
         11   -1    0    0    0    0 -0.00000000000E+00 -0.00000000000E+00 -0.45593999997E+02  0.45594000000E+02  0.51100000000E-03 0. -1.
    9900012    2    1    2    0    0  0.12503898033E+02  0.38641428207E+02 -0.19128744639E+01  0.50528849386E+02  0.29999968194E+02 0.  0.
         12    1    1    2    0    0 -0.12503898033E+02 -0.38641428207E+02  0.19128744639E+01  0.40659150614E+02  0.00000000000E+00 0. -1.
         11    1    3    3    0    0 -0.42846007624E+01  0.34660387897E+01  0.73780531049E+01  0.92090659931E+01  0.51100000000E-03 0.  1.
        -11    1    3    3    0    0  0.96589649629E+01  0.28724970256E+02 -0.93169057956E+01  0.31705271710E+02  0.51100000000E-03 0. -1.
        -12    1    3    3    0    0  0.71295338325E+01  0.64504191620E+01  0.25978226827E-01  0.96145116830E+01  0.00000000000E+00 0.  1.
</event>
<event>
 7    1  0.2966651E-011  0.5052886E+02  0.7816164E-02  0.1300439E+00
        -11   -1    0    0    0    0  0.00000000000E+00  0.00000000000E+00  0.45593999997E+02  0.45594000000E+02  0.51100000000E-03 0.  1.
         11   -1    0    0    0    0 -0.00000000000E+00 -0.00000000000E+00 -0.45593999997E+02  0.45594000000E+02  0.51100000000E-03 0. -1.
    9900012    2    1    2    0    0  0.37847215782E+02  0.93436755724E+01  0.11552038643E+02  0.50528860652E+02  0.30000002439E+02 0.  0.
         12    1    1    2    0    0 -0.37847215782E+02 -0.93436755724E+01 -0.11552038643E+02  0.40659139348E+02  0.00000000000E+00 0. -1.
         11    1    3    3    0    0  0.14915230961E+02  0.13954826168E+02  0.13170344075E+02  0.24303482288E+02  0.51100000000E-03 0. -1.
        -11    1    3    3    0    0  0.77878291244E+01 -0.72729741557E+01  0.68361467969E+00  0.10677722830E+02  0.51100000000E-03 0.  1.
         12    1    3    3    0    0  0.15144155697E+02  0.26618235605E+01 -0.23019201112E+01  0.15547655535E+02  0.00000000000E+00 0. -1.
</event>
<event>
 7    1  0.2966651E-011  0.5052886E+02  0.7816164E-02  0.1300439E+00
        -11   -1    0    0    0    0  0.00000000000E+00  0.00000000000E+00  0.45593999997E+02  0.45594000000E+02  0.51100000000E-03 0.  1.
         11   -1    0    0    0    0 -0.00000000000E+00 -0.00000000000E+00 -0.45593999997E+02  0.45594000000E+02  0.51100000000E-03 0. -1.
    9900012    2    1    2    0    0  0.17455400544E+02  0.44261035410E+00  0.36718916669E+02  0.50528858920E+02  0.29999997172E+02 0.  0.
         12    1    1    2    0    0 -0.17455400544E+02 -0.44261035410E+00 -0.36718916669E+02  0.40659141080E+02  0.00000000000E+00 0. -1.
         11    1    3    3    0    0  0.32164740009E+01 -0.10032760350E+02  0.59817424246E+01  0.12115412826E+02  0.51100000000E-03 0. -1.
        -11    1    3    3    0    0  0.59847283948E+01  0.13029102523E+02  0.20517115094E+02  0.25030511352E+02  0.51100000000E-03 0.  1.
        -12    1    3    3    0    0  0.82541981479E+01 -0.25537318182E+01  0.10220059151E+02  0.13382934742E+02  0.00000000000E+00 0.  1.
</event>
<event>
 7    1  0.2966651E-011  0.5052886E+02  0.7816164E-02  0.1300439E+00
        -11   -1    0    0    0    0  0.00000000000E+00  0.00000000000E+00  0.45593999997E+02  0.45594000000E+02  0.51100000000E-03 0.  1.
         11   -1    0    0    0    0 -0.00000000000E+00 -0.00000000000E+00 -0.45593999997E+02  0.45594000000E+02  0.51100000000E-03 0. -1.
    9900012    2    1    2    0    0  0.12737934939E+02 -0.34937626529E+02  0.16439985049E+02  0.50528857825E+02  0.29999993844E+02 0.  0.
         12    1    1    2    0    0 -0.12737934939E+02  0.34937626529E+02 -0.16439985049E+02  0.40659142175E+02  0.00000000000E+00 0. -1.
         11    1    3    3    0    0  0.40944923487E+01  0.44779475259E+01  0.60341780987E+01  0.85573469736E+01  0.51100000000E-03 0. -1.
        -11    1    3    3    0    0  0.93031342125E+01 -0.36020518431E+02  0.95421274552E+01  0.38406747465E+02  0.51100000000E-03 0.  1.
         12    1    3    3    0    0 -0.65969162204E+00 -0.33950556238E+01  0.86367949559E+00  0.35647633857E+01  0.00000000000E+00 0. -1.
</event>
<event>
 7    1  0.2966651E-011  0.5052885E+02  0.7816164E-02  0.1300439E+00
        -11   -1    0    0    0    0  0.00000000000E+00  0.00000000000E+00  0.45593999997E+02  0.45594000000E+02  0.51100000000E-03 0.  1.
         11   -1    0    0    0    0 -0.00000000000E+00 -0.00000000000E+00 -0.45593999997E+02  0.45594000000E+02  0.51100000000E-03 0. -1.
    9900012    2    1    2    0    0  0.13735187631E+02  0.26290009006E+02  0.27809102270E+02  0.50528854389E+02  0.29999983401E+02 0.  0.
         12    1    1    2    0    0 -0.13735187631E+02 -0.26290009006E+02 -0.27809102270E+02  0.40659145611E+02  0.00000000000E+00 0. -1.
         11    1    3    3    0    0 -0.41527737410E+01  0.60640426708E+01  0.45633459897E+00  0.73638566515E+01  0.51100000000E-03 0. -1.
        -11    1    3    3    0    0  0.20306613488E+02  0.15818369519E+02  0.14915087952E+02  0.29749608644E+02  0.51100000000E-03 0.  1.
        -12    1    3    3    0    0 -0.24186521162E+01  0.44075968166E+01  0.12437679719E+02  0.13415389094E+02  0.00000000000E+00 0.  1.
</event>
<event>
 7    1  0.2966651E-011  0.5052886E+02  0.7816164E-02  0.1300439E+00
        -11   -1    0    0    0    0  0.00000000000E+00  0.00000000000E+00  0.45593999997E+02  0.45594000000E+02  0.51100000000E-03 0.  1.
         11   -1    0    0    0    0 -0.00000000000E+00 -0.00000000000E+00 -0.45593999997E+02  0.45594000000E+02  0.51100000000E-03 0. -1.
    9900012    2    1    2    0    0  0.11648871131E+02 -0.51571922236E+01  0.38611818012E+02  0.50528864244E+02  0.30000013356E+02 0.  0.
         12    1    1    2    0    0 -0.11648871131E+02  0.51571922236E+01 -0.38611818012E+02  0.40659135756E+02  0.00000000000E+00 0. -1.
         11    1    3    3    0    0  0.53227093568E+01 -0.90602423397E+01  0.23507767127E+02  0.25749453231E+02  0.51100000000E-03 0.  1.
        -11    1    3    3    0    0  0.74015418986E+01  0.10460908054E+02  0.11507624825E+02  0.17223206704E+02  0.51100000000E-03 0. -1.
         12    1    3    3    0    0 -0.10753801242E+01 -0.65578579381E+01  0.35964260600E+01  0.75562043086E+01  0.00000000000E+00 0. -1.
</event>
<event>
 7    1  0.2966651E-011  0.5052886E+02  0.7816164E-02  0.1300439E+00
        -11   -1    0    0    0    0  0.00000000000E+00  0.00000000000E+00  0.45593999997E+02  0.45594000000E+02  0.51100000000E-03 0.  1.
         11   -1    0    0    0    0 -0.00000000000E+00 -0.00000000000E+00 -0.45593999997E+02  0.45594000000E+02  0.51100000000E-03 0. -1.
    9900012    2    1    2    0    0 -0.28226320488E+02 -0.78140900204E+01  0.28202488910E+02  0.50528861398E+02  0.30000004706E+02 0.  0.
         12    1    1    2    0    0  0.28226320488E+02  0.78140900204E+01 -0.28202488910E+02  0.40659138602E+02  0.00000000000E+00 0. -1.
         11    1    3    3    0    0 -0.83070797223E+00 -0.67847876531E+01  0.14465975000E+01  0.69868493487E+01  0.51100000000E-03 0. -1.
        -11    1    3    3    0    0 -0.10545310127E+02  0.89666218629E+01  0.16125554466E+02  0.21251761819E+02  0.51100000000E-03 0.  1.
        -12    1    3    3    0    0 -0.16850302389E+02 -0.99959242302E+01  0.10630336943E+02  0.22290250231E+02  0.00000000000E+00 0.  1.
</event>
<event>
 7    1  0.2966651E-011  0.5052885E+02  0.7816164E-02  0.1300439E+00
        -11   -1    0    0    0    0  0.00000000000E+00  0.00000000000E+00  0.45593999997E+02  0.45594000000E+02  0.51100000000E-03 0.  1.
         11   -1    0    0    0    0 -0.00000000000E+00 -0.00000000000E+00 -0.45593999997E+02  0.45594000000E+02  0.51100000000E-03 0. -1.
    9900012    2    1    2    0    0 -0.27017185188E+02 -0.23139906764E+02  0.19692200949E+02  0.50528851475E+02  0.29999974544E+02 0.  0.
         12    1    1    2    0    0  0.27017185188E+02  0.23139906764E+02 -0.19692200949E+02  0.40659148525E+02  0.00000000000E+00 0. -1.
         11    1    3    3    0    0 -0.77694173077E+01 -0.24024072899E+02  0.47036871771E+01  0.25683547210E+02  0.51100000000E-03 0. -1.
        -11    1    3    3    0    0 -0.74712122983E+01 -0.66703308842E+00  0.84020667145E+01  0.11263155494E+02  0.51100000000E-03 0.  1.
         12    1    3    3    0    0 -0.11776555582E+02  0.15511992232E+01  0.65864470576E+01  0.13582148771E+02  0.00000000000E+00 0. -1.
</event>
<event>
 7    1  0.2966651E-011  0.5052886E+02  0.7816164E-02  0.1300439E+00
        -11   -1    0    0    0    0  0.00000000000E+00  0.00000000000E+00  0.45593999997E+02  0.45594000000E+02  0.51100000000E-03 0.  1.
         11   -1    0    0    0    0 -0.00000000000E+00 -0.00000000000E+00 -0.45593999997E+02  0.45594000000E+02  0.51100000000E-03 0. -1.
    9900012    2    1    2    0    0 -0.20366141531E+02  0.21655560854E+02  0.27738467280E+02  0.50528860760E+02  0.30000002765E+02 0.  0.
         12    1    1    2    0    0  0.20366141531E+02 -0.21655560854E+02 -0.27738467280E+02  0.40659139240E+02  0.00000000000E+00 0. -1.
         11    1    3    3    0    0 -0.93980394555E+01  0.96371685801E+00  0.21216936341E+02  0.23225207938E+02  0.51100000000E-03 0. -1.
        -11    1    3    3    0    0 -0.70215777031E+00  0.10864374314E+02 -0.14914613419E+01  0.10988726585E+02  0.51100000000E-03 0.  1.
        -12    1    3    3    0    0 -0.10265944305E+02  0.98274696820E+01  0.80129922801E+01  0.16314926237E+02  0.00000000000E+00 0.  1.
</event>
<event>
 7    1  0.2966651E-011  0.5052886E+02  0.7816164E-02  0.1300439E+00
        -11   -1    0    0    0    0  0.00000000000E+00  0.00000000000E+00  0.45593999997E+02  0.45594000000E+02  0.51100000000E-03 0.  1.
         11   -1    0    0    0    0 -0.00000000000E+00 -0.00000000000E+00 -0.45593999997E+02  0.45594000000E+02  0.51100000000E-03 0. -1.
    9900012    2    1    2    0    0 -0.68658235128E+01  0.20757090352E+02  0.34280741665E+02  0.50528861034E+02  0.30000003598E+02 0.  0.
         12    1    1    2    0    0  0.68658235128E+01 -0.20757090352E+02 -0.34280741665E+02  0.40659138966E+02  0.00000000000E+00 0. -1.
         11    1    3    3    0    0  0.27346692983E+01  0.23452700534E+02  0.24046845218E+02  0.33701013986E+02  0.51100000000E-03 0. -1.
        -11    1    3    3    0    0 -0.46704179840E+01 -0.58286108605E+01  0.50310751887E+01  0.90053998536E+01  0.51100000000E-03 0.  1.
         12    1    3    3    0    0 -0.49300748270E+01  0.31330006778E+01  0.52028212585E+01  0.78224471935E+01  0.00000000000E+00 0. -1.
</event>
<event>
 7    1  0.2966651E-011  0.5052888E+02  0.7816164E-02  0.1300439E+00
        -11   -1    0    0    0    0  0.00000000000E+00  0.00000000000E+00  0.45593999997E+02  0.45594000000E+02  0.51100000000E-03 0.  1.
         11   -1    0    0    0    0 -0.00000000000E+00 -0.00000000000E+00 -0.45593999997E+02  0.45594000000E+02  0.51100000000E-03 0. -1.
    9900012    2    1    2    0    0 -0.19746912065E+02  0.56927533850E+01  0.35082990860E+02  0.50528877716E+02  0.30000054307E+02 0.  0.
         12    1    1    2    0    0  0.19746912065E+02 -0.56927533850E+01 -0.35082990860E+02  0.40659122284E+02  0.00000000000E+00 0. -1.
         11    1    3    3    0    0 -0.11514230352E+02 -0.31260133612E+01  0.83726966064E+00  0.11960371268E+02  0.51100000000E-03 0. -1.
        -11    1    3    3    0    0 -0.22448108818E+01  0.10456764073E+02  0.26917162843E+02  0.28964059566E+02  0.51100000000E-03 0.  1.
        -12    1    3    3    0    0 -0.59878708311E+01 -0.16379973266E+01  0.73285583558E+01  0.96044468818E+01  0.00000000000E+00 0.  1.
</event>
<event>
 7    1  0.2966651E-011  0.5052886E+02  0.7816164E-02  0.1300439E+00
        -11   -1    0    0    0    0  0.00000000000E+00  0.00000000000E+00  0.45593999997E+02  0.45594000000E+02  0.51100000000E-03 0.  1.
         11   -1    0    0    0    0 -0.00000000000E+00 -0.00000000000E+00 -0.45593999997E+02  0.45594000000E+02  0.51100000000E-03 0. -1.
    9900012    2    1    2    0    0  0.31190261938E+02 -0.15597339064E+02  0.20905895609E+02  0.50528857155E+02  0.29999991809E+02 0.  0.
         12    1    1    2    0    0 -0.31190261938E+02  0.15597339064E+02 -0.20905895609E+02  0.40659142845E+02  0.00000000000E+00 0. -1.
         11    1    3    3    0    0  0.70595860883E+01 -0.11545597235E+00 -0.51535730929E+01  0.87413043480E+01  0.51100000000E-03 0. -1.
        -11    1    3    3    0    0  0.22752808631E+02 -0.15792991579E+02  0.28002126480E+02  0.39385631534E+02  0.51100000000E-03 0.  1.
        -12    1    3    3    0    0  0.13778672186E+01  0.31110848746E+00 -0.19426577778E+01  0.24019212736E+01  0.00000000000E+00 0.  1.
</event>
<event>
 7    1  0.2966651E-011  0.5052887E+02  0.7816164E-02  0.1300439E+00
        -11   -1    0    0    0    0  0.00000000000E+00  0.00000000000E+00  0.45593999997E+02  0.45594000000E+02  0.51100000000E-03 0. -1.
         11   -1    0    0    0    0 -0.00000000000E+00 -0.00000000000E+00 -0.45593999997E+02  0.45594000000E+02  0.51100000000E-03 0.  1.
    9900012    2    1    2    0    0 -0.40179786677E+02  0.59944893900E+01 -0.16780444201E+01  0.50528868264E+02  0.30000025574E+02 0.  0.
         12    1    1    2    0    0  0.40179786677E+02 -0.59944893900E+01  0.16780444201E+01  0.40659131736E+02  0.00000000000E+00 0. -1.
         11    1    3    3    0    0 -0.12552085403E+02 -0.19148209638E+01  0.37005616223E+01  0.13225564029E+02  0.51100000000E-03 0. -1.
        -11    1    3    3    0    0 -0.14481589743E+02  0.14819361106E+02  0.18181624129E+01  0.20799894709E+02  0.51100000000E-03 0.  1.
        -12    1    3    3    0    0 -0.13146111531E+02 -0.69100507526E+01 -0.71967684553E+01  0.16503409526E+02  0.00000000000E+00 0.  1.
</event>
<event>
 7    1  0.2966651E-011  0.5052883E+02  0.7816164E-02  0.1300439E+00
        -11   -1    0    0    0    0  0.00000000000E+00  0.00000000000E+00  0.45593999997E+02  0.45594000000E+02  0.51100000000E-03 0.  1.
         11   -1    0    0    0    0 -0.00000000000E+00 -0.00000000000E+00 -0.45593999997E+02  0.45594000000E+02  0.51100000000E-03 0. -1.
    9900012    2    1    2    0    0 -0.13551626762E+02  0.28046654660E+02  0.26132475709E+02  0.50528834831E+02  0.29999923953E+02 0.  0.
         12    1    1    2    0    0  0.13551626762E+02 -0.28046654660E+02 -0.26132475709E+02  0.40659165169E+02  0.00000000000E+00 0. -1.
         11    1    3    3    0    0 -0.16639710292E+02  0.92864783222E+01  0.21350229018E+01  0.19174904466E+02  0.51100000000E-03 0. -1.
        -11    1    3    3    0    0 -0.45654728786E+00  0.11065480555E+02  0.96371674157E+01  0.14680881834E+02  0.51100000000E-03 0.  1.
         12    1    3    3    0    0  0.35446308174E+01  0.76946957822E+01  0.14360285392E+02  0.16673048532E+02  0.00000000000E+00 0. -1.
</event>
<event>
 7    1  0.2966651E-011  0.5052886E+02  0.7816164E-02  0.1300439E+00
        -11   -1    0    0    0    0  0.00000000000E+00  0.00000000000E+00  0.45593999997E+02  0.45594000000E+02  0.51100000000E-03 0.  1.
         11   -1    0    0    0    0 -0.00000000000E+00 -0.00000000000E+00 -0.45593999997E+02  0.45594000000E+02  0.51100000000E-03 0. -1.
    9900012    2    1    2    0    0 -0.33228183867E+02 -0.10415788861E+02  0.20989636002E+02  0.50528859820E+02  0.29999999909E+02 0.  0.
         12    1    1    2    0    0  0.33228183867E+02  0.10415788861E+02 -0.20989636002E+02  0.40659140180E+02  0.00000000000E+00 0. -1.
         11    1    3    3    0    0 -0.24832843662E+02 -0.92976873050E+01  0.21741609502E+02  0.34290154528E+02  0.51100000000E-03 0. -1.
        -11    1    3    3    0    0  0.12391678208E+01  0.24236843601E+01  0.40710029205E+01  0.48972285841E+01  0.51100000000E-03 0.  1.
         12    1    3    3    0    0 -0.96345080257E+01 -0.35417859159E+01 -0.48229764201E+01  0.11341476708E+02  0.00000000000E+00 0. -1.
</event>
<event>
 7    1  0.2966651E-011  0.5052886E+02  0.7816164E-02  0.1300439E+00
        -11   -1    0    0    0    0  0.00000000000E+00  0.00000000000E+00  0.45593999997E+02  0.45594000000E+02  0.51100000000E-03 0.  1.
         11   -1    0    0    0    0 -0.00000000000E+00 -0.00000000000E+00 -0.45593999997E+02  0.45594000000E+02  0.51100000000E-03 0. -1.
    9900012    2    1    2    0    0  0.10250042117E+02 -0.35379335634E+02  0.17216410540E+02  0.50528861480E+02  0.30000004955E+02 0.  0.
         12    1    1    2    0    0 -0.10250042117E+02  0.35379335634E+02 -0.17216410540E+02  0.40659138520E+02  0.00000000000E+00 0. -1.
         11    1    3    3    0    0  0.60773191883E+01  0.18415931120E+01  0.92923685446E+01  0.11254927238E+02  0.51100000000E-03 0. -1.
        -11    1    3    3    0    0 -0.22260988343E+01 -0.17559993905E+02  0.49924926715E+01  0.18391136052E+02  0.51100000000E-03 0.  1.
         12    1    3    3    0    0  0.63988217632E+01 -0.19660934841E+02  0.29315493239E+01  0.20882798190E+02  0.00000000000E+00 0. -1.
</event>
<event>
 7    1  0.2966651E-011  0.5052885E+02  0.7816164E-02  0.1300439E+00
        -11   -1    0    0    0    0  0.00000000000E+00  0.00000000000E+00  0.45593999997E+02  0.45594000000E+02  0.51100000000E-03 0.  1.
         11   -1    0    0    0    0 -0.00000000000E+00 -0.00000000000E+00 -0.45593999997E+02  0.45594000000E+02  0.51100000000E-03 0. -1.
    9900012    2    1    2    0    0  0.18767512788E+02 -0.27840355409E+02  0.22931667426E+02  0.50528852241E+02  0.29999976872E+02 0.  0.
         12    1    1    2    0    0 -0.18767512788E+02  0.27840355409E+02 -0.22931667426E+02  0.40659147759E+02  0.00000000000E+00 0. -1.
         11    1    3    3    0    0  0.10299209656E+01 -0.13085762635E+02  0.19865779766E+02  0.23810651543E+02  0.51100000000E-03 0. -1.
        -11    1    3    3    0    0  0.48533079297E+01 -0.88547613752E+01 -0.40274891784E+01  0.10871157538E+02  0.51100000000E-03 0.  1.
         12    1    3    3    0    0  0.12884283892E+02 -0.58998313993E+01  0.70933768385E+01  0.15847043160E+02  0.00000000000E+00 0. -1.
</event>
<event>
 7    1  0.2966651E-011  0.5052887E+02  0.7816164E-02  0.1300439E+00
        -11   -1    0    0    0    0  0.00000000000E+00  0.00000000000E+00  0.45593999997E+02  0.45594000000E+02  0.51100000000E-03 0. -1.
         11   -1    0    0    0    0 -0.00000000000E+00 -0.00000000000E+00 -0.45593999997E+02  0.45594000000E+02  0.51100000000E-03 0.  1.
    9900012    2    1    2    0    0  0.26203732832E+02 -0.31056327620E+02  0.14260174541E+01  0.50528872792E+02  0.30000039338E+02 0.  0.
         12    1    1    2    0    0 -0.26203732832E+02  0.31056327620E+02 -0.14260174541E+01  0.40659127208E+02  0.00000000000E+00 0. -1.
         11    1    3    3    0    0  0.40427466745E+01  0.89623962414E+00 -0.47325163923E+00  0.41678547855E+01  0.51100000000E-03 0. -1.
        -11    1    3    3    0    0 -0.18268795600E+00 -0.20908067717E+02  0.42146098029E+01  0.21329407085E+02  0.51100000000E-03 0.  1.
        -12    1    3    3    0    0  0.22343674114E+02 -0.11044499527E+02 -0.23153407096E+01  0.25031610921E+02  0.00000000000E+00 0.  1.
</event>
<event>
 7    1  0.2966651E-011  0.5052886E+02  0.7816164E-02  0.1300439E+00
        -11   -1    0    0    0    0  0.00000000000E+00  0.00000000000E+00  0.45593999997E+02  0.45594000000E+02  0.51100000000E-03 0.  1.
         11   -1    0    0    0    0 -0.00000000000E+00 -0.00000000000E+00 -0.45593999997E+02  0.45594000000E+02  0.51100000000E-03 0. -1.
    9900012    2    1    2    0    0 -0.33303199120E+02 -0.22902685567E+02  0.44192497956E+01  0.50528857774E+02  0.29999993689E+02 0.  0.
         12    1    1    2    0    0  0.33303199120E+02  0.22902685567E+02 -0.44192497956E+01  0.40659142226E+02  0.00000000000E+00 0. -1.
         11    1    3    3    0    0 -0.17032265337E+02 -0.21287000521E+02 -0.15503834413E+01  0.27306375497E+02  0.51100000000E-03 0. -1.
        -11    1    3    3    0    0 -0.12303058884E+02  0.60818180874E+01  0.28447211429E+01  0.14015926933E+02  0.51100000000E-03 0.  1.
        -12    1    3    3    0    0 -0.39678748987E+01 -0.76975031336E+01  0.31249120940E+01  0.92065553438E+01  0.00000000000E+00 0.  1.
</event>
<event>
 7    1  0.2966651E-011  0.5052886E+02  0.7816164E-02  0.1300439E+00
        -11   -1    0    0    0    0  0.00000000000E+00  0.00000000000E+00  0.45593999997E+02  0.45594000000E+02  0.51100000000E-03 0. -1.
         11   -1    0    0    0    0 -0.00000000000E+00 -0.00000000000E+00 -0.45593999997E+02  0.45594000000E+02  0.51100000000E-03 0.  1.
    9900012    2    1    2    0    0  0.29036261946E+02 -0.17818839158E+02 -0.22193461548E+02  0.50528864837E+02  0.30000015158E+02 0.  0.
         12    1    1    2    0    0 -0.29036261946E+02  0.17818839158E+02  0.22193461548E+02  0.40659135163E+02  0.00000000000E+00 0. -1.
         11    1    3    3    0    0  0.98833083842E+01 -0.16204623564E+01  0.62551308748E+01  0.11808147416E+02  0.51100000000E-03 0. -1.
        -11    1    3    3    0    0  0.58016918424E+00 -0.19730143242E+00 -0.41814833674E+01  0.42261480749E+01  0.51100000000E-03 0.  1.
         12    1    3    3    0    0  0.18572784378E+02 -0.16001075369E+02 -0.24267109055E+02  0.34494569346E+02  0.00000000000E+00 0. -1.
</event>
<event>
 7    1  0.2966651E-011  0.5052886E+02  0.7816164E-02  0.1300439E+00
        -11   -1    0    0    0    0  0.00000000000E+00  0.00000000000E+00  0.45593999997E+02  0.45594000000E+02  0.51100000000E-03 0.  1.
         11   -1    0    0    0    0 -0.00000000000E+00 -0.00000000000E+00 -0.45593999997E+02  0.45594000000E+02  0.51100000000E-03 0. -1.
    9900012    2    1    2    0    0 -0.71811947988E+01 -0.34990017633E+02  0.19424068330E+02  0.50528864210E+02  0.30000013253E+02 0.  0.
         12    1    1    2    0    0  0.71811947988E+01  0.34990017633E+02 -0.19424068330E+02  0.40659135790E+02  0.00000000000E+00 0. -1.
         11    1    3    3    0    0 -0.13967493028E+02 -0.21599142371E+02  0.21707584810E+01  0.25813291253E+02  0.51100000000E-03 0. -1.
        -11    1    3    3    0    0  0.50424186217E+01 -0.61214018798E+01  0.14898273736E+02  0.16877680739E+02  0.51100000000E-03 0.  1.
         12    1    3    3    0    0  0.17438796076E+01 -0.72694733821E+01  0.23550361126E+01  0.78378922186E+01  0.00000000000E+00 0. -1.
</event>
<event>
 7    1  0.2966651E-011  0.5052886E+02  0.7816164E-02  0.1300439E+00
        -11   -1    0    0    0    0  0.00000000000E+00  0.00000000000E+00  0.45593999997E+02  0.45594000000E+02  0.51100000000E-03 0.  1.
         11   -1    0    0    0    0 -0.00000000000E+00 -0.00000000000E+00 -0.45593999997E+02  0.45594000000E+02  0.51100000000E-03 0. -1.
    9900012    2    1    2    0    0 -0.79004258485E+01 -0.39811304912E+02  0.24102397894E+01  0.50528856094E+02  0.29999988582E+02 0.  0.
         12    1    1    2    0    0  0.79004258485E+01  0.39811304912E+02 -0.24102397894E+01  0.40659143906E+02  0.00000000000E+00 0. -1.
         11    1    3    3    0    0 -0.24324330479E+01 -0.28250905483E+01 -0.96557459247E+00  0.38510000900E+01  0.51100000000E-03 0. -1.
        -11    1    3    3    0    0 -0.83434627803E+01  0.21369170686E+00 -0.29145212973E+01  0.88404451226E+01  0.51100000000E-03 0.  1.
        -12    1    3    3    0    0  0.28754699796E+01 -0.37199906070E+02  0.62903356792E+01  0.37837410881E+02  0.00000000000E+00 0.  1.
</event>
<event>
 7    1  0.2966651E-011  0.5052886E+02  0.7816164E-02  0.1300439E+00
        -11   -1    0    0    0    0  0.00000000000E+00  0.00000000000E+00  0.45593999997E+02  0.45594000000E+02  0.51100000000E-03 0. -1.
         11   -1    0    0    0    0 -0.00000000000E+00 -0.00000000000E+00 -0.45593999997E+02  0.45594000000E+02  0.51100000000E-03 0.  1.
    9900012    2    1    2    0    0 -0.21652128177E+01 -0.33852401299E+02 -0.22416342744E+02  0.50528860286E+02  0.30000001325E+02 0.  0.
         12    1    1    2    0    0  0.21652128177E+01  0.33852401299E+02  0.22416342744E+02  0.40659139714E+02  0.00000000000E+00 0. -1.
         11    1    3    3    0    0  0.65264688610E+01 -0.93229310080E+00 -0.76586192289E+01  0.10105365653E+02  0.51100000000E-03 0. -1.
        -11    1    3    3    0    0 -0.12444951545E+02 -0.30491084337E+02 -0.11466981153E+02  0.34872262616E+02  0.51100000000E-03 0.  1.
        -12    1    3    3    0    0  0.37532698659E+01 -0.24290238616E+01 -0.32907423628E+01  0.55512320168E+01  0.00000000000E+00 0.  1.
</event>
<event>
 7    1  0.2966651E-011  0.5052886E+02  0.7816164E-02  0.1300439E+00
        -11   -1    0    0    0    0  0.00000000000E+00  0.00000000000E+00  0.45593999997E+02  0.45594000000E+02  0.51100000000E-03 0.  1.
         11   -1    0    0    0    0 -0.00000000000E+00 -0.00000000000E+00 -0.45593999997E+02  0.45594000000E+02  0.51100000000E-03 0. -1.
    9900012    2    1    2    0    0 -0.23248075252E+01 -0.33327062778E+02  0.23174719376E+02  0.50528862508E+02  0.30000008080E+02 0.  0.
         12    1    1    2    0    0  0.23248075252E+01  0.33327062778E+02 -0.23174719376E+02  0.40659137492E+02  0.00000000000E+00 0. -1.
         11    1    3    3    0    0 -0.13937624229E+02 -0.11147232276E+02  0.15263424909E+02  0.23483830539E+02  0.51100000000E-03 0.  1.
        -11    1    3    3    0    0  0.11882200163E+02 -0.18754534277E+02  0.55779749183E+01  0.22891767978E+02  0.51100000000E-03 0. -1.
        -12    1    3    3    0    0 -0.26938345978E+00 -0.34252962237E+01  0.23333195485E+01  0.41532639917E+01  0.00000000000E+00 0.  1.
</event>
<event>
 7    1  0.2966651E-011  0.5052886E+02  0.7816164E-02  0.1300439E+00
        -11   -1    0    0    0    0  0.00000000000E+00  0.00000000000E+00  0.45593999997E+02  0.45594000000E+02  0.51100000000E-03 0.  1.
         11   -1    0    0    0    0 -0.00000000000E+00 -0.00000000000E+00 -0.45593999997E+02  0.45594000000E+02  0.51100000000E-03 0. -1.
    9900012    2    1    2    0    0 -0.13147845226E+02  0.21628681597E+02  0.31819805111E+02  0.50528859588E+02  0.29999999204E+02 0.  0.
         12    1    1    2    0    0  0.13147845226E+02 -0.21628681597E+02 -0.31819805111E+02  0.40659140412E+02  0.00000000000E+00 0. -1.
         11    1    3    3    0    0 -0.29498500378E+01  0.20374381291E+02  0.46761253484E+01  0.21111209742E+02  0.51100000000E-03 0. -1.
        -11    1    3    3    0    0 -0.44249225618E+01 -0.10388224194E+01  0.16288584620E+02  0.16910856894E+02  0.51100000000E-03 0.  1.
         12    1    3    3    0    0 -0.57730726262E+01  0.22931227249E+01  0.10855095143E+02  0.12506792952E+02  0.00000000000E+00 0. -1.
</event>
<event>
 7    1  0.2966651E-011  0.5052886E+02  0.7816164E-02  0.1300439E+00
        -11   -1    0    0    0    0  0.00000000000E+00  0.00000000000E+00  0.45593999997E+02  0.45594000000E+02  0.51100000000E-03 0.  1.
         11   -1    0    0    0    0 -0.00000000000E+00 -0.00000000000E+00 -0.45593999997E+02  0.45594000000E+02  0.51100000000E-03 0. -1.
    9900012    2    1    2    0    0 -0.36734921471E+02 -0.59209619504E+01  0.16390660647E+02  0.50528855858E+02  0.29999987866E+02 0.  0.
         12    1    1    2    0    0  0.36734921471E+02  0.59209619504E+01 -0.16390660647E+02  0.40659144142E+02  0.00000000000E+00 0. -1.
         11    1    3    3    0    0 -0.23308541982E+02 -0.93739794397E+01  0.25715081450E+01  0.25254153604E+02  0.51100000000E-03 0.  1.
        -11    1    3    3    0    0  0.33675483469E+01  0.13164205177E+01  0.50446283119E+01  0.62065787609E+01  0.51100000000E-03 0. -1.
         12    1    3    3    0    0 -0.16793927837E+02  0.21365969716E+01  0.87745241897E+01  0.19068123493E+02  0.00000000000E+00 0. -1.
</event>
<event>
 7    1  0.2966651E-011  0.5052886E+02  0.7816164E-02  0.1300439E+00
        -11   -1    0    0    0    0  0.00000000000E+00  0.00000000000E+00  0.45593999997E+02  0.45594000000E+02  0.51100000000E-03 0.  1.
         11   -1    0    0    0    0 -0.00000000000E+00 -0.00000000000E+00 -0.45593999997E+02  0.45594000000E+02  0.51100000000E-03 0. -1.
    9900012    2    1    2    0    0  0.11436279491E+02 -0.17696464997E+02  0.34773728937E+02  0.50528860976E+02  0.30000003422E+02 0.  0.
         12    1    1    2    0    0 -0.11436279491E+02  0.17696464997E+02 -0.34773728937E+02  0.40659139024E+02  0.00000000000E+00 0. -1.
         11    1    3    3    0    0 -0.47537430700E+01 -0.46415011187E+01  0.53963276963E+01  0.85593199892E+01  0.51100000000E-03 0. -1.
        -11    1    3    3    0    0  0.16790878221E+02 -0.16294387507E+02  0.30542901322E+02  0.38474790150E+02  0.51100000000E-03 0.  1.
        -12    1    3    3    0    0 -0.60085565988E+00  0.32394236289E+01 -0.11655000808E+01  0.34947508366E+01  0.00000000000E+00 0.  1.
</event>
<event>
 7    1  0.2966651E-011  0.5052889E+02  0.7816164E-02  0.1300439E+00
        -11   -1    0    0    0    0  0.00000000000E+00  0.00000000000E+00  0.45593999997E+02  0.45594000000E+02  0.51100000000E-03 0.  1.
         11   -1    0    0    0    0 -0.00000000000E+00 -0.00000000000E+00 -0.45593999997E+02  0.45594000000E+02  0.51100000000E-03 0. -1.
    9900012    2    1    2    0    0  0.20493392247E+02  0.90018883337E+01  0.33943334268E+02  0.50528892033E+02  0.30000097825E+02 0.  0.
         12    1    1    2    0    0 -0.20493392247E+02 -0.90018883337E+01 -0.33943334268E+02  0.40659107967E+02  0.00000000000E+00 0. -1.
         11    1    3    3    0    0 -0.68960214919E+01 -0.24094475656E+01  0.44810043753E+01  0.85697112239E+01  0.51100000000E-03 0. -1.
        -11    1    3    3    0    0  0.75834485276E+01  0.16280261248E+01  0.84774147597E+01  0.11490244641E+02  0.51100000000E-03 0.  1.
         12    1    3    3    0    0  0.19805965212E+02  0.97833097745E+01  0.20984915133E+02  0.30468936169E+02  0.00000000000E+00 0. -1.
</event>
<event>
 7    1  0.3311652E-011  0.5052886E+02  0.7816164E-02  0.1300439E+00
        -11   -1    0    0    0    0  0.00000000000E+00  0.00000000000E+00  0.45593999997E+02  0.45594000000E+02  0.51100000000E-03 0.  1.
         11   -1    0    0    0    0 -0.00000000000E+00 -0.00000000000E+00 -0.45593999997E+02  0.45594000000E+02  0.51100000000E-03 0. -1.
    9900012    2    1    2    0    0  0.27657058306E+02  0.28717396204E+02  0.79727124586E+01  0.50528857574E+02  0.29999993083E+02 0.  0.
         12    1    1    2    0    0 -0.27657058306E+02 -0.28717396204E+02 -0.79727124586E+01  0.40659142426E+02  0.00000000000E+00 0. -1.
         11    1    3    3    0    0  0.83105758830E+01  0.40701107095E+01 -0.82193145216E+01  0.12376938400E+02  0.51100000000E-03 0. -1.
        -11    1    3    3    0    0  0.18967911855E+02  0.13390783294E+02  0.98024554695E+01  0.25202834977E+02  0.51100000000E-03 0.  1.
         12    1    3    3    0    0  0.37857056753E+00  0.11256502200E+02  0.63895715107E+01  0.12949084197E+02  0.00000000000E+00 0. -1.
</event>
<event>
 7    1  0.2966651E-011  0.5052886E+02  0.7816164E-02  0.1300439E+00
        -11   -1    0    0    0    0  0.00000000000E+00  0.00000000000E+00  0.45593999997E+02  0.45594000000E+02  0.51100000000E-03 0.  1.
         11   -1    0    0    0    0 -0.00000000000E+00 -0.00000000000E+00 -0.45593999997E+02  0.45594000000E+02  0.51100000000E-03 0. -1.
    9900012    2    1    2    0    0  0.10885022562E+02  0.33666693860E+02  0.20030869637E+02  0.50528859207E+02  0.29999998044E+02 0.  0.
         12    1    1    2    0    0 -0.10885022562E+02 -0.33666693860E+02 -0.20030869637E+02  0.40659140793E+02  0.00000000000E+00 0. -1.
         11    1    3    3    0    0  0.15552040499E+02  0.26492956477E+02  0.11778070245E+02  0.32900845666E+02  0.51100000000E-03 0.  1.
        -11    1    3    3    0    0 -0.41143008556E+01  0.41173253948E+01 -0.25740888816E+01  0.63644146446E+01  0.51100000000E-03 0. -1.
        -12    1    3    3    0    0 -0.55271708119E+00  0.30564119888E+01  0.10826888273E+02  0.11263598896E+02  0.00000000000E+00 0.  1.
</event>
<event>
 7    1  0.2966651E-011  0.5052887E+02  0.7816164E-02  0.1300439E+00
        -11   -1    0    0    0    0  0.00000000000E+00  0.00000000000E+00  0.45593999997E+02  0.45594000000E+02  0.51100000000E-03 0.  1.
         11   -1    0    0    0    0 -0.00000000000E+00 -0.00000000000E+00 -0.45593999997E+02  0.45594000000E+02  0.51100000000E-03 0. -1.
    9900012    2    1    2    0    0  0.14253351367E+02 -0.24965160924E+02  0.28753221824E+02  0.50528867564E+02  0.30000023449E+02 0.  0.
         12    1    1    2    0    0 -0.14253351367E+02  0.24965160924E+02 -0.28753221824E+02  0.40659132436E+02  0.00000000000E+00 0. -1.
         11    1    3    3    0    0  0.14161672179E+02 -0.15215647430E+02  0.31205768209E+02  0.37494917727E+02  0.51100000000E-03 0. -1.
        -11    1    3    3    0    0 -0.13397470736E+00 -0.35748114190E+00  0.24206080647E+01  0.24505276275E+01  0.51100000000E-03 0.  1.
         12    1    3    3    0    0  0.22565389560E+00 -0.93920323520E+01 -0.48731544491E+01  0.10583422210E+02  0.00000000000E+00 0. -1.
</event>
<event>
 7    1  0.2966651E-011  0.5052887E+02  0.7816164E-02  0.1300439E+00
        -11   -1    0    0    0    0  0.00000000000E+00  0.00000000000E+00  0.45593999997E+02  0.45594000000E+02  0.51100000000E-03 0.  1.
         11   -1    0    0    0    0 -0.00000000000E+00 -0.00000000000E+00 -0.45593999997E+02  0.45594000000E+02  0.51100000000E-03 0. -1.
    9900012    2    1    2    0    0  0.29474328989E+02 -0.27527931419E+02 -0.51615991613E+01  0.50528865928E+02  0.30000018475E+02 0.  0.
         12    1    1    2    0    0 -0.29474328989E+02  0.27527931419E+02  0.51615991613E+01  0.40659134072E+02  0.00000000000E+00 0. -1.
         11    1    3    3    0    0  0.12610073117E+02 -0.62974564707E+01 -0.27696491367E+01  0.14364639175E+02  0.51100000000E-03 0. -1.
        -11    1    3    3    0    0  0.61598017703E+01 -0.17837893014E+02  0.83392068772E+01  0.20631915971E+02  0.51100000000E-03 0.  1.
         12    1    3    3    0    0  0.10704454101E+02 -0.33925819344E+01 -0.10731156902E+02  0.15532310782E+02  0.00000000000E+00 0. -1.
</event>
<event>
 7    1  0.2966651E-011  0.5052886E+02  0.7816164E-02  0.1300439E+00
        -11   -1    0    0    0    0  0.00000000000E+00  0.00000000000E+00  0.45593999997E+02  0.45594000000E+02  0.51100000000E-03 0.  1.
         11   -1    0    0    0    0 -0.00000000000E+00 -0.00000000000E+00 -0.45593999997E+02  0.45594000000E+02  0.51100000000E-03 0. -1.
    9900012    2    1    2    0    0 -0.24787710693E+02  0.19149243826E+02  0.25923764612E+02  0.50528859427E+02  0.29999998714E+02 0.  0.
         12    1    1    2    0    0  0.24787710693E+02 -0.19149243826E+02 -0.25923764612E+02  0.40659140573E+02  0.00000000000E+00 0. -1.
         11    1    3    3    0    0  0.54777037016E+01  0.58171136805E+01  0.34997029769E+01  0.87230711680E+01  0.51100000000E-03 0. -1.
        -11    1    3    3    0    0 -0.20444236796E+02  0.14634961342E+02  0.18185298403E+02  0.31029888655E+02  0.51100000000E-03 0.  1.
        -12    1    3    3    0    0 -0.98211775983E+01 -0.13028311961E+01  0.42387632319E+01  0.10775899604E+02  0.00000000000E+00 0.  1.
</event>
<event>
 7    1  0.2966651E-011  0.5052886E+02  0.7816164E-02  0.1300439E+00
        -11   -1    0    0    0    0  0.00000000000E+00  0.00000000000E+00  0.45593999997E+02  0.45594000000E+02  0.51100000000E-03 0.  1.
         11   -1    0    0    0    0 -0.00000000000E+00 -0.00000000000E+00 -0.45593999997E+02  0.45594000000E+02  0.51100000000E-03 0. -1.
    9900012    2    1    2    0    0 -0.20962504013E+02 -0.34656901439E+02  0.35550723347E+01  0.50528856733E+02  0.29999990527E+02 0.  0.
         12    1    1    2    0    0  0.20962504013E+02  0.34656901439E+02 -0.35550723347E+01  0.40659143267E+02  0.00000000000E+00 0. -1.
         11    1    3    3    0    0  0.36629776623E+01 -0.19600855615E+01  0.34204587120E+00  0.41684933012E+01  0.51100000000E-03 0. -1.
        -11    1    3    3    0    0 -0.21286506975E+02 -0.18475830176E+02 -0.63604003532E+01  0.28895092539E+02  0.51100000000E-03 0.  1.
         12    1    3    3    0    0 -0.33389746998E+01 -0.14220985702E+02  0.95734268167E+01  0.17465270894E+02  0.00000000000E+00 0. -1.
</event>
<event>
 7    1  0.2966651E-011  0.5052886E+02  0.7816164E-02  0.1300439E+00
        -11   -1    0    0    0    0  0.00000000000E+00  0.00000000000E+00  0.45593999997E+02  0.45594000000E+02  0.51100000000E-03 0. -1.
         11   -1    0    0    0    0 -0.00000000000E+00 -0.00000000000E+00 -0.45593999997E+02  0.45594000000E+02  0.51100000000E-03 0.  1.
    9900012    2    1    2    0    0 -0.19783751897E+02 -0.34634466271E+02  0.78881465185E+01  0.50528856520E+02  0.29999989879E+02 0.  0.
         12    1    1    2    0    0  0.19783751897E+02  0.34634466271E+02 -0.78881465185E+01  0.40659143480E+02  0.00000000000E+00 0. -1.
         11    1    3    3    0    0 -0.15617488603E+02 -0.65394064331E+01 -0.66285162844E+01  0.18182601991E+02  0.51100000000E-03 0. -1.
        -11    1    3    3    0    0 -0.15785838329E+01 -0.15621409764E+01  0.76003639773E+00  0.23473105748E+01  0.51100000000E-03 0.  1.
         12    1    3    3    0    0 -0.25876794603E+01 -0.26532918862E+02  0.13756626405E+02  0.29998943954E+02  0.00000000000E+00 0. -1.
</event>
<event>
 7    1  0.2966651E-011  0.5052884E+02  0.7816164E-02  0.1300439E+00
        -11   -1    0    0    0    0  0.00000000000E+00  0.00000000000E+00  0.45593999997E+02  0.45594000000E+02  0.51100000000E-03 0. -1.
         11   -1    0    0    0    0 -0.00000000000E+00 -0.00000000000E+00 -0.45593999997E+02  0.45594000000E+02  0.51100000000E-03 0.  1.
    9900012    2    1    2    0    0 -0.14850295707E+01  0.31281861693E+02 -0.25930814770E+02  0.50528839428E+02  0.29999937926E+02 0.  0.
         12    1    1    2    0    0  0.14850295707E+01 -0.31281861693E+02  0.25930814770E+02  0.40659160572E+02  0.00000000000E+00 0. -1.
         11    1    3    3    0    0  0.10418979065E+02  0.15548848994E+02 -0.93006718887E+01  0.20900342763E+02  0.51100000000E-03 0. -1.
        -11    1    3    3    0    0 -0.11920676149E+02  0.66448416956E+01 -0.15201083506E+02  0.20428641194E+02  0.51100000000E-03 0.  1.
         12    1    3    3    0    0  0.16667513268E-01  0.90881710032E+01 -0.14290593750E+01  0.91998554709E+01  0.00000000000E+00 0. -1.
</event>
<event>
 7    1  0.2966651E-011  0.5052885E+02  0.7816164E-02  0.1300439E+00
        -11   -1    0    0    0    0  0.00000000000E+00  0.00000000000E+00  0.45593999997E+02  0.45594000000E+02  0.51100000000E-03 0.  1.
         11   -1    0    0    0    0 -0.00000000000E+00 -0.00000000000E+00 -0.45593999997E+02  0.45594000000E+02  0.51100000000E-03 0. -1.
    9900012    2    1    2    0    0  0.27562195923E+02  0.29579941661E+01  0.29744609466E+02  0.50528853847E+02  0.29999981754E+02 0.  0.
         12    1    1    2    0    0 -0.27562195923E+02 -0.29579941661E+01 -0.29744609466E+02  0.40659146153E+02  0.00000000000E+00 0. -1.
         11    1    3    3    0    0  0.17564271856E+01 -0.23586312521E+01 -0.18597140804E+01  0.34794704430E+01  0.51100000000E-03 0. -1.
        -11    1    3    3    0    0  0.13972975690E+02  0.13959187362E+02  0.14355491742E+02  0.24416861077E+02  0.51100000000E-03 0.  1.
        -12    1    3    3    0    0  0.11832793047E+02 -0.86425619442E+01  0.17248831804E+02  0.22632522327E+02  0.00000000000E+00 0.  1.
</event>
<event>
 7    1  0.2966651E-011  0.5052887E+02  0.7816164E-02  0.1300439E+00
        -11   -1    0    0    0    0  0.00000000000E+00  0.00000000000E+00  0.45593999997E+02  0.45594000000E+02  0.51100000000E-03 0.  1.
         11   -1    0    0    0    0 -0.00000000000E+00 -0.00000000000E+00 -0.45593999997E+02  0.45594000000E+02  0.51100000000E-03 0. -1.
    9900012    2    1    2    0    0 -0.40542449731E+02 -0.13099039547E+01 -0.27854743348E+01  0.50528868850E+02  0.30000027357E+02 0.  0.
         12    1    1    2    0    0  0.40542449731E+02  0.13099039547E+01  0.27854743348E+01  0.40659131150E+02  0.00000000000E+00 0. -1.
         11    1    3    3    0    0 -0.17513563366E+01  0.67119748032E+01  0.33796404935E+01  0.77162053435E+01  0.51100000000E-03 0. -1.
        -11    1    3    3    0    0 -0.23857956761E+02  0.23886738720E+00  0.19048854683E+01  0.23935073581E+02  0.51100000000E-03 0.  1.
         12    1    3    3    0    0 -0.14933136634E+02 -0.82607461451E+01 -0.80700002966E+01  0.18877589925E+02  0.00000000000E+00 0. -1.
</event>
<event>
 7    1  0.2966651E-011  0.5052887E+02  0.7816164E-02  0.1300439E+00
        -11   -1    0    0    0    0  0.00000000000E+00  0.00000000000E+00  0.45593999997E+02  0.45594000000E+02  0.51100000000E-03 0.  1.
         11   -1    0    0    0    0 -0.00000000000E+00 -0.00000000000E+00 -0.45593999997E+02  0.45594000000E+02  0.51100000000E-03 0. -1.
    9900012    2    1    2    0    0  0.37303652553E+02 -0.24923355571E+01  0.15980940938E+02  0.50528871829E+02  0.30000036412E+02 0.  0.
         12    1    1    2    0    0 -0.37303652553E+02  0.24923355571E+01 -0.15980940938E+02  0.40659128171E+02  0.00000000000E+00 0. -1.
         11    1    3    3    0    0  0.17521065369E+02 -0.13059745352E+02  0.51029651890E+00  0.21858753009E+02  0.51100000000E-03 0.  1.
        -11    1    3    3    0    0  0.51136799445E+01  0.64391230878E+01  0.23255627726E+01  0.85451899443E+01  0.51100000000E-03 0. -1.
         12    1    3    3    0    0  0.14668907240E+02  0.41282867075E+01  0.13145081646E+02  0.20124928876E+02  0.00000000000E+00 0. -1.
</event>
<event>
 7    1  0.2966651E-011  0.5052886E+02  0.7816164E-02  0.1300439E+00
        -11   -1    0    0    0    0  0.00000000000E+00  0.00000000000E+00  0.45593999997E+02  0.45594000000E+02  0.51100000000E-03 0.  1.
         11   -1    0    0    0    0 -0.00000000000E+00 -0.00000000000E+00 -0.45593999997E+02  0.45594000000E+02  0.51100000000E-03 0. -1.
    9900012    2    1    2    0    0 -0.17372375419E+02 -0.30640386380E+02  0.20310897680E+02  0.50528864867E+02  0.30000015248E+02 0.  0.
         12    1    1    2    0    0  0.17372375419E+02  0.30640386380E+02 -0.20310897680E+02  0.40659135133E+02  0.00000000000E+00 0. -1.
         11    1    3    3    0    0 -0.34690026847E+01 -0.10965183206E+01 -0.48415440778E+01  0.60561441010E+01  0.51100000000E-03 0. -1.
        -11    1    3    3    0    0 -0.11278160073E+02 -0.79645081713E+01  0.15290986811E+02  0.20602052397E+02  0.51100000000E-03 0.  1.
         12    1    3    3    0    0 -0.26252126615E+01 -0.21579359888E+02  0.98614549473E+01  0.23870668369E+02  0.00000000000E+00 0. -1.
</event>
<event>
 7    1  0.2966651E-011  0.5052886E+02  0.7816164E-02  0.1300439E+00
        -11   -1    0    0    0    0  0.00000000000E+00  0.00000000000E+00  0.45593999997E+02  0.45594000000E+02  0.51100000000E-03 0. -1.
         11   -1    0    0    0    0 -0.00000000000E+00 -0.00000000000E+00 -0.45593999997E+02  0.45594000000E+02  0.51100000000E-03 0.  1.
    9900012    2    1    2    0    0 -0.12830878298E+02  0.35999570168E+02 -0.13876783471E+02  0.50528860687E+02  0.30000002544E+02 0.  0.
         12    1    1    2    0    0  0.12830878298E+02 -0.35999570168E+02  0.13876783471E+02  0.40659139313E+02  0.00000000000E+00 0. -1.
         11    1    3    3    0    0 -0.96216220986E+01  0.53638617820E+01 -0.97208070116E+01  0.14691518446E+02  0.51100000000E-03 0.  1.
        -11    1    3    3    0    0 -0.79722811632E+01  0.23491052836E+02  0.25563497917E+01  0.24938359104E+02  0.51100000000E-03 0. -1.
        -12    1    3    3    0    0  0.47630249634E+01  0.71446555503E+01 -0.67123262510E+01  0.10898983138E+02  0.00000000000E+00 0.  1.
</event>
<event>
 7    1  0.2966651E-011  0.5052884E+02  0.7816164E-02  0.1300439E+00
        -11   -1    0    0    0    0  0.00000000000E+00  0.00000000000E+00  0.45593999997E+02  0.45594000000E+02  0.51100000000E-03 0. -1.
         11   -1    0    0    0    0 -0.00000000000E+00 -0.00000000000E+00 -0.45593999997E+02  0.45594000000E+02  0.51100000000E-03 0.  1.
    9900012    2    1    2    0    0 -0.30656758448E+02  0.26485216902E+02  0.34443303368E+01  0.50528844028E+02  0.29999951908E+02 0.  0.
         12    1    1    2    0    0  0.30656758448E+02 -0.26485216902E+02 -0.34443303368E+01  0.40659155972E+02  0.00000000000E+00 0. -1.
         11    1    3    3    0    0 -0.91275630482E+01  0.18549806561E+01 -0.53784216140E+01  0.10755499977E+02  0.51100000000E-03 0. -1.
        -11    1    3    3    0    0 -0.42817085789E+01  0.17895569460E+02 -0.16955155858E+01  0.18478614884E+02  0.51100000000E-03 0.  1.
        -12    1    3    3    0    0 -0.17247486821E+02  0.67346667859E+01  0.10518267537E+02  0.21294729168E+02  0.00000000000E+00 0.  1.
</event>
<event>
 7    1  0.2966651E-011  0.5052886E+02  0.7816164E-02  0.1300439E+00
        -11   -1    0    0    0    0  0.00000000000E+00  0.00000000000E+00  0.45593999997E+02  0.45594000000E+02  0.51100000000E-03 0. -1.
         11   -1    0    0    0    0 -0.00000000000E+00 -0.00000000000E+00 -0.45593999997E+02  0.45594000000E+02  0.51100000000E-03 0.  1.
    9900012    2    1    2    0    0 -0.19969285865E+02 -0.24094077013E+02 -0.25958987283E+02  0.50528856553E+02  0.29999989979E+02 0.  0.
         12    1    1    2    0    0  0.19969285865E+02  0.24094077013E+02  0.25958987283E+02  0.40659143447E+02  0.00000000000E+00 0. -1.
         11    1    3    3    0    0 -0.58941375868E+01 -0.13973735861E+02 -0.85599135601E+01  0.17414886512E+02  0.51100000000E-03 0. -1.
        -11    1    3    3    0    0 -0.83561245528E+01  0.15726112830E+01 -0.18183945979E+02  0.20073709558E+02  0.51100000000E-03 0.  1.
        -12    1    3    3    0    0 -0.57190237250E+01 -0.11692952435E+02  0.78487225537E+00  0.13040260483E+02  0.00000000000E+00 0.  1.
</event>
<event>
 7    1  0.2966651E-011  0.5052887E+02  0.7816164E-02  0.1300439E+00
        -11   -1    0    0    0    0  0.00000000000E+00  0.00000000000E+00  0.45593999997E+02  0.45594000000E+02  0.51100000000E-03 0.  1.
         11   -1    0    0    0    0 -0.00000000000E+00 -0.00000000000E+00 -0.45593999997E+02  0.45594000000E+02  0.51100000000E-03 0. -1.
    9900012    2    1    2    0    0 -0.30318718455E+02 -0.26009046073E+02 -0.75808949818E+01  0.50528866523E+02  0.30000020284E+02 0.  0.
         12    1    1    2    0    0  0.30318718455E+02  0.26009046073E+02  0.75808949818E+01  0.40659133477E+02  0.00000000000E+00 0. -1.
         11    1    3    3    0    0 -0.31163851907E+01  0.27411413918E+01 -0.81894342788E+01  0.91810972576E+01  0.51100000000E-03 0. -1.
        -11    1    3    3    0    0 -0.27214573310E+02 -0.24036418768E+02 -0.11206528952E+01  0.36326826049E+02  0.51100000000E-03 0.  1.
         12    1    3    3    0    0  0.12240046342E-01 -0.47137686969E+01  0.17291921922E+01  0.50209432166E+01  0.00000000000E+00 0. -1.
</event>
<event>
 7    1  0.2966651E-011  0.5052886E+02  0.7816164E-02  0.1300439E+00
        -11   -1    0    0    0    0  0.00000000000E+00  0.00000000000E+00  0.45593999997E+02  0.45594000000E+02  0.51100000000E-03 0.  1.
         11   -1    0    0    0    0 -0.00000000000E+00 -0.00000000000E+00 -0.45593999997E+02  0.45594000000E+02  0.51100000000E-03 0. -1.
    9900012    2    1    2    0    0 -0.32540643106E+02  0.22901988742E+02  0.83529107212E+01  0.50528860073E+02  0.30000000679E+02 0.  0.
         12    1    1    2    0    0  0.32540643106E+02 -0.22901988742E+02 -0.83529107212E+01  0.40659139927E+02  0.00000000000E+00 0. -1.
         11    1    3    3    0    0  0.17413090893E+01  0.15114803726E+01 -0.32163272114E+01  0.39574602024E+01  0.51100000000E-03 0. -1.
        -11    1    3    3    0    0 -0.34921092167E+02  0.17343140754E+02  0.14428801486E+02  0.41574722151E+02  0.51100000000E-03 0.  1.
        -12    1    3    3    0    0  0.63913997217E+00  0.40473676157E+01 -0.28595635534E+01  0.49966777199E+01  0.00000000000E+00 0.  1.
</event>
<event>
 7    1  0.2966651E-011  0.5052886E+02  0.7816164E-02  0.1300439E+00
        -11   -1    0    0    0    0  0.00000000000E+00  0.00000000000E+00  0.45593999997E+02  0.45594000000E+02  0.51100000000E-03 0.  1.
         11   -1    0    0    0    0 -0.00000000000E+00 -0.00000000000E+00 -0.45593999997E+02  0.45594000000E+02  0.51100000000E-03 0. -1.
    9900012    2    1    2    0    0  0.13195287221E+02 -0.36913310202E+02  0.10791548674E+02  0.50528860834E+02  0.30000002992E+02 0.  0.
         12    1    1    2    0    0 -0.13195287221E+02  0.36913310202E+02 -0.10791548674E+02  0.40659139166E+02  0.00000000000E+00 0. -1.
         11    1    3    3    0    0 -0.14641074867E+01 -0.96291514336E+01  0.98767415252E+01  0.13871344256E+02  0.51100000000E-03 0. -1.
        -11    1    3    3    0    0  0.99219571270E+01 -0.24021107808E+02 -0.69600196335E+01  0.26905403307E+02  0.51100000000E-03 0.  1.
         12    1    3    3    0    0  0.47374375808E+01 -0.32630509603E+01  0.78748267822E+01  0.97521132710E+01  0.00000000000E+00 0. -1.
</event>
<event>
 7    1  0.2966651E-011  0.5052887E+02  0.7816164E-02  0.1300439E+00
        -11   -1    0    0    0    0  0.00000000000E+00  0.00000000000E+00  0.45593999997E+02  0.45594000000E+02  0.51100000000E-03 0. -1.
         11   -1    0    0    0    0 -0.00000000000E+00 -0.00000000000E+00 -0.45593999997E+02  0.45594000000E+02  0.51100000000E-03 0.  1.
    9900012    2    1    2    0    0  0.30160788716E+01  0.34099023348E+02 -0.21939113344E+02  0.50528870406E+02  0.30000032085E+02 0.  0.
         12    1    1    2    0    0 -0.30160788716E+01 -0.34099023348E+02  0.21939113344E+02  0.40659129594E+02  0.00000000000E+00 0. -1.
         11    1    3    3    0    0 -0.58218550200E+00 -0.31361375420E+01  0.32547254735E+01  0.45571412980E+01  0.51100000000E-03 0. -1.
        -11    1    3    3    0    0 -0.11527232920E+01  0.17147518793E+02 -0.15595411459E+02  0.23207391723E+02  0.51100000000E-03 0.  1.
         12    1    3    3    0    0  0.47509876655E+01  0.20087642097E+02 -0.95984273587E+01  0.22764337385E+02  0.00000000000E+00 0. -1.
</event>
<event>
 7    1  0.2966651E-011  0.5052887E+02  0.7816164E-02  0.1300439E+00
        -11   -1    0    0    0    0  0.00000000000E+00  0.00000000000E+00  0.45593999997E+02  0.45594000000E+02  0.51100000000E-03 0.  1.
         11   -1    0    0    0    0 -0.00000000000E+00 -0.00000000000E+00 -0.45593999997E+02  0.45594000000E+02  0.51100000000E-03 0. -1.
    9900012    2    1    2    0    0  0.13855268293E+02 -0.18751306420E+02  0.33310435795E+02  0.50528867142E+02  0.30000022165E+02 0.  0.
         12    1    1    2    0    0 -0.13855268293E+02  0.18751306420E+02 -0.33310435795E+02  0.40659132858E+02  0.00000000000E+00 0. -1.
         11    1    3    3    0    0 -0.15741239679E+01 -0.36320461364E+01  0.18695363131E+01  0.43777610362E+01  0.51100000000E-03 0. -1.
        -11    1    3    3    0    0  0.15362115589E+02 -0.40349451982E+01  0.31261613131E+02  0.35065137016E+02  0.51100000000E-03 0.  1.
        -12    1    3    3    0    0  0.67276672612E-01 -0.11084315086E+02  0.17928635029E+00  0.11085969090E+02  0.00000000000E+00 0.  1.
</event>
<event>
 7    1  0.2966651E-011  0.5052887E+02  0.7816164E-02  0.1300439E+00
        -11   -1    0    0    0    0  0.00000000000E+00  0.00000000000E+00  0.45593999997E+02  0.45594000000E+02  0.51100000000E-03 0. -1.
         11   -1    0    0    0    0 -0.00000000000E+00 -0.00000000000E+00 -0.45593999997E+02  0.45594000000E+02  0.51100000000E-03 0.  1.
    9900012    2    1    2    0    0 -0.41731101438E+01 -0.37222776885E+02 -0.15818192939E+02  0.50528865784E+02  0.30000018038E+02 0.  0.
         12    1    1    2    0    0  0.41731101438E+01  0.37222776885E+02  0.15818192939E+02  0.40659134216E+02  0.00000000000E+00 0. -1.
         11    1    3    3    0    0  0.83445408840E+01 -0.80504854686E+01 -0.13816050629E+02  0.18036766176E+02  0.51100000000E-03 0. -1.
        -11    1    3    3    0    0 -0.95527569344E+01 -0.16731995623E+02 -0.36115428534E+01  0.19602501999E+02  0.51100000000E-03 0.  1.
         12    1    3    3    0    0 -0.29648940935E+01 -0.12440295794E+02  0.16094005437E+01  0.12889597610E+02  0.00000000000E+00 0. -1.
</event>
<event>
 7    1  0.2966651E-011  0.5052887E+02  0.7816164E-02  0.1300439E+00
        -11   -1    0    0    0    0  0.00000000000E+00  0.00000000000E+00  0.45593999997E+02  0.45594000000E+02  0.51100000000E-03 0.  1.
         11   -1    0    0    0    0 -0.00000000000E+00 -0.00000000000E+00 -0.45593999997E+02  0.45594000000E+02  0.51100000000E-03 0. -1.
    9900012    2    1    2    0    0  0.15163431342E+02  0.32774107656E+02  0.18684041710E+02  0.50528865758E+02  0.30000017957E+02 0.  0.
         12    1    1    2    0    0 -0.15163431342E+02 -0.32774107656E+02 -0.18684041710E+02  0.40659134242E+02  0.00000000000E+00 0. -1.
         11    1    3    3    0    0  0.58578090837E+01 -0.10168190532E+01  0.55600984530E+01  0.81401807914E+01  0.51100000000E-03 0. -1.
        -11    1    3    3    0    0  0.69714240958E+01  0.35865119091E+02  0.97996017249E+01  0.37827763819E+02  0.51100000000E-03 0.  1.
        -12    1    3    3    0    0  0.23341981622E+01 -0.20741923811E+01  0.33243415316E+01  0.45609211474E+01  0.00000000000E+00 0.  1.
</event>
<event>
 7    1  0.2966651E-011  0.5052886E+02  0.7816164E-02  0.1300439E+00
        -11   -1    0    0    0    0  0.00000000000E+00  0.00000000000E+00  0.45593999997E+02  0.45594000000E+02  0.51100000000E-03 0. -1.
         11   -1    0    0    0    0 -0.00000000000E+00 -0.00000000000E+00 -0.45593999997E+02  0.45594000000E+02  0.51100000000E-03 0.  1.
    9900012    2    1    2    0    0 -0.20885277808E+02 -0.25907468724E+02 -0.23361798693E+02  0.50528863229E+02  0.30000010269E+02 0.  0.
         12    1    1    2    0    0  0.20885277808E+02  0.25907468724E+02  0.23361798693E+02  0.40659136771E+02  0.00000000000E+00 0. -1.
         11    1    3    3    0    0 -0.10478145213E+02  0.24267663768E+01 -0.63601217197E+01  0.12495273935E+02  0.51100000000E-03 0. -1.
        -11    1    3    3    0    0 -0.11949135336E+02 -0.22526795477E+02 -0.18890907240E+02  0.31734913366E+02  0.51100000000E-03 0.  1.
         12    1    3    3    0    0  0.15420027407E+01 -0.58074396243E+01  0.18892302670E+01  0.62986759278E+01  0.00000000000E+00 0. -1.
</event>
<event>
 7    1  0.2966651E-011  0.5052886E+02  0.7816164E-02  0.1300439E+00
        -11   -1    0    0    0    0  0.00000000000E+00  0.00000000000E+00  0.45593999997E+02  0.45594000000E+02  0.51100000000E-03 0.  1.
         11   -1    0    0    0    0 -0.00000000000E+00 -0.00000000000E+00 -0.45593999997E+02  0.45594000000E+02  0.51100000000E-03 0. -1.
    9900012    2    1    2    0    0 -0.26328455078E+01  0.38414634607E+02  0.13059467577E+02  0.50528859320E+02  0.29999998389E+02 0.  0.
         12    1    1    2    0    0  0.26328455078E+01 -0.38414634607E+02 -0.13059467577E+02  0.40659140680E+02  0.00000000000E+00 0. -1.
         11    1    3    3    0    0 -0.58255296836E+00 -0.31833766252E+01 -0.35718590711E+01  0.48198996031E+01  0.51100000000E-03 0. -1.
        -11    1    3    3    0    0  0.96921677258E+00  0.33739289824E+01 -0.78281637623E+00  0.35966066883E+01  0.51100000000E-03 0.  1.
         12    1    3    3    0    0 -0.30195093120E+01  0.38224082250E+02  0.17414143024E+02  0.42112353028E+02  0.00000000000E+00 0. -1.
</event>
<event>
 7    1  0.2966651E-011  0.5052886E+02  0.7816164E-02  0.1300439E+00
        -11   -1    0    0    0    0  0.00000000000E+00  0.00000000000E+00  0.45593999997E+02  0.45594000000E+02  0.51100000000E-03 0.  1.
         11   -1    0    0    0    0 -0.00000000000E+00 -0.00000000000E+00 -0.45593999997E+02  0.45594000000E+02  0.51100000000E-03 0. -1.
    9900012    2    1    2    0    0  0.20111117216E+02  0.99593177535E+01  0.33904578326E+02  0.50528862316E+02  0.30000007495E+02 0.  0.
         12    1    1    2    0    0 -0.20111117216E+02 -0.99593177535E+01 -0.33904578326E+02  0.40659137684E+02  0.00000000000E+00 0. -1.
         11    1    3    3    0    0  0.20301380623E+02  0.10307117050E+02  0.34664108022E+02  0.41472678986E+02  0.51100000000E-03 0. -1.
        -11    1    3    3    0    0 -0.25764439480E+01 -0.31333955381E+01  0.19451927688E+01  0.44988894390E+01  0.51100000000E-03 0.  1.
         12    1    3    3    0    0  0.23861805415E+01  0.27855962411E+01 -0.27047224649E+01  0.45572938908E+01  0.00000000000E+00 0. -1.
</event>
<event>
 7    1  0.2966651E-011  0.5052888E+02  0.7816164E-02  0.1300439E+00
        -11   -1    0    0    0    0  0.00000000000E+00  0.00000000000E+00  0.45593999997E+02  0.45594000000E+02  0.51100000000E-03 0.  1.
         11   -1    0    0    0    0 -0.00000000000E+00 -0.00000000000E+00 -0.45593999997E+02  0.45594000000E+02  0.51100000000E-03 0. -1.
    9900012    2    1    2    0    0  0.20040502246E+02 -0.35098902946E+02  0.44282086401E+01  0.50528883555E+02  0.30000072054E+02 0.  0.
         12    1    1    2    0    0 -0.20040502246E+02  0.35098902946E+02 -0.44282086401E+01  0.40659116445E+02  0.00000000000E+00 0. -1.
         11    1    3    3    0    0  0.27478111927E+01  0.22533820629E+01  0.41566961045E+01  0.54686670989E+01  0.51100000000E-03 0. -1.
        -11    1    3    3    0    0  0.11459481446E+02 -0.34840315636E+02 -0.47245386726E+01  0.36979569692E+02  0.51100000000E-03 0.  1.
        -12    1    3    3    0    0  0.58332096073E+01 -0.25119693729E+01  0.49960512083E+01  0.80806467642E+01  0.00000000000E+00 0.  1.
</event>
<event>
 7    1  0.2966651E-011  0.5052886E+02  0.7816164E-02  0.1300439E+00
        -11   -1    0    0    0    0  0.00000000000E+00  0.00000000000E+00  0.45593999997E+02  0.45594000000E+02  0.51100000000E-03 0.  1.
         11   -1    0    0    0    0 -0.00000000000E+00 -0.00000000000E+00 -0.45593999997E+02  0.45594000000E+02  0.51100000000E-03 0. -1.
    9900012    2    1    2    0    0 -0.38129425723E+02 -0.14116818141E+02  0.16688734936E+00  0.50528861891E+02  0.30000006204E+02 0.  0.
         12    1    1    2    0    0  0.38129425723E+02  0.14116818141E+02 -0.16688734936E+00  0.40659138109E+02  0.00000000000E+00 0. -1.
         11    1    3    3    0    0 -0.38173457731E+01  0.62880546183E+01  0.19238558046E+01  0.76034847966E+01  0.51100000000E-03 0. -1.
        -11    1    3    3    0    0 -0.19759203516E+02 -0.20306182695E+02 -0.14030039416E+01  0.28367862090E+02  0.51100000000E-03 0.  1.
         12    1    3    3    0    0 -0.14552876434E+02 -0.98690064004E-01 -0.35396451363E+00  0.14557515005E+02  0.00000000000E+00 0. -1.
</event>
<event>
 7    1  0.2966651E-011  0.5052894E+02  0.7816164E-02  0.1300439E+00
        -11   -1    0    0    0    0  0.00000000000E+00  0.00000000000E+00  0.45593999997E+02  0.45594000000E+02  0.51100000000E-03 0. -1.
         11   -1    0    0    0    0 -0.00000000000E+00 -0.00000000000E+00 -0.45593999997E+02  0.45594000000E+02  0.51100000000E-03 0.  1.
    9900012    2    1    2    0    0  0.35726548890E+02 -0.17029310842E+02 -0.93153295322E+01  0.50528940891E+02  0.30000246332E+02 0.  0.
         12    1    1    2    0    0 -0.35726548890E+02  0.17029310842E+02  0.93153295322E+01  0.40659059109E+02  0.00000000000E+00 0. -1.
         11    1    3    3    0    0  0.38415407791E+01 -0.96234940432E+01 -0.70805213133E+01  0.12550014163E+02  0.51100000000E-03 0. -1.
        -11    1    3    3    0    0  0.25172033906E+02  0.25085651528E+01  0.17572764004E+01  0.25357685436E+02  0.51100000000E-03 0.  1.
        -12    1    3    3    0    0  0.67129742050E+01 -0.99143819513E+01 -0.39920846193E+01  0.12621241292E+02  0.00000000000E+00 0.  1.
</event>
<event>
 7    1  0.2966651E-011  0.5052885E+02  0.7816164E-02  0.1300439E+00
        -11   -1    0    0    0    0  0.00000000000E+00  0.00000000000E+00  0.45593999997E+02  0.45594000000E+02  0.51100000000E-03 0.  1.
         11   -1    0    0    0    0 -0.00000000000E+00 -0.00000000000E+00 -0.45593999997E+02  0.45594000000E+02  0.51100000000E-03 0. -1.
    9900012    2    1    2    0    0 -0.38274251036E+02  0.13463075531E+02 -0.26445606626E+01  0.50528851015E+02  0.29999973145E+02 0.  0.
         12    1    1    2    0    0  0.38274251036E+02 -0.13463075531E+02  0.26445606626E+01  0.40659148985E+02  0.00000000000E+00 0. -1.
         11    1    3    3    0    0 -0.64369177196E+01  0.13655909956E+01 -0.80032465606E+01  0.10361018496E+02  0.51100000000E-03 0. -1.
        -11    1    3    3    0    0 -0.28789832952E+02  0.17006475129E+02  0.69973807036E+01  0.34161938099E+02  0.51100000000E-03 0.  1.
        -12    1    3    3    0    0 -0.30475003646E+01 -0.49089905939E+01 -0.16386948057E+01  0.60058944204E+01  0.00000000000E+00 0.  1.
</event>
<event>
 7    1  0.2966651E-011  0.5052886E+02  0.7816164E-02  0.1300439E+00
        -11   -1    0    0    0    0  0.00000000000E+00  0.00000000000E+00  0.45593999997E+02  0.45594000000E+02  0.51100000000E-03 0.  1.
         11   -1    0    0    0    0 -0.00000000000E+00 -0.00000000000E+00 -0.45593999997E+02  0.45594000000E+02  0.51100000000E-03 0. -1.
    9900012    2    1    2    0    0 -0.43184077394E+01 -0.33079011503E+02  0.23244266867E+02  0.50528860934E+02  0.30000003294E+02 0.  0.
         12    1    1    2    0    0  0.43184077394E+01  0.33079011503E+02 -0.23244266867E+02  0.40659139066E+02  0.00000000000E+00 0. -1.
         11    1    3    3    0    0 -0.87819580406E+01 -0.19597162767E+02  0.12957762623E+01  0.21513963185E+02  0.51100000000E-03 0.  1.
        -11    1    3    3    0    0  0.74766175447E+01 -0.74601491116E+01  0.18839913174E+02  0.21598517619E+02  0.51100000000E-03 0. -1.
         12    1    3    3    0    0 -0.30130672435E+01 -0.60216996242E+01  0.31085774306E+01  0.74163801291E+01  0.00000000000E+00 0. -1.
</event>
<event>
 7    1  0.2966651E-011  0.5052886E+02  0.7816164E-02  0.1300439E+00
        -11   -1    0    0    0    0  0.00000000000E+00  0.00000000000E+00  0.45593999997E+02  0.45594000000E+02  0.51100000000E-03 0.  1.
         11   -1    0    0    0    0 -0.00000000000E+00 -0.00000000000E+00 -0.45593999997E+02  0.45594000000E+02  0.51100000000E-03 0. -1.
    9900012    2    1    2    0    0  0.25933228717E+02 -0.21050115379E+02  0.23184602530E+02  0.50528861991E+02  0.30000006507E+02 0.  0.
         12    1    1    2    0    0 -0.25933228717E+02  0.21050115379E+02 -0.23184602530E+02  0.40659138009E+02  0.00000000000E+00 0. -1.
         11    1    3    3    0    0  0.19046578509E+02 -0.16655833600E+02  0.98082500597E+01  0.27136519956E+02  0.51100000000E-03 0. -1.
        -11    1    3    3    0    0 -0.16771787677E+01 -0.56288258540E+01  0.13518002741E+02  0.14738826530E+02  0.51100000000E-03 0.  1.
         12    1    3    3    0    0  0.85638289758E+01  0.12345440747E+01 -0.14165027057E+00  0.86535155052E+01  0.00000000000E+00 0. -1.
</event>
<event>
 7    1  0.2966651E-011  0.5052886E+02  0.7816164E-02  0.1300439E+00
        -11   -1    0    0    0    0  0.00000000000E+00  0.00000000000E+00  0.45593999997E+02  0.45594000000E+02  0.51100000000E-03 0.  1.
         11   -1    0    0    0    0 -0.00000000000E+00 -0.00000000000E+00 -0.45593999997E+02  0.45594000000E+02  0.51100000000E-03 0. -1.
    9900012    2    1    2    0    0 -0.24537733806E+02  0.31670020625E+02 -0.69336019145E+01  0.50528862992E+02  0.30000009552E+02 0.  0.
         12    1    1    2    0    0  0.24537733806E+02 -0.31670020625E+02  0.69336019145E+01  0.40659137008E+02  0.00000000000E+00 0. -1.
         11    1    3    3    0    0 -0.14564452300E+02  0.34514322430E+02 -0.34806909852E+01  0.37622824636E+02  0.51100000000E-03 0. -1.
        -11    1    3    3    0    0 -0.10471557146E+02 -0.17053559165E+01 -0.42501967251E+01  0.11429169713E+02  0.51100000000E-03 0.  1.
         12    1    3    3    0    0  0.49827564037E+00 -0.11389458885E+01  0.79728579578E+00  0.14768686437E+01  0.00000000000E+00 0. -1.
</event>
<event>
 7    1  0.2966651E-011  0.5052897E+02  0.7816164E-02  0.1300438E+00
        -11   -1    0    0    0    0  0.00000000000E+00  0.00000000000E+00  0.45593999997E+02  0.45594000000E+02  0.51100000000E-03 0.  1.
         11   -1    0    0    0    0 -0.00000000000E+00 -0.00000000000E+00 -0.45593999997E+02  0.45594000000E+02  0.51100000000E-03 0. -1.
    9900012    2    1    2    0    0  0.23516283044E+02  0.12934727769E+02  0.30542328406E+02  0.50528971789E+02  0.30000340247E+02 0.  0.
         12    1    1    2    0    0 -0.23516283044E+02 -0.12934727769E+02 -0.30542328406E+02  0.40659028211E+02  0.00000000000E+00 0. -1.
         11    1    3    3    0    0 -0.62218365547E+00 -0.60835611541E+01  0.14310235421E+01  0.62804981853E+01  0.51100000000E-03 0. -1.
        -11    1    3    3    0    0  0.96489560605E+01  0.45922547157E+01  0.18116680620E+02  0.21033432277E+02  0.51100000000E-03 0.  1.
         12    1    3    3    0    0  0.14489510639E+02  0.14426034207E+02  0.10994624244E+02  0.23215041326E+02  0.00000000000E+00 0. -1.
</event>
<event>
 7    1  0.2966651E-011  0.5052887E+02  0.7816164E-02  0.1300439E+00
        -11   -1    0    0    0    0  0.00000000000E+00  0.00000000000E+00  0.45593999997E+02  0.45594000000E+02  0.51100000000E-03 0.  1.
         11   -1    0    0    0    0 -0.00000000000E+00 -0.00000000000E+00 -0.45593999997E+02  0.45594000000E+02  0.51100000000E-03 0. -1.
    9900012    2    1    2    0    0  0.29273540474E+02 -0.54694247862E+01  0.27682308689E+02  0.50528868262E+02  0.30000025568E+02 0.  0.
         12    1    1    2    0    0 -0.29273540474E+02  0.54694247862E+01 -0.27682308689E+02  0.40659131738E+02  0.00000000000E+00 0. -1.
         11    1    3    3    0    0  0.67555090596E+01  0.89085108254E+01  0.68762928032E+00  0.11201397327E+02  0.51100000000E-03 0. -1.
        -11    1    3    3    0    0  0.12054634328E+02 -0.17540779699E+01  0.12264369137E+02  0.17285998638E+02  0.51100000000E-03 0.  1.
         12    1    3    3    0    0  0.10463397086E+02 -0.12623857642E+02  0.14730310271E+02  0.22041472297E+02  0.00000000000E+00 0. -1.
</event>
<event>
 7    1  0.2966651E-011  0.5052885E+02  0.7816164E-02  0.1300439E+00
        -11   -1    0    0    0    0  0.00000000000E+00  0.00000000000E+00  0.45593999997E+02  0.45594000000E+02  0.51100000000E-03 0. -1.
         11   -1    0    0    0    0 -0.00000000000E+00 -0.00000000000E+00 -0.45593999997E+02  0.45594000000E+02  0.51100000000E-03 0.  1.
    9900012    2    1    2    0    0  0.18430495814E+02 -0.22229162363E+01 -0.36173772132E+02  0.50528851917E+02  0.29999975888E+02 0.  0.
         12    1    1    2    0    0 -0.18430495814E+02  0.22229162363E+01  0.36173772132E+02  0.40659148083E+02  0.00000000000E+00 0. -1.
         11    1    3    3    0    0  0.30014426919E+01  0.34900460906E+01  0.31601110649E+01  0.55834919316E+01  0.51100000000E-03 0. -1.
        -11    1    3    3    0    0  0.13171638765E+02 -0.10213417984E+02 -0.28950175398E+02  0.33405368289E+02  0.51100000000E-03 0.  1.
        -12    1    3    3    0    0  0.22574143573E+01  0.45004556575E+01 -0.10383707799E+02  0.11539991697E+02  0.00000000000E+00 0.  1.
</event>
<event>
 7    1  0.2966651E-011  0.5052885E+02  0.7816164E-02  0.1300439E+00
        -11   -1    0    0    0    0  0.00000000000E+00  0.00000000000E+00  0.45593999997E+02  0.45594000000E+02  0.51100000000E-03 0.  1.
         11   -1    0    0    0    0 -0.00000000000E+00 -0.00000000000E+00 -0.45593999997E+02  0.45594000000E+02  0.51100000000E-03 0. -1.
    9900012    2    1    2    0    0  0.11331381441E+02 -0.24554652082E+02  0.30361745562E+02  0.50528846814E+02  0.29999960376E+02 0.  0.
         12    1    1    2    0    0 -0.11331381441E+02  0.24554652082E+02 -0.30361745562E+02  0.40659153186E+02  0.00000000000E+00 0. -1.
         11    1    3    3    0    0  0.12085488044E+02 -0.13192741945E+02  0.32658537966E+02  0.37238254036E+02  0.51100000000E-03 0.  1.
        -11    1    3    3    0    0 -0.17375908145E+01 -0.78430262072E+01  0.13298765544E+01  0.81425336251E+01  0.51100000000E-03 0. -1.
         12    1    3    3    0    0  0.98348421151E+00 -0.35188839300E+01 -0.36266689586E+01  0.51480591530E+01  0.00000000000E+00 0. -1.
</event>
<event>
 7    1  0.2966651E-011  0.5052886E+02  0.7816164E-02  0.1300439E+00
        -11   -1    0    0    0    0  0.00000000000E+00  0.00000000000E+00  0.45593999997E+02  0.45594000000E+02  0.51100000000E-03 0.  1.
         11   -1    0    0    0    0 -0.00000000000E+00 -0.00000000000E+00 -0.45593999997E+02  0.45594000000E+02  0.51100000000E-03 0. -1.
    9900012    2    1    2    0    0 -0.65861700723E+01  0.18527921162E+02  0.35587976300E+02  0.50528861348E+02  0.30000004554E+02 0.  0.
         12    1    1    2    0    0  0.65861700723E+01 -0.18527921162E+02 -0.35587976300E+02  0.40659138652E+02  0.00000000000E+00 0. -1.
         11    1    3    3    0    0 -0.15546307785E+02  0.18923026484E+02  0.19010051200E+02  0.31002429968E+02  0.51100000000E-03 0. -1.
        -11    1    3    3    0    0  0.55034138245E+01  0.53916349389E+00  0.14171592006E+02  0.15212241164E+02  0.51100000000E-03 0.  1.
         12    1    3    3    0    0  0.34567238879E+01 -0.93426881603E+00  0.24063330937E+01  0.43141902155E+01  0.00000000000E+00 0. -1.
</event>
<event>
 7    1  0.2966651E-011  0.5052886E+02  0.7816164E-02  0.1300439E+00
        -11   -1    0    0    0    0  0.00000000000E+00  0.00000000000E+00  0.45593999997E+02  0.45594000000E+02  0.51100000000E-03 0.  1.
         11   -1    0    0    0    0 -0.00000000000E+00 -0.00000000000E+00 -0.45593999997E+02  0.45594000000E+02  0.51100000000E-03 0. -1.
    9900012    2    1    2    0    0  0.46776867718E+01  0.28935644698E+02  0.28178244465E+02  0.50528858977E+02  0.29999997346E+02 0.  0.
         12    1    1    2    0    0 -0.46776867718E+01 -0.28935644698E+02 -0.28178244465E+02  0.40659141023E+02  0.00000000000E+00 0. -1.
         11    1    3    3    0    0  0.76402692968E+01  0.19542603483E+02  0.41877063884E+01  0.21396821047E+02  0.51100000000E-03 0. -1.
        -11    1    3    3    0    0  0.22376232460E+01  0.10413033391E+02  0.19352422606E+02  0.22089691786E+02  0.51100000000E-03 0.  1.
         12    1    3    3    0    0 -0.52002057710E+01 -0.10199921772E+01  0.46381154707E+01  0.70423461447E+01  0.00000000000E+00 0. -1.
</event>
<event>
 7    1  0.2966651E-011  0.5052886E+02  0.7816164E-02  0.1300439E+00
        -11   -1    0    0    0    0  0.00000000000E+00  0.00000000000E+00  0.45593999997E+02  0.45594000000E+02  0.51100000000E-03 0. -1.
         11   -1    0    0    0    0 -0.00000000000E+00 -0.00000000000E+00 -0.45593999997E+02  0.45594000000E+02  0.51100000000E-03 0.  1.
    9900012    2    1    2    0    0  0.34090997387E+02  0.54127698481E+01 -0.21486545548E+02  0.50528858102E+02  0.29999994688E+02 0.  0.
         12    1    1    2    0    0 -0.34090997387E+02 -0.54127698481E+01  0.21486545548E+02  0.40659141898E+02  0.00000000000E+00 0. -1.
         11    1    3    3    0    0 -0.48511660436E+00  0.91772784114E+01  0.59793483379E+00  0.92095224353E+01  0.51100000000E-03 0. -1.
        -11    1    3    3    0    0  0.28818946362E+02 -0.29342904100E+01 -0.19705319043E+02  0.35034858762E+02  0.51100000000E-03 0.  1.
         12    1    3    3    0    0  0.57571676295E+01 -0.83021815328E+00 -0.23791613388E+01  0.62844769052E+01  0.00000000000E+00 0. -1.
</event>
<event>
 7    1  0.2966651E-011  0.5052889E+02  0.7816164E-02  0.1300439E+00
        -11   -1    0    0    0    0  0.00000000000E+00  0.00000000000E+00  0.45593999997E+02  0.45594000000E+02  0.51100000000E-03 0. -1.
         11   -1    0    0    0    0 -0.00000000000E+00 -0.00000000000E+00 -0.45593999997E+02  0.45594000000E+02  0.51100000000E-03 0.  1.
    9900012    2    1    2    0    0 -0.47344167349E+01  0.16302762980E+02 -0.36945473844E+02  0.50528894991E+02  0.30000106813E+02 0.  0.
         12    1    1    2    0    0  0.47344167349E+01 -0.16302762980E+02  0.36945473844E+02  0.40659105009E+02  0.00000000000E+00 0. -1.
         11    1    3    3    0    0  0.35836348824E+01  0.45673086668E+00  0.17616694850E+00  0.36169154137E+01  0.51100000000E-03 0. -1.
        -11    1    3    3    0    0 -0.26748305085E+01  0.34475903994E+01 -0.32097436015E+02  0.32392684310E+02  0.51100000000E-03 0.  1.
        -12    1    3    3    0    0 -0.56432211088E+01  0.12398441714E+02 -0.50242047781E+01  0.14519295267E+02  0.00000000000E+00 0.  1.
</event>
<event>
 7    1  0.2966651E-011  0.5052886E+02  0.7816164E-02  0.1300439E+00
        -11   -1    0    0    0    0  0.00000000000E+00  0.00000000000E+00  0.45593999997E+02  0.45594000000E+02  0.51100000000E-03 0.  1.
         11   -1    0    0    0    0 -0.00000000000E+00 -0.00000000000E+00 -0.45593999997E+02  0.45594000000E+02  0.51100000000E-03 0. -1.
    9900012    2    1    2    0    0  0.85896950634E+01 -0.30086023169E+02  0.25965634255E+02  0.50528858178E+02  0.29999994919E+02 0.  0.
         12    1    1    2    0    0 -0.85896950634E+01  0.30086023169E+02 -0.25965634255E+02  0.40659141822E+02  0.00000000000E+00 0. -1.
         11    1    3    3    0    0  0.15789735426E+01 -0.46699589754E+01  0.44541616160E+00  0.49497545493E+01  0.51100000000E-03 0. -1.
        -11    1    3    3    0    0  0.16870586412E+02 -0.10463676493E+02  0.13649694490E+02  0.24091894312E+02  0.51100000000E-03 0.  1.
        -12    1    3    3    0    0 -0.98598648908E+01 -0.14952387700E+02  0.11870523604E+02  0.21487209317E+02  0.00000000000E+00 0.  1.
</event>
<event>
 7    1  0.2966651E-011  0.5052886E+02  0.7816164E-02  0.1300439E+00
        -11   -1    0    0    0    0  0.00000000000E+00  0.00000000000E+00  0.45593999997E+02  0.45594000000E+02  0.51100000000E-03 0. -1.
         11   -1    0    0    0    0 -0.00000000000E+00 -0.00000000000E+00 -0.45593999997E+02  0.45594000000E+02  0.51100000000E-03 0.  1.
    9900012    2    1    2    0    0 -0.25794447786E+02 -0.18903775520E+02 -0.25108956820E+02  0.50528856157E+02  0.29999988774E+02 0.  0.
         12    1    1    2    0    0  0.25794447786E+02  0.18903775520E+02  0.25108956820E+02  0.40659143843E+02  0.00000000000E+00 0. -1.
         11    1    3    3    0    0 -0.14869973629E+02 -0.19136930285E+00 -0.26679914540E+01  0.15108637152E+02  0.51100000000E-03 0. -1.
        -11    1    3    3    0    0 -0.91647619537E+01 -0.15721275171E+02 -0.25132155214E+02  0.31028641295E+02  0.51100000000E-03 0.  1.
        -12    1    3    3    0    0 -0.17597122031E+01 -0.29911310465E+01  0.26911898483E+01  0.43915777091E+01  0.00000000000E+00 0.  1.
</event>
<event>
 7    1  0.2966651E-011  0.5052887E+02  0.7816164E-02  0.1300439E+00
        -11   -1    0    0    0    0  0.00000000000E+00  0.00000000000E+00  0.45593999997E+02  0.45594000000E+02  0.51100000000E-03 0. -1.
         11   -1    0    0    0    0 -0.00000000000E+00 -0.00000000000E+00 -0.45593999997E+02  0.45594000000E+02  0.51100000000E-03 0.  1.
    9900012    2    1    2    0    0  0.25603829850E+01  0.30034764088E+02 -0.27285931665E+02  0.50528872099E+02  0.30000037233E+02 0.  0.
         12    1    1    2    0    0 -0.25603829850E+01 -0.30034764088E+02  0.27285931665E+02  0.40659127901E+02  0.00000000000E+00 0. -1.
         11    1    3    3    0    0 -0.26005732462E+01  0.11563523697E+02 -0.15989034631E+02  0.19902946772E+02  0.51100000000E-03 0. -1.
        -11    1    3    3    0    0  0.15411522226E+01 -0.47041555123E+01 -0.12309195657E+01  0.51009207498E+01  0.51100000000E-03 0.  1.
        -12    1    3    3    0    0  0.36198040087E+01  0.23175395903E+02 -0.10065977468E+02  0.25525004578E+02  0.00000000000E+00 0.  1.
</event>
<event>
 7    1  0.2966651E-011  0.5052883E+02  0.7816164E-02  0.1300439E+00
        -11   -1    0    0    0    0  0.00000000000E+00  0.00000000000E+00  0.45593999997E+02  0.45594000000E+02  0.51100000000E-03 0.  1.
         11   -1    0    0    0    0 -0.00000000000E+00 -0.00000000000E+00 -0.45593999997E+02  0.45594000000E+02  0.51100000000E-03 0. -1.
    9900012    2    1    2    0    0  0.16918752295E+02  0.13525769369E+02  0.34408974051E+02  0.50528829921E+02  0.29999909028E+02 0.  0.
         12    1    1    2    0    0 -0.16918752295E+02 -0.13525769369E+02 -0.34408974051E+02  0.40659170079E+02  0.00000000000E+00 0. -1.
         11    1    3    3    0    0  0.13186390410E+02 -0.75985421203E+01  0.13909209745E+02  0.20617585950E+02  0.51100000000E-03 0. -1.
        -11    1    3    3    0    0  0.21693214696E+00  0.11902388128E+02  0.10801712687E+02  0.16074541982E+02  0.51100000000E-03 0.  1.
         12    1    3    3    0    0  0.35154297384E+01  0.92219233618E+01  0.96980516191E+01  0.13836701989E+02  0.00000000000E+00 0. -1.
</event>
<event>
 7    1  0.2966651E-011  0.5052886E+02  0.7816164E-02  0.1300439E+00
        -11   -1    0    0    0    0  0.00000000000E+00  0.00000000000E+00  0.45593999997E+02  0.45594000000E+02  0.51100000000E-03 0.  1.
         11   -1    0    0    0    0 -0.00000000000E+00 -0.00000000000E+00 -0.45593999997E+02  0.45594000000E+02  0.51100000000E-03 0. -1.
    9900012    2    1    2    0    0  0.29732537530E+02  0.11508999666E+02  0.25232611310E+02  0.50528861608E+02  0.30000005343E+02 0.  0.
         12    1    1    2    0    0 -0.29732537530E+02 -0.11508999666E+02 -0.25232611310E+02  0.40659138392E+02  0.00000000000E+00 0. -1.
         11    1    3    3    0    0  0.25754748942E+02 -0.35948733422E+01  0.13721465329E+02  0.29402530817E+02  0.51100000000E-03 0. -1.
        -11    1    3    3    0    0  0.59031255382E+01  0.13183806081E+02  0.74881039278E+01  0.16270566511E+02  0.51100000000E-03 0.  1.
         12    1    3    3    0    0 -0.19253369506E+01  0.19200669274E+01  0.40230420534E+01  0.48557642800E+01  0.00000000000E+00 0. -1.
</event>
<event>
 7    1  0.2966651E-011  0.5052889E+02  0.7816164E-02  0.1300439E+00
        -11   -1    0    0    0    0  0.00000000000E+00  0.00000000000E+00  0.45593999997E+02  0.45594000000E+02  0.51100000000E-03 0.  1.
         11   -1    0    0    0    0 -0.00000000000E+00 -0.00000000000E+00 -0.45593999997E+02  0.45594000000E+02  0.51100000000E-03 0. -1.
    9900012    2    1    2    0    0  0.11935376366E+02  0.37993310827E+02 -0.81986933725E+01  0.50528887250E+02  0.30000083285E+02 0.  0.
         12    1    1    2    0    0 -0.11935376366E+02 -0.37993310827E+02  0.81986933725E+01  0.40659112750E+02  0.00000000000E+00 0. -1.
         11    1    3    3    0    0  0.29338691979E+01  0.11720144579E+02 -0.15669249179E+02  0.19786226207E+02  0.51100000000E-03 0. -1.
        -11    1    3    3    0    0  0.43332616008E+01  0.19399264065E+02  0.97310285034E+01  0.22131459924E+02  0.51100000000E-03 0.  1.
        -12    1    3    3    0    0  0.46682455672E+01  0.68739021839E+01 -0.22604726969E+01  0.86112011196E+01  0.00000000000E+00 0.  1.
</event>
<event>
 7    1  0.2966651E-011  0.5052885E+02  0.7816164E-02  0.1300439E+00
        -11   -1    0    0    0    0  0.00000000000E+00  0.00000000000E+00  0.45593999997E+02  0.45594000000E+02  0.51100000000E-03 0.  1.
         11   -1    0    0    0    0 -0.00000000000E+00 -0.00000000000E+00 -0.45593999997E+02  0.45594000000E+02  0.51100000000E-03 0. -1.
    9900012    2    1    2    0    0  0.33173368001E+02  0.19518897995E+02 -0.13103678304E+02  0.50528854552E+02  0.29999983896E+02 0.  0.
         12    1    1    2    0    0 -0.33173368001E+02 -0.19518897995E+02  0.13103678304E+02  0.40659145448E+02  0.00000000000E+00 0. -1.
         11    1    3    3    0    0  0.12140274320E+02 -0.13638276409E+01 -0.86485989090E+01  0.14968117776E+02  0.51100000000E-03 0. -1.
        -11    1    3    3    0    0  0.19271944410E+02  0.24548226990E+02 -0.37580189146E+01  0.31434789583E+02  0.51100000000E-03 0.  1.
        -12    1    3    3    0    0  0.17611492710E+01 -0.36655013538E+01 -0.69706048024E+00  0.41259471934E+01  0.00000000000E+00 0.  1.
</event>
<event>
 7    1  0.2966651E-011  0.5052885E+02  0.7816164E-02  0.1300439E+00
        -11   -1    0    0    0    0  0.00000000000E+00  0.00000000000E+00  0.45593999997E+02  0.45594000000E+02  0.51100000000E-03 0.  1.
         11   -1    0    0    0    0 -0.00000000000E+00 -0.00000000000E+00 -0.45593999997E+02  0.45594000000E+02  0.51100000000E-03 0. -1.
    9900012    2    1    2    0    0 -0.10283084098E+02  0.15413584982E+02  0.36191797541E+02  0.50528848142E+02  0.29999964413E+02 0.  0.
         12    1    1    2    0    0  0.10283084098E+02 -0.15413584982E+02 -0.36191797541E+02  0.40659151858E+02  0.00000000000E+00 0. -1.
         11    1    3    3    0    0 -0.34762827167E+01 -0.53643994693E+01 -0.37535092863E-02  0.63922873482E+01  0.51100000000E-03 0. -1.
        -11    1    3    3    0    0  0.12225510453E+01  0.11114441669E+02  0.24674927307E+02  0.27090173173E+02  0.51100000000E-03 0.  1.
         12    1    3    3    0    0 -0.80293524263E+01  0.96635427823E+01  0.11520623744E+02  0.17046387621E+02  0.00000000000E+00 0. -1.
</event>
<event>
 7    1  0.2966651E-011  0.5052885E+02  0.7816164E-02  0.1300439E+00
        -11   -1    0    0    0    0  0.00000000000E+00  0.00000000000E+00  0.45593999997E+02  0.45594000000E+02  0.51100000000E-03 0. -1.
         11   -1    0    0    0    0 -0.00000000000E+00 -0.00000000000E+00 -0.45593999997E+02  0.45594000000E+02  0.51100000000E-03 0.  1.
    9900012    2    1    2    0    0  0.20968021336E+02  0.30580175087E+02 -0.16684169249E+02  0.50528849362E+02  0.29999968120E+02 0.  0.
         12    1    1    2    0    0 -0.20968021336E+02 -0.30580175087E+02  0.16684169249E+02  0.40659150638E+02  0.00000000000E+00 0. -1.
         11    1    3    3    0    0  0.43769154573E+01 -0.17631533865E+01  0.43806100712E+01  0.64386212532E+01  0.51100000000E-03 0. -1.
        -11    1    3    3    0    0  0.66616601984E+01  0.19979341009E+02 -0.52730467257E+01  0.21710753229E+02  0.51100000000E-03 0.  1.
         12    1    3    3    0    0  0.99294456799E+01  0.12363987465E+02 -0.15791732595E+02  0.22379474879E+02  0.00000000000E+00 0. -1.
</event>
<event>
 7    1  0.2966651E-011  0.5052885E+02  0.7816164E-02  0.1300439E+00
        -11   -1    0    0    0    0  0.00000000000E+00  0.00000000000E+00  0.45593999997E+02  0.45594000000E+02  0.51100000000E-03 0.  1.
         11   -1    0    0    0    0 -0.00000000000E+00 -0.00000000000E+00 -0.45593999997E+02  0.45594000000E+02  0.51100000000E-03 0. -1.
    9900012    2    1    2    0    0 -0.37546858608E+02 -0.12540763998E+02 -0.92805651371E+01  0.50528852908E+02  0.29999978898E+02 0.  0.
         12    1    1    2    0    0  0.37546858608E+02  0.12540763998E+02  0.92805651371E+01  0.40659147092E+02  0.00000000000E+00 0. -1.
         11    1    3    3    0    0 -0.10633905065E+02 -0.10786891742E+02 -0.32610762779E+01  0.15494243742E+02  0.51100000000E-03 0. -1.
        -11    1    3    3    0    0 -0.21964125545E+01  0.60746675784E+01 -0.64166131495E+01  0.91048744565E+01  0.51100000000E-03 0.  1.
        -12    1    3    3    0    0 -0.24716540989E+02 -0.78285398343E+01  0.39712429022E+00  0.25929734709E+02  0.00000000000E+00 0.  1.
</event>
<event>
 7    1  0.2966651E-011  0.5052889E+02  0.7816164E-02  0.1300439E+00
        -11   -1    0    0    0    0  0.00000000000E+00  0.00000000000E+00  0.45593999997E+02  0.45594000000E+02  0.51100000000E-03 0. -1.
         11   -1    0    0    0    0 -0.00000000000E+00 -0.00000000000E+00 -0.45593999997E+02  0.45594000000E+02  0.51100000000E-03 0.  1.
    9900012    2    1    2    0    0 -0.11964595984E+02 -0.22288695805E+01 -0.38794898813E+02  0.50528885517E+02  0.30000078016E+02 0.  0.
         12    1    1    2    0    0  0.11964595984E+02  0.22288695805E+01  0.38794898813E+02  0.40659114483E+02  0.00000000000E+00 0. -1.
         11    1    3    3    0    0  0.48381291546E+01 -0.81191547893E+01 -0.72346770707E+01  0.11902467004E+02  0.51100000000E-03 0. -1.
        -11    1    3    3    0    0 -0.57725069018E+01  0.77946289432E+01 -0.21458224470E+02  0.23548534433E+02  0.51100000000E-03 0.  1.
         12    1    3    3    0    0 -0.11030218237E+02 -0.19043437344E+01 -0.10101997273E+02  0.15077884079E+02  0.00000000000E+00 0. -1.
</event>
<event>
 7    1  0.2966651E-011  0.5052886E+02  0.7816164E-02  0.1300439E+00
        -11   -1    0    0    0    0  0.00000000000E+00  0.00000000000E+00  0.45593999997E+02  0.45594000000E+02  0.51100000000E-03 0.  1.
         11   -1    0    0    0    0 -0.00000000000E+00 -0.00000000000E+00 -0.45593999997E+02  0.45594000000E+02  0.51100000000E-03 0. -1.
    9900012    2    1    2    0    0  0.25627895046E+02  0.15486759180E+02  0.27505214623E+02  0.50528861472E+02  0.30000004931E+02 0.  0.
         12    1    1    2    0    0 -0.25627895046E+02 -0.15486759180E+02 -0.27505214623E+02  0.40659138528E+02  0.00000000000E+00 0. -1.
         11    1    3    3    0    0  0.82167072500E+01 -0.65328535985E+01  0.35783970488E+01  0.11090418381E+02  0.51100000000E-03 0.  1.
        -11    1    3    3    0    0  0.18430939841E+02  0.21565896869E+02  0.25056844839E+02  0.37850137711E+02  0.51100000000E-03 0. -1.
         12    1    3    3    0    0 -0.10197520452E+01  0.45371590960E+00 -0.11300272650E+01  0.15883053800E+01  0.00000000000E+00 0. -1.
</event>
<event>
 7    1  0.2966651E-011  0.5052886E+02  0.7816164E-02  0.1300439E+00
        -11   -1    0    0    0    0  0.00000000000E+00  0.00000000000E+00  0.45593999997E+02  0.45594000000E+02  0.51100000000E-03 0. -1.
         11   -1    0    0    0    0 -0.00000000000E+00 -0.00000000000E+00 -0.45593999997E+02  0.45594000000E+02  0.51100000000E-03 0.  1.
    9900012    2    1    2    0    0 -0.13518059283E+02 -0.11808571049E+02 -0.36482667543E+02  0.50528864396E+02  0.30000013819E+02 0.  0.
         12    1    1    2    0    0  0.13518059283E+02  0.11808571049E+02  0.36482667543E+02  0.40659135604E+02  0.00000000000E+00 0. -1.
         11    1    3    3    0    0 -0.93836029761E+01  0.84078755030E+01 -0.21756510414E+02  0.25141402525E+02  0.51100000000E-03 0. -1.
        -11    1    3    3    0    0 -0.13563772560E+01 -0.39184735619E+01 -0.28904373233E+01  0.50545843051E+01  0.51100000000E-03 0.  1.
         12    1    3    3    0    0 -0.27780790512E+01 -0.16297972990E+02 -0.11835719806E+02  0.20332877566E+02  0.00000000000E+00 0. -1.
</event>
<event>
 7    1  0.2966651E-011  0.5052885E+02  0.7816164E-02  0.1300439E+00
        -11   -1    0    0    0    0  0.00000000000E+00  0.00000000000E+00  0.45593999997E+02  0.45594000000E+02  0.51100000000E-03 0.  1.
         11   -1    0    0    0    0 -0.00000000000E+00 -0.00000000000E+00 -0.45593999997E+02  0.45594000000E+02  0.51100000000E-03 0. -1.
    9900012    2    1    2    0    0 -0.34960450834E+01  0.29225687297E+02  0.28050012120E+02  0.50528852086E+02  0.29999976401E+02 0.  0.
         12    1    1    2    0    0  0.34960450834E+01 -0.29225687297E+02 -0.28050012120E+02  0.40659147914E+02  0.00000000000E+00 0. -1.
         11    1    3    3    0    0 -0.54319518140E+01  0.26004914244E+02  0.12248178930E+02  0.29253710068E+02  0.51100000000E-03 0. -1.
        -11    1    3    3    0    0  0.43888782619E+01  0.62407346028E+01  0.15615916494E+02  0.17380042261E+02  0.51100000000E-03 0.  1.
         12    1    3    3    0    0 -0.24529715313E+01 -0.30199615506E+01  0.18591669534E+00  0.38950997572E+01  0.00000000000E+00 0. -1.
</event>
<event>
 7    1  0.2966651E-011  0.5052892E+02  0.7816164E-02  0.1300439E+00
        -11   -1    0    0    0    0  0.00000000000E+00  0.00000000000E+00  0.45593999997E+02  0.45594000000E+02  0.51100000000E-03 0. -1.
         11   -1    0    0    0    0 -0.00000000000E+00 -0.00000000000E+00 -0.45593999997E+02  0.45594000000E+02  0.51100000000E-03 0.  1.
    9900012    2    1    2    0    0  0.13606351099E+02 -0.32517350549E+02 -0.20264496497E+02  0.50528921122E+02  0.30000186241E+02 0.  0.
         12    1    1    2    0    0 -0.13606351099E+02  0.32517350549E+02  0.20264496497E+02  0.40659078878E+02  0.00000000000E+00 0. -1.
         11    1    3    3    0    0  0.25594878033E+01 -0.14021813011E+02 -0.22443194386E+02  0.26586823662E+02  0.51100000000E-03 0. -1.
        -11    1    3    3    0    0  0.47463410142E+01 -0.98082402315E+01 -0.39424348849E+01  0.11587584845E+02  0.51100000000E-03 0.  1.
         12    1    3    3    0    0  0.63005222819E+01 -0.86872973060E+01  0.61211327738E+01  0.12354512614E+02  0.00000000000E+00 0. -1.
</event>
<event>
 7    1  0.2966651E-011  0.5052886E+02  0.7816164E-02  0.1300439E+00
        -11   -1    0    0    0    0  0.00000000000E+00  0.00000000000E+00  0.45593999997E+02  0.45594000000E+02  0.51100000000E-03 0.  1.
         11   -1    0    0    0    0 -0.00000000000E+00 -0.00000000000E+00 -0.45593999997E+02  0.45594000000E+02  0.51100000000E-03 0. -1.
    9900012    2    1    2    0    0  0.22998973887E+02  0.18315787282E+02  0.28084600141E+02  0.50528860453E+02  0.30000001834E+02 0.  0.
         12    1    1    2    0    0 -0.22998973887E+02 -0.18315787282E+02 -0.28084600141E+02  0.40659139547E+02  0.00000000000E+00 0. -1.
         11    1    3    3    0    0  0.68145872623E+01  0.10852049119E+02 -0.25666560013E+00  0.12816842323E+02  0.51100000000E-03 0. -1.
        -11    1    3    3    0    0  0.87050456153E+01  0.84810007202E+01  0.27563390861E+02  0.30123839536E+02  0.51100000000E-03 0.  1.
        -12    1    3    3    0    0  0.74793410095E+01 -0.10172625575E+01  0.77787487982E+00  0.75881785941E+01  0.00000000000E+00 0.  1.
</event>
<event>
 7    1  0.2966651E-011  0.5052886E+02  0.7816164E-02  0.1300439E+00
        -11   -1    0    0    0    0  0.00000000000E+00  0.00000000000E+00  0.45593999997E+02  0.45594000000E+02  0.51100000000E-03 0. -1.
         11   -1    0    0    0    0 -0.00000000000E+00 -0.00000000000E+00 -0.45593999997E+02  0.45594000000E+02  0.51100000000E-03 0.  1.
    9900012    2    1    2    0    0  0.27518374157E+02  0.27693604294E+02 -0.11356452539E+02  0.50528860199E+02  0.30000001062E+02 0.  0.
         12    1    1    2    0    0 -0.27518374157E+02 -0.27693604294E+02  0.11356452539E+02  0.40659139801E+02  0.00000000000E+00 0. -1.
         11    1    3    3    0    0  0.21679138816E+02  0.20564125808E+02 -0.14769173227E+01  0.29917379817E+02  0.51100000000E-03 0.  1.
        -11    1    3    3    0    0 -0.30798894100E+01  0.77394459758E+01 -0.78461351623E+01  0.11443189242E+02  0.51100000000E-03 0. -1.
        -12    1    3    3    0    0  0.89191247505E+01 -0.60996748914E+00 -0.20334000543E+01  0.91682911403E+01  0.00000000000E+00 0.  1.
</event>
<event>
 7    1  0.2966651E-011  0.5052887E+02  0.7816164E-02  0.1300439E+00
        -11   -1    0    0    0    0  0.00000000000E+00  0.00000000000E+00  0.45593999997E+02  0.45594000000E+02  0.51100000000E-03 0.  1.
         11   -1    0    0    0    0 -0.00000000000E+00 -0.00000000000E+00 -0.45593999997E+02  0.45594000000E+02  0.51100000000E-03 0. -1.
    9900012    2    1    2    0    0  0.36774891539E+02 -0.66886829981E+01  0.16001063050E+02  0.50528866381E+02  0.30000019850E+02 0.  0.
         12    1    1    2    0    0 -0.36774891539E+02  0.66886829981E+01 -0.16001063050E+02  0.40659133619E+02  0.00000000000E+00 0. -1.
         11    1    3    3    0    0  0.15377639018E+02 -0.45924951012E+00 -0.23649782765E+01  0.15565211672E+02  0.51100000000E-03 0. -1.
        -11    1    3    3    0    0  0.74441051036E+01 -0.11846666001E+02  0.12683503407E+02  0.18884635424E+02  0.51100000000E-03 0.  1.
        -12    1    3    3    0    0  0.13953147417E+02  0.56172325134E+01  0.56825379187E+01  0.16079019285E+02  0.00000000000E+00 0.  1.
</event>
<event>
 7    1  0.2966651E-011  0.5052888E+02  0.7816164E-02  0.1300439E+00
        -11   -1    0    0    0    0  0.00000000000E+00  0.00000000000E+00  0.45593999997E+02  0.45594000000E+02  0.51100000000E-03 0. -1.
         11   -1    0    0    0    0 -0.00000000000E+00 -0.00000000000E+00 -0.45593999997E+02  0.45594000000E+02  0.51100000000E-03 0.  1.
    9900012    2    1    2    0    0  0.24997860035E+02 -0.16694926082E+02 -0.27377924260E+02  0.50528876793E+02  0.30000051500E+02 0.  0.
         12    1    1    2    0    0 -0.24997860035E+02  0.16694926082E+02  0.27377924260E+02  0.40659123207E+02  0.00000000000E+00 0. -1.
         11    1    3    3    0    0 -0.42322517078E+01 -0.49131697072E+01 -0.36956591229E+01  0.74638520687E+01  0.51100000000E-03 0. -1.
        -11    1    3    3    0    0  0.28544571045E+02 -0.14580500450E+02 -0.24167608335E+02  0.40142954829E+02  0.51100000000E-03 0.  1.
         12    1    3    3    0    0  0.68554069759E+00  0.27987440758E+01  0.48534319851E+00  0.29220698948E+01  0.00000000000E+00 0. -1.
</event>
<event>
 7    1  0.2966651E-011  0.5052886E+02  0.7816164E-02  0.1300439E+00
        -11   -1    0    0    0    0  0.00000000000E+00  0.00000000000E+00  0.45593999997E+02  0.45594000000E+02  0.51100000000E-03 0.  1.
         11   -1    0    0    0    0 -0.00000000000E+00 -0.00000000000E+00 -0.45593999997E+02  0.45594000000E+02  0.51100000000E-03 0. -1.
    9900012    2    1    2    0    0 -0.85269769840E+01 -0.37822134528E+02 -0.12245087350E+02  0.50528863745E+02  0.30000011841E+02 0.  0.
         12    1    1    2    0    0  0.85269769840E+01  0.37822134528E+02  0.12245087350E+02  0.40659136255E+02  0.00000000000E+00 0. -1.
         11    1    3    3    0    0 -0.15420234523E+02 -0.28146976907E+02 -0.63289335146E+01  0.32712250632E+02  0.51100000000E-03 0. -1.
        -11    1    3    3    0    0  0.62876655716E+01  0.69272996230E+00 -0.13324919465E+01  0.64645300053E+01  0.51100000000E-03 0.  1.
        -12    1    3    3    0    0  0.60559196703E+00 -0.10367887583E+02 -0.45836618890E+01  0.11352083108E+02  0.00000000000E+00 0.  1.
</event>
<event>
 7    1  0.2966651E-011  0.5052886E+02  0.7816164E-02  0.1300439E+00
        -11   -1    0    0    0    0  0.00000000000E+00  0.00000000000E+00  0.45593999997E+02  0.45594000000E+02  0.51100000000E-03 0. -1.
         11   -1    0    0    0    0 -0.00000000000E+00 -0.00000000000E+00 -0.45593999997E+02  0.45594000000E+02  0.51100000000E-03 0.  1.
    9900012    2    1    2    0    0 -0.35875791952E+02  0.17037483974E+02 -0.87073299841E+01  0.50528857070E+02  0.29999991550E+02 0.  0.
         12    1    1    2    0    0  0.35875791952E+02 -0.17037483974E+02  0.87073299841E+01  0.40659142930E+02  0.00000000000E+00 0. -1.
         11    1    3    3    0    0 -0.15296381618E+02  0.31763899149E+01  0.59849282344E+01  0.16729856835E+02  0.51100000000E-03 0. -1.
        -11    1    3    3    0    0 -0.21043311218E+02  0.10498142231E+02 -0.17564574962E+02  0.29352107780E+02  0.51100000000E-03 0.  1.
        -12    1    3    3    0    0  0.46390088364E+00  0.33629518284E+01  0.28723167433E+01  0.44468924547E+01  0.00000000000E+00 0.  1.
</event>
<event>
 7    1  0.2966651E-011  0.5052885E+02  0.7816164E-02  0.1300439E+00
        -11   -1    0    0    0    0  0.00000000000E+00  0.00000000000E+00  0.45593999997E+02  0.45594000000E+02  0.51100000000E-03 0.  1.
         11   -1    0    0    0    0 -0.00000000000E+00 -0.00000000000E+00 -0.45593999997E+02  0.45594000000E+02  0.51100000000E-03 0. -1.
    9900012    2    1    2    0    0 -0.19780128945E+02 -0.47262565879E+01  0.35207602167E+02  0.50528852779E+02  0.29999978507E+02 0.  0.
         12    1    1    2    0    0  0.19780128945E+02  0.47262565879E+01 -0.35207602167E+02  0.40659147221E+02  0.00000000000E+00 0. -1.
         11    1    3    3    0    0 -0.23649509033E+01  0.85987809209E+01  0.47100703362E+01  0.10085474155E+02  0.51100000000E-03 0. -1.
        -11    1    3    3    0    0 -0.12420637612E+02 -0.88886554145E+01  0.85545025796E+01  0.17505997498E+02  0.51100000000E-03 0.  1.
        -12    1    3    3    0    0 -0.49945404293E+01 -0.44363820943E+01  0.21943029251E+02  0.22937381126E+02  0.00000000000E+00 0.  1.
</event>
<event>
 7    1  0.2966651E-011  0.5052886E+02  0.7816164E-02  0.1300439E+00
        -11   -1    0    0    0    0  0.00000000000E+00  0.00000000000E+00  0.45593999997E+02  0.45594000000E+02  0.51100000000E-03 0.  1.
         11   -1    0    0    0    0 -0.00000000000E+00 -0.00000000000E+00 -0.45593999997E+02  0.45594000000E+02  0.51100000000E-03 0. -1.
    9900012    2    1    2    0    0  0.37629729240E+02  0.20017045614E+01  0.15269660112E+02  0.50528857562E+02  0.29999993047E+02 0.  0.
         12    1    1    2    0    0 -0.37629729240E+02 -0.20017045614E+01 -0.15269660112E+02  0.40659142438E+02  0.00000000000E+00 0. -1.
         11    1    3    3    0    0  0.47557958816E+01  0.83996116025E+01  0.51654952427E+01  0.10947758259E+02  0.51100000000E-03 0. -1.
        -11    1    3    3    0    0  0.32238258875E+02 -0.16115507912E+01  0.11939162642E+02  0.34415781789E+02  0.51100000000E-03 0.  1.
         12    1    3    3    0    0  0.63567448297E+00 -0.47863562499E+01 -0.18349977728E+01  0.51653175145E+01  0.00000000000E+00 0. -1.
</event>
<event>
 7    1  0.2966651E-011  0.5052886E+02  0.7816164E-02  0.1300439E+00
        -11   -1    0    0    0    0  0.00000000000E+00  0.00000000000E+00  0.45593999997E+02  0.45594000000E+02  0.51100000000E-03 0.  1.
         11   -1    0    0    0    0 -0.00000000000E+00 -0.00000000000E+00 -0.45593999997E+02  0.45594000000E+02  0.51100000000E-03 0. -1.
    9900012    2    1    2    0    0  0.23592784978E+02  0.17564292524E+02  0.28072086891E+02  0.50528856658E+02  0.29999990296E+02 0.  0.
         12    1    1    2    0    0 -0.23592784978E+02 -0.17564292524E+02 -0.28072086891E+02  0.40659143342E+02  0.00000000000E+00 0. -1.
         11    1    3    3    0    0 -0.29043074312E+01 -0.36209594567E+01 -0.34138172920E+00  0.46543410692E+01  0.51100000000E-03 0. -1.
        -11    1    3    3    0    0  0.10672131650E+02  0.23472546405E+01  0.54113946950E+01  0.12193735732E+02  0.51100000000E-03 0.  1.
         12    1    3    3    0    0  0.15824960760E+02  0.18837997340E+02  0.23002073926E+02  0.33680779856E+02  0.00000000000E+00 0. -1.
</event>
<event>
 7    1  0.2966651E-011  0.5052887E+02  0.7816164E-02  0.1300439E+00
        -11   -1    0    0    0    0  0.00000000000E+00  0.00000000000E+00  0.45593999997E+02  0.45594000000E+02  0.51100000000E-03 0.  1.
         11   -1    0    0    0    0 -0.00000000000E+00 -0.00000000000E+00 -0.45593999997E+02  0.45594000000E+02  0.51100000000E-03 0. -1.
    9900012    2    1    2    0    0 -0.13674164668E+02  0.37946402074E+02 -0.51237722124E+01  0.50528865092E+02  0.30000015934E+02 0.  0.
         12    1    1    2    0    0  0.13674164668E+02 -0.37946402074E+02  0.51237722124E+01  0.40659134908E+02  0.00000000000E+00 0. -1.
         11    1    3    3    0    0 -0.51356833981E+01 -0.23455144525E+01  0.54312921083E+01  0.78342591379E+01  0.51100000000E-03 0. -1.
        -11    1    3    3    0    0 -0.12043777695E+01  0.11095802800E+02 -0.15149743025E+01  0.11263326018E+02  0.51100000000E-03 0.  1.
         12    1    3    3    0    0 -0.73341035007E+01  0.29196113727E+02 -0.90400900182E+01  0.31431279937E+02  0.00000000000E+00 0. -1.
</event>
<event>
 7    1  0.2966651E-011  0.5052886E+02  0.7816164E-02  0.1300439E+00
        -11   -1    0    0    0    0  0.00000000000E+00  0.00000000000E+00  0.45593999997E+02  0.45594000000E+02  0.51100000000E-03 0. -1.
         11   -1    0    0    0    0 -0.00000000000E+00 -0.00000000000E+00 -0.45593999997E+02  0.45594000000E+02  0.51100000000E-03 0.  1.
    9900012    2    1    2    0    0 -0.36505993067E+02 -0.67652631672E+01 -0.16574353433E+02  0.50528861946E+02  0.30000006371E+02 0.  0.
         12    1    1    2    0    0  0.36505993067E+02  0.67652631672E+01  0.16574353433E+02  0.40659138054E+02  0.00000000000E+00 0. -1.
         11    1    3    3    0    0 -0.17980583549E+02  0.15904706599E+01  0.28487209667E+01  0.18274194732E+02  0.51100000000E-03 0. -1.
        -11    1    3    3    0    0 -0.11133666102E+02 -0.41501161416E+01 -0.20487657103E+02  0.23683878033E+02  0.51100000000E-03 0.  1.
         12    1    3    3    0    0 -0.73917434167E+01 -0.42056176855E+01  0.10645827037E+01  0.85707891811E+01  0.00000000000E+00 0. -1.
</event>
<event>
 7    1  0.2966651E-011  0.5052886E+02  0.7816164E-02  0.1300439E+00
        -11   -1    0    0    0    0  0.00000000000E+00  0.00000000000E+00  0.45593999997E+02  0.45594000000E+02  0.51100000000E-03 0. -1.
         11   -1    0    0    0    0 -0.00000000000E+00 -0.00000000000E+00 -0.45593999997E+02  0.45594000000E+02  0.51100000000E-03 0.  1.
    9900012    2    1    2    0    0 -0.35318669709E+02 -0.16794898260E+02 -0.11121527025E+02  0.50528863254E+02  0.30000010348E+02 0.  0.
         12    1    1    2    0    0  0.35318669709E+02  0.16794898260E+02  0.11121527025E+02  0.40659136746E+02  0.00000000000E+00 0. -1.
         11    1    3    3    0    0 -0.29186467680E+02 -0.19086967300E+02 -0.58343730659E+01  0.35358197433E+02  0.51100000000E-03 0. -1.
        -11    1    3    3    0    0 -0.94655691826E+01  0.36826228679E+01 -0.55043820853E+01  0.11552356190E+02  0.51100000000E-03 0.  1.
         12    1    3    3    0    0  0.33333671542E+01 -0.13905538271E+01  0.21722812604E+00  0.36183096315E+01  0.00000000000E+00 0. -1.
</event>
<event>
 7    1  0.2966651E-011  0.5052886E+02  0.7816164E-02  0.1300439E+00
        -11   -1    0    0    0    0  0.00000000000E+00  0.00000000000E+00  0.45593999997E+02  0.45594000000E+02  0.51100000000E-03 0.  1.
         11   -1    0    0    0    0 -0.00000000000E+00 -0.00000000000E+00 -0.45593999997E+02  0.45594000000E+02  0.51100000000E-03 0. -1.
    9900012    2    1    2    0    0  0.26737298770E+02  0.12744931504E+02  0.27854069764E+02  0.50528860474E+02  0.30000001898E+02 0.  0.
         12    1    1    2    0    0 -0.26737298770E+02 -0.12744931504E+02 -0.27854069764E+02  0.40659139526E+02  0.00000000000E+00 0. -1.
         11    1    3    3    0    0  0.17485688990E+02  0.91626859799E+01  0.50231688805E+01  0.20369986737E+02  0.51100000000E-03 0. -1.
        -11    1    3    3    0    0 -0.14191845052E+01  0.56767134735E+01  0.16655234543E+02  0.17653214961E+02  0.51100000000E-03 0.  1.
         12    1    3    3    0    0  0.10670794285E+02 -0.20944679492E+01  0.61756663404E+01  0.12505658776E+02  0.00000000000E+00 0. -1.
</event>
<event>
 7    1  0.2966651E-011  0.5052886E+02  0.7816164E-02  0.1300439E+00
        -11   -1    0    0    0    0  0.00000000000E+00  0.00000000000E+00  0.45593999997E+02  0.45594000000E+02  0.51100000000E-03 0. -1.
         11   -1    0    0    0    0 -0.00000000000E+00 -0.00000000000E+00 -0.45593999997E+02  0.45594000000E+02  0.51100000000E-03 0.  1.
    9900012    2    1    2    0    0 -0.21063570008E+02 -0.26245241755E+02 -0.22818392082E+02  0.50528859410E+02  0.29999998664E+02 0.  0.
         12    1    1    2    0    0  0.21063570008E+02  0.26245241755E+02  0.22818392082E+02  0.40659140590E+02  0.00000000000E+00 0. -1.
         11    1    3    3    0    0 -0.59159764792E+01 -0.19071397420E+02 -0.57386722187E+00  0.19976143299E+02  0.51100000000E-03 0. -1.
        -11    1    3    3    0    0 -0.93101859478E+01  0.24458076695E+01 -0.11466173144E+02  0.14971127692E+02  0.51100000000E-03 0.  1.
         12    1    3    3    0    0 -0.58374075808E+01 -0.96196520052E+01 -0.10778351716E+02  0.15581588420E+02  0.00000000000E+00 0. -1.
</event>
<event>
 7    1  0.2966651E-011  0.5052885E+02  0.7816164E-02  0.1300439E+00
        -11   -1    0    0    0    0  0.00000000000E+00  0.00000000000E+00  0.45593999997E+02  0.45594000000E+02  0.51100000000E-03 0.  1.
         11   -1    0    0    0    0 -0.00000000000E+00 -0.00000000000E+00 -0.45593999997E+02  0.45594000000E+02  0.51100000000E-03 0. -1.
    9900012    2    1    2    0    0 -0.27082553951E+02 -0.29581591072E+02  0.66806587767E+01  0.50528850223E+02  0.29999970739E+02 0.  0.
         12    1    1    2    0    0  0.27082553951E+02  0.29581591072E+02 -0.66806587767E+01  0.40659149777E+02  0.00000000000E+00 0. -1.
         11    1    3    3    0    0 -0.13476088717E+02 -0.28485448573E+02 -0.21623222089E+01  0.31586411399E+02  0.51100000000E-03 0. -1.
        -11    1    3    3    0    0 -0.13275413146E+01  0.28401937493E+01  0.41923292012E+01  0.52349489843E+01  0.51100000000E-03 0.  1.
         12    1    3    3    0    0 -0.12278923920E+02 -0.39363362491E+01  0.46506517844E+01  0.13707489840E+02  0.00000000000E+00 0. -1.
</event>
<event>
 7    1  0.2966651E-011  0.5052886E+02  0.7816164E-02  0.1300439E+00
        -11   -1    0    0    0    0  0.00000000000E+00  0.00000000000E+00  0.45593999997E+02  0.45594000000E+02  0.51100000000E-03 0. -1.
         11   -1    0    0    0    0 -0.00000000000E+00 -0.00000000000E+00 -0.45593999997E+02  0.45594000000E+02  0.51100000000E-03 0.  1.
    9900012    2    1    2    0    0 -0.95132981015E+01  0.27315742470E+02 -0.28574694715E+02  0.50528858279E+02  0.29999995226E+02 0.  0.
         12    1    1    2    0    0  0.95132981015E+01 -0.27315742470E+02  0.28574694715E+02  0.40659141721E+02  0.00000000000E+00 0. -1.
         11    1    3    3    0    0  0.98805802743E+01  0.13528467963E+02 -0.98815788543E+01  0.19449702129E+02  0.51100000000E-03 0. -1.
        -11    1    3    3    0    0 -0.13012435199E+02  0.12407387794E+02 -0.11393108762E+02  0.21285433263E+02  0.51100000000E-03 0.  1.
         12    1    3    3    0    0 -0.63814431772E+01  0.13798867127E+01 -0.73000070984E+01  0.97937228877E+01  0.00000000000E+00 0. -1.
</event>
<event>
 7    1  0.2966651E-011  0.5052885E+02  0.7816164E-02  0.1300439E+00
        -11   -1    0    0    0    0  0.00000000000E+00  0.00000000000E+00  0.45593999997E+02  0.45594000000E+02  0.51100000000E-03 0. -1.
         11   -1    0    0    0    0 -0.00000000000E+00 -0.00000000000E+00 -0.45593999997E+02  0.45594000000E+02  0.51100000000E-03 0.  1.
    9900012    2    1    2    0    0  0.10019086829E+02  0.27836530729E+02 -0.27891075882E+02  0.50528847798E+02  0.29999963368E+02 0.  0.
         12    1    1    2    0    0 -0.10019086829E+02 -0.27836530729E+02  0.27891075882E+02  0.40659152202E+02  0.00000000000E+00 0. -1.
         11    1    3    3    0    0  0.14001412690E+00 -0.37104641307E+00  0.43200871397E+01  0.43382522463E+01  0.51100000000E-03 0. -1.
        -11    1    3    3    0    0  0.70459723092E+01  0.22946613687E+02 -0.32265422403E+02  0.40215050523E+02  0.51100000000E-03 0.  1.
         12    1    3    3    0    0  0.28331003928E+01  0.52609634554E+01  0.54259381413E-01  0.59755450291E+01  0.00000000000E+00 0. -1.
</event>
<event>
 7    1  0.2966651E-011  0.5052886E+02  0.7816164E-02  0.1300439E+00
        -11   -1    0    0    0    0  0.00000000000E+00  0.00000000000E+00  0.45593999997E+02  0.45594000000E+02  0.51100000000E-03 0. -1.
         11   -1    0    0    0    0 -0.00000000000E+00 -0.00000000000E+00 -0.45593999997E+02  0.45594000000E+02  0.51100000000E-03 0.  1.
    9900012    2    1    2    0    0 -0.38632285303E+02  0.93488132733E+01 -0.85622214140E+01  0.50528863106E+02  0.30000009898E+02 0.  0.
         12    1    1    2    0    0  0.38632285303E+02 -0.93488132733E+01  0.85622214140E+01  0.40659136894E+02  0.00000000000E+00 0. -1.
         11    1    3    3    0    0 -0.32525528803E+02  0.15528884974E+02  0.22371992739E+00  0.36043117836E+02  0.51100000000E-03 0. -1.
        -11    1    3    3    0    0 -0.73672856831E+01 -0.30274769349E+01 -0.72055495502E+01  0.10740691761E+02  0.51100000000E-03 0.  1.
         12    1    3    3    0    0  0.12605291826E+01 -0.31525947656E+01 -0.15803917912E+01  0.37450535096E+01  0.00000000000E+00 0. -1.
</event>
<event>
 7    1  0.2966651E-011  0.5052886E+02  0.7816164E-02  0.1300439E+00
        -11   -1    0    0    0    0  0.00000000000E+00  0.00000000000E+00  0.45593999997E+02  0.45594000000E+02  0.51100000000E-03 0.  1.
         11   -1    0    0    0    0 -0.00000000000E+00 -0.00000000000E+00 -0.45593999997E+02  0.45594000000E+02  0.51100000000E-03 0. -1.
    9900012    2    1    2    0    0 -0.26375603962E+02 -0.21593532799E+02  0.22163318570E+02  0.50528857939E+02  0.29999994192E+02 0.  0.
         12    1    1    2    0    0  0.26375603962E+02  0.21593532799E+02 -0.22163318570E+02  0.40659142061E+02  0.00000000000E+00 0. -1.
         11    1    3    3    0    0  0.44757162397E+01 -0.32552115232E+01  0.54335187144E+01  0.77557439230E+01  0.51100000000E-03 0. -1.
        -11    1    3    3    0    0 -0.23935377077E+02 -0.57430642933E+01  0.76518841523E+01  0.25776663761E+02  0.51100000000E-03 0.  1.
        -12    1    3    3    0    0 -0.69159431246E+01 -0.12595256983E+02  0.90779157032E+01  0.16996450255E+02  0.00000000000E+00 0.  1.
</event>
<event>
 7    1  0.2966651E-011  0.5052886E+02  0.7816164E-02  0.1300439E+00
        -11   -1    0    0    0    0  0.00000000000E+00  0.00000000000E+00  0.45593999997E+02  0.45594000000E+02  0.51100000000E-03 0. -1.
         11   -1    0    0    0    0 -0.00000000000E+00 -0.00000000000E+00 -0.45593999997E+02  0.45594000000E+02  0.51100000000E-03 0.  1.
    9900012    2    1    2    0    0  0.89721899103E+01  0.10778612793E+02 -0.38163951252E+02  0.50528857600E+02  0.29999993160E+02 0.  0.
         12    1    1    2    0    0 -0.89721899103E+01 -0.10778612793E+02  0.38163951252E+02  0.40659142400E+02  0.00000000000E+00 0. -1.
         11    1    3    3    0    0  0.19471844798E+01  0.86121361176E+01 -0.36247304234E+01  0.95445841612E+01  0.51100000000E-03 0. -1.
        -11    1    3    3    0    0  0.89990176184E+01 -0.71639174270E+01 -0.12593002505E+02  0.17055431491E+02  0.51100000000E-03 0.  1.
        -12    1    3    3    0    0 -0.19740121878E+01  0.93303941027E+01 -0.21946218324E+02  0.23928841948E+02  0.00000000000E+00 0.  1.
</event>
<event>
 7    1  0.2966651E-011  0.5052886E+02  0.7816164E-02  0.1300439E+00
        -11   -1    0    0    0    0  0.00000000000E+00  0.00000000000E+00  0.45593999997E+02  0.45594000000E+02  0.51100000000E-03 0.  1.
         11   -1    0    0    0    0 -0.00000000000E+00 -0.00000000000E+00 -0.45593999997E+02  0.45594000000E+02  0.51100000000E-03 0. -1.
    9900012    2    1    2    0    0  0.33979709431E+02 -0.22036196315E+02  0.35987273358E+01  0.50528862780E+02  0.30000008905E+02 0.  0.
         12    1    1    2    0    0 -0.33979709431E+02  0.22036196315E+02 -0.35987273358E+01  0.40659137220E+02  0.00000000000E+00 0. -1.
         11    1    3    3    0    0  0.17392401415E+02  0.38773540344E+01 -0.30077495528E+01  0.18071415520E+02  0.51100000000E-03 0. -1.
        -11    1    3    3    0    0  0.14496749384E+02 -0.17380445134E+02  0.69184661333E+01  0.23666448607E+02  0.51100000000E-03 0.  1.
         12    1    3    3    0    0  0.20905586323E+01 -0.85331052158E+01 -0.31198924469E+00  0.87909986525E+01  0.00000000000E+00 0. -1.
</event>
<event>
 7    1  0.2966651E-011  0.5052891E+02  0.7816164E-02  0.1300439E+00
        -11   -1    0    0    0    0  0.00000000000E+00  0.00000000000E+00  0.45593999997E+02  0.45594000000E+02  0.51100000000E-03 0.  1.
         11   -1    0    0    0    0 -0.00000000000E+00 -0.00000000000E+00 -0.45593999997E+02  0.45594000000E+02  0.51100000000E-03 0. -1.
    9900012    2    1    2    0    0 -0.28093599496E+02  0.46664418280E+01  0.29019567656E+02  0.50528913452E+02  0.30000162929E+02 0.  0.
         12    1    1    2    0    0  0.28093599496E+02 -0.46664418280E+01 -0.29019567656E+02  0.40659086548E+02  0.00000000000E+00 0. -1.
         11    1    3    3    0    0  0.34353531820E+01 -0.10899452545E+01  0.69462836676E+01  0.78256302746E+01  0.51100000000E-03 0. -1.
        -11    1    3    3    0    0 -0.31846913550E+02  0.14425912666E+01  0.17336101935E+02  0.36288392122E+02  0.51100000000E-03 0.  1.
        -12    1    3    3    0    0  0.31796087186E+00  0.43137958159E+01  0.47371820528E+01  0.64148910559E+01  0.00000000000E+00 0.  1.
</event>
<event>
 7    1  0.2966651E-011  0.5052886E+02  0.7816164E-02  0.1300439E+00
        -11   -1    0    0    0    0  0.00000000000E+00  0.00000000000E+00  0.45593999997E+02  0.45594000000E+02  0.51100000000E-03 0.  1.
         11   -1    0    0    0    0 -0.00000000000E+00 -0.00000000000E+00 -0.45593999997E+02  0.45594000000E+02  0.51100000000E-03 0. -1.
    9900012    2    1    2    0    0  0.18226829416E+02  0.64902133439E+01  0.35760668090E+02  0.50528861273E+02  0.30000004325E+02 0.  0.
         12    1    1    2    0    0 -0.18226829416E+02 -0.64902133439E+01 -0.35760668090E+02  0.40659138727E+02  0.00000000000E+00 0. -1.
         11    1    3    3    0    0  0.68769308166E+01  0.50855898531E+01  0.22371005870E+01  0.88408156246E+01  0.51100000000E-03 0. -1.
        -11    1    3    3    0    0 -0.66332850207E+01 -0.28170340563E+00  0.10535360810E+02  0.12452857288E+02  0.51100000000E-03 0.  1.
        -12    1    3    3    0    0  0.17983183620E+02  0.16863268964E+01  0.22988206692E+02  0.29235188360E+02  0.00000000000E+00 0.  1.
</event>
<event>
 7    1  0.2966651E-011  0.5052887E+02  0.7816164E-02  0.1300439E+00
        -11   -1    0    0    0    0  0.00000000000E+00  0.00000000000E+00  0.45593999997E+02  0.45594000000E+02  0.51100000000E-03 0. -1.
         11   -1    0    0    0    0 -0.00000000000E+00 -0.00000000000E+00 -0.45593999997E+02  0.45594000000E+02  0.51100000000E-03 0.  1.
    9900012    2    1    2    0    0 -0.25133856847E+02 -0.21053119304E+02 -0.24046211845E+02  0.50528869456E+02  0.30000029199E+02 0.  0.
         12    1    1    2    0    0  0.25133856847E+02  0.21053119304E+02  0.24046211845E+02  0.40659130544E+02  0.00000000000E+00 0. -1.
         11    1    3    3    0    0 -0.17826250065E+02 -0.56863336431E+01 -0.22322715120E+01  0.18843901349E+02  0.51100000000E-03 0. -1.
        -11    1    3    3    0    0 -0.20473353288E+01 -0.17141895922E+02 -0.14796653687E+02  0.22737131270E+02  0.51100000000E-03 0.  1.
         12    1    3    3    0    0 -0.52602714538E+01  0.17751102613E+01 -0.70172866460E+01  0.89478368380E+01  0.00000000000E+00 0. -1.
</event>
<event>
 7    1  0.2966651E-011  0.5052887E+02  0.7816164E-02  0.1300439E+00
        -11   -1    0    0    0    0  0.00000000000E+00  0.00000000000E+00  0.45593999997E+02  0.45594000000E+02  0.51100000000E-03 0. -1.
         11   -1    0    0    0    0 -0.00000000000E+00 -0.00000000000E+00 -0.45593999997E+02  0.45594000000E+02  0.51100000000E-03 0.  1.
    9900012    2    1    2    0    0  0.95957610197E+00  0.33609811098E+00 -0.40646414592E+02  0.50528871045E+02  0.30000034028E+02 0.  0.
         12    1    1    2    0    0 -0.95957610197E+00 -0.33609811098E+00  0.40646414592E+02  0.40659128955E+02  0.00000000000E+00 0. -1.
         11    1    3    3    0    0 -0.95250342388E+00  0.12892117032E+02 -0.13474731961E+02  0.18673037943E+02  0.51100000000E-03 0. -1.
        -11    1    3    3    0    0 -0.42078029058E+01 -0.66623127989E+01 -0.10329908285E+02  0.12992267799E+02  0.51100000000E-03 0.  1.
         12    1    3    3    0    0  0.61198824317E+01 -0.58937061220E+01 -0.16841774345E+02  0.18863565303E+02  0.00000000000E+00 0. -1.
</event>
<event>
 7    1  0.2966651E-011  0.5052885E+02  0.7816164E-02  0.1300439E+00
        -11   -1    0    0    0    0  0.00000000000E+00  0.00000000000E+00  0.45593999997E+02  0.45594000000E+02  0.51100000000E-03 0.  1.
         11   -1    0    0    0    0 -0.00000000000E+00 -0.00000000000E+00 -0.45593999997E+02  0.45594000000E+02  0.51100000000E-03 0. -1.
    9900012    2    1    2    0    0 -0.96476417108E+01  0.13389851787E+01  0.39475261207E+02  0.50528854421E+02  0.29999983497E+02 0.  0.
         12    1    1    2    0    0  0.96476417108E+01 -0.13389851787E+01 -0.39475261207E+02  0.40659145579E+02  0.00000000000E+00 0. -1.
         11    1    3    3    0    0 -0.25202744837E+01  0.11228022225E+02  0.46529388036E+01  0.12412497989E+02  0.51100000000E-03 0. -1.
        -11    1    3    3    0    0 -0.16161666794E+01 -0.42557073883E+01  0.32966659079E+01  0.56205912927E+01  0.51100000000E-03 0.  1.
         12    1    3    3    0    0 -0.55112005477E+01 -0.56333296576E+01  0.31525656495E+02  0.32495765139E+02  0.00000000000E+00 0. -1.
</event>
<event>
 7    1  0.2966651E-011  0.5052890E+02  0.7816164E-02  0.1300439E+00
        -11   -1    0    0    0    0  0.00000000000E+00  0.00000000000E+00  0.45593999997E+02  0.45594000000E+02  0.51100000000E-03 0. -1.
         11   -1    0    0    0    0 -0.00000000000E+00 -0.00000000000E+00 -0.45593999997E+02  0.45594000000E+02  0.51100000000E-03 0.  1.
    9900012    2    1    2    0    0 -0.34440385659E+02 -0.21221668573E+02 -0.40820200135E+01  0.50528901772E+02  0.30000127425E+02 0.  0.
         12    1    1    2    0    0  0.34440385659E+02  0.21221668573E+02  0.40820200135E+01  0.40659098228E+02  0.00000000000E+00 0. -1.
         11    1    3    3    0    0 -0.11052886770E+02  0.64270676261E+01  0.14240844230E+01  0.12864739443E+02  0.51100000000E-03 0. -1.
        -11    1    3    3    0    0 -0.15939794598E+01 -0.49087196262E+00 -0.20929342527E+01  0.26762099785E+01  0.51100000000E-03 0.  1.
         12    1    3    3    0    0 -0.21793519429E+02 -0.27157864237E+02 -0.34131701838E+01  0.34987952351E+02  0.00000000000E+00 0. -1.
</event>
<event>
 7    1  0.2966651E-011  0.5052885E+02  0.7816164E-02  0.1300439E+00
        -11   -1    0    0    0    0  0.00000000000E+00  0.00000000000E+00  0.45593999997E+02  0.45594000000E+02  0.51100000000E-03 0.  1.
         11   -1    0    0    0    0 -0.00000000000E+00 -0.00000000000E+00 -0.45593999997E+02  0.45594000000E+02  0.51100000000E-03 0. -1.
    9900012    2    1    2    0    0 -0.22564592813E+02  0.18705449664E+02  0.28179989744E+02  0.50528849517E+02  0.29999968593E+02 0.  0.
         12    1    1    2    0    0  0.22564592813E+02 -0.18705449664E+02 -0.28179989744E+02  0.40659150483E+02  0.00000000000E+00 0. -1.
         11    1    3    3    0    0 -0.99126692881E+00 -0.15444891261E+01 -0.30993702787E+01  0.36019651817E+01  0.51100000000E-03 0. -1.
        -11    1    3    3    0    0 -0.12140879925E+02  0.17032361930E+02  0.94944900150E+01  0.22970582474E+02  0.51100000000E-03 0.  1.
        -12    1    3    3    0    0 -0.94324459592E+01  0.32175768606E+01  0.21784870008E+02  0.23956301862E+02  0.00000000000E+00 0.  1.
</event>
<event>
 7    1  0.2966651E-011  0.5052886E+02  0.7816164E-02  0.1300439E+00
        -11   -1    0    0    0    0  0.00000000000E+00  0.00000000000E+00  0.45593999997E+02  0.45594000000E+02  0.51100000000E-03 0.  1.
         11   -1    0    0    0    0 -0.00000000000E+00 -0.00000000000E+00 -0.45593999997E+02  0.45594000000E+02  0.51100000000E-03 0. -1.
    9900012    2    1    2    0    0 -0.25812983062E+02  0.23793109790E+01  0.31324026970E+02  0.50528857351E+02  0.29999992404E+02 0.  0.
         12    1    1    2    0    0  0.25812983062E+02 -0.23793109790E+01 -0.31324026970E+02  0.40659142649E+02  0.00000000000E+00 0. -1.
         11    1    3    3    0    0 -0.81040909097E+01 -0.10139951272E+02  0.16840996554E+02  0.21262974073E+02  0.51100000000E-03 0.  1.
        -11    1    3    3    0    0 -0.76424018875E+01  0.75031224064E+01 -0.27158906268E+00  0.10713398776E+02  0.51100000000E-03 0. -1.
        -12    1    3    3    0    0 -0.10066490265E+02  0.50161398442E+01  0.14754619479E+02  0.18552484502E+02  0.00000000000E+00 0.  1.
</event>
<event>
 7    1  0.2966651E-011  0.5052887E+02  0.7816164E-02  0.1300439E+00
        -11   -1    0    0    0    0  0.00000000000E+00  0.00000000000E+00  0.45593999997E+02  0.45594000000E+02  0.51100000000E-03 0. -1.
         11   -1    0    0    0    0 -0.00000000000E+00 -0.00000000000E+00 -0.45593999997E+02  0.45594000000E+02  0.51100000000E-03 0.  1.
    9900012    2    1    2    0    0  0.65824752371E+01  0.37360146643E+02 -0.14630637479E+02  0.50528867072E+02  0.30000021952E+02 0.  0.
         12    1    1    2    0    0 -0.65824752371E+01 -0.37360146643E+02  0.14630637479E+02  0.40659132928E+02  0.00000000000E+00 0. -1.
         11    1    3    3    0    0 -0.20888675656E+01 -0.25688985429E+01  0.31202002966E+01  0.45495337763E+01  0.51100000000E-03 0. -1.
        -11    1    3    3    0    0 -0.15935223435E+01  0.18149629481E+02 -0.59552934248E+01  0.19168043296E+02  0.51100000000E-03 0.  1.
         12    1    3    3    0    0  0.10264865146E+02  0.21779415704E+02 -0.11795544351E+02  0.26811289999E+02  0.00000000000E+00 0. -1.
</event>
<event>
 7    1  0.2966651E-011  0.5052890E+02  0.7816164E-02  0.1300439E+00
        -11   -1    0    0    0    0  0.00000000000E+00  0.00000000000E+00  0.45593999997E+02  0.45594000000E+02  0.51100000000E-03 0. -1.
         11   -1    0    0    0    0 -0.00000000000E+00 -0.00000000000E+00 -0.45593999997E+02  0.45594000000E+02  0.51100000000E-03 0.  1.
    9900012    2    1    2    0    0  0.33577910614E+02 -0.21323337081E+02 -0.84262674342E+01  0.50528895628E+02  0.30000108751E+02 0.  0.
         12    1    1    2    0    0 -0.33577910614E+02  0.21323337081E+02  0.84262674342E+01  0.40659104372E+02  0.00000000000E+00 0. -1.
         11    1    3    3    0    0  0.14217776098E+02 -0.21176071053E+02 -0.46433858050E+01  0.25925512037E+02  0.51100000000E-03 0. -1.
        -11    1    3    3    0    0  0.90257190775E+01  0.40707587909E+01 -0.79406720403E+01  0.12692082363E+02  0.51100000000E-03 0.  1.
         12    1    3    3    0    0  0.10334415438E+02 -0.42180248193E+01  0.41577904111E+01  0.11911301227E+02  0.00000000000E+00 0. -1.
</event>
<event>
 7    1  0.2966651E-011  0.5052887E+02  0.7816164E-02  0.1300439E+00
        -11   -1    0    0    0    0  0.00000000000E+00  0.00000000000E+00  0.45593999997E+02  0.45594000000E+02  0.51100000000E-03 0.  1.
         11   -1    0    0    0    0 -0.00000000000E+00 -0.00000000000E+00 -0.45593999997E+02  0.45594000000E+02  0.51100000000E-03 0. -1.
    9900012    2    1    2    0    0  0.10200468475E+01 -0.17157134575E+02  0.36847757937E+02  0.50528867848E+02  0.30000024310E+02 0.  0.
         12    1    1    2    0    0 -0.10200468475E+01  0.17157134575E+02 -0.36847757937E+02  0.40659132152E+02  0.00000000000E+00 0. -1.
         11    1    3    3    0    0  0.36988629462E+01  0.31392211408E+01 -0.11840137728E+01  0.49938147083E+01  0.51100000000E-03 0. -1.
        -11    1    3    3    0    0 -0.32875430840E+01 -0.16411793921E+02  0.15999499018E+02  0.23154673142E+02  0.51100000000E-03 0.  1.
         12    1    3    3    0    0  0.60872698531E+00 -0.38845617952E+01  0.22032272692E+02  0.22380379998E+02  0.00000000000E+00 0. -1.
</event>
<event>
 7    1  0.2966651E-011  0.5052886E+02  0.7816164E-02  0.1300439E+00
        -11   -1    0    0    0    0  0.00000000000E+00  0.00000000000E+00  0.45593999997E+02  0.45594000000E+02  0.51100000000E-03 0.  1.
         11   -1    0    0    0    0 -0.00000000000E+00 -0.00000000000E+00 -0.45593999997E+02  0.45594000000E+02  0.51100000000E-03 0. -1.
    9900012    2    1    2    0    0  0.33010873386E+02 -0.17794687861E+02  0.15709773198E+02  0.50528860170E+02  0.30000000973E+02 0.  0.
         12    1    1    2    0    0 -0.33010873386E+02  0.17794687861E+02 -0.15709773198E+02  0.40659139830E+02  0.00000000000E+00 0. -1.
         11    1    3    3    0    0  0.10738881419E+02  0.34443589732E+01 -0.29044154274E+01  0.11645720763E+02  0.51100000000E-03 0. -1.
        -11    1    3    3    0    0  0.18816387337E+02 -0.19542201260E+02  0.90908976967E+01  0.28611160125E+02  0.51100000000E-03 0.  1.
        -12    1    3    3    0    0  0.34556046303E+01 -0.16968455746E+01  0.95232909287E+01  0.10271979282E+02  0.00000000000E+00 0.  1.
</event>
<event>
 7    1  0.2966651E-011  0.5052886E+02  0.7816164E-02  0.1300439E+00
        -11   -1    0    0    0    0  0.00000000000E+00  0.00000000000E+00  0.45593999997E+02  0.45594000000E+02  0.51100000000E-03 0.  1.
         11   -1    0    0    0    0 -0.00000000000E+00 -0.00000000000E+00 -0.45593999997E+02  0.45594000000E+02  0.51100000000E-03 0. -1.
    9900012    2    1    2    0    0 -0.23924513999E+02 -0.10351812125E+02  0.31202935063E+02  0.50528861533E+02  0.30000005114E+02 0.  0.
         12    1    1    2    0    0  0.23924513999E+02  0.10351812125E+02 -0.31202935063E+02  0.40659138467E+02  0.00000000000E+00 0. -1.
         11    1    3    3    0    0 -0.15208572079E+02 -0.14099791546E+01  0.23506020479E+00  0.15275600134E+02  0.51100000000E-03 0. -1.
        -11    1    3    3    0    0 -0.11332318635E+02 -0.84777537995E+01  0.26870678766E+02  0.30369839196E+02  0.51100000000E-03 0.  1.
        -12    1    3    3    0    0  0.26163767154E+01 -0.46407917090E+00  0.40971960922E+01  0.48834222029E+01  0.00000000000E+00 0.  1.
</event>
<event>
 7    1  0.2966651E-011  0.5052887E+02  0.7816164E-02  0.1300439E+00
        -11   -1    0    0    0    0  0.00000000000E+00  0.00000000000E+00  0.45593999997E+02  0.45594000000E+02  0.51100000000E-03 0.  1.
         11   -1    0    0    0    0 -0.00000000000E+00 -0.00000000000E+00 -0.45593999997E+02  0.45594000000E+02  0.51100000000E-03 0. -1.
    9900012    2    1    2    0    0 -0.33926716383E+02  0.65400438026E+01  0.21432941127E+02  0.50528865444E+02  0.30000017003E+02 0.  0.
         12    1    1    2    0    0  0.33926716383E+02 -0.65400438026E+01 -0.21432941127E+02  0.40659134556E+02  0.00000000000E+00 0. -1.
         11    1    3    3    0    0 -0.13873326687E+02  0.64068892891E+01  0.49174445858E+01  0.16052996146E+02  0.51100000000E-03 0. -1.
        -11    1    3    3    0    0 -0.13132213237E+02 -0.10994705189E+02  0.85836219197E+01  0.19157691203E+02  0.51100000000E-03 0.  1.
        -12    1    3    3    0    0 -0.69211764586E+01  0.11127859703E+02  0.79318746216E+01  0.15318178095E+02  0.00000000000E+00 0.  1.
</event>
<event>
 7    1  0.2966651E-011  0.5052888E+02  0.7816164E-02  0.1300439E+00
        -11   -1    0    0    0    0  0.00000000000E+00  0.00000000000E+00  0.45593999997E+02  0.45594000000E+02  0.51100000000E-03 0.  1.
         11   -1    0    0    0    0 -0.00000000000E+00 -0.00000000000E+00 -0.45593999997E+02  0.45594000000E+02  0.51100000000E-03 0. -1.
    9900012    2    1    2    0    0 -0.81078901902E+01 -0.39145931371E+02  0.74176939623E+01  0.50528880359E+02  0.30000062339E+02 0.  0.
         12    1    1    2    0    0  0.81078901902E+01  0.39145931371E+02 -0.74176939623E+01  0.40659119641E+02  0.00000000000E+00 0. -1.
         11    1    3    3    0    0  0.73087847663E+00 -0.19003467166E+01 -0.30352157978E+01  0.36548647295E+01  0.51100000000E-03 0. -1.
        -11    1    3    3    0    0 -0.10419638613E+02 -0.12194712046E+02  0.14289440096E+02  0.21481805539E+02  0.51100000000E-03 0.  1.
        -12    1    3    3    0    0  0.15808699457E+01 -0.25050872609E+02 -0.38365303361E+01  0.25392210090E+02  0.00000000000E+00 0.  1.
</event>
<event>
 7    1  0.2966651E-011  0.5052885E+02  0.7816164E-02  0.1300439E+00
        -11   -1    0    0    0    0  0.00000000000E+00  0.00000000000E+00  0.45593999997E+02  0.45594000000E+02  0.51100000000E-03 0.  1.
         11   -1    0    0    0    0 -0.00000000000E+00 -0.00000000000E+00 -0.45593999997E+02  0.45594000000E+02  0.51100000000E-03 0. -1.
    9900012    2    1    2    0    0  0.36086090480E+02  0.18677288013E+02 -0.14558035105E+01  0.50528851245E+02  0.29999973843E+02 0.  0.
         12    1    1    2    0    0 -0.36086090480E+02 -0.18677288013E+02  0.14558035105E+01  0.40659148755E+02  0.00000000000E+00 0. -1.
         11    1    3    3    0    0  0.34060587258E+02  0.15524777586E+02 -0.75617718971E+01  0.38187991803E+02  0.51100000000E-03 0. -1.
        -11    1    3    3    0    0 -0.12118846701E+01  0.61398085792E+01  0.42254718353E+01  0.75511937026E+01  0.51100000000E-03 0.  1.
        -12    1    3    3    0    0  0.32373878920E+01 -0.29872981521E+01  0.18804965513E+01  0.47896657391E+01  0.00000000000E+00 0.  1.
</event>
<event>
 7    1  0.2966651E-011  0.5052883E+02  0.7816164E-02  0.1300439E+00
        -11   -1    0    0    0    0  0.00000000000E+00  0.00000000000E+00  0.45593999997E+02  0.45594000000E+02  0.51100000000E-03 0.  1.
         11   -1    0    0    0    0 -0.00000000000E+00 -0.00000000000E+00 -0.45593999997E+02  0.45594000000E+02  0.51100000000E-03 0. -1.
    9900012    2    1    2    0    0  0.12504294584E+02  0.18823311219E+02  0.33800798607E+02  0.50528826192E+02  0.29999897693E+02 0.  0.
         12    1    1    2    0    0 -0.12504294584E+02 -0.18823311219E+02 -0.33800798607E+02  0.40659173808E+02  0.00000000000E+00 0. -1.
         11    1    3    3    0    0  0.10286884361E+02  0.10339433167E+02  0.29264252252E+01  0.14875746467E+02  0.51100000000E-03 0. -1.
        -11    1    3    3    0    0 -0.64223689358E+01  0.59299179132E+01  0.16887447112E+02  0.19015694029E+02  0.51100000000E-03 0.  1.
        -12    1    3    3    0    0  0.86397791594E+01  0.25539601381E+01  0.13986926270E+02  0.16637385696E+02  0.00000000000E+00 0.  1.
</event>
<event>
 7    1  0.2966651E-011  0.5052888E+02  0.7816164E-02  0.1300439E+00
        -11   -1    0    0    0    0  0.00000000000E+00  0.00000000000E+00  0.45593999997E+02  0.45594000000E+02  0.51100000000E-03 0.  1.
         11   -1    0    0    0    0 -0.00000000000E+00 -0.00000000000E+00 -0.45593999997E+02  0.45594000000E+02  0.51100000000E-03 0. -1.
    9900012    2    1    2    0    0  0.12382417829E+02  0.28768779434E+01  0.38620763800E+02  0.50528879320E+02  0.30000059180E+02 0.  0.
         12    1    1    2    0    0 -0.12382417829E+02 -0.28768779434E+01 -0.38620763800E+02  0.40659120680E+02  0.00000000000E+00 0. -1.
         11    1    3    3    0    0  0.67536807834E+01  0.30791972918E+01 -0.27747524920E+01  0.79241978609E+01  0.51100000000E-03 0. -1.
        -11    1    3    3    0    0  0.42142908087E+00  0.24328729103E+01  0.26373248440E+02  0.26488576908E+02  0.51100000000E-03 0.  1.
        -12    1    3    3    0    0  0.52073079647E+01 -0.26351922587E+01  0.15022267852E+02  0.16116104551E+02  0.00000000000E+00 0.  1.
</event>
<event>
 7    1  0.2966651E-011  0.5052886E+02  0.7816164E-02  0.1300439E+00
        -11   -1    0    0    0    0  0.00000000000E+00  0.00000000000E+00  0.45593999997E+02  0.45594000000E+02  0.51100000000E-03 0.  1.
         11   -1    0    0    0    0 -0.00000000000E+00 -0.00000000000E+00 -0.45593999997E+02  0.45594000000E+02  0.51100000000E-03 0. -1.
    9900012    2    1    2    0    0 -0.22623267443E+02 -0.75535852939E+01  0.32928661032E+02  0.50528860831E+02  0.30000002982E+02 0.  0.
         12    1    1    2    0    0  0.22623267443E+02  0.75535852939E+01 -0.32928661032E+02  0.40659139169E+02  0.00000000000E+00 0. -1.
         11    1    3    3    0    0 -0.43747449782E+01  0.40047640658E+01  0.55463067243E-02  0.59309830441E+01  0.51100000000E-03 0. -1.
        -11    1    3    3    0    0 -0.23568067425E+01 -0.13648574103E+02  0.17868044952E+02  0.22607634634E+02  0.51100000000E-03 0.  1.
        -12    1    3    3    0    0 -0.15891715722E+02  0.20902247429E+01  0.15055069773E+02  0.21990243153E+02  0.00000000000E+00 0.  1.
</event>
<event>
 7    1  0.2966651E-011  0.5052885E+02  0.7816164E-02  0.1300439E+00
        -11   -1    0    0    0    0  0.00000000000E+00  0.00000000000E+00  0.45593999997E+02  0.45594000000E+02  0.51100000000E-03 0.  1.
         11   -1    0    0    0    0 -0.00000000000E+00 -0.00000000000E+00 -0.45593999997E+02  0.45594000000E+02  0.51100000000E-03 0. -1.
    9900012    2    1    2    0    0  0.25101493267E+01 -0.39765714091E+02  0.80965391133E+01  0.50528845896E+02  0.29999957586E+02 0.  0.
         12    1    1    2    0    0 -0.25101493267E+01  0.39765714091E+02 -0.80965391133E+01  0.40659154104E+02  0.00000000000E+00 0. -1.
         11    1    3    3    0    0  0.63941246149E+01 -0.25898237698E+02 -0.71965200503E+01  0.27629575577E+02  0.51100000000E-03 0. -1.
        -11    1    3    3    0    0 -0.61985365818E+01 -0.12942455340E+02  0.14163597587E+02  0.20162750379E+02  0.51100000000E-03 0.  1.
        -12    1    3    3    0    0  0.23145612936E+01 -0.92502105323E+00  0.11294615766E+01  0.27365199403E+01  0.00000000000E+00 0.  1.
</event>
<event>
 7    1  0.2966651E-011  0.5052886E+02  0.7816164E-02  0.1300439E+00
        -11   -1    0    0    0    0  0.00000000000E+00  0.00000000000E+00  0.45593999997E+02  0.45594000000E+02  0.51100000000E-03 0.  1.
         11   -1    0    0    0    0 -0.00000000000E+00 -0.00000000000E+00 -0.45593999997E+02  0.45594000000E+02  0.51100000000E-03 0. -1.
    9900012    2    1    2    0    0  0.25745756886E+02 -0.18182493600E+02  0.25684994971E+02  0.50528855422E+02  0.29999986540E+02 0.  0.
         12    1    1    2    0    0 -0.25745756886E+02  0.18182493600E+02 -0.25684994971E+02  0.40659144578E+02  0.00000000000E+00 0. -1.
         11    1    3    3    0    0  0.11698885987E+02 -0.42750421987E+01 -0.11983588930E+01  0.12513032543E+02  0.51100000000E-03 0. -1.
        -11    1    3    3    0    0  0.21373846737E+01  0.43462256612E+01  0.70092958691E+01  0.85198779090E+01  0.51100000000E-03 0.  1.
        -12    1    3    3    0    0  0.11909486226E+02 -0.18253677063E+02  0.19874057995E+02  0.29495944970E+02  0.00000000000E+00 0.  1.
</event>
<event>
 7    1  0.2966651E-011  0.5052883E+02  0.7816164E-02  0.1300439E+00
        -11   -1    0    0    0    0  0.00000000000E+00  0.00000000000E+00  0.45593999997E+02  0.45594000000E+02  0.51100000000E-03 0.  1.
         11   -1    0    0    0    0 -0.00000000000E+00 -0.00000000000E+00 -0.45593999997E+02  0.45594000000E+02  0.51100000000E-03 0. -1.
    9900012    2    1    2    0    0  0.33755789399E+02  0.17263520613E+02 -0.14686236662E+02  0.50528831179E+02  0.29999912852E+02 0.  0.
         12    1    1    2    0    0 -0.33755789399E+02 -0.17263520613E+02  0.14686236662E+02  0.40659168821E+02  0.00000000000E+00 0. -1.
         11    1    3    3    0    0  0.34057173177E+02  0.90773197146E+01 -0.74721048794E+01  0.36029448089E+02  0.51100000000E-03 0. -1.
        -11    1    3    3    0    0 -0.23122429186E+01  0.12146731615E+01  0.16154054235E+01  0.30710638462E+01  0.51100000000E-03 0.  1.
         12    1    3    3    0    0  0.20108591409E+01  0.69715277372E+01 -0.88295372057E+01  0.11428319244E+02  0.00000000000E+00 0. -1.
</event>
<event>
 7    1  0.2966651E-011  0.5052886E+02  0.7816164E-02  0.1300439E+00
        -11   -1    0    0    0    0  0.00000000000E+00  0.00000000000E+00  0.45593999997E+02  0.45594000000E+02  0.51100000000E-03 0.  1.
         11   -1    0    0    0    0 -0.00000000000E+00 -0.00000000000E+00 -0.45593999997E+02  0.45594000000E+02  0.51100000000E-03 0. -1.
    9900012    2    1    2    0    0  0.63273901176E+01  0.62968822121E+01  0.39667104911E+02  0.50528858306E+02  0.29999995306E+02 0.  0.
         12    1    1    2    0    0 -0.63273901176E+01 -0.62968822121E+01 -0.39667104911E+02  0.40659141694E+02  0.00000000000E+00 0. -1.
         11    1    3    3    0    0  0.15633769817E+02 -0.36870099829E+01  0.21509130552E+02  0.26844952946E+02  0.51100000000E-03 0. -1.
        -11    1    3    3    0    0 -0.42024454192E+01  0.77646788661E+01  0.14650948568E+02  0.17105586210E+02  0.51100000000E-03 0.  1.
         12    1    3    3    0    0 -0.51039342801E+01  0.22192133289E+01  0.35070257916E+01  0.65783191499E+01  0.00000000000E+00 0. -1.
</event>
<event>
 7    1  0.2966651E-011  0.5052886E+02  0.7816164E-02  0.1300439E+00
        -11   -1    0    0    0    0  0.00000000000E+00  0.00000000000E+00  0.45593999997E+02  0.45594000000E+02  0.51100000000E-03 0.  1.
         11   -1    0    0    0    0 -0.00000000000E+00 -0.00000000000E+00 -0.45593999997E+02  0.45594000000E+02  0.51100000000E-03 0. -1.
    9900012    2    1    2    0    0  0.36109598842E+02 -0.33716598454E+01  0.18381900182E+02  0.50528862368E+02  0.30000007655E+02 0.  0.
         12    1    1    2    0    0 -0.36109598842E+02  0.33716598454E+01 -0.18381900182E+02  0.40659137632E+02  0.00000000000E+00 0. -1.
         11    1    3    3    0    0  0.43749566809E+00 -0.91318103404E+01  0.53800542982E+01  0.10607843658E+02  0.51100000000E-03 0. -1.
        -11    1    3    3    0    0  0.15684839690E+02  0.18268691704E+00  0.10820102323E+02  0.19055765142E+02  0.51100000000E-03 0.  1.
         12    1    3    3    0    0  0.19987263484E+02  0.55774635780E+01  0.21817435617E+01  0.20865253569E+02  0.00000000000E+00 0. -1.
</event>
<event>
 7    1  0.2966651E-011  0.5052887E+02  0.7816164E-02  0.1300439E+00
        -11   -1    0    0    0    0  0.00000000000E+00  0.00000000000E+00  0.45593999997E+02  0.45594000000E+02  0.51100000000E-03 0.  1.
         11   -1    0    0    0    0 -0.00000000000E+00 -0.00000000000E+00 -0.45593999997E+02  0.45594000000E+02  0.51100000000E-03 0. -1.
    9900012    2    1    2    0    0  0.13332290187E+02 -0.35556716617E+02  0.14530473757E+02  0.50528871556E+02  0.30000035582E+02 0.  0.
         12    1    1    2    0    0 -0.13332290187E+02  0.35556716617E+02 -0.14530473757E+02  0.40659128444E+02  0.00000000000E+00 0. -1.
         11    1    3    3    0    0  0.68268754356E+01 -0.79527452070E+00  0.96067762955E+01  0.11812232678E+02  0.51100000000E-03 0. -1.
        -11    1    3    3    0    0  0.37815837161E+01 -0.34085691411E+02  0.15521480733E+01  0.34329927152E+02  0.51100000000E-03 0.  1.
        -12    1    3    3    0    0  0.27238310353E+01 -0.67575068542E+00  0.33715493881E+01  0.43867117268E+01  0.00000000000E+00 0.  1.
</event>
<event>
 7    1  0.2966651E-011  0.5052886E+02  0.7816164E-02  0.1300439E+00
        -11   -1    0    0    0    0  0.00000000000E+00  0.00000000000E+00  0.45593999997E+02  0.45594000000E+02  0.51100000000E-03 0.  1.
         11   -1    0    0    0    0 -0.00000000000E+00 -0.00000000000E+00 -0.45593999997E+02  0.45594000000E+02  0.51100000000E-03 0. -1.
    9900012    2    1    2    0    0  0.37851821282E+02 -0.13215754550E+02  0.67638254410E+01  0.50528857396E+02  0.29999992541E+02 0.  0.
         12    1    1    2    0    0 -0.37851821282E+02  0.13215754550E+02 -0.67638254410E+01  0.40659142604E+02  0.00000000000E+00 0. -1.
         11    1    3    3    0    0  0.15004888793E+02 -0.99546176733E+01  0.13069966214E+02  0.22250058827E+02  0.51100000000E-03 0.  1.
        -11    1    3    3    0    0  0.90334303375E+01  0.58042572373E+01 -0.44214252835E+00  0.10746522973E+02  0.51100000000E-03 0. -1.
         12    1    3    3    0    0  0.13813502152E+02 -0.90653941136E+01 -0.58639982450E+01  0.17532275595E+02  0.00000000000E+00 0. -1.
</event>
<event>
 7    1  0.2966651E-011  0.5052896E+02  0.7816164E-02  0.1300438E+00
        -11   -1    0    0    0    0  0.00000000000E+00  0.00000000000E+00  0.45593999997E+02  0.45594000000E+02  0.51100000000E-03 0.  1.
         11   -1    0    0    0    0 -0.00000000000E+00 -0.00000000000E+00 -0.45593999997E+02  0.45594000000E+02  0.51100000000E-03 0. -1.
    9900012    2    1    2    0    0  0.15474512127E+02 -0.34718125573E+02  0.14434288887E+02  0.50528960851E+02  0.30000307000E+02 0.  0.
         12    1    1    2    0    0 -0.15474512127E+02  0.34718125573E+02 -0.14434288887E+02  0.40659039149E+02  0.00000000000E+00 0. -1.
         11    1    3    3    0    0  0.66239410774E+01  0.16756455329E+01  0.88523834443E+01  0.11182534429E+02  0.51100000000E-03 0. -1.
        -11    1    3    3    0    0  0.29664781287E+01 -0.29574258328E+02  0.60299842980E+01  0.30328162803E+02  0.51100000000E-03 0.  1.
         12    1    3    3    0    0  0.58840929209E+01 -0.68195127783E+01 -0.44807885541E+00  0.90182636187E+01  0.00000000000E+00 0. -1.
</event>
<event>
 7    1  0.2966651E-011  0.5052885E+02  0.7816164E-02  0.1300439E+00
        -11   -1    0    0    0    0  0.00000000000E+00  0.00000000000E+00  0.45593999997E+02  0.45594000000E+02  0.51100000000E-03 0.  1.
         11   -1    0    0    0    0 -0.00000000000E+00 -0.00000000000E+00 -0.45593999997E+02  0.45594000000E+02  0.51100000000E-03 0. -1.
    9900012    2    1    2    0    0  0.54042697800E+01 -0.12053525547E+02  0.38453512905E+02  0.50528852631E+02  0.29999978058E+02 0.  0.
         12    1    1    2    0    0 -0.54042697800E+01  0.12053525547E+02 -0.38453512905E+02  0.40659147369E+02  0.00000000000E+00 0. -1.
         11    1    3    3    0    0  0.46218394634E+01  0.27411298033E+01  0.23811586813E+01  0.58775087878E+01  0.51100000000E-03 0. -1.
        -11    1    3    3    0    0 -0.89578226394E+01 -0.96614729653E+01  0.10629679934E+02  0.16928577674E+02  0.51100000000E-03 0.  1.
        -12    1    3    3    0    0  0.97402529560E+01 -0.51331823855E+01  0.25442674291E+02  0.27722766170E+02  0.00000000000E+00 0.  1.
</event>
<event>
 7    1  0.2966651E-011  0.5052885E+02  0.7816164E-02  0.1300439E+00
        -11   -1    0    0    0    0  0.00000000000E+00  0.00000000000E+00  0.45593999997E+02  0.45594000000E+02  0.51100000000E-03 0. -1.
         11   -1    0    0    0    0 -0.00000000000E+00 -0.00000000000E+00 -0.45593999997E+02  0.45594000000E+02  0.51100000000E-03 0.  1.
    9900012    2    1    2    0    0 -0.14505911737E+02 -0.64789533938E+01 -0.37426833976E+02  0.50528853257E+02  0.29999979959E+02 0.  0.
         12    1    1    2    0    0  0.14505911737E+02  0.64789533938E+01  0.37426833976E+02  0.40659146743E+02  0.00000000000E+00 0. -1.
         11    1    3    3    0    0 -0.81980061245E+01 -0.70944431392E+01  0.11449958903E+01  0.10901809195E+02  0.51100000000E-03 0. -1.
        -11    1    3    3    0    0 -0.71265629410E+01 -0.95861461697E+00 -0.28070570569E+02  0.28976952456E+02  0.51100000000E-03 0.  1.
        -12    1    3    3    0    0  0.81865732826E+00  0.15741043623E+01 -0.10501259298E+02  0.10650091606E+02  0.00000000000E+00 0.  1.
</event>
<event>
 7    1  0.2966651E-011  0.5052886E+02  0.7816164E-02  0.1300439E+00
        -11   -1    0    0    0    0  0.00000000000E+00  0.00000000000E+00  0.45593999997E+02  0.45594000000E+02  0.51100000000E-03 0.  1.
         11   -1    0    0    0    0 -0.00000000000E+00 -0.00000000000E+00 -0.45593999997E+02  0.45594000000E+02  0.51100000000E-03 0. -1.
    9900012    2    1    2    0    0  0.38835707032E+02 -0.42387033035E+01  0.11268845508E+02  0.50528860493E+02  0.30000001953E+02 0.  0.
         12    1    1    2    0    0 -0.38835707032E+02  0.42387033035E+01 -0.11268845508E+02  0.40659139507E+02  0.00000000000E+00 0. -1.
         11    1    3    3    0    0  0.24052082328E+01  0.54235836380E+01  0.92821735985E+01  0.11016307598E+02  0.51100000000E-03 0. -1.
        -11    1    3    3    0    0  0.21208434691E+02 -0.37066573894E+01  0.66168402803E+01  0.22523756050E+02  0.51100000000E-03 0.  1.
         12    1    3    3    0    0  0.15222064108E+02 -0.59556295521E+01 -0.46301683707E+01  0.16988796844E+02  0.00000000000E+00 0. -1.
</event>
<event>
 7    1  0.2966651E-011  0.5052884E+02  0.7816164E-02  0.1300439E+00
        -11   -1    0    0    0    0  0.00000000000E+00  0.00000000000E+00  0.45593999997E+02  0.45594000000E+02  0.51100000000E-03 0.  1.
         11   -1    0    0    0    0 -0.00000000000E+00 -0.00000000000E+00 -0.45593999997E+02  0.45594000000E+02  0.51100000000E-03 0. -1.
    9900012    2    1    2    0    0  0.29285751659E+02  0.24908593740E+02  0.13231558895E+02  0.50528838140E+02  0.29999934010E+02 0.  0.
         12    1    1    2    0    0 -0.29285751659E+02 -0.24908593740E+02 -0.13231558895E+02  0.40659161860E+02  0.00000000000E+00 0. -1.
         11    1    3    3    0    0  0.72237167962E+00  0.34276986372E+01  0.19067482711E+01  0.39883114248E+01  0.51100000000E-03 0. -1.
        -11    1    3    3    0    0  0.39473083069E+01 -0.49257917858E+01  0.81383981881E+01  0.10299426825E+02  0.51100000000E-03 0.  1.
        -12    1    3    3    0    0  0.24616071673E+02  0.26406686889E+02  0.31864124360E+01  0.36241099890E+02  0.00000000000E+00 0.  1.
</event>
<event>
 7    1  0.2966651E-011  0.5052886E+02  0.7816164E-02  0.1300439E+00
        -11   -1    0    0    0    0  0.00000000000E+00  0.00000000000E+00  0.45593999997E+02  0.45594000000E+02  0.51100000000E-03 0.  1.
         11   -1    0    0    0    0 -0.00000000000E+00 -0.00000000000E+00 -0.45593999997E+02  0.45594000000E+02  0.51100000000E-03 0. -1.
    9900012    2    1    2    0    0 -0.33105090204E+02 -0.23111678675E+02  0.48030042942E+01  0.50528861559E+02  0.30000005194E+02 0.  0.
         12    1    1    2    0    0  0.33105090204E+02  0.23111678675E+02 -0.48030042942E+01  0.40659138441E+02  0.00000000000E+00 0. -1.
         11    1    3    3    0    0  0.52156767045E+01 -0.33163081116E+01  0.13154567281E+01  0.63191462747E+01  0.51100000000E-03 0. -1.
        -11    1    3    3    0    0 -0.18762622585E+02 -0.14734149355E+02  0.24247665518E+01  0.23979379821E+02  0.51100000000E-03 0.  1.
         12    1    3    3    0    0 -0.19558144323E+02 -0.50612212078E+01  0.10627810142E+01  0.20230335463E+02  0.00000000000E+00 0. -1.
</event>
<event>
 7    1  0.2966651E-011  0.5052886E+02  0.7816164E-02  0.1300439E+00
        -11   -1    0    0    0    0  0.00000000000E+00  0.00000000000E+00  0.45593999997E+02  0.45594000000E+02  0.51100000000E-03 0.  1.
         11   -1    0    0    0    0 -0.00000000000E+00 -0.00000000000E+00 -0.45593999997E+02  0.45594000000E+02  0.51100000000E-03 0. -1.
    9900012    2    1    2    0    0  0.20329178475E+02 -0.34660808268E+02  0.62063116981E+01  0.50528862870E+02  0.30000009181E+02 0.  0.
         12    1    1    2    0    0 -0.20329178475E+02  0.34660808268E+02 -0.62063116981E+01  0.40659137130E+02  0.00000000000E+00 0. -1.
         11    1    3    3    0    0  0.12899547021E+02 -0.38850983210E+02  0.32187131688E+01  0.41062846035E+02  0.51100000000E-03 0.  1.
        -11    1    3    3    0    0  0.60422768047E+01  0.22110991224E+01  0.28728658676E+01  0.70463768610E+01  0.51100000000E-03 0. -1.
        -12    1    3    3    0    0  0.13873546488E+01  0.19790758201E+01  0.11473266176E+00  0.24196399747E+01  0.00000000000E+00 0.  1.
</event>
<event>
 7    1  0.2966651E-011  0.5052887E+02  0.7816164E-02  0.1300439E+00
        -11   -1    0    0    0    0  0.00000000000E+00  0.00000000000E+00  0.45593999997E+02  0.45594000000E+02  0.51100000000E-03 0. -1.
         11   -1    0    0    0    0 -0.00000000000E+00 -0.00000000000E+00 -0.45593999997E+02  0.45594000000E+02  0.51100000000E-03 0.  1.
    9900012    2    1    2    0    0 -0.36572532122E+02 -0.51293474609E-01 -0.17765486639E+02  0.50528865081E+02  0.30000015900E+02 0.  0.
         12    1    1    2    0    0  0.36572532122E+02  0.51293474609E-01  0.17765486639E+02  0.40659134919E+02  0.00000000000E+00 0. -1.
         11    1    3    3    0    0  0.85433210012E+00 -0.49986068293E+01 -0.81238145960E+01  0.95766548138E+01  0.51100000000E-03 0. -1.
        -11    1    3    3    0    0 -0.37442879467E+02  0.37406837569E+01 -0.73185402488E+01  0.38334357558E+02  0.51100000000E-03 0.  1.
        -12    1    3    3    0    0  0.16015244321E-01  0.12066295978E+01 -0.23231317945E+01  0.26178527095E+01  0.00000000000E+00 0.  1.
</event>
<event>
 7    1  0.2966651E-011  0.5052886E+02  0.7816164E-02  0.1300439E+00
        -11   -1    0    0    0    0  0.00000000000E+00  0.00000000000E+00  0.45593999997E+02  0.45594000000E+02  0.51100000000E-03 0.  1.
         11   -1    0    0    0    0 -0.00000000000E+00 -0.00000000000E+00 -0.45593999997E+02  0.45594000000E+02  0.51100000000E-03 0. -1.
    9900012    2    1    2    0    0 -0.13532439405E+02 -0.24199636053E-01  0.38341075833E+02  0.50528860831E+02  0.30000002983E+02 0.  0.
         12    1    1    2    0    0  0.13532439405E+02  0.24199636053E-01 -0.38341075833E+02  0.40659139169E+02  0.00000000000E+00 0. -1.
         11    1    3    3    0    0  0.29458359841E+01 -0.70669674865E+01  0.62254857771E+00  0.76816369409E+01  0.51100000000E-03 0. -1.
        -11    1    3    3    0    0 -0.16435567606E+02  0.35281883584E+01  0.30942790839E+02  0.35214092360E+02  0.51100000000E-03 0.  1.
         12    1    3    3    0    0 -0.42707782934E-01  0.35145794920E+01  0.67757364171E+01  0.76331315300E+01  0.00000000000E+00 0. -1.
</event>
<event>
 7    1  0.2966651E-011  0.5052886E+02  0.7816164E-02  0.1300439E+00
        -11   -1    0    0    0    0  0.00000000000E+00  0.00000000000E+00  0.45593999997E+02  0.45594000000E+02  0.51100000000E-03 0.  1.
         11   -1    0    0    0    0 -0.00000000000E+00 -0.00000000000E+00 -0.45593999997E+02  0.45594000000E+02  0.51100000000E-03 0. -1.
    9900012    2    1    2    0    0 -0.35066880826E+02  0.18373530759E+02  0.92678527160E+01  0.50528857641E+02  0.29999993284E+02 0.  0.
         12    1    1    2    0    0  0.35066880826E+02 -0.18373530759E+02 -0.92678527160E+01  0.40659142359E+02  0.00000000000E+00 0. -1.
         11    1    3    3    0    0 -0.14439662157E+02  0.29803775016E+01 -0.60615063629E+01  0.15941403731E+02  0.51100000000E-03 0. -1.
        -11    1    3    3    0    0 -0.21285655692E+02  0.13001037981E+02  0.18138070069E+02  0.30839839703E+02  0.51100000000E-03 0.  1.
        -12    1    3    3    0    0  0.65843702359E+00  0.23921152767E+01 -0.28087109902E+01  0.37476142061E+01  0.00000000000E+00 0.  1.
</event>
<event>
 7    1  0.2966651E-011  0.5052890E+02  0.7816164E-02  0.1300439E+00
        -11   -1    0    0    0    0  0.00000000000E+00  0.00000000000E+00  0.45593999997E+02  0.45594000000E+02  0.51100000000E-03 0.  1.
         11   -1    0    0    0    0 -0.00000000000E+00 -0.00000000000E+00 -0.45593999997E+02  0.45594000000E+02  0.51100000000E-03 0. -1.
    9900012    2    1    2    0    0 -0.11034348762E+02 -0.17039283065E+02  0.35228796353E+02  0.50528903693E+02  0.30000133266E+02 0.  0.
         12    1    1    2    0    0  0.11034348762E+02  0.17039283065E+02 -0.35228796353E+02  0.40659096307E+02  0.00000000000E+00 0. -1.
         11    1    3    3    0    0 -0.38824709068E+01 -0.51859298598E+01  0.10554504319E+01  0.65636441653E+01  0.51100000000E-03 0. -1.
        -11    1    3    3    0    0  0.25398073794E+01  0.14680258346E+01  0.24877052293E+02  0.25049420201E+02  0.51100000000E-03 0.  1.
        -12    1    3    3    0    0 -0.96916852346E+01 -0.13321379040E+02  0.92962936286E+01  0.18915839327E+02  0.00000000000E+00 0.  1.
</event>
<event>
 7    1  0.2966651E-011  0.5052888E+02  0.7816164E-02  0.1300439E+00
        -11   -1    0    0    0    0  0.00000000000E+00  0.00000000000E+00  0.45593999997E+02  0.45594000000E+02  0.51100000000E-03 0.  1.
         11   -1    0    0    0    0 -0.00000000000E+00 -0.00000000000E+00 -0.45593999997E+02  0.45594000000E+02  0.51100000000E-03 0. -1.
    9900012    2    1    2    0    0  0.27527636843E+02  0.87826645044E+01  0.28605209368E+02  0.50528880618E+02  0.30000063126E+02 0.  0.
         12    1    1    2    0    0 -0.27527636843E+02 -0.87826645044E+01 -0.28605209368E+02  0.40659119382E+02  0.00000000000E+00 0. -1.
         11    1    3    3    0    0  0.67274737033E+01 -0.58242429961E+01 -0.25286414540E+01  0.92506614234E+01  0.51100000000E-03 0. -1.
        -11    1    3    3    0    0  0.18688136095E+02  0.94271962493E+01  0.20692797728E+02  0.29433150323E+02  0.51100000000E-03 0.  1.
        -12    1    3    3    0    0  0.21120270445E+01  0.51797112512E+01  0.10441053093E+02  0.11845068872E+02  0.00000000000E+00 0.  1.
</event>
<event>
 7    1  0.2966651E-011  0.5052885E+02  0.7816164E-02  0.1300439E+00
        -11   -1    0    0    0    0  0.00000000000E+00  0.00000000000E+00  0.45593999997E+02  0.45594000000E+02  0.51100000000E-03 0.  1.
         11   -1    0    0    0    0 -0.00000000000E+00 -0.00000000000E+00 -0.45593999997E+02  0.45594000000E+02  0.51100000000E-03 0. -1.
    9900012    2    1    2    0    0 -0.53083328613E+01  0.69381107808E+01  0.39709574640E+02  0.50528854694E+02  0.29999984327E+02 0.  0.
         12    1    1    2    0    0  0.53083328613E+01 -0.69381107808E+01 -0.39709574640E+02  0.40659145306E+02  0.00000000000E+00 0. -1.
         11    1    3    3    0    0 -0.43995986210E+01 -0.45488691538E+01  0.19775576544E+01  0.66301895254E+01  0.51100000000E-03 0. -1.
        -11    1    3    3    0    0 -0.56081200925E+01  0.37580797579E+01  0.33013143881E+02  0.33696317953E+02  0.51100000000E-03 0.  1.
        -12    1    3    3    0    0  0.46993858522E+01  0.77289001767E+01  0.47188731046E+01  0.10202347216E+02  0.00000000000E+00 0.  1.
</event>
<event>
 7    1  0.2966651E-011  0.5052894E+02  0.7816164E-02  0.1300439E+00
        -11   -1    0    0    0    0  0.00000000000E+00  0.00000000000E+00  0.45593999997E+02  0.45594000000E+02  0.51100000000E-03 0. -1.
         11   -1    0    0    0    0 -0.00000000000E+00 -0.00000000000E+00 -0.45593999997E+02  0.45594000000E+02  0.51100000000E-03 0.  1.
    9900012    2    1    2    0    0 -0.25232311175E+01  0.22563969684E+02 -0.33729216670E+02  0.50528936062E+02  0.30000231653E+02 0.  0.
         12    1    1    2    0    0  0.25232311175E+01 -0.22563969684E+02  0.33729216670E+02  0.40659063938E+02  0.00000000000E+00 0. -1.
         11    1    3    3    0    0 -0.10270504122E+02  0.16977914792E+02 -0.77841418641E+01  0.21314917556E+02  0.51100000000E-03 0. -1.
        -11    1    3    3    0    0  0.19902530560E+01 -0.20695450859E+01 -0.22235838303E+01  0.36315904781E+01  0.51100000000E-03 0.  1.
         12    1    3    3    0    0  0.57570199484E+01  0.76555999783E+01 -0.23721490975E+02  0.25582428028E+02  0.00000000000E+00 0. -1.
</event>
<event>
 7    1  0.2966651E-011  0.5052886E+02  0.7816164E-02  0.1300439E+00
        -11   -1    0    0    0    0  0.00000000000E+00  0.00000000000E+00  0.45593999997E+02  0.45594000000E+02  0.51100000000E-03 0.  1.
         11   -1    0    0    0    0 -0.00000000000E+00 -0.00000000000E+00 -0.45593999997E+02  0.45594000000E+02  0.51100000000E-03 0. -1.
    9900012    2    1    2    0    0  0.43706547211E+01 -0.18026027661E+02  0.36181832409E+02  0.50528864589E+02  0.30000014404E+02 0.  0.
         12    1    1    2    0    0 -0.43706547211E+01  0.18026027661E+02 -0.36181832409E+02  0.40659135411E+02  0.00000000000E+00 0. -1.
         11    1    3    3    0    0  0.72413300878E+01 -0.59259809029E+00  0.21679881640E+02  0.22864936084E+02  0.51100000000E-03 0. -1.
        -11    1    3    3    0    0  0.79289635603E+00 -0.18272385630E+02  0.15272113286E+02  0.23827425495E+02  0.51100000000E-03 0.  1.
         12    1    3    3    0    0 -0.36635717227E+01  0.83895605925E+00 -0.77016251781E+00  0.38365030094E+01  0.00000000000E+00 0. -1.
</event>
<event>
 7    1  0.2966651E-011  0.5052886E+02  0.7816164E-02  0.1300439E+00
        -11   -1    0    0    0    0  0.00000000000E+00  0.00000000000E+00  0.45593999997E+02  0.45594000000E+02  0.51100000000E-03 0.  1.
         11   -1    0    0    0    0 -0.00000000000E+00 -0.00000000000E+00 -0.45593999997E+02  0.45594000000E+02  0.51100000000E-03 0. -1.
    9900012    2    1    2    0    0 -0.24021728618E+02 -0.30167812790E+02  0.12885090647E+02  0.50528856683E+02  0.29999990372E+02 0.  0.
         12    1    1    2    0    0  0.24021728618E+02  0.30167812790E+02 -0.12885090647E+02  0.40659143317E+02  0.00000000000E+00 0. -1.
         11    1    3    3    0    0  0.30707833800E+01 -0.76539909706E+00  0.58738145705E+01  0.66721244154E+01  0.51100000000E-03 0. -1.
        -11    1    3    3    0    0 -0.23917344638E+02 -0.19883335997E+02  0.11095600593E+02  0.33022700945E+02  0.51100000000E-03 0.  1.
         12    1    3    3    0    0 -0.31751673600E+01 -0.95190776954E+01 -0.40843245163E+01  0.10834031322E+02  0.00000000000E+00 0. -1.
</event>
<event>
 7    1  0.2966651E-011  0.5052884E+02  0.7816164E-02  0.1300439E+00
        -11   -1    0    0    0    0  0.00000000000E+00  0.00000000000E+00  0.45593999997E+02  0.45594000000E+02  0.51100000000E-03 0.  1.
         11   -1    0    0    0    0 -0.00000000000E+00 -0.00000000000E+00 -0.45593999997E+02  0.45594000000E+02  0.51100000000E-03 0. -1.
    9900012    2    1    2    0    0  0.26751585959E+01 -0.16972641646E+02  0.36850235574E+02  0.50528844821E+02  0.29999954319E+02 0.  0.
         12    1    1    2    0    0 -0.26751585959E+01  0.16972641646E+02 -0.36850235574E+02  0.40659155179E+02  0.00000000000E+00 0. -1.
         11    1    3    3    0    0  0.80839442775E+00  0.39903248835E+01 -0.26326302801E+01  0.48483952685E+01  0.51100000000E-03 0. -1.
        -11    1    3    3    0    0  0.52537249847E+01 -0.16489631016E+02  0.31147921389E+02  0.35632885995E+02  0.51100000000E-03 0.  1.
        -12    1    3    3    0    0 -0.33869608166E+01 -0.44733355134E+01  0.83349444658E+01  0.10047563557E+02  0.00000000000E+00 0.  1.
</event>
<event>
 7    1  0.2966651E-011  0.5052886E+02  0.7816164E-02  0.1300439E+00
        -11   -1    0    0    0    0  0.00000000000E+00  0.00000000000E+00  0.45593999997E+02  0.45594000000E+02  0.51100000000E-03 0.  1.
         11   -1    0    0    0    0 -0.00000000000E+00 -0.00000000000E+00 -0.45593999997E+02  0.45594000000E+02  0.51100000000E-03 0. -1.
    9900012    2    1    2    0    0 -0.26382974915E+02 -0.21484219439E+02  0.22260558514E+02  0.50528861844E+02  0.30000006060E+02 0.  0.
         12    1    1    2    0    0  0.26382974915E+02  0.21484219439E+02 -0.22260558514E+02  0.40659138156E+02  0.00000000000E+00 0. -1.
         11    1    3    3    0    0  0.26701851619E+01  0.20588522399E+01  0.79771321430E+01  0.86604502673E+01  0.51100000000E-03 0. -1.
        -11    1    3    3    0    0 -0.13823238076E+02 -0.36480653833E+01  0.55101209365E+01  0.15321609737E+02  0.51100000000E-03 0.  1.
         12    1    3    3    0    0 -0.15229922001E+02 -0.19895006295E+02  0.87733054342E+01  0.26546801839E+02  0.00000000000E+00 0. -1.
</event>
<event>
 7    1  0.2966651E-011  0.5052886E+02  0.7816164E-02  0.1300439E+00
        -11   -1    0    0    0    0  0.00000000000E+00  0.00000000000E+00  0.45593999997E+02  0.45594000000E+02  0.51100000000E-03 0. -1.
         11   -1    0    0    0    0 -0.00000000000E+00 -0.00000000000E+00 -0.45593999997E+02  0.45594000000E+02  0.51100000000E-03 0.  1.
    9900012    2    1    2    0    0  0.33334241234E+02  0.21420066320E+02 -0.91200022244E+01  0.50528864245E+02  0.30000013359E+02 0.  0.
         12    1    1    2    0    0 -0.33334241234E+02 -0.21420066320E+02  0.91200022244E+01  0.40659135755E+02  0.00000000000E+00 0. -1.
         11    1    3    3    0    0  0.29796920752E+02  0.42448980601E+01 -0.97660894383E+01  0.31642568622E+02  0.51100000000E-03 0. -1.
        -11    1    3    3    0    0  0.23530185400E+01  0.12766634469E+02 -0.26582240123E+01  0.13251030416E+02  0.51100000000E-03 0.  1.
        -12    1    3    3    0    0  0.11843019420E+01  0.44085337908E+01  0.33043112263E+01  0.56352652071E+01  0.00000000000E+00 0.  1.
</event>
<event>
 7    1  0.2966651E-011  0.5052886E+02  0.7816164E-02  0.1300439E+00
        -11   -1    0    0    0    0  0.00000000000E+00  0.00000000000E+00  0.45593999997E+02  0.45594000000E+02  0.51100000000E-03 0.  1.
         11   -1    0    0    0    0 -0.00000000000E+00 -0.00000000000E+00 -0.45593999997E+02  0.45594000000E+02  0.51100000000E-03 0. -1.
    9900012    2    1    2    0    0  0.31223644944E+02  0.94426816052E+01 -0.24271087864E+02  0.50528856556E+02  0.29999989987E+02 0.  0.
         12    1    1    2    0    0 -0.31223644944E+02 -0.94426816052E+01  0.24271087864E+02  0.40659143444E+02  0.00000000000E+00 0. -1.
         11    1    3    3    0    0  0.47963173775E+01 -0.25646703127E+01 -0.90305558753E+01  0.10541970114E+02  0.51100000000E-03 0. -1.
        -11    1    3    3    0    0  0.92470412629E+01  0.14953703394E+02 -0.12330432540E+01  0.17625022361E+02  0.51100000000E-03 0.  1.
        -12    1    3    3    0    0  0.17180286304E+02 -0.29463514759E+01 -0.14007488735E+02  0.22361864081E+02  0.00000000000E+00 0.  1.
</event>
<event>
 7    1  0.2966651E-011  0.5052887E+02  0.7816164E-02  0.1300439E+00
        -11   -1    0    0    0    0  0.00000000000E+00  0.00000000000E+00  0.45593999997E+02  0.45594000000E+02  0.51100000000E-03 0.  1.
         11   -1    0    0    0    0 -0.00000000000E+00 -0.00000000000E+00 -0.45593999997E+02  0.45594000000E+02  0.51100000000E-03 0. -1.
    9900012    2    1    2    0    0 -0.33311577117E+02 -0.35651126581E+01  0.23038958022E+02  0.50528870828E+02  0.30000033370E+02 0.  0.
         12    1    1    2    0    0  0.33311577117E+02  0.35651126581E+01 -0.23038958022E+02  0.40659129172E+02  0.00000000000E+00 0. -1.
         11    1    3    3    0    0 -0.52021269216E+01 -0.21782129290E+01 -0.17848389898E+01  0.59154362944E+01  0.51100000000E-03 0. -1.
        -11    1    3    3    0    0 -0.30685244895E+02 -0.41192309413E+01  0.26255832720E+02  0.40594594097E+02  0.51100000000E-03 0.  1.
        -12    1    3    3    0    0  0.25757946994E+01  0.27323312123E+01 -0.14320357088E+01  0.40188404370E+01  0.00000000000E+00 0.  1.
</event>
<event>
 7    1  0.2966651E-011  0.5052886E+02  0.7816164E-02  0.1300439E+00
        -11   -1    0    0    0    0  0.00000000000E+00  0.00000000000E+00  0.45593999997E+02  0.45594000000E+02  0.51100000000E-03 0.  1.
         11   -1    0    0    0    0 -0.00000000000E+00 -0.00000000000E+00 -0.45593999997E+02  0.45594000000E+02  0.51100000000E-03 0. -1.
    9900012    2    1    2    0    0 -0.94319468499E+01 -0.78330302015E+01  0.38766582769E+02  0.50528856832E+02  0.29999990828E+02 0.  0.
         12    1    1    2    0    0  0.94319468499E+01  0.78330302015E+01 -0.38766582769E+02  0.40659143168E+02  0.00000000000E+00 0. -1.
         11    1    3    3    0    0 -0.16063382269E+02  0.11787436676E+01  0.20373640047E+02  0.25971270581E+02  0.51100000000E-03 0. -1.
        -11    1    3    3    0    0  0.82662505108E+01 -0.10891431833E+02  0.16498809674E+02  0.21428133512E+02  0.51100000000E-03 0.  1.
        -12    1    3    3    0    0 -0.16348150919E+01  0.18796579641E+01  0.18941330479E+01  0.31294527396E+01  0.00000000000E+00 0.  1.
</event>
<event>
 7    1  0.2966651E-011  0.5052886E+02  0.7816164E-02  0.1300439E+00
        -11   -1    0    0    0    0  0.00000000000E+00  0.00000000000E+00  0.45593999997E+02  0.45594000000E+02  0.51100000000E-03 0. -1.
         11   -1    0    0    0    0 -0.00000000000E+00 -0.00000000000E+00 -0.45593999997E+02  0.45594000000E+02  0.51100000000E-03 0.  1.
    9900012    2    1    2    0    0  0.29152834800E+02 -0.28065477936E+02  0.39505387201E+01  0.50528860992E+02  0.30000003471E+02 0.  0.
         12    1    1    2    0    0 -0.29152834800E+02  0.28065477936E+02 -0.39505387201E+01  0.40659139008E+02  0.00000000000E+00 0. -1.
         11    1    3    3    0    0  0.82614769707E+01  0.36377017891E+01 -0.59700240369E+01  0.10822479536E+02  0.51100000000E-03 0. -1.
        -11    1    3    3    0    0  0.12279622850E+02 -0.13352202761E+02  0.38324599560E+01  0.18540717501E+02  0.51100000000E-03 0.  1.
         12    1    3    3    0    0  0.86117349797E+01 -0.18350976965E+02  0.60881028009E+01  0.21165663955E+02  0.00000000000E+00 0. -1.
</event>
<event>
 7    1  0.2966651E-011  0.5052885E+02  0.7816164E-02  0.1300439E+00
        -11   -1    0    0    0    0  0.00000000000E+00  0.00000000000E+00  0.45593999997E+02  0.45594000000E+02  0.51100000000E-03 0.  1.
         11   -1    0    0    0    0 -0.00000000000E+00 -0.00000000000E+00 -0.45593999997E+02  0.45594000000E+02  0.51100000000E-03 0. -1.
    9900012    2    1    2    0    0 -0.38844160969E+02 -0.11186986386E+02 -0.43759884256E+01  0.50528846289E+02  0.29999958779E+02 0.  0.
         12    1    1    2    0    0  0.38844160969E+02  0.11186986386E+02  0.43759884256E+01  0.40659153711E+02  0.00000000000E+00 0. -1.
         11    1    3    3    0    0 -0.21221538686E+02 -0.16129800689E+02  0.77536898348E+01  0.27760473353E+02  0.51100000000E-03 0. -1.
        -11    1    3    3    0    0 -0.12646384753E+02  0.25343453809E+01 -0.52073885490E+01  0.13909379914E+02  0.51100000000E-03 0.  1.
         12    1    3    3    0    0 -0.49762375303E+01  0.24084689222E+01 -0.69222897114E+01  0.88589930215E+01  0.00000000000E+00 0. -1.
</event>
<event>
 7    1  0.2966651E-011  0.5052889E+02  0.7816164E-02  0.1300439E+00
        -11   -1    0    0    0    0  0.00000000000E+00  0.00000000000E+00  0.45593999997E+02  0.45594000000E+02  0.51100000000E-03 0.  1.
         11   -1    0    0    0    0 -0.00000000000E+00 -0.00000000000E+00 -0.45593999997E+02  0.45594000000E+02  0.51100000000E-03 0. -1.
    9900012    2    1    2    0    0  0.88240939339E+01 -0.38974498055E+02  0.75024695885E+01  0.50528890537E+02  0.30000093278E+02 0.  0.
         12    1    1    2    0    0 -0.88240939339E+01  0.38974498055E+02 -0.75024695885E+01  0.40659109463E+02  0.00000000000E+00 0. -1.
         11    1    3    3    0    0  0.43079121196E+01  0.42737078260E+00  0.42839831796E+01  0.60904240214E+01  0.51100000000E-03 0. -1.
        -11    1    3    3    0    0  0.16217232391E+01 -0.40640245704E+02  0.11835452027E+01  0.40689806299E+02  0.51100000000E-03 0.  1.
        -12    1    3    3    0    0  0.28944585752E+01  0.12383768671E+01  0.20349412062E+01  0.37486602168E+01  0.00000000000E+00 0.  1.
</event>
<event>
 7    1  0.2966651E-011  0.5052886E+02  0.7816164E-02  0.1300439E+00
        -11   -1    0    0    0    0  0.00000000000E+00  0.00000000000E+00  0.45593999997E+02  0.45594000000E+02  0.51100000000E-03 0. -1.
         11   -1    0    0    0    0 -0.00000000000E+00 -0.00000000000E+00 -0.45593999997E+02  0.45594000000E+02  0.51100000000E-03 0.  1.
    9900012    2    1    2    0    0 -0.32459927980E+02  0.22730299076E+02 -0.91023277900E+01  0.50528858448E+02  0.29999995740E+02 0.  0.
         12    1    1    2    0    0  0.32459927980E+02 -0.22730299076E+02  0.91023277900E+01  0.40659141552E+02  0.00000000000E+00 0. -1.
         11    1    3    3    0    0 -0.13690078582E+02  0.18525191342E+02 -0.48252094794E+01  0.23534732049E+02  0.51100000000E-03 0. -1.
        -11    1    3    3    0    0 -0.17802652873E+02 -0.22497730826E+01  0.18532170881E+01  0.18039687971E+02  0.51100000000E-03 0.  1.
        -12    1    3    3    0    0 -0.96719652468E+00  0.64548808160E+01 -0.61303353988E+01  0.89544384284E+01  0.00000000000E+00 0.  1.
</event>
<event>
 7    1  0.2966651E-011  0.5052886E+02  0.7816164E-02  0.1300439E+00
        -11   -1    0    0    0    0  0.00000000000E+00  0.00000000000E+00  0.45593999997E+02  0.45594000000E+02  0.51100000000E-03 0.  1.
         11   -1    0    0    0    0 -0.00000000000E+00 -0.00000000000E+00 -0.45593999997E+02  0.45594000000E+02  0.51100000000E-03 0. -1.
    9900012    2    1    2    0    0 -0.14651446726E+02  0.34664742344E+02 -0.15390146831E+02  0.50528857456E+02  0.29999992723E+02 0.  0.
         12    1    1    2    0    0  0.14651446726E+02 -0.34664742344E+02  0.15390146831E+02  0.40659142544E+02  0.00000000000E+00 0. -1.
         11    1    3    3    0    0  0.54286839022E+01  0.18568956389E+02 -0.11522083956E+02  0.22517441445E+02  0.51100000000E-03 0. -1.
        -11    1    3    3    0    0 -0.17820858465E+02  0.11200985006E+02 -0.64764874563E+01  0.22022487406E+02  0.51100000000E-03 0.  1.
        -12    1    3    3    0    0 -0.22592721630E+01  0.48948009493E+01  0.26084245810E+01  0.59889286049E+01  0.00000000000E+00 0.  1.
</event>
<event>
 7    1  0.2966651E-011  0.5052885E+02  0.7816164E-02  0.1300439E+00
        -11   -1    0    0    0    0  0.00000000000E+00  0.00000000000E+00  0.45593999997E+02  0.45594000000E+02  0.51100000000E-03 0. -1.
         11   -1    0    0    0    0 -0.00000000000E+00 -0.00000000000E+00 -0.45593999997E+02  0.45594000000E+02  0.51100000000E-03 0.  1.
    9900012    2    1    2    0    0  0.29210982677E+02 -0.21641737999E+02 -0.18207695251E+02  0.50528849752E+02  0.29999969305E+02 0.  0.
         12    1    1    2    0    0 -0.29210982677E+02  0.21641737999E+02  0.18207695251E+02  0.40659150248E+02  0.00000000000E+00 0. -1.
         11    1    3    3    0    0 -0.10367026693E+01 -0.93510122091E+01 -0.61742787629E+01  0.11253350624E+02  0.51100000000E-03 0. -1.
        -11    1    3    3    0    0  0.27343544714E+02 -0.71140944315E+01 -0.29264862792E+01  0.28405001308E+02  0.51100000000E-03 0.  1.
        -12    1    3    3    0    0  0.29041406330E+01 -0.51766313580E+01 -0.91069302088E+01  0.10870497820E+02  0.00000000000E+00 0.  1.
</event>
<event>
 7    1  0.2966651E-011  0.5052886E+02  0.7816164E-02  0.1300439E+00
        -11   -1    0    0    0    0  0.00000000000E+00  0.00000000000E+00  0.45593999997E+02  0.45594000000E+02  0.51100000000E-03 0.  1.
         11   -1    0    0    0    0 -0.00000000000E+00 -0.00000000000E+00 -0.45593999997E+02  0.45594000000E+02  0.51100000000E-03 0. -1.
    9900012    2    1    2    0    0 -0.96849612817E+01 -0.86150849238E+01  0.38537607706E+02  0.50528863623E+02  0.30000011467E+02 0.  0.
         12    1    1    2    0    0  0.96849612817E+01  0.86150849238E+01 -0.38537607706E+02  0.40659136377E+02  0.00000000000E+00 0. -1.
         11    1    3    3    0    0 -0.23230078945E+01  0.39369499682E+01  0.14662600105E+02  0.15358638704E+02  0.51100000000E-03 0. -1.
        -11    1    3    3    0    0 -0.12752268620E+02 -0.15163335133E+02  0.17699841420E+02  0.26567489039E+02  0.51100000000E-03 0.  1.
        -12    1    3    3    0    0  0.53903152327E+01  0.26113002407E+01  0.61751661811E+01  0.86027358799E+01  0.00000000000E+00 0.  1.
</event>
<event>
 7    1  0.2966651E-011  0.5052886E+02  0.7816164E-02  0.1300439E+00
        -11   -1    0    0    0    0  0.00000000000E+00  0.00000000000E+00  0.45593999997E+02  0.45594000000E+02  0.51100000000E-03 0. -1.
         11   -1    0    0    0    0 -0.00000000000E+00 -0.00000000000E+00 -0.45593999997E+02  0.45594000000E+02  0.51100000000E-03 0.  1.
    9900012    2    1    2    0    0  0.15163003231E+02 -0.15916432913E+01 -0.37692385645E+02  0.50528856736E+02  0.29999990536E+02 0.  0.
         12    1    1    2    0    0 -0.15163003231E+02  0.15916432913E+01  0.37692385645E+02  0.40659143264E+02  0.00000000000E+00 0. -1.
         11    1    3    3    0    0  0.17403715329E+02 -0.87196695478E+01 -0.19152597161E+02  0.27308312334E+02  0.51100000000E-03 0. -1.
        -11    1    3    3    0    0 -0.14521547723E+01  0.10458315684E+02 -0.14021987083E+02  0.17552812950E+02  0.51100000000E-03 0.  1.
        -12    1    3    3    0    0 -0.78855732608E+00 -0.33302894270E+01 -0.45178014002E+01  0.56677314524E+01  0.00000000000E+00 0.  1.
</event>
<event>
 7    1  0.2966651E-011  0.5052885E+02  0.7816164E-02  0.1300439E+00
        -11   -1    0    0    0    0  0.00000000000E+00  0.00000000000E+00  0.45593999997E+02  0.45594000000E+02  0.51100000000E-03 0.  1.
         11   -1    0    0    0    0 -0.00000000000E+00 -0.00000000000E+00 -0.45593999997E+02  0.45594000000E+02  0.51100000000E-03 0. -1.
    9900012    2    1    2    0    0 -0.16759441334E+02 -0.36483993869E+02 -0.64191510439E+01  0.50528853641E+02  0.29999981128E+02 0.  0.
         12    1    1    2    0    0  0.16759441334E+02  0.36483993869E+02  0.64191510439E+01  0.40659146359E+02  0.00000000000E+00 0. -1.
         11    1    3    3    0    0 -0.33863974873E+01 -0.32271273480E+02  0.12100380813E+01  0.32471017422E+02  0.51100000000E-03 0. -1.
        -11    1    3    3    0    0 -0.91942893848E+01 -0.36274502950E+01 -0.65391982237E+00  0.99056026737E+01  0.51100000000E-03 0.  1.
         12    1    3    3    0    0 -0.41787544622E+01 -0.58527009427E+00 -0.69752693029E+01  0.81522335458E+01  0.00000000000E+00 0. -1.
</event>
<event>
 7    1  0.2966651E-011  0.5052886E+02  0.7816164E-02  0.1300439E+00
        -11   -1    0    0    0    0  0.00000000000E+00  0.00000000000E+00  0.45593999997E+02  0.45594000000E+02  0.51100000000E-03 0. -1.
         11   -1    0    0    0    0 -0.00000000000E+00 -0.00000000000E+00 -0.45593999997E+02  0.45594000000E+02  0.51100000000E-03 0.  1.
    9900012    2    1    2    0    0  0.23896060734E+02 -0.29536577398E+02 -0.14482209239E+02  0.50528861944E+02  0.30000006366E+02 0.  0.
         12    1    1    2    0    0 -0.23896060734E+02  0.29536577398E+02  0.14482209239E+02  0.40659138056E+02  0.00000000000E+00 0. -1.
         11    1    3    3    0    0  0.35389421644E+01  0.21837848255E+01 -0.33683472397E+00  0.41721080642E+01  0.51100000000E-03 0. -1.
        -11    1    3    3    0    0  0.97322076642E+01 -0.28594437584E+02 -0.25354445985E+01  0.30311486376E+02  0.51100000000E-03 0.  1.
        -12    1    3    3    0    0  0.10624910905E+02 -0.31259246391E+01 -0.11609929917E+02  0.16045267504E+02  0.00000000000E+00 0.  1.
</event>
<event>
 7    1  0.2966651E-011  0.5052886E+02  0.7816164E-02  0.1300439E+00
        -11   -1    0    0    0    0  0.00000000000E+00  0.00000000000E+00  0.45593999997E+02  0.45594000000E+02  0.51100000000E-03 0.  1.
         11   -1    0    0    0    0 -0.00000000000E+00 -0.00000000000E+00 -0.45593999997E+02  0.45594000000E+02  0.51100000000E-03 0. -1.
    9900012    2    1    2    0    0 -0.34180811894E+02 -0.21770239909E+02 -0.33006400802E+01  0.50528862376E+02  0.30000007677E+02 0.  0.
         12    1    1    2    0    0  0.34180811894E+02  0.21770239909E+02  0.33006400802E+01  0.40659137624E+02  0.00000000000E+00 0. -1.
         11    1    3    3    0    0  0.28580485455E+01 -0.60809523948E+01  0.10263155213E+01  0.67970396002E+01  0.51100000000E-03 0. -1.
        -11    1    3    3    0    0 -0.30512061996E+02 -0.49165778372E+01 -0.25365026768E+01  0.31009555156E+02  0.51100000000E-03 0.  1.
         12    1    3    3    0    0 -0.65267984431E+01 -0.10772709677E+02 -0.17904529247E+01  0.12722267619E+02  0.00000000000E+00 0. -1.
</event>
<event>
 7    1  0.3128159E-011  0.5052887E+02  0.7816164E-02  0.1300439E+00
        -11   -1    0    0    0    0  0.00000000000E+00  0.00000000000E+00  0.45593999997E+02  0.45594000000E+02  0.51100000000E-03 0.  1.
         11   -1    0    0    0    0 -0.00000000000E+00 -0.00000000000E+00 -0.45593999997E+02  0.45594000000E+02  0.51100000000E-03 0. -1.
    9900012    2    1    2    0    0  0.36852254489E+02  0.16208651870E+02 -0.56882408913E+01  0.50528866453E+02  0.30000020069E+02 0.  0.
         12    1    1    2    0    0 -0.36852254489E+02 -0.16208651870E+02  0.56882408913E+01  0.40659133547E+02  0.00000000000E+00 0. -1.
         11    1    3    3    0    0 -0.81033516678E+00  0.11524185225E+01  0.27423295196E+01  0.30830314609E+01  0.51100000000E-03 0. -1.
        -11    1    3    3    0    0  0.16693893377E+02  0.12852438942E+02 -0.14416315017E+02  0.25528442995E+02  0.51100000000E-03 0.  1.
        -12    1    3    3    0    0  0.20968696279E+02  0.22037944056E+01  0.59857446061E+01  0.21917391997E+02  0.00000000000E+00 0.  1.
</event>
<event>
 7    1  0.2966651E-011  0.5052890E+02  0.7816164E-02  0.1300439E+00
        -11   -1    0    0    0    0  0.00000000000E+00  0.00000000000E+00  0.45593999997E+02  0.45594000000E+02  0.51100000000E-03 0.  1.
         11   -1    0    0    0    0 -0.00000000000E+00 -0.00000000000E+00 -0.45593999997E+02  0.45594000000E+02  0.51100000000E-03 0. -1.
    9900012    2    1    2    0    0 -0.18586715107E+02 -0.13912069076E+02  0.33378899900E+02  0.50528897662E+02  0.30000114933E+02 0.  0.
         12    1    1    2    0    0  0.18586715107E+02  0.13912069076E+02 -0.33378899900E+02  0.40659102338E+02  0.00000000000E+00 0. -1.
         11    1    3    3    0    0 -0.19551380680E+02 -0.61868474037E+01  0.30141022747E+02  0.36455655526E+02  0.51100000000E-03 0.  1.
        -11    1    3    3    0    0  0.40493299959E+01 -0.88630615421E+00 -0.23072233189E+01  0.47440374913E+01  0.51100000000E-03 0. -1.
        -12    1    3    3    0    0 -0.30846644223E+01 -0.68389155183E+01  0.55451004710E+01  0.93292046445E+01  0.00000000000E+00 0.  1.
</event>
<event>
 7    1  0.2966651E-011  0.5052886E+02  0.7816164E-02  0.1300439E+00
        -11   -1    0    0    0    0  0.00000000000E+00  0.00000000000E+00  0.45593999997E+02  0.45594000000E+02  0.51100000000E-03 0.  1.
         11   -1    0    0    0    0 -0.00000000000E+00 -0.00000000000E+00 -0.45593999997E+02  0.45594000000E+02  0.51100000000E-03 0. -1.
    9900012    2    1    2    0    0 -0.70046475278E+01 -0.26784779926E+02  0.29777101172E+02  0.50528864780E+02  0.30000014984E+02 0.  0.
         12    1    1    2    0    0  0.70046475278E+01  0.26784779926E+02 -0.29777101172E+02  0.40659135220E+02  0.00000000000E+00 0. -1.
         11    1    3    3    0    0  0.56193568671E+01 -0.18935139626E+01 -0.36572497503E+01  0.69669249115E+01  0.51100000000E-03 0. -1.
        -11    1    3    3    0    0 -0.11105627185E+02 -0.22322395134E+02  0.29526104817E+02  0.38644729856E+02  0.51100000000E-03 0.  1.
         12    1    3    3    0    0 -0.15183772095E+01 -0.25688708294E+01  0.39082461051E+01  0.49172100125E+01  0.00000000000E+00 0. -1.
</event>
<event>
 7    1  0.2966651E-011  0.5052886E+02  0.7816164E-02  0.1300439E+00
        -11   -1    0    0    0    0  0.00000000000E+00  0.00000000000E+00  0.45593999997E+02  0.45594000000E+02  0.51100000000E-03 0.  1.
         11   -1    0    0    0    0 -0.00000000000E+00 -0.00000000000E+00 -0.45593999997E+02  0.45594000000E+02  0.51100000000E-03 0. -1.
    9900012    2    1    2    0    0 -0.18742191435E+02  0.32001113518E+02  0.16668075019E+02  0.50528859194E+02  0.29999998007E+02 0.  0.
         12    1    1    2    0    0  0.18742191435E+02 -0.32001113518E+02 -0.16668075019E+02  0.40659140806E+02  0.00000000000E+00 0. -1.
         11    1    3    3    0    0 -0.13058021987E+02  0.28883330061E+02  0.20511047269E+01  0.31764220822E+02  0.51100000000E-03 0. -1.
        -11    1    3    3    0    0 -0.77713026936E+01  0.21422716184E+00  0.75122288744E+01  0.10810764161E+02  0.51100000000E-03 0.  1.
         12    1    3    3    0    0  0.20871332448E+01  0.29035562961E+01  0.71047414175E+01  0.79538742105E+01  0.00000000000E+00 0. -1.
</event>
<event>
 7    1  0.2966651E-011  0.5052885E+02  0.7816164E-02  0.1300439E+00
        -11   -1    0    0    0    0  0.00000000000E+00  0.00000000000E+00  0.45593999997E+02  0.45594000000E+02  0.51100000000E-03 0.  1.
         11   -1    0    0    0    0 -0.00000000000E+00 -0.00000000000E+00 -0.45593999997E+02  0.45594000000E+02  0.51100000000E-03 0. -1.
    9900012    2    1    2    0    0 -0.30599087356E+02 -0.24781302059E+02  0.10136534805E+02  0.50528850764E+02  0.29999972381E+02 0.  0.
         12    1    1    2    0    0  0.30599087356E+02  0.24781302059E+02 -0.10136534805E+02  0.40659149236E+02  0.00000000000E+00 0. -1.
         11    1    3    3    0    0 -0.10056322961E+02 -0.21021057323E+02  0.45148926294E+00  0.23307044543E+02  0.51100000000E-03 0. -1.
        -11    1    3    3    0    0 -0.43487990689E+01  0.46527379515E+01  0.56909942418E+01  0.85409273213E+01  0.51100000000E-03 0.  1.
        -12    1    3    3    0    0 -0.16193965326E+02 -0.84129826867E+01  0.39940513007E+01  0.18680878900E+02  0.00000000000E+00 0.  1.
</event>
<event>
 7    1  0.2966651E-011  0.5052887E+02  0.7816164E-02  0.1300439E+00
        -11   -1    0    0    0    0  0.00000000000E+00  0.00000000000E+00  0.45593999997E+02  0.45594000000E+02  0.51100000000E-03 0.  1.
         11   -1    0    0    0    0 -0.00000000000E+00 -0.00000000000E+00 -0.45593999997E+02  0.45594000000E+02  0.51100000000E-03 0. -1.
    9900012    2    1    2    0    0 -0.34290689695E+02  0.19205651266E+02  0.10414240437E+02  0.50528870100E+02  0.30000031156E+02 0.  0.
         12    1    1    2    0    0  0.34290689695E+02 -0.19205651266E+02 -0.10414240437E+02  0.40659129900E+02  0.00000000000E+00 0. -1.
         11    1    3    3    0    0  0.14817809324E+01 -0.42926457427E+01  0.18479764976E+01  0.49028052788E+01  0.51100000000E-03 0. -1.
        -11    1    3    3    0    0 -0.27946139745E+02  0.11988494201E+02  0.27231782819E+01  0.30530745488E+02  0.51100000000E-03 0.  1.
         12    1    3    3    0    0 -0.78263308828E+01  0.11509802808E+02  0.58430856571E+01  0.15095319333E+02  0.00000000000E+00 0. -1.
</event>
<event>
 7    1  0.2966651E-011  0.5052886E+02  0.7816164E-02  0.1300439E+00
        -11   -1    0    0    0    0  0.00000000000E+00  0.00000000000E+00  0.45593999997E+02  0.45594000000E+02  0.51100000000E-03 0. -1.
         11   -1    0    0    0    0 -0.00000000000E+00 -0.00000000000E+00 -0.45593999997E+02  0.45594000000E+02  0.51100000000E-03 0.  1.
    9900012    2    1    2    0    0  0.14259144927E+02 -0.85038343911E+01 -0.37115050895E+02  0.50528863065E+02  0.30000009771E+02 0.  0.
         12    1    1    2    0    0 -0.14259144927E+02  0.85038343911E+01  0.37115050895E+02  0.40659136935E+02  0.00000000000E+00 0. -1.
         11    1    3    3    0    0  0.19972993908E+01 -0.15102721217E+02 -0.20873713308E+02  0.25841696936E+02  0.51100000000E-03 0. -1.
        -11    1    3    3    0    0  0.10033122425E+02  0.83476312494E+01 -0.17292869429E+02  0.21665406214E+02  0.51100000000E-03 0.  1.
        -12    1    3    3    0    0  0.22287231117E+01 -0.17487444237E+01  0.10515318418E+01  0.30217599148E+01  0.00000000000E+00 0.  1.
</event>
<event>
 7    1  0.2966651E-011  0.5052886E+02  0.7816164E-02  0.1300439E+00
        -11   -1    0    0    0    0  0.00000000000E+00  0.00000000000E+00  0.45593999997E+02  0.45594000000E+02  0.51100000000E-03 0.  1.
         11   -1    0    0    0    0 -0.00000000000E+00 -0.00000000000E+00 -0.45593999997E+02  0.45594000000E+02  0.51100000000E-03 0. -1.
    9900012    2    1    2    0    0  0.33518414615E+02 -0.17440127256E+02  0.15017443388E+02  0.50528858803E+02  0.29999996816E+02 0.  0.
         12    1    1    2    0    0 -0.33518414615E+02  0.17440127256E+02 -0.15017443388E+02  0.40659141197E+02  0.00000000000E+00 0. -1.
         11    1    3    3    0    0  0.19162697479E+02  0.20689392391E+01 -0.13255329262E+00  0.19274518278E+02  0.51100000000E-03 0. -1.
        -11    1    3    3    0    0  0.14156381266E+02 -0.16125795913E+02  0.17015583668E+02  0.27385662530E+02  0.51100000000E-03 0.  1.
         12    1    3    3    0    0  0.19933587083E+00 -0.33832705816E+01 -0.18655869874E+01  0.38686779945E+01  0.00000000000E+00 0. -1.
</event>
<event>
 7    1  0.2966651E-011  0.5052886E+02  0.7816164E-02  0.1300439E+00
        -11   -1    0    0    0    0  0.00000000000E+00  0.00000000000E+00  0.45593999997E+02  0.45594000000E+02  0.51100000000E-03 0.  1.
         11   -1    0    0    0    0 -0.00000000000E+00 -0.00000000000E+00 -0.45593999997E+02  0.45594000000E+02  0.51100000000E-03 0. -1.
    9900012    2    1    2    0    0 -0.21744103410E+02 -0.28434101446E+02  0.19283716450E+02  0.50528857384E+02  0.29999992505E+02 0.  0.
         12    1    1    2    0    0  0.21744103410E+02  0.28434101446E+02 -0.19283716450E+02  0.40659142616E+02  0.00000000000E+00 0. -1.
         11    1    3    3    0    0  0.59975511128E+01 -0.60046750008E+01 -0.11872856663E+01  0.85695034122E+01  0.51100000000E-03 0. -1.
        -11    1    3    3    0    0 -0.19222889882E+02 -0.10322220366E+02  0.11890597933E+02  0.24848622661E+02  0.51100000000E-03 0.  1.
         12    1    3    3    0    0 -0.85187646413E+01 -0.12107206079E+02  0.85804041828E+01  0.17110731311E+02  0.00000000000E+00 0. -1.
</event>
<event>
 7    1  0.2966651E-011  0.5052885E+02  0.7816164E-02  0.1300439E+00
        -11   -1    0    0    0    0  0.00000000000E+00  0.00000000000E+00  0.45593999997E+02  0.45594000000E+02  0.51100000000E-03 0. -1.
         11   -1    0    0    0    0 -0.00000000000E+00 -0.00000000000E+00 -0.45593999997E+02  0.45594000000E+02  0.51100000000E-03 0.  1.
    9900012    2    1    2    0    0  0.40298197440E+00 -0.40149169219E+02 -0.64068649099E+01  0.50528854640E+02  0.29999984163E+02 0.  0.
         12    1    1    2    0    0 -0.40298197440E+00  0.40149169219E+02  0.64068649099E+01  0.40659145360E+02  0.00000000000E+00 0. -1.
         11    1    3    3    0    0  0.88213380727E+00 -0.68154772935E+01  0.50217315850E+01  0.85115614998E+01  0.51100000000E-03 0. -1.
        -11    1    3    3    0    0  0.57943102204E+01 -0.31833130089E+02 -0.13757241865E+02  0.35159407080E+02  0.51100000000E-03 0.  1.
        -12    1    3    3    0    0 -0.62734620532E+01 -0.15005618362E+01  0.23286453697E+01  0.68578860602E+01  0.00000000000E+00 0.  1.
</event>
<event>
 7    1  0.2966651E-011  0.5052886E+02  0.7816164E-02  0.1300439E+00
        -11   -1    0    0    0    0  0.00000000000E+00  0.00000000000E+00  0.45593999997E+02  0.45594000000E+02  0.51100000000E-03 0.  1.
         11   -1    0    0    0    0 -0.00000000000E+00 -0.00000000000E+00 -0.45593999997E+02  0.45594000000E+02  0.51100000000E-03 0. -1.
    9900012    2    1    2    0    0  0.13773272469E+02  0.37814026382E+02  0.57932985613E+01  0.50528856700E+02  0.29999990424E+02 0.  0.
         12    1    1    2    0    0 -0.13773272469E+02 -0.37814026382E+02 -0.57932985613E+01  0.40659143300E+02  0.00000000000E+00 0. -1.
         11    1    3    3    0    0  0.24927450734E+01 -0.20525672823E+01 -0.56515752764E+01  0.65090025208E+01  0.51100000000E-03 0. -1.
        -11    1    3    3    0    0  0.11098383107E+02  0.29041588025E+02  0.52015096871E+01  0.31522113601E+02  0.51100000000E-03 0.  1.
         12    1    3    3    0    0  0.18214428833E+00  0.10825005639E+02  0.62433641506E+01  0.12497740578E+02  0.00000000000E+00 0. -1.
</event>
<event>
 7    1  0.2966651E-011  0.5052886E+02  0.7816164E-02  0.1300439E+00
        -11   -1    0    0    0    0  0.00000000000E+00  0.00000000000E+00  0.45593999997E+02  0.45594000000E+02  0.51100000000E-03 0.  1.
         11   -1    0    0    0    0 -0.00000000000E+00 -0.00000000000E+00 -0.45593999997E+02  0.45594000000E+02  0.51100000000E-03 0. -1.
    9900012    2    1    2    0    0  0.40050444610E+02 -0.43136479908E+00  0.69958191075E+01  0.50528859895E+02  0.30000000138E+02 0.  0.
         12    1    1    2    0    0 -0.40050444610E+02  0.43136479908E+00 -0.69958191075E+01  0.40659140105E+02  0.00000000000E+00 0. -1.
         11    1    3    3    0    0  0.28431560568E+02 -0.60524374598E+01 -0.49182451917E+01  0.29481770156E+02  0.51100000000E-03 0. -1.
        -11    1    3    3    0    0  0.11234174064E+02  0.20647041267E+01  0.13003435678E+02  0.17307773101E+02  0.51100000000E-03 0.  1.
        -12    1    3    3    0    0  0.38470997890E+00  0.35563685341E+01 -0.10893713790E+01  0.37393166380E+01  0.00000000000E+00 0.  1.
</event>
<event>
 7    1  0.2966651E-011  0.5052886E+02  0.7816164E-02  0.1300439E+00
        -11   -1    0    0    0    0  0.00000000000E+00  0.00000000000E+00  0.45593999997E+02  0.45594000000E+02  0.51100000000E-03 0.  1.
         11   -1    0    0    0    0 -0.00000000000E+00 -0.00000000000E+00 -0.45593999997E+02  0.45594000000E+02  0.51100000000E-03 0. -1.
    9900012    2    1    2    0    0 -0.15133384462E+02 -0.26037798938E+02  0.27316286459E+02  0.50528858289E+02  0.29999995254E+02 0.  0.
         12    1    1    2    0    0  0.15133384462E+02  0.26037798938E+02 -0.27316286459E+02  0.40659141711E+02  0.00000000000E+00 0. -1.
         11    1    3    3    0    0 -0.39983343828E+01  0.34849832561E+01  0.50109443124E+01  0.72966669990E+01  0.51100000000E-03 0. -1.
        -11    1    3    3    0    0 -0.15964242617E+02 -0.23772087111E+02  0.13494855981E+02  0.31655652041E+02  0.51100000000E-03 0.  1.
        -12    1    3    3    0    0  0.48291925377E+01 -0.57506950833E+01  0.88104861651E+01  0.11576539249E+02  0.00000000000E+00 0.  1.
</event>
<event>
 7    1  0.2966651E-011  0.5052886E+02  0.7816164E-02  0.1300439E+00
        -11   -1    0    0    0    0  0.00000000000E+00  0.00000000000E+00  0.45593999997E+02  0.45594000000E+02  0.51100000000E-03 0.  1.
         11   -1    0    0    0    0 -0.00000000000E+00 -0.00000000000E+00 -0.45593999997E+02  0.45594000000E+02  0.51100000000E-03 0. -1.
    9900012    2    1    2    0    0  0.72525880335E+01 -0.53551733910E+01  0.39647040713E+02  0.50528858931E+02  0.29999997206E+02 0.  0.
         12    1    1    2    0    0 -0.72525880335E+01  0.53551733910E+01 -0.39647040713E+02  0.40659141069E+02  0.00000000000E+00 0. -1.
         11    1    3    3    0    0  0.62738806799E+01 -0.75806207151E+01  0.42544129507E+02  0.43667268577E+02  0.51100000000E-03 0.  1.
        -11    1    3    3    0    0  0.88077906113E-01 -0.40507903435E+00  0.15577544599E+01  0.16119695903E+01  0.51100000000E-03 0. -1.
         12    1    3    3    0    0  0.89062944744E+00  0.26305263585E+01 -0.44548432544E+01  0.52496207631E+01  0.00000000000E+00 0. -1.
</event>
<event>
 7    1  0.2966651E-011  0.5052886E+02  0.7816164E-02  0.1300439E+00
        -11   -1    0    0    0    0  0.00000000000E+00  0.00000000000E+00  0.45593999997E+02  0.45594000000E+02  0.51100000000E-03 0. -1.
         11   -1    0    0    0    0 -0.00000000000E+00 -0.00000000000E+00 -0.45593999997E+02  0.45594000000E+02  0.51100000000E-03 0.  1.
    9900012    2    1    2    0    0  0.20740592090E+02  0.34554220072E+02 -0.53851404587E+01  0.50528855607E+02  0.29999987102E+02 0.  0.
         12    1    1    2    0    0 -0.20740592090E+02 -0.34554220072E+02  0.53851404587E+01  0.40659144393E+02  0.00000000000E+00 0. -1.
         11    1    3    3    0    0 -0.64682782830E+01  0.12929912047E+02  0.40034106225E+00  0.14463109027E+02  0.51100000000E-03 0. -1.
        -11    1    3    3    0    0  0.19344682959E+02  0.14776683718E+02 -0.75569578288E+01  0.25488718139E+02  0.51100000000E-03 0.  1.
         12    1    3    3    0    0  0.78641874140E+01  0.68476243064E+01  0.17714763079E+01  0.10577028441E+02  0.00000000000E+00 0. -1.
</event>
<event>
 7    1  0.2966651E-011  0.5052886E+02  0.7816164E-02  0.1300439E+00
        -11   -1    0    0    0    0  0.00000000000E+00  0.00000000000E+00  0.45593999997E+02  0.45594000000E+02  0.51100000000E-03 0.  1.
         11   -1    0    0    0    0 -0.00000000000E+00 -0.00000000000E+00 -0.45593999997E+02  0.45594000000E+02  0.51100000000E-03 0. -1.
    9900012    2    1    2    0    0 -0.24746152093E+02  0.53539715565E+01  0.31813969414E+02  0.50528859518E+02  0.29999998991E+02 0.  0.
         12    1    1    2    0    0  0.24746152093E+02 -0.53539715565E+01 -0.31813969414E+02  0.40659140482E+02  0.00000000000E+00 0. -1.
         11    1    3    3    0    0 -0.58011348150E+01  0.98609233225E+01  0.66270111037E+01  0.13221507113E+02  0.51100000000E-03 0. -1.
        -11    1    3    3    0    0 -0.14262433280E+02 -0.10436984039E+02  0.99056261458E+01  0.20260036241E+02  0.51100000000E-03 0.  1.
        -12    1    3    3    0    0 -0.46825839984E+01  0.59300322732E+01  0.15281332165E+02  0.17047316164E+02  0.00000000000E+00 0.  1.
</event>
<event>
 7    1  0.2966651E-011  0.5052885E+02  0.7816164E-02  0.1300439E+00
        -11   -1    0    0    0    0  0.00000000000E+00  0.00000000000E+00  0.45593999997E+02  0.45594000000E+02  0.51100000000E-03 0.  1.
         11   -1    0    0    0    0 -0.00000000000E+00 -0.00000000000E+00 -0.45593999997E+02  0.45594000000E+02  0.51100000000E-03 0. -1.
    9900012    2    1    2    0    0  0.10442133805E+02  0.12241823573E+02  0.37339869386E+02  0.50528852831E+02  0.29999978664E+02 0.  0.
         12    1    1    2    0    0 -0.10442133805E+02 -0.12241823573E+02 -0.37339869386E+02  0.40659147169E+02  0.00000000000E+00 0. -1.
         11    1    3    3    0    0 -0.49062921938E+01  0.94471923471E+01  0.33520112333E+01  0.11160516382E+02  0.51100000000E-03 0. -1.
        -11    1    3    3    0    0  0.43237220380E+01 -0.40720495875E+01  0.56578352475E+01  0.82028812044E+01  0.51100000000E-03 0.  1.
         12    1    3    3    0    0  0.11024703960E+02  0.68666808137E+01  0.28330022905E+02  0.31165455245E+02  0.00000000000E+00 0. -1.
</event>
<event>
 7    1  0.2966651E-011  0.5052890E+02  0.7816164E-02  0.1300439E+00
        -11   -1    0    0    0    0  0.00000000000E+00  0.00000000000E+00  0.45593999997E+02  0.45594000000E+02  0.51100000000E-03 0. -1.
         11   -1    0    0    0    0 -0.00000000000E+00 -0.00000000000E+00 -0.45593999997E+02  0.45594000000E+02  0.51100000000E-03 0.  1.
    9900012    2    1    2    0    0  0.11653669223E+02  0.29908122495E+02 -0.24957127613E+02  0.50528904877E+02  0.30000136864E+02 0.  0.
         12    1    1    2    0    0 -0.11653669223E+02 -0.29908122495E+02  0.24957127613E+02  0.40659095123E+02  0.00000000000E+00 0. -1.
         11    1    3    3    0    0 -0.33824015729E+01  0.39025690115E+01  0.21778627265E-01  0.51644128282E+01  0.51100000000E-03 0. -1.
        -11    1    3    3    0    0  0.15632468335E+02  0.19396146740E+02 -0.65225056259E+01  0.25751265105E+02  0.51100000000E-03 0.  1.
        -12    1    3    3    0    0 -0.59639753944E+00  0.66094067431E+01 -0.18456400614E+02  0.19613226944E+02  0.00000000000E+00 0.  1.
</event>
<event>
 7    1  0.2966651E-011  0.5052890E+02  0.7816164E-02  0.1300439E+00
        -11   -1    0    0    0    0  0.00000000000E+00  0.00000000000E+00  0.45593999997E+02  0.45594000000E+02  0.51100000000E-03 0. -1.
         11   -1    0    0    0    0 -0.00000000000E+00 -0.00000000000E+00 -0.45593999997E+02  0.45594000000E+02  0.51100000000E-03 0.  1.
    9900012    2    1    2    0    0 -0.37842938002E+02 -0.14031207259E+02 -0.49193385732E+01  0.50528897381E+02  0.30000114079E+02 0.  0.
         12    1    1    2    0    0  0.37842938002E+02  0.14031207259E+02  0.49193385732E+01  0.40659102619E+02  0.00000000000E+00 0. -1.
         11    1    3    3    0    0 -0.11521670241E+02 -0.10357050982E+02  0.62301518192E+01  0.16698268836E+02  0.51100000000E-03 0. -1.
        -11    1    3    3    0    0 -0.15831665909E+02 -0.10312562540E+02 -0.99637832335E+01  0.21360420599E+02  0.51100000000E-03 0.  1.
         12    1    3    3    0    0 -0.10489601852E+02  0.66384062632E+01 -0.11857071589E+01  0.12470207945E+02  0.00000000000E+00 0. -1.
</event>
<event>
 7    1  0.2966651E-011  0.5052886E+02  0.7816164E-02  0.1300439E+00
        -11   -1    0    0    0    0  0.00000000000E+00  0.00000000000E+00  0.45593999997E+02  0.45594000000E+02  0.51100000000E-03 0.  1.
         11   -1    0    0    0    0 -0.00000000000E+00 -0.00000000000E+00 -0.45593999997E+02  0.45594000000E+02  0.51100000000E-03 0. -1.
    9900012    2    1    2    0    0  0.28936218904E+02 -0.25510235326E+02  0.12848690895E+02  0.50528859225E+02  0.29999998099E+02 0.  0.
         12    1    1    2    0    0 -0.28936218904E+02  0.25510235326E+02 -0.12848690895E+02  0.40659140775E+02  0.00000000000E+00 0. -1.
         11    1    3    3    0    0  0.10913753374E+01 -0.73667316277E-01  0.64183401735E+01  0.65108845670E+01  0.51100000000E-03 0. -1.
        -11    1    3    3    0    0  0.28361248634E+02 -0.13308170632E+02  0.34476052118E+01  0.31517515949E+02  0.51100000000E-03 0.  1.
        -12    1    3    3    0    0 -0.51640506671E+00 -0.12128397378E+02  0.29827455097E+01  0.12500458709E+02  0.00000000000E+00 0.  1.
</event>
<event>
 7    1  0.2966651E-011  0.5052888E+02  0.7816164E-02  0.1300439E+00
        -11   -1    0    0    0    0  0.00000000000E+00  0.00000000000E+00  0.45593999997E+02  0.45594000000E+02  0.51100000000E-03 0. -1.
         11   -1    0    0    0    0 -0.00000000000E+00 -0.00000000000E+00 -0.45593999997E+02  0.45594000000E+02  0.51100000000E-03 0.  1.
    9900012    2    1    2    0    0  0.33166824183E+02 -0.93947102795E+01 -0.21560725611E+02  0.50528884214E+02  0.30000074057E+02 0.  0.
         12    1    1    2    0    0 -0.33166824183E+02  0.93947102795E+01  0.21560725611E+02  0.40659115786E+02  0.00000000000E+00 0. -1.
         11    1    3    3    0    0  0.26788388490E+01  0.50234820989E+01  0.69658837570E+00  0.57355719509E+01  0.51100000000E-03 0. -1.
        -11    1    3    3    0    0  0.97405574527E+01 -0.14405265794E+02 -0.14505314902E+02  0.22644961973E+02  0.51100000000E-03 0.  1.
         12    1    3    3    0    0  0.20747427881E+02 -0.12926584651E-01 -0.77519990842E+01  0.22148350290E+02  0.00000000000E+00 0. -1.
</event>
<event>
 7    1  0.2966651E-011  0.5052886E+02  0.7816164E-02  0.1300439E+00
        -11   -1    0    0    0    0  0.00000000000E+00  0.00000000000E+00  0.45593999997E+02  0.45594000000E+02  0.51100000000E-03 0. -1.
         11   -1    0    0    0    0 -0.00000000000E+00 -0.00000000000E+00 -0.45593999997E+02  0.45594000000E+02  0.51100000000E-03 0.  1.
    9900012    2    1    2    0    0  0.27774977150E+02 -0.26002379952E+02  0.14338507769E+02  0.50528856823E+02  0.29999990800E+02 0.  0.
         12    1    1    2    0    0 -0.27774977150E+02  0.26002379952E+02 -0.14338507769E+02  0.40659143177E+02  0.00000000000E+00 0. -1.
         11    1    3    3    0    0  0.70411123750E+01  0.30381964678E+01 -0.36447731435E+01  0.84907168592E+01  0.51100000000E-03 0. -1.
        -11    1    3    3    0    0  0.58214901916E+01 -0.13223597669E+02  0.13641022751E+02  0.19870349401E+02  0.51100000000E-03 0.  1.
        -12    1    3    3    0    0  0.14912374583E+02 -0.15816978750E+02  0.43422581618E+01  0.22167790563E+02  0.00000000000E+00 0.  1.
</event>
<event>
 7    1  0.2966651E-011  0.5052887E+02  0.7816164E-02  0.1300439E+00
        -11   -1    0    0    0    0  0.00000000000E+00  0.00000000000E+00  0.45593999997E+02  0.45594000000E+02  0.51100000000E-03 0.  1.
         11   -1    0    0    0    0 -0.00000000000E+00 -0.00000000000E+00 -0.45593999997E+02  0.45594000000E+02  0.51100000000E-03 0. -1.
    9900012    2    1    2    0    0  0.70364111946E+01 -0.39226924510E+02  0.80561761810E+01  0.50528872320E+02  0.30000037904E+02 0.  0.
         12    1    1    2    0    0 -0.70364111946E+01  0.39226924510E+02 -0.80561761810E+01  0.40659127680E+02  0.00000000000E+00 0. -1.
         11    1    3    3    0    0  0.12872497819E+02 -0.23045822100E+02 -0.36362364814E+01  0.26646450652E+02  0.51100000000E-03 0. -1.
        -11    1    3    3    0    0 -0.24371791871E+01 -0.25569104357E+01  0.88868182084E+01  0.95631151565E+01  0.51100000000E-03 0.  1.
         12    1    3    3    0    0 -0.33989074369E+01 -0.13624191974E+02  0.28055944540E+01  0.14319306511E+02  0.00000000000E+00 0. -1.
</event>
<event>
 7    1  0.2966651E-011  0.5052887E+02  0.7816164E-02  0.1300439E+00
        -11   -1    0    0    0    0  0.00000000000E+00  0.00000000000E+00  0.45593999997E+02  0.45594000000E+02  0.51100000000E-03 0.  1.
         11   -1    0    0    0    0 -0.00000000000E+00 -0.00000000000E+00 -0.45593999997E+02  0.45594000000E+02  0.51100000000E-03 0. -1.
    9900012    2    1    2    0    0 -0.36890396875E+02  0.16255963731E+02 -0.52921940210E+01  0.50528867496E+02  0.30000023242E+02 0.  0.
         12    1    1    2    0    0  0.36890396875E+02 -0.16255963731E+02  0.52921940210E+01  0.40659132504E+02  0.00000000000E+00 0. -1.
         11    1    3    3    0    0 -0.17202690619E+02  0.72294810803E+01  0.41119869048E+01  0.19107757529E+02  0.51100000000E-03 0. -1.
        -11    1    3    3    0    0  0.16693411723E+01  0.71473144816E+01 -0.64651270579E+01  0.97810363655E+01  0.51100000000E-03 0.  1.
        -12    1    3    3    0    0 -0.21357047428E+02  0.18791681695E+01 -0.29390538680E+01  0.21640073602E+02  0.00000000000E+00 0.  1.
</event>
<event>
 7    1  0.2966651E-011  0.5052885E+02  0.7816164E-02  0.1300439E+00
        -11   -1    0    0    0    0  0.00000000000E+00  0.00000000000E+00  0.45593999997E+02  0.45594000000E+02  0.51100000000E-03 0.  1.
         11   -1    0    0    0    0 -0.00000000000E+00 -0.00000000000E+00 -0.45593999997E+02  0.45594000000E+02  0.51100000000E-03 0. -1.
    9900012    2    1    2    0    0  0.90223760146E+01 -0.10681263657E+02  0.38179489422E+02  0.50528854968E+02  0.29999985160E+02 0.  0.
         12    1    1    2    0    0 -0.90223760146E+01  0.10681263657E+02 -0.38179489422E+02  0.40659145032E+02  0.00000000000E+00 0. -1.
         11    1    3    3    0    0 -0.20480338855E+01  0.54887201237E+01  0.17870816100E+02  0.18806556296E+02  0.51100000000E-03 0. -1.
        -11    1    3    3    0    0  0.11707393194E+02 -0.13654593264E+02  0.89861677271E+01  0.20106272237E+02  0.51100000000E-03 0.  1.
        -12    1    3    3    0    0 -0.63698329424E+00 -0.25153905172E+01  0.11322505595E+02  0.11616026434E+02  0.00000000000E+00 0.  1.
</event>
<event>
 7    1  0.2966651E-011  0.5052886E+02  0.7816164E-02  0.1300439E+00
        -11   -1    0    0    0    0  0.00000000000E+00  0.00000000000E+00  0.45593999997E+02  0.45594000000E+02  0.51100000000E-03 0.  1.
         11   -1    0    0    0    0 -0.00000000000E+00 -0.00000000000E+00 -0.45593999997E+02  0.45594000000E+02  0.51100000000E-03 0. -1.
    9900012    2    1    2    0    0  0.27332081359E+02 -0.40433507731E+01  0.29829083923E+02  0.50528860750E+02  0.30000002735E+02 0.  0.
         12    1    1    2    0    0 -0.27332081359E+02  0.40433507731E+01 -0.29829083923E+02  0.40659139250E+02  0.00000000000E+00 0. -1.
         11    1    3    3    0    0 -0.31889329435E+01  0.23330512461E+01 -0.16762476008E+01  0.42921122673E+01  0.51100000000E-03 0. -1.
        -11    1    3    3    0    0  0.14295155569E+02 -0.96546177513E+01  0.14983802893E+02  0.22849014553E+02  0.51100000000E-03 0.  1.
        -12    1    3    3    0    0  0.16225858734E+02  0.32782157320E+01  0.16521528631E+02  0.23387733929E+02  0.00000000000E+00 0.  1.
</event>
<event>
 7    1  0.2966651E-011  0.5052886E+02  0.7816164E-02  0.1300439E+00
        -11   -1    0    0    0    0  0.00000000000E+00  0.00000000000E+00  0.45593999997E+02  0.45594000000E+02  0.51100000000E-03 0. -1.
         11   -1    0    0    0    0 -0.00000000000E+00 -0.00000000000E+00 -0.45593999997E+02  0.45594000000E+02  0.51100000000E-03 0.  1.
    9900012    2    1    2    0    0  0.17262548954E+02  0.36655004060E+02  0.34030955117E+01  0.50528856157E+02  0.29999988775E+02 0.  0.
         12    1    1    2    0    0 -0.17262548954E+02 -0.36655004060E+02 -0.34030955117E+01  0.40659143843E+02  0.00000000000E+00 0. -1.
         11    1    3    3    0    0  0.14506469110E+02  0.35546343105E+01  0.48413170842E+01  0.15700682230E+02  0.51100000000E-03 0. -1.
        -11    1    3    3    0    0 -0.32592311653E+01  0.17607385814E+02  0.14268908115E+01  0.17963258074E+02  0.51100000000E-03 0.  1.
        -12    1    3    3    0    0  0.60153110091E+01  0.15492983936E+02 -0.28651123840E+01  0.16864915853E+02  0.00000000000E+00 0.  1.
</event>
<event>
 7    1  0.2966651E-011  0.5052886E+02  0.7816164E-02  0.1300439E+00
        -11   -1    0    0    0    0  0.00000000000E+00  0.00000000000E+00  0.45593999997E+02  0.45594000000E+02  0.51100000000E-03 0.  1.
         11   -1    0    0    0    0 -0.00000000000E+00 -0.00000000000E+00 -0.45593999997E+02  0.45594000000E+02  0.51100000000E-03 0. -1.
    9900012    2    1    2    0    0 -0.20224792997E+02 -0.84134392493E+01  0.34254018161E+02  0.50528856232E+02  0.29999989002E+02 0.  0.
         12    1    1    2    0    0  0.20224792997E+02  0.84134392493E+01 -0.34254018161E+02  0.40659143768E+02  0.00000000000E+00 0. -1.
         11    1    3    3    0    0 -0.61987490244E+01 -0.50844472433E+00 -0.37169918978E+01  0.72456217493E+01  0.51100000000E-03 0. -1.
        -11    1    3    3    0    0  0.33890272729E+00  0.18544498567E+01  0.11302200623E+02  0.11458341002E+02  0.51100000000E-03 0.  1.
         12    1    3    3    0    0 -0.14364946700E+02 -0.97594443817E+01  0.26668809436E+02  0.31824893481E+02  0.00000000000E+00 0. -1.
</event>
<event>
 7    1  0.2966651E-011  0.5052886E+02  0.7816164E-02  0.1300439E+00
        -11   -1    0    0    0    0  0.00000000000E+00  0.00000000000E+00  0.45593999997E+02  0.45594000000E+02  0.51100000000E-03 0.  1.
         11   -1    0    0    0    0 -0.00000000000E+00 -0.00000000000E+00 -0.45593999997E+02  0.45594000000E+02  0.51100000000E-03 0. -1.
    9900012    2    1    2    0    0  0.14862373306E+02  0.27224537461E+02 -0.26288779510E+02  0.50528861933E+02  0.30000006330E+02 0.  0.
         12    1    1    2    0    0 -0.14862373306E+02 -0.27224537461E+02  0.26288779510E+02  0.40659138067E+02  0.00000000000E+00 0. -1.
         11    1    3    3    0    0  0.90921914343E+01  0.77766051652E+01 -0.19422874750E+02  0.22812093214E+02  0.51100000000E-03 0. -1.
        -11    1    3    3    0    0  0.10067255955E+02  0.20108934042E+02 -0.53860597104E+01  0.23124197505E+02  0.51100000000E-03 0.  1.
         12    1    3    3    0    0 -0.42970740836E+01 -0.66100174551E+00 -0.14798450494E+01  0.45925712143E+01  0.00000000000E+00 0. -1.
</event>
<event>
 7    1  0.2966651E-011  0.5052886E+02  0.7816164E-02  0.1300439E+00
        -11   -1    0    0    0    0  0.00000000000E+00  0.00000000000E+00  0.45593999997E+02  0.45594000000E+02  0.51100000000E-03 0.  1.
         11   -1    0    0    0    0 -0.00000000000E+00 -0.00000000000E+00 -0.45593999997E+02  0.45594000000E+02  0.51100000000E-03 0. -1.
    9900012    2    1    2    0    0  0.62391015668E+01 -0.90159385382E+01  0.39152929574E+02  0.50528862893E+02  0.30000009250E+02 0.  0.
         12    1    1    2    0    0 -0.62391015668E+01  0.90159385382E+01 -0.39152929574E+02  0.40659137107E+02  0.00000000000E+00 0. -1.
         11    1    3    3    0    0 -0.73677944684E+01 -0.11010698906E+01  0.29670120802E+00  0.74555202435E+01  0.51100000000E-03 0. -1.
        -11    1    3    3    0    0  0.12576241340E+02 -0.61838414904E+01  0.21915760861E+02  0.26013502574E+02  0.51100000000E-03 0.  1.
         12    1    3    3    0    0  0.10306546955E+01 -0.17310271572E+01  0.16940467505E+02  0.17059840076E+02  0.00000000000E+00 0. -1.
</event>
<event>
 7    1  0.2966651E-011  0.5052886E+02  0.7816164E-02  0.1300439E+00
        -11   -1    0    0    0    0  0.00000000000E+00  0.00000000000E+00  0.45593999997E+02  0.45594000000E+02  0.51100000000E-03 0. -1.
         11   -1    0    0    0    0 -0.00000000000E+00 -0.00000000000E+00 -0.45593999997E+02  0.45594000000E+02  0.51100000000E-03 0.  1.
    9900012    2    1    2    0    0 -0.37812771668E+02 -0.75690591252E+01 -0.12886792989E+02  0.50528858460E+02  0.29999995775E+02 0.  0.
         12    1    1    2    0    0  0.37812771668E+02  0.75690591252E+01  0.12886792989E+02  0.40659141540E+02  0.00000000000E+00 0. -1.
         11    1    3    3    0    0 -0.36133135359E+02 -0.64525606033E+01 -0.21014713757E+01  0.36764863544E+02  0.51100000000E-03 0. -1.
        -11    1    3    3    0    0  0.83675317010E+00 -0.33036973946E+01 -0.96625465633E+01  0.10245944500E+02  0.51100000000E-03 0.  1.
        -12    1    3    3    0    0 -0.25163894786E+01  0.21871988727E+01 -0.11227750496E+01  0.35180504159E+01  0.00000000000E+00 0.  1.
</event>
<event>
 7    1  0.2966651E-011  0.5052884E+02  0.7816164E-02  0.1300439E+00
        -11   -1    0    0    0    0  0.00000000000E+00  0.00000000000E+00  0.45593999997E+02  0.45594000000E+02  0.51100000000E-03 0.  1.
         11   -1    0    0    0    0 -0.00000000000E+00 -0.00000000000E+00 -0.45593999997E+02  0.45594000000E+02  0.51100000000E-03 0. -1.
    9900012    2    1    2    0    0 -0.18741720100E+02  0.30329506270E+02  0.19545749059E+02  0.50528839542E+02  0.29999938270E+02 0.  0.
         12    1    1    2    0    0  0.18741720100E+02 -0.30329506270E+02 -0.19545749059E+02  0.40659160458E+02  0.00000000000E+00 0. -1.
         11    1    3    3    0    0  0.56448365611E+00  0.15365794467E+02  0.49225802602E+01  0.16144908736E+02  0.51100000000E-03 0. -1.
        -11    1    3    3    0    0 -0.15512224227E+02  0.15955160442E+02  0.18448490630E+02  0.28905761570E+02  0.51100000000E-03 0.  1.
        -12    1    3    3    0    0 -0.37939795287E+01 -0.99144863840E+00 -0.38253218305E+01  0.54781692356E+01  0.00000000000E+00 0.  1.
</event>
<event>
 7    1  0.2966651E-011  0.5052886E+02  0.7816164E-02  0.1300439E+00
        -11   -1    0    0    0    0  0.00000000000E+00  0.00000000000E+00  0.45593999997E+02  0.45594000000E+02  0.51100000000E-03 0.  1.
         11   -1    0    0    0    0 -0.00000000000E+00 -0.00000000000E+00 -0.45593999997E+02  0.45594000000E+02  0.51100000000E-03 0. -1.
    9900012    2    1    2    0    0 -0.12971709999E+01  0.40241265581E+02  0.56677764724E+01  0.50528858368E+02  0.29999995495E+02 0.  0.
         12    1    1    2    0    0  0.12971709999E+01 -0.40241265581E+02 -0.56677764724E+01  0.40659141632E+02  0.00000000000E+00 0. -1.
         11    1    3    3    0    0 -0.92233296567E+01  0.21125737761E+02 -0.42676448395E+01  0.23443109833E+02  0.51100000000E-03 0. -1.
        -11    1    3    3    0    0  0.93560919557E+01  0.75098746794E+01  0.96370202957E+01  0.15388529326E+02  0.51100000000E-03 0.  1.
        -12    1    3    3    0    0 -0.14299332989E+01  0.11605653140E+02  0.29840101626E+00  0.11697219208E+02  0.00000000000E+00 0.  1.
</event>
<event>
 7    1  0.2966651E-011  0.5052885E+02  0.7816164E-02  0.1300439E+00
        -11   -1    0    0    0    0  0.00000000000E+00  0.00000000000E+00  0.45593999997E+02  0.45594000000E+02  0.51100000000E-03 0.  1.
         11   -1    0    0    0    0 -0.00000000000E+00 -0.00000000000E+00 -0.45593999997E+02  0.45594000000E+02  0.51100000000E-03 0. -1.
    9900012    2    1    2    0    0  0.82496654532E+01 -0.22370702907E+02  0.32934197096E+02  0.50528847685E+02  0.29999963022E+02 0.  0.
         12    1    1    2    0    0 -0.82496654532E+01  0.22370702907E+02 -0.32934197096E+02  0.40659152315E+02  0.00000000000E+00 0. -1.
         11    1    3    3    0    0  0.82013751969E+01 -0.31611341087E+01 -0.87940758906E+00  0.88333845124E+01  0.51100000000E-03 0. -1.
        -11    1    3    3    0    0  0.26557298579E+01 -0.12460263875E+02  0.31689623798E+02  0.34154697095E+02  0.51100000000E-03 0.  1.
        -12    1    3    3    0    0 -0.26074396016E+01 -0.67493049235E+01  0.21239808867E+01  0.75407660773E+01  0.00000000000E+00 0.  1.
</event>
<event>
 7    1  0.2966651E-011  0.5052888E+02  0.7816164E-02  0.1300439E+00
        -11   -1    0    0    0    0  0.00000000000E+00  0.00000000000E+00  0.45593999997E+02  0.45594000000E+02  0.51100000000E-03 0.  1.
         11   -1    0    0    0    0 -0.00000000000E+00 -0.00000000000E+00 -0.45593999997E+02  0.45594000000E+02  0.51100000000E-03 0. -1.
    9900012    2    1    2    0    0  0.37532905422E+02  0.15520256480E+02  0.18885438024E+01  0.50528881117E+02  0.30000064643E+02 0.  0.
         12    1    1    2    0    0 -0.37532905422E+02 -0.15520256480E+02 -0.18885438024E+01  0.40659118883E+02  0.00000000000E+00 0. -1.
         11    1    3    3    0    0  0.92503699027E+01  0.13662006956E+02  0.17904387992E+01  0.16595946757E+02  0.51100000000E-03 0. -1.
        -11    1    3    3    0    0  0.16423143431E+02 -0.65821874344E+01  0.53083738520E+01  0.18472240384E+02  0.51100000000E-03 0.  1.
        -12    1    3    3    0    0  0.11859392088E+02  0.84404369590E+01 -0.52102688488E+01  0.15460693977E+02  0.00000000000E+00 0.  1.
</event>
<event>
 7    1  0.2966651E-011  0.5052884E+02  0.7816164E-02  0.1300439E+00
        -11   -1    0    0    0    0  0.00000000000E+00  0.00000000000E+00  0.45593999997E+02  0.45594000000E+02  0.51100000000E-03 0.  1.
         11   -1    0    0    0    0 -0.00000000000E+00 -0.00000000000E+00 -0.45593999997E+02  0.45594000000E+02  0.51100000000E-03 0. -1.
    9900012    2    1    2    0    0  0.30114683722E+02  0.65653876053E+01  0.26517330627E+02  0.50528839733E+02  0.29999938851E+02 0.  0.
         12    1    1    2    0    0 -0.30114683722E+02 -0.65653876053E+01 -0.26517330627E+02  0.40659160267E+02  0.00000000000E+00 0. -1.
         11    1    3    3    0    0  0.86319429221E+01  0.14993442442E+02  0.49935281207E+01  0.18006917510E+02  0.51100000000E-03 0. -1.
        -11    1    3    3    0    0  0.19181249975E+02 -0.43722069087E+01  0.16608231995E+02  0.25746260197E+02  0.51100000000E-03 0.  1.
        -12    1    3    3    0    0  0.23014908246E+01 -0.40558479282E+01  0.49155705110E+01  0.67756620253E+01  0.00000000000E+00 0.  1.
</event>
<event>
 7    1  0.2966651E-011  0.5052887E+02  0.7816164E-02  0.1300439E+00
        -11   -1    0    0    0    0  0.00000000000E+00  0.00000000000E+00  0.45593999997E+02  0.45594000000E+02  0.51100000000E-03 0.  1.
         11   -1    0    0    0    0 -0.00000000000E+00 -0.00000000000E+00 -0.45593999997E+02  0.45594000000E+02  0.51100000000E-03 0. -1.
    9900012    2    1    2    0    0 -0.15260471882E+02 -0.33362782715E+02  0.17527338721E+02  0.50528869719E+02  0.30000029998E+02 0.  0.
         12    1    1    2    0    0  0.15260471882E+02  0.33362782715E+02 -0.17527338721E+02  0.40659130281E+02  0.00000000000E+00 0. -1.
         11    1    3    3    0    0 -0.59552303777E+01 -0.77904188146E+01 -0.45766143569E+01  0.10821312000E+02  0.51100000000E-03 0. -1.
        -11    1    3    3    0    0  0.26851508793E+01 -0.14246156509E+02  0.17211362430E+02  0.22503199939E+02  0.51100000000E-03 0.  1.
        -12    1    3    3    0    0 -0.11990392383E+02 -0.11326207391E+02  0.48925906479E+01  0.17204357780E+02  0.00000000000E+00 0.  1.
</event>
<event>
 7    1  0.2966651E-011  0.5052885E+02  0.7816164E-02  0.1300439E+00
        -11   -1    0    0    0    0  0.00000000000E+00  0.00000000000E+00  0.45593999997E+02  0.45594000000E+02  0.51100000000E-03 0.  1.
         11   -1    0    0    0    0 -0.00000000000E+00 -0.00000000000E+00 -0.45593999997E+02  0.45594000000E+02  0.51100000000E-03 0. -1.
    9900012    2    1    2    0    0  0.91898461723E+01  0.16980671854E+01  0.39570565139E+02  0.50528851826E+02  0.29999975610E+02 0.  0.
         12    1    1    2    0    0 -0.91898461723E+01 -0.16980671854E+01 -0.39570565139E+02  0.40659148174E+02  0.00000000000E+00 0. -1.
         11    1    3    3    0    0  0.11999618715E+02  0.12050240450E+01  0.30042060184E+01  0.12428523094E+02  0.51100000000E-03 0. -1.
        -11    1    3    3    0    0  0.68659028704E+00 -0.39158465073E+01  0.24062079905E+02  0.24388295342E+02  0.51100000000E-03 0.  1.
         12    1    3    3    0    0 -0.34963628294E+01  0.44088896477E+01  0.12504279216E+02  0.13712033389E+02  0.00000000000E+00 0. -1.
</event>
<event>
 7    1  0.2966651E-011  0.5052891E+02  0.7816164E-02  0.1300439E+00
        -11   -1    0    0    0    0  0.00000000000E+00  0.00000000000E+00  0.45593999997E+02  0.45594000000E+02  0.51100000000E-03 0.  1.
         11   -1    0    0    0    0 -0.00000000000E+00 -0.00000000000E+00 -0.45593999997E+02  0.45594000000E+02  0.51100000000E-03 0. -1.
    9900012    2    1    2    0    0 -0.22449370514E+02  0.21289022716E+02  0.26381140951E+02  0.50528913408E+02  0.30000162793E+02 0.  0.
         12    1    1    2    0    0  0.22449370514E+02 -0.21289022716E+02 -0.26381140951E+02  0.40659086592E+02  0.00000000000E+00 0. -1.
         11    1    3    3    0    0 -0.67450626394E+01 -0.62315740475E+01  0.17669339682E+01  0.93514940533E+01  0.51100000000E-03 0. -1.
        -11    1    3    3    0    0 -0.10269964743E+02  0.15517053698E+02  0.19741510172E+02  0.27128921015E+02  0.51100000000E-03 0.  1.
        -12    1    3    3    0    0 -0.54343431318E+01  0.12003543065E+02  0.48726968104E+01  0.14048498339E+02  0.00000000000E+00 0.  1.
</event>
<event>
 7    1  0.2966651E-011  0.5052886E+02  0.7816164E-02  0.1300439E+00
        -11   -1    0    0    0    0  0.00000000000E+00  0.00000000000E+00  0.45593999997E+02  0.45594000000E+02  0.51100000000E-03 0.  1.
         11   -1    0    0    0    0 -0.00000000000E+00 -0.00000000000E+00 -0.45593999997E+02  0.45594000000E+02  0.51100000000E-03 0. -1.
    9900012    2    1    2    0    0 -0.29365058548E+00 -0.31175861408E+02  0.26098757081E+02  0.50528859744E+02  0.29999999676E+02 0.  0.
         12    1    1    2    0    0  0.29365058548E+00  0.31175861408E+02 -0.26098757081E+02  0.40659140256E+02  0.00000000000E+00 0. -1.
         11    1    3    3    0    0 -0.11091023603E+02 -0.10855445278E+02  0.11540326454E+02  0.19339871552E+02  0.51100000000E-03 0. -1.
        -11    1    3    3    0    0  0.39352809397E+01 -0.52886368092E+01  0.13019759874E+02  0.14593500704E+02  0.51100000000E-03 0.  1.
         12    1    3    3    0    0  0.68620920776E+01 -0.15031779321E+02  0.15386707539E+01  0.16595487487E+02  0.00000000000E+00 0. -1.
</event>
<event>
 7    1  0.2966651E-011  0.5052886E+02  0.7816164E-02  0.1300439E+00
        -11   -1    0    0    0    0  0.00000000000E+00  0.00000000000E+00  0.45593999997E+02  0.45594000000E+02  0.51100000000E-03 0.  1.
         11   -1    0    0    0    0 -0.00000000000E+00 -0.00000000000E+00 -0.45593999997E+02  0.45594000000E+02  0.51100000000E-03 0. -1.
    9900012    2    1    2    0    0 -0.11747436731E+02  0.31248301762E+02  0.23210062677E+02  0.50528860286E+02  0.30000001327E+02 0.  0.
         12    1    1    2    0    0  0.11747436731E+02 -0.31248301762E+02 -0.23210062677E+02  0.40659139714E+02  0.00000000000E+00 0. -1.
         11    1    3    3    0    0  0.69422325897E+01  0.14409837570E+01 -0.36898663455E+00  0.70998013293E+01  0.51100000000E-03 0. -1.
        -11    1    3    3    0    0 -0.34772396201E+01  0.12287967939E+02  0.50368430532E+01  0.13727896403E+02  0.51100000000E-03 0.  1.
         12    1    3    3    0    0 -0.15212429701E+02  0.17519350066E+02  0.18542206259E+02  0.29701162554E+02  0.00000000000E+00 0. -1.
</event>
<event>
 7    1  0.2966651E-011  0.5052887E+02  0.7816164E-02  0.1300439E+00
        -11   -1    0    0    0    0  0.00000000000E+00  0.00000000000E+00  0.45593999997E+02  0.45594000000E+02  0.51100000000E-03 0.  1.
         11   -1    0    0    0    0 -0.00000000000E+00 -0.00000000000E+00 -0.45593999997E+02  0.45594000000E+02  0.51100000000E-03 0. -1.
    9900012    2    1    2    0    0 -0.11927162127E+02 -0.37924272027E+02  0.85239270073E+01  0.50528868961E+02  0.30000027695E+02 0.  0.
         12    1    1    2    0    0  0.11927162127E+02  0.37924272027E+02 -0.85239270073E+01  0.40659131039E+02  0.00000000000E+00 0. -1.
         11    1    3    3    0    0  0.42161854967E+01 -0.10009497330E+01  0.31373841455E+01  0.53498878538E+01  0.51100000000E-03 0. -1.
        -11    1    3    3    0    0 -0.11508832917E+02 -0.37453778018E+02  0.77630032421E+01  0.39943747227E+02  0.51100000000E-03 0.  1.
         12    1    3    3    0    0 -0.46345147073E+01  0.53045572410E+00 -0.23764603803E+01  0.52352338807E+01  0.00000000000E+00 0. -1.
</event>
<event>
 7    1  0.2966651E-011  0.5052894E+02  0.7816164E-02  0.1300439E+00
        -11   -1    0    0    0    0  0.00000000000E+00  0.00000000000E+00  0.45593999997E+02  0.45594000000E+02  0.51100000000E-03 0. -1.
         11   -1    0    0    0    0 -0.00000000000E+00 -0.00000000000E+00 -0.45593999997E+02  0.45594000000E+02  0.51100000000E-03 0.  1.
    9900012    2    1    2    0    0 -0.10823517577E+02 -0.29344085583E+02 -0.25979512177E+02  0.50528942652E+02  0.30000251685E+02 0.  0.
         12    1    1    2    0    0  0.10823517577E+02  0.29344085583E+02  0.25979512177E+02  0.40659057348E+02  0.00000000000E+00 0. -1.
         11    1    3    3    0    0 -0.93109851705E+01  0.23917715157E+00 -0.76791347586E+00  0.93456589882E+01  0.51100000000E-03 0. -1.
        -11    1    3    3    0    0 -0.49762334901E+01 -0.18549282782E+02 -0.21953200297E+02  0.29168164067E+02  0.51100000000E-03 0.  1.
         12    1    3    3    0    0  0.34637010832E+01 -0.11033979952E+02 -0.32583984035E+01  0.12015119597E+02  0.00000000000E+00 0. -1.
</event>
<event>
 7    1  0.2966651E-011  0.5052885E+02  0.7816164E-02  0.1300439E+00
        -11   -1    0    0    0    0  0.00000000000E+00  0.00000000000E+00  0.45593999997E+02  0.45594000000E+02  0.51100000000E-03 0. -1.
         11   -1    0    0    0    0 -0.00000000000E+00 -0.00000000000E+00 -0.45593999997E+02  0.45594000000E+02  0.51100000000E-03 0.  1.
    9900012    2    1    2    0    0  0.35093887405E+02 -0.51401424983E+01 -0.19878739575E+02  0.50528852380E+02  0.29999977294E+02 0.  0.
         12    1    1    2    0    0 -0.35093887405E+02  0.51401424983E+01  0.19878739575E+02  0.40659147620E+02  0.00000000000E+00 0. -1.
         11    1    3    3    0    0  0.14569351918E+02 -0.13214933196E+02 -0.15250188660E+02  0.24889128733E+02  0.51100000000E-03 0. -1.
        -11    1    3    3    0    0  0.18581883643E+02  0.61158618218E+01 -0.81277665175E+01  0.21183737969E+02  0.51100000000E-03 0.  1.
         12    1    3    3    0    0  0.19426518441E+01  0.19589288754E+01  0.34992156019E+01  0.44559856772E+01  0.00000000000E+00 0. -1.
</event>
<event>
 7    1  0.2966651E-011  0.5052886E+02  0.7816164E-02  0.1300439E+00
        -11   -1    0    0    0    0  0.00000000000E+00  0.00000000000E+00  0.45593999997E+02  0.45594000000E+02  0.51100000000E-03 0.  1.
         11   -1    0    0    0    0 -0.00000000000E+00 -0.00000000000E+00 -0.45593999997E+02  0.45594000000E+02  0.51100000000E-03 0. -1.
    9900012    2    1    2    0    0 -0.21142568616E+02 -0.33182100663E+02  0.10252085207E+02  0.50528864948E+02  0.30000015496E+02 0.  0.
         12    1    1    2    0    0  0.21142568616E+02  0.33182100663E+02 -0.10252085207E+02  0.40659135052E+02  0.00000000000E+00 0. -1.
         11    1    3    3    0    0  0.37523618798E+01 -0.99941727624E+00 -0.15828965075E+01  0.41934015052E+01  0.51100000000E-03 0. -1.
        -11    1    3    3    0    0 -0.25709286390E+02 -0.20043263413E+02  0.78262326701E+01  0.33525359551E+02  0.51100000000E-03 0.  1.
         12    1    3    3    0    0  0.81435589473E+00 -0.12139419974E+02  0.40087490443E+01  0.12810103892E+02  0.00000000000E+00 0. -1.
</event>
<event>
 7    1  0.2966651E-011  0.5052886E+02  0.7816164E-02  0.1300439E+00
        -11   -1    0    0    0    0  0.00000000000E+00  0.00000000000E+00  0.45593999997E+02  0.45594000000E+02  0.51100000000E-03 0. -1.
         11   -1    0    0    0    0 -0.00000000000E+00 -0.00000000000E+00 -0.45593999997E+02  0.45594000000E+02  0.51100000000E-03 0.  1.
    9900012    2    1    2    0    0 -0.30182103411E+01  0.38458936526E+02 -0.12843913335E+02  0.50528862009E+02  0.30000006563E+02 0.  0.
         12    1    1    2    0    0  0.30182103411E+01 -0.38458936526E+02  0.12843913335E+02  0.40659137991E+02  0.00000000000E+00 0. -1.
         11    1    3    3    0    0  0.29076064701E+00 -0.84492088930E+00  0.11763258740E+01  0.14772189702E+01  0.51100000000E-03 0. -1.
        -11    1    3    3    0    0 -0.80527652894E+01  0.39761725852E+02 -0.79609898741E+01  0.41342704696E+02  0.51100000000E-03 0.  1.
        -12    1    3    3    0    0  0.47437943013E+01 -0.45786843626E+00 -0.60592493349E+01  0.77089383433E+01  0.00000000000E+00 0.  1.
</event>
<event>
 7    1  0.2966651E-011  0.5052885E+02  0.7816164E-02  0.1300439E+00
        -11   -1    0    0    0    0  0.00000000000E+00  0.00000000000E+00  0.45593999997E+02  0.45594000000E+02  0.51100000000E-03 0. -1.
         11   -1    0    0    0    0 -0.00000000000E+00 -0.00000000000E+00 -0.45593999997E+02  0.45594000000E+02  0.51100000000E-03 0.  1.
    9900012    2    1    2    0    0 -0.21204667334E+02  0.13990564853E+02 -0.31745754983E+02  0.50528846282E+02  0.29999958758E+02 0.  0.
         12    1    1    2    0    0  0.21204667334E+02 -0.13990564853E+02  0.31745754983E+02  0.40659153718E+02  0.00000000000E+00 0. -1.
         11    1    3    3    0    0 -0.12574424865E+01  0.68262413963E+01  0.24647350583E+01  0.73657078666E+01  0.51100000000E-03 0. -1.
        -11    1    3    3    0    0 -0.22264201751E+02  0.64875689486E+01 -0.33308772635E+02  0.40586420946E+02  0.51100000000E-03 0.  1.
        -12    1    3    3    0    0  0.23169769038E+01  0.67675450777E+00 -0.90171740610E+00  0.25767174694E+01  0.00000000000E+00 0.  1.
</event>
<event>
 7    1  0.2966651E-011  0.5052885E+02  0.7816164E-02  0.1300439E+00
        -11   -1    0    0    0    0  0.00000000000E+00  0.00000000000E+00  0.45593999997E+02  0.45594000000E+02  0.51100000000E-03 0.  1.
         11   -1    0    0    0    0 -0.00000000000E+00 -0.00000000000E+00 -0.45593999997E+02  0.45594000000E+02  0.51100000000E-03 0. -1.
    9900012    2    1    2    0    0  0.26073312459E+02 -0.60718089868E+01  0.30601994214E+02  0.50528849285E+02  0.29999967887E+02 0.  0.
         12    1    1    2    0    0 -0.26073312459E+02  0.60718089868E+01 -0.30601994214E+02  0.40659150715E+02  0.00000000000E+00 0. -1.
         11    1    3    3    0    0  0.14881899136E+01 -0.76530471692E+01  0.62510871642E+01  0.99929941053E+01  0.51100000000E-03 0. -1.
        -11    1    3    3    0    0  0.20641325350E+02  0.75087626308E+01  0.25127269483E+02  0.33374024336E+02  0.51100000000E-03 0.  1.
        -12    1    3    3    0    0  0.39437971951E+01 -0.59275244485E+01 -0.77636243335E+00  0.71618308435E+01  0.00000000000E+00 0.  1.
</event>
<event>
 7    1  0.2966651E-011  0.5052885E+02  0.7816164E-02  0.1300439E+00
        -11   -1    0    0    0    0  0.00000000000E+00  0.00000000000E+00  0.45593999997E+02  0.45594000000E+02  0.51100000000E-03 0. -1.
         11   -1    0    0    0    0 -0.00000000000E+00 -0.00000000000E+00 -0.45593999997E+02  0.45594000000E+02  0.51100000000E-03 0.  1.
    9900012    2    1    2    0    0  0.35647124738E+02 -0.19064128566E+02  0.43597871930E+01  0.50528852881E+02  0.29999978818E+02 0.  0.
         12    1    1    2    0    0 -0.35647124738E+02  0.19064128566E+02 -0.43597871930E+01  0.40659147119E+02  0.00000000000E+00 0. -1.
         11    1    3    3    0    0  0.12651201605E+02 -0.16529341755E+02  0.89245535749E+01  0.22647730519E+02  0.51100000000E-03 0. -1.
        -11    1    3    3    0    0  0.12158290800E+02  0.49494528636E+01  0.18055572893E+01  0.13250703989E+02  0.51100000000E-03 0.  1.
         12    1    3    3    0    0  0.10837632333E+02 -0.74842396745E+01 -0.63703236713E+01  0.14630418373E+02  0.00000000000E+00 0. -1.
</event>
<event>
 7    1  0.2966651E-011  0.5052886E+02  0.7816164E-02  0.1300439E+00
        -11   -1    0    0    0    0  0.00000000000E+00  0.00000000000E+00  0.45593999997E+02  0.45594000000E+02  0.51100000000E-03 0. -1.
         11   -1    0    0    0    0 -0.00000000000E+00 -0.00000000000E+00 -0.45593999997E+02  0.45594000000E+02  0.51100000000E-03 0.  1.
    9900012    2    1    2    0    0  0.27001920459E+02 -0.22794828692E+02 -0.20111137658E+02  0.50528858575E+02  0.29999996123E+02 0.  0.
         12    1    1    2    0    0 -0.27001920459E+02  0.22794828692E+02  0.20111137658E+02  0.40659141425E+02  0.00000000000E+00 0. -1.
         11    1    3    3    0    0  0.22558708792E+01  0.26162636599E+00  0.25991848267E+01  0.34515451327E+01  0.51100000000E-03 0. -1.
        -11    1    3    3    0    0  0.18213895227E+02 -0.21128112383E+02 -0.27166727698E+02  0.38938081698E+02  0.51100000000E-03 0.  1.
        -12    1    3    3    0    0  0.65321543521E+01 -0.19283426744E+01  0.44564052136E+01  0.81392317437E+01  0.00000000000E+00 0.  1.
</event>
<event>
 7    1  0.2966651E-011  0.5052888E+02  0.7816164E-02  0.1300439E+00
        -11   -1    0    0    0    0  0.00000000000E+00  0.00000000000E+00  0.45593999997E+02  0.45594000000E+02  0.51100000000E-03 0. -1.
         11   -1    0    0    0    0 -0.00000000000E+00 -0.00000000000E+00 -0.45593999997E+02  0.45594000000E+02  0.51100000000E-03 0.  1.
    9900012    2    1    2    0    0  0.83215738274E+01 -0.17341765192E+01 -0.39760638033E+02  0.50528876842E+02  0.30000051649E+02 0.  0.
         12    1    1    2    0    0 -0.83215738274E+01  0.17341765192E+01  0.39760638033E+02  0.40659123158E+02  0.00000000000E+00 0. -1.
         11    1    3    3    0    0  0.16225012982E+01  0.67063134690E+01 -0.27117275019E+02  0.27981310826E+02  0.51100000000E-03 0. -1.
        -11    1    3    3    0    0  0.19487971411E+01 -0.10327054945E+02 -0.13761554944E+02  0.17315492164E+02  0.51100000000E-03 0.  1.
         12    1    3    3    0    0  0.47502753882E+01  0.18865649573E+01  0.11181919300E+01  0.52320738521E+01  0.00000000000E+00 0. -1.
</event>
<event>
 7    1  0.2966651E-011  0.5052884E+02  0.7816164E-02  0.1300439E+00
        -11   -1    0    0    0    0  0.00000000000E+00  0.00000000000E+00  0.45593999997E+02  0.45594000000E+02  0.51100000000E-03 0. -1.
         11   -1    0    0    0    0 -0.00000000000E+00 -0.00000000000E+00 -0.45593999997E+02  0.45594000000E+02  0.51100000000E-03 0.  1.
    9900012    2    1    2    0    0  0.20922001347E+02  0.19525694971E+02 -0.28882244288E+02  0.50528844333E+02  0.29999952833E+02 0.  0.
         12    1    1    2    0    0 -0.20922001347E+02 -0.19525694971E+02  0.28882244288E+02  0.40659155667E+02  0.00000000000E+00 0. -1.
         11    1    3    3    0    0  0.12328692646E+02 -0.26045290109E+01 -0.10264571169E+02  0.16252435364E+02  0.51100000000E-03 0. -1.
        -11    1    3    3    0    0  0.11519372842E+02  0.21410111762E+02 -0.12233223691E+02  0.27216550084E+02  0.51100000000E-03 0.  1.
         12    1    3    3    0    0 -0.29260641410E+01  0.72011222014E+00 -0.63844494280E+01  0.70598588842E+01  0.00000000000E+00 0. -1.
</event>
<event>
 7    1  0.2966651E-011  0.5052887E+02  0.7816164E-02  0.1300439E+00
        -11   -1    0    0    0    0  0.00000000000E+00  0.00000000000E+00  0.45593999997E+02  0.45594000000E+02  0.51100000000E-03 0. -1.
         11   -1    0    0    0    0 -0.00000000000E+00 -0.00000000000E+00 -0.45593999997E+02  0.45594000000E+02  0.51100000000E-03 0.  1.
    9900012    2    1    2    0    0  0.40315941634E+02  0.29348296403E+01  0.43791096184E+01  0.50528868480E+02  0.30000026233E+02 0.  0.
         12    1    1    2    0    0 -0.40315941634E+02 -0.29348296403E+01 -0.43791096184E+01  0.40659131520E+02  0.00000000000E+00 0. -1.
         11    1    3    3    0    0 -0.33883531258E+01 -0.14719456944E+01  0.34916201161E+01  0.50832049269E+01  0.51100000000E-03 0. -1.
        -11    1    3    3    0    0  0.15254241091E+02  0.63433807413E+01 -0.25759187500E+01  0.16720218544E+02  0.51100000000E-03 0.  1.
         12    1    3    3    0    0  0.28450053669E+02 -0.19366054066E+01  0.34634082523E+01  0.28725445010E+02  0.00000000000E+00 0. -1.
</event>
<event>
 7    1  0.2966651E-011  0.5052885E+02  0.7816164E-02  0.1300439E+00
        -11   -1    0    0    0    0  0.00000000000E+00  0.00000000000E+00  0.45593999997E+02  0.45594000000E+02  0.51100000000E-03 0.  1.
         11   -1    0    0    0    0 -0.00000000000E+00 -0.00000000000E+00 -0.45593999997E+02  0.45594000000E+02  0.51100000000E-03 0. -1.
    9900012    2    1    2    0    0  0.49219900401E+01 -0.35422283180E+02  0.19344306999E+02  0.50528851645E+02  0.29999975060E+02 0.  0.
         12    1    1    2    0    0 -0.49219900401E+01  0.35422283180E+02 -0.19344306999E+02  0.40659148355E+02  0.00000000000E+00 0. -1.
         11    1    3    3    0    0 -0.70186055024E+01 -0.20595994092E+02  0.11422176054E+02  0.24574822520E+02  0.51100000000E-03 0. -1.
        -11    1    3    3    0    0  0.10337191912E+02 -0.18084306241E+02  0.53566337713E+01  0.21507979786E+02  0.51100000000E-03 0.  1.
         12    1    3    3    0    0  0.16034036303E+01  0.32580171529E+01  0.25654971742E+01  0.44460493386E+01  0.00000000000E+00 0. -1.
</event>
<event>
 7    1  0.2966651E-011  0.5052887E+02  0.7816164E-02  0.1300439E+00
        -11   -1    0    0    0    0  0.00000000000E+00  0.00000000000E+00  0.45593999997E+02  0.45594000000E+02  0.51100000000E-03 0.  1.
         11   -1    0    0    0    0 -0.00000000000E+00 -0.00000000000E+00 -0.45593999997E+02  0.45594000000E+02  0.51100000000E-03 0. -1.
    9900012    2    1    2    0    0 -0.22093130524E+02 -0.12512613032E+02  0.31756780841E+02  0.50528867808E+02  0.30000024189E+02 0.  0.
         12    1    1    2    0    0  0.22093130524E+02  0.12512613032E+02 -0.31756780841E+02  0.40659132192E+02  0.00000000000E+00 0. -1.
         11    1    3    3    0    0  0.37538728801E+01  0.97270676436E+00  0.23429760783E+01  0.45307016249E+01  0.51100000000E-03 0. -1.
        -11    1    3    3    0    0 -0.14208081116E+02 -0.16012508083E+02  0.25856231906E+02  0.33568060902E+02  0.51100000000E-03 0.  1.
        -12    1    3    3    0    0 -0.11638922288E+02  0.25271882864E+01  0.35575728566E+01  0.12430105281E+02  0.00000000000E+00 0.  1.
</event>
<event>
 7    1  0.2966651E-011  0.5052886E+02  0.7816164E-02  0.1300439E+00
        -11   -1    0    0    0    0  0.00000000000E+00  0.00000000000E+00  0.45593999997E+02  0.45594000000E+02  0.51100000000E-03 0.  1.
         11   -1    0    0    0    0 -0.00000000000E+00 -0.00000000000E+00 -0.45593999997E+02  0.45594000000E+02  0.51100000000E-03 0. -1.
    9900012    2    1    2    0    0 -0.26325937260E+02 -0.30663845018E+02  0.44541346713E+01  0.50528859827E+02  0.29999999930E+02 0.  0.
         12    1    1    2    0    0  0.26325937260E+02  0.30663845018E+02 -0.44541346713E+01  0.40659140173E+02  0.00000000000E+00 0. -1.
         11    1    3    3    0    0 -0.14915376921E+02 -0.35817014122E+01 -0.35359146987E+01  0.15741656416E+02  0.51100000000E-03 0. -1.
        -11    1    3    3    0    0 -0.12120738671E+02 -0.25894307723E+02  0.11650919457E+02  0.30873474097E+02  0.51100000000E-03 0.  1.
        -12    1    3    3    0    0  0.71017833129E+00 -0.11878358830E+01 -0.36608700873E+01  0.39137293140E+01  0.00000000000E+00 0.  1.
</event>
<event>
 7    1  0.2966651E-011  0.5052886E+02  0.7816164E-02  0.1300439E+00
        -11   -1    0    0    0    0  0.00000000000E+00  0.00000000000E+00  0.45593999997E+02  0.45594000000E+02  0.51100000000E-03 0.  1.
         11   -1    0    0    0    0 -0.00000000000E+00 -0.00000000000E+00 -0.45593999997E+02  0.45594000000E+02  0.51100000000E-03 0. -1.
    9900012    2    1    2    0    0 -0.52309987391E+01  0.39573464421E+02 -0.77293590158E+01  0.50528862960E+02  0.30000009452E+02 0.  0.
         12    1    1    2    0    0  0.52309987391E+01 -0.39573464421E+02  0.77293590158E+01  0.40659137040E+02  0.00000000000E+00 0. -1.
         11    1    3    3    0    0  0.47640834199E+01 -0.11021836558E+01 -0.53546747941E+01  0.72514717164E+01  0.51100000000E-03 0. -1.
        -11    1    3    3    0    0  0.84128744388E+00  0.13481155255E+02  0.20793263944E+01  0.13666488580E+02  0.51100000000E-03 0.  1.
         12    1    3    3    0    0 -0.10836369603E+02  0.27194492821E+02 -0.44540106161E+01  0.29610902664E+02  0.00000000000E+00 0. -1.
</event>
<event>
 7    1  0.2966651E-011  0.5052885E+02  0.7816164E-02  0.1300439E+00
        -11   -1    0    0    0    0  0.00000000000E+00  0.00000000000E+00  0.45593999997E+02  0.45594000000E+02  0.51100000000E-03 0. -1.
         11   -1    0    0    0    0 -0.00000000000E+00 -0.00000000000E+00 -0.45593999997E+02  0.45594000000E+02  0.51100000000E-03 0.  1.
    9900012    2    1    2    0    0  0.78915510024E+01  0.26626660626E+02  0.29696982724E+02  0.50528850768E+02  0.29999972395E+02 0.  0.
         12    1    1    2    0    0 -0.78915510024E+01 -0.26626660626E+02 -0.29696982724E+02  0.40659149232E+02  0.00000000000E+00 0. -1.
         11    1    3    3    0    0  0.49046567805E+01  0.36559666292E+01  0.17029149238E+02  0.18094575821E+02  0.51100000000E-03 0. -1.
        -11    1    3    3    0    0  0.92711622776E+01  0.14145143654E+02  0.16679991610E+01  0.16994756851E+02  0.51100000000E-03 0.  1.
        -12    1    3    3    0    0 -0.62842680556E+01  0.88255503432E+01  0.10999834325E+02  0.15439518096E+02  0.00000000000E+00 0.  1.
</event>
<event>
 7    1  0.2966651E-011  0.5052885E+02  0.7816164E-02  0.1300439E+00
        -11   -1    0    0    0    0  0.00000000000E+00  0.00000000000E+00  0.45593999997E+02  0.45594000000E+02  0.51100000000E-03 0.  1.
         11   -1    0    0    0    0 -0.00000000000E+00 -0.00000000000E+00 -0.45593999997E+02  0.45594000000E+02  0.51100000000E-03 0. -1.
    9900012    2    1    2    0    0  0.15347030954E+00 -0.11518571495E+02  0.38993141562E+02  0.50528854272E+02  0.29999983046E+02 0.  0.
         12    1    1    2    0    0 -0.15347030954E+00  0.11518571495E+02 -0.38993141562E+02  0.40659145728E+02  0.00000000000E+00 0. -1.
         11    1    3    3    0    0  0.52780388331E+01 -0.10121229902E+00  0.37696801741E+01  0.64867886299E+01  0.51100000000E-03 0. -1.
        -11    1    3    3    0    0 -0.54013896313E+01 -0.90312183472E+00  0.32792861830E+02  0.33246991236E+02  0.51100000000E-03 0.  1.
        -12    1    3    3    0    0  0.27682110773E+00 -0.10514237362E+02  0.24305995576E+01  0.10795074406E+02  0.00000000000E+00 0.  1.
</event>
<event>
 7    1  0.2966651E-011  0.5052886E+02  0.7816164E-02  0.1300439E+00
        -11   -1    0    0    0    0  0.00000000000E+00  0.00000000000E+00  0.45593999997E+02  0.45594000000E+02  0.51100000000E-03 0. -1.
         11   -1    0    0    0    0 -0.00000000000E+00 -0.00000000000E+00 -0.45593999997E+02  0.45594000000E+02  0.51100000000E-03 0.  1.
    9900012    2    1    2    0    0  0.19619946363E+02  0.17372179245E+02  0.31087472559E+02  0.50528857645E+02  0.29999993297E+02 0.  0.
         12    1    1    2    0    0 -0.19619946363E+02 -0.17372179245E+02 -0.31087472559E+02  0.40659142355E+02  0.00000000000E+00 0. -1.
         11    1    3    3    0    0  0.54302487246E+01  0.22754363662E+02  0.19360865462E+02  0.30365964147E+02  0.51100000000E-03 0. -1.
        -11    1    3    3    0    0  0.13302175247E+02 -0.27097488690E+01  0.94311539657E+01  0.16529890218E+02  0.51100000000E-03 0.  1.
         12    1    3    3    0    0  0.88752239110E+00 -0.26724355482E+01  0.22954531311E+01  0.36330032798E+01  0.00000000000E+00 0. -1.
</event>
<event>
 7    1  0.2966651E-011  0.5052885E+02  0.7816164E-02  0.1300439E+00
        -11   -1    0    0    0    0  0.00000000000E+00  0.00000000000E+00  0.45593999997E+02  0.45594000000E+02  0.51100000000E-03 0.  1.
         11   -1    0    0    0    0 -0.00000000000E+00 -0.00000000000E+00 -0.45593999997E+02  0.45594000000E+02  0.51100000000E-03 0. -1.
    9900012    2    1    2    0    0 -0.18449206350E+02  0.34070990858E+02  0.12327227298E+02  0.50528853847E+02  0.29999981754E+02 0.  0.
         12    1    1    2    0    0  0.18449206350E+02 -0.34070990858E+02 -0.12327227298E+02  0.40659146153E+02  0.00000000000E+00 0. -1.
         11    1    3    3    0    0  0.42601784831E+00 -0.10829106938E+01 -0.40856103282E+01  0.42481053180E+01  0.51100000000E-03 0. -1.
        -11    1    3    3    0    0 -0.17208170941E+02  0.29529566547E+02  0.19808065272E+02  0.39502859361E+02  0.51100000000E-03 0.  1.
         12    1    3    3    0    0 -0.16670532582E+01  0.56243350050E+01 -0.33952276458E+01  0.67778891685E+01  0.00000000000E+00 0. -1.
</event>
<event>
 7    1  0.2966651E-011  0.5052890E+02  0.7816164E-02  0.1300439E+00
        -11   -1    0    0    0    0  0.00000000000E+00  0.00000000000E+00  0.45593999997E+02  0.45594000000E+02  0.51100000000E-03 0.  1.
         11   -1    0    0    0    0 -0.00000000000E+00 -0.00000000000E+00 -0.45593999997E+02  0.45594000000E+02  0.51100000000E-03 0. -1.
    9900012    2    1    2    0    0  0.18291320054E+02 -0.35217094140E+02 -0.88513489433E+01  0.50528899087E+02  0.30000119264E+02 0.  0.
         12    1    1    2    0    0 -0.18291320054E+02  0.35217094140E+02  0.88513489433E+01  0.40659100913E+02  0.00000000000E+00 0. -1.
         11    1    3    3    0    0 -0.51317632911E+01 -0.72764295313E+01 -0.19234665802E+01  0.91093987258E+01  0.51100000000E-03 0. -1.
        -11    1    3    3    0    0  0.23744520823E+02 -0.28109190952E+02 -0.10155536299E+02  0.38171505116E+02  0.51100000000E-03 0.  1.
        -12    1    3    3    0    0 -0.32143747792E+00  0.16852634324E+00  0.32276539360E+01  0.32479952449E+01  0.00000000000E+00 0.  1.
</event>
<event>
 7    1  0.2966651E-011  0.5052886E+02  0.7816164E-02  0.1300439E+00
        -11   -1    0    0    0    0  0.00000000000E+00  0.00000000000E+00  0.45593999997E+02  0.45594000000E+02  0.51100000000E-03 0.  1.
         11   -1    0    0    0    0 -0.00000000000E+00 -0.00000000000E+00 -0.45593999997E+02  0.45594000000E+02  0.51100000000E-03 0. -1.
    9900012    2    1    2    0    0 -0.34371966625E+02  0.17626292299E+02  0.12690449083E+02  0.50528858742E+02  0.29999996633E+02 0.  0.
         12    1    1    2    0    0  0.34371966625E+02 -0.17626292299E+02 -0.12690449083E+02  0.40659141258E+02  0.00000000000E+00 0. -1.
         11    1    3    3    0    0 -0.69804866221E+01  0.16973750729E+02  0.40932031382E+01  0.18803981479E+02  0.51100000000E-03 0. -1.
        -11    1    3    3    0    0 -0.12064086621E+02  0.54678286292E+00  0.10847312738E+02  0.16232847914E+02  0.51100000000E-03 0.  1.
         12    1    3    3    0    0 -0.15327393382E+02  0.10575870731E+00 -0.22500667931E+01  0.15492029349E+02  0.00000000000E+00 0. -1.
</event>
<event>
 7    1  0.2966651E-011  0.5052885E+02  0.7816164E-02  0.1300439E+00
        -11   -1    0    0    0    0  0.00000000000E+00  0.00000000000E+00  0.45593999997E+02  0.45594000000E+02  0.51100000000E-03 0.  1.
         11   -1    0    0    0    0 -0.00000000000E+00 -0.00000000000E+00 -0.45593999997E+02  0.45594000000E+02  0.51100000000E-03 0. -1.
    9900012    2    1    2    0    0 -0.17900855135E+02 -0.35601234676E+02  0.80794865465E+01  0.50528848166E+02  0.29999964484E+02 0.  0.
         12    1    1    2    0    0  0.17900855135E+02  0.35601234676E+02 -0.80794865465E+01  0.40659151834E+02  0.00000000000E+00 0. -1.
         11    1    3    3    0    0 -0.68331509763E+01 -0.13548747812E+01 -0.78703320553E+01  0.10510459783E+02  0.51100000000E-03 0. -1.
        -11    1    3    3    0    0 -0.11298330129E+02 -0.27051978047E+02  0.14369821447E+02  0.32648944066E+02  0.51100000000E-03 0.  1.
        -12    1    3    3    0    0  0.23062597069E+00 -0.71943818482E+01  0.15799971551E+01  0.73694443159E+01  0.00000000000E+00 0.  1.
</event>
<event>
 7    1  0.2966651E-011  0.5052886E+02  0.7816164E-02  0.1300439E+00
        -11   -1    0    0    0    0  0.00000000000E+00  0.00000000000E+00  0.45593999997E+02  0.45594000000E+02  0.51100000000E-03 0.  1.
         11   -1    0    0    0    0 -0.00000000000E+00 -0.00000000000E+00 -0.45593999997E+02  0.45594000000E+02  0.51100000000E-03 0. -1.
    9900012    2    1    2    0    0  0.18131833582E+02 -0.23769061718E+02  0.27557828144E+02  0.50528861101E+02  0.30000003802E+02 0.  0.
         12    1    1    2    0    0 -0.18131833582E+02  0.23769061718E+02 -0.27557828144E+02  0.40659138899E+02  0.00000000000E+00 0. -1.
         11    1    3    3    0    0 -0.50049813312E+01 -0.47957501611E+01 -0.88391384543E+00  0.69878724717E+01  0.51100000000E-03 0. -1.
        -11    1    3    3    0    0  0.12527136783E+02 -0.17060094125E+02  0.23665579013E+02  0.31749576341E+02  0.51100000000E-03 0.  1.
        -12    1    3    3    0    0  0.10609678131E+02 -0.19132174319E+01  0.47761629760E+01  0.11791412288E+02  0.00000000000E+00 0.  1.
</event>
<event>
 7    1  0.2966651E-011  0.5052884E+02  0.7816164E-02  0.1300439E+00
        -11   -1    0    0    0    0  0.00000000000E+00  0.00000000000E+00  0.45593999997E+02  0.45594000000E+02  0.51100000000E-03 0. -1.
         11   -1    0    0    0    0 -0.00000000000E+00 -0.00000000000E+00 -0.45593999997E+02  0.45594000000E+02  0.51100000000E-03 0.  1.
    9900012    2    1    2    0    0 -0.10052719789E+02 -0.36310210913E+02  0.15286542352E+02  0.50528843974E+02  0.29999951743E+02 0.  0.
         12    1    1    2    0    0  0.10052719789E+02  0.36310210913E+02 -0.15286542352E+02  0.40659156026E+02  0.00000000000E+00 0. -1.
         11    1    3    3    0    0  0.80328716638E+01 -0.87043014917E+01  0.57254866157E+01  0.13155724567E+02  0.51100000000E-03 0. -1.
        -11    1    3    3    0    0 -0.16039011162E+02 -0.11646734157E+02  0.73098537998E+01  0.21126529730E+02  0.51100000000E-03 0.  1.
         12    1    3    3    0    0 -0.20465802909E+01 -0.15959175264E+02  0.22512019366E+01  0.16246589677E+02  0.00000000000E+00 0. -1.
</event>
<event>
 7    1  0.2966651E-011  0.5052886E+02  0.7816164E-02  0.1300439E+00
        -11   -1    0    0    0    0  0.00000000000E+00  0.00000000000E+00  0.45593999997E+02  0.45594000000E+02  0.51100000000E-03 0. -1.
         11   -1    0    0    0    0 -0.00000000000E+00 -0.00000000000E+00 -0.45593999997E+02  0.45594000000E+02  0.51100000000E-03 0.  1.
    9900012    2    1    2    0    0 -0.37546214561E+02  0.15336059948E+02  0.28726994542E+01  0.50528863699E+02  0.30000011699E+02 0.  0.
         12    1    1    2    0    0  0.37546214561E+02 -0.15336059948E+02 -0.28726994542E+01  0.40659136301E+02  0.00000000000E+00 0. -1.
         11    1    3    3    0    0  0.56026051189E+00 -0.73820845593E+00  0.45814067549E+01  0.46741985068E+01  0.51100000000E-03 0. -1.
        -11    1    3    3    0    0 -0.29513904522E+02  0.12789742139E+02 -0.97767223572E+01  0.33618928662E+02  0.51100000000E-03 0.  1.
        -12    1    3    3    0    0 -0.85925705513E+01  0.32845262653E+01  0.80680150565E+01  0.12235736529E+02  0.00000000000E+00 0.  1.
</event>
<event>
 7    1  0.2966651E-011  0.5052887E+02  0.7816164E-02  0.1300439E+00
        -11   -1    0    0    0    0  0.00000000000E+00  0.00000000000E+00  0.45593999997E+02  0.45594000000E+02  0.51100000000E-03 0. -1.
         11   -1    0    0    0    0 -0.00000000000E+00 -0.00000000000E+00 -0.45593999997E+02  0.45594000000E+02  0.51100000000E-03 0.  1.
    9900012    2    1    2    0    0 -0.17741062459E+02 -0.19788695886E+02 -0.30770561587E+02  0.50528865204E+02  0.30000016273E+02 0.  0.
         12    1    1    2    0    0  0.17741062459E+02  0.19788695886E+02  0.30770561587E+02  0.40659134796E+02  0.00000000000E+00 0. -1.
         11    1    3    3    0    0 -0.60045696848E+01  0.43532526338E+01 -0.11119562617E+01  0.74994741537E+01  0.51100000000E-03 0. -1.
        -11    1    3    3    0    0 -0.15246975987E+02 -0.22699906068E+02 -0.26686603922E+02  0.38209041357E+02  0.51100000000E-03 0.  1.
        -12    1    3    3    0    0  0.35104832133E+01 -0.14420424509E+01 -0.29720014035E+01  0.48203496931E+01  0.00000000000E+00 0.  1.
</event>
<event>
 7    1  0.2966651E-011  0.5052886E+02  0.7816164E-02  0.1300439E+00
        -11   -1    0    0    0    0  0.00000000000E+00  0.00000000000E+00  0.45593999997E+02  0.45594000000E+02  0.51100000000E-03 0.  1.
         11   -1    0    0    0    0 -0.00000000000E+00 -0.00000000000E+00 -0.45593999997E+02  0.45594000000E+02  0.51100000000E-03 0. -1.
    9900012    2    1    2    0    0 -0.36803692315E+02 -0.16101525232E+02 -0.62765180135E+01  0.50528861283E+02  0.30000004357E+02 0.  0.
         12    1    1    2    0    0  0.36803692315E+02  0.16101525232E+02  0.62765180135E+01  0.40659138717E+02  0.00000000000E+00 0. -1.
         11    1    3    3    0    0 -0.28339771070E+02 -0.91370527334E+01 -0.82153910493E+01  0.30888849239E+02  0.51100000000E-03 0. -1.
        -11    1    3    3    0    0 -0.10921005146E+02 -0.30965183062E+01  0.65776505254E+01  0.13119537557E+02  0.51100000000E-03 0.  1.
         12    1    3    3    0    0  0.24570839015E+01 -0.38679541924E+01 -0.46387774896E+01  0.65204744867E+01  0.00000000000E+00 0. -1.
</event>
<event>
 7    1  0.2966651E-011  0.5052886E+02  0.7816164E-02  0.1300439E+00
        -11   -1    0    0    0    0  0.00000000000E+00  0.00000000000E+00  0.45593999997E+02  0.45594000000E+02  0.51100000000E-03 0.  1.
         11   -1    0    0    0    0 -0.00000000000E+00 -0.00000000000E+00 -0.45593999997E+02  0.45594000000E+02  0.51100000000E-03 0. -1.
    9900012    2    1    2    0    0 -0.97782211932E+01  0.57298902292E+01  0.39047669531E+02  0.50528858992E+02  0.29999997391E+02 0.  0.
         12    1    1    2    0    0  0.97782211932E+01 -0.57298902292E+01 -0.39047669531E+02  0.40659141008E+02  0.00000000000E+00 0. -1.
         11    1    3    3    0    0  0.10984257032E+01  0.14585136592E+02  0.15411425469E+02  0.21247230024E+02  0.51100000000E-03 0.  1.
        -11    1    3    3    0    0 -0.32499567061E+01 -0.60188439649E+01  0.37628257308E+01  0.78068917635E+01  0.51100000000E-03 0. -1.
        -12    1    3    3    0    0 -0.76266901903E+01 -0.28364023981E+01  0.19873418331E+02  0.21474737204E+02  0.00000000000E+00 0.  1.
</event>
<event>
 7    1  0.2966651E-011  0.5052887E+02  0.7816164E-02  0.1300439E+00
        -11   -1    0    0    0    0  0.00000000000E+00  0.00000000000E+00  0.45593999997E+02  0.45594000000E+02  0.51100000000E-03 0. -1.
         11   -1    0    0    0    0 -0.00000000000E+00 -0.00000000000E+00 -0.45593999997E+02  0.45594000000E+02  0.51100000000E-03 0.  1.
    9900012    2    1    2    0    0 -0.32720486783E+02  0.23866591331E+02 -0.35945397508E+01  0.50528866302E+02  0.30000019611E+02 0.  0.
         12    1    1    2    0    0  0.32720486783E+02 -0.23866591331E+02  0.35945397508E+01  0.40659133698E+02  0.00000000000E+00 0. -1.
         11    1    3    3    0    0 -0.41584963815E+01 -0.31807350956E+01 -0.33526887605E+01  0.62169679177E+01  0.51100000000E-03 0. -1.
        -11    1    3    3    0    0 -0.17037177670E+02  0.27368123187E+02 -0.32368817701E+01  0.32399953605E+02  0.51100000000E-03 0.  1.
        -12    1    3    3    0    0 -0.11524812731E+02 -0.32079676027E+00  0.29950307798E+01  0.11911944779E+02  0.00000000000E+00 0.  1.
</event>
<event>
 7    1  0.2966651E-011  0.5052884E+02  0.7816164E-02  0.1300439E+00
        -11   -1    0    0    0    0  0.00000000000E+00  0.00000000000E+00  0.45593999997E+02  0.45594000000E+02  0.51100000000E-03 0. -1.
         11   -1    0    0    0    0 -0.00000000000E+00 -0.00000000000E+00 -0.45593999997E+02  0.45594000000E+02  0.51100000000E-03 0.  1.
    9900012    2    1    2    0    0  0.28847279330E+02  0.19526484578E+02  0.20969454210E+02  0.50528841935E+02  0.29999945544E+02 0.  0.
         12    1    1    2    0    0 -0.28847279330E+02 -0.19526484578E+02 -0.20969454210E+02  0.40659158065E+02  0.00000000000E+00 0. -1.
         11    1    3    3    0    0  0.88157776837E+01  0.14570170812E+00  0.94227825443E+01  0.12904572689E+02  0.51100000000E-03 0. -1.
        -11    1    3    3    0    0  0.97401999830E+01  0.16823424823E+02  0.16887944049E+02  0.25750762570E+02  0.51100000000E-03 0.  1.
        -12    1    3    3    0    0  0.10291301663E+02  0.25573580467E+01 -0.53412723825E+01  0.11873506675E+02  0.00000000000E+00 0.  1.
</event>
<event>
 7    1  0.3476476E-011  0.5052886E+02  0.7816164E-02  0.1300439E+00
        -11   -1    0    0    0    0  0.00000000000E+00  0.00000000000E+00  0.45593999997E+02  0.45594000000E+02  0.51100000000E-03 0. -1.
         11   -1    0    0    0    0 -0.00000000000E+00 -0.00000000000E+00 -0.45593999997E+02  0.45594000000E+02  0.51100000000E-03 0.  1.
    9900012    2    1    2    0    0  0.31659846257E+02  0.20606103364E+02 -0.15040221462E+02  0.50528860529E+02  0.30000002065E+02 0.  0.
         12    1    1    2    0    0 -0.31659846257E+02 -0.20606103364E+02  0.15040221462E+02  0.40659139471E+02  0.00000000000E+00 0. -1.
         11    1    3    3    0    0  0.12944165239E+00  0.62650948663E+01 -0.11409114332E+02  0.13016760692E+02  0.51100000000E-03 0. -1.
        -11    1    3    3    0    0  0.24892377335E+02  0.56594575017E+01 -0.62341664692E+01  0.26277837438E+02  0.51100000000E-03 0.  1.
         12    1    3    3    0    0  0.66380272697E+01  0.86815509961E+01  0.26030593389E+01  0.11234262399E+02  0.00000000000E+00 0. -1.
</event>
<event>
 7    1  0.2966651E-011  0.5052886E+02  0.7816164E-02  0.1300439E+00
        -11   -1    0    0    0    0  0.00000000000E+00  0.00000000000E+00  0.45593999997E+02  0.45594000000E+02  0.51100000000E-03 0. -1.
         11   -1    0    0    0    0 -0.00000000000E+00 -0.00000000000E+00 -0.45593999997E+02  0.45594000000E+02  0.51100000000E-03 0.  1.
    9900012    2    1    2    0    0  0.37107288448E+02 -0.33008712980E+01 -0.16288620521E+02  0.50528858768E+02  0.29999996711E+02 0.  0.
         12    1    1    2    0    0 -0.37107288448E+02  0.33008712980E+01  0.16288620521E+02  0.40659141232E+02  0.00000000000E+00 0. -1.
         11    1    3    3    0    0 -0.13635941471E+01  0.13988556381E+01 -0.96603360902E+01  0.98558753914E+01  0.51100000000E-03 0. -1.
        -11    1    3    3    0    0  0.39130223651E+02 -0.46331030094E+01 -0.68056517547E+01  0.39986959657E+02  0.51100000000E-03 0.  1.
        -12    1    3    3    0    0 -0.65934105677E+00 -0.66623926699E-01  0.17736732407E+00  0.68602372000E+00  0.00000000000E+00 0.  1.
</event>
<event>
 7    1  0.2966651E-011  0.5052885E+02  0.7816164E-02  0.1300439E+00
        -11   -1    0    0    0    0  0.00000000000E+00  0.00000000000E+00  0.45593999997E+02  0.45594000000E+02  0.51100000000E-03 0.  1.
         11   -1    0    0    0    0 -0.00000000000E+00 -0.00000000000E+00 -0.45593999997E+02  0.45594000000E+02  0.51100000000E-03 0. -1.
    9900012    2    1    2    0    0  0.22614984247E+02 -0.25744187936E+02  0.21885286773E+02  0.50528849712E+02  0.29999969185E+02 0.  0.
         12    1    1    2    0    0 -0.22614984247E+02  0.25744187936E+02 -0.21885286773E+02  0.40659150288E+02  0.00000000000E+00 0. -1.
         11    1    3    3    0    0  0.66785473443E+01 -0.12508455761E+02  0.20069867008E+02  0.24573644869E+02  0.51100000000E-03 0. -1.
        -11    1    3    3    0    0  0.14581530529E+02 -0.14107354957E+02  0.62559366952E+01  0.21231468170E+02  0.51100000000E-03 0.  1.
         12    1    3    3    0    0  0.13549063728E+01  0.87162278195E+00 -0.44405169300E+01  0.47237366733E+01  0.00000000000E+00 0. -1.
</event>
<event>
 7    1  0.2966651E-011  0.5052887E+02  0.7816164E-02  0.1300439E+00
        -11   -1    0    0    0    0  0.00000000000E+00  0.00000000000E+00  0.45593999997E+02  0.45594000000E+02  0.51100000000E-03 0. -1.
         11   -1    0    0    0    0 -0.00000000000E+00 -0.00000000000E+00 -0.45593999997E+02  0.45594000000E+02  0.51100000000E-03 0.  1.
    9900012    2    1    2    0    0  0.37412511605E+02  0.15627613349E+02 -0.30407443216E+01  0.50528874953E+02  0.30000045906E+02 0.  0.
         12    1    1    2    0    0 -0.37412511605E+02 -0.15627613349E+02  0.30407443216E+01  0.40659125047E+02  0.00000000000E+00 0. -1.
         11    1    3    3    0    0  0.12568415221E+02  0.18254078554E+02  0.32345893573E+01  0.22397299248E+02  0.51100000000E-03 0. -1.
        -11    1    3    3    0    0  0.16373476335E+02 -0.49014449135E+01  0.42127988107E+00  0.17096560079E+02  0.51100000000E-03 0.  1.
         12    1    3    3    0    0  0.84706200486E+01  0.22749797081E+01 -0.66966135600E+01  0.11035015625E+02  0.00000000000E+00 0. -1.
</event>
<event>
 7    1  0.2966651E-011  0.5052887E+02  0.7816164E-02  0.1300439E+00
        -11   -1    0    0    0    0  0.00000000000E+00  0.00000000000E+00  0.45593999997E+02  0.45594000000E+02  0.51100000000E-03 0.  1.
         11   -1    0    0    0    0 -0.00000000000E+00 -0.00000000000E+00 -0.45593999997E+02  0.45594000000E+02  0.51100000000E-03 0. -1.
    9900012    2    1    2    0    0  0.22705752344E+02  0.49793302234E+00  0.33724858239E+02  0.50528865847E+02  0.30000018229E+02 0.  0.
         12    1    1    2    0    0 -0.22705752344E+02 -0.49793302234E+00 -0.33724858239E+02  0.40659134153E+02  0.00000000000E+00 0. -1.
         11    1    3    3    0    0 -0.34698508239E+01  0.54142652921E+01 -0.20799028972E+00  0.64340806348E+01  0.51100000000E-03 0. -1.
        -11    1    3    3    0    0  0.22913109229E+02 -0.55113075414E+01  0.33174043543E+02  0.40692778851E+02  0.51100000000E-03 0.  1.
        -12    1    3    3    0    0  0.32624939389E+01  0.59497527158E+00  0.75880498524E+00  0.34020063611E+01  0.00000000000E+00 0.  1.
</event>
<event>
 7    1  0.2966651E-011  0.5052885E+02  0.7816164E-02  0.1300439E+00
        -11   -1    0    0    0    0  0.00000000000E+00  0.00000000000E+00  0.45593999997E+02  0.45594000000E+02  0.51100000000E-03 0. -1.
         11   -1    0    0    0    0 -0.00000000000E+00 -0.00000000000E+00 -0.45593999997E+02  0.45594000000E+02  0.51100000000E-03 0.  1.
    9900012    2    1    2    0    0  0.18616653537E+02  0.12682764371E+02 -0.33848690516E+02  0.50528854034E+02  0.29999982323E+02 0.  0.
         12    1    1    2    0    0 -0.18616653537E+02 -0.12682764371E+02  0.33848690516E+02  0.40659145966E+02  0.00000000000E+00 0. -1.
         11    1    3    3    0    0  0.16487535326E+02 -0.19922711482E+01 -0.18940797767E+02  0.25190509835E+02  0.51100000000E-03 0. -1.
        -11    1    3    3    0    0  0.15813412370E+00  0.16931969275E+02 -0.10230009400E+02  0.19783065550E+02  0.51100000000E-03 0.  1.
        -12    1    3    3    0    0  0.19709840877E+01 -0.22569337559E+01 -0.46778833483E+01  0.55552786495E+01  0.00000000000E+00 0.  1.
</event>
<event>
 7    1  0.2966651E-011  0.5052885E+02  0.7816164E-02  0.1300439E+00
        -11   -1    0    0    0    0  0.00000000000E+00  0.00000000000E+00  0.45593999997E+02  0.45594000000E+02  0.51100000000E-03 0. -1.
         11   -1    0    0    0    0 -0.00000000000E+00 -0.00000000000E+00 -0.45593999997E+02  0.45594000000E+02  0.51100000000E-03 0.  1.
    9900012    2    1    2    0    0  0.17153610503E+02 -0.36708368726E+02 -0.33787360316E+01  0.50528849185E+02  0.29999967584E+02 0.  0.
         12    1    1    2    0    0 -0.17153610503E+02  0.36708368726E+02  0.33787360316E+01  0.40659150815E+02  0.00000000000E+00 0. -1.
         11    1    3    3    0    0 -0.54249993313E+01 -0.82405760805E+01  0.16562407102E+01  0.10004041455E+02  0.51100000000E-03 0. -1.
        -11    1    3    3    0    0  0.11253950520E+02 -0.78507669116E+01 -0.93571230126E+01  0.16608482614E+02  0.51100000000E-03 0.  1.
        -12    1    3    3    0    0  0.11324659314E+02 -0.20617025734E+02  0.43221462708E+01  0.23916325116E+02  0.00000000000E+00 0.  1.
</event>
<event>
 7    1  0.2966651E-011  0.5052886E+02  0.7816164E-02  0.1300439E+00
        -11   -1    0    0    0    0  0.00000000000E+00  0.00000000000E+00  0.45593999997E+02  0.45594000000E+02  0.51100000000E-03 0.  1.
         11   -1    0    0    0    0 -0.00000000000E+00 -0.00000000000E+00 -0.45593999997E+02  0.45594000000E+02  0.51100000000E-03 0. -1.
    9900012    2    1    2    0    0  0.10746919413E+02  0.70945017985E+01  0.38566016316E+02  0.50528857767E+02  0.29999993667E+02 0.  0.
         12    1    1    2    0    0 -0.10746919413E+02 -0.70945017985E+01 -0.38566016316E+02  0.40659142233E+02  0.00000000000E+00 0. -1.
         11    1    3    3    0    0  0.90135024453E+01 -0.46367897406E+01  0.25697504245E+01  0.10456895473E+02  0.51100000000E-03 0. -1.
        -11    1    3    3    0    0  0.69053337648E+01  0.80059801518E+01  0.27410974910E+02  0.29379259664E+02  0.51100000000E-03 0.  1.
         12    1    3    3    0    0 -0.51719167969E+01  0.37253113873E+01  0.85852909816E+01  0.10692702630E+02  0.00000000000E+00 0. -1.
</event>
<event>
 7    1  0.2966651E-011  0.5052885E+02  0.7816164E-02  0.1300439E+00
        -11   -1    0    0    0    0  0.00000000000E+00  0.00000000000E+00  0.45593999997E+02  0.45594000000E+02  0.51100000000E-03 0.  1.
         11   -1    0    0    0    0 -0.00000000000E+00 -0.00000000000E+00 -0.45593999997E+02  0.45594000000E+02  0.51100000000E-03 0. -1.
    9900012    2    1    2    0    0 -0.40388154802E+02 -0.22469759354E+01  0.41127037483E+01  0.50528852427E+02  0.29999977439E+02 0.  0.
         12    1    1    2    0    0  0.40388154802E+02  0.22469759354E+01 -0.41127037483E+01  0.40659147573E+02  0.00000000000E+00 0. -1.
         11    1    3    3    0    0 -0.15927636554E+02 -0.86410280600E+01  0.62910673650E+01  0.19181618831E+02  0.51100000000E-03 0. -1.
        -11    1    3    3    0    0 -0.17896961024E+02  0.95569106700E+01  0.52345923416E+01  0.20953202922E+02  0.51100000000E-03 0.  1.
         12    1    3    3    0    0 -0.65635572243E+01 -0.31628585454E+01 -0.74129559583E+01  0.10394030674E+02  0.00000000000E+00 0. -1.
</event>
<event>
 7    1  0.2966651E-011  0.5052886E+02  0.7816164E-02  0.1300439E+00
        -11   -1    0    0    0    0  0.00000000000E+00  0.00000000000E+00  0.45593999997E+02  0.45594000000E+02  0.51100000000E-03 0.  1.
         11   -1    0    0    0    0 -0.00000000000E+00 -0.00000000000E+00 -0.45593999997E+02  0.45594000000E+02  0.51100000000E-03 0. -1.
    9900012    2    1    2    0    0  0.23500822321E+02 -0.46859656999E+01  0.32846904359E+02  0.50528855269E+02  0.29999986075E+02 0.  0.
         12    1    1    2    0    0 -0.23500822321E+02  0.46859656999E+01 -0.32846904359E+02  0.40659144731E+02  0.00000000000E+00 0. -1.
         11    1    3    3    0    0  0.22313493014E+02  0.43564952251E+01  0.89614325556E+01  0.24437231734E+02  0.51100000000E-03 0. -1.
        -11    1    3    3    0    0  0.25673634371E+01 -0.18279370402E+01  0.68707116899E+01  0.75590600096E+01  0.51100000000E-03 0.  1.
         12    1    3    3    0    0 -0.13800341296E+01 -0.72145238847E+01  0.17014760113E+02  0.18532563525E+02  0.00000000000E+00 0. -1.
</event>
<event>
 7    1  0.2966651E-011  0.5052887E+02  0.7816164E-02  0.1300439E+00
        -11   -1    0    0    0    0  0.00000000000E+00  0.00000000000E+00  0.45593999997E+02  0.45594000000E+02  0.51100000000E-03 0.  1.
         11   -1    0    0    0    0 -0.00000000000E+00 -0.00000000000E+00 -0.45593999997E+02  0.45594000000E+02  0.51100000000E-03 0. -1.
    9900012    2    1    2    0    0 -0.12806992193E+00 -0.16006874287E+02  0.37375509186E+02  0.50528866792E+02  0.30000021100E+02 0.  0.
         12    1    1    2    0    0  0.12806992193E+00  0.16006874287E+02 -0.37375509186E+02  0.40659133208E+02  0.00000000000E+00 0. -1.
         11    1    3    3    0    0 -0.54815624423E+01 -0.21021170049E+02  0.30448108602E+02  0.37403535057E+02  0.51100000000E-03 0. -1.
        -11    1    3    3    0    0  0.64672270340E+01  0.77101906513E+00  0.27574191951E+01  0.70726838461E+01  0.51100000000E-03 0.  1.
         12    1    3    3    0    0 -0.11137345137E+01  0.42432766963E+01  0.41699813883E+01  0.60526478889E+01  0.00000000000E+00 0. -1.
</event>
<event>
 7    1  0.2966651E-011  0.5052886E+02  0.7816164E-02  0.1300439E+00
        -11   -1    0    0    0    0  0.00000000000E+00  0.00000000000E+00  0.45593999997E+02  0.45594000000E+02  0.51100000000E-03 0.  1.
         11   -1    0    0    0    0 -0.00000000000E+00 -0.00000000000E+00 -0.45593999997E+02  0.45594000000E+02  0.51100000000E-03 0. -1.
    9900012    2    1    2    0    0 -0.25269208630E+02 -0.31341150686E+02  0.56890148149E+01  0.50528861781E+02  0.30000005869E+02 0.  0.
         12    1    1    2    0    0  0.25269208630E+02  0.31341150686E+02 -0.56890148149E+01  0.40659138219E+02  0.00000000000E+00 0. -1.
         11    1    3    3    0    0 -0.54981402195E+01 -0.27369004520E+01 -0.10355901210E+02  0.12040135385E+02  0.51100000000E-03 0. -1.
        -11    1    3    3    0    0 -0.76421150127E+01 -0.80579640535E+01  0.44911859497E+01  0.11979292886E+02  0.51100000000E-03 0.  1.
         12    1    3    3    0    0 -0.12128953398E+02 -0.20546286181E+02  0.11553730075E+02  0.26509433510E+02  0.00000000000E+00 0. -1.
</event>
<event>
 7    1  0.2966651E-011  0.5052886E+02  0.7816164E-02  0.1300439E+00
        -11   -1    0    0    0    0  0.00000000000E+00  0.00000000000E+00  0.45593999997E+02  0.45594000000E+02  0.51100000000E-03 0.  1.
         11   -1    0    0    0    0 -0.00000000000E+00 -0.00000000000E+00 -0.45593999997E+02  0.45594000000E+02  0.51100000000E-03 0. -1.
    9900012    2    1    2    0    0  0.36701118336E+02 -0.16714962398E+02  0.51772492054E+01  0.50528856324E+02  0.29999989284E+02 0.  0.
         12    1    1    2    0    0 -0.36701118336E+02  0.16714962398E+02 -0.51772492054E+01  0.40659143676E+02  0.00000000000E+00 0. -1.
         11    1    3    3    0    0  0.14383882140E+01 -0.92555078333E+01  0.24978684010E+01  0.96939534100E+01  0.51100000000E-03 0. -1.
        -11    1    3    3    0    0  0.33441869346E+02 -0.24560853274E+01 -0.22119306551E+01  0.33604815399E+02  0.51100000000E-03 0.  1.
        -12    1    3    3    0    0  0.18208607762E+01 -0.50033692373E+01  0.48913114595E+01  0.72300875157E+01  0.00000000000E+00 0.  1.
</event>
<event>
 7    1  0.2966651E-011  0.5052886E+02  0.7816164E-02  0.1300439E+00
        -11   -1    0    0    0    0  0.00000000000E+00  0.00000000000E+00  0.45593999997E+02  0.45594000000E+02  0.51100000000E-03 0.  1.
         11   -1    0    0    0    0 -0.00000000000E+00 -0.00000000000E+00 -0.45593999997E+02  0.45594000000E+02  0.51100000000E-03 0. -1.
    9900012    2    1    2    0    0  0.24222398535E+02 -0.12375382960E+02  0.30220708597E+02  0.50528856842E+02  0.29999990858E+02 0.  0.
         12    1    1    2    0    0 -0.24222398535E+02  0.12375382960E+02 -0.30220708597E+02  0.40659143158E+02  0.00000000000E+00 0. -1.
         11    1    3    3    0    0 -0.13026439423E+01  0.33444024250E+01  0.81094586678E+00  0.36796117025E+01  0.51100000000E-03 0. -1.
        -11    1    3    3    0    0  0.22799192156E+02 -0.11276899696E+02  0.32122233379E+02  0.40973277965E+02  0.51100000000E-03 0.  1.
        -12    1    3    3    0    0  0.27258503219E+01 -0.44428856885E+01 -0.27124706485E+01  0.58759671746E+01  0.00000000000E+00 0.  1.
</event>
<event>
 7    1  0.2966651E-011  0.5052889E+02  0.7816164E-02  0.1300439E+00
        -11   -1    0    0    0    0  0.00000000000E+00  0.00000000000E+00  0.45593999997E+02  0.45594000000E+02  0.51100000000E-03 0.  1.
         11   -1    0    0    0    0 -0.00000000000E+00 -0.00000000000E+00 -0.45593999997E+02  0.45594000000E+02  0.51100000000E-03 0. -1.
    9900012    2    1    2    0    0 -0.23062174357E+02 -0.33129375387E+02 -0.48727675096E+01  0.50528889547E+02  0.30000090267E+02 0.  0.
         12    1    1    2    0    0  0.23062174357E+02  0.33129375387E+02  0.48727675096E+01  0.40659110453E+02  0.00000000000E+00 0. -1.
         11    1    3    3    0    0 -0.18721806578E+02 -0.11729746781E+02 -0.43841296025E+01  0.22523623015E+02  0.51100000000E-03 0. -1.
        -11    1    3    3    0    0 -0.46811932373E+01 -0.24456949863E+02 -0.79635978574E+00  0.24913654006E+02  0.51100000000E-03 0.  1.
        -12    1    3    3    0    0  0.34082545803E+00  0.30573212570E+01  0.30772187866E+00  0.30916125268E+01  0.00000000000E+00 0.  1.
</event>
<event>
 7    1  0.2966651E-011  0.5052885E+02  0.7816164E-02  0.1300439E+00
        -11   -1    0    0    0    0  0.00000000000E+00  0.00000000000E+00  0.45593999997E+02  0.45594000000E+02  0.51100000000E-03 0. -1.
         11   -1    0    0    0    0 -0.00000000000E+00 -0.00000000000E+00 -0.45593999997E+02  0.45594000000E+02  0.51100000000E-03 0.  1.
    9900012    2    1    2    0    0 -0.10636197182E+02 -0.97980532278E+01 -0.38000474890E+02  0.50528848147E+02  0.29999964426E+02 0.  0.
         12    1    1    2    0    0  0.10636197182E+02  0.97980532278E+01  0.38000474890E+02  0.40659151853E+02  0.00000000000E+00 0. -1.
         11    1    3    3    0    0  0.23810485585E+01 -0.12654383339E+02 -0.45617852468E+01  0.13660625711E+02  0.51100000000E-03 0. -1.
        -11    1    3    3    0    0 -0.61012213832E+01  0.22163604522E+01 -0.70608574581E+01  0.95912910666E+01  0.51100000000E-03 0.  1.
         12    1    3    3    0    0 -0.69160243572E+01  0.63996965903E+00 -0.26377832186E+02  0.27276931368E+02  0.00000000000E+00 0. -1.
</event>
<event>
 7    1  0.2966651E-011  0.5052886E+02  0.7816164E-02  0.1300439E+00
        -11   -1    0    0    0    0  0.00000000000E+00  0.00000000000E+00  0.45593999997E+02  0.45594000000E+02  0.51100000000E-03 0. -1.
         11   -1    0    0    0    0 -0.00000000000E+00 -0.00000000000E+00 -0.45593999997E+02  0.45594000000E+02  0.51100000000E-03 0.  1.
    9900012    2    1    2    0    0 -0.37922903968E+02  0.13181890568E+02  0.64231384643E+01  0.50528860904E+02  0.30000003203E+02 0.  0.
         12    1    1    2    0    0  0.37922903968E+02 -0.13181890568E+02 -0.64231384643E+01  0.40659139096E+02  0.00000000000E+00 0. -1.
         11    1    3    3    0    0  0.31938375843E+01 -0.29746785576E+01  0.86265891707E+00  0.44489877168E+01  0.51100000000E-03 0. -1.
        -11    1    3    3    0    0 -0.20909972742E+02  0.32155660124E+01  0.62971698005E+01  0.22073087066E+02  0.51100000000E-03 0.  1.
         12    1    3    3    0    0 -0.20206768811E+02  0.12941003113E+02 -0.73669025334E+00  0.24006786121E+02  0.00000000000E+00 0. -1.
</event>
<event>
 7    1  0.2966651E-011  0.5052886E+02  0.7816164E-02  0.1300439E+00
        -11   -1    0    0    0    0  0.00000000000E+00  0.00000000000E+00  0.45593999997E+02  0.45594000000E+02  0.51100000000E-03 0.  1.
         11   -1    0    0    0    0 -0.00000000000E+00 -0.00000000000E+00 -0.45593999997E+02  0.45594000000E+02  0.51100000000E-03 0. -1.
    9900012    2    1    2    0    0 -0.32296499648E+02  0.13817795371E+02  0.20473641866E+02  0.50528863638E+02  0.30000011515E+02 0.  0.
         12    1    1    2    0    0  0.32296499648E+02 -0.13817795371E+02 -0.20473641866E+02  0.40659136362E+02  0.00000000000E+00 0. -1.
         11    1    3    3    0    0 -0.24143585737E+02  0.21709411397E+02  0.18511111927E+02  0.37374758066E+02  0.51100000000E-03 0. -1.
        -11    1    3    3    0    0 -0.79025663351E+01 -0.38754437687E+01  0.23543020791E+01  0.91111117667E+01  0.51100000000E-03 0.  1.
         12    1    3    3    0    0 -0.25034757618E+00 -0.40161722565E+01 -0.39177214105E+00  0.40429938058E+01  0.00000000000E+00 0. -1.
</event>
<event>
 7    1  0.2966651E-011  0.5052886E+02  0.7816164E-02  0.1300439E+00
        -11   -1    0    0    0    0  0.00000000000E+00  0.00000000000E+00  0.45593999997E+02  0.45594000000E+02  0.51100000000E-03 0. -1.
         11   -1    0    0    0    0 -0.00000000000E+00 -0.00000000000E+00 -0.45593999997E+02  0.45594000000E+02  0.51100000000E-03 0.  1.
    9900012    2    1    2    0    0 -0.65996137182E+00  0.40609705073E+02  0.18926114472E+01  0.50528859905E+02  0.30000000168E+02 0.  0.
         12    1    1    2    0    0  0.65996137182E+00 -0.40609705073E+02 -0.18926114472E+01  0.40659140095E+02  0.00000000000E+00 0. -1.
         11    1    3    3    0    0  0.17514410507E+01  0.22970366637E+01 -0.27043294014E+01  0.39569332773E+01  0.51100000000E-03 0. -1.
        -11    1    3    3    0    0 -0.11930430018E+02  0.31368287544E+02 -0.89415366265E+00  0.33572371601E+02  0.51100000000E-03 0.  1.
        -12    1    3    3    0    0  0.95190275957E+01  0.69443808656E+01  0.54910945113E+01  0.12999555027E+02  0.00000000000E+00 0.  1.
</event>
<event>
 7    1  0.2966651E-011  0.5052886E+02  0.7816164E-02  0.1300439E+00
        -11   -1    0    0    0    0  0.00000000000E+00  0.00000000000E+00  0.45593999997E+02  0.45594000000E+02  0.51100000000E-03 0. -1.
         11   -1    0    0    0    0 -0.00000000000E+00 -0.00000000000E+00 -0.45593999997E+02  0.45594000000E+02  0.51100000000E-03 0.  1.
    9900012    2    1    2    0    0 -0.16059013705E+01  0.40253635248E+02 -0.54983035223E+01  0.50528863123E+02  0.30000009950E+02 0.  0.
         12    1    1    2    0    0  0.16059013705E+01 -0.40253635248E+02  0.54983035223E+01  0.40659136877E+02  0.00000000000E+00 0. -1.
         11    1    3    3    0    0 -0.12983520734E+00 -0.12718056816E+01  0.17300055803E+01  0.21511081892E+01  0.51100000000E-03 0. -1.
        -11    1    3    3    0    0  0.35568375117E+01  0.30262637218E+02 -0.14829349759E+02  0.33887872743E+02  0.51100000000E-03 0.  1.
        -12    1    3    3    0    0 -0.50329036749E+01  0.11262803712E+02  0.76010406567E+01  0.14489882191E+02  0.00000000000E+00 0.  1.
</event>
<event>
 7    1  0.2966651E-011  0.5052886E+02  0.7816164E-02  0.1300439E+00
        -11   -1    0    0    0    0  0.00000000000E+00  0.00000000000E+00  0.45593999997E+02  0.45594000000E+02  0.51100000000E-03 0.  1.
         11   -1    0    0    0    0 -0.00000000000E+00 -0.00000000000E+00 -0.45593999997E+02  0.45594000000E+02  0.51100000000E-03 0. -1.
    9900012    2    1    2    0    0 -0.15625630854E+02 -0.93946403846E+01  0.36342066227E+02  0.50528863447E+02  0.30000010935E+02 0.  0.
         12    1    1    2    0    0  0.15625630854E+02  0.93946403846E+01 -0.36342066227E+02  0.40659136553E+02  0.00000000000E+00 0. -1.
         11    1    3    3    0    0 -0.40642409843E+01 -0.24590591072E+01 -0.49759753742E+01  0.68793428216E+01  0.51100000000E-03 0. -1.
        -11    1    3    3    0    0 -0.65713362694E+01 -0.50577711960E+01  0.19509115491E+02  0.21198327701E+02  0.51100000000E-03 0.  1.
         12    1    3    3    0    0 -0.49900536000E+01 -0.18778100814E+01  0.21808926111E+02  0.22451192925E+02  0.00000000000E+00 0. -1.
</event>
<event>
 7    1  0.2966651E-011  0.5052886E+02  0.7816164E-02  0.1300439E+00
        -11   -1    0    0    0    0  0.00000000000E+00  0.00000000000E+00  0.45593999997E+02  0.45594000000E+02  0.51100000000E-03 0.  1.
         11   -1    0    0    0    0 -0.00000000000E+00 -0.00000000000E+00 -0.45593999997E+02  0.45594000000E+02  0.51100000000E-03 0. -1.
    9900012    2    1    2    0    0 -0.24045330786E+02  0.30955691400E+02  0.10804296890E+02  0.50528860881E+02  0.30000003133E+02 0.  0.
         12    1    1    2    0    0  0.24045330786E+02 -0.30955691400E+02 -0.10804296890E+02  0.40659139119E+02  0.00000000000E+00 0. -1.
         11    1    3    3    0    0 -0.10561758906E+02 -0.20762573516E-01 -0.59532384201E+01  0.12124035229E+02  0.51100000000E-03 0. -1.
        -11    1    3    3    0    0 -0.54071430064E+00  0.80877580237E+01  0.24412488698E+01  0.84654532135E+01  0.51100000000E-03 0.  1.
         12    1    3    3    0    0 -0.12942857579E+02  0.22888695949E+02  0.14316286440E+02  0.29939372439E+02  0.00000000000E+00 0. -1.
</event>
<event>
 7    1  0.2966651E-011  0.5052888E+02  0.7816164E-02  0.1300439E+00
        -11   -1    0    0    0    0  0.00000000000E+00  0.00000000000E+00  0.45593999997E+02  0.45594000000E+02  0.51100000000E-03 0.  1.
         11   -1    0    0    0    0 -0.00000000000E+00 -0.00000000000E+00 -0.45593999997E+02  0.45594000000E+02  0.51100000000E-03 0. -1.
    9900012    2    1    2    0    0 -0.37253363933E+02  0.67398901184E+01  0.14829867716E+02  0.50528877781E+02  0.30000054503E+02 0.  0.
         12    1    1    2    0    0  0.37253363933E+02 -0.67398901184E+01 -0.14829867716E+02  0.40659122219E+02  0.00000000000E+00 0. -1.
         11    1    3    3    0    0 -0.97416842154E+01 -0.84606693577E+01 -0.26096868325E+01  0.13164110413E+02  0.51100000000E-03 0. -1.
        -11    1    3    3    0    0 -0.96309159467E+01  0.10997947784E+02  0.66288881187E+01  0.16051528133E+02  0.51100000000E-03 0.  1.
         12    1    3    3    0    0 -0.17880763771E+02  0.42026116917E+01  0.10810666429E+02  0.21313239236E+02  0.00000000000E+00 0. -1.
</event>
<event>
 7    1  0.2966651E-011  0.5052886E+02  0.7816164E-02  0.1300439E+00
        -11   -1    0    0    0    0  0.00000000000E+00  0.00000000000E+00  0.45593999997E+02  0.45594000000E+02  0.51100000000E-03 0.  1.
         11   -1    0    0    0    0 -0.00000000000E+00 -0.00000000000E+00 -0.45593999997E+02  0.45594000000E+02  0.51100000000E-03 0. -1.
    9900012    2    1    2    0    0 -0.23959933765E+02  0.28210488787E+02  0.16830191756E+02  0.50528862550E+02  0.30000008207E+02 0.  0.
         12    1    1    2    0    0  0.23959933765E+02 -0.28210488787E+02 -0.16830191756E+02  0.40659137450E+02  0.00000000000E+00 0. -1.
         11    1    3    3    0    0 -0.11756437370E+02 -0.18259182294E+01 -0.15507525712E+01  0.11998026122E+02  0.51100000000E-03 0. -1.
        -11    1    3    3    0    0 -0.89150781562E+01  0.13522883645E+02  0.47848025326E+01  0.16889089263E+02  0.51100000000E-03 0.  1.
         12    1    3    3    0    0 -0.32884182382E+01  0.16513523372E+02  0.13596141795E+02  0.21641747165E+02  0.00000000000E+00 0. -1.
</event>
<event>
 7    1  0.2966651E-011  0.5052886E+02  0.7816164E-02  0.1300439E+00
        -11   -1    0    0    0    0  0.00000000000E+00  0.00000000000E+00  0.45593999997E+02  0.45594000000E+02  0.51100000000E-03 0.  1.
         11   -1    0    0    0    0 -0.00000000000E+00 -0.00000000000E+00 -0.45593999997E+02  0.45594000000E+02  0.51100000000E-03 0. -1.
    9900012    2    1    2    0    0 -0.40354410669E+02  0.40480423677E+01 -0.28810021794E+01  0.50528864729E+02  0.30000014829E+02 0.  0.
         12    1    1    2    0    0  0.40354410669E+02 -0.40480423677E+01  0.28810021794E+01  0.40659135271E+02  0.00000000000E+00 0. -1.
         11    1    3    3    0    0 -0.33654197863E+02  0.24047565121E+01 -0.13245873825E+02  0.36246945545E+02  0.51100000000E-03 0. -1.
        -11    1    3    3    0    0 -0.29609487661E+01 -0.27228974353E+01  0.35379735729E+01  0.53571116566E+01  0.51100000000E-03 0.  1.
         12    1    3    3    0    0 -0.37392640397E+01  0.43661832908E+01  0.68268980732E+01  0.89248075267E+01  0.00000000000E+00 0. -1.
</event>
<event>
 7    1  0.2966651E-011  0.5052885E+02  0.7816164E-02  0.1300439E+00
        -11   -1    0    0    0    0  0.00000000000E+00  0.00000000000E+00  0.45593999997E+02  0.45594000000E+02  0.51100000000E-03 0. -1.
         11   -1    0    0    0    0 -0.00000000000E+00 -0.00000000000E+00 -0.45593999997E+02  0.45594000000E+02  0.51100000000E-03 0.  1.
    9900012    2    1    2    0    0 -0.15678416500E+02  0.35512543660E+02  0.12091851401E+02  0.50528851319E+02  0.29999974070E+02 0.  0.
         12    1    1    2    0    0  0.15678416500E+02 -0.35512543660E+02 -0.12091851401E+02  0.40659148681E+02  0.00000000000E+00 0. -1.
         11    1    3    3    0    0 -0.18800991930E+02  0.94897789676E+01  0.10916927783E+02  0.23721562236E+02  0.51100000000E-03 0.  1.
        -11    1    3    3    0    0 -0.30918855542E+00  0.16945443720E+02  0.20100991336E+01  0.17067048931E+02  0.51100000000E-03 0. -1.
        -12    1    3    3    0    0  0.34317639856E+01  0.90773209717E+01 -0.83517551611E+00  0.97402401520E+01  0.00000000000E+00 0.  1.
</event>
<event>
 7    1  0.2966651E-011  0.5052886E+02  0.7816164E-02  0.1300439E+00
        -11   -1    0    0    0    0  0.00000000000E+00  0.00000000000E+00  0.45593999997E+02  0.45594000000E+02  0.51100000000E-03 0.  1.
         11   -1    0    0    0    0 -0.00000000000E+00 -0.00000000000E+00 -0.45593999997E+02  0.45594000000E+02  0.51100000000E-03 0. -1.
    9900012    2    1    2    0    0 -0.28757654121E+02  0.13230072997E+02  0.25517214546E+02  0.50528859081E+02  0.29999997664E+02 0.  0.
         12    1    1    2    0    0  0.28757654121E+02 -0.13230072997E+02 -0.25517214546E+02  0.40659140919E+02  0.00000000000E+00 0. -1.
         11    1    3    3    0    0  0.12707021397E+01  0.11115705154E+01 -0.34517045080E+01  0.38424649914E+01  0.51100000000E-03 0. -1.
        -11    1    3    3    0    0 -0.26049236949E+02  0.56660605848E+01  0.28598590519E+02  0.39096628603E+02  0.51100000000E-03 0.  1.
        -12    1    3    3    0    0 -0.39791193121E+01  0.64524418965E+01  0.37032853478E+00  0.75897654873E+01  0.00000000000E+00 0.  1.
</event>
<event>
 7    1  0.2966651E-011  0.5052888E+02  0.7816164E-02  0.1300439E+00
        -11   -1    0    0    0    0  0.00000000000E+00  0.00000000000E+00  0.45593999997E+02  0.45594000000E+02  0.51100000000E-03 0.  1.
         11   -1    0    0    0    0 -0.00000000000E+00 -0.00000000000E+00 -0.45593999997E+02  0.45594000000E+02  0.51100000000E-03 0. -1.
    9900012    2    1    2    0    0  0.17840855597E+02  0.19698380162E+02  0.30770791851E+02  0.50528881212E+02  0.30000064933E+02 0.  0.
         12    1    1    2    0    0 -0.17840855597E+02 -0.19698380162E+02 -0.30770791851E+02  0.40659118788E+02  0.00000000000E+00 0. -1.
         11    1    3    3    0    0 -0.47781545971E+01 -0.35496106004E+01  0.22030501819E+01  0.63469620397E+01  0.51100000000E-03 0. -1.
        -11    1    3    3    0    0  0.57244042645E+01  0.66842616683E+01  0.13554431141E+02  0.16160778510E+02  0.51100000000E-03 0.  1.
         12    1    3    3    0    0  0.16894605930E+02  0.16563729095E+02  0.15013310528E+02  0.28021140663E+02  0.00000000000E+00 0. -1.
</event>
<event>
 7    1  0.2966651E-011  0.5052886E+02  0.7816164E-02  0.1300439E+00
        -11   -1    0    0    0    0  0.00000000000E+00  0.00000000000E+00  0.45593999997E+02  0.45594000000E+02  0.51100000000E-03 0. -1.
         11   -1    0    0    0    0 -0.00000000000E+00 -0.00000000000E+00 -0.45593999997E+02  0.45594000000E+02  0.51100000000E-03 0.  1.
    9900012    2    1    2    0    0  0.47551069198E+01 -0.14040165709E+02 -0.37860648672E+02  0.50528855729E+02  0.29999987474E+02 0.  0.
         12    1    1    2    0    0 -0.47551069198E+01  0.14040165709E+02  0.37860648672E+02  0.40659144271E+02  0.00000000000E+00 0. -1.
         11    1    3    3    0    0 -0.32344456740E+01 -0.38342677246E+01 -0.25761923898E+01  0.56391502278E+01  0.51100000000E-03 0. -1.
        -11    1    3    3    0    0  0.14784682185E+02 -0.42273578908E+01 -0.31551708563E+02  0.35099397367E+02  0.51100000000E-03 0.  1.
        -12    1    3    3    0    0 -0.67951295912E+01 -0.59785400939E+01 -0.37327477197E+01  0.97903081338E+01  0.00000000000E+00 0.  1.
</event>
<event>
 7    1  0.2966651E-011  0.5052886E+02  0.7816164E-02  0.1300439E+00
        -11   -1    0    0    0    0  0.00000000000E+00  0.00000000000E+00  0.45593999997E+02  0.45594000000E+02  0.51100000000E-03 0. -1.
         11   -1    0    0    0    0 -0.00000000000E+00 -0.00000000000E+00 -0.45593999997E+02  0.45594000000E+02  0.51100000000E-03 0.  1.
    9900012    2    1    2    0    0  0.12002685804E+02 -0.38208457910E+02 -0.70153365712E+01  0.50528859950E+02  0.30000000305E+02 0.  0.
         12    1    1    2    0    0 -0.12002685804E+02  0.38208457910E+02  0.70153365712E+01  0.40659140050E+02  0.00000000000E+00 0. -1.
         11    1    3    3    0    0  0.13045212804E+02 -0.87061678151E+01 -0.88392885578E+01  0.18002998572E+02  0.51100000000E-03 0. -1.
        -11    1    3    3    0    0 -0.70041976807E+01 -0.16839879154E+02 -0.92881458729E+00  0.18262064830E+02  0.51100000000E-03 0.  1.
         12    1    3    3    0    0  0.59616706801E+01 -0.12662410941E+02  0.27527665738E+01  0.14263796548E+02  0.00000000000E+00 0. -1.
</event>
<event>
 7    1  0.2966651E-011  0.5052888E+02  0.7816164E-02  0.1300439E+00
        -11   -1    0    0    0    0  0.00000000000E+00  0.00000000000E+00  0.45593999997E+02  0.45594000000E+02  0.51100000000E-03 0.  1.
         11   -1    0    0    0    0 -0.00000000000E+00 -0.00000000000E+00 -0.45593999997E+02  0.45594000000E+02  0.51100000000E-03 0. -1.
    9900012    2    1    2    0    0 -0.29931938268E+02 -0.19382921123E+02  0.19533192748E+02  0.50528878285E+02  0.30000056034E+02 0.  0.
         12    1    1    2    0    0  0.29931938268E+02  0.19382921123E+02 -0.19533192748E+02  0.40659121715E+02  0.00000000000E+00 0. -1.
         11    1    3    3    0    0  0.14779037034E+01 -0.41011474323E+01 -0.54500591443E+01  0.69790224642E+01  0.51100000000E-03 0. -1.
        -11    1    3    3    0    0 -0.23197488601E+02 -0.76280705921E+01  0.17875876949E+02  0.30263144504E+02  0.51100000000E-03 0.  1.
         12    1    3    3    0    0 -0.82123533704E+01 -0.76537030991E+01  0.71073749438E+01  0.13286711316E+02  0.00000000000E+00 0. -1.
</event>
<event>
 7    1  0.2966651E-011  0.5052883E+02  0.7816164E-02  0.1300439E+00
        -11   -1    0    0    0    0  0.00000000000E+00  0.00000000000E+00  0.45593999997E+02  0.45594000000E+02  0.51100000000E-03 0. -1.
         11   -1    0    0    0    0 -0.00000000000E+00 -0.00000000000E+00 -0.45593999997E+02  0.45594000000E+02  0.51100000000E-03 0.  1.
    9900012    2    1    2    0    0 -0.19953825750E+01 -0.17491870504E+02 -0.36649977451E+02  0.50528832122E+02  0.29999915719E+02 0.  0.
         12    1    1    2    0    0  0.19953825750E+01  0.17491870504E+02  0.36649977451E+02  0.40659167878E+02  0.00000000000E+00 0. -1.
         11    1    3    3    0    0 -0.64315064064E+01  0.64903914236E+01 -0.11324723292E+02  0.14551247829E+02  0.51100000000E-03 0. -1.
        -11    1    3    3    0    0  0.22577847669E+01 -0.15147484337E+02 -0.20758618990E+02  0.25796591566E+02  0.51100000000E-03 0.  1.
         12    1    3    3    0    0  0.21783390645E+01 -0.88347775899E+01 -0.45666351694E+01  0.10180992727E+02  0.00000000000E+00 0. -1.
</event>
<event>
 7    1  0.2966651E-011  0.5052886E+02  0.7816164E-02  0.1300439E+00
        -11   -1    0    0    0    0  0.00000000000E+00  0.00000000000E+00  0.45593999997E+02  0.45594000000E+02  0.51100000000E-03 0. -1.
         11   -1    0    0    0    0 -0.00000000000E+00 -0.00000000000E+00 -0.45593999997E+02  0.45594000000E+02  0.51100000000E-03 0.  1.
    9900012    2    1    2    0    0  0.10730796113E+01 -0.36245304124E+02 -0.18392714645E+02  0.50528861754E+02  0.30000005788E+02 0.  0.
         12    1    1    2    0    0 -0.10730796113E+01  0.36245304124E+02  0.18392714645E+02  0.40659138246E+02  0.00000000000E+00 0. -1.
         11    1    3    3    0    0 -0.10197212477E+02 -0.21069403349E+02 -0.21965141299E+01  0.23510158961E+02  0.51100000000E-03 0. -1.
        -11    1    3    3    0    0  0.28199707517E+01 -0.94607362141E+01 -0.13009381575E+02  0.16331006521E+02  0.51100000000E-03 0.  1.
         12    1    3    3    0    0  0.84503213368E+01 -0.57151645606E+01 -0.31868189399E+01  0.10687696272E+02  0.00000000000E+00 0. -1.
</event>
<event>
 7    1  0.2966651E-011  0.5052886E+02  0.7816164E-02  0.1300439E+00
        -11   -1    0    0    0    0  0.00000000000E+00  0.00000000000E+00  0.45593999997E+02  0.45594000000E+02  0.51100000000E-03 0.  1.
         11   -1    0    0    0    0 -0.00000000000E+00 -0.00000000000E+00 -0.45593999997E+02  0.45594000000E+02  0.51100000000E-03 0. -1.
    9900012    2    1    2    0    0 -0.17351731254E+02 -0.26981784905E+02  0.24981317379E+02  0.50528861886E+02  0.30000006188E+02 0.  0.
         12    1    1    2    0    0  0.17351731254E+02  0.26981784905E+02 -0.24981317379E+02  0.40659138114E+02  0.00000000000E+00 0. -1.
         11    1    3    3    0    0  0.45968040467E+00 -0.13747327717E+02  0.27386769258E+01  0.14025001853E+02  0.51100000000E-03 0. -1.
        -11    1    3    3    0    0 -0.19329631662E+02 -0.12073054051E+02  0.11378425795E+02  0.25472767187E+02  0.51100000000E-03 0.  1.
        -12    1    3    3    0    0  0.15182200033E+01 -0.11614031373E+01  0.10864214658E+02  0.11031092846E+02  0.00000000000E+00 0.  1.
</event>
<event>
 7    1  0.2966651E-011  0.5052887E+02  0.7816164E-02  0.1300439E+00
        -11   -1    0    0    0    0  0.00000000000E+00  0.00000000000E+00  0.45593999997E+02  0.45594000000E+02  0.51100000000E-03 0.  1.
         11   -1    0    0    0    0 -0.00000000000E+00 -0.00000000000E+00 -0.45593999997E+02  0.45594000000E+02  0.51100000000E-03 0. -1.
    9900012    2    1    2    0    0 -0.34855548633E+02  0.16621925291E+01  0.20868462338E+02  0.50528869723E+02  0.30000030010E+02 0.  0.
         12    1    1    2    0    0  0.34855548633E+02 -0.16621925291E+01 -0.20868462338E+02  0.40659130277E+02  0.00000000000E+00 0. -1.
         11    1    3    3    0    0 -0.22843914140E+02  0.82421968319E+01  0.35147905055E+00  0.24287893273E+02  0.51100000000E-03 0. -1.
        -11    1    3    3    0    0 -0.10063254121E+02 -0.18455759130E+01  0.89565381717E+01  0.13597603106E+02  0.51100000000E-03 0.  1.
         12    1    3    3    0    0 -0.19483803728E+01 -0.47344283898E+01  0.11560445115E+02  0.12643373344E+02  0.00000000000E+00 0. -1.
</event>
<event>
 7    1  0.2966651E-011  0.5052886E+02  0.7816164E-02  0.1300439E+00
        -11   -1    0    0    0    0  0.00000000000E+00  0.00000000000E+00  0.45593999997E+02  0.45594000000E+02  0.51100000000E-03 0.  1.
         11   -1    0    0    0    0 -0.00000000000E+00 -0.00000000000E+00 -0.45593999997E+02  0.45594000000E+02  0.51100000000E-03 0. -1.
    9900012    2    1    2    0    0 -0.17036138573E+01 -0.28694945417E+02  0.28755239047E+02  0.50528856314E+02  0.29999989251E+02 0.  0.
         12    1    1    2    0    0  0.17036138573E+01  0.28694945417E+02 -0.28755239047E+02  0.40659143686E+02  0.00000000000E+00 0. -1.
         11    1    3    3    0    0 -0.58791632155E+01 -0.14208941669E+02  0.29438967879E+02  0.33213121105E+02  0.51100000000E-03 0. -1.
        -11    1    3    3    0    0  0.37471123005E+01 -0.11002047805E+01 -0.31559959825E+00  0.39180230371E+01  0.51100000000E-03 0.  1.
         12    1    3    3    0    0  0.42843705768E+00 -0.13385798967E+02 -0.36812923395E+00  0.13397712172E+02  0.00000000000E+00 0. -1.
</event>
<event>
 7    1  0.2966651E-011  0.5052886E+02  0.7816164E-02  0.1300439E+00
        -11   -1    0    0    0    0  0.00000000000E+00  0.00000000000E+00  0.45593999997E+02  0.45594000000E+02  0.51100000000E-03 0. -1.
         11   -1    0    0    0    0 -0.00000000000E+00 -0.00000000000E+00 -0.45593999997E+02  0.45594000000E+02  0.51100000000E-03 0.  1.
    9900012    2    1    2    0    0  0.40224757932E+02 -0.57624378298E+01 -0.13886927617E+01  0.50528864397E+02  0.30000013821E+02 0.  0.
         12    1    1    2    0    0 -0.40224757932E+02  0.57624378298E+01  0.13886927617E+01  0.40659135603E+02  0.00000000000E+00 0. -1.
         11    1    3    3    0    0  0.33823580161E+02 -0.36747614241E+00  0.92255272875E+01  0.35061089082E+02  0.51100000000E-03 0. -1.
        -11    1    3    3    0    0  0.57661567699E+01 -0.70163135515E+01 -0.70359916001E+01  0.11488359230E+02  0.51100000000E-03 0.  1.
         12    1    3    3    0    0  0.63502100076E+00  0.16213518641E+01 -0.35782284492E+01  0.39794160844E+01  0.00000000000E+00 0. -1.
</event>
<event>
 7    1  0.2966651E-011  0.5052886E+02  0.7816164E-02  0.1300439E+00
        -11   -1    0    0    0    0  0.00000000000E+00  0.00000000000E+00  0.45593999997E+02  0.45594000000E+02  0.51100000000E-03 0.  1.
         11   -1    0    0    0    0 -0.00000000000E+00 -0.00000000000E+00 -0.45593999997E+02  0.45594000000E+02  0.51100000000E-03 0. -1.
    9900012    2    1    2    0    0  0.67429865897E+01 -0.11401913428E+02  0.38440788484E+02  0.50528859365E+02  0.29999998525E+02 0.  0.
         12    1    1    2    0    0 -0.67429865897E+01  0.11401913428E+02 -0.38440788484E+02  0.40659140635E+02  0.00000000000E+00 0. -1.
         11    1    3    3    0    0  0.18859409710E+01 -0.27307110307E+01 -0.44499740273E+01  0.55512003372E+01  0.51100000000E-03 0. -1.
        -11    1    3    3    0    0  0.36510441033E+01 -0.75927649455E+01  0.16399339701E+02  0.18436880036E+02  0.51100000000E-03 0.  1.
         12    1    3    3    0    0  0.12060015154E+01 -0.10784374519E+01  0.26491422809E+02  0.26540778991E+02  0.00000000000E+00 0. -1.
</event>
<event>
 7    1  0.2966651E-011  0.5052887E+02  0.7816164E-02  0.1300439E+00
        -11   -1    0    0    0    0  0.00000000000E+00  0.00000000000E+00  0.45593999997E+02  0.45594000000E+02  0.51100000000E-03 0.  1.
         11   -1    0    0    0    0 -0.00000000000E+00 -0.00000000000E+00 -0.45593999997E+02  0.45594000000E+02  0.51100000000E-03 0. -1.
    9900012    2    1    2    0    0 -0.11439283709E+02 -0.38948211747E+02 -0.23118310743E+01  0.50528868517E+02  0.30000026344E+02 0.  0.
         12    1    1    2    0    0  0.11439283709E+02  0.38948211747E+02  0.23118310743E+01  0.40659131483E+02  0.00000000000E+00 0. -1.
         11    1    3    3    0    0 -0.39202245964E+01 -0.59502183319E+01 -0.59843190737E+01  0.93051240787E+01  0.51100000000E-03 0. -1.
        -11    1    3    3    0    0  0.52727665392E+01 -0.13803808819E+02  0.93278200300E+01  0.17474422213E+02  0.51100000000E-03 0.  1.
        -12    1    3    3    0    0 -0.12791825651E+02 -0.19194184596E+02 -0.56553320306E+01  0.23749322226E+02  0.00000000000E+00 0.  1.
</event>
<event>
 7    1  0.2966651E-011  0.5052885E+02  0.7816164E-02  0.1300439E+00
        -11   -1    0    0    0    0  0.00000000000E+00  0.00000000000E+00  0.45593999997E+02  0.45594000000E+02  0.51100000000E-03 0.  1.
         11   -1    0    0    0    0 -0.00000000000E+00 -0.00000000000E+00 -0.45593999997E+02  0.45594000000E+02  0.51100000000E-03 0. -1.
    9900012    2    1    2    0    0  0.22456309170E+02 -0.27125177860E+02  0.20324992516E+02  0.50528850768E+02  0.29999972394E+02 0.  0.
         12    1    1    2    0    0 -0.22456309170E+02  0.27125177860E+02 -0.20324992516E+02  0.40659149232E+02  0.00000000000E+00 0. -1.
         11    1    3    3    0    0  0.42915700524E+01  0.60729104028E+01  0.24460686705E+01  0.78282224340E+01  0.51100000000E-03 0. -1.
        -11    1    3    3    0    0  0.12168165009E+02 -0.22132181743E+02  0.16193335047E+02  0.30002030075E+02  0.51100000000E-03 0.  1.
         12    1    3    3    0    0  0.59965741090E+01 -0.11065906520E+02  0.16855887986E+01  0.12698598259E+02  0.00000000000E+00 0. -1.
</event>
<event>
 7    1  0.2966651E-011  0.5052886E+02  0.7816164E-02  0.1300439E+00
        -11   -1    0    0    0    0  0.00000000000E+00  0.00000000000E+00  0.45593999997E+02  0.45594000000E+02  0.51100000000E-03 0.  1.
         11   -1    0    0    0    0 -0.00000000000E+00 -0.00000000000E+00 -0.45593999997E+02  0.45594000000E+02  0.51100000000E-03 0. -1.
    9900012    2    1    2    0    0 -0.64670325918E+01  0.37536825433E+02  0.14224282104E+02  0.50528856188E+02  0.29999988870E+02 0.  0.
         12    1    1    2    0    0  0.64670325918E+01 -0.37536825433E+02 -0.14224282104E+02  0.40659143812E+02  0.00000000000E+00 0. -1.
         11    1    3    3    0    0  0.39051955866E+01  0.16299007900E+02 -0.44089068623E+01  0.17330512718E+02  0.51100000000E-03 0. -1.
        -11    1    3    3    0    0 -0.42460018996E+01  0.19895246626E+02  0.10397032599E+02  0.22846173805E+02  0.51100000000E-03 0.  1.
         12    1    3    3    0    0 -0.61262262789E+01  0.13425709074E+01  0.82361563676E+01  0.10352169665E+02  0.00000000000E+00 0. -1.
</event>
<event>
 7    1  0.2966651E-011  0.5052886E+02  0.7816164E-02  0.1300439E+00
        -11   -1    0    0    0    0  0.00000000000E+00  0.00000000000E+00  0.45593999997E+02  0.45594000000E+02  0.51100000000E-03 0. -1.
         11   -1    0    0    0    0 -0.00000000000E+00 -0.00000000000E+00 -0.45593999997E+02  0.45594000000E+02  0.51100000000E-03 0.  1.
    9900012    2    1    2    0    0  0.61147642357E+01  0.12872130830E+02 -0.38079958911E+02  0.50528863702E+02  0.30000011710E+02 0.  0.
         12    1    1    2    0    0 -0.61147642357E+01 -0.12872130830E+02  0.38079958911E+02  0.40659136298E+02  0.00000000000E+00 0. -1.
         11    1    3    3    0    0 -0.75959145852E+01 -0.21001056874E+01 -0.17600842735E+02  0.19284657827E+02  0.51100000000E-03 0. -1.
        -11    1    3    3    0    0  0.56454285314E+01  0.12075704524E+02 -0.17854360497E+02  0.22281644735E+02  0.51100000000E-03 0.  1.
         12    1    3    3    0    0  0.80652502895E+01  0.28965319939E+01 -0.26247556793E+01  0.89625611406E+01  0.00000000000E+00 0. -1.
</event>
<event>
 7    1  0.2966651E-011  0.5052886E+02  0.7816164E-02  0.1300439E+00
        -11   -1    0    0    0    0  0.00000000000E+00  0.00000000000E+00  0.45593999997E+02  0.45594000000E+02  0.51100000000E-03 0.  1.
         11   -1    0    0    0    0 -0.00000000000E+00 -0.00000000000E+00 -0.45593999997E+02  0.45594000000E+02  0.51100000000E-03 0. -1.
    9900012    2    1    2    0    0 -0.27712134387E+02  0.28758656939E+02  0.76251671810E+01  0.50528856923E+02  0.29999991103E+02 0.  0.
         12    1    1    2    0    0  0.27712134387E+02 -0.28758656939E+02 -0.76251671810E+01  0.40659143077E+02  0.00000000000E+00 0. -1.
         11    1    3    3    0    0 -0.11139728177E+02  0.75294967487E+01 -0.29696284412E+01  0.13769733421E+02  0.51100000000E-03 0. -1.
        -11    1    3    3    0    0 -0.90276235860E+01  0.15798568337E+02  0.17448313642E+02  0.25209847249E+02  0.51100000000E-03 0.  1.
        -12    1    3    3    0    0 -0.75447826238E+01  0.54305918540E+01 -0.68535180197E+01  0.11549276253E+02  0.00000000000E+00 0.  1.
</event>
<event>
 7    1  0.2966651E-011  0.5052887E+02  0.7816164E-02  0.1300439E+00
        -11   -1    0    0    0    0  0.00000000000E+00  0.00000000000E+00  0.45593999997E+02  0.45594000000E+02  0.51100000000E-03 0. -1.
         11   -1    0    0    0    0 -0.00000000000E+00 -0.00000000000E+00 -0.45593999997E+02  0.45594000000E+02  0.51100000000E-03 0.  1.
    9900012    2    1    2    0    0  0.10252198680E+02 -0.38261037423E+02 -0.91733572287E+01  0.50528867627E+02  0.30000023640E+02 0.  0.
         12    1    1    2    0    0 -0.10252198680E+02  0.38261037423E+02  0.91733572287E+01  0.40659132373E+02  0.00000000000E+00 0. -1.
         11    1    3    3    0    0  0.36085358360E+00  0.10728428980E+01  0.37171147083E+01  0.38856336946E+01  0.51100000000E-03 0. -1.
        -11    1    3    3    0    0  0.63086670888E+01 -0.35491553970E+02 -0.39369082953E+01  0.36262224571E+02  0.51100000000E-03 0.  1.
         12    1    3    3    0    0  0.35826780074E+01 -0.38423263509E+01 -0.89535636416E+01  0.10381009362E+02  0.00000000000E+00 0. -1.
</event>
<event>
 7    1  0.2966651E-011  0.5052886E+02  0.7816164E-02  0.1300439E+00
        -11   -1    0    0    0    0  0.00000000000E+00  0.00000000000E+00  0.45593999997E+02  0.45594000000E+02  0.51100000000E-03 0. -1.
         11   -1    0    0    0    0 -0.00000000000E+00 -0.00000000000E+00 -0.45593999997E+02  0.45594000000E+02  0.51100000000E-03 0.  1.
    9900012    2    1    2    0    0 -0.39046673988E+02 -0.93922494400E+01  0.63488916955E+01  0.50528861730E+02  0.30000005715E+02 0.  0.
         12    1    1    2    0    0  0.39046673988E+02  0.93922494400E+01 -0.63488916955E+01  0.40659138270E+02  0.00000000000E+00 0. -1.
         11    1    3    3    0    0 -0.67230575675E+01  0.60679373640E+01 -0.21330183117E+01  0.93042535589E+01  0.51100000000E-03 0. -1.
        -11    1    3    3    0    0 -0.30343003405E+02 -0.11626091740E+02  0.90704852458E+00  0.32506716261E+02  0.51100000000E-03 0.  1.
        -12    1    3    3    0    0 -0.19806130158E+01 -0.38340950640E+01  0.75748614826E+01  0.87178919102E+01  0.00000000000E+00 0.  1.
</event>
<event>
 7    1  0.2966651E-011  0.5052887E+02  0.7816164E-02  0.1300439E+00
        -11   -1    0    0    0    0  0.00000000000E+00  0.00000000000E+00  0.45593999997E+02  0.45594000000E+02  0.51100000000E-03 0.  1.
         11   -1    0    0    0    0 -0.00000000000E+00 -0.00000000000E+00 -0.45593999997E+02  0.45594000000E+02  0.51100000000E-03 0. -1.
    9900012    2    1    2    0    0 -0.66209170932E+01 -0.98057190541E+00  0.40104450881E+02  0.50528867632E+02  0.30000023655E+02 0.  0.
         12    1    1    2    0    0  0.66209170932E+01  0.98057190541E+00 -0.40104450881E+02  0.40659132368E+02  0.00000000000E+00 0. -1.
         11    1    3    3    0    0 -0.15733453339E+02 -0.57700765610E+00  0.23387361317E+02  0.28192962977E+02  0.51100000000E-03 0.  1.
        -11    1    3    3    0    0  0.54833856426E+01 -0.10709675086E+01  0.39393306839E+00  0.56008635972E+01  0.51100000000E-03 0. -1.
        -12    1    3    3    0    0  0.36291506035E+01  0.66740325932E+00  0.16323156496E+02  0.16735041058E+02  0.00000000000E+00 0.  1.
</event>
<event>
 7    1  0.2966651E-011  0.5052887E+02  0.7816164E-02  0.1300439E+00
        -11   -1    0    0    0    0  0.00000000000E+00  0.00000000000E+00  0.45593999997E+02  0.45594000000E+02  0.51100000000E-03 0.  1.
         11   -1    0    0    0    0 -0.00000000000E+00 -0.00000000000E+00 -0.45593999997E+02  0.45594000000E+02  0.51100000000E-03 0. -1.
    9900012    2    1    2    0    0 -0.30817862668E+01  0.39558536894E+02  0.88763561421E+01  0.50528868847E+02  0.30000027347E+02 0.  0.
         12    1    1    2    0    0  0.30817862668E+01 -0.39558536894E+02 -0.88763561421E+01  0.40659131153E+02  0.00000000000E+00 0. -1.
         11    1    3    3    0    0 -0.65576115595E+01  0.51762424591E+01 -0.70771657720E+01  0.10949065302E+02  0.51100000000E-03 0. -1.
        -11    1    3    3    0    0  0.26401093967E+01  0.34755610546E+02  0.16445572389E+02  0.38540621343E+02  0.51100000000E-03 0.  1.
        -12    1    3    3    0    0  0.83571589593E+00 -0.37331611137E+00 -0.49205047522E+00  0.10391822015E+01  0.00000000000E+00 0.  1.
</event>
<event>
 7    1  0.2966651E-011  0.5052887E+02  0.7816164E-02  0.1300439E+00
        -11   -1    0    0    0    0  0.00000000000E+00  0.00000000000E+00  0.45593999997E+02  0.45594000000E+02  0.51100000000E-03 0.  1.
         11   -1    0    0    0    0 -0.00000000000E+00 -0.00000000000E+00 -0.45593999997E+02  0.45594000000E+02  0.51100000000E-03 0. -1.
    9900012    2    1    2    0    0 -0.71601652870E+01  0.36862419573E+02  0.15590343051E+02  0.50528871380E+02  0.30000035045E+02 0.  0.
         12    1    1    2    0    0  0.71601652870E+01 -0.36862419573E+02 -0.15590343051E+02  0.40659128620E+02  0.00000000000E+00 0. -1.
         11    1    3    3    0    0  0.20505920066E+01  0.62000465395E+00 -0.62391387888E+00  0.22312781399E+01  0.51100000000E-03 0. -1.
        -11    1    3    3    0    0 -0.13673625099E+02  0.15213122173E+02  0.17275102907E+02  0.26773798578E+02  0.51100000000E-03 0.  1.
        -12    1    3    3    0    0  0.44628678050E+01  0.21029292746E+02 -0.10608459768E+01  0.21523794662E+02  0.00000000000E+00 0.  1.
</event>
<event>
 7    1  0.2966651E-011  0.5052887E+02  0.7816164E-02  0.1300439E+00
        -11   -1    0    0    0    0  0.00000000000E+00  0.00000000000E+00  0.45593999997E+02  0.45594000000E+02  0.51100000000E-03 0. -1.
         11   -1    0    0    0    0 -0.00000000000E+00 -0.00000000000E+00 -0.45593999997E+02  0.45594000000E+02  0.51100000000E-03 0.  1.
    9900012    2    1    2    0    0 -0.36780903346E+02  0.14113469326E+02 -0.10056848065E+02  0.50528867442E+02  0.30000023078E+02 0.  0.
         12    1    1    2    0    0  0.36780903346E+02 -0.14113469326E+02  0.10056848065E+02  0.40659132558E+02  0.00000000000E+00 0. -1.
         11    1    3    3    0    0  0.29474409229E+01  0.71847420454E+01 -0.34510509413E+01  0.84980985588E+01  0.51100000000E-03 0. -1.
        -11    1    3    3    0    0 -0.12936717448E+02 -0.16292283107E+01 -0.46287048090E+01  0.13836110424E+02  0.51100000000E-03 0.  1.
         12    1    3    3    0    0 -0.26791626821E+02  0.85579555915E+01 -0.19770923143E+01  0.28194658459E+02  0.00000000000E+00 0. -1.
</event>
<event>
 7    1  0.2966651E-011  0.5052886E+02  0.7816164E-02  0.1300439E+00
        -11   -1    0    0    0    0  0.00000000000E+00  0.00000000000E+00  0.45593999997E+02  0.45594000000E+02  0.51100000000E-03 0. -1.
         11   -1    0    0    0    0 -0.00000000000E+00 -0.00000000000E+00 -0.45593999997E+02  0.45594000000E+02  0.51100000000E-03 0.  1.
    9900012    2    1    2    0    0 -0.35823719212E+02  0.12755680174E+02 -0.14391638589E+02  0.50528862083E+02  0.30000006787E+02 0.  0.
         12    1    1    2    0    0  0.35823719212E+02 -0.12755680174E+02  0.14391638589E+02  0.40659137917E+02  0.00000000000E+00 0. -1.
         11    1    3    3    0    0 -0.77455362325E+01  0.42833214935E+01  0.45600869375E+01  0.99566343552E+01  0.51100000000E-03 0. -1.
        -11    1    3    3    0    0 -0.88014617793E+00 -0.28026355903E+00 -0.10829039126E+02  0.10868362048E+02  0.51100000000E-03 0.  1.
        -12    1    3    3    0    0 -0.27198036802E+02  0.87526222391E+01 -0.81226864009E+01  0.29703865679E+02  0.00000000000E+00 0.  1.
</event>
<event>
 7    1  0.2966651E-011  0.5052886E+02  0.7816164E-02  0.1300439E+00
        -11   -1    0    0    0    0  0.00000000000E+00  0.00000000000E+00  0.45593999997E+02  0.45594000000E+02  0.51100000000E-03 0.  1.
         11   -1    0    0    0    0 -0.00000000000E+00 -0.00000000000E+00 -0.45593999997E+02  0.45594000000E+02  0.51100000000E-03 0. -1.
    9900012    2    1    2    0    0  0.27322823710E+01  0.19334485286E+02  0.35663398510E+02  0.50528859803E+02  0.29999999859E+02 0.  0.
         12    1    1    2    0    0 -0.27322823710E+01 -0.19334485286E+02 -0.35663398510E+02  0.40659140197E+02  0.00000000000E+00 0. -1.
         11    1    3    3    0    0 -0.13430019686E+01 -0.23094195574E+01 -0.39800122383E+01  0.47934925323E+01  0.51100000000E-03 0. -1.
        -11    1    3    3    0    0  0.39329368720E+01  0.81746675637E+01  0.19451804820E+02  0.21463128691E+02  0.51100000000E-03 0.  1.
         12    1    3    3    0    0  0.14234746758E+00  0.13469237279E+02  0.20191605929E+02  0.24272238580E+02  0.00000000000E+00 0. -1.
</event>
<event>
 7    1  0.2966651E-011  0.5052886E+02  0.7816164E-02  0.1300439E+00
        -11   -1    0    0    0    0  0.00000000000E+00  0.00000000000E+00  0.45593999997E+02  0.45594000000E+02  0.51100000000E-03 0. -1.
         11   -1    0    0    0    0 -0.00000000000E+00 -0.00000000000E+00 -0.45593999997E+02  0.45594000000E+02  0.51100000000E-03 0.  1.
    9900012    2    1    2    0    0  0.37735818430E+02 -0.46682000932E+01 -0.14400749715E+02  0.50528859859E+02  0.30000000026E+02 0.  0.
         12    1    1    2    0    0 -0.37735818430E+02  0.46682000932E+01  0.14400749715E+02  0.40659140141E+02  0.00000000000E+00 0. -1.
         11    1    3    3    0    0  0.35095433326E+02 -0.15397128905E+01 -0.79762180613E+00  0.35138246356E+02  0.51100000000E-03 0. -1.
        -11    1    3    3    0    0  0.83489288083E+00  0.16614443330E+01 -0.55023062828E+01  0.58079960472E+01  0.51100000000E-03 0.  1.
         12    1    3    3    0    0  0.18054922228E+01 -0.47899315357E+01 -0.81008216259E+01  0.95826174554E+01  0.00000000000E+00 0. -1.
</event>
<event>
 7    1  0.2966651E-011  0.5052886E+02  0.7816164E-02  0.1300439E+00
        -11   -1    0    0    0    0  0.00000000000E+00  0.00000000000E+00  0.45593999997E+02  0.45594000000E+02  0.51100000000E-03 0. -1.
         11   -1    0    0    0    0 -0.00000000000E+00 -0.00000000000E+00 -0.45593999997E+02  0.45594000000E+02  0.51100000000E-03 0.  1.
    9900012    2    1    2    0    0 -0.24339432895E+02 -0.32181322594E+02 -0.50119614499E+01  0.50528864801E+02  0.30000015048E+02 0.  0.
         12    1    1    2    0    0  0.24339432895E+02  0.32181322594E+02  0.50119614499E+01  0.40659135199E+02  0.00000000000E+00 0. -1.
         11    1    3    3    0    0 -0.79125051344E+01 -0.76144499680E+01  0.33715289631E+01  0.11487157770E+02  0.51100000000E-03 0. -1.
        -11    1    3    3    0    0 -0.18742740421E-01 -0.12620925375E+02 -0.13114913837E+02  0.18201348133E+02  0.51100000000E-03 0.  1.
        -12    1    3    3    0    0 -0.16408185021E+02 -0.11945947251E+02  0.47314234243E+01  0.20840358898E+02  0.00000000000E+00 0.  1.
</event>
<event>
 7    1  0.2966651E-011  0.5052886E+02  0.7816164E-02  0.1300439E+00
        -11   -1    0    0    0    0  0.00000000000E+00  0.00000000000E+00  0.45593999997E+02  0.45594000000E+02  0.51100000000E-03 0.  1.
         11   -1    0    0    0    0 -0.00000000000E+00 -0.00000000000E+00 -0.45593999997E+02  0.45594000000E+02  0.51100000000E-03 0. -1.
    9900012    2    1    2    0    0 -0.41996871022E+01 -0.29486543061E+02  0.27678008639E+02  0.50528858892E+02  0.29999997087E+02 0.  0.
         12    1    1    2    0    0  0.41996871022E+01  0.29486543061E+02 -0.27678008639E+02  0.40659141108E+02  0.00000000000E+00 0. -1.
         11    1    3    3    0    0 -0.23723012201E+01 -0.23716705907E+01  0.20756727002E+02  0.21026039822E+02  0.51100000000E-03 0. -1.
        -11    1    3    3    0    0 -0.22767260246E+00 -0.23810617183E+02  0.27876303795E+01  0.23974323949E+02  0.51100000000E-03 0.  1.
        -12    1    3    3    0    0 -0.15997132797E+01 -0.33042552876E+01  0.41336512573E+01  0.55284951207E+01  0.00000000000E+00 0.  1.
</event>
<event>
 7    1  0.2966651E-011  0.5052886E+02  0.7816164E-02  0.1300439E+00
        -11   -1    0    0    0    0  0.00000000000E+00  0.00000000000E+00  0.45593999997E+02  0.45594000000E+02  0.51100000000E-03 0.  1.
         11   -1    0    0    0    0 -0.00000000000E+00 -0.00000000000E+00 -0.45593999997E+02  0.45594000000E+02  0.51100000000E-03 0. -1.
    9900012    2    1    2    0    0 -0.32007859218E+02 -0.24518000595E+02 -0.52469518052E+01  0.50528857016E+02  0.29999991387E+02 0.  0.
         12    1    1    2    0    0  0.32007859218E+02  0.24518000595E+02  0.52469518052E+01  0.40659142984E+02  0.00000000000E+00 0. -1.
         11    1    3    3    0    0 -0.15508096459E+02  0.85269786743E+00  0.79934843170E+00  0.15552077276E+02  0.51100000000E-03 0. -1.
        -11    1    3    3    0    0  0.30841071764E+01 -0.67699090592E+01 -0.14320202607E+01  0.75758872769E+01  0.51100000000E-03 0.  1.
        -12    1    3    3    0    0 -0.19583869935E+02 -0.18600789403E+02 -0.46142799762E+01  0.27400892463E+02  0.00000000000E+00 0.  1.
</event>
<event>
 7    1  0.2966651E-011  0.5052888E+02  0.7816164E-02  0.1300439E+00
        -11   -1    0    0    0    0  0.00000000000E+00  0.00000000000E+00  0.45593999997E+02  0.45594000000E+02  0.51100000000E-03 0.  1.
         11   -1    0    0    0    0 -0.00000000000E+00 -0.00000000000E+00 -0.45593999997E+02  0.45594000000E+02  0.51100000000E-03 0. -1.
    9900012    2    1    2    0    0 -0.19469032241E+02  0.28122545265E+02  0.21982803854E+02  0.50528875146E+02  0.30000046494E+02 0.  0.
         12    1    1    2    0    0  0.19469032241E+02 -0.28122545265E+02 -0.21982803854E+02  0.40659124854E+02  0.00000000000E+00 0. -1.
         11    1    3    3    0    0 -0.67856318593E+01 -0.10285965601E+01 -0.23274743339E+01  0.72470647610E+01  0.51100000000E-03 0. -1.
        -11    1    3    3    0    0 -0.37333584422E+01  0.26068736033E+02  0.18305144906E+02  0.32071721094E+02  0.51100000000E-03 0.  1.
        -12    1    3    3    0    0 -0.89500419398E+01  0.30824057918E+01  0.60051332821E+01  0.11210089292E+02  0.00000000000E+00 0.  1.
</event>
<event>
 7    1  0.2966651E-011  0.5052886E+02  0.7816164E-02  0.1300439E+00
        -11   -1    0    0    0    0  0.00000000000E+00  0.00000000000E+00  0.45593999997E+02  0.45594000000E+02  0.51100000000E-03 0.  1.
         11   -1    0    0    0    0 -0.00000000000E+00 -0.00000000000E+00 -0.45593999997E+02  0.45594000000E+02  0.51100000000E-03 0. -1.
    9900012    2    1    2    0    0 -0.28848714549E+02 -0.20624006472E+02  0.19888889803E+02  0.50528856973E+02  0.29999991256E+02 0.  0.
         12    1    1    2    0    0  0.28848714549E+02  0.20624006472E+02 -0.19888889803E+02  0.40659143027E+02  0.00000000000E+00 0. -1.
         11    1    3    3    0    0 -0.23751746306E+02 -0.16567128426E+02  0.25092577187E+02  0.38317784735E+02  0.51100000000E-03 0. -1.
        -11    1    3    3    0    0 -0.47336843580E+01  0.15207030369E+01 -0.67553490870E+00  0.50176342037E+01  0.51100000000E-03 0.  1.
         12    1    3    3    0    0 -0.36328388473E+00 -0.55775810826E+01 -0.45281524752E+01  0.71934380342E+01  0.00000000000E+00 0. -1.
</event>
<event>
 7    1  0.2966651E-011  0.5052885E+02  0.7816164E-02  0.1300439E+00
        -11   -1    0    0    0    0  0.00000000000E+00  0.00000000000E+00  0.45593999997E+02  0.45594000000E+02  0.51100000000E-03 0.  1.
         11   -1    0    0    0    0 -0.00000000000E+00 -0.00000000000E+00 -0.45593999997E+02  0.45594000000E+02  0.51100000000E-03 0. -1.
    9900012    2    1    2    0    0  0.24511889679E+01  0.21795337919E+02  0.34236253231E+02  0.50528854440E+02  0.29999983557E+02 0.  0.
         12    1    1    2    0    0 -0.24511889679E+01 -0.21795337919E+02 -0.34236253231E+02  0.40659145560E+02  0.00000000000E+00 0. -1.
         11    1    3    3    0    0  0.23830124120E+01 -0.50232929686E+01 -0.32480185226E+00  0.55693551610E+01  0.51100000000E-03 0. -1.
        -11    1    3    3    0    0 -0.32200679967E+01  0.51801565965E+01  0.12364171360E+02  0.13786790560E+02  0.51100000000E-03 0.  1.
         12    1    3    3    0    0  0.32882445525E+01  0.21638474291E+02  0.22196883724E+02  0.31172708719E+02  0.00000000000E+00 0. -1.
</event>
<event>
 7    1  0.2966651E-011  0.5052886E+02  0.7816164E-02  0.1300439E+00
        -11   -1    0    0    0    0  0.00000000000E+00  0.00000000000E+00  0.45593999997E+02  0.45594000000E+02  0.51100000000E-03 0. -1.
         11   -1    0    0    0    0 -0.00000000000E+00 -0.00000000000E+00 -0.45593999997E+02  0.45594000000E+02  0.51100000000E-03 0.  1.
    9900012    2    1    2    0    0 -0.19486621046E+02  0.35133254191E+02  0.62523650056E+01  0.50528855665E+02  0.29999987280E+02 0.  0.
         12    1    1    2    0    0  0.19486621046E+02 -0.35133254191E+02 -0.62523650056E+01  0.40659144335E+02  0.00000000000E+00 0. -1.
         11    1    3    3    0    0  0.88272720125E+00  0.22455434183E+02  0.93415494653E+01  0.24337014573E+02  0.51100000000E-03 0. -1.
        -11    1    3    3    0    0 -0.16380589290E+02  0.77528463781E+01  0.17656024062E+01  0.18208450911E+02  0.51100000000E-03 0.  1.
        -12    1    3    3    0    0 -0.39887589577E+01  0.49249736298E+01 -0.48547868659E+01  0.79833901815E+01  0.00000000000E+00 0.  1.
</event>
<event>
 7    1  0.2966651E-011  0.5052886E+02  0.7816164E-02  0.1300439E+00
        -11   -1    0    0    0    0  0.00000000000E+00  0.00000000000E+00  0.45593999997E+02  0.45594000000E+02  0.51100000000E-03 0. -1.
         11   -1    0    0    0    0 -0.00000000000E+00 -0.00000000000E+00 -0.45593999997E+02  0.45594000000E+02  0.51100000000E-03 0.  1.
    9900012    2    1    2    0    0 -0.40344482203E+02  0.13575528869E+01  0.48626874585E+01  0.50528856829E+02  0.29999990818E+02 0.  0.
         12    1    1    2    0    0  0.40344482203E+02 -0.13575528869E+01 -0.48626874585E+01  0.40659143171E+02  0.00000000000E+00 0. -1.
         11    1    3    3    0    0 -0.15931322121E+02  0.38848077718E+01  0.86692521080E+01  0.18548711231E+02  0.51100000000E-03 0. -1.
        -11    1    3    3    0    0 -0.22151460314E+02 -0.53608683435E+01 -0.99329042308E+01  0.24861389546E+02  0.51100000000E-03 0.  1.
         12    1    3    3    0    0 -0.22616997684E+01  0.28336134586E+01  0.61263395814E+01  0.71187560530E+01  0.00000000000E+00 0. -1.
</event>
<event>
 7    1  0.2966651E-011  0.5052891E+02  0.7816164E-02  0.1300439E+00
        -11   -1    0    0    0    0  0.00000000000E+00  0.00000000000E+00  0.45593999997E+02  0.45594000000E+02  0.51100000000E-03 0. -1.
         11   -1    0    0    0    0 -0.00000000000E+00 -0.00000000000E+00 -0.45593999997E+02  0.45594000000E+02  0.51100000000E-03 0.  1.
    9900012    2    1    2    0    0 -0.36249011599E+02  0.17707518640E+02  0.50611169706E+01  0.50528905528E+02  0.30000138843E+02 0.  0.
         12    1    1    2    0    0  0.36249011599E+02 -0.17707518640E+02 -0.50611169706E+01  0.40659094472E+02  0.00000000000E+00 0. -1.
         11    1    3    3    0    0 -0.51838548655E+01  0.74663747068E+01  0.10309198334E+02  0.13744041367E+02  0.51100000000E-03 0. -1.
        -11    1    3    3    0    0 -0.21213725657E+02 -0.11038832910E+01 -0.14780478877E+01  0.21293786427E+02  0.51100000000E-03 0.  1.
         12    1    3    3    0    0 -0.98514310767E+01  0.11345027224E+02 -0.37700334761E+01  0.15491077735E+02  0.00000000000E+00 0. -1.
</event>
<event>
 7    1  0.2966651E-011  0.5052885E+02  0.7816164E-02  0.1300439E+00
        -11   -1    0    0    0    0  0.00000000000E+00  0.00000000000E+00  0.45593999997E+02  0.45594000000E+02  0.51100000000E-03 0.  1.
         11   -1    0    0    0    0 -0.00000000000E+00 -0.00000000000E+00 -0.45593999997E+02  0.45594000000E+02  0.51100000000E-03 0. -1.
    9900012    2    1    2    0    0 -0.27145544142E+02  0.24671516561E+02  0.17538583470E+02  0.50528853350E+02  0.29999980244E+02 0.  0.
         12    1    1    2    0    0  0.27145544142E+02 -0.24671516561E+02 -0.17538583470E+02  0.40659146650E+02  0.00000000000E+00 0. -1.
         11    1    3    3    0    0 -0.10345024629E+02  0.68763601962E+01 -0.60005217970E+01  0.13795293626E+02  0.51100000000E-03 0. -1.
        -11    1    3    3    0    0 -0.15621876568E+02  0.76095907271E+01  0.11126624130E+02  0.20633726356E+02  0.51100000000E-03 0.  1.
         12    1    3    3    0    0 -0.11786429451E+01  0.10185565638E+02  0.12412481137E+02  0.16099833369E+02  0.00000000000E+00 0. -1.
</event>
<event>
 7    1  0.2966651E-011  0.5052886E+02  0.7816164E-02  0.1300439E+00
        -11   -1    0    0    0    0  0.00000000000E+00  0.00000000000E+00  0.45593999997E+02  0.45594000000E+02  0.51100000000E-03 0.  1.
         11   -1    0    0    0    0 -0.00000000000E+00 -0.00000000000E+00 -0.45593999997E+02  0.45594000000E+02  0.51100000000E-03 0. -1.
    9900012    2    1    2    0    0 -0.10879575973E+02 -0.17603282984E+02  0.34998924635E+02  0.50528862395E+02  0.30000007735E+02 0.  0.
         12    1    1    2    0    0  0.10879575973E+02  0.17603282984E+02 -0.34998924635E+02  0.40659137605E+02  0.00000000000E+00 0. -1.
         11    1    3    3    0    0 -0.76622385374E+01 -0.17768079702E+02  0.25486877653E+02  0.31999929507E+02  0.51100000000E-03 0. -1.
        -11    1    3    3    0    0 -0.83645988857E+01  0.35956707176E+01  0.80946818782E+01  0.12182743427E+02  0.51100000000E-03 0.  1.
         12    1    3    3    0    0  0.51472614499E+01 -0.34308739998E+01  0.14173651039E+01  0.63461894609E+01  0.00000000000E+00 0. -1.
</event>
<event>
 7    1  0.2966651E-011  0.5052885E+02  0.7816164E-02  0.1300439E+00
        -11   -1    0    0    0    0  0.00000000000E+00  0.00000000000E+00  0.45593999997E+02  0.45594000000E+02  0.51100000000E-03 0.  1.
         11   -1    0    0    0    0 -0.00000000000E+00 -0.00000000000E+00 -0.45593999997E+02  0.45594000000E+02  0.51100000000E-03 0. -1.
    9900012    2    1    2    0    0  0.23962890979E+02  0.65041485930E+01  0.32196932522E+02  0.50528849040E+02  0.29999967142E+02 0.  0.
         12    1    1    2    0    0 -0.23962890979E+02 -0.65041485930E+01 -0.32196932522E+02  0.40659150960E+02  0.00000000000E+00 0. -1.
         11    1    3    3    0    0  0.16439566421E+02 -0.55194462210E+01  0.18827216717E+02  0.25596634940E+02  0.51100000000E-03 0. -1.
        -11    1    3    3    0    0 -0.37704815816E+01  0.74047204447E+01  0.82199250404E+01  0.11688181388E+02  0.51100000000E-03 0.  1.
        -12    1    3    3    0    0  0.11293806140E+02  0.46188743693E+01  0.51497907644E+01  0.13244032712E+02  0.00000000000E+00 0.  1.
</event>
<event>
 7    1  0.2966651E-011  0.5052886E+02  0.7816164E-02  0.1300439E+00
        -11   -1    0    0    0    0  0.00000000000E+00  0.00000000000E+00  0.45593999997E+02  0.45594000000E+02  0.51100000000E-03 0. -1.
         11   -1    0    0    0    0 -0.00000000000E+00 -0.00000000000E+00 -0.45593999997E+02  0.45594000000E+02  0.51100000000E-03 0.  1.
    9900012    2    1    2    0    0 -0.33502717199E+02 -0.20905981163E+02  0.96785128651E+01  0.50528859338E+02  0.29999998445E+02 0.  0.
         12    1    1    2    0    0  0.33502717199E+02  0.20905981163E+02 -0.96785128651E+01  0.40659140662E+02  0.00000000000E+00 0. -1.
         11    1    3    3    0    0 -0.21044651301E+01  0.62586124367E+01 -0.24151876824E+01  0.70307990242E+01  0.51100000000E-03 0. -1.
        -11    1    3    3    0    0 -0.11576895203E+02 -0.11480704954E+02  0.68453011445E+01  0.17683021144E+02  0.51100000000E-03 0.  1.
         12    1    3    3    0    0 -0.19821356866E+02 -0.15683888645E+02  0.52483994030E+01  0.25815039170E+02  0.00000000000E+00 0. -1.
</event>
<event>
 7    1  0.2966651E-011  0.5052886E+02  0.7816164E-02  0.1300439E+00
        -11   -1    0    0    0    0  0.00000000000E+00  0.00000000000E+00  0.45593999997E+02  0.45594000000E+02  0.51100000000E-03 0.  1.
         11   -1    0    0    0    0 -0.00000000000E+00 -0.00000000000E+00 -0.45593999997E+02  0.45594000000E+02  0.51100000000E-03 0. -1.
    9900012    2    1    2    0    0  0.43724008383E+01 -0.37122748582E+02  0.15998412120E+02  0.50528861522E+02  0.30000005083E+02 0.  0.
         12    1    1    2    0    0 -0.43724008383E+01  0.37122748582E+02 -0.15998412120E+02  0.40659138478E+02  0.00000000000E+00 0. -1.
         11    1    3    3    0    0 -0.47754842369E+01 -0.29113787065E+02  0.13593601392E+02  0.32483901336E+02  0.51100000000E-03 0.  1.
        -11    1    3    3    0    0  0.31413931646E+01  0.18263607085E+01  0.50494629101E+01  0.62210144183E+01  0.51100000000E-03 0. -1.
         12    1    3    3    0    0  0.60064919106E+01 -0.98353222260E+01 -0.26446521819E+01  0.11823945768E+02  0.00000000000E+00 0. -1.
</event>
<event>
 7    1  0.2966651E-011  0.5052887E+02  0.7816164E-02  0.1300439E+00
        -11   -1    0    0    0    0  0.00000000000E+00  0.00000000000E+00  0.45593999997E+02  0.45594000000E+02  0.51100000000E-03 0.  1.
         11   -1    0    0    0    0 -0.00000000000E+00 -0.00000000000E+00 -0.45593999997E+02  0.45594000000E+02  0.51100000000E-03 0. -1.
    9900012    2    1    2    0    0 -0.33454274758E+02 -0.16040570207E+02  0.16633592698E+02  0.50528870666E+02  0.30000032877E+02 0.  0.
         12    1    1    2    0    0  0.33454274758E+02  0.16040570207E+02 -0.16633592698E+02  0.40659129334E+02  0.00000000000E+00 0. -1.
         11    1    3    3    0    0 -0.25875436427E+01  0.40192534405E+00 -0.20322275019E+01  0.33146455264E+01  0.51100000000E-03 0. -1.
        -11    1    3    3    0    0 -0.20517514906E+02 -0.14828482540E+02  0.24496114158E+02  0.35226579758E+02  0.51100000000E-03 0.  1.
        -12    1    3    3    0    0 -0.10349216209E+02 -0.16140130117E+01 -0.58302939586E+01  0.11987645382E+02  0.00000000000E+00 0.  1.
</event>
<event>
 7    1  0.2966651E-011  0.5052886E+02  0.7816164E-02  0.1300439E+00
        -11   -1    0    0    0    0  0.00000000000E+00  0.00000000000E+00  0.45593999997E+02  0.45594000000E+02  0.51100000000E-03 0.  1.
         11   -1    0    0    0    0 -0.00000000000E+00 -0.00000000000E+00 -0.45593999997E+02  0.45594000000E+02  0.51100000000E-03 0. -1.
    9900012    2    1    2    0    0 -0.32066249565E+02  0.21832748687E+02  0.12175883118E+02  0.50528863190E+02  0.30000010153E+02 0.  0.
         12    1    1    2    0    0  0.32066249565E+02 -0.21832748687E+02 -0.12175883118E+02  0.40659136810E+02  0.00000000000E+00 0. -1.
         11    1    3    3    0    0  0.37621679111E+01 -0.11292568331E+01  0.63116323226E+01  0.74340992207E+01  0.51100000000E-03 0. -1.
        -11    1    3    3    0    0 -0.15628151477E+02  0.11598067688E+02  0.15886843212E+01  0.19526346581E+02  0.51100000000E-03 0.  1.
         12    1    3    3    0    0 -0.20200266000E+02  0.11363937832E+02  0.42755664744E+01  0.23568417388E+02  0.00000000000E+00 0. -1.
</event>
<event>
 7    1  0.2966651E-011  0.5052886E+02  0.7816164E-02  0.1300439E+00
        -11   -1    0    0    0    0  0.00000000000E+00  0.00000000000E+00  0.45593999997E+02  0.45594000000E+02  0.51100000000E-03 0.  1.
         11   -1    0    0    0    0 -0.00000000000E+00 -0.00000000000E+00 -0.45593999997E+02  0.45594000000E+02  0.51100000000E-03 0. -1.
    9900012    2    1    2    0    0  0.36077916960E+02  0.18336013829E+02 -0.39166491891E+01  0.50528860361E+02  0.30000001554E+02 0.  0.
         12    1    1    2    0    0 -0.36077916960E+02 -0.18336013829E+02  0.39166491891E+01  0.40659139639E+02  0.00000000000E+00 0. -1.
         11    1    3    3    0    0  0.22473754807E+02  0.65442345763E+01 -0.14396315216E+02  0.27480002791E+02  0.51100000000E-03 0. -1.
        -11    1    3    3    0    0  0.29186090264E+01  0.87503296807E+01  0.31872587300E+01  0.97593630244E+01  0.51100000000E-03 0.  1.
         12    1    3    3    0    0  0.10685553126E+02  0.30414495723E+01  0.72924072968E+01  0.13289494546E+02  0.00000000000E+00 0. -1.
</event>
<event>
 7    1  0.2966651E-011  0.5052886E+02  0.7816164E-02  0.1300439E+00
        -11   -1    0    0    0    0  0.00000000000E+00  0.00000000000E+00  0.45593999997E+02  0.45594000000E+02  0.51100000000E-03 0. -1.
         11   -1    0    0    0    0 -0.00000000000E+00 -0.00000000000E+00 -0.45593999997E+02  0.45594000000E+02  0.51100000000E-03 0.  1.
    9900012    2    1    2    0    0  0.53287225956E+01 -0.33512848012E+02 -0.22397761242E+02  0.50528856194E+02  0.29999988888E+02 0.  0.
         12    1    1    2    0    0 -0.53287225956E+01  0.33512848012E+02  0.22397761242E+02  0.40659143806E+02  0.00000000000E+00 0. -1.
         11    1    3    3    0    0  0.74841456124E+01 -0.12705983328E+02  0.32514365404E+01  0.15100539318E+02  0.51100000000E-03 0. -1.
        -11    1    3    3    0    0  0.50560045073E+01 -0.74939040007E+01 -0.12146541128E+02  0.15141342093E+02  0.51100000000E-03 0.  1.
         12    1    3    3    0    0 -0.72114275241E+01 -0.13312960683E+02 -0.13502656654E+02  0.20286974782E+02  0.00000000000E+00 0. -1.
</event>
<event>
 7    1  0.2966651E-011  0.5052886E+02  0.7816164E-02  0.1300439E+00
        -11   -1    0    0    0    0  0.00000000000E+00  0.00000000000E+00  0.45593999997E+02  0.45594000000E+02  0.51100000000E-03 0.  1.
         11   -1    0    0    0    0 -0.00000000000E+00 -0.00000000000E+00 -0.45593999997E+02  0.45594000000E+02  0.51100000000E-03 0. -1.
    9900012    2    1    2    0    0 -0.30090775193E+02  0.15949728478E+02  0.22210737862E+02  0.50528862447E+02  0.30000007892E+02 0.  0.
         12    1    1    2    0    0  0.30090775193E+02 -0.15949728478E+02 -0.22210737862E+02  0.40659137553E+02  0.00000000000E+00 0. -1.
         11    1    3    3    0    0 -0.10673723903E+02 -0.61262769291E+00 -0.50565315561E+01  0.11826758063E+02  0.51100000000E-03 0. -1.
        -11    1    3    3    0    0 -0.20450643293E+02  0.15178153567E+02  0.23940686243E+02  0.34953706740E+02  0.51100000000E-03 0.  1.
        -12    1    3    3    0    0  0.10335920028E+01  0.13842026044E+01  0.33265831746E+01  0.37483976438E+01  0.00000000000E+00 0.  1.
</event>
<event>
 7    1  0.4232774E-011  0.5052889E+02  0.7816164E-02  0.1300439E+00
        -11   -1    0    0    0    0  0.00000000000E+00  0.00000000000E+00  0.45593999997E+02  0.45594000000E+02  0.51100000000E-03 0.  1.
         11   -1    0    0    0    0 -0.00000000000E+00 -0.00000000000E+00 -0.45593999997E+02  0.45594000000E+02  0.51100000000E-03 0. -1.
    9900012    2    1    2    0    0  0.64887290472E+01 -0.40137166762E+02  0.25958662121E+00  0.50528890989E+02  0.30000094650E+02 0.  0.
         12    1    1    2    0    0 -0.64887290472E+01  0.40137166762E+02 -0.25958662121E+00  0.40659109011E+02  0.00000000000E+00 0. -1.
         11    1    3    3    0    0  0.88472785899E+01 -0.34008197002E+01 -0.45580557237E+01  0.10517403925E+02  0.51100000000E-03 0. -1.
        -11    1    3    3    0    0 -0.84886446263E+01 -0.16870018103E+02  0.13478994177E+01  0.18933341794E+02  0.51100000000E-03 0.  1.
        -12    1    3    3    0    0  0.61300950837E+01 -0.19866328959E+02  0.34697429273E+01  0.21078145270E+02  0.00000000000E+00 0.  1.
</event>
<event>
 7    1  0.2966651E-011  0.5052885E+02  0.7816164E-02  0.1300439E+00
        -11   -1    0    0    0    0  0.00000000000E+00  0.00000000000E+00  0.45593999997E+02  0.45594000000E+02  0.51100000000E-03 0.  1.
         11   -1    0    0    0    0 -0.00000000000E+00 -0.00000000000E+00 -0.45593999997E+02  0.45594000000E+02  0.51100000000E-03 0. -1.
    9900012    2    1    2    0    0 -0.92009572305E+01  0.23339697252E+02  0.31996368328E+02  0.50528847673E+02  0.29999962987E+02 0.  0.
         12    1    1    2    0    0  0.92009572305E+01 -0.23339697252E+02 -0.31996368328E+02  0.40659152327E+02  0.00000000000E+00 0. -1.
         11    1    3    3    0    0 -0.10791355502E+02  0.57119034093E+01  0.22230206806E+02  0.25362596260E+02  0.51100000000E-03 0. -1.
        -11    1    3    3    0    0  0.67548889308E+01  0.14183257607E+02  0.10529052310E+02  0.18911749354E+02  0.51100000000E-03 0.  1.
         12    1    3    3    0    0 -0.51644906595E+01  0.34445362358E+01 -0.76289078925E+00  0.62545020592E+01  0.00000000000E+00 0. -1.
</event>
<event>
 7    1  0.2966651E-011  0.5052892E+02  0.7816164E-02  0.1300439E+00
        -11   -1    0    0    0    0  0.00000000000E+00  0.00000000000E+00  0.45593999997E+02  0.45594000000E+02  0.51100000000E-03 0.  1.
         11   -1    0    0    0    0 -0.00000000000E+00 -0.00000000000E+00 -0.45593999997E+02  0.45594000000E+02  0.51100000000E-03 0. -1.
    9900012    2    1    2    0    0 -0.22914769960E+02 -0.10170735091E+01  0.33571410298E+02  0.50528920937E+02  0.30000185680E+02 0.  0.
         12    1    1    2    0    0  0.22914769960E+02  0.10170735091E+01 -0.33571410298E+02  0.40659079063E+02  0.00000000000E+00 0. -1.
         11    1    3    3    0    0 -0.10725824057E+01 -0.46171644424E+00 -0.94812266474E+00  0.15041781611E+01  0.51100000000E-03 0. -1.
        -11    1    3    3    0    0 -0.13118104806E+02  0.10221576631E+02  0.30244539383E+02  0.34515177318E+02  0.51100000000E-03 0.  1.
        -12    1    3    3    0    0 -0.87240827490E+01 -0.10776933696E+02  0.42749935793E+01  0.14509565459E+02  0.00000000000E+00 0.  1.
</event>
<event>
 7    1  0.2966651E-011  0.5052886E+02  0.7816164E-02  0.1300439E+00
        -11   -1    0    0    0    0  0.00000000000E+00  0.00000000000E+00  0.45593999997E+02  0.45594000000E+02  0.51100000000E-03 0.  1.
         11   -1    0    0    0    0 -0.00000000000E+00 -0.00000000000E+00 -0.45593999997E+02  0.45594000000E+02  0.51100000000E-03 0. -1.
    9900012    2    1    2    0    0  0.16618725937E+02 -0.91246749545E+01  0.35968378902E+02  0.50528855572E+02  0.29999986996E+02 0.  0.
         12    1    1    2    0    0 -0.16618725937E+02  0.91246749545E+01 -0.35968378902E+02  0.40659144428E+02  0.00000000000E+00 0. -1.
         11    1    3    3    0    0  0.73703126464E-01 -0.24613513118E+01 -0.28947724475E+01  0.38004460547E+01  0.51100000000E-03 0. -1.
        -11    1    3    3    0    0  0.14834125624E+02 -0.16247375675E+01  0.38618731184E+02  0.41401660036E+02  0.51100000000E-03 0.  1.
         12    1    3    3    0    0  0.17108971871E+01 -0.50385860752E+01  0.24442016514E+00  0.53267494815E+01  0.00000000000E+00 0. -1.
</event>
<event>
 7    1  0.2966651E-011  0.5052885E+02  0.7816164E-02  0.1300439E+00
        -11   -1    0    0    0    0  0.00000000000E+00  0.00000000000E+00  0.45593999997E+02  0.45594000000E+02  0.51100000000E-03 0. -1.
         11   -1    0    0    0    0 -0.00000000000E+00 -0.00000000000E+00 -0.45593999997E+02  0.45594000000E+02  0.51100000000E-03 0.  1.
    9900012    2    1    2    0    0  0.37904576562E+02  0.14383122703E+02  0.30879288545E+01  0.50528850383E+02  0.29999971223E+02 0.  0.
         12    1    1    2    0    0 -0.37904576562E+02 -0.14383122703E+02 -0.30879288545E+01  0.40659149617E+02  0.00000000000E+00 0. -1.
         11    1    3    3    0    0  0.13189979637E+02 -0.41017969987E+01  0.48155645889E+01  0.14628395812E+02  0.51100000000E-03 0.  1.
        -11    1    3    3    0    0  0.73827220622E+01  0.14837624384E+02  0.44204113304E+01  0.17152251135E+02  0.51100000000E-03 0. -1.
         12    1    3    3    0    0  0.17331874862E+02  0.36472953177E+01 -0.61480470648E+01  0.18748203436E+02  0.00000000000E+00 0. -1.
</event>
<event>
 7    1  0.2966651E-011  0.5052892E+02  0.7816164E-02  0.1300439E+00
        -11   -1    0    0    0    0  0.00000000000E+00  0.00000000000E+00  0.45593999997E+02  0.45594000000E+02  0.51100000000E-03 0. -1.
         11   -1    0    0    0    0 -0.00000000000E+00 -0.00000000000E+00 -0.45593999997E+02  0.45594000000E+02  0.51100000000E-03 0.  1.
    9900012    2    1    2    0    0  0.12551914842E+02  0.19187816431E+02 -0.33577342770E+02  0.50528919672E+02  0.30000181835E+02 0.  0.
         12    1    1    2    0    0 -0.12551914842E+02 -0.19187816431E+02  0.33577342770E+02  0.40659080328E+02  0.00000000000E+00 0. -1.
         11    1    3    3    0    0  0.10420597499E+02  0.19345657009E+02 -0.14573969973E+02  0.26367478044E+02  0.51100000000E-03 0. -1.
        -11    1    3    3    0    0  0.29843565534E+01 -0.99386517596E+00 -0.21322258156E+02  0.21553024037E+02  0.51100000000E-03 0.  1.
        -12    1    3    3    0    0 -0.85303921006E+00  0.83602459831E+00  0.23188853589E+01  0.26084175913E+01  0.00000000000E+00 0.  1.
</event>
<event>
 7    1  0.2966651E-011  0.5052886E+02  0.7816164E-02  0.1300439E+00
        -11   -1    0    0    0    0  0.00000000000E+00  0.00000000000E+00  0.45593999997E+02  0.45594000000E+02  0.51100000000E-03 0.  1.
         11   -1    0    0    0    0 -0.00000000000E+00 -0.00000000000E+00 -0.45593999997E+02  0.45594000000E+02  0.51100000000E-03 0. -1.
    9900012    2    1    2    0    0 -0.29221635886E+02 -0.14638507699E+02  0.24186267428E+02  0.50528862729E+02  0.30000008751E+02 0.  0.
         12    1    1    2    0    0  0.29221635886E+02  0.14638507699E+02 -0.24186267428E+02  0.40659137271E+02  0.00000000000E+00 0. -1.
         11    1    3    3    0    0 -0.78708600219E+00 -0.98250125907E+01 -0.23509383647E+01  0.10132980225E+02  0.51100000000E-03 0. -1.
        -11    1    3    3    0    0 -0.24009771039E+02 -0.64934483391E+01  0.18239933239E+02  0.30843624000E+02  0.51100000000E-03 0.  1.
        -12    1    3    3    0    0 -0.44247788451E+01  0.16799532308E+01  0.82972725542E+01  0.95522585038E+01  0.00000000000E+00 0.  1.
</event>
<event>
 7    1  0.2966651E-011  0.5052886E+02  0.7816164E-02  0.1300439E+00
        -11   -1    0    0    0    0  0.00000000000E+00  0.00000000000E+00  0.45593999997E+02  0.45594000000E+02  0.51100000000E-03 0. -1.
         11   -1    0    0    0    0 -0.00000000000E+00 -0.00000000000E+00 -0.45593999997E+02  0.45594000000E+02  0.51100000000E-03 0.  1.
    9900012    2    1    2    0    0  0.10792090787E+01  0.19999296842E+02 -0.35384017709E+02  0.50528864795E+02  0.30000015030E+02 0.  0.
         12    1    1    2    0    0 -0.10792090787E+01 -0.19999296842E+02  0.35384017709E+02  0.40659135205E+02  0.00000000000E+00 0. -1.
         11    1    3    3    0    0  0.74768303074E+01 -0.13911662984E+01 -0.25176463641E+01  0.80110472843E+01  0.51100000000E-03 0. -1.
        -11    1    3    3    0    0 -0.10858883097E+02  0.17577123035E+02 -0.28507722742E+02  0.35207397696E+02  0.51100000000E-03 0.  1.
        -12    1    3    3    0    0  0.44612618686E+01  0.38133401053E+01 -0.43586486027E+01  0.73104198142E+01  0.00000000000E+00 0.  1.
</event>
<event>
 7    1  0.2966651E-011  0.5052886E+02  0.7816164E-02  0.1300439E+00
        -11   -1    0    0    0    0  0.00000000000E+00  0.00000000000E+00  0.45593999997E+02  0.45594000000E+02  0.51100000000E-03 0.  1.
         11   -1    0    0    0    0 -0.00000000000E+00 -0.00000000000E+00 -0.45593999997E+02  0.45594000000E+02  0.51100000000E-03 0. -1.
    9900012    2    1    2    0    0  0.36134806259E+02 -0.10442774560E+02  0.15439882245E+02  0.50528859236E+02  0.29999998134E+02 0.  0.
         12    1    1    2    0    0 -0.36134806259E+02  0.10442774560E+02 -0.15439882245E+02  0.40659140764E+02  0.00000000000E+00 0. -1.
         11    1    3    3    0    0  0.66368063902E+01  0.36611054597E+01  0.23682014566E+01  0.79409867554E+01  0.51100000000E-03 0. -1.
        -11    1    3    3    0    0  0.16013090262E+02 -0.17240906520E+02  0.15976471299E+02  0.28441440765E+02  0.51100000000E-03 0.  1.
        -12    1    3    3    0    0  0.13484909607E+02  0.31370264998E+01 -0.29047905110E+01  0.14146431716E+02  0.00000000000E+00 0.  1.
</event>
<event>
 7    1  0.2966651E-011  0.5052886E+02  0.7816164E-02  0.1300439E+00
        -11   -1    0    0    0    0  0.00000000000E+00  0.00000000000E+00  0.45593999997E+02  0.45594000000E+02  0.51100000000E-03 0. -1.
         11   -1    0    0    0    0 -0.00000000000E+00 -0.00000000000E+00 -0.45593999997E+02  0.45594000000E+02  0.51100000000E-03 0.  1.
    9900012    2    1    2    0    0 -0.25166323221E+01  0.31509646631E+02 -0.25572923999E+02  0.50528859442E+02  0.29999998759E+02 0.  0.
         12    1    1    2    0    0  0.25166323221E+01 -0.31509646631E+02  0.25572923999E+02  0.40659140558E+02  0.00000000000E+00 0. -1.
         11    1    3    3    0    0  0.92894866340E+01  0.65268741673E+01 -0.29993784628E+01  0.11742696443E+02  0.51100000000E-03 0. -1.
        -11    1    3    3    0    0 -0.12217887538E+02  0.26914288122E+02 -0.21365133189E+02  0.36470873275E+02  0.51100000000E-03 0.  1.
        -12    1    3    3    0    0  0.41176858175E+00 -0.19315156582E+01 -0.12084123473E+01  0.23152897236E+01  0.00000000000E+00 0.  1.
</event>
<event>
 7    1  0.2966651E-011  0.5052886E+02  0.7816164E-02  0.1300439E+00
        -11   -1    0    0    0    0  0.00000000000E+00  0.00000000000E+00  0.45593999997E+02  0.45594000000E+02  0.51100000000E-03 0. -1.
         11   -1    0    0    0    0 -0.00000000000E+00 -0.00000000000E+00 -0.45593999997E+02  0.45594000000E+02  0.51100000000E-03 0.  1.
    9900012    2    1    2    0    0  0.60630547812E+01  0.12807431142E+02 -0.38110030478E+02  0.50528863895E+02  0.30000012297E+02 0.  0.
         12    1    1    2    0    0 -0.60630547812E+01 -0.12807431142E+02  0.38110030478E+02  0.40659136105E+02  0.00000000000E+00 0. -1.
         11    1    3    3    0    0  0.56570785807E+01  0.21166138712E+02 -0.29164554228E+02  0.36477105006E+02  0.51100000000E-03 0. -1.
        -11    1    3    3    0    0  0.18838207457E+01 -0.65732507441E+01 -0.94649318421E+01  0.11676529492E+02  0.51100000000E-03 0.  1.
         12    1    3    3    0    0 -0.14778445452E+01 -0.17854568259E+01  0.51945559215E+00  0.23752293971E+01  0.00000000000E+00 0. -1.
</event>
<event>
 7    1  0.2966651E-011  0.5052887E+02  0.7816164E-02  0.1300439E+00
        -11   -1    0    0    0    0  0.00000000000E+00  0.00000000000E+00  0.45593999997E+02  0.45594000000E+02  0.51100000000E-03 0.  1.
         11   -1    0    0    0    0 -0.00000000000E+00 -0.00000000000E+00 -0.45593999997E+02  0.45594000000E+02  0.51100000000E-03 0. -1.
    9900012    2    1    2    0    0  0.14989904634E+02 -0.26846573378E+01  0.37699603934E+02  0.50528871102E+02  0.30000034201E+02 0.  0.
         12    1    1    2    0    0 -0.14989904634E+02  0.26846573378E+01 -0.37699603934E+02  0.40659128898E+02  0.00000000000E+00 0. -1.
         11    1    3    3    0    0  0.72174136501E+01 -0.13966718343E+02  0.95834093838E+01  0.18412007406E+02  0.51100000000E-03 0. -1.
        -11    1    3    3    0    0  0.86838442876E+01  0.75270798942E+01  0.22939451361E+02  0.25657055801E+02  0.51100000000E-03 0.  1.
         12    1    3    3    0    0 -0.91135330395E+00  0.37549811106E+01  0.51767431894E+01  0.64598078946E+01  0.00000000000E+00 0. -1.
</event>
<event>
 7    1  0.2966651E-011  0.5052886E+02  0.7816164E-02  0.1300439E+00
        -11   -1    0    0    0    0  0.00000000000E+00  0.00000000000E+00  0.45593999997E+02  0.45594000000E+02  0.51100000000E-03 0.  1.
         11   -1    0    0    0    0 -0.00000000000E+00 -0.00000000000E+00 -0.45593999997E+02  0.45594000000E+02  0.51100000000E-03 0. -1.
    9900012    2    1    2    0    0  0.16888677570E+02 -0.18003140513E+02  0.32308283590E+02  0.50528859737E+02  0.29999999657E+02 0.  0.
         12    1    1    2    0    0 -0.16888677570E+02  0.18003140513E+02 -0.32308283590E+02  0.40659140263E+02  0.00000000000E+00 0. -1.
         11    1    3    3    0    0 -0.30666143825E+01 -0.68237586800E+01  0.85700984699E+01  0.11376044758E+02  0.51100000000E-03 0. -1.
        -11    1    3    3    0    0  0.24199419307E+02 -0.11502724381E+02  0.21436195760E+02  0.34313773502E+02  0.51100000000E-03 0.  1.
        -12    1    3    3    0    0 -0.42441273548E+01  0.32334254809E+00  0.23019893599E+01  0.48390414774E+01  0.00000000000E+00 0.  1.
</event>
<event>
 7    1  0.2966651E-011  0.5052886E+02  0.7816164E-02  0.1300439E+00
        -11   -1    0    0    0    0  0.00000000000E+00  0.00000000000E+00  0.45593999997E+02  0.45594000000E+02  0.51100000000E-03 0.  1.
         11   -1    0    0    0    0 -0.00000000000E+00 -0.00000000000E+00 -0.45593999997E+02  0.45594000000E+02  0.51100000000E-03 0. -1.
    9900012    2    1    2    0    0 -0.62619477260E+01  0.32487238360E+02 -0.23633302285E+02  0.50528860529E+02  0.30000002065E+02 0.  0.
         12    1    1    2    0    0  0.62619477260E+01 -0.32487238360E+02  0.23633302285E+02  0.40659139471E+02  0.00000000000E+00 0. -1.
         11    1    3    3    0    0 -0.11039241790E+02  0.16421369021E+01 -0.32125625636E+01  0.11613872368E+02  0.51100000000E-03 0. -1.
        -11    1    3    3    0    0  0.19713952938E+01  0.28461658911E+02 -0.14653907525E+02  0.32073188700E+02  0.51100000000E-03 0.  1.
         12    1    3    3    0    0  0.28058987701E+01  0.23834425466E+01 -0.57668321966E+01  0.68417994610E+01  0.00000000000E+00 0. -1.
</event>
<event>
 7    1  0.2966651E-011  0.5052886E+02  0.7816164E-02  0.1300439E+00
        -11   -1    0    0    0    0  0.00000000000E+00  0.00000000000E+00  0.45593999997E+02  0.45594000000E+02  0.51100000000E-03 0.  1.
         11   -1    0    0    0    0 -0.00000000000E+00 -0.00000000000E+00 -0.45593999997E+02  0.45594000000E+02  0.51100000000E-03 0. -1.
    9900012    2    1    2    0    0  0.22743042560E+02  0.76174637000E+01  0.32831296973E+02  0.50528858358E+02  0.29999995465E+02 0.  0.
         12    1    1    2    0    0 -0.22743042560E+02 -0.76174637000E+01 -0.32831296973E+02  0.40659141642E+02  0.00000000000E+00 0. -1.
         11    1    3    3    0    0  0.15010616025E+02  0.72364392743E+01  0.36695674325E+02  0.40302073908E+02  0.51100000000E-03 0. -1.
        -11    1    3    3    0    0  0.63463489346E+01  0.59915261920E+00 -0.28356088025E+00  0.63808726436E+01  0.51100000000E-03 0.  1.
         12    1    3    3    0    0  0.13860776007E+01 -0.21812819345E+00 -0.35808164715E+01  0.38459118069E+01  0.00000000000E+00 0. -1.
</event>
<event>
 7    1  0.2966651E-011  0.5052886E+02  0.7816164E-02  0.1300439E+00
        -11   -1    0    0    0    0  0.00000000000E+00  0.00000000000E+00  0.45593999997E+02  0.45594000000E+02  0.51100000000E-03 0.  1.
         11   -1    0    0    0    0 -0.00000000000E+00 -0.00000000000E+00 -0.45593999997E+02  0.45594000000E+02  0.51100000000E-03 0. -1.
    9900012    2    1    2    0    0 -0.20251492792E+02 -0.40191375529E+00  0.35254515528E+02  0.50528863756E+02  0.30000011874E+02 0.  0.
         12    1    1    2    0    0  0.20251492792E+02  0.40191375529E+00 -0.35254515528E+02  0.40659136244E+02  0.00000000000E+00 0. -1.
         11    1    3    3    0    0 -0.19342856725E+02 -0.12801418471E+02  0.22913053269E+02  0.32604147459E+02  0.51100000000E-03 0. -1.
        -11    1    3    3    0    0 -0.12990737508E+01  0.62531455516E+01  0.86225942291E+01  0.10730263436E+02  0.51100000000E-03 0.  1.
         12    1    3    3    0    0  0.39043768415E+00  0.61463591639E+01  0.37188680296E+01  0.71944528617E+01  0.00000000000E+00 0. -1.
</event>
<event>
 7    1  0.2966651E-011  0.5052886E+02  0.7816164E-02  0.1300439E+00
        -11   -1    0    0    0    0  0.00000000000E+00  0.00000000000E+00  0.45593999997E+02  0.45594000000E+02  0.51100000000E-03 0.  1.
         11   -1    0    0    0    0 -0.00000000000E+00 -0.00000000000E+00 -0.45593999997E+02  0.45594000000E+02  0.51100000000E-03 0. -1.
    9900012    2    1    2    0    0  0.32115121166E+02 -0.17973082776E+02  0.17284471990E+02  0.50528859773E+02  0.29999999767E+02 0.  0.
         12    1    1    2    0    0 -0.32115121166E+02  0.17973082776E+02 -0.17284471990E+02  0.40659140227E+02  0.00000000000E+00 0. -1.
         11    1    3    3    0    0  0.99878885172E+01  0.51130161261E+01 -0.62690571945E-01  0.11220729981E+02  0.51100000000E-03 0. -1.
        -11    1    3    3    0    0  0.91464974007E+01 -0.19858799705E+02  0.99278538258E+01  0.24012343123E+02  0.51100000000E-03 0.  1.
        -12    1    3    3    0    0  0.12980735249E+02 -0.32272991970E+01  0.74193087365E+01  0.15295786669E+02  0.00000000000E+00 0.  1.
</event>
<event>
 7    1  0.2966651E-011  0.5052886E+02  0.7816164E-02  0.1300439E+00
        -11   -1    0    0    0    0  0.00000000000E+00  0.00000000000E+00  0.45593999997E+02  0.45594000000E+02  0.51100000000E-03 0.  1.
         11   -1    0    0    0    0 -0.00000000000E+00 -0.00000000000E+00 -0.45593999997E+02  0.45594000000E+02  0.51100000000E-03 0. -1.
    9900012    2    1    2    0    0  0.34212705840E+02  0.66834199744E+01  0.20928163305E+02  0.50528863723E+02  0.30000011773E+02 0.  0.
         12    1    1    2    0    0 -0.34212705840E+02 -0.66834199744E+01 -0.20928163305E+02  0.40659136277E+02  0.00000000000E+00 0. -1.
         11    1    3    3    0    0  0.10819275209E+02 -0.33142277048E+01 -0.55574046535E+01  0.12606568449E+02  0.51100000000E-03 0. -1.
        -11    1    3    3    0    0  0.95212010646E+01  0.89750427715E+01  0.14807200491E+02  0.19760006303E+02  0.51100000000E-03 0.  1.
         12    1    3    3    0    0  0.13872229567E+02  0.10226049077E+01  0.11678367467E+02  0.18162288971E+02  0.00000000000E+00 0. -1.
</event>
<event>
 7    1  0.2966651E-011  0.5052885E+02  0.7816164E-02  0.1300439E+00
        -11   -1    0    0    0    0  0.00000000000E+00  0.00000000000E+00  0.45593999997E+02  0.45594000000E+02  0.51100000000E-03 0. -1.
         11   -1    0    0    0    0 -0.00000000000E+00 -0.00000000000E+00 -0.45593999997E+02  0.45594000000E+02  0.51100000000E-03 0.  1.
    9900012    2    1    2    0    0  0.11999064429E+02  0.11714933632E+02 -0.37039829895E+02  0.50528853233E+02  0.29999979886E+02 0.  0.
         12    1    1    2    0    0 -0.11999064429E+02 -0.11714933632E+02  0.37039829895E+02  0.40659146767E+02  0.00000000000E+00 0. -1.
         11    1    3    3    0    0  0.36656394290E+01  0.20399305754E+02 -0.15976050096E+02  0.26168736397E+02  0.51100000000E-03 0. -1.
        -11    1    3    3    0    0  0.60215870825E+01 -0.75180991412E+01 -0.17076990750E+02  0.19606247449E+02  0.51100000000E-03 0.  1.
        -12    1    3    3    0    0  0.23118379177E+01 -0.11662729810E+01 -0.39867890497E+01  0.47538693873E+01  0.00000000000E+00 0.  1.
</event>
<event>
 7    1  0.2966651E-011  0.5052884E+02  0.7816164E-02  0.1300439E+00
        -11   -1    0    0    0    0  0.00000000000E+00  0.00000000000E+00  0.45593999997E+02  0.45594000000E+02  0.51100000000E-03 0.  1.
         11   -1    0    0    0    0 -0.00000000000E+00 -0.00000000000E+00 -0.45593999997E+02  0.45594000000E+02  0.51100000000E-03 0. -1.
    9900012    2    1    2    0    0 -0.86969466256E+01 -0.39704467162E+02 -0.10419043573E+01  0.50528841648E+02  0.29999944673E+02 0.  0.
         12    1    1    2    0    0  0.86969466256E+01  0.39704467162E+02  0.10419043573E+01  0.40659158352E+02  0.00000000000E+00 0. -1.
         11    1    3    3    0    0 -0.11101275236E+02 -0.19555694327E+02  0.66609960351E+01  0.23452768726E+02  0.51100000000E-03 0. -1.
        -11    1    3    3    0    0  0.41144354997E+01  0.12554261791E+01 -0.11777214935E+00  0.43033178958E+01  0.51100000000E-03 0.  1.
        -12    1    3    3    0    0 -0.17101068893E+01 -0.21404199014E+02 -0.75851282431E+01  0.22772755026E+02  0.00000000000E+00 0.  1.
</event>
<event>
 7    1  0.2966651E-011  0.5052886E+02  0.7816164E-02  0.1300439E+00
        -11   -1    0    0    0    0  0.00000000000E+00  0.00000000000E+00  0.45593999997E+02  0.45594000000E+02  0.51100000000E-03 0.  1.
         11   -1    0    0    0    0 -0.00000000000E+00 -0.00000000000E+00 -0.45593999997E+02  0.45594000000E+02  0.51100000000E-03 0. -1.
    9900012    2    1    2    0    0 -0.54074632890E+01 -0.30003897100E+02  0.26901514007E+02  0.50528856424E+02  0.29999989588E+02 0.  0.
         12    1    1    2    0    0  0.54074632890E+01  0.30003897100E+02 -0.26901514007E+02  0.40659143576E+02  0.00000000000E+00 0. -1.
         11    1    3    3    0    0 -0.18704758915E+01 -0.10017999514E+02  0.22672820953E+02  0.24857912313E+02  0.51100000000E-03 0. -1.
        -11    1    3    3    0    0  0.56469436546E+01 -0.10386775814E+02  0.33534624960E+00  0.11827321836E+02  0.51100000000E-03 0.  1.
         12    1    3    3    0    0 -0.91839310520E+01 -0.95991217714E+01  0.38933468047E+01  0.13843622275E+02  0.00000000000E+00 0. -1.
</event>
<event>
 7    1  0.2966651E-011  0.5052885E+02  0.7816164E-02  0.1300439E+00
        -11   -1    0    0    0    0  0.00000000000E+00  0.00000000000E+00  0.45593999997E+02  0.45594000000E+02  0.51100000000E-03 0. -1.
         11   -1    0    0    0    0 -0.00000000000E+00 -0.00000000000E+00 -0.45593999997E+02  0.45594000000E+02  0.51100000000E-03 0.  1.
    9900012    2    1    2    0    0 -0.34194297487E+02  0.20188960365E+02 -0.87362478945E+01  0.50528854306E+02  0.29999983150E+02 0.  0.
         12    1    1    2    0    0  0.34194297487E+02 -0.20188960365E+02  0.87362478945E+01  0.40659145694E+02  0.00000000000E+00 0. -1.
         11    1    3    3    0    0 -0.13642360439E+02  0.15227926460E+02  0.90588277559E+00  0.20465198912E+02  0.51100000000E-03 0. -1.
        -11    1    3    3    0    0 -0.21729113638E+02 -0.16173292145E+01 -0.71815822390E+01  0.22942215608E+02  0.51100000000E-03 0.  1.
        -12    1    3    3    0    0  0.11771765900E+01  0.65783631193E+01 -0.24605484311E+01  0.71214397866E+01  0.00000000000E+00 0.  1.
</event>
<event>
 7    1  0.2966651E-011  0.5052885E+02  0.7816164E-02  0.1300439E+00
        -11   -1    0    0    0    0  0.00000000000E+00  0.00000000000E+00  0.45593999997E+02  0.45594000000E+02  0.51100000000E-03 0. -1.
         11   -1    0    0    0    0 -0.00000000000E+00 -0.00000000000E+00 -0.45593999997E+02  0.45594000000E+02  0.51100000000E-03 0.  1.
    9900012    2    1    2    0    0 -0.19706622994E+02  0.31487285195E+02 -0.16533797270E+02  0.50528848866E+02  0.29999966613E+02 0.  0.
         12    1    1    2    0    0  0.19706622994E+02 -0.31487285195E+02  0.16533797270E+02  0.40659151134E+02  0.00000000000E+00 0. -1.
         11    1    3    3    0    0 -0.15192934400E+02  0.18153581496E+02  0.29529056608E+01  0.23855763013E+02  0.51100000000E-03 0. -1.
        -11    1    3    3    0    0 -0.74828897285E+01  0.11085058465E+02 -0.10694087393E+02  0.17124125241E+02  0.51100000000E-03 0.  1.
         12    1    3    3    0    0  0.29692011348E+01  0.22486452336E+01 -0.87926155376E+01  0.95489606114E+01  0.00000000000E+00 0. -1.
</event>
<event>
 7    1  0.2966651E-011  0.5052886E+02  0.7816164E-02  0.1300439E+00
        -11   -1    0    0    0    0  0.00000000000E+00  0.00000000000E+00  0.45593999997E+02  0.45594000000E+02  0.51100000000E-03 0. -1.
         11   -1    0    0    0    0 -0.00000000000E+00 -0.00000000000E+00 -0.45593999997E+02  0.45594000000E+02  0.51100000000E-03 0.  1.
    9900012    2    1    2    0    0  0.37419511552E+02  0.15776029945E+02 -0.20156068304E+01  0.50528860357E+02  0.30000001542E+02 0.  0.
         12    1    1    2    0    0 -0.37419511552E+02 -0.15776029945E+02  0.20156068304E+01  0.40659139643E+02  0.00000000000E+00 0. -1.
         11    1    3    3    0    0  0.57386678048E+01  0.73701518753E+01  0.35947706819E+01  0.10008687394E+02  0.51100000000E-03 0. -1.
        -11    1    3    3    0    0  0.31131403476E+02  0.11991505753E+01 -0.91527230863E+01  0.32471134638E+02  0.51100000000E-03 0.  1.
        -12    1    3    3    0    0  0.54944027057E+00  0.72067274947E+01  0.35423455740E+01  0.80490383251E+01  0.00000000000E+00 0.  1.
</event>
<event>
 7    1  0.2966651E-011  0.5052894E+02  0.7816164E-02  0.1300439E+00
        -11   -1    0    0    0    0  0.00000000000E+00  0.00000000000E+00  0.45593999997E+02  0.45594000000E+02  0.51100000000E-03 0.  1.
         11   -1    0    0    0    0 -0.00000000000E+00 -0.00000000000E+00 -0.45593999997E+02  0.45594000000E+02  0.51100000000E-03 0. -1.
    9900012    2    1    2    0    0  0.15199759913E+01 -0.39822081790E+01  0.40435023772E+02  0.50528936355E+02  0.30000232545E+02 0.  0.
         12    1    1    2    0    0 -0.15199759913E+01  0.39822081790E+01 -0.40435023772E+02  0.40659063645E+02  0.00000000000E+00 0. -1.
         11    1    3    3    0    0 -0.76753849713E-01 -0.29229507256E+01  0.13677249012E+01  0.32280340402E+01  0.51100000000E-03 0. -1.
        -11    1    3    3    0    0 -0.31591747186E+01  0.78035678688E+01  0.35722439635E+02  0.36701072874E+02  0.51100000000E-03 0.  1.
        -12    1    3    3    0    0  0.47559045596E+01 -0.88628253222E+01  0.33448592361E+01  0.10599829441E+02  0.00000000000E+00 0.  1.
</event>
<event>
 7    1  0.2966651E-011  0.5052883E+02  0.7816164E-02  0.1300439E+00
        -11   -1    0    0    0    0  0.00000000000E+00  0.00000000000E+00  0.45593999997E+02  0.45594000000E+02  0.51100000000E-03 0.  1.
         11   -1    0    0    0    0 -0.00000000000E+00 -0.00000000000E+00 -0.45593999997E+02  0.45594000000E+02  0.51100000000E-03 0. -1.
    9900012    2    1    2    0    0  0.35148803507E+02 -0.10627826346E+02  0.17457924313E+02  0.50528828807E+02  0.29999905641E+02 0.  0.
         12    1    1    2    0    0 -0.35148803507E+02  0.10627826346E+02 -0.17457924313E+02  0.40659171193E+02  0.00000000000E+00 0. -1.
         11    1    3    3    0    0 -0.61465340641E-01 -0.10137590672E+01 -0.15413640728E+01  0.18458843140E+01  0.51100000000E-03 0. -1.
        -11    1    3    3    0    0  0.31287695634E+02  0.99515735573E+00  0.20281332512E+02  0.37299365745E+02  0.51100000000E-03 0.  1.
        -12    1    3    3    0    0  0.39225732137E+01 -0.10609224635E+02 -0.12820441266E+01  0.11383578748E+02  0.00000000000E+00 0.  1.
</event>
<event>
 7    1  0.2966651E-011  0.5052885E+02  0.7816164E-02  0.1300439E+00
        -11   -1    0    0    0    0  0.00000000000E+00  0.00000000000E+00  0.45593999997E+02  0.45594000000E+02  0.51100000000E-03 0. -1.
         11   -1    0    0    0    0 -0.00000000000E+00 -0.00000000000E+00 -0.45593999997E+02  0.45594000000E+02  0.51100000000E-03 0.  1.
    9900012    2    1    2    0    0  0.76391370993E+01 -0.23910960686E+01 -0.39863422710E+02  0.50528853106E+02  0.29999979501E+02 0.  0.
         12    1    1    2    0    0 -0.76391370993E+01  0.23910960686E+01  0.39863422710E+02  0.40659146894E+02  0.00000000000E+00 0. -1.
         11    1    3    3    0    0 -0.45111190706E+00 -0.82648575165E+01 -0.55303936882E+01  0.99547288425E+01  0.51100000000E-03 0. -1.
        -11    1    3    3    0    0  0.74903183353E+01  0.12694121796E+02 -0.24509728514E+02  0.28600216591E+02  0.51100000000E-03 0.  1.
        -12    1    3    3    0    0  0.59993067106E+00 -0.68203603485E+01 -0.98233005076E+01  0.11973907673E+02  0.00000000000E+00 0.  1.
</event>
<event>
 7    1  0.2966651E-011  0.5052891E+02  0.7816164E-02  0.1300439E+00
        -11   -1    0    0    0    0  0.00000000000E+00  0.00000000000E+00  0.45593999997E+02  0.45594000000E+02  0.51100000000E-03 0.  1.
         11   -1    0    0    0    0 -0.00000000000E+00 -0.00000000000E+00 -0.45593999997E+02  0.45594000000E+02  0.51100000000E-03 0. -1.
    9900012    2    1    2    0    0  0.12236783931E+02  0.27450425999E+02  0.27384241144E+02  0.50528912067E+02  0.30000158719E+02 0.  0.
         12    1    1    2    0    0 -0.12236783931E+02 -0.27450425999E+02 -0.27384241144E+02  0.40659087933E+02  0.00000000000E+00 0. -1.
         11    1    3    3    0    0  0.11061688345E+02  0.10382918303E+02  0.88006551581E+00  0.15196725209E+02  0.51100000000E-03 0. -1.
        -11    1    3    3    0    0  0.44215875611E+01  0.10536997792E+02  0.25534813002E+02  0.27975085958E+02  0.51100000000E-03 0.  1.
        -12    1    3    3    0    0 -0.32464919751E+01  0.65305099039E+01  0.96936262598E+00  0.73571008998E+01  0.00000000000E+00 0.  1.
</event>
<event>
 7    1  0.2966651E-011  0.5052885E+02  0.7816164E-02  0.1300439E+00
        -11   -1    0    0    0    0  0.00000000000E+00  0.00000000000E+00  0.45593999997E+02  0.45594000000E+02  0.51100000000E-03 0.  1.
         11   -1    0    0    0    0 -0.00000000000E+00 -0.00000000000E+00 -0.45593999997E+02  0.45594000000E+02  0.51100000000E-03 0. -1.
    9900012    2    1    2    0    0 -0.15778447496E+02 -0.36035794209E+00  0.37471015594E+02  0.50528852532E+02  0.29999977756E+02 0.  0.
         12    1    1    2    0    0  0.15778447496E+02  0.36035794209E+00 -0.37471015594E+02  0.40659147468E+02  0.00000000000E+00 0. -1.
         11    1    3    3    0    0  0.96881581357E+00  0.16488715529E+01  0.22642943820E+02  0.22723562366E+02  0.51100000000E-03 0. -1.
        -11    1    3    3    0    0 -0.19437176176E+02 -0.34444606858E+01  0.10085412628E+02  0.22167175626E+02  0.51100000000E-03 0.  1.
        -12    1    3    3    0    0  0.26899128663E+01  0.14352311908E+01  0.47426591447E+01  0.56381145396E+01  0.00000000000E+00 0.  1.
</event>
<event>
 7    1  0.2966651E-011  0.5052889E+02  0.7816164E-02  0.1300439E+00
        -11   -1    0    0    0    0  0.00000000000E+00  0.00000000000E+00  0.45593999997E+02  0.45594000000E+02  0.51100000000E-03 0.  1.
         11   -1    0    0    0    0 -0.00000000000E+00 -0.00000000000E+00 -0.45593999997E+02  0.45594000000E+02  0.51100000000E-03 0. -1.
    9900012    2    1    2    0    0 -0.28337608944E+02  0.15857849173E+02  0.24467770903E+02  0.50528889409E+02  0.30000089848E+02 0.  0.
         12    1    1    2    0    0  0.28337608944E+02 -0.15857849173E+02 -0.24467770903E+02  0.40659110591E+02  0.00000000000E+00 0. -1.
         11    1    3    3    0    0 -0.31421194175E+02  0.13989919354E+02  0.15328623409E+02  0.37656021866E+02  0.51100000000E-03 0. -1.
        -11    1    3    3    0    0 -0.22985055969E+01 -0.14681686919E+01  0.29708311972E+01  0.40329251853E+01  0.51100000000E-03 0.  1.
         12    1    3    3    0    0  0.53820908273E+01  0.33360985110E+01  0.61683162965E+01  0.88399423574E+01  0.00000000000E+00 0. -1.
</event>
<event>
 7    1  0.2966651E-011  0.5052886E+02  0.7816164E-02  0.1300439E+00
        -11   -1    0    0    0    0  0.00000000000E+00  0.00000000000E+00  0.45593999997E+02  0.45594000000E+02  0.51100000000E-03 0.  1.
         11   -1    0    0    0    0 -0.00000000000E+00 -0.00000000000E+00 -0.45593999997E+02  0.45594000000E+02  0.51100000000E-03 0. -1.
    9900012    2    1    2    0    0  0.10327297020E+02 -0.33614597590E+02  0.20410089177E+02  0.50528856193E+02  0.29999988885E+02 0.  0.
         12    1    1    2    0    0 -0.10327297020E+02  0.33614597590E+02 -0.20410089177E+02  0.40659143807E+02  0.00000000000E+00 0. -1.
         11    1    3    3    0    0 -0.21366945955E+01  0.38405678796E-01 -0.12287949653E+01  0.24651320692E+01  0.51100000000E-03 0. -1.
        -11    1    3    3    0    0  0.12512673342E+02 -0.36741093286E+02  0.22492258525E+02  0.44859520994E+02  0.51100000000E-03 0.  1.
        -12    1    3    3    0    0 -0.48681726357E-01  0.30880900169E+01 -0.85337438226E+00  0.32042031301E+01  0.00000000000E+00 0.  1.
</event>
<event>
 7    1  0.2966651E-011  0.5052886E+02  0.7816164E-02  0.1300439E+00
        -11   -1    0    0    0    0  0.00000000000E+00  0.00000000000E+00  0.45593999997E+02  0.45594000000E+02  0.51100000000E-03 0. -1.
         11   -1    0    0    0    0 -0.00000000000E+00 -0.00000000000E+00 -0.45593999997E+02  0.45594000000E+02  0.51100000000E-03 0.  1.
    9900012    2    1    2    0    0  0.22504486636E+01 -0.25361095596E+02 -0.31700415680E+02  0.50528855355E+02  0.29999986336E+02 0.  0.
         12    1    1    2    0    0 -0.22504486636E+01  0.25361095596E+02  0.31700415680E+02  0.40659144645E+02  0.00000000000E+00 0. -1.
         11    1    3    3    0    0 -0.80494144812E+00 -0.13192769269E+02 -0.20503400811E+01  0.13375387337E+02  0.51100000000E-03 0. -1.
        -11    1    3    3    0    0 -0.27700930456E+01 -0.48840886785E+01 -0.26827141628E+02  0.27408452453E+02  0.51100000000E-03 0.  1.
         12    1    3    3    0    0  0.58254831573E+01 -0.72842376486E+01 -0.28229339713E+01  0.97450155641E+01  0.00000000000E+00 0. -1.
</event>
<event>
 7    1  0.2966651E-011  0.5052885E+02  0.7816164E-02  0.1300439E+00
        -11   -1    0    0    0    0  0.00000000000E+00  0.00000000000E+00  0.45593999997E+02  0.45594000000E+02  0.51100000000E-03 0.  1.
         11   -1    0    0    0    0 -0.00000000000E+00 -0.00000000000E+00 -0.45593999997E+02  0.45594000000E+02  0.51100000000E-03 0. -1.
    9900012    2    1    2    0    0 -0.27199665557E+02  0.69662929293E+01  0.29407742514E+02  0.50528851418E+02  0.29999974371E+02 0.  0.
         12    1    1    2    0    0  0.27199665557E+02 -0.69662929293E+01 -0.29407742514E+02  0.40659148582E+02  0.00000000000E+00 0. -1.
         11    1    3    3    0    0 -0.58870343845E+01  0.13220982646E+01 -0.10044590546E+01  0.61167030269E+01  0.51100000000E-03 0. -1.
        -11    1    3    3    0    0 -0.13483552518E+02 -0.10203255490E+01  0.31296351384E+02  0.34092651158E+02  0.51100000000E-03 0.  1.
        -12    1    3    3    0    0 -0.78290786549E+01  0.66645202137E+01 -0.88414981536E+00  0.10319497234E+02  0.00000000000E+00 0.  1.
</event>
<event>
 7    1  0.2966651E-011  0.5052885E+02  0.7816164E-02  0.1300439E+00
        -11   -1    0    0    0    0  0.00000000000E+00  0.00000000000E+00  0.45593999997E+02  0.45594000000E+02  0.51100000000E-03 0. -1.
         11   -1    0    0    0    0 -0.00000000000E+00 -0.00000000000E+00 -0.45593999997E+02  0.45594000000E+02  0.51100000000E-03 0.  1.
    9900012    2    1    2    0    0 -0.38241145612E+02 -0.14976821369E+01 -0.13730911461E+02  0.50528853440E+02  0.29999980515E+02 0.  0.
         12    1    1    2    0    0  0.38241145612E+02  0.14976821369E+01  0.13730911461E+02  0.40659146560E+02  0.00000000000E+00 0. -1.
         11    1    3    3    0    0 -0.85808378378E+01  0.97437900064E+01 -0.71161032156E+01  0.14805780862E+02  0.51100000000E-03 0. -1.
        -11    1    3    3    0    0 -0.31072078011E+02 -0.88289508754E+01 -0.58803553038E+01  0.32832955765E+02  0.51100000000E-03 0.  1.
        -12    1    3    3    0    0  0.14117702373E+01 -0.24125212680E+01 -0.73445294116E+00  0.28901168132E+01  0.00000000000E+00 0.  1.
</event>
<event>
 7    1  0.2966651E-011  0.5052886E+02  0.7816164E-02  0.1300439E+00
        -11   -1    0    0    0    0  0.00000000000E+00  0.00000000000E+00  0.45593999997E+02  0.45594000000E+02  0.51100000000E-03 0.  1.
         11   -1    0    0    0    0 -0.00000000000E+00 -0.00000000000E+00 -0.45593999997E+02  0.45594000000E+02  0.51100000000E-03 0. -1.
    9900012    2    1    2    0    0 -0.31289070780E+02 -0.41333867722E+01  0.25633477598E+02  0.50528855761E+02  0.29999987570E+02 0.  0.
         12    1    1    2    0    0  0.31289070780E+02  0.41333867722E+01 -0.25633477598E+02  0.40659144239E+02  0.00000000000E+00 0. -1.
         11    1    3    3    0    0  0.33930611503E+01  0.62031044218E+01  0.31095086096E+01  0.77240153089E+01  0.51100000000E-03 0. -1.
        -11    1    3    3    0    0 -0.12052749836E+02 -0.54234864518E+01  0.74079871509E+01  0.15151279081E+02  0.51100000000E-03 0.  1.
         12    1    3    3    0    0 -0.22629382095E+02 -0.49130047423E+01  0.15115981838E+02  0.27653561371E+02  0.00000000000E+00 0. -1.
</event>
<event>
 7    1  0.2966651E-011  0.5052886E+02  0.7816164E-02  0.1300439E+00
        -11   -1    0    0    0    0  0.00000000000E+00  0.00000000000E+00  0.45593999997E+02  0.45594000000E+02  0.51100000000E-03 0. -1.
         11   -1    0    0    0    0 -0.00000000000E+00 -0.00000000000E+00 -0.45593999997E+02  0.45594000000E+02  0.51100000000E-03 0.  1.
    9900012    2    1    2    0    0 -0.16839548344E+02  0.46314981579E+01 -0.36717084307E+02  0.50528862729E+02  0.30000008752E+02 0.  0.
         12    1    1    2    0    0  0.16839548344E+02 -0.46314981579E+01  0.36717084307E+02  0.40659137271E+02  0.00000000000E+00 0. -1.
         11    1    3    3    0    0 -0.72491625571E+00 -0.79066503477E+01  0.32525793718E+00  0.79464719395E+01  0.51100000000E-03 0. -1.
        -11    1    3    3    0    0 -0.92444606915E+01  0.76585817285E+01 -0.16729620784E+02  0.20591117973E+02  0.51100000000E-03 0.  1.
         12    1    3    3    0    0 -0.68701713971E+01  0.48795667772E+01 -0.20312721460E+02  0.21991272816E+02  0.00000000000E+00 0. -1.
</event>
<event>
 7    1  0.2966651E-011  0.5052886E+02  0.7816164E-02  0.1300439E+00
        -11   -1    0    0    0    0  0.00000000000E+00  0.00000000000E+00  0.45593999997E+02  0.45594000000E+02  0.51100000000E-03 0.  1.
         11   -1    0    0    0    0 -0.00000000000E+00 -0.00000000000E+00 -0.45593999997E+02  0.45594000000E+02  0.51100000000E-03 0. -1.
    9900012    2    1    2    0    0 -0.16542115204E+02 -0.27599094937E+02  0.24855868999E+02  0.50528857849E+02  0.29999993917E+02 0.  0.
         12    1    1    2    0    0  0.16542115204E+02  0.27599094937E+02 -0.24855868999E+02  0.40659142151E+02  0.00000000000E+00 0. -1.
         11    1    3    3    0    0 -0.35596538436E+01 -0.50300263130E+01 -0.43381971692E-01  0.61623195675E+01  0.51100000000E-03 0. -1.
        -11    1    3    3    0    0 -0.18142377794E+02 -0.11214357347E+02  0.23626649066E+02  0.31829643873E+02  0.51100000000E-03 0.  1.
        -12    1    3    3    0    0  0.51599164336E+01 -0.11354711277E+02  0.12726019041E+01  0.12536894408E+02  0.00000000000E+00 0.  1.
</event>
<event>
 7    1  0.2966651E-011  0.5052886E+02  0.7816164E-02  0.1300439E+00
        -11   -1    0    0    0    0  0.00000000000E+00  0.00000000000E+00  0.45593999997E+02  0.45594000000E+02  0.51100000000E-03 0.  1.
         11   -1    0    0    0    0 -0.00000000000E+00 -0.00000000000E+00 -0.45593999997E+02  0.45594000000E+02  0.51100000000E-03 0. -1.
    9900012    2    1    2    0    0 -0.11269476360E+01 -0.31569097391E+02  0.25598594522E+02  0.50528856348E+02  0.29999989354E+02 0.  0.
         12    1    1    2    0    0  0.11269476360E+01  0.31569097391E+02 -0.25598594522E+02  0.40659143652E+02  0.00000000000E+00 0. -1.
         11    1    3    3    0    0  0.17814321641E+01 -0.45837354187E+01 -0.43974631288E+01  0.65971064243E+01  0.51100000000E-03 0. -1.
        -11    1    3    3    0    0  0.53923126193E+01 -0.61703919378E+01  0.14603193978E+02  0.16745269382E+02  0.51100000000E-03 0.  1.
         12    1    3    3    0    0 -0.83006924193E+01 -0.20814970034E+02  0.15392863673E+02  0.27186480541E+02  0.00000000000E+00 0. -1.
</event>
<event>
 7    1  0.2966651E-011  0.5052886E+02  0.7816164E-02  0.1300439E+00
        -11   -1    0    0    0    0  0.00000000000E+00  0.00000000000E+00  0.45593999997E+02  0.45594000000E+02  0.51100000000E-03 0.  1.
         11   -1    0    0    0    0 -0.00000000000E+00 -0.00000000000E+00 -0.45593999997E+02  0.45594000000E+02  0.51100000000E-03 0. -1.
    9900012    2    1    2    0    0 -0.30699229247E+02 -0.21875951909E+01  0.26569489267E+02  0.50528855776E+02  0.29999987617E+02 0.  0.
         12    1    1    2    0    0  0.30699229247E+02  0.21875951909E+01 -0.26569489267E+02  0.40659144224E+02  0.00000000000E+00 0. -1.
         11    1    3    3    0    0 -0.15609619574E+02  0.12481554407E+02  0.18051615536E+02  0.26931584569E+02  0.51100000000E-03 0. -1.
        -11    1    3    3    0    0 -0.78732842632E+01 -0.52288215260E+01  0.92637097835E+00  0.94967016953E+01  0.51100000000E-03 0.  1.
         12    1    3    3    0    0 -0.72163254100E+01 -0.94403280716E+01  0.75915027528E+01  0.14100569512E+02  0.00000000000E+00 0. -1.
</event>
<event>
 7    1  0.2966651E-011  0.5052886E+02  0.7816164E-02  0.1300439E+00
        -11   -1    0    0    0    0  0.00000000000E+00  0.00000000000E+00  0.45593999997E+02  0.45594000000E+02  0.51100000000E-03 0. -1.
         11   -1    0    0    0    0 -0.00000000000E+00 -0.00000000000E+00 -0.45593999997E+02  0.45594000000E+02  0.51100000000E-03 0.  1.
    9900012    2    1    2    0    0 -0.60319816593E+01  0.35248872065E+02 -0.19346783702E+02  0.50528858049E+02  0.29999994525E+02 0.  0.
         12    1    1    2    0    0  0.60319816593E+01 -0.35248872065E+02  0.19346783702E+02  0.40659141951E+02  0.00000000000E+00 0. -1.
         11    1    3    3    0    0 -0.62585745305E+01  0.28792689163E+02 -0.13467505451E+01  0.29495803798E+02  0.51100000000E-03 0. -1.
        -11    1    3    3    0    0 -0.37063553304E+01  0.11830837034E+01 -0.96379436506E+01  0.10393590090E+02  0.51100000000E-03 0.  1.
         12    1    3    3    0    0  0.39329482017E+01  0.52730991979E+01 -0.83620895066E+01  0.10639464161E+02  0.00000000000E+00 0. -1.
</event>
<event>
 7    1  0.2966651E-011  0.5052886E+02  0.7816164E-02  0.1300439E+00
        -11   -1    0    0    0    0  0.00000000000E+00  0.00000000000E+00  0.45593999997E+02  0.45594000000E+02  0.51100000000E-03 0.  1.
         11   -1    0    0    0    0 -0.00000000000E+00 -0.00000000000E+00 -0.45593999997E+02  0.45594000000E+02  0.51100000000E-03 0. -1.
    9900012    2    1    2    0    0  0.18618411979E+02  0.11097662401E+00  0.36145649033E+02  0.50528861735E+02  0.30000005731E+02 0.  0.
         12    1    1    2    0    0 -0.18618411979E+02 -0.11097662401E+00 -0.36145649033E+02  0.40659138265E+02  0.00000000000E+00 0. -1.
         11    1    3    3    0    0  0.69946541780E+01  0.10007823678E+02  0.85757504696E+01  0.14920630624E+02  0.51100000000E-03 0. -1.
        -11    1    3    3    0    0  0.15058236764E+01 -0.11202057095E+02  0.91107154898E+01  0.14517531646E+02  0.51100000000E-03 0.  1.
        -12    1    3    3    0    0  0.10117934125E+02  0.13052100410E+01  0.18459183073E+02  0.21090699465E+02  0.00000000000E+00 0.  1.
</event>
<event>
 7    1  0.2966651E-011  0.5052886E+02  0.7816164E-02  0.1300439E+00
        -11   -1    0    0    0    0  0.00000000000E+00  0.00000000000E+00  0.45593999997E+02  0.45594000000E+02  0.51100000000E-03 0. -1.
         11   -1    0    0    0    0 -0.00000000000E+00 -0.00000000000E+00 -0.45593999997E+02  0.45594000000E+02  0.51100000000E-03 0.  1.
    9900012    2    1    2    0    0  0.33577832873E+02  0.13029405165E+02 -0.18866091299E+02  0.50528860064E+02  0.30000000651E+02 0.  0.
         12    1    1    2    0    0 -0.33577832873E+02 -0.13029405165E+02  0.18866091299E+02  0.40659139936E+02  0.00000000000E+00 0. -1.
         11    1    3    3    0    0  0.25149843535E+00 -0.60446828944E+01 -0.61455742822E+01  0.86237767989E+01  0.51100000000E-03 0. -1.
        -11    1    3    3    0    0  0.23330405792E+02  0.10381807325E+02 -0.35218089001E+01  0.25777759715E+02  0.51100000000E-03 0.  1.
         12    1    3    3    0    0  0.99959286459E+01  0.86922807341E+01 -0.91987081172E+01  0.16127323550E+02  0.00000000000E+00 0. -1.
</event>
<event>
 7    1  0.2966651E-011  0.5052886E+02  0.7816164E-02  0.1300439E+00
        -11   -1    0    0    0    0  0.00000000000E+00  0.00000000000E+00  0.45593999997E+02  0.45594000000E+02  0.51100000000E-03 0.  1.
         11   -1    0    0    0    0 -0.00000000000E+00 -0.00000000000E+00 -0.45593999997E+02  0.45594000000E+02  0.51100000000E-03 0. -1.
    9900012    2    1    2    0    0  0.23697536903E+02  0.23362215107E+02  0.23362352295E+02  0.50528857674E+02  0.29999993385E+02 0.  0.
         12    1    1    2    0    0 -0.23697536903E+02 -0.23362215107E+02 -0.23362352295E+02  0.40659142326E+02  0.00000000000E+00 0. -1.
         11    1    3    3    0    0  0.92737576203E+01  0.26744604997E+01  0.10243228586E+02  0.14074055972E+02  0.51100000000E-03 0. -1.
        -11    1    3    3    0    0  0.10075210471E+02  0.21375215281E+02  0.11017460916E+01  0.23656363606E+02  0.51100000000E-03 0.  1.
        -12    1    3    3    0    0  0.43485688114E+01 -0.68746067433E+00  0.12017377617E+02  0.12798438095E+02  0.00000000000E+00 0.  1.
</event>
<event>
 7    1  0.2966651E-011  0.5052900E+02  0.7816164E-02  0.1300438E+00
        -11   -1    0    0    0    0  0.00000000000E+00  0.00000000000E+00  0.45593999997E+02  0.45594000000E+02  0.51100000000E-03 0. -1.
         11   -1    0    0    0    0 -0.00000000000E+00 -0.00000000000E+00 -0.45593999997E+02  0.45594000000E+02  0.51100000000E-03 0.  1.
    9900012    2    1    2    0    0 -0.14105363503E+02  0.27483519441E+02 -0.26435751371E+02  0.50529002583E+02  0.30000433847E+02 0.  0.
         12    1    1    2    0    0  0.14105363503E+02 -0.27483519441E+02  0.26435751371E+02  0.40658997417E+02  0.00000000000E+00 0. -1.
         11    1    3    3    0    0  0.53745407275E+01  0.71771744693E+01 -0.74940235854E+00  0.89977289107E+01  0.51100000000E-03 0. -1.
        -11    1    3    3    0    0 -0.18062857737E+02  0.22688535354E+02 -0.25714769423E+02  0.38759332203E+02  0.51100000000E-03 0.  1.
         12    1    3    3    0    0 -0.14170464942E+01 -0.23821903824E+01  0.28420410206E-01  0.27719414684E+01  0.00000000000E+00 0. -1.
</event>
<event>
 7    1  0.2966651E-011  0.5052886E+02  0.7816164E-02  0.1300439E+00
        -11   -1    0    0    0    0  0.00000000000E+00  0.00000000000E+00  0.45593999997E+02  0.45594000000E+02  0.51100000000E-03 0. -1.
         11   -1    0    0    0    0 -0.00000000000E+00 -0.00000000000E+00 -0.45593999997E+02  0.45594000000E+02  0.51100000000E-03 0.  1.
    9900012    2    1    2    0    0 -0.38064676787E+02  0.73325031367E+01 -0.12267059127E+02  0.50528856370E+02  0.29999989421E+02 0.  0.
         12    1    1    2    0    0  0.38064676787E+02 -0.73325031367E+01  0.12267059127E+02  0.40659143630E+02  0.00000000000E+00 0. -1.
         11    1    3    3    0    0 -0.20988376596E+02 -0.11112412507E+02 -0.71736698441E+01  0.24808450237E+02  0.51100000000E-03 0. -1.
        -11    1    3    3    0    0 -0.62189014926E+01  0.55142690837E+01 -0.12635623749E+01  0.84070499843E+01  0.51100000000E-03 0.  1.
         12    1    3    3    0    0 -0.10857398698E+02  0.12930646560E+02 -0.38298269080E+01  0.17313356148E+02  0.00000000000E+00 0. -1.
</event>
<event>
 7    1  0.2966651E-011  0.5052886E+02  0.7816164E-02  0.1300439E+00
        -11   -1    0    0    0    0  0.00000000000E+00  0.00000000000E+00  0.45593999997E+02  0.45594000000E+02  0.51100000000E-03 0. -1.
         11   -1    0    0    0    0 -0.00000000000E+00 -0.00000000000E+00 -0.45593999997E+02  0.45594000000E+02  0.51100000000E-03 0.  1.
    9900012    2    1    2    0    0 -0.19893915881E+02  0.34513309510E+02 -0.81381491768E+01  0.50528857185E+02  0.29999991900E+02 0.  0.
         12    1    1    2    0    0  0.19893915881E+02 -0.34513309510E+02  0.81381491768E+01  0.40659142815E+02  0.00000000000E+00 0. -1.
         11    1    3    3    0    0 -0.12471713583E+02  0.13671735639E+02  0.45374408447E+01  0.19053828087E+02  0.51100000000E-03 0. -1.
        -11    1    3    3    0    0 -0.70663824564E+00  0.12888561314E+02 -0.15991100961E+02  0.20550660830E+02  0.51100000000E-03 0.  1.
        -12    1    3    3    0    0 -0.67155640529E+01  0.79530125563E+01  0.33155109392E+01  0.10924368268E+02  0.00000000000E+00 0.  1.
</event>
<event>
 7    1  0.2966651E-011  0.5052885E+02  0.7816164E-02  0.1300439E+00
        -11   -1    0    0    0    0  0.00000000000E+00  0.00000000000E+00  0.45593999997E+02  0.45594000000E+02  0.51100000000E-03 0.  1.
         11   -1    0    0    0    0 -0.00000000000E+00 -0.00000000000E+00 -0.45593999997E+02  0.45594000000E+02  0.51100000000E-03 0. -1.
    9900012    2    1    2    0    0 -0.28495661660E+02  0.27476146288E+02  0.92857386794E+01  0.50528852308E+02  0.29999977074E+02 0.  0.
         12    1    1    2    0    0  0.28495661660E+02 -0.27476146288E+02 -0.92857386794E+01  0.40659147692E+02  0.00000000000E+00 0. -1.
         11    1    3    3    0    0 -0.19963068302E+02  0.97598539811E+01  0.93038230757E+01  0.24090246363E+02  0.51100000000E-03 0. -1.
        -11    1    3    3    0    0 -0.43153875131E-01  0.14788706388E+02  0.56365692940E+01  0.15826516122E+02  0.51100000000E-03 0.  1.
         12    1    3    3    0    0 -0.84894394829E+01  0.29275859187E+01 -0.56546536902E+01  0.10612089823E+02  0.00000000000E+00 0. -1.
</event>
<event>
 7    1  0.2966651E-011  0.5052886E+02  0.7816164E-02  0.1300439E+00
        -11   -1    0    0    0    0  0.00000000000E+00  0.00000000000E+00  0.45593999997E+02  0.45594000000E+02  0.51100000000E-03 0.  1.
         11   -1    0    0    0    0 -0.00000000000E+00 -0.00000000000E+00 -0.45593999997E+02  0.45594000000E+02  0.51100000000E-03 0. -1.
    9900012    2    1    2    0    0 -0.87089362963E+01 -0.11246839743E+02  0.38089741230E+02  0.50528863725E+02  0.30000011780E+02 0.  0.
         12    1    1    2    0    0  0.87089362963E+01  0.11246839743E+02 -0.38089741230E+02  0.40659136275E+02  0.00000000000E+00 0. -1.
         11    1    3    3    0    0  0.21556131351E+00  0.52322150168E+01 -0.21591553551E+01  0.56643175026E+01  0.51100000000E-03 0. -1.
        -11    1    3    3    0    0 -0.97295054992E+01 -0.12954904939E+02  0.32554036979E+02  0.36362867917E+02  0.51100000000E-03 0.  1.
        -12    1    3    3    0    0  0.80500788936E+00 -0.35241498204E+01  0.76948596060E+01  0.85016783058E+01  0.00000000000E+00 0.  1.
</event>
<event>
 7    1  0.2966651E-011  0.5052886E+02  0.7816164E-02  0.1300439E+00
        -11   -1    0    0    0    0  0.00000000000E+00  0.00000000000E+00  0.45593999997E+02  0.45594000000E+02  0.51100000000E-03 0.  1.
         11   -1    0    0    0    0 -0.00000000000E+00 -0.00000000000E+00 -0.45593999997E+02  0.45594000000E+02  0.51100000000E-03 0. -1.
    9900012    2    1    2    0    0 -0.75712619884E+01  0.21392989012E+02  0.33736949821E+02  0.50528858713E+02  0.29999996545E+02 0.  0.
         12    1    1    2    0    0  0.75712619884E+01 -0.21392989012E+02 -0.33736949821E+02  0.40659141287E+02  0.00000000000E+00 0. -1.
         11    1    3    3    0    0 -0.32589982151E+01 -0.73884460819E+00 -0.19639723535E+01  0.38760996360E+01  0.51100000000E-03 0. -1.
        -11    1    3    3    0    0 -0.66403129329E+01  0.25140198307E+02  0.29022942960E+02  0.38967352298E+02  0.51100000000E-03 0.  1.
        -12    1    3    3    0    0  0.23280491596E+01 -0.30083646875E+01  0.66779792142E+01  0.76854067795E+01  0.00000000000E+00 0.  1.
</event>
<event>
 7    1  0.2966651E-011  0.5052886E+02  0.7816164E-02  0.1300439E+00
        -11   -1    0    0    0    0  0.00000000000E+00  0.00000000000E+00  0.45593999997E+02  0.45594000000E+02  0.51100000000E-03 0.  1.
         11   -1    0    0    0    0 -0.00000000000E+00 -0.00000000000E+00 -0.45593999997E+02  0.45594000000E+02  0.51100000000E-03 0. -1.
    9900012    2    1    2    0    0  0.32086789873E+02  0.21275744799E+02  0.13074643721E+02  0.50528859459E+02  0.29999998811E+02 0.  0.
         12    1    1    2    0    0 -0.32086789873E+02 -0.21275744799E+02 -0.13074643721E+02  0.40659140541E+02  0.00000000000E+00 0. -1.
         11    1    3    3    0    0  0.35507100394E+00 -0.27959300617E+01  0.75784827565E+01  0.80855860319E+01  0.51100000000E-03 0. -1.
        -11    1    3    3    0    0  0.21262712782E+02  0.11987831016E+02  0.91064658234E+01  0.26052615365E+02  0.51100000000E-03 0.  1.
         12    1    3    3    0    0  0.10469006087E+02  0.12083843845E+02 -0.36103048592E+01  0.16390658061E+02  0.00000000000E+00 0. -1.
</event>
<event>
 7    1  0.2966651E-011  0.5052886E+02  0.7816164E-02  0.1300439E+00
        -11   -1    0    0    0    0  0.00000000000E+00  0.00000000000E+00  0.45593999997E+02  0.45594000000E+02  0.51100000000E-03 0.  1.
         11   -1    0    0    0    0 -0.00000000000E+00 -0.00000000000E+00 -0.45593999997E+02  0.45594000000E+02  0.51100000000E-03 0. -1.
    9900012    2    1    2    0    0  0.29028032126E+02  0.26476223041E+01  0.28346583766E+02  0.50528863706E+02  0.30000011720E+02 0.  0.
         12    1    1    2    0    0 -0.29028032126E+02 -0.26476223041E+01 -0.28346583766E+02  0.40659136294E+02  0.00000000000E+00 0. -1.
         11    1    3    3    0    0  0.80383480516E+01 -0.46725633755E+01  0.10180610654E+02  0.13787411702E+02  0.51100000000E-03 0. -1.
        -11    1    3    3    0    0  0.22005702813E+02  0.40440516939E+01  0.47223358461E+01  0.22867132888E+02  0.51100000000E-03 0.  1.
        -12    1    3    3    0    0 -0.10160187388E+01  0.32761339857E+01  0.13443637267E+02  0.13874319116E+02  0.00000000000E+00 0.  1.
</event>
<event>
 7    1  0.2966651E-011  0.5052886E+02  0.7816164E-02  0.1300439E+00
        -11   -1    0    0    0    0  0.00000000000E+00  0.00000000000E+00  0.45593999997E+02  0.45594000000E+02  0.51100000000E-03 0. -1.
         11   -1    0    0    0    0 -0.00000000000E+00 -0.00000000000E+00 -0.45593999997E+02  0.45594000000E+02  0.51100000000E-03 0.  1.
    9900012    2    1    2    0    0 -0.37083513370E+02  0.16522190041E+02 -0.22351869804E+01  0.50528858489E+02  0.29999995862E+02 0.  0.
         12    1    1    2    0    0  0.37083513370E+02 -0.16522190041E+02  0.22351869804E+01  0.40659141511E+02  0.00000000000E+00 0. -1.
         11    1    3    3    0    0 -0.13091845864E+02  0.17937654758E+02  0.56861381195E+01  0.22923526197E+02  0.51100000000E-03 0. -1.
        -11    1    3    3    0    0 -0.14784447643E+02 -0.37801555264E+01 -0.44813616242E-01  0.15260127012E+02  0.51100000000E-03 0.  1.
         12    1    3    3    0    0 -0.92072198632E+01  0.23646908095E+01 -0.78765114837E+01  0.12345205279E+02  0.00000000000E+00 0. -1.
</event>
<event>
 7    1  0.2966651E-011  0.5052888E+02  0.7816164E-02  0.1300439E+00
        -11   -1    0    0    0    0  0.00000000000E+00  0.00000000000E+00  0.45593999997E+02  0.45594000000E+02  0.51100000000E-03 0. -1.
         11   -1    0    0    0    0 -0.00000000000E+00 -0.00000000000E+00 -0.45593999997E+02  0.45594000000E+02  0.51100000000E-03 0.  1.
    9900012    2    1    2    0    0  0.35280272264E+02 -0.57967128374E+01 -0.19361418785E+02  0.50528880136E+02  0.30000061661E+02 0.  0.
         12    1    1    2    0    0 -0.35280272264E+02  0.57967128374E+01  0.19361418785E+02  0.40659119864E+02  0.00000000000E+00 0. -1.
         11    1    3    3    0    0  0.19700790785E+00 -0.79138636639E+01  0.53484968591E+00  0.79343629016E+01  0.51100000000E-03 0. -1.
        -11    1    3    3    0    0  0.23202319973E+02 -0.48373403114E+01 -0.14642021082E+02  0.27859222801E+02  0.51100000000E-03 0.  1.
         12    1    3    3    0    0  0.11880944383E+02  0.69544911380E+01 -0.52542473891E+01  0.14735294434E+02  0.00000000000E+00 0. -1.
</event>
<event>
 7    1  0.2966651E-011  0.5052887E+02  0.7816164E-02  0.1300439E+00
        -11   -1    0    0    0    0  0.00000000000E+00  0.00000000000E+00  0.45593999997E+02  0.45594000000E+02  0.51100000000E-03 0.  1.
         11   -1    0    0    0    0 -0.00000000000E+00 -0.00000000000E+00 -0.45593999997E+02  0.45594000000E+02  0.51100000000E-03 0. -1.
    9900012    2    1    2    0    0 -0.14726064474E+02 -0.32870524426E+02  0.18863633992E+02  0.50528867713E+02  0.30000023901E+02 0.  0.
         12    1    1    2    0    0  0.14726064474E+02  0.32870524426E+02 -0.18863633992E+02  0.40659132287E+02  0.00000000000E+00 0. -1.
         11    1    3    3    0    0  0.19477735071E+01 -0.22879443207E+02  0.79706794625E+01  0.24306264099E+02  0.51100000000E-03 0. -1.
        -11    1    3    3    0    0 -0.16271943383E+02 -0.79912145723E+01  0.13721130721E+02  0.22735546625E+02  0.51100000000E-03 0.  1.
        -12    1    3    3    0    0 -0.40189459749E+00 -0.19998666471E+01 -0.28281761919E+01  0.34870569892E+01  0.00000000000E+00 0.  1.
</event>
<event>
 7    1  0.2966651E-011  0.5052886E+02  0.7816164E-02  0.1300439E+00
        -11   -1    0    0    0    0  0.00000000000E+00  0.00000000000E+00  0.45593999997E+02  0.45594000000E+02  0.51100000000E-03 0. -1.
         11   -1    0    0    0    0 -0.00000000000E+00 -0.00000000000E+00 -0.45593999997E+02  0.45594000000E+02  0.51100000000E-03 0.  1.
    9900012    2    1    2    0    0  0.26066045732E+02  0.17581219704E+02 -0.25780374681E+02  0.50528859021E+02  0.29999997481E+02 0.  0.
         12    1    1    2    0    0 -0.26066045732E+02 -0.17581219704E+02  0.25780374681E+02  0.40659140979E+02  0.00000000000E+00 0. -1.
         11    1    3    3    0    0  0.11953401948E+02  0.14368996862E+02 -0.27900928297E+01  0.18898055646E+02  0.51100000000E-03 0.  1.
        -11    1    3    3    0    0  0.16924668212E+02  0.53585829045E+01 -0.16487214282E+02  0.24227815417E+02  0.51100000000E-03 0. -1.
         12    1    3    3    0    0 -0.28120244276E+01 -0.21463600623E+01 -0.65030675693E+01  0.74029879582E+01  0.00000000000E+00 0. -1.
</event>
<event>
 7    1  0.2966651E-011  0.5052884E+02  0.7816164E-02  0.1300439E+00
        -11   -1    0    0    0    0  0.00000000000E+00  0.00000000000E+00  0.45593999997E+02  0.45594000000E+02  0.51100000000E-03 0. -1.
         11   -1    0    0    0    0 -0.00000000000E+00 -0.00000000000E+00 -0.45593999997E+02  0.45594000000E+02  0.51100000000E-03 0.  1.
    9900012    2    1    2    0    0  0.12232284013E+02  0.37672736568E+02 -0.91816785428E+01  0.50528842685E+02  0.29999947826E+02 0.  0.
         12    1    1    2    0    0 -0.12232284013E+02 -0.37672736568E+02  0.91816785428E+01  0.40659157315E+02  0.00000000000E+00 0. -1.
         11    1    3    3    0    0 -0.20974223543E+01  0.18242756001E+02 -0.86781838019E+00  0.18383428300E+02  0.51100000000E-03 0.  1.
        -11    1    3    3    0    0  0.15451131444E+02  0.19676773500E+02 -0.13147866190E+01  0.25052775143E+02  0.51100000000E-03 0. -1.
        -12    1    3    3    0    0 -0.11214250767E+01 -0.24679293310E+00 -0.69990735435E+01  0.70926392424E+01  0.00000000000E+00 0.  1.
</event>
<event>
 7    1  0.2966651E-011  0.5052877E+02  0.7816164E-02  0.1300439E+00
        -11   -1    0    0    0    0  0.00000000000E+00  0.00000000000E+00  0.45593999997E+02  0.45594000000E+02  0.51100000000E-03 0. -1.
         11   -1    0    0    0    0 -0.00000000000E+00 -0.00000000000E+00 -0.45593999997E+02  0.45594000000E+02  0.51100000000E-03 0.  1.
    9900012    2    1    2    0    0  0.28847231800E+02 -0.27487177044E+02 -0.80910556599E+01  0.50528771452E+02  0.29999731305E+02 0.  0.
         12    1    1    2    0    0 -0.28847231800E+02  0.27487177044E+02  0.80910556599E+01  0.40659228548E+02  0.00000000000E+00 0. -1.
         11    1    3    3    0    0  0.77409877564E+01 -0.40501915111E+01  0.66470121875E+01  0.10977691652E+02  0.51100000000E-03 0. -1.
        -11    1    3    3    0    0  0.19841464132E+02 -0.26521613016E+02 -0.11972989733E+02  0.35219769155E+02  0.51100000000E-03 0.  1.
         12    1    3    3    0    0  0.12647799118E+01  0.30846274829E+01 -0.27650781140E+01  0.43313106458E+01  0.00000000000E+00 0. -1.
</event>
<event>
 7    1  0.2966651E-011  0.5052890E+02  0.7816164E-02  0.1300439E+00
        -11   -1    0    0    0    0  0.00000000000E+00  0.00000000000E+00  0.45593999997E+02  0.45594000000E+02  0.51100000000E-03 0.  1.
         11   -1    0    0    0    0 -0.00000000000E+00 -0.00000000000E+00 -0.45593999997E+02  0.45594000000E+02  0.51100000000E-03 0. -1.
    9900012    2    1    2    0    0 -0.15096743449E+02  0.15473746637E+01  0.37720768050E+02  0.50528900485E+02  0.30000123513E+02 0.  0.
         12    1    1    2    0    0  0.15096743449E+02 -0.15473746637E+01 -0.37720768050E+02  0.40659099515E+02  0.00000000000E+00 0. -1.
         11    1    3    3    0    0 -0.14434521010E+02 -0.59133594926E+01  0.33544420816E+02  0.36993937144E+02  0.51100000000E-03 0. -1.
        -11    1    3    3    0    0  0.23993355962E+01  0.44555643786E+01  0.68225485970E+01  0.84944708402E+01  0.51100000000E-03 0.  1.
         12    1    3    3    0    0 -0.30615580355E+01  0.30051697777E+01 -0.26462013627E+01  0.50404925007E+01  0.00000000000E+00 0. -1.
</event>
<event>
 7    1  0.2966651E-011  0.5052886E+02  0.7816164E-02  0.1300439E+00
        -11   -1    0    0    0    0  0.00000000000E+00  0.00000000000E+00  0.45593999997E+02  0.45594000000E+02  0.51100000000E-03 0. -1.
         11   -1    0    0    0    0 -0.00000000000E+00 -0.00000000000E+00 -0.45593999997E+02  0.45594000000E+02  0.51100000000E-03 0.  1.
    9900012    2    1    2    0    0  0.27629197322E+02 -0.27081658303E+02 -0.12505080626E+02  0.50528858315E+02  0.29999995334E+02 0.  0.
         12    1    1    2    0    0 -0.27629197322E+02  0.27081658303E+02  0.12505080626E+02  0.40659141685E+02  0.00000000000E+00 0. -1.
         11    1    3    3    0    0  0.79896394980E+01  0.59489989515E+01 -0.43848845634E+01  0.10883572057E+02  0.51100000000E-03 0. -1.
        -11    1    3    3    0    0  0.14814779206E+02 -0.21296479872E+02 -0.72071903227E+01  0.26925105951E+02  0.51100000000E-03 0.  1.
         12    1    3    3    0    0  0.48247786178E+01 -0.11734177382E+02 -0.91300574022E+00  0.12720180307E+02  0.00000000000E+00 0. -1.
</event>
<event>
 7    1  0.2966651E-011  0.5052887E+02  0.7816164E-02  0.1300439E+00
        -11   -1    0    0    0    0  0.00000000000E+00  0.00000000000E+00  0.45593999997E+02  0.45594000000E+02  0.51100000000E-03 0.  1.
         11   -1    0    0    0    0 -0.00000000000E+00 -0.00000000000E+00 -0.45593999997E+02  0.45594000000E+02  0.51100000000E-03 0. -1.
    9900012    2    1    2    0    0  0.54117504537E+01  0.27615704211E+02  0.29347069723E+02  0.50528872324E+02  0.30000037917E+02 0.  0.
         12    1    1    2    0    0 -0.54117504537E+01 -0.27615704211E+02 -0.29347069723E+02  0.40659127676E+02  0.00000000000E+00 0. -1.
         11    1    3    3    0    0  0.32630888030E+01  0.20151799261E+01 -0.11985058489E+01  0.40180984560E+01  0.51100000000E-03 0. -1.
        -11    1    3    3    0    0  0.29157616275E+01  0.30041368063E+02  0.23988252769E+02  0.38554140272E+02  0.51100000000E-03 0.  1.
        -12    1    3    3    0    0 -0.76709997681E+00 -0.44408437788E+01  0.65573228028E+01  0.79566335961E+01  0.00000000000E+00 0.  1.
</event>
<event>
 7    1  0.2966651E-011  0.5052886E+02  0.7816164E-02  0.1300439E+00
        -11   -1    0    0    0    0  0.00000000000E+00  0.00000000000E+00  0.45593999997E+02  0.45594000000E+02  0.51100000000E-03 0.  1.
         11   -1    0    0    0    0 -0.00000000000E+00 -0.00000000000E+00 -0.45593999997E+02  0.45594000000E+02  0.51100000000E-03 0. -1.
    9900012    2    1    2    0    0  0.30803952004E+02  0.75651118004E+01  0.25437204393E+02  0.50528859048E+02  0.29999997563E+02 0.  0.
         12    1    1    2    0    0 -0.30803952004E+02 -0.75651118004E+01 -0.25437204393E+02  0.40659140952E+02  0.00000000000E+00 0. -1.
         11    1    3    3    0    0  0.13376943716E+01  0.49039746999E+01  0.88440338979E+01  0.10200751440E+02  0.51100000000E-03 0. -1.
        -11    1    3    3    0    0  0.15445806583E+02 -0.87913855343E+01  0.12610253970E+02  0.21791739400E+02  0.51100000000E-03 0.  1.
        -12    1    3    3    0    0  0.14020451050E+02  0.11452522635E+02  0.39829165245E+01  0.18536368209E+02  0.00000000000E+00 0.  1.
</event>
<event>
 7    1  0.2966651E-011  0.5052886E+02  0.7816164E-02  0.1300439E+00
        -11   -1    0    0    0    0  0.00000000000E+00  0.00000000000E+00  0.45593999997E+02  0.45594000000E+02  0.51100000000E-03 0.  1.
         11   -1    0    0    0    0 -0.00000000000E+00 -0.00000000000E+00 -0.45593999997E+02  0.45594000000E+02  0.51100000000E-03 0. -1.
    9900012    2    1    2    0    0  0.46405107975E+01 -0.54250292186E+01  0.40027495765E+02  0.50528859580E+02  0.29999999178E+02 0.  0.
         12    1    1    2    0    0 -0.46405107975E+01  0.54250292186E+01 -0.40027495765E+02  0.40659140420E+02  0.00000000000E+00 0. -1.
         11    1    3    3    0    0 -0.67811363243E+01 -0.21692251619E+01  0.57255634846E+01  0.91362697601E+01  0.51100000000E-03 0. -1.
        -11    1    3    3    0    0  0.11320259408E+02  0.40848069053E+01  0.31167235110E+02  0.33410035397E+02  0.51100000000E-03 0.  1.
         12    1    3    3    0    0  0.10138771342E+00 -0.73406109620E+01  0.31346971703E+01  0.79825544228E+01  0.00000000000E+00 0. -1.
</event>
<event>
 7    1  0.2966651E-011  0.5052886E+02  0.7816164E-02  0.1300439E+00
        -11   -1    0    0    0    0  0.00000000000E+00  0.00000000000E+00  0.45593999997E+02  0.45594000000E+02  0.51100000000E-03 0. -1.
         11   -1    0    0    0    0 -0.00000000000E+00 -0.00000000000E+00 -0.45593999997E+02  0.45594000000E+02  0.51100000000E-03 0.  1.
    9900012    2    1    2    0    0  0.33277761013E+02  0.39864072671E+01 -0.23018793808E+02  0.50528859708E+02  0.29999999568E+02 0.  0.
         12    1    1    2    0    0 -0.33277761013E+02 -0.39864072671E+01  0.23018793808E+02  0.40659140292E+02  0.00000000000E+00 0. -1.
         11    1    3    3    0    0  0.89004776879E+01 -0.80957588107E+01 -0.55057273765E+01  0.13231509664E+02  0.51100000000E-03 0. -1.
        -11    1    3    3    0    0  0.91821508635E+01  0.62265380064E+01 -0.17841656780E+02  0.21009673651E+02  0.51100000000E-03 0.  1.
        -12    1    3    3    0    0  0.15195132462E+02  0.58556280714E+01  0.32859034882E+00  0.16287676392E+02  0.00000000000E+00 0.  1.
</event>
<event>
 7    1  0.2966651E-011  0.5052895E+02  0.7816164E-02  0.1300438E+00
        -11   -1    0    0    0    0  0.00000000000E+00  0.00000000000E+00  0.45593999997E+02  0.45594000000E+02  0.51100000000E-03 0. -1.
         11   -1    0    0    0    0 -0.00000000000E+00 -0.00000000000E+00 -0.45593999997E+02  0.45594000000E+02  0.51100000000E-03 0.  1.
    9900012    2    1    2    0    0  0.13146821781E+02  0.23120523624E+02 -0.30753227390E+02  0.50528947743E+02  0.30000267157E+02 0.  0.
         12    1    1    2    0    0 -0.13146821781E+02 -0.23120523624E+02  0.30753227390E+02  0.40659052257E+02  0.00000000000E+00 0. -1.
         11    1    3    3    0    0  0.48244418968E+01  0.86671075550E+00 -0.54979717231E-02  0.49016790631E+01  0.51100000000E-03 0. -1.
        -11    1    3    3    0    0  0.12204642383E+02  0.24902515762E+02 -0.20934962818E+02  0.34747104274E+02  0.51100000000E-03 0.  1.
        -12    1    3    3    0    0 -0.38822624988E+01 -0.26487028941E+01 -0.98127666006E+01  0.10880164405E+02  0.00000000000E+00 0.  1.
</event>
<event>
 7    1  0.2966651E-011  0.5052885E+02  0.7816164E-02  0.1300439E+00
        -11   -1    0    0    0    0  0.00000000000E+00  0.00000000000E+00  0.45593999997E+02  0.45594000000E+02  0.51100000000E-03 0.  1.
         11   -1    0    0    0    0 -0.00000000000E+00 -0.00000000000E+00 -0.45593999997E+02  0.45594000000E+02  0.51100000000E-03 0. -1.
    9900012    2    1    2    0    0  0.19198004158E+01  0.27242315383E+02  0.30122030965E+02  0.50528854282E+02  0.29999983076E+02 0.  0.
         12    1    1    2    0    0 -0.19198004158E+01 -0.27242315383E+02 -0.30122030965E+02  0.40659145718E+02  0.00000000000E+00 0. -1.
         11    1    3    3    0    0 -0.49871737370E+00 -0.10934080807E+01 -0.37412820370E+01  0.39295612721E+01  0.51100000000E-03 0. -1.
        -11    1    3    3    0    0  0.57502432081E+01  0.27593176181E+02  0.27503641776E+02  0.39381454771E+02  0.51100000000E-03 0.  1.
         12    1    3    3    0    0 -0.33317254186E+01  0.74254728236E+00  0.63596712266E+01  0.72178382388E+01  0.00000000000E+00 0. -1.
</event>
<event>
 7    1  0.2966651E-011  0.5052887E+02  0.7816164E-02  0.1300439E+00
        -11   -1    0    0    0    0  0.00000000000E+00  0.00000000000E+00  0.45593999997E+02  0.45594000000E+02  0.51100000000E-03 0. -1.
         11   -1    0    0    0    0 -0.00000000000E+00 -0.00000000000E+00 -0.45593999997E+02  0.45594000000E+02  0.51100000000E-03 0.  1.
    9900012    2    1    2    0    0 -0.34433255171E+02  0.10571784832E+02 -0.18861428936E+02  0.50528865753E+02  0.30000017943E+02 0.  0.
         12    1    1    2    0    0  0.34433255171E+02 -0.10571784832E+02  0.18861428936E+02  0.40659134247E+02  0.00000000000E+00 0. -1.
         11    1    3    3    0    0 -0.11008029509E+01  0.49927764947E+00 -0.14385800533E+02  0.14436492044E+02  0.51100000000E-03 0. -1.
        -11    1    3    3    0    0 -0.26082731744E+02  0.40695169220E+01 -0.30917565041E+01  0.26578728746E+02  0.51100000000E-03 0.  1.
        -12    1    3    3    0    0 -0.72497204763E+01  0.60029902606E+01 -0.13838718994E+01  0.95136449633E+01  0.00000000000E+00 0.  1.
</event>
<event>
 7    1  0.2966651E-011  0.5052886E+02  0.7816164E-02  0.1300439E+00
        -11   -1    0    0    0    0  0.00000000000E+00  0.00000000000E+00  0.45593999997E+02  0.45594000000E+02  0.51100000000E-03 0.  1.
         11   -1    0    0    0    0 -0.00000000000E+00 -0.00000000000E+00 -0.45593999997E+02  0.45594000000E+02  0.51100000000E-03 0. -1.
    9900012    2    1    2    0    0 -0.10977978561E+02  0.28254575365E+02  0.27098495987E+02  0.50528861702E+02  0.30000005630E+02 0.  0.
         12    1    1    2    0    0  0.10977978561E+02 -0.28254575365E+02 -0.27098495987E+02  0.40659138298E+02  0.00000000000E+00 0. -1.
         11    1    3    3    0    0 -0.16239528219E+02  0.87243635035E+01  0.12250522965E+02  0.22133958266E+02  0.51100000000E-03 0. -1.
        -11    1    3    3    0    0  0.36160904886E+01  0.93136805199E+01  0.15026884994E+02  0.18045166337E+02  0.51100000000E-03 0.  1.
         12    1    3    3    0    0  0.16454591696E+01  0.10216531342E+02 -0.17891197180E+00  0.10349737100E+02  0.00000000000E+00 0. -1.
</event>
<event>
 7    1  0.2966651E-011  0.5052886E+02  0.7816164E-02  0.1300439E+00
        -11   -1    0    0    0    0  0.00000000000E+00  0.00000000000E+00  0.45593999997E+02  0.45594000000E+02  0.51100000000E-03 0.  1.
         11   -1    0    0    0    0 -0.00000000000E+00 -0.00000000000E+00 -0.45593999997E+02  0.45594000000E+02  0.51100000000E-03 0. -1.
    9900012    2    1    2    0    0 -0.28216314706E+02 -0.11877401432E+02  0.26756918080E+02  0.50528859016E+02  0.29999997465E+02 0.  0.
         12    1    1    2    0    0  0.28216314706E+02  0.11877401432E+02 -0.26756918080E+02  0.40659140984E+02  0.00000000000E+00 0. -1.
         11    1    3    3    0    0  0.21588928743E+01 -0.22673326444E+00  0.18543528446E+01  0.28549695531E+01  0.51100000000E-03 0. -1.
        -11    1    3    3    0    0 -0.30294133695E+02 -0.15680060304E+01  0.20838551072E+02  0.36802695422E+02  0.51100000000E-03 0.  1.
        -12    1    3    3    0    0 -0.81073885281E-01 -0.10082662138E+02  0.40640141637E+01  0.10871194041E+02  0.00000000000E+00 0.  1.
</event>
<event>
 7    1  0.2966651E-011  0.5052887E+02  0.7816164E-02  0.1300439E+00
        -11   -1    0    0    0    0  0.00000000000E+00  0.00000000000E+00  0.45593999997E+02  0.45594000000E+02  0.51100000000E-03 0. -1.
         11   -1    0    0    0    0 -0.00000000000E+00 -0.00000000000E+00 -0.45593999997E+02  0.45594000000E+02  0.51100000000E-03 0.  1.
    9900012    2    1    2    0    0 -0.58976384425E+01 -0.40157559969E+02  0.23984843532E+01  0.50528874468E+02  0.30000044433E+02 0.  0.
         12    1    1    2    0    0  0.58976384425E+01  0.40157559969E+02 -0.23984843532E+01  0.40659125532E+02  0.00000000000E+00 0. -1.
         11    1    3    3    0    0  0.16333618486E+01 -0.56157810297E+01  0.62541356280E+01  0.85626561426E+01  0.51100000000E-03 0. -1.
        -11    1    3    3    0    0 -0.14267894527E+02 -0.24920578722E+02 -0.74803304862E+01  0.29674288577E+02  0.51100000000E-03 0.  1.
        -12    1    3    3    0    0  0.67368942360E+01 -0.96212002167E+01  0.36246792114E+01  0.12291929749E+02  0.00000000000E+00 0.  1.
</event>
<event>
 7    1  0.2966651E-011  0.5052886E+02  0.7816164E-02  0.1300439E+00
        -11   -1    0    0    0    0  0.00000000000E+00  0.00000000000E+00  0.45593999997E+02  0.45594000000E+02  0.51100000000E-03 0.  1.
         11   -1    0    0    0    0 -0.00000000000E+00 -0.00000000000E+00 -0.45593999997E+02  0.45594000000E+02  0.51100000000E-03 0. -1.
    9900012    2    1    2    0    0  0.37473626141E+02  0.14962178377E+02 -0.50026038208E+01  0.50528862245E+02  0.30000007281E+02 0.  0.
         12    1    1    2    0    0 -0.37473626141E+02 -0.14962178377E+02  0.50026038208E+01  0.40659137755E+02  0.00000000000E+00 0. -1.
         11    1    3    3    0    0  0.15640722178E+00  0.63545925520E+01  0.22356884992E+01  0.67382203175E+01  0.51100000000E-03 0. -1.
        -11    1    3    3    0    0  0.37577780003E+02  0.11976689821E+02 -0.50437779604E+01  0.39761417799E+02  0.51100000000E-03 0.  1.
        -12    1    3    3    0    0 -0.26056108316E+00 -0.33691039954E+01 -0.21945143596E+01  0.40292241293E+01  0.00000000000E+00 0.  1.
</event>
<event>
 7    1  0.2966651E-011  0.5052886E+02  0.7816164E-02  0.1300439E+00
        -11   -1    0    0    0    0  0.00000000000E+00  0.00000000000E+00  0.45593999997E+02  0.45594000000E+02  0.51100000000E-03 0.  1.
         11   -1    0    0    0    0 -0.00000000000E+00 -0.00000000000E+00 -0.45593999997E+02  0.45594000000E+02  0.51100000000E-03 0. -1.
    9900012    2    1    2    0    0 -0.39335459370E+02 -0.48516827609E+01  0.90745925031E+01  0.50528863037E+02  0.30000009687E+02 0.  0.
         12    1    1    2    0    0  0.39335459370E+02  0.48516827609E+01 -0.90745925031E+01  0.40659136963E+02  0.00000000000E+00 0. -1.
         11    1    3    3    0    0 -0.13092118161E+01  0.28165502574E+01 -0.16133082662E+01  0.34999649648E+01  0.51100000000E-03 0. -1.
        -11    1    3    3    0    0 -0.25378207828E+02 -0.15299892354E+01  0.18029847371E+02  0.31168408623E+02  0.51100000000E-03 0.  1.
        -12    1    3    3    0    0 -0.12648039726E+02 -0.61382437829E+01 -0.73419466018E+01  0.15860489449E+02  0.00000000000E+00 0.  1.
</event>
<event>
 7    1  0.2966651E-011  0.5052886E+02  0.7816164E-02  0.1300439E+00
        -11   -1    0    0    0    0  0.00000000000E+00  0.00000000000E+00  0.45593999997E+02  0.45594000000E+02  0.51100000000E-03 0.  1.
         11   -1    0    0    0    0 -0.00000000000E+00 -0.00000000000E+00 -0.45593999997E+02  0.45594000000E+02  0.51100000000E-03 0. -1.
    9900012    2    1    2    0    0 -0.21641929250E+01 -0.69133394001E+01  0.40008595942E+02  0.50528859061E+02  0.29999997601E+02 0.  0.
         12    1    1    2    0    0  0.21641929250E+01  0.69133394001E+01 -0.40008595942E+02  0.40659140939E+02  0.00000000000E+00 0. -1.
         11    1    3    3    0    0 -0.32984128321E+00  0.51872113323E+01  0.12699121719E+01  0.53505732275E+01  0.51100000000E-03 0. -1.
        -11    1    3    3    0    0 -0.88974841289E+00 -0.14976804010E+02  0.39329294174E+02  0.42093820105E+02  0.51100000000E-03 0.  1.
        -12    1    3    3    0    0 -0.94460322891E+00  0.28762532773E+01 -0.59061040392E+00  0.30844657276E+01  0.00000000000E+00 0.  1.
</event>
<event>
 7    1  0.2966651E-011  0.5052886E+02  0.7816164E-02  0.1300439E+00
        -11   -1    0    0    0    0  0.00000000000E+00  0.00000000000E+00  0.45593999997E+02  0.45594000000E+02  0.51100000000E-03 0. -1.
         11   -1    0    0    0    0 -0.00000000000E+00 -0.00000000000E+00 -0.45593999997E+02  0.45594000000E+02  0.51100000000E-03 0.  1.
    9900012    2    1    2    0    0  0.35722855182E+02 -0.14608039172E+01 -0.19362577560E+02  0.50528859082E+02  0.29999997666E+02 0.  0.
         12    1    1    2    0    0 -0.35722855182E+02  0.14608039172E+01  0.19362577560E+02  0.40659140918E+02  0.00000000000E+00 0. -1.
         11    1    3    3    0    0  0.54881677734E+01 -0.99252305781E+01 -0.30824162836E+01  0.11752934865E+02  0.51100000000E-03 0. -1.
        -11    1    3    3    0    0  0.26585518163E+02  0.34898797573E+01 -0.71391154488E+01  0.27747720742E+02  0.51100000000E-03 0.  1.
        -12    1    3    3    0    0  0.36491692458E+01  0.49745469037E+01 -0.91410458272E+01  0.11028203475E+02  0.00000000000E+00 0.  1.
</event>
<event>
 7    1  0.2966651E-011  0.5052886E+02  0.7816164E-02  0.1300439E+00
        -11   -1    0    0    0    0  0.00000000000E+00  0.00000000000E+00  0.45593999997E+02  0.45594000000E+02  0.51100000000E-03 0.  1.
         11   -1    0    0    0    0 -0.00000000000E+00 -0.00000000000E+00 -0.45593999997E+02  0.45594000000E+02  0.51100000000E-03 0. -1.
    9900012    2    1    2    0    0  0.35306249801E+02 -0.16722447370E+02 -0.11269176907E+02  0.50528857495E+02  0.29999992841E+02 0.  0.
         12    1    1    2    0    0 -0.35306249801E+02  0.16722447370E+02  0.11269176907E+02  0.40659142505E+02  0.00000000000E+00 0. -1.
         11    1    3    3    0    0 -0.19932677738E+01 -0.10316053431E+02 -0.12139036517E+01  0.10576749838E+02  0.51100000000E-03 0. -1.
        -11    1    3    3    0    0  0.55728933776E+01 -0.19900735564E+01  0.11268810466E+01  0.60239019341E+01  0.51100000000E-03 0.  1.
         12    1    3    3    0    0  0.31726624198E+02 -0.44163203832E+01 -0.11182154302E+02  0.33928205722E+02  0.00000000000E+00 0. -1.
</event>
<event>
 7    1  0.2966651E-011  0.5052881E+02  0.7816164E-02  0.1300439E+00
        -11   -1    0    0    0    0  0.00000000000E+00  0.00000000000E+00  0.45593999997E+02  0.45594000000E+02  0.51100000000E-03 0. -1.
         11   -1    0    0    0    0 -0.00000000000E+00 -0.00000000000E+00 -0.45593999997E+02  0.45594000000E+02  0.51100000000E-03 0.  1.
    9900012    2    1    2    0    0 -0.12458699899E+02 -0.36595918589E+02 -0.12597193726E+02  0.50528809768E+02  0.29999847772E+02 0.  0.
         12    1    1    2    0    0  0.12458699899E+02  0.36595918589E+02  0.12597193726E+02  0.40659190232E+02  0.00000000000E+00 0. -1.
         11    1    3    3    0    0  0.30060695737E+01  0.20176689892E+01 -0.93201135087E+00  0.37384606259E+01  0.51100000000E-03 0. -1.
        -11    1    3    3    0    0 -0.18553899906E+02 -0.24014419250E+02 -0.87799477374E+01  0.31591565585E+02  0.51100000000E-03 0.  1.
        -12    1    3    3    0    0  0.30891304327E+01 -0.14599168328E+02 -0.28852346377E+01  0.15198783557E+02  0.00000000000E+00 0.  1.
</event>
<event>
 7    1  0.2966651E-011  0.5052886E+02  0.7816164E-02  0.1300439E+00
        -11   -1    0    0    0    0  0.00000000000E+00  0.00000000000E+00  0.45593999997E+02  0.45594000000E+02  0.51100000000E-03 0.  1.
         11   -1    0    0    0    0 -0.00000000000E+00 -0.00000000000E+00 -0.45593999997E+02  0.45594000000E+02  0.51100000000E-03 0. -1.
    9900012    2    1    2    0    0  0.34834468034E+01 -0.29400145357E+02  0.27868663496E+02  0.50528863834E+02  0.30000012111E+02 0.  0.
         12    1    1    2    0    0 -0.34834468034E+01  0.29400145357E+02 -0.27868663496E+02  0.40659136166E+02  0.00000000000E+00 0. -1.
         11    1    3    3    0    0 -0.52935306326E+00 -0.58025810640E+01 -0.18198542683E+01  0.61042633863E+01  0.51100000000E-03 0. -1.
        -11    1    3    3    0    0  0.13137540044E+02 -0.10153923370E+02  0.12590822339E+02  0.20838088339E+02  0.51100000000E-03 0.  1.
        -12    1    3    3    0    0 -0.91247401773E+01 -0.13443640923E+02  0.17097695426E+02  0.23586512109E+02  0.00000000000E+00 0.  1.
</event>
<event>
 7    1  0.2966651E-011  0.5052886E+02  0.7816164E-02  0.1300439E+00
        -11   -1    0    0    0    0  0.00000000000E+00  0.00000000000E+00  0.45593999997E+02  0.45594000000E+02  0.51100000000E-03 0.  1.
         11   -1    0    0    0    0 -0.00000000000E+00 -0.00000000000E+00 -0.45593999997E+02  0.45594000000E+02  0.51100000000E-03 0. -1.
    9900012    2    1    2    0    0 -0.37454266096E+02  0.10536137628E+02  0.11803963956E+02  0.50528858223E+02  0.29999995056E+02 0.  0.
         12    1    1    2    0    0  0.37454266096E+02 -0.10536137628E+02 -0.11803963956E+02  0.40659141777E+02  0.00000000000E+00 0. -1.
         11    1    3    3    0    0 -0.16907405720E+02  0.76376150828E+01 -0.59672764098E+01  0.19488507391E+02  0.51100000000E-03 0. -1.
        -11    1    3    3    0    0 -0.12771706401E+02 -0.54263578082E+01  0.79036054005E+01  0.15969621850E+02  0.51100000000E-03 0.  1.
        -12    1    3    3    0    0 -0.77751539762E+01  0.83248803536E+01  0.98676349649E+01  0.15070728982E+02  0.00000000000E+00 0.  1.
</event>
<event>
 7    1  0.2966651E-011  0.5052887E+02  0.7816164E-02  0.1300439E+00
        -11   -1    0    0    0    0  0.00000000000E+00  0.00000000000E+00  0.45593999997E+02  0.45594000000E+02  0.51100000000E-03 0.  1.
         11   -1    0    0    0    0 -0.00000000000E+00 -0.00000000000E+00 -0.45593999997E+02  0.45594000000E+02  0.51100000000E-03 0. -1.
    9900012    2    1    2    0    0  0.12398362886E+00  0.26819740433E+02  0.30558974245E+02  0.50528871188E+02  0.30000034464E+02 0.  0.
         12    1    1    2    0    0 -0.12398362886E+00 -0.26819740433E+02 -0.30558974245E+02  0.40659128812E+02  0.00000000000E+00 0. -1.
         11    1    3    3    0    0  0.38463844618E+00  0.93823463236E+00 -0.22814590676E-01  0.10142739898E+01  0.51100000000E-03 0. -1.
        -11    1    3    3    0    0  0.35335391276E+01  0.23851849313E+02  0.35541319387E+02  0.42948597165E+02  0.51100000000E-03 0.  1.
        -12    1    3    3    0    0 -0.37941939449E+01  0.20296564882E+01 -0.49595305515E+01  0.65660000337E+01  0.00000000000E+00 0.  1.
</event>
<event>
 7    1  0.2966651E-011  0.5052886E+02  0.7816164E-02  0.1300439E+00
        -11   -1    0    0    0    0  0.00000000000E+00  0.00000000000E+00  0.45593999997E+02  0.45594000000E+02  0.51100000000E-03 0.  1.
         11   -1    0    0    0    0 -0.00000000000E+00 -0.00000000000E+00 -0.45593999997E+02  0.45594000000E+02  0.51100000000E-03 0. -1.
    9900012    2    1    2    0    0  0.69810727893E+01  0.17541082837E+01  0.40016918410E+02  0.50528855491E+02  0.29999986750E+02 0.  0.
         12    1    1    2    0    0 -0.69810727893E+01 -0.17541082837E+01 -0.40016918410E+02  0.40659144509E+02  0.00000000000E+00 0. -1.
         11    1    3    3    0    0  0.66376000238E+01 -0.53783231609E+01  0.26949577993E+02  0.28271254807E+02  0.51100000000E-03 0. -1.
        -11    1    3    3    0    0 -0.43964687883E+01  0.10942084834E+02  0.72541175128E+01  0.13844868344E+02  0.51100000000E-03 0.  1.
         12    1    3    3    0    0  0.47399415538E+01 -0.38096533894E+01  0.58132229040E+01  0.84127323392E+01  0.00000000000E+00 0. -1.
</event>
<event>
 7    1  0.2966651E-011  0.5052881E+02  0.7816164E-02  0.1300439E+00
        -11   -1    0    0    0    0  0.00000000000E+00  0.00000000000E+00  0.45593999997E+02  0.45594000000E+02  0.51100000000E-03 0. -1.
         11   -1    0    0    0    0 -0.00000000000E+00 -0.00000000000E+00 -0.45593999997E+02  0.45594000000E+02  0.51100000000E-03 0.  1.
    9900012    2    1    2    0    0  0.29817169244E+02  0.11599569786E+01 -0.27618122967E+02  0.50528809180E+02  0.29999845984E+02 0.  0.
         12    1    1    2    0    0 -0.29817169244E+02 -0.11599569786E+01  0.27618122967E+02  0.40659190820E+02  0.00000000000E+00 0. -1.
         11    1    3    3    0    0  0.31502654160E+01  0.19683378965E+01 -0.96429970076E+01  0.10333727199E+02  0.51100000000E-03 0. -1.
        -11    1    3    3    0    0  0.45881996388E+01 -0.28051641976E+01  0.56481511727E+01  0.77988546615E+01  0.51100000000E-03 0.  1.
        -12    1    3    3    0    0  0.22078704189E+02  0.19967832797E+01 -0.23623277132E+02  0.32396227320E+02  0.00000000000E+00 0.  1.
</event>
<event>
 7    1  0.2966651E-011  0.5052885E+02  0.7816164E-02  0.1300439E+00
        -11   -1    0    0    0    0  0.00000000000E+00  0.00000000000E+00  0.45593999997E+02  0.45594000000E+02  0.51100000000E-03 0.  1.
         11   -1    0    0    0    0 -0.00000000000E+00 -0.00000000000E+00 -0.45593999997E+02  0.45594000000E+02  0.51100000000E-03 0. -1.
    9900012    2    1    2    0    0  0.14103585572E+02  0.14664377359E+02  0.35202433630E+02  0.50528850688E+02  0.29999972152E+02 0.  0.
         12    1    1    2    0    0 -0.14103585572E+02 -0.14664377359E+02 -0.35202433630E+02  0.40659149312E+02  0.00000000000E+00 0. -1.
         11    1    3    3    0    0  0.15742577547E+02 -0.11629853794E+01  0.73852334813E+01  0.17427649201E+02  0.51100000000E-03 0. -1.
        -11    1    3    3    0    0 -0.22614292046E+01  0.43989427902E+01  0.30334480487E+01  0.58022898104E+01  0.51100000000E-03 0.  1.
         12    1    3    3    0    0  0.62243722929E+00  0.11428419948E+02  0.24783752100E+02  0.27298911677E+02  0.00000000000E+00 0. -1.
</event>
<event>
 7    1  0.2966651E-011  0.5052886E+02  0.7816164E-02  0.1300439E+00
        -11   -1    0    0    0    0  0.00000000000E+00  0.00000000000E+00  0.45593999997E+02  0.45594000000E+02  0.51100000000E-03 0.  1.
         11   -1    0    0    0    0 -0.00000000000E+00 -0.00000000000E+00 -0.45593999997E+02  0.45594000000E+02  0.51100000000E-03 0. -1.
    9900012    2    1    2    0    0  0.24097161365E+02  0.29799744332E+02  0.13581894423E+02  0.50528858295E+02  0.29999995273E+02 0.  0.
         12    1    1    2    0    0 -0.24097161365E+02 -0.29799744332E+02 -0.13581894423E+02  0.40659141705E+02  0.00000000000E+00 0. -1.
         11    1    3    3    0    0 -0.43001009043E+01  0.18526628308E+01 -0.56169401273E+00  0.47157955614E+01  0.51100000000E-03 0. -1.
        -11    1    3    3    0    0  0.13017368010E+02  0.22398066626E+02  0.14032323198E+02  0.29462371817E+02  0.51100000000E-03 0.  1.
         12    1    3    3    0    0  0.15379894259E+02  0.55490148754E+01  0.11126523814E+00  0.16350690917E+02  0.00000000000E+00 0. -1.
</event>
<event>
 7    1  0.2966651E-011  0.5052886E+02  0.7816164E-02  0.1300439E+00
        -11   -1    0    0    0    0  0.00000000000E+00  0.00000000000E+00  0.45593999997E+02  0.45594000000E+02  0.51100000000E-03 0.  1.
         11   -1    0    0    0    0 -0.00000000000E+00 -0.00000000000E+00 -0.45593999997E+02  0.45594000000E+02  0.51100000000E-03 0. -1.
    9900012    2    1    2    0    0 -0.37475998293E+02  0.15342919101E+02  0.36482905564E+01  0.50528860332E+02  0.30000001464E+02 0.  0.
         12    1    1    2    0    0  0.37475998293E+02 -0.15342919101E+02 -0.36482905564E+01  0.40659139668E+02  0.00000000000E+00 0. -1.
         11    1    3    3    0    0  0.16218591928E+01  0.35441643077E+01  0.13140928420E+01  0.41131943960E+01  0.51100000000E-03 0. -1.
        -11    1    3    3    0    0 -0.40568887539E+02  0.99081275910E+01 -0.16197224428E+01  0.41792692299E+02  0.51100000000E-03 0.  1.
        -12    1    3    3    0    0  0.14710300536E+01  0.18906272021E+01  0.39539201572E+01  0.46229736366E+01  0.00000000000E+00 0.  1.
</event>
<event>
 7    1  0.2966651E-011  0.5052887E+02  0.7816164E-02  0.1300439E+00
        -11   -1    0    0    0    0  0.00000000000E+00  0.00000000000E+00  0.45593999997E+02  0.45594000000E+02  0.51100000000E-03 0.  1.
         11   -1    0    0    0    0 -0.00000000000E+00 -0.00000000000E+00 -0.45593999997E+02  0.45594000000E+02  0.51100000000E-03 0. -1.
    9900012    2    1    2    0    0  0.14903976470E+02  0.19225393276E+02  0.32579448088E+02  0.50528871887E+02  0.30000036588E+02 0.  0.
         12    1    1    2    0    0 -0.14903976470E+02 -0.19225393276E+02 -0.32579448088E+02  0.40659128113E+02  0.00000000000E+00 0. -1.
         11    1    3    3    0    0  0.15141208467E+02  0.68556937098E+01  0.82899453266E+01  0.18573635182E+02  0.51100000000E-03 0. -1.
        -11    1    3    3    0    0 -0.71859282727E+01  0.77999561100E+00  0.91897319354E+01  0.11691754855E+02  0.51100000000E-03 0.  1.
         12    1    3    3    0    0  0.69486962748E+01  0.11589703955E+02  0.15099770825E+02  0.20263481850E+02  0.00000000000E+00 0. -1.
</event>
<event>
 7    1  0.2966651E-011  0.5052885E+02  0.7816164E-02  0.1300439E+00
        -11   -1    0    0    0    0  0.00000000000E+00  0.00000000000E+00  0.45593999997E+02  0.45594000000E+02  0.51100000000E-03 0.  1.
         11   -1    0    0    0    0 -0.00000000000E+00 -0.00000000000E+00 -0.45593999997E+02  0.45594000000E+02  0.51100000000E-03 0. -1.
    9900012    2    1    2    0    0 -0.23210368419E+02 -0.30369117032E+02  0.13862253532E+02  0.50528849192E+02  0.29999967603E+02 0.  0.
         12    1    1    2    0    0  0.23210368419E+02  0.30369117032E+02 -0.13862253532E+02  0.40659150808E+02  0.00000000000E+00 0. -1.
         11    1    3    3    0    0  0.13392683044E+01 -0.23046533662E+01 -0.63880793685E+01  0.69218946112E+01  0.51100000000E-03 0. -1.
        -11    1    3    3    0    0 -0.76860518650E+01 -0.14345747564E+02  0.12523213168E+02  0.20535499379E+02  0.51100000000E-03 0.  1.
         12    1    3    3    0    0 -0.16863584858E+02 -0.13718716102E+02  0.77271197331E+01  0.23071455202E+02  0.00000000000E+00 0. -1.
</event>
<event>
 7    1  0.2966651E-011  0.5052878E+02  0.7816164E-02  0.1300439E+00
        -11   -1    0    0    0    0  0.00000000000E+00  0.00000000000E+00  0.45593999997E+02  0.45594000000E+02  0.51100000000E-03 0.  1.
         11   -1    0    0    0    0 -0.00000000000E+00 -0.00000000000E+00 -0.45593999997E+02  0.45594000000E+02  0.51100000000E-03 0. -1.
    9900012    2    1    2    0    0  0.37160688459E+02  0.16532893760E+01  0.16417130473E+02  0.50528778347E+02  0.29999752261E+02 0.  0.
         12    1    1    2    0    0 -0.37160688459E+02 -0.16532893760E+01 -0.16417130473E+02  0.40659221653E+02  0.00000000000E+00 0. -1.
         11    1    3    3    0    0  0.33967543609E+00  0.24531164286E+01  0.12041355708E+02  0.12293388758E+02  0.51100000000E-03 0.  1.
        -11    1    3    3    0    0  0.17697319246E+02  0.28750551210E+01 -0.12286453987E+01  0.17971383369E+02  0.51100000000E-03 0. -1.
        -12    1    3    3    0    0  0.19123693777E+02 -0.36748821735E+01  0.56044201635E+01  0.20264006219E+02  0.00000000000E+00 0.  1.
</event>
<event>
 7    1  0.2966651E-011  0.5052885E+02  0.7816164E-02  0.1300439E+00
        -11   -1    0    0    0    0  0.00000000000E+00  0.00000000000E+00  0.45593999997E+02  0.45594000000E+02  0.51100000000E-03 0.  1.
         11   -1    0    0    0    0 -0.00000000000E+00 -0.00000000000E+00 -0.45593999997E+02  0.45594000000E+02  0.51100000000E-03 0. -1.
    9900012    2    1    2    0    0  0.29890236381E+01  0.60533661241E+01  0.40094745855E+02  0.50528854056E+02  0.29999982388E+02 0.  0.
         12    1    1    2    0    0 -0.29890236381E+01 -0.60533661241E+01 -0.40094745855E+02  0.40659145944E+02  0.00000000000E+00 0. -1.
         11    1    3    3    0    0 -0.61675617022E+01  0.14381406865E+02  0.22484977989E+02  0.27394121928E+02  0.51100000000E-03 0. -1.
        -11    1    3    3    0    0  0.79559704363E+01 -0.40770313399E+01  0.16191165653E+02  0.18495228995E+02  0.51100000000E-03 0.  1.
         12    1    3    3    0    0  0.12006149040E+01 -0.42510094013E+01  0.14186022130E+01  0.46395031325E+01  0.00000000000E+00 0. -1.
</event>
<event>
 7    1  0.2966651E-011  0.5052887E+02  0.7816164E-02  0.1300439E+00
        -11   -1    0    0    0    0  0.00000000000E+00  0.00000000000E+00  0.45593999997E+02  0.45594000000E+02  0.51100000000E-03 0. -1.
         11   -1    0    0    0    0 -0.00000000000E+00 -0.00000000000E+00 -0.45593999997E+02  0.45594000000E+02  0.51100000000E-03 0.  1.
    9900012    2    1    2    0    0 -0.82426451401E+01  0.94252571107E+01 -0.38683180956E+02  0.50528866224E+02  0.30000019374E+02 0.  0.
         12    1    1    2    0    0  0.82426451401E+01 -0.94252571107E+01  0.38683180956E+02  0.40659133776E+02  0.00000000000E+00 0. -1.
         11    1    3    3    0    0  0.31994900535E+01 -0.36059678203E+01 -0.82450921935E+01  0.95509835129E+01  0.51100000000E-03 0. -1.
        -11    1    3    3    0    0 -0.16767123584E+02  0.13519148649E+02 -0.27315445063E+02  0.34785591165E+02  0.51100000000E-03 0.  1.
        -12    1    3    3    0    0  0.53249883902E+01 -0.48792371828E+00 -0.31226437000E+01  0.61922915458E+01  0.00000000000E+00 0.  1.
</event>
<event>
 7    1  0.2966651E-011  0.5052883E+02  0.7816164E-02  0.1300439E+00
        -11   -1    0    0    0    0  0.00000000000E+00  0.00000000000E+00  0.45593999997E+02  0.45594000000E+02  0.51100000000E-03 0.  1.
         11   -1    0    0    0    0 -0.00000000000E+00 -0.00000000000E+00 -0.45593999997E+02  0.45594000000E+02  0.51100000000E-03 0. -1.
    9900012    2    1    2    0    0  0.19671308663E+01 -0.39170390809E+02  0.10722840705E+02  0.50528825971E+02  0.29999897020E+02 0.  0.
         12    1    1    2    0    0 -0.19671308663E+01  0.39170390809E+02 -0.10722840705E+02  0.40659174029E+02  0.00000000000E+00 0. -1.
         11    1    3    3    0    0 -0.85884718710E+00 -0.64195792740E+01 -0.61667652191E+01  0.89430201875E+01  0.51100000000E-03 0. -1.
        -11    1    3    3    0    0  0.94379974246E+01 -0.27370669567E+02  0.15826054812E+02  0.32995353599E+02  0.51100000000E-03 0.  1.
        -12    1    3    3    0    0 -0.66120193712E+01 -0.53801419682E+01  0.10635511119E+01  0.85904521843E+01  0.00000000000E+00 0.  1.
</event>
<event>
 7    1  0.2966651E-011  0.5052888E+02  0.7816164E-02  0.1300439E+00
        -11   -1    0    0    0    0  0.00000000000E+00  0.00000000000E+00  0.45593999997E+02  0.45594000000E+02  0.51100000000E-03 0.  1.
         11   -1    0    0    0    0 -0.00000000000E+00 -0.00000000000E+00 -0.45593999997E+02  0.45594000000E+02  0.51100000000E-03 0. -1.
    9900012    2    1    2    0    0  0.17260865265E+02  0.31227831527E+02  0.19494857969E+02  0.50528875332E+02  0.30000047059E+02 0.  0.
         12    1    1    2    0    0 -0.17260865265E+02 -0.31227831527E+02 -0.19494857969E+02  0.40659124668E+02  0.00000000000E+00 0. -1.
         11    1    3    3    0    0  0.63193357466E+01 -0.23168265118E+00  0.13420771420E+02  0.14835928920E+02  0.51100000000E-03 0. -1.
        -11    1    3    3    0    0  0.49399495836E+01  0.27523787175E+02  0.42186023441E+01  0.28280002976E+02  0.51100000000E-03 0.  1.
        -12    1    3    3    0    0  0.60015799350E+01  0.39357270031E+01  0.18554842041E+01  0.74129434363E+01  0.00000000000E+00 0.  1.
</event>
<event>
 7    1  0.2966651E-011  0.5052886E+02  0.7816164E-02  0.1300439E+00
        -11   -1    0    0    0    0  0.00000000000E+00  0.00000000000E+00  0.45593999997E+02  0.45594000000E+02  0.51100000000E-03 0.  1.
         11   -1    0    0    0    0 -0.00000000000E+00 -0.00000000000E+00 -0.45593999997E+02  0.45594000000E+02  0.51100000000E-03 0. -1.
    9900012    2    1    2    0    0 -0.88264980892E+01  0.29739713911E+02  0.26283232798E+02  0.50528856153E+02  0.29999988763E+02 0.  0.
         12    1    1    2    0    0  0.88264980892E+01 -0.29739713911E+02 -0.26283232798E+02  0.40659143847E+02  0.00000000000E+00 0. -1.
         11    1    3    3    0    0 -0.38483103631E+01  0.42832124794E+00  0.32499404863E-01  0.38722097327E+01  0.51100000000E-03 0. -1.
        -11    1    3    3    0    0 -0.10935973766E+02  0.18699596151E+02  0.26817152495E+02  0.34473614354E+02  0.51100000000E-03 0.  1.
        -12    1    3    3    0    0  0.59577860402E+01  0.10611796512E+02 -0.56641910203E+00  0.12183032066E+02  0.00000000000E+00 0.  1.
</event>
<event>
 7    1  0.2966651E-011  0.5052886E+02  0.7816164E-02  0.1300439E+00
        -11   -1    0    0    0    0  0.00000000000E+00  0.00000000000E+00  0.45593999997E+02  0.45594000000E+02  0.51100000000E-03 0. -1.
         11   -1    0    0    0    0 -0.00000000000E+00 -0.00000000000E+00 -0.45593999997E+02  0.45594000000E+02  0.51100000000E-03 0.  1.
    9900012    2    1    2    0    0 -0.98169369078E+00 -0.35655641226E+02 -0.19516079495E+02  0.50528857946E+02  0.29999994212E+02 0.  0.
         12    1    1    2    0    0  0.98169369078E+00  0.35655641226E+02  0.19516079495E+02  0.40659142054E+02  0.00000000000E+00 0. -1.
         11    1    3    3    0    0  0.29333395947E+01 -0.30498177312E+01 -0.68462284094E+00  0.42865578343E+01  0.51100000000E-03 0. -1.
        -11    1    3    3    0    0 -0.18388152306E+01 -0.37141336851E+02 -0.15792018482E+02  0.40401089002E+02  0.51100000000E-03 0.  1.
        -12    1    3    3    0    0 -0.20762180549E+01  0.45355133567E+01 -0.30394381717E+01  0.58412111090E+01  0.00000000000E+00 0.  1.
</event>
<event>
 7    1  0.2966651E-011  0.5052886E+02  0.7816164E-02  0.1300439E+00
        -11   -1    0    0    0    0  0.00000000000E+00  0.00000000000E+00  0.45593999997E+02  0.45594000000E+02  0.51100000000E-03 0.  1.
         11   -1    0    0    0    0 -0.00000000000E+00 -0.00000000000E+00 -0.45593999997E+02  0.45594000000E+02  0.51100000000E-03 0. -1.
    9900012    2    1    2    0    0 -0.34977287322E+02  0.17592000758E+02  0.10967075290E+02  0.50528857615E+02  0.29999993207E+02 0.  0.
         12    1    1    2    0    0  0.34977287322E+02 -0.17592000758E+02 -0.10967075290E+02  0.40659142385E+02  0.00000000000E+00 0. -1.
         11    1    3    3    0    0 -0.13345116493E+02 -0.85539663725E+00 -0.66963275257E+01  0.14955421766E+02  0.51100000000E-03 0. -1.
        -11    1    3    3    0    0 -0.18469345291E+02  0.18038565686E+02  0.19061563431E+02  0.32091272462E+02  0.51100000000E-03 0.  1.
        -12    1    3    3    0    0 -0.31628255377E+01  0.40883170937E+00 -0.13981606159E+01  0.34821633874E+01  0.00000000000E+00 0.  1.
</event>
<event>
 7    1  0.2966651E-011  0.5052886E+02  0.7816164E-02  0.1300439E+00
        -11   -1    0    0    0    0  0.00000000000E+00  0.00000000000E+00  0.45593999997E+02  0.45594000000E+02  0.51100000000E-03 0. -1.
         11   -1    0    0    0    0 -0.00000000000E+00 -0.00000000000E+00 -0.45593999997E+02  0.45594000000E+02  0.51100000000E-03 0.  1.
    9900012    2    1    2    0    0  0.14661901384E+00 -0.25240786969E+02 -0.31875485908E+02  0.50528862948E+02  0.30000009417E+02 0.  0.
         12    1    1    2    0    0 -0.14661901384E+00  0.25240786969E+02  0.31875485908E+02  0.40659137052E+02  0.00000000000E+00 0. -1.
         11    1    3    3    0    0  0.12778720473E+02 -0.96426196187E+01 -0.14183893993E+02  0.21388283220E+02  0.51100000000E-03 0. -1.
        -11    1    3    3    0    0 -0.12143056606E+02 -0.14853212350E+02 -0.10454364801E+02  0.21848695259E+02  0.51100000000E-03 0.  1.
         12    1    3    3    0    0 -0.48904485254E+00 -0.74495500040E+00 -0.72372271135E+01  0.72918844692E+01  0.00000000000E+00 0. -1.
</event>
<event>
 7    1  0.2966651E-011  0.5052893E+02  0.7816164E-02  0.1300439E+00
        -11   -1    0    0    0    0  0.00000000000E+00  0.00000000000E+00  0.45593999997E+02  0.45594000000E+02  0.51100000000E-03 0.  1.
         11   -1    0    0    0    0 -0.00000000000E+00 -0.00000000000E+00 -0.45593999997E+02  0.45594000000E+02  0.51100000000E-03 0. -1.
    9900012    2    1    2    0    0 -0.19882949782E+02 -0.34516903892E+02  0.81493394932E+01  0.50528928681E+02  0.30000209219E+02 0.  0.
         12    1    1    2    0    0  0.19882949782E+02  0.34516903892E+02 -0.81493394932E+01  0.40659071319E+02  0.00000000000E+00 0. -1.
         11    1    3    3    0    0  0.40711160755E+01 -0.89331733588E+01 -0.12134013516E+01  0.98918105249E+01  0.51100000000E-03 0. -1.
        -11    1    3    3    0    0 -0.68866529676E+01 -0.67084416314E+00  0.77590241105E+01  0.10396079857E+02  0.51100000000E-03 0.  1.
        -12    1    3    3    0    0 -0.17067412890E+02 -0.24912886370E+02  0.16037167344E+01  0.30241038299E+02  0.00000000000E+00 0.  1.
</event>
<event>
 7    1  0.2966651E-011  0.5052887E+02  0.7816164E-02  0.1300439E+00
        -11   -1    0    0    0    0  0.00000000000E+00  0.00000000000E+00  0.45593999997E+02  0.45594000000E+02  0.51100000000E-03 0.  1.
         11   -1    0    0    0    0 -0.00000000000E+00 -0.00000000000E+00 -0.45593999997E+02  0.45594000000E+02  0.51100000000E-03 0. -1.
    9900012    2    1    2    0    0 -0.84784029145E+01  0.17650162563E+02  0.35633601230E+02  0.50528867064E+02  0.30000021928E+02 0.  0.
         12    1    1    2    0    0  0.84784029145E+01 -0.17650162563E+02 -0.35633601230E+02  0.40659132936E+02  0.00000000000E+00 0. -1.
         11    1    3    3    0    0 -0.32347221873E+00 -0.61338272540E+01  0.32407459650E+01  0.69448474230E+01  0.51100000000E-03 0. -1.
        -11    1    3    3    0    0 -0.57839475960E+01  0.17313865983E+02  0.11477758823E+02  0.21562999627E+02  0.51100000000E-03 0.  1.
         12    1    3    3    0    0 -0.23709830998E+01  0.64701238341E+01  0.20915096442E+02  0.22021020014E+02  0.00000000000E+00 0. -1.
</event>
<event>
 7    1  0.2966651E-011  0.5052886E+02  0.7816164E-02  0.1300439E+00
        -11   -1    0    0    0    0  0.00000000000E+00  0.00000000000E+00  0.45593999997E+02  0.45594000000E+02  0.51100000000E-03 0.  1.
         11   -1    0    0    0    0 -0.00000000000E+00 -0.00000000000E+00 -0.45593999997E+02  0.45594000000E+02  0.51100000000E-03 0. -1.
    9900012    2    1    2    0    0 -0.32764066992E+02 -0.23943567528E+02  0.25272407791E+01  0.50528862554E+02  0.30000008220E+02 0.  0.
         12    1    1    2    0    0  0.32764066992E+02  0.23943567528E+02 -0.25272407791E+01  0.40659137446E+02  0.00000000000E+00 0. -1.
         11    1    3    3    0    0 -0.16656288331E+01  0.53532460505E+01  0.18165968986E+01  0.58933511044E+01  0.51100000000E-03 0. -1.
        -11    1    3    3    0    0 -0.27124442983E+02 -0.22279108264E+02 -0.39469407766E+01  0.35322406684E+02  0.51100000000E-03 0.  1.
         12    1    3    3    0    0 -0.39739951766E+01 -0.70177053148E+01  0.46575846571E+01  0.93131047663E+01  0.00000000000E+00 0. -1.
</event>
<event>
 7    1  0.2966651E-011  0.5052886E+02  0.7816164E-02  0.1300439E+00
        -11   -1    0    0    0    0  0.00000000000E+00  0.00000000000E+00  0.45593999997E+02  0.45594000000E+02  0.51100000000E-03 0. -1.
         11   -1    0    0    0    0 -0.00000000000E+00 -0.00000000000E+00 -0.45593999997E+02  0.45594000000E+02  0.51100000000E-03 0.  1.
    9900012    2    1    2    0    0 -0.14837905985E+02  0.80554813300E+01 -0.36987991204E+02  0.50528859247E+02  0.29999998167E+02 0.  0.
         12    1    1    2    0    0  0.14837905985E+02 -0.80554813300E+01  0.36987991204E+02  0.40659140753E+02  0.00000000000E+00 0. -1.
         11    1    3    3    0    0  0.41128433369E+01  0.10496097183E+02 -0.37722150925E+01  0.11887520488E+02  0.51100000000E-03 0. -1.
        -11    1    3    3    0    0 -0.15759795762E+02 -0.57005317938E-01 -0.26282660529E+02  0.30645597674E+02  0.51100000000E-03 0.  1.
         12    1    3    3    0    0 -0.31909535596E+01 -0.23836105355E+01 -0.69331155829E+01  0.79957410845E+01  0.00000000000E+00 0. -1.
</event>
<event>
 7    1  0.2966651E-011  0.5052886E+02  0.7816164E-02  0.1300439E+00
        -11   -1    0    0    0    0  0.00000000000E+00  0.00000000000E+00  0.45593999997E+02  0.45594000000E+02  0.51100000000E-03 0. -1.
         11   -1    0    0    0    0 -0.00000000000E+00 -0.00000000000E+00 -0.45593999997E+02  0.45594000000E+02  0.51100000000E-03 0.  1.
    9900012    2    1    2    0    0 -0.33878948882E+01 -0.37521365829E+02 -0.15291659704E+02  0.50528861028E+02  0.30000003580E+02 0.  0.
         12    1    1    2    0    0  0.33878948882E+01  0.37521365829E+02  0.15291659704E+02  0.40659138972E+02  0.00000000000E+00 0. -1.
         11    1    3    3    0    0 -0.10425301750E+01  0.79944827798E-01 -0.11963304467E+01  0.15888571806E+01  0.51100000000E-03 0. -1.
        -11    1    3    3    0    0 -0.99256366638E+01 -0.19725426222E+02  0.39502341853E+01  0.22432455354E+02  0.51100000000E-03 0.  1.
        -12    1    3    3    0    0  0.75802719506E+01 -0.17875884435E+02 -0.18045563443E+02  0.26507548494E+02  0.00000000000E+00 0.  1.
</event>
<event>
 7    1  0.2966651E-011  0.5052886E+02  0.7816164E-02  0.1300439E+00
        -11   -1    0    0    0    0  0.00000000000E+00  0.00000000000E+00  0.45593999997E+02  0.45594000000E+02  0.51100000000E-03 0.  1.
         11   -1    0    0    0    0 -0.00000000000E+00 -0.00000000000E+00 -0.45593999997E+02  0.45594000000E+02  0.51100000000E-03 0. -1.
    9900012    2    1    2    0    0  0.10592178128E+02  0.10528956840E+02  0.37816828665E+02  0.50528859578E+02  0.29999999172E+02 0.  0.
         12    1    1    2    0    0 -0.10592178128E+02 -0.10528956840E+02 -0.37816828665E+02  0.40659140422E+02  0.00000000000E+00 0. -1.
         11    1    3    3    0    0 -0.31752288591E+00  0.11646530321E+02  0.28839978256E+02  0.31104450411E+02  0.51100000000E-03 0. -1.
        -11    1    3    3    0    0  0.12443713839E+02 -0.11580458235E+01  0.11160548572E+02  0.16755444755E+02  0.51100000000E-03 0.  1.
         12    1    3    3    0    0 -0.15340128255E+01  0.40472342697E-01 -0.21836981636E+01  0.26689644114E+01  0.00000000000E+00 0. -1.
</event>
<event>
 7    1  0.2966651E-011  0.5052886E+02  0.7816164E-02  0.1300439E+00
        -11   -1    0    0    0    0  0.00000000000E+00  0.00000000000E+00  0.45593999997E+02  0.45594000000E+02  0.51100000000E-03 0. -1.
         11   -1    0    0    0    0 -0.00000000000E+00 -0.00000000000E+00 -0.45593999997E+02  0.45594000000E+02  0.51100000000E-03 0.  1.
    9900012    2    1    2    0    0  0.30692417160E+02  0.20111918924E+02 -0.17511485917E+02  0.50528857203E+02  0.29999991955E+02 0.  0.
         12    1    1    2    0    0 -0.30692417160E+02 -0.20111918924E+02  0.17511485917E+02  0.40659142797E+02  0.00000000000E+00 0. -1.
         11    1    3    3    0    0  0.10794347887E+02  0.52001669380E+01  0.18299714206E+01  0.12120580768E+02  0.51100000000E-03 0. -1.
        -11    1    3    3    0    0  0.13288498612E+02  0.19467228475E+02 -0.19165723985E+02  0.30378975559E+02  0.51100000000E-03 0.  1.
        -12    1    3    3    0    0  0.66095706603E+01 -0.45554764886E+01 -0.17573335276E+00  0.80293008764E+01  0.00000000000E+00 0.  1.
</event>
<event>
 7    1  0.2966651E-011  0.5052886E+02  0.7816164E-02  0.1300439E+00
        -11   -1    0    0    0    0  0.00000000000E+00  0.00000000000E+00  0.45593999997E+02  0.45594000000E+02  0.51100000000E-03 0.  1.
         11   -1    0    0    0    0 -0.00000000000E+00 -0.00000000000E+00 -0.45593999997E+02  0.45594000000E+02  0.51100000000E-03 0. -1.
    9900012    2    1    2    0    0  0.16520765802E+02 -0.15054044913E+02  0.33964770093E+02  0.50528861072E+02  0.30000003713E+02 0.  0.
         12    1    1    2    0    0 -0.16520765802E+02  0.15054044913E+02 -0.33964770093E+02  0.40659138928E+02  0.00000000000E+00 0. -1.
         11    1    3    3    0    0  0.31909799479E+01  0.29084376566E+01 -0.24512206876E+01  0.49648611009E+01  0.51100000000E-03 0. -1.
        -11    1    3    3    0    0  0.15717342211E+02 -0.90185352099E+01  0.24593893423E+02  0.30548787496E+02  0.51100000000E-03 0.  1.
        -12    1    3    3    0    0 -0.23875563570E+01 -0.89439473600E+01  0.11822097357E+02  0.15015212475E+02  0.00000000000E+00 0.  1.
</event>
<event>
 7    1  0.2966651E-011  0.5052886E+02  0.7816164E-02  0.1300439E+00
        -11   -1    0    0    0    0  0.00000000000E+00  0.00000000000E+00  0.45593999997E+02  0.45594000000E+02  0.51100000000E-03 0. -1.
         11   -1    0    0    0    0 -0.00000000000E+00 -0.00000000000E+00 -0.45593999997E+02  0.45594000000E+02  0.51100000000E-03 0.  1.
    9900012    2    1    2    0    0 -0.11360659073E+02 -0.37050619462E+02 -0.12302544198E+02  0.50528861165E+02  0.30000003996E+02 0.  0.
         12    1    1    2    0    0  0.11360659073E+02  0.37050619462E+02  0.12302544198E+02  0.40659138835E+02  0.00000000000E+00 0. -1.
         11    1    3    3    0    0 -0.17781010211E+02 -0.18912476305E+02  0.11381486724E+01  0.25983484500E+02  0.51100000000E-03 0. -1.
        -11    1    3    3    0    0  0.42079244933E+01 -0.99997935377E+01 -0.11658240000E+02  0.15925359007E+02  0.51100000000E-03 0.  1.
         12    1    3    3    0    0  0.22124266440E+01 -0.81383496197E+01 -0.17824528706E+01  0.86200176580E+01  0.00000000000E+00 0. -1.
</event>
<event>
 7    1  0.2966651E-011  0.5052886E+02  0.7816164E-02  0.1300439E+00
        -11   -1    0    0    0    0  0.00000000000E+00  0.00000000000E+00  0.45593999997E+02  0.45594000000E+02  0.51100000000E-03 0.  1.
         11   -1    0    0    0    0 -0.00000000000E+00 -0.00000000000E+00 -0.45593999997E+02  0.45594000000E+02  0.51100000000E-03 0. -1.
    9900012    2    1    2    0    0 -0.66511322782E+01  0.29919337431E+01  0.39999709925E+02  0.50528855614E+02  0.29999987123E+02 0.  0.
         12    1    1    2    0    0  0.66511322782E+01 -0.29919337431E+01 -0.39999709925E+02  0.40659144386E+02  0.00000000000E+00 0. -1.
         11    1    3    3    0    0  0.80827879842E+01 -0.34576771636E+01  0.25419674316E+02  0.26896967032E+02  0.51100000000E-03 0. -1.
        -11    1    3    3    0    0 -0.52358891416E+01  0.68608028507E+01  0.95656925346E+01  0.12883618466E+02  0.51100000000E-03 0.  1.
         12    1    3    3    0    0 -0.94980311208E+01 -0.41119194404E+00  0.50143430752E+01  0.10748270115E+02  0.00000000000E+00 0. -1.
</event>
<event>
 7    1  0.2966651E-011  0.5052885E+02  0.7816164E-02  0.1300439E+00
        -11   -1    0    0    0    0  0.00000000000E+00  0.00000000000E+00  0.45593999997E+02  0.45594000000E+02  0.51100000000E-03 0. -1.
         11   -1    0    0    0    0 -0.00000000000E+00 -0.00000000000E+00 -0.45593999997E+02  0.45594000000E+02  0.51100000000E-03 0.  1.
    9900012    2    1    2    0    0 -0.22482415229E+01 -0.34517010376E+02 -0.21370264220E+02  0.50528846196E+02  0.29999958498E+02 0.  0.
         12    1    1    2    0    0  0.22482415229E+01  0.34517010376E+02  0.21370264220E+02  0.40659153804E+02  0.00000000000E+00 0. -1.
         11    1    3    3    0    0  0.60950054690E+01 -0.15091818243E+02 -0.20695540470E+02  0.26329023247E+02  0.51100000000E-03 0. -1.
        -11    1    3    3    0    0 -0.91285731315E+01 -0.14043413276E+02 -0.47426121364E+01  0.17408063476E+02  0.51100000000E-03 0.  1.
         12    1    3    3    0    0  0.78532613958E+00 -0.53817788569E+01  0.40678883866E+01  0.67917594727E+01  0.00000000000E+00 0. -1.
</event>
<event>
 7    1  0.2966651E-011  0.5052886E+02  0.7816164E-02  0.1300439E+00
        -11   -1    0    0    0    0  0.00000000000E+00  0.00000000000E+00  0.45593999997E+02  0.45594000000E+02  0.51100000000E-03 0.  1.
         11   -1    0    0    0    0 -0.00000000000E+00 -0.00000000000E+00 -0.45593999997E+02  0.45594000000E+02  0.51100000000E-03 0. -1.
    9900012    2    1    2    0    0 -0.21128431014E+02 -0.15850000652E+02  0.30911685556E+02  0.50528862998E+02  0.30000009569E+02 0.  0.
         12    1    1    2    0    0  0.21128431014E+02  0.15850000652E+02 -0.30911685556E+02  0.40659137002E+02  0.00000000000E+00 0. -1.
         11    1    3    3    0    0 -0.32850664915E+01 -0.11083680665E+02  0.71875317885E+01  0.13612503532E+02  0.51100000000E-03 0. -1.
        -11    1    3    3    0    0 -0.20432291560E+02 -0.45836839047E+01  0.26055811944E+02  0.33427444306E+02  0.51100000000E-03 0.  1.
        -12    1    3    3    0    0  0.25889270375E+01 -0.18263608257E+00 -0.23316581759E+01  0.34889151600E+01  0.00000000000E+00 0.  1.
</event>
<event>
 7    1  0.2966651E-011  0.5052886E+02  0.7816164E-02  0.1300439E+00
        -11   -1    0    0    0    0  0.00000000000E+00  0.00000000000E+00  0.45593999997E+02  0.45594000000E+02  0.51100000000E-03 0.  1.
         11   -1    0    0    0    0 -0.00000000000E+00 -0.00000000000E+00 -0.45593999997E+02  0.45594000000E+02  0.51100000000E-03 0. -1.
    9900012    2    1    2    0    0  0.19094669415E+02  0.32674709460E+02  0.14863469563E+02  0.50528858767E+02  0.29999996707E+02 0.  0.
         12    1    1    2    0    0 -0.19094669415E+02 -0.32674709460E+02 -0.14863469563E+02  0.40659141233E+02  0.00000000000E+00 0. -1.
         11    1    3    3    0    0  0.67861973572E-01  0.48847714311E+01  0.97441412171E+01  0.10900178233E+02  0.51100000000E-03 0.  1.
        -11    1    3    3    0    0  0.15820797509E+02  0.30180722357E+02  0.13033279151E+01  0.34100913473E+02  0.51100000000E-03 0. -1.
         12    1    3    3    0    0  0.32060099324E+01 -0.23907843278E+01  0.38160004312E+01  0.55277670609E+01  0.00000000000E+00 0. -1.
</event>
<event>
 7    1  0.2966651E-011  0.5052884E+02  0.7816164E-02  0.1300439E+00
        -11   -1    0    0    0    0  0.00000000000E+00  0.00000000000E+00  0.45593999997E+02  0.45594000000E+02  0.51100000000E-03 0.  1.
         11   -1    0    0    0    0 -0.00000000000E+00 -0.00000000000E+00 -0.45593999997E+02  0.45594000000E+02  0.51100000000E-03 0. -1.
    9900012    2    1    2    0    0  0.17347417709E+02  0.71576427358E+01  0.36069414917E+02  0.50528838139E+02  0.29999934009E+02 0.  0.
         12    1    1    2    0    0 -0.17347417709E+02 -0.71576427358E+01 -0.36069414917E+02  0.40659161861E+02  0.00000000000E+00 0. -1.
         11    1    3    3    0    0 -0.14367951919E+01 -0.32272286404E+01 -0.10455569309E+01  0.36840975391E+01  0.51100000000E-03 0. -1.
        -11    1    3    3    0    0  0.16603214658E+02  0.90369136286E+01  0.39213203204E+02  0.43531687892E+02  0.51100000000E-03 0.  1.
        -12    1    3    3    0    0  0.21809982431E+01  0.13479577475E+01 -0.20982313560E+01  0.33130527084E+01  0.00000000000E+00 0.  1.
</event>
<event>
 7    1  0.2966651E-011  0.5052886E+02  0.7816164E-02  0.1300439E+00
        -11   -1    0    0    0    0  0.00000000000E+00  0.00000000000E+00  0.45593999997E+02  0.45594000000E+02  0.51100000000E-03 0.  1.
         11   -1    0    0    0    0 -0.00000000000E+00 -0.00000000000E+00 -0.45593999997E+02  0.45594000000E+02  0.51100000000E-03 0. -1.
    9900012    2    1    2    0    0 -0.39016127804E+02  0.10118774442E+02  0.53402219604E+01  0.50528858401E+02  0.29999995595E+02 0.  0.
         12    1    1    2    0    0  0.39016127804E+02 -0.10118774442E+02 -0.53402219604E+01  0.40659141599E+02  0.00000000000E+00 0. -1.
         11    1    3    3    0    0 -0.37856268674E+02  0.81385897528E+01 -0.44144625452E+01  0.38972056668E+02  0.51100000000E-03 0.  1.
        -11    1    3    3    0    0 -0.22817092262E+01  0.22431586675E+01  0.98917875732E+01  0.10396413779E+02  0.51100000000E-03 0. -1.
        -12    1    3    3    0    0  0.11218500968E+01 -0.26297397863E+00 -0.13710306765E+00  0.11603879542E+01  0.00000000000E+00 0.  1.
</event>
<event>
 7    1  0.2966651E-011  0.5052886E+02  0.7816164E-02  0.1300439E+00
        -11   -1    0    0    0    0  0.00000000000E+00  0.00000000000E+00  0.45593999997E+02  0.45594000000E+02  0.51100000000E-03 0. -1.
         11   -1    0    0    0    0 -0.00000000000E+00 -0.00000000000E+00 -0.45593999997E+02  0.45594000000E+02  0.51100000000E-03 0.  1.
    9900012    2    1    2    0    0 -0.35618518665E+02  0.19560451932E+02 -0.13693735261E+01  0.50528864058E+02  0.30000012792E+02 0.  0.
         12    1    1    2    0    0  0.35618518665E+02 -0.19560451932E+02  0.13693735261E+01  0.40659135942E+02  0.00000000000E+00 0. -1.
         11    1    3    3    0    0 -0.30153680114E+02  0.21742825417E+02 -0.30268174469E+01  0.37298210489E+02  0.51100000000E-03 0. -1.
        -11    1    3    3    0    0 -0.22412131101E+01  0.20781542346E+00 -0.49852637193E+01  0.54698334588E+01  0.51100000000E-03 0.  1.
         12    1    3    3    0    0 -0.32236254408E+01 -0.23901889086E+01  0.66427076401E+01  0.77608201109E+01  0.00000000000E+00 0. -1.
</event>
<event>
 7    1  0.2966651E-011  0.5052887E+02  0.7816164E-02  0.1300439E+00
        -11   -1    0    0    0    0  0.00000000000E+00  0.00000000000E+00  0.45593999997E+02  0.45594000000E+02  0.51100000000E-03 0. -1.
         11   -1    0    0    0    0 -0.00000000000E+00 -0.00000000000E+00 -0.45593999997E+02  0.45594000000E+02  0.51100000000E-03 0.  1.
    9900012    2    1    2    0    0  0.73306781714E+01 -0.38302410691E+02 -0.11504417549E+02  0.50528866582E+02  0.30000020462E+02 0.  0.
         12    1    1    2    0    0 -0.73306781714E+01  0.38302410691E+02  0.11504417549E+02  0.40659133418E+02  0.00000000000E+00 0. -1.
         11    1    3    3    0    0  0.15518861536E+01 -0.20820860792E+02 -0.73341421381E+00  0.20891493279E+02  0.51100000000E-03 0. -1.
        -11    1    3    3    0    0  0.10993230788E+02 -0.64365049173E+01 -0.11820553913E+02  0.17378297206E+02  0.51100000000E-03 0.  1.
        -12    1    3    3    0    0 -0.52144387703E+01 -0.11045044981E+02  0.10495505778E+01  0.12259076097E+02  0.00000000000E+00 0.  1.
</event>
<event>
 7    1  0.2966651E-011  0.5052885E+02  0.7816164E-02  0.1300439E+00
        -11   -1    0    0    0    0  0.00000000000E+00  0.00000000000E+00  0.45593999997E+02  0.45594000000E+02  0.51100000000E-03 0.  1.
         11   -1    0    0    0    0 -0.00000000000E+00 -0.00000000000E+00 -0.45593999997E+02  0.45594000000E+02  0.51100000000E-03 0. -1.
    9900012    2    1    2    0    0 -0.22223597873E+02  0.34045449841E+02  0.43033202928E+00  0.50528854129E+02  0.29999982610E+02 0.  0.
         12    1    1    2    0    0  0.22223597873E+02 -0.34045449841E+02 -0.43033202928E+00  0.40659145871E+02  0.00000000000E+00 0. -1.
         11    1    3    3    0    0 -0.32913020630E+01 -0.26233178374E+01 -0.16516990454E+01  0.45213466737E+01  0.51100000000E-03 0. -1.
        -11    1    3    3    0    0 -0.23081382153E+02  0.28333464575E+02  0.29055173322E+01  0.36660297982E+02  0.51100000000E-03 0.  1.
        -12    1    3    3    0    0  0.41490863429E+01  0.83353031042E+01 -0.82348625752E+00  0.93472094732E+01  0.00000000000E+00 0.  1.
</event>
<event>
 7    1  0.2966651E-011  0.5052885E+02  0.7816164E-02  0.1300439E+00
        -11   -1    0    0    0    0  0.00000000000E+00  0.00000000000E+00  0.45593999997E+02  0.45594000000E+02  0.51100000000E-03 0.  1.
         11   -1    0    0    0    0 -0.00000000000E+00 -0.00000000000E+00 -0.45593999997E+02  0.45594000000E+02  0.51100000000E-03 0. -1.
    9900012    2    1    2    0    0  0.62371764705E+01  0.23683816585E+02  0.32455213951E+02  0.50528850341E+02  0.29999971098E+02 0.  0.
         12    1    1    2    0    0 -0.62371764705E+01 -0.23683816585E+02 -0.32455213951E+02  0.40659149659E+02  0.00000000000E+00 0. -1.
         11    1    3    3    0    0  0.35278665806E+01  0.20537079881E+02  0.52794149924E+01  0.21496272132E+02  0.51100000000E-03 0. -1.
        -11    1    3    3    0    0  0.17741988351E+01 -0.32623958124E+01  0.89371214414E+01  0.96779723012E+01  0.51100000000E-03 0.  1.
         12    1    3    3    0    0  0.93511105487E+00  0.64091325169E+01  0.18238677517E+02  0.19354605908E+02  0.00000000000E+00 0. -1.
</event>
<event>
 7    1  0.2966651E-011  0.5052886E+02  0.7816164E-02  0.1300439E+00
        -11   -1    0    0    0    0  0.00000000000E+00  0.00000000000E+00  0.45593999997E+02  0.45594000000E+02  0.51100000000E-03 0. -1.
         11   -1    0    0    0    0 -0.00000000000E+00 -0.00000000000E+00 -0.45593999997E+02  0.45594000000E+02  0.51100000000E-03 0.  1.
    9900012    2    1    2    0    0 -0.12378564033E+02 -0.12374460464E+02 -0.36698901294E+02  0.50528862337E+02  0.30000007560E+02 0.  0.
         12    1    1    2    0    0  0.12378564033E+02  0.12374460464E+02  0.36698901294E+02  0.40659137663E+02  0.00000000000E+00 0. -1.
         11    1    3    3    0    0 -0.69794385490E+01  0.23404707244E+01 -0.77708252873E+01  0.10704022215E+02  0.51100000000E-03 0. -1.
        -11    1    3    3    0    0 -0.41112071258E+01 -0.13858227353E+02 -0.42063404493E+01  0.15054759700E+02  0.51100000000E-03 0.  1.
        -12    1    3    3    0    0 -0.12879183585E+01 -0.85670383577E+00 -0.24721735557E+02  0.24770080422E+02  0.00000000000E+00 0.  1.
</event>
<event>
 7    1  0.2966651E-011  0.5052886E+02  0.7816164E-02  0.1300439E+00
        -11   -1    0    0    0    0  0.00000000000E+00  0.00000000000E+00  0.45593999997E+02  0.45594000000E+02  0.51100000000E-03 0.  1.
         11   -1    0    0    0    0 -0.00000000000E+00 -0.00000000000E+00 -0.45593999997E+02  0.45594000000E+02  0.51100000000E-03 0. -1.
    9900012    2    1    2    0    0 -0.24669039180E+02  0.18530770412E+02 -0.26480466320E+02  0.50528855363E+02  0.29999986362E+02 0.  0.
         12    1    1    2    0    0  0.24669039180E+02 -0.18530770412E+02  0.26480466320E+02  0.40659144637E+02  0.00000000000E+00 0. -1.
         11    1    3    3    0    0  0.13595846347E+01  0.32811172739E+01 -0.94699020345E+01  0.10114012347E+02  0.51100000000E-03 0. -1.
        -11    1    3    3    0    0 -0.28433708370E+02  0.15626037487E+02 -0.11554966090E+02  0.34440761618E+02  0.51100000000E-03 0.  1.
        -12    1    3    3    0    0  0.24050845554E+01 -0.37638434884E+00 -0.54555981948E+01  0.59740813988E+01  0.00000000000E+00 0.  1.
</event>
<event>
 7    1  0.2966651E-011  0.5052886E+02  0.7816164E-02  0.1300439E+00
        -11   -1    0    0    0    0  0.00000000000E+00  0.00000000000E+00  0.45593999997E+02  0.45594000000E+02  0.51100000000E-03 0.  1.
         11   -1    0    0    0    0 -0.00000000000E+00 -0.00000000000E+00 -0.45593999997E+02  0.45594000000E+02  0.51100000000E-03 0. -1.
    9900012    2    1    2    0    0  0.24725747892E+02 -0.30209380057E+02  0.11366464505E+02  0.50528858745E+02  0.29999996641E+02 0.  0.
         12    1    1    2    0    0 -0.24725747892E+02  0.30209380057E+02 -0.11366464505E+02  0.40659141255E+02  0.00000000000E+00 0. -1.
         11    1    3    3    0    0  0.32276277194E+01  0.40326960402E+01  0.43222966718E-01  0.51654706014E+01  0.51100000000E-03 0. -1.
        -11    1    3    3    0    0  0.43333377085E+01 -0.21646974701E+02  0.21490199782E+01  0.22180793866E+02  0.51100000000E-03 0.  1.
        -12    1    3    3    0    0  0.17164782464E+02 -0.12595101397E+02  0.91742215596E+01  0.23182594278E+02  0.00000000000E+00 0.  1.
</event>
<event>
 7    1  0.2966651E-011  0.5052886E+02  0.7816164E-02  0.1300439E+00
        -11   -1    0    0    0    0  0.00000000000E+00  0.00000000000E+00  0.45593999997E+02  0.45594000000E+02  0.51100000000E-03 0.  1.
         11   -1    0    0    0    0 -0.00000000000E+00 -0.00000000000E+00 -0.45593999997E+02  0.45594000000E+02  0.51100000000E-03 0. -1.
    9900012    2    1    2    0    0 -0.24536532698E+02 -0.18800559900E+02  0.26413314705E+02  0.50528859784E+02  0.29999999800E+02 0.  0.
         12    1    1    2    0    0  0.24536532698E+02  0.18800559900E+02 -0.26413314705E+02  0.40659140216E+02  0.00000000000E+00 0. -1.
         11    1    3    3    0    0 -0.18970992935E+01 -0.55600862933E+01  0.21321825389E+02  0.22116369130E+02  0.51100000000E-03 0. -1.
        -11    1    3    3    0    0 -0.12354795512E+02 -0.11901989962E+02  0.55512427508E+01  0.18030935459E+02  0.51100000000E-03 0.  1.
         12    1    3    3    0    0 -0.10284637892E+02 -0.13384836441E+01 -0.45975343436E+00  0.10381555195E+02  0.00000000000E+00 0. -1.
</event>
<event>
 7    1  0.2966651E-011  0.5052886E+02  0.7816164E-02  0.1300439E+00
        -11   -1    0    0    0    0  0.00000000000E+00  0.00000000000E+00  0.45593999997E+02  0.45594000000E+02  0.51100000000E-03 0.  1.
         11   -1    0    0    0    0 -0.00000000000E+00 -0.00000000000E+00 -0.45593999997E+02  0.45594000000E+02  0.51100000000E-03 0. -1.
    9900012    2    1    2    0    0 -0.39277290534E+02 -0.96117655019E+01  0.42513571344E+01  0.50528860496E+02  0.30000001964E+02 0.  0.
         12    1    1    2    0    0  0.39277290534E+02  0.96117655019E+01 -0.42513571344E+01  0.40659139504E+02  0.00000000000E+00 0. -1.
         11    1    3    3    0    0  0.29338821283E+01 -0.28454755057E+00  0.49241254305E+01  0.57389583696E+01  0.51100000000E-03 0. -1.
        -11    1    3    3    0    0 -0.35534778972E+01 -0.25230538767E+01  0.31131569072E+01  0.53558148045E+01  0.51100000000E-03 0.  1.
         12    1    3    3    0    0 -0.38657694765E+02 -0.68041640747E+01 -0.37859252033E+01  0.39434087322E+02  0.00000000000E+00 0. -1.
</event>
<event>
 7    1  0.2966651E-011  0.5052886E+02  0.7816164E-02  0.1300439E+00
        -11   -1    0    0    0    0  0.00000000000E+00  0.00000000000E+00  0.45593999997E+02  0.45594000000E+02  0.51100000000E-03 0.  1.
         11   -1    0    0    0    0 -0.00000000000E+00 -0.00000000000E+00 -0.45593999997E+02  0.45594000000E+02  0.51100000000E-03 0. -1.
    9900012    2    1    2    0    0 -0.27953673005E+02  0.85721955512E+00  0.29513099033E+02  0.50528859891E+02  0.30000000126E+02 0.  0.
         12    1    1    2    0    0  0.27953673005E+02 -0.85721955512E+00 -0.29513099033E+02  0.40659140109E+02  0.00000000000E+00 0. -1.
         11    1    3    3    0    0 -0.36083908210E+01  0.18330208394E+01 -0.47362682521E+01  0.62299828998E+01  0.51100000000E-03 0. -1.
        -11    1    3    3    0    0 -0.14540311998E+02 -0.74294076808E+01  0.20913851169E+02  0.26533110305E+02  0.51100000000E-03 0.  1.
        -12    1    3    3    0    0 -0.98049701864E+01  0.64536063965E+01  0.13335516116E+02  0.17765766686E+02  0.00000000000E+00 0.  1.
</event>
<event>
 7    1  0.2966651E-011  0.5052888E+02  0.7816164E-02  0.1300439E+00
        -11   -1    0    0    0    0  0.00000000000E+00  0.00000000000E+00  0.45593999997E+02  0.45594000000E+02  0.51100000000E-03 0.  1.
         11   -1    0    0    0    0 -0.00000000000E+00 -0.00000000000E+00 -0.45593999997E+02  0.45594000000E+02  0.51100000000E-03 0. -1.
    9900012    2    1    2    0    0  0.64980689883E+01  0.39385461471E+02  0.77281881386E+01  0.50528875959E+02  0.30000048964E+02 0.  0.
         12    1    1    2    0    0 -0.64980689883E+01 -0.39385461471E+02 -0.77281881386E+01  0.40659124041E+02  0.00000000000E+00 0. -1.
         11    1    3    3    0    0 -0.26066113992E+00  0.94223891486E+00  0.48631814961E+01  0.49604730548E+01  0.51100000000E-03 0. -1.
        -11    1    3    3    0    0  0.88997343110E+01  0.29897744774E+02 -0.73812586071E+01  0.32055629650E+02  0.51100000000E-03 0.  1.
        -12    1    3    3    0    0 -0.21410041828E+01  0.85454777826E+01  0.10246265250E+02  0.13512773254E+02  0.00000000000E+00 0.  1.
</event>
<event>
 7    1  0.2966651E-011  0.5052886E+02  0.7816164E-02  0.1300439E+00
        -11   -1    0    0    0    0  0.00000000000E+00  0.00000000000E+00  0.45593999997E+02  0.45594000000E+02  0.51100000000E-03 0.  1.
         11   -1    0    0    0    0 -0.00000000000E+00 -0.00000000000E+00 -0.45593999997E+02  0.45594000000E+02  0.51100000000E-03 0. -1.
    9900012    2    1    2    0    0 -0.15527096534E+02 -0.36041077591E+02  0.10635588954E+02  0.50528858923E+02  0.29999997184E+02 0.  0.
         12    1    1    2    0    0  0.15527096534E+02  0.36041077591E+02 -0.10635588954E+02  0.40659141077E+02  0.00000000000E+00 0. -1.
         11    1    3    3    0    0  0.55812324723E+01 -0.12355738258E+02  0.29084300406E+01  0.13866268040E+02  0.51100000000E-03 0. -1.
        -11    1    3    3    0    0 -0.96530811305E+01 -0.46368696817E+01  0.95655921384E+01  0.14359076885E+02  0.51100000000E-03 0.  1.
         12    1    3    3    0    0 -0.11455247875E+02 -0.19048469652E+02 -0.18384332252E+01  0.22303513999E+02  0.00000000000E+00 0. -1.
</event>
<event>
 7    1  0.2966651E-011  0.5052886E+02  0.7816164E-02  0.1300439E+00
        -11   -1    0    0    0    0  0.00000000000E+00  0.00000000000E+00  0.45593999997E+02  0.45594000000E+02  0.51100000000E-03 0. -1.
         11   -1    0    0    0    0 -0.00000000000E+00 -0.00000000000E+00 -0.45593999997E+02  0.45594000000E+02  0.51100000000E-03 0.  1.
    9900012    2    1    2    0    0 -0.35986173086E+02  0.11480038243E+02  0.15045589331E+02  0.50528859702E+02  0.29999999550E+02 0.  0.
         12    1    1    2    0    0  0.35986173086E+02 -0.11480038243E+02 -0.15045589331E+02  0.40659140298E+02  0.00000000000E+00 0. -1.
         11    1    3    3    0    0 -0.16726802001E+02  0.51865785924E+01  0.19127318989E+02  0.25933392271E+02  0.51100000000E-03 0.  1.
        -11    1    3    3    0    0 -0.99350536523E+01  0.79591145274E+01 -0.71979957241E+01  0.14624087590E+02  0.51100000000E-03 0. -1.
         12    1    3    3    0    0 -0.93243174323E+01 -0.16656548765E+01  0.31162660664E+01  0.99713798414E+01  0.00000000000E+00 0. -1.
</event>
<event>
 7    1  0.2966651E-011  0.5052887E+02  0.7816164E-02  0.1300439E+00
        -11   -1    0    0    0    0  0.00000000000E+00  0.00000000000E+00  0.45593999997E+02  0.45594000000E+02  0.51100000000E-03 0.  1.
         11   -1    0    0    0    0 -0.00000000000E+00 -0.00000000000E+00 -0.45593999997E+02  0.45594000000E+02  0.51100000000E-03 0. -1.
    9900012    2    1    2    0    0  0.11464830274E+01 -0.19070259613E+02  0.35891168946E+02  0.50528865315E+02  0.30000016611E+02 0.  0.
         12    1    1    2    0    0 -0.11464830274E+01  0.19070259613E+02 -0.35891168946E+02  0.40659134685E+02  0.00000000000E+00 0. -1.
         11    1    3    3    0    0 -0.16909351444E+01 -0.10278657785E+02  0.37080704731E+01  0.11057117817E+02  0.51100000000E-03 0. -1.
        -11    1    3    3    0    0  0.94911816801E+01  0.22710999201E+01  0.11412222219E+02  0.15015966195E+02  0.51100000000E-03 0.  1.
        -12    1    3    3    0    0 -0.66537635083E+01 -0.11062701748E+02  0.20770876253E+02  0.24455781303E+02  0.00000000000E+00 0.  1.
</event>
<event>
 7    1  0.2966651E-011  0.5052886E+02  0.7816164E-02  0.1300439E+00
        -11   -1    0    0    0    0  0.00000000000E+00  0.00000000000E+00  0.45593999997E+02  0.45594000000E+02  0.51100000000E-03 0. -1.
         11   -1    0    0    0    0 -0.00000000000E+00 -0.00000000000E+00 -0.45593999997E+02  0.45594000000E+02  0.51100000000E-03 0.  1.
    9900012    2    1    2    0    0  0.15318485294E+02 -0.18123304116E+02 -0.33015994190E+02  0.50528855689E+02  0.29999987351E+02 0.  0.
         12    1    1    2    0    0 -0.15318485294E+02  0.18123304116E+02  0.33015994190E+02  0.40659144311E+02  0.00000000000E+00 0. -1.
         11    1    3    3    0    0  0.35972844210E+01 -0.17327499209E+01  0.54716982518E+01  0.67736518595E+01  0.51100000000E-03 0. -1.
        -11    1    3    3    0    0  0.37549820236E+01 -0.23793857466E+01 -0.11386666138E+02  0.12223646449E+02  0.51100000000E-03 0.  1.
         12    1    3    3    0    0  0.79662188498E+01 -0.14011168449E+02 -0.27101026304E+02  0.31531557380E+02  0.00000000000E+00 0. -1.
</event>
<event>
 7    1  0.2966651E-011  0.5052885E+02  0.7816164E-02  0.1300439E+00
        -11   -1    0    0    0    0  0.00000000000E+00  0.00000000000E+00  0.45593999997E+02  0.45594000000E+02  0.51100000000E-03 0. -1.
         11   -1    0    0    0    0 -0.00000000000E+00 -0.00000000000E+00 -0.45593999997E+02  0.45594000000E+02  0.51100000000E-03 0.  1.
    9900012    2    1    2    0    0 -0.17978266121E+02 -0.36437671476E+02  0.14980666326E+01  0.50528853932E+02  0.29999982012E+02 0.  0.
         12    1    1    2    0    0  0.17978266121E+02  0.36437671476E+02 -0.14980666326E+01  0.40659146068E+02  0.00000000000E+00 0. -1.
         11    1    3    3    0    0 -0.17746127720E+02 -0.59055133071E+01  0.83429773513E+00  0.18721543458E+02  0.51100000000E-03 0. -1.
        -11    1    3    3    0    0  0.39532635593E+01 -0.16162904236E+02  0.21037128224E+01  0.16771802944E+02  0.51100000000E-03 0.  1.
        -12    1    3    3    0    0 -0.41854019603E+01 -0.14369253934E+02 -0.14399439249E+01  0.15035507530E+02  0.00000000000E+00 0.  1.
</event>
<event>
 7    1  0.2966651E-011  0.5052883E+02  0.7816164E-02  0.1300439E+00
        -11   -1    0    0    0    0  0.00000000000E+00  0.00000000000E+00  0.45593999997E+02  0.45594000000E+02  0.51100000000E-03 0. -1.
         11   -1    0    0    0    0 -0.00000000000E+00 -0.00000000000E+00 -0.45593999997E+02  0.45594000000E+02  0.51100000000E-03 0.  1.
    9900012    2    1    2    0    0 -0.21264578700E+02  0.39621730749E+01 -0.34427993548E+02  0.50528832983E+02  0.29999918334E+02 0.  0.
         12    1    1    2    0    0  0.21264578700E+02 -0.39621730749E+01  0.34427993548E+02  0.40659167017E+02  0.00000000000E+00 0. -1.
         11    1    3    3    0    0 -0.63221974298E+01  0.13544557895E+02 -0.16642629703E+02  0.22369674843E+02  0.51100000000E-03 0. -1.
        -11    1    3    3    0    0 -0.13544751486E+02 -0.37703178937E+01 -0.17106630868E+02  0.22142999113E+02  0.51100000000E-03 0.  1.
         12    1    3    3    0    0 -0.13976297845E+01 -0.58120669265E+01 -0.67873297809E+00  0.60161590262E+01  0.00000000000E+00 0. -1.
</event>
<event>
 7    1  0.2966651E-011  0.5052886E+02  0.7816164E-02  0.1300439E+00
        -11   -1    0    0    0    0  0.00000000000E+00  0.00000000000E+00  0.45593999997E+02  0.45594000000E+02  0.51100000000E-03 0.  1.
         11   -1    0    0    0    0 -0.00000000000E+00 -0.00000000000E+00 -0.45593999997E+02  0.45594000000E+02  0.51100000000E-03 0. -1.
    9900012    2    1    2    0    0  0.34572331055E+02 -0.21127688623E+02  0.33971191796E+01  0.50528859332E+02  0.29999998426E+02 0.  0.
         12    1    1    2    0    0 -0.34572331055E+02  0.21127688623E+02 -0.33971191796E+01  0.40659140668E+02  0.00000000000E+00 0. -1.
         11    1    3    3    0    0  0.53059232400E+00 -0.13542354891E+00 -0.35360593901E+01  0.35782096114E+01  0.51100000000E-03 0. -1.
        -11    1    3    3    0    0  0.29361974390E+02 -0.20643304440E+02 -0.29463573211E+01  0.36013227848E+02  0.51100000000E-03 0.  1.
        -12    1    3    3    0    0  0.46797643413E+01 -0.34896063383E+00  0.98795358907E+01  0.10937421873E+02  0.00000000000E+00 0.  1.
</event>
<event>
 7    1  0.2966651E-011  0.5052887E+02  0.7816164E-02  0.1300439E+00
        -11   -1    0    0    0    0  0.00000000000E+00  0.00000000000E+00  0.45593999997E+02  0.45594000000E+02  0.51100000000E-03 0.  1.
         11   -1    0    0    0    0 -0.00000000000E+00 -0.00000000000E+00 -0.45593999997E+02  0.45594000000E+02  0.51100000000E-03 0. -1.
    9900012    2    1    2    0    0 -0.16547345583E+02  0.17892926890E+02  0.32545253323E+02  0.50528868278E+02  0.30000025618E+02 0.  0.
         12    1    1    2    0    0  0.16547345583E+02 -0.17892926890E+02 -0.32545253323E+02  0.40659131722E+02  0.00000000000E+00 0. -1.
         11    1    3    3    0    0 -0.14072553906E+02 -0.40222491936E+01  0.16942323050E+02  0.22388782294E+02  0.51100000000E-03 0. -1.
        -11    1    3    3    0    0 -0.41116728022E+01  0.67886721560E+01  0.74168984387E+01  0.10862886614E+02  0.51100000000E-03 0.  1.
         12    1    3    3    0    0  0.16368811255E+01  0.15126503927E+02  0.81860318340E+01  0.17277199370E+02  0.00000000000E+00 0. -1.
</event>
<event>
 7    1  0.2966651E-011  0.5052887E+02  0.7816164E-02  0.1300439E+00
        -11   -1    0    0    0    0  0.00000000000E+00  0.00000000000E+00  0.45593999997E+02  0.45594000000E+02  0.51100000000E-03 0.  1.
         11   -1    0    0    0    0 -0.00000000000E+00 -0.00000000000E+00 -0.45593999997E+02  0.45594000000E+02  0.51100000000E-03 0. -1.
    9900012    2    1    2    0    0  0.12404686715E+02  0.34491285152E+02  0.17596591411E+02  0.50528867776E+02  0.30000024093E+02 0.  0.
         12    1    1    2    0    0 -0.12404686715E+02 -0.34491285152E+02 -0.17596591411E+02  0.40659132224E+02  0.00000000000E+00 0. -1.
         11    1    3    3    0    0  0.15591494646E+01 -0.19072755966E+01 -0.55165951720E+01  0.60416446277E+01  0.51100000000E-03 0. -1.
        -11    1    3    3    0    0  0.37206243154E+01  0.13843975676E+02  0.94809173623E+01  0.17186811865E+02  0.51100000000E-03 0.  1.
         12    1    3    3    0    0  0.71249129354E+01  0.22554585073E+02  0.13632269221E+02  0.27300411283E+02  0.00000000000E+00 0. -1.
</event>
<event>
 7    1  0.2966651E-011  0.5052886E+02  0.7816164E-02  0.1300439E+00
        -11   -1    0    0    0    0  0.00000000000E+00  0.00000000000E+00  0.45593999997E+02  0.45594000000E+02  0.51100000000E-03 0. -1.
         11   -1    0    0    0    0 -0.00000000000E+00 -0.00000000000E+00 -0.45593999997E+02  0.45594000000E+02  0.51100000000E-03 0.  1.
    9900012    2    1    2    0    0 -0.49721362320E+01 -0.18255643940E+01 -0.40312661961E+02  0.50528861563E+02  0.30000005206E+02 0.  0.
         12    1    1    2    0    0  0.49721362320E+01  0.18255643940E+01  0.40312661961E+02  0.40659138437E+02  0.00000000000E+00 0. -1.
         11    1    3    3    0    0  0.36259553159E+00 -0.19588313851E+01  0.39602964575E+01  0.44331077369E+01  0.51100000000E-03 0. -1.
        -11    1    3    3    0    0  0.27191719967E+01  0.28802871246E+01 -0.19609793577E+02  0.20005848011E+02  0.51100000000E-03 0.  1.
         12    1    3    3    0    0 -0.80539037602E+01 -0.27470201336E+01 -0.24663164842E+02  0.26089905815E+02  0.00000000000E+00 0. -1.
</event>
<event>
 7    1  0.2966651E-011  0.5052883E+02  0.7816164E-02  0.1300439E+00
        -11   -1    0    0    0    0  0.00000000000E+00  0.00000000000E+00  0.45593999997E+02  0.45594000000E+02  0.51100000000E-03 0.  1.
         11   -1    0    0    0    0 -0.00000000000E+00 -0.00000000000E+00 -0.45593999997E+02  0.45594000000E+02  0.51100000000E-03 0. -1.
    9900012    2    1    2    0    0 -0.10598828564E+02  0.22425587251E+02  0.32216863031E+02  0.50528826446E+02  0.29999898467E+02 0.  0.
         12    1    1    2    0    0  0.10598828564E+02 -0.22425587251E+02 -0.32216863031E+02  0.40659173554E+02  0.00000000000E+00 0. -1.
         11    1    3    3    0    0 -0.34081187546E+01  0.11907562959E+02 -0.44698028861E+00  0.12393753294E+02  0.51100000000E-03 0. -1.
        -11    1    3    3    0    0 -0.15109411465E+01  0.95897338391E+01  0.30464660067E+02  0.31974074678E+02  0.51100000000E-03 0.  1.
        -12    1    3    3    0    0 -0.56797686625E+01  0.92829045315E+00  0.21991832527E+01  0.61609984746E+01  0.00000000000E+00 0.  1.
</event>
<event>
 7    1  0.2966651E-011  0.5052885E+02  0.7816164E-02  0.1300439E+00
        -11   -1    0    0    0    0  0.00000000000E+00  0.00000000000E+00  0.45593999997E+02  0.45594000000E+02  0.51100000000E-03 0. -1.
         11   -1    0    0    0    0 -0.00000000000E+00 -0.00000000000E+00 -0.45593999997E+02  0.45594000000E+02  0.51100000000E-03 0.  1.
    9900012    2    1    2    0    0 -0.23905329752E+02  0.22907847356E+02  0.23599417256E+02  0.50528846592E+02  0.29999959700E+02 0.  0.
         12    1    1    2    0    0  0.23905329752E+02 -0.22907847356E+02 -0.23599417256E+02  0.40659153408E+02  0.00000000000E+00 0. -1.
         11    1    3    3    0    0 -0.63858042654E+01  0.32554331712E+01  0.20698128222E+02  0.21904083031E+02  0.51100000000E-03 0. -1.
        -11    1    3    3    0    0 -0.18052564187E+02  0.14123615989E+02  0.22031064097E+01  0.23026621125E+02  0.51100000000E-03 0.  1.
         12    1    3    3    0    0  0.53303870077E+00  0.55287981962E+01  0.69818262422E+00  0.55981424354E+01  0.00000000000E+00 0. -1.
</event>
<event>
 7    1  0.2966651E-011  0.5052886E+02  0.7816164E-02  0.1300439E+00
        -11   -1    0    0    0    0  0.00000000000E+00  0.00000000000E+00  0.45593999997E+02  0.45594000000E+02  0.51100000000E-03 0.  1.
         11   -1    0    0    0    0 -0.00000000000E+00 -0.00000000000E+00 -0.45593999997E+02  0.45594000000E+02  0.51100000000E-03 0. -1.
    9900012    2    1    2    0    0  0.21970829593E+02  0.19454425417E+02  0.28142019175E+02  0.50528864931E+02  0.30000015444E+02 0.  0.
         12    1    1    2    0    0 -0.21970829593E+02 -0.19454425417E+02 -0.28142019175E+02  0.40659135069E+02  0.00000000000E+00 0. -1.
         11    1    3    3    0    0  0.22935491773E+02  0.17089781272E+02  0.25457600339E+02  0.38290819031E+02  0.51100000000E-03 0. -1.
        -11    1    3    3    0    0 -0.40591487329E+01 -0.34620923463E+01  0.14156474455E+01  0.55196766030E+01  0.51100000000E-03 0.  1.
        -12    1    3    3    0    0  0.30944865529E+01  0.58267364917E+01  0.12687713913E+01  0.67183692971E+01  0.00000000000E+00 0.  1.
</event>
<event>
 7    1  0.2966651E-011  0.5052887E+02  0.7816164E-02  0.1300439E+00
        -11   -1    0    0    0    0  0.00000000000E+00  0.00000000000E+00  0.45593999997E+02  0.45594000000E+02  0.51100000000E-03 0.  1.
         11   -1    0    0    0    0 -0.00000000000E+00 -0.00000000000E+00 -0.45593999997E+02  0.45594000000E+02  0.51100000000E-03 0. -1.
    9900012    2    1    2    0    0 -0.84820878359E+01 -0.35504363182E+02  0.17906956331E+02  0.50528871824E+02  0.30000036396E+02 0.  0.
         12    1    1    2    0    0  0.84820878359E+01  0.35504363182E+02 -0.17906956331E+02  0.40659128176E+02  0.00000000000E+00 0. -1.
         11    1    3    3    0    0 -0.36387165971E+01  0.18183510381E+01  0.49011772407E+00  0.40971788607E+01  0.51100000000E-03 0. -1.
        -11    1    3    3    0    0  0.61778803646E+00 -0.28798296457E+02  0.32049249880E+01  0.28982668706E+02  0.51100000000E-03 0.  1.
        -12    1    3    3    0    0 -0.54611592753E+01 -0.85244177627E+01  0.14211913619E+02  0.17449024257E+02  0.00000000000E+00 0.  1.
</event>
<event>
 7    1  0.2966651E-011  0.5052886E+02  0.7816164E-02  0.1300439E+00
        -11   -1    0    0    0    0  0.00000000000E+00  0.00000000000E+00  0.45593999997E+02  0.45594000000E+02  0.51100000000E-03 0. -1.
         11   -1    0    0    0    0 -0.00000000000E+00 -0.00000000000E+00 -0.45593999997E+02  0.45594000000E+02  0.51100000000E-03 0.  1.
    9900012    2    1    2    0    0 -0.18552617090E+02 -0.32110983109E+02 -0.16668848169E+02  0.50528864048E+02  0.30000012760E+02 0.  0.
         12    1    1    2    0    0  0.18552617090E+02  0.32110983109E+02  0.16668848169E+02  0.40659135952E+02  0.00000000000E+00 0. -1.
         11    1    3    3    0    0 -0.93588821257E+01 -0.88588978576E+01  0.31258538004E+01  0.13260456558E+02  0.51100000000E-03 0. -1.
        -11    1    3    3    0    0 -0.15094789049E+02 -0.18560865341E+02 -0.16369075534E+02  0.28988014985E+02  0.51100000000E-03 0.  1.
        -12    1    3    3    0    0  0.59010540851E+01 -0.46912199096E+01 -0.34256264353E+01  0.82803925046E+01  0.00000000000E+00 0.  1.
</event>
<event>
 7    1  0.2966651E-011  0.5052885E+02  0.7816164E-02  0.1300439E+00
        -11   -1    0    0    0    0  0.00000000000E+00  0.00000000000E+00  0.45593999997E+02  0.45594000000E+02  0.51100000000E-03 0.  1.
         11   -1    0    0    0    0 -0.00000000000E+00 -0.00000000000E+00 -0.45593999997E+02  0.45594000000E+02  0.51100000000E-03 0. -1.
    9900012    2    1    2    0    0  0.20286121102E+02  0.32652014623E+02  0.13247104359E+02  0.50528849219E+02  0.29999967686E+02 0.  0.
         12    1    1    2    0    0 -0.20286121102E+02 -0.32652014623E+02 -0.13247104359E+02  0.40659150781E+02  0.00000000000E+00 0. -1.
         11    1    3    3    0    0 -0.19019759384E+00 -0.14946256208E+01  0.25378757675E+01  0.29514224611E+01  0.51100000000E-03 0. -1.
        -11    1    3    3    0    0  0.18936627405E+02  0.20218401748E+02  0.16690532442E+02  0.32341204371E+02  0.51100000000E-03 0.  1.
        -12    1    3    3    0    0  0.15396912907E+01  0.13928238496E+02 -0.59813038505E+01  0.15236222387E+02  0.00000000000E+00 0.  1.
</event>
<event>
 7    1  0.2966651E-011  0.5052889E+02  0.7816164E-02  0.1300439E+00
        -11   -1    0    0    0    0  0.00000000000E+00  0.00000000000E+00  0.45593999997E+02  0.45594000000E+02  0.51100000000E-03 0. -1.
         11   -1    0    0    0    0 -0.00000000000E+00 -0.00000000000E+00 -0.45593999997E+02  0.45594000000E+02  0.51100000000E-03 0.  1.
    9900012    2    1    2    0    0 -0.33959477211E+02 -0.20631720915E+02  0.86167986494E+01  0.50528890083E+02  0.30000091895E+02 0.  0.
         12    1    1    2    0    0  0.33959477211E+02  0.20631720915E+02 -0.86167986494E+01  0.40659109917E+02  0.00000000000E+00 0. -1.
         11    1    3    3    0    0 -0.11419115353E+02 -0.17777638388E+01  0.81141876120E+01  0.14120788950E+02  0.51100000000E-03 0. -1.
        -11    1    3    3    0    0  0.26813110956E+01 -0.86440908605E+01 -0.12774997768E+01  0.91401171730E+01  0.51100000000E-03 0.  1.
        -12    1    3    3    0    0 -0.25221672954E+02 -0.10209866215E+02  0.17801108141E+01  0.27267983960E+02  0.00000000000E+00 0.  1.
</event>
<event>
 7    1  0.2966651E-011  0.5052886E+02  0.7816164E-02  0.1300439E+00
        -11   -1    0    0    0    0  0.00000000000E+00  0.00000000000E+00  0.45593999997E+02  0.45594000000E+02  0.51100000000E-03 0. -1.
         11   -1    0    0    0    0 -0.00000000000E+00 -0.00000000000E+00 -0.45593999997E+02  0.45594000000E+02  0.51100000000E-03 0.  1.
    9900012    2    1    2    0    0 -0.11868875958E+02  0.34363407888E+02 -0.18205803908E+02  0.50528864321E+02  0.30000013591E+02 0.  0.
         12    1    1    2    0    0  0.11868875958E+02 -0.34363407888E+02  0.18205803908E+02  0.40659135679E+02  0.00000000000E+00 0. -1.
         11    1    3    3    0    0  0.39489642364E+01  0.63572359462E+01 -0.88964332870E+01  0.11625630861E+02  0.51100000000E-03 0. -1.
        -11    1    3    3    0    0 -0.18913232813E+02  0.28824203309E+02 -0.92760357843E+01  0.35701399300E+02  0.51100000000E-03 0.  1.
        -12    1    3    3    0    0  0.30953926185E+01 -0.81803136725E+00 -0.33334837081E-01  0.32018341606E+01  0.00000000000E+00 0.  1.
</event>
<event>
 7    1  0.2966651E-011  0.5052886E+02  0.7816164E-02  0.1300439E+00
        -11   -1    0    0    0    0  0.00000000000E+00  0.00000000000E+00  0.45593999997E+02  0.45594000000E+02  0.51100000000E-03 0.  1.
         11   -1    0    0    0    0 -0.00000000000E+00 -0.00000000000E+00 -0.45593999997E+02  0.45594000000E+02  0.51100000000E-03 0. -1.
    9900012    2    1    2    0    0 -0.56467125905E+01  0.38111281154E+02  0.12992716095E+02  0.50528858521E+02  0.29999995959E+02 0.  0.
         12    1    1    2    0    0  0.56467125905E+01 -0.38111281154E+02 -0.12992716095E+02  0.40659141479E+02  0.00000000000E+00 0. -1.
         11    1    3    3    0    0  0.62665956478E+01  0.10483283313E+02 -0.73865877234E+00  0.12235810846E+02  0.51100000000E-03 0. -1.
        -11    1    3    3    0    0 -0.95058997107E+01  0.58289060581E+01  0.11864622659E+02  0.16282123518E+02  0.51100000000E-03 0.  1.
        -12    1    3    3    0    0 -0.24074085276E+01  0.21799091784E+02  0.18667522083E+01  0.22010924157E+02  0.00000000000E+00 0.  1.
</event>
<event>
 7    1  0.2966651E-011  0.5052887E+02  0.7816164E-02  0.1300439E+00
        -11   -1    0    0    0    0  0.00000000000E+00  0.00000000000E+00  0.45593999997E+02  0.45594000000E+02  0.51100000000E-03 0.  1.
         11   -1    0    0    0    0 -0.00000000000E+00 -0.00000000000E+00 -0.45593999997E+02  0.45594000000E+02  0.51100000000E-03 0. -1.
    9900012    2    1    2    0    0 -0.39489470611E+01 -0.37090562344E+02  0.16182106129E+02  0.50528873636E+02  0.30000041904E+02 0.  0.
         12    1    1    2    0    0  0.39489470611E+01  0.37090562344E+02 -0.16182106129E+02  0.40659126364E+02  0.00000000000E+00 0. -1.
         11    1    3    3    0    0 -0.11102521509E+02 -0.15548425263E+02  0.55511286204E+01  0.19895591000E+02  0.51100000000E-03 0. -1.
        -11    1    3    3    0    0  0.67406590289E+01  0.29764922659E-01  0.48258265538E+01  0.82901129234E+01  0.51100000000E-03 0.  1.
        -12    1    3    3    0    0  0.41291541891E+00 -0.21571902004E+02  0.58051509545E+01  0.22343169713E+02  0.00000000000E+00 0.  1.
</event>
<event>
 7    1  0.2966651E-011  0.5052887E+02  0.7816164E-02  0.1300439E+00
        -11   -1    0    0    0    0  0.00000000000E+00  0.00000000000E+00  0.45593999997E+02  0.45594000000E+02  0.51100000000E-03 0.  1.
         11   -1    0    0    0    0 -0.00000000000E+00 -0.00000000000E+00 -0.45593999997E+02  0.45594000000E+02  0.51100000000E-03 0. -1.
    9900012    2    1    2    0    0  0.10758810867E+02 -0.10729813397E+02  0.37713185376E+02  0.50528865011E+02  0.30000015688E+02 0.  0.
         12    1    1    2    0    0 -0.10758810867E+02  0.10729813397E+02 -0.37713185376E+02  0.40659134989E+02  0.00000000000E+00 0. -1.
         11    1    3    3    0    0 -0.60105554254E+00 -0.10738513992E+02  0.25861035221E+01  0.11061866127E+02  0.51100000000E-03 0. -1.
        -11    1    3    3    0    0  0.13208003122E+01 -0.12988002068E+01  0.25267601465E+02  0.25335411571E+02  0.51100000000E-03 0.  1.
        -12    1    3    3    0    0  0.10039066097E+02  0.13075008011E+01  0.98594803897E+01  0.14131587313E+02  0.00000000000E+00 0.  1.
</event>
<event>
 7    1  0.2966651E-011  0.5052889E+02  0.7816164E-02  0.1300439E+00
        -11   -1    0    0    0    0  0.00000000000E+00  0.00000000000E+00  0.45593999997E+02  0.45594000000E+02  0.51100000000E-03 0.  1.
         11   -1    0    0    0    0 -0.00000000000E+00 -0.00000000000E+00 -0.45593999997E+02  0.45594000000E+02  0.51100000000E-03 0. -1.
    9900012    2    1    2    0    0 -0.21794912558E+01 -0.20901343529E+02  0.34807282499E+02  0.50528889601E+02  0.30000090430E+02 0.  0.
         12    1    1    2    0    0  0.21794912558E+01  0.20901343529E+02 -0.34807282499E+02  0.40659110399E+02  0.00000000000E+00 0. -1.
         11    1    3    3    0    0  0.69062582160E+01 -0.19227988074E+02  0.84640736353E+01  0.22114530759E+02  0.51100000000E-03 0. -1.
        -11    1    3    3    0    0 -0.71309147776E+01  0.67283873682E+00  0.14347152757E+02  0.16035693001E+02  0.51100000000E-03 0.  1.
        -12    1    3    3    0    0 -0.19548346943E+01 -0.23461941918E+01  0.11996056107E+02  0.12378665840E+02  0.00000000000E+00 0.  1.
</event>
<event>
 7    1  0.2966651E-011  0.5052884E+02  0.7816164E-02  0.1300439E+00
        -11   -1    0    0    0    0  0.00000000000E+00  0.00000000000E+00  0.45593999997E+02  0.45594000000E+02  0.51100000000E-03 0.  1.
         11   -1    0    0    0    0 -0.00000000000E+00 -0.00000000000E+00 -0.45593999997E+02  0.45594000000E+02  0.51100000000E-03 0. -1.
    9900012    2    1    2    0    0 -0.30427130213E+02  0.33775994805E+01  0.26757219162E+02  0.50528841025E+02  0.29999942781E+02 0.  0.
         12    1    1    2    0    0  0.30427130213E+02 -0.33775994805E+01 -0.26757219162E+02  0.40659158975E+02  0.00000000000E+00 0. -1.
         11    1    3    3    0    0 -0.36294358408E+01  0.81746527140E+01 -0.28825613556E+01  0.93971757325E+01  0.51100000000E-03 0. -1.
        -11    1    3    3    0    0 -0.17189707216E+02 -0.52110232413E+01  0.14008292417E+02  0.22778785175E+02  0.51100000000E-03 0.  1.
         12    1    3    3    0    0 -0.96079871565E+01  0.41397000774E+00  0.15631488101E+02  0.18352880118E+02  0.00000000000E+00 0. -1.
</event>
<event>
 7    1  0.2966651E-011  0.5052886E+02  0.7816164E-02  0.1300439E+00
        -11   -1    0    0    0    0  0.00000000000E+00  0.00000000000E+00  0.45593999997E+02  0.45594000000E+02  0.51100000000E-03 0. -1.
         11   -1    0    0    0    0 -0.00000000000E+00 -0.00000000000E+00 -0.45593999997E+02  0.45594000000E+02  0.51100000000E-03 0.  1.
    9900012    2    1    2    0    0  0.64944448406E+00  0.40631878246E+02 -0.13394548078E+01  0.50528862686E+02  0.30000008621E+02 0.  0.
         12    1    1    2    0    0 -0.64944448406E+00 -0.40631878246E+02  0.13394548078E+01  0.40659137314E+02  0.00000000000E+00 0. -1.
         11    1    3    3    0    0  0.10225942172E+02  0.75056817099E+01 -0.40652459821E+01  0.13320336947E+02  0.51100000000E-03 0. -1.
        -11    1    3    3    0    0 -0.25720131713E+01  0.10763917904E+02  0.74003185006E+01  0.13313222547E+02  0.51100000000E-03 0.  1.
         12    1    3    3    0    0 -0.70044845165E+01  0.22362278631E+02 -0.46745273263E+01  0.23895303192E+02  0.00000000000E+00 0. -1.
</event>
<event>
 7    1  0.2966651E-011  0.5052886E+02  0.7816164E-02  0.1300439E+00
        -11   -1    0    0    0    0  0.00000000000E+00  0.00000000000E+00  0.45593999997E+02  0.45594000000E+02  0.51100000000E-03 0.  1.
         11   -1    0    0    0    0 -0.00000000000E+00 -0.00000000000E+00 -0.45593999997E+02  0.45594000000E+02  0.51100000000E-03 0. -1.
    9900012    2    1    2    0    0  0.39533344593E+02  0.94601317548E+01  0.88661377589E+00  0.50528861894E+02  0.30000006214E+02 0.  0.
         12    1    1    2    0    0 -0.39533344593E+02 -0.94601317548E+01 -0.88661377589E+00  0.40659138106E+02  0.00000000000E+00 0. -1.
         11    1    3    3    0    0  0.32580329703E+02  0.98098485907E+01 -0.91209694313E+01  0.35226454499E+02  0.51100000000E-03 0. -1.
        -11    1    3    3    0    0 -0.20121048385E+01 -0.10847702912E+01  0.35769428703E+01  0.42449750322E+01  0.51100000000E-03 0.  1.
         12    1    3    3    0    0  0.89651197282E+01  0.73505345526E+00  0.64306403369E+01  0.11057432363E+02  0.00000000000E+00 0. -1.
</event>
<event>
 7    1  0.2966651E-011  0.5052886E+02  0.7816164E-02  0.1300439E+00
        -11   -1    0    0    0    0  0.00000000000E+00  0.00000000000E+00  0.45593999997E+02  0.45594000000E+02  0.51100000000E-03 0.  1.
         11   -1    0    0    0    0 -0.00000000000E+00 -0.00000000000E+00 -0.45593999997E+02  0.45594000000E+02  0.51100000000E-03 0. -1.
    9900012    2    1    2    0    0 -0.19813272566E+02 -0.30239787154E+01  0.35375910838E+02  0.50528864684E+02  0.30000014693E+02 0.  0.
         12    1    1    2    0    0  0.19813272566E+02  0.30239787154E+01 -0.35375910838E+02  0.40659135316E+02  0.00000000000E+00 0. -1.
         11    1    3    3    0    0 -0.12136031787E+02 -0.28597197447E+01 -0.15837575852E+01  0.12568593911E+02  0.51100000000E-03 0. -1.
        -11    1    3    3    0    0 -0.35697561899E+01  0.14777015371E+01  0.22822302301E+02  0.23147013709E+02  0.51100000000E-03 0.  1.
         12    1    3    3    0    0 -0.41074845898E+01 -0.16419605077E+01  0.14137366122E+02  0.14813257064E+02  0.00000000000E+00 0. -1.
</event>
<event>
 7    1  0.2966651E-011  0.5052886E+02  0.7816164E-02  0.1300439E+00
        -11   -1    0    0    0    0  0.00000000000E+00  0.00000000000E+00  0.45593999997E+02  0.45594000000E+02  0.51100000000E-03 0.  1.
         11   -1    0    0    0    0 -0.00000000000E+00 -0.00000000000E+00 -0.45593999997E+02  0.45594000000E+02  0.51100000000E-03 0. -1.
    9900012    2    1    2    0    0  0.16105157412E+02  0.32308891658E+02  0.18706282239E+02  0.50528861168E+02  0.30000004005E+02 0.  0.
         12    1    1    2    0    0 -0.16105157412E+02 -0.32308891658E+02 -0.18706282239E+02  0.40659138832E+02  0.00000000000E+00 0. -1.
         11    1    3    3    0    0  0.22984096196E+01 -0.19891093732E+01  0.48141736742E+01  0.56934621545E+01  0.51100000000E-03 0. -1.
        -11    1    3    3    0    0  0.18818325244E+02  0.31640906032E+02  0.10753088856E+02  0.38352382190E+02  0.51100000000E-03 0.  1.
        -12    1    3    3    0    0 -0.50115774519E+01  0.26570949993E+01  0.31390197086E+01  0.64830168227E+01  0.00000000000E+00 0.  1.
</event>
<event>
 7    1  0.2966651E-011  0.5052885E+02  0.7816164E-02  0.1300439E+00
        -11   -1    0    0    0    0  0.00000000000E+00  0.00000000000E+00  0.45593999997E+02  0.45594000000E+02  0.51100000000E-03 0.  1.
         11   -1    0    0    0    0 -0.00000000000E+00 -0.00000000000E+00 -0.45593999997E+02  0.45594000000E+02  0.51100000000E-03 0. -1.
    9900012    2    1    2    0    0  0.26245124105E+02 -0.94758292195E+01  0.29573101209E+02  0.50528853503E+02  0.29999980709E+02 0.  0.
         12    1    1    2    0    0 -0.26245124105E+02  0.94758292195E+01 -0.29573101209E+02  0.40659146497E+02  0.00000000000E+00 0. -1.
         11    1    3    3    0    0  0.64282720198E+01  0.51965395372E+01 -0.24221491750E+01  0.86135655341E+01  0.51100000000E-03 0. -1.
        -11    1    3    3    0    0  0.31570268788E+01 -0.70433298783E+01  0.15253538663E+02  0.17095196884E+02  0.51100000000E-03 0.  1.
         12    1    3    3    0    0  0.16659825207E+02 -0.76290388784E+01  0.16741711721E+02  0.24820091085E+02  0.00000000000E+00 0. -1.
</event>
<event>
 7    1  0.3887444E-011  0.5052884E+02  0.7816164E-02  0.1300439E+00
        -11   -1    0    0    0    0  0.00000000000E+00  0.00000000000E+00  0.45593999997E+02  0.45594000000E+02  0.51100000000E-03 0.  1.
         11   -1    0    0    0    0 -0.00000000000E+00 -0.00000000000E+00 -0.45593999997E+02  0.45594000000E+02  0.51100000000E-03 0. -1.
    9900012    2    1    2    0    0 -0.28401013321E+01 -0.39582149216E+02  0.88518086520E+01  0.50528840780E+02  0.29999942034E+02 0.  0.
         12    1    1    2    0    0  0.28401013321E+01  0.39582149216E+02 -0.88518086520E+01  0.40659159220E+02  0.00000000000E+00 0. -1.
         11    1    3    3    0    0  0.17266178581E+01 -0.32790178229E+01 -0.52062800570E+01  0.63905022811E+01  0.51100000000E-03 0. -1.
        -11    1    3    3    0    0  0.79717447065E+00 -0.15465987688E+02  0.16326012526E+02  0.22502687563E+02  0.51100000000E-03 0.  1.
        -12    1    3    3    0    0 -0.53638936609E+01 -0.20837143705E+02 -0.22679238167E+01  0.21635650936E+02  0.00000000000E+00 0.  1.
</event>
<event>
 7    1  0.2966651E-011  0.5052891E+02  0.7816164E-02  0.1300439E+00
        -11   -1    0    0    0    0  0.00000000000E+00  0.00000000000E+00  0.45593999997E+02  0.45594000000E+02  0.51100000000E-03 0. -1.
         11   -1    0    0    0    0 -0.00000000000E+00 -0.00000000000E+00 -0.45593999997E+02  0.45594000000E+02  0.51100000000E-03 0.  1.
    9900012    2    1    2    0    0  0.15228143575E+02  0.29886456630E+02 -0.22979670824E+02  0.50528906087E+02  0.30000140543E+02 0.  0.
         12    1    1    2    0    0 -0.15228143575E+02 -0.29886456630E+02  0.22979670824E+02  0.40659093913E+02  0.00000000000E+00 0. -1.
         11    1    3    3    0    0  0.18630026933E+02  0.20757892459E+02 -0.35285364462E+01  0.28114383731E+02  0.51100000000E-03 0. -1.
        -11    1    3    3    0    0 -0.83638171172E-01  0.64079156203E+01 -0.14559988135E+02  0.15907911010E+02  0.51100000000E-03 0.  1.
         12    1    3    3    0    0 -0.33182451863E+01  0.27206485508E+01 -0.48911462427E+01  0.65066113470E+01  0.00000000000E+00 0. -1.
</event>
<event>
 7    1  0.2966651E-011  0.5052884E+02  0.7816164E-02  0.1300439E+00
        -11   -1    0    0    0    0  0.00000000000E+00  0.00000000000E+00  0.45593999997E+02  0.45594000000E+02  0.51100000000E-03 0.  1.
         11   -1    0    0    0    0 -0.00000000000E+00 -0.00000000000E+00 -0.45593999997E+02  0.45594000000E+02  0.51100000000E-03 0. -1.
    9900012    2    1    2    0    0 -0.17354389496E+02 -0.36737854547E+02  0.15239068328E+01  0.50528842563E+02  0.29999947454E+02 0.  0.
         12    1    1    2    0    0  0.17354389496E+02  0.36737854547E+02 -0.15239068328E+01  0.40659157437E+02  0.00000000000E+00 0. -1.
         11    1    3    3    0    0 -0.19303466306E+02 -0.29312644538E+02 -0.56331738718E+01  0.35546977218E+02  0.51100000000E-03 0. -1.
        -11    1    3    3    0    0  0.20613684826E+01 -0.97128003154E+01  0.32401072618E+01  0.10444425562E+02  0.51100000000E-03 0.  1.
         12    1    3    3    0    0 -0.11229167314E+00  0.22875903065E+01  0.39169734429E+01  0.45374397828E+01  0.00000000000E+00 0. -1.
</event>
<event>
 7    1  0.2966651E-011  0.5052886E+02  0.7816164E-02  0.1300439E+00
        -11   -1    0    0    0    0  0.00000000000E+00  0.00000000000E+00  0.45593999997E+02  0.45594000000E+02  0.51100000000E-03 0. -1.
         11   -1    0    0    0    0 -0.00000000000E+00 -0.00000000000E+00 -0.45593999997E+02  0.45594000000E+02  0.51100000000E-03 0.  1.
    9900012    2    1    2    0    0  0.31616132130E+02  0.19107015558E+02  0.16985522840E+02  0.50528857848E+02  0.29999993914E+02 0.  0.
         12    1    1    2    0    0 -0.31616132130E+02 -0.19107015558E+02 -0.16985522840E+02  0.40659142152E+02  0.00000000000E+00 0. -1.
         11    1    3    3    0    0 -0.27688648281E+01  0.31289019816E+01  0.67324422830E+01  0.79235357891E+01  0.51100000000E-03 0. -1.
        -11    1    3    3    0    0  0.14032077885E+02  0.15179092461E+02  0.25466729491E+01  0.20827616308E+02  0.51100000000E-03 0.  1.
         12    1    3    3    0    0  0.20352919073E+02  0.79902111627E+00  0.77064076081E+01  0.21777705751E+02  0.00000000000E+00 0. -1.
</event>
<event>
 7    1  0.2966651E-011  0.5052885E+02  0.7816164E-02  0.1300439E+00
        -11   -1    0    0    0    0  0.00000000000E+00  0.00000000000E+00  0.45593999997E+02  0.45594000000E+02  0.51100000000E-03 0.  1.
         11   -1    0    0    0    0 -0.00000000000E+00 -0.00000000000E+00 -0.45593999997E+02  0.45594000000E+02  0.51100000000E-03 0. -1.
    9900012    2    1    2    0    0 -0.19670199746E+02  0.20618716022E+02  0.29002039577E+02  0.50528849639E+02  0.29999968964E+02 0.  0.
         12    1    1    2    0    0  0.19670199746E+02 -0.20618716022E+02 -0.29002039577E+02  0.40659150361E+02  0.00000000000E+00 0. -1.
         11    1    3    3    0    0 -0.30786980161E+01  0.34473918078E-01 -0.79840070603E+00  0.31807253691E+01  0.51100000000E-03 0. -1.
        -11    1    3    3    0    0  0.35414159803E+01  0.52112079857E+01  0.18624133767E+02  0.19661044597E+02  0.51100000000E-03 0.  1.
        -12    1    3    3    0    0 -0.20132917710E+02  0.15373034118E+02  0.11176306517E+02  0.27687079674E+02  0.00000000000E+00 0.  1.
</event>
<event>
 7    1  0.2966651E-011  0.5052884E+02  0.7816164E-02  0.1300439E+00
        -11   -1    0    0    0    0  0.00000000000E+00  0.00000000000E+00  0.45593999997E+02  0.45594000000E+02  0.51100000000E-03 0. -1.
         11   -1    0    0    0    0 -0.00000000000E+00 -0.00000000000E+00 -0.45593999997E+02  0.45594000000E+02  0.51100000000E-03 0.  1.
    9900012    2    1    2    0    0  0.95951834460E+01  0.10017058108E+02 -0.38219863338E+02  0.50528844179E+02  0.29999952368E+02 0.  0.
         12    1    1    2    0    0 -0.95951834460E+01 -0.10017058108E+02  0.38219863338E+02  0.40659155821E+02  0.00000000000E+00 0. -1.
         11    1    3    3    0    0  0.26957883100E+01 -0.52686946834E+01 -0.26172489056E+02  0.26833292789E+02  0.51100000000E-03 0.  1.
        -11    1    3    3    0    0  0.95055844191E+01  0.74017907547E+01 -0.62845274718E+01  0.13588153934E+02  0.51100000000E-03 0. -1.
        -12    1    3    3    0    0 -0.26061892831E+01  0.78839620372E+01 -0.57628468098E+01  0.10107397456E+02  0.00000000000E+00 0.  1.
</event>
<event>
 7    1  0.2966651E-011  0.5052886E+02  0.7816164E-02  0.1300439E+00
        -11   -1    0    0    0    0  0.00000000000E+00  0.00000000000E+00  0.45593999997E+02  0.45594000000E+02  0.51100000000E-03 0. -1.
         11   -1    0    0    0    0 -0.00000000000E+00 -0.00000000000E+00 -0.45593999997E+02  0.45594000000E+02  0.51100000000E-03 0.  1.
    9900012    2    1    2    0    0 -0.32878682288E+02 -0.23138694174E+02  0.60629093092E+01  0.50528858514E+02  0.29999995940E+02 0.  0.
         12    1    1    2    0    0  0.32878682288E+02  0.23138694174E+02 -0.60629093092E+01  0.40659141486E+02  0.00000000000E+00 0. -1.
         11    1    3    3    0    0 -0.96182018133E+01 -0.25104994905E+01  0.12347230729E+02  0.15851388607E+02  0.51100000000E-03 0. -1.
        -11    1    3    3    0    0 -0.11972700828E+02 -0.12219362085E+02  0.35949278166E+01  0.17480900468E+02  0.51100000000E-03 0.  1.
         12    1    3    3    0    0 -0.11287779647E+02 -0.84088325983E+01 -0.98792492368E+01  0.17196569440E+02  0.00000000000E+00 0. -1.
</event>
<event>
 7    1  0.2966651E-011  0.5052886E+02  0.7816164E-02  0.1300439E+00
        -11   -1    0    0    0    0  0.00000000000E+00  0.00000000000E+00  0.45593999997E+02  0.45594000000E+02  0.51100000000E-03 0. -1.
         11   -1    0    0    0    0 -0.00000000000E+00 -0.00000000000E+00 -0.45593999997E+02  0.45594000000E+02  0.51100000000E-03 0.  1.
    9900012    2    1    2    0    0 -0.33574912485E+02  0.13744418333E+02 -0.18357064635E+02  0.50528860736E+02  0.30000002692E+02 0.  0.
         12    1    1    2    0    0  0.33574912485E+02 -0.13744418333E+02  0.18357064635E+02  0.40659139264E+02  0.00000000000E+00 0. -1.
         11    1    3    3    0    0 -0.66624050710E+01 -0.20715143557E+00 -0.37862975725E+01  0.76659378172E+01  0.51100000000E-03 0. -1.
        -11    1    3    3    0    0  0.53255008402E+01  0.41195573111E+00 -0.21112684790E+01  0.57435286693E+01  0.51100000000E-03 0.  1.
        -12    1    3    3    0    0 -0.32238008254E+02  0.13539614038E+02 -0.12459498584E+02  0.37119394249E+02  0.00000000000E+00 0.  1.
</event>
<event>
 7    1  0.2966651E-011  0.5052887E+02  0.7816164E-02  0.1300439E+00
        -11   -1    0    0    0    0  0.00000000000E+00  0.00000000000E+00  0.45593999997E+02  0.45594000000E+02  0.51100000000E-03 0.  1.
         11   -1    0    0    0    0 -0.00000000000E+00 -0.00000000000E+00 -0.45593999997E+02  0.45594000000E+02  0.51100000000E-03 0. -1.
    9900012    2    1    2    0    0  0.29468774410E+02 -0.21632616526E+02  0.17798489286E+02  0.50528868383E+02  0.30000025937E+02 0.  0.
         12    1    1    2    0    0 -0.29468774410E+02  0.21632616526E+02 -0.17798489286E+02  0.40659131617E+02  0.00000000000E+00 0. -1.
         11    1    3    3    0    0  0.12257591727E+02 -0.20078172933E+02  0.10377155010E+01  0.23546941139E+02  0.51100000000E-03 0. -1.
        -11    1    3    3    0    0  0.18478795152E+02 -0.17040015473E+01  0.17499722026E+02  0.25507053197E+02  0.51100000000E-03 0.  1.
         12    1    3    3    0    0 -0.12676124685E+01  0.14955795459E+00 -0.73894824128E+00  0.14748740473E+01  0.00000000000E+00 0. -1.
</event>
<event>
 7    1  0.2966651E-011  0.5052887E+02  0.7816164E-02  0.1300439E+00
        -11   -1    0    0    0    0  0.00000000000E+00  0.00000000000E+00  0.45593999997E+02  0.45594000000E+02  0.51100000000E-03 0. -1.
         11   -1    0    0    0    0 -0.00000000000E+00 -0.00000000000E+00 -0.45593999997E+02  0.45594000000E+02  0.51100000000E-03 0.  1.
    9900012    2    1    2    0    0 -0.15950860477E+02 -0.13663400701E+02 -0.34814451918E+02  0.50528873952E+02  0.30000042864E+02 0.  0.
         12    1    1    2    0    0  0.15950860477E+02  0.13663400701E+02  0.34814451918E+02  0.40659126048E+02  0.00000000000E+00 0. -1.
         11    1    3    3    0    0 -0.87784082683E+01  0.36141502799E+01 -0.86296179403E+01  0.12829374109E+02  0.51100000000E-03 0. -1.
        -11    1    3    3    0    0 -0.46521292111E+01 -0.14527888191E+02 -0.29172729577E+02  0.32920358332E+02  0.51100000000E-03 0.  1.
        -12    1    3    3    0    0 -0.25203229973E+01 -0.27496627899E+01  0.29878955993E+01  0.47791415109E+01  0.00000000000E+00 0.  1.
</event>
<event>
 7    1  0.2966651E-011  0.5052887E+02  0.7816164E-02  0.1300439E+00
        -11   -1    0    0    0    0  0.00000000000E+00  0.00000000000E+00  0.45593999997E+02  0.45594000000E+02  0.51100000000E-03 0.  1.
         11   -1    0    0    0    0 -0.00000000000E+00 -0.00000000000E+00 -0.45593999997E+02  0.45594000000E+02  0.51100000000E-03 0. -1.
    9900012    2    1    2    0    0  0.38266728841E+02 -0.76367825725E+01  0.11423755796E+02  0.50528865961E+02  0.30000018576E+02 0.  0.
         12    1    1    2    0    0 -0.38266728841E+02  0.76367825725E+01 -0.11423755796E+02  0.40659134039E+02  0.00000000000E+00 0. -1.
         11    1    3    3    0    0  0.16258471105E+01  0.32349343071E+01 -0.28295236405E+01  0.45950389651E+01  0.51100000000E-03 0. -1.
        -11    1    3    3    0    0  0.39029185720E+02 -0.10709003677E+02  0.11083984542E+02  0.41962063955E+02  0.51100000000E-03 0.  1.
        -12    1    3    3    0    0 -0.23883039894E+01 -0.16271320256E+00  0.31692948944E+01  0.39717630418E+01  0.00000000000E+00 0.  1.
</event>
<event>
 7    1  0.2966651E-011  0.5052887E+02  0.7816164E-02  0.1300439E+00
        -11   -1    0    0    0    0  0.00000000000E+00  0.00000000000E+00  0.45593999997E+02  0.45594000000E+02  0.51100000000E-03 0.  1.
         11   -1    0    0    0    0 -0.00000000000E+00 -0.00000000000E+00 -0.45593999997E+02  0.45594000000E+02  0.51100000000E-03 0. -1.
    9900012    2    1    2    0    0  0.14770081494E+02  0.35067306165E+02  0.14328063009E+02  0.50528872382E+02  0.30000038094E+02 0.  0.
         12    1    1    2    0    0 -0.14770081494E+02 -0.35067306165E+02 -0.14328063009E+02  0.40659127618E+02  0.00000000000E+00 0. -1.
         11    1    3    3    0    0 -0.16158564156E+01  0.74865432840E+01 -0.37569759078E+01  0.85307790108E+01  0.51100000000E-03 0. -1.
        -11    1    3    3    0    0  0.20235367653E+02  0.24209107995E+02  0.18953880921E+02  0.36807616279E+02  0.51100000000E-03 0.  1.
        -12    1    3    3    0    0 -0.38494297427E+01  0.33716548864E+01 -0.86884200426E+00  0.51904770923E+01  0.00000000000E+00 0.  1.
</event>
<event>
 7    1  0.2966651E-011  0.5052890E+02  0.7816164E-02  0.1300439E+00
        -11   -1    0    0    0    0  0.00000000000E+00  0.00000000000E+00  0.45593999997E+02  0.45594000000E+02  0.51100000000E-03 0. -1.
         11   -1    0    0    0    0 -0.00000000000E+00 -0.00000000000E+00 -0.45593999997E+02  0.45594000000E+02  0.51100000000E-03 0.  1.
    9900012    2    1    2    0    0 -0.78833526478E+01  0.31308163355E+02 -0.24714658853E+02  0.50528896421E+02  0.30000111161E+02 0.  0.
         12    1    1    2    0    0  0.78833526478E+01 -0.31308163355E+02  0.24714658853E+02  0.40659103579E+02  0.00000000000E+00 0. -1.
         11    1    3    3    0    0 -0.81731433305E+01  0.24207805637E+01 -0.17691981668E+02  0.19638397746E+02  0.51100000000E-03 0. -1.
        -11    1    3    3    0    0  0.64678246387E+00  0.13453687607E+02 -0.75552250119E+01  0.15443492578E+02  0.51100000000E-03 0.  1.
         12    1    3    3    0    0 -0.35699178125E+00  0.15433695184E+02  0.53254782619E+00  0.15447006097E+02  0.00000000000E+00 0. -1.
</event>
<event>
 7    1  0.2966651E-011  0.5052886E+02  0.7816164E-02  0.1300439E+00
        -11   -1    0    0    0    0  0.00000000000E+00  0.00000000000E+00  0.45593999997E+02  0.45594000000E+02  0.51100000000E-03 0.  1.
         11   -1    0    0    0    0 -0.00000000000E+00 -0.00000000000E+00 -0.45593999997E+02  0.45594000000E+02  0.51100000000E-03 0. -1.
    9900012    2    1    2    0    0 -0.13989838393E+02  0.29700181662E+02  0.23986435261E+02  0.50528862705E+02  0.30000008679E+02 0.  0.
         12    1    1    2    0    0  0.13989838393E+02 -0.29700181662E+02 -0.23986435261E+02  0.40659137295E+02  0.00000000000E+00 0. -1.
         11    1    3    3    0    0  0.14409352500E+01  0.67920572380E+00 -0.23437970757E+01  0.28339018690E+01  0.51100000000E-03 0. -1.
        -11    1    3    3    0    0 -0.29779336104E+01  0.26620588023E+02  0.20531497009E+02  0.33750054296E+02  0.51100000000E-03 0.  1.
        -12    1    3    3    0    0 -0.12452840032E+02  0.24003879153E+01  0.57987353278E+01  0.13944906540E+02  0.00000000000E+00 0.  1.
</event>
<event>
 7    1  0.2966651E-011  0.5052887E+02  0.7816164E-02  0.1300439E+00
        -11   -1    0    0    0    0  0.00000000000E+00  0.00000000000E+00  0.45593999997E+02  0.45594000000E+02  0.51100000000E-03 0.  1.
         11   -1    0    0    0    0 -0.00000000000E+00 -0.00000000000E+00 -0.45593999997E+02  0.45594000000E+02  0.51100000000E-03 0. -1.
    9900012    2    1    2    0    0 -0.11940011972E+02 -0.35064168418E+02  0.16766195268E+02  0.50528866998E+02  0.30000021726E+02 0.  0.
         12    1    1    2    0    0  0.11940011972E+02  0.35064168418E+02 -0.16766195268E+02  0.40659133002E+02  0.00000000000E+00 0. -1.
         11    1    3    3    0    0 -0.98487537401E+00  0.52189461049E+00 -0.19586756771E+01  0.22536113587E+01  0.51100000000E-03 0. -1.
        -11    1    3    3    0    0 -0.16836997783E+01 -0.35174840321E+02  0.14873773504E+02  0.38227390378E+02  0.51100000000E-03 0.  1.
        -12    1    3    3    0    0 -0.92714368195E+01 -0.41122270736E+00  0.38510974403E+01  0.10047865261E+02  0.00000000000E+00 0.  1.
</event>
<event>
 7    1  0.2966651E-011  0.5052886E+02  0.7816164E-02  0.1300439E+00
        -11   -1    0    0    0    0  0.00000000000E+00  0.00000000000E+00  0.45593999997E+02  0.45594000000E+02  0.51100000000E-03 0. -1.
         11   -1    0    0    0    0 -0.00000000000E+00 -0.00000000000E+00 -0.45593999997E+02  0.45594000000E+02  0.51100000000E-03 0.  1.
    9900012    2    1    2    0    0 -0.77153284576E+01  0.62507229128E+00 -0.39915514663E+02  0.50528864257E+02  0.30000013395E+02 0.  0.
         12    1    1    2    0    0  0.77153284576E+01 -0.62507229128E+00  0.39915514663E+02  0.40659135743E+02  0.00000000000E+00 0. -1.
         11    1    3    3    0    0  0.61571742830E+01  0.12742608137E+01 -0.25426707674E+02  0.26192594357E+02  0.51100000000E-03 0. -1.
        -11    1    3    3    0    0 -0.11064035006E+02  0.47824934787E+01 -0.50032154960E+01  0.13050566273E+02  0.51100000000E-03 0.  1.
        -12    1    3    3    0    0 -0.28084677347E+01 -0.54316820011E+01 -0.94855914928E+01  0.11285703627E+02  0.00000000000E+00 0.  1.
</event>
<event>
 7    1  0.2966651E-011  0.5052887E+02  0.7816164E-02  0.1300439E+00
        -11   -1    0    0    0    0  0.00000000000E+00  0.00000000000E+00  0.45593999997E+02  0.45594000000E+02  0.51100000000E-03 0. -1.
         11   -1    0    0    0    0 -0.00000000000E+00 -0.00000000000E+00 -0.45593999997E+02  0.45594000000E+02  0.51100000000E-03 0.  1.
    9900012    2    1    2    0    0 -0.30877021142E+02 -0.21647925986E+02 -0.15203356965E+02  0.50528865760E+02  0.30000017965E+02 0.  0.
         12    1    1    2    0    0  0.30877021142E+02  0.21647925986E+02  0.15203356965E+02  0.40659134240E+02  0.00000000000E+00 0. -1.
         11    1    3    3    0    0 -0.38047835423E+01 -0.64790459011E+01 -0.11063999033E+02  0.13374097669E+02  0.51100000000E-03 0. -1.
        -11    1    3    3    0    0 -0.13440301185E+02 -0.14985244980E+02  0.50004752965E+01  0.20741360044E+02  0.51100000000E-03 0.  1.
        -12    1    3    3    0    0 -0.13631936415E+02 -0.18363510580E+00 -0.91398332291E+01  0.16413408047E+02  0.00000000000E+00 0.  1.
</event>
<event>
 7    1  0.2966651E-011  0.5052886E+02  0.7816164E-02  0.1300439E+00
        -11   -1    0    0    0    0  0.00000000000E+00  0.00000000000E+00  0.45593999997E+02  0.45594000000E+02  0.51100000000E-03 0. -1.
         11   -1    0    0    0    0 -0.00000000000E+00 -0.00000000000E+00 -0.45593999997E+02  0.45594000000E+02  0.51100000000E-03 0.  1.
    9900012    2    1    2    0    0  0.27973477037E+02  0.29422457954E+02 -0.22292138826E+01  0.50528857804E+02  0.29999993780E+02 0.  0.
         12    1    1    2    0    0 -0.27973477037E+02 -0.29422457954E+02  0.22292138826E+01  0.40659142196E+02  0.00000000000E+00 0. -1.
         11    1    3    3    0    0  0.12371184478E+02  0.68536843850E+01 -0.10209165726E+01  0.14179614450E+02  0.51100000000E-03 0. -1.
        -11    1    3    3    0    0  0.21273787101E+01  0.37409776026E+01 -0.10541335529E+02  0.11385974205E+02  0.51100000000E-03 0.  1.
        -12    1    3    3    0    0  0.13474913848E+02  0.18827795967E+02  0.93330382191E+01  0.24963269148E+02  0.00000000000E+00 0.  1.
</event>
<event>
 7    1  0.2966651E-011  0.5052886E+02  0.7816164E-02  0.1300439E+00
        -11   -1    0    0    0    0  0.00000000000E+00  0.00000000000E+00  0.45593999997E+02  0.45594000000E+02  0.51100000000E-03 0.  1.
         11   -1    0    0    0    0 -0.00000000000E+00 -0.00000000000E+00 -0.45593999997E+02  0.45594000000E+02  0.51100000000E-03 0. -1.
    9900012    2    1    2    0    0 -0.18260052547E+02 -0.21484240233E+02  0.29294431326E+02  0.50528858295E+02  0.29999995274E+02 0.  0.
         12    1    1    2    0    0  0.18260052547E+02  0.21484240233E+02 -0.29294431326E+02  0.40659141705E+02  0.00000000000E+00 0. -1.
         11    1    3    3    0    0 -0.83088207760E+00 -0.78565700739E+01  0.37406428070E+01  0.87411936956E+01  0.51100000000E-03 0. -1.
        -11    1    3    3    0    0 -0.57069835579E+01  0.43447560720E+01  0.17422710907E+02  0.18841375275E+02  0.51100000000E-03 0.  1.
        -12    1    3    3    0    0 -0.11722186912E+02 -0.17972426231E+02  0.81310776126E+01  0.22946289325E+02  0.00000000000E+00 0.  1.
</event>
<event>
 7    1  0.2966651E-011  0.5052884E+02  0.7816164E-02  0.1300439E+00
        -11   -1    0    0    0    0  0.00000000000E+00  0.00000000000E+00  0.45593999997E+02  0.45594000000E+02  0.51100000000E-03 0. -1.
         11   -1    0    0    0    0 -0.00000000000E+00 -0.00000000000E+00 -0.45593999997E+02  0.45594000000E+02  0.51100000000E-03 0.  1.
    9900012    2    1    2    0    0  0.21599890533E+02  0.28562708228E+02 -0.19255739418E+02  0.50528842694E+02  0.29999947851E+02 0.  0.
         12    1    1    2    0    0 -0.21599890533E+02 -0.28562708228E+02  0.19255739418E+02  0.40659157306E+02  0.00000000000E+00 0. -1.
         11    1    3    3    0    0 -0.31258390263E-01  0.19552539698E+01  0.11604553363E+01  0.22739067751E+01  0.51100000000E-03 0. -1.
        -11    1    3    3    0    0  0.13697837947E+02  0.30767058187E+02 -0.11426281567E+02  0.35564062544E+02  0.51100000000E-03 0.  1.
        -12    1    3    3    0    0  0.79333109758E+01 -0.41596039295E+01 -0.89899131871E+01  0.12690873374E+02  0.00000000000E+00 0.  1.
</event>
<event>
 7    1  0.2966651E-011  0.5052887E+02  0.7816164E-02  0.1300439E+00
        -11   -1    0    0    0    0  0.00000000000E+00  0.00000000000E+00  0.45593999997E+02  0.45594000000E+02  0.51100000000E-03 0.  1.
         11   -1    0    0    0    0 -0.00000000000E+00 -0.00000000000E+00 -0.45593999997E+02  0.45594000000E+02  0.51100000000E-03 0. -1.
    9900012    2    1    2    0    0  0.21839571643E+01  0.40058947789E+02  0.66087856119E+01  0.50528868010E+02  0.30000024804E+02 0.  0.
         12    1    1    2    0    0 -0.21839571643E+01 -0.40058947789E+02 -0.66087856119E+01  0.40659131990E+02  0.00000000000E+00 0. -1.
         11    1    3    3    0    0  0.14007397981E+02  0.31949600538E+02  0.62248104284E+01  0.35436315241E+02  0.51100000000E-03 0.  1.
        -11    1    3    3    0    0 -0.78998790341E+01  0.61813591373E+01 -0.18234155756E+01  0.10195201526E+02  0.51100000000E-03 0. -1.
        -12    1    3    3    0    0 -0.39235617830E+01  0.19279881140E+01  0.22073907592E+01  0.48973512429E+01  0.00000000000E+00 0.  1.
</event>
<event>
 7    1  0.2966651E-011  0.5052886E+02  0.7816164E-02  0.1300439E+00
        -11   -1    0    0    0    0  0.00000000000E+00  0.00000000000E+00  0.45593999997E+02  0.45594000000E+02  0.51100000000E-03 0. -1.
         11   -1    0    0    0    0 -0.00000000000E+00 -0.00000000000E+00 -0.45593999997E+02  0.45594000000E+02  0.51100000000E-03 0.  1.
    9900012    2    1    2    0    0  0.35585481644E+02  0.13484865060E+01 -0.19621953020E+02  0.50528856379E+02  0.29999989449E+02 0.  0.
         12    1    1    2    0    0 -0.35585481644E+02 -0.13484865060E+01  0.19621953020E+02  0.40659143621E+02  0.00000000000E+00 0. -1.
         11    1    3    3    0    0 -0.36067659543E+01 -0.31671845101E+01 -0.14259681761E+01  0.50073150361E+01  0.51100000000E-03 0.  1.
        -11    1    3    3    0    0  0.11799841944E+02  0.59605108255E+01 -0.12501190724E+01  0.13278808575E+02  0.51100000000E-03 0. -1.
         12    1    3    3    0    0  0.27392405654E+02 -0.14448398094E+01 -0.16945865771E+02  0.32242732768E+02  0.00000000000E+00 0. -1.
</event>
<event>
 7    1  0.2966651E-011  0.5052885E+02  0.7816164E-02  0.1300439E+00
        -11   -1    0    0    0    0  0.00000000000E+00  0.00000000000E+00  0.45593999997E+02  0.45594000000E+02  0.51100000000E-03 0.  1.
         11   -1    0    0    0    0 -0.00000000000E+00 -0.00000000000E+00 -0.45593999997E+02  0.45594000000E+02  0.51100000000E-03 0. -1.
    9900012    2    1    2    0    0 -0.11879249469E+02 -0.14504902369E+02  0.36078491551E+02  0.50528852035E+02  0.29999976245E+02 0.  0.
         12    1    1    2    0    0  0.11879249469E+02  0.14504902369E+02 -0.36078491551E+02  0.40659147965E+02  0.00000000000E+00 0. -1.
         11    1    3    3    0    0  0.25724154578E+01 -0.50265902998E+01  0.32040630832E+01  0.64922994257E+01  0.51100000000E-03 0. -1.
        -11    1    3    3    0    0 -0.53840058180E+01  0.71448546925E+01  0.17466443868E+02  0.19624299449E+02  0.51100000000E-03 0.  1.
        -12    1    3    3    0    0 -0.90676591093E+01 -0.16623166762E+02  0.15407984599E+02  0.24412253160E+02  0.00000000000E+00 0.  1.
</event>
<event>
 7    1  0.2966651E-011  0.5052886E+02  0.7816164E-02  0.1300439E+00
        -11   -1    0    0    0    0  0.00000000000E+00  0.00000000000E+00  0.45593999997E+02  0.45594000000E+02  0.51100000000E-03 0.  1.
         11   -1    0    0    0    0 -0.00000000000E+00 -0.00000000000E+00 -0.45593999997E+02  0.45594000000E+02  0.51100000000E-03 0. -1.
    9900012    2    1    2    0    0 -0.35752954667E+02  0.13747394145E+01  0.19313267729E+02  0.50528856056E+02  0.29999988468E+02 0.  0.
         12    1    1    2    0    0  0.35752954667E+02 -0.13747394145E+01 -0.19313267729E+02  0.40659143944E+02  0.00000000000E+00 0. -1.
         11    1    3    3    0    0 -0.93193967843E+00 -0.92991314744E+01  0.43397083523E+01  0.10304146087E+02  0.51100000000E-03 0. -1.
        -11    1    3    3    0    0 -0.76479459454E+01  0.37724054248E+01  0.71210578080E+01  0.11109976797E+02  0.51100000000E-03 0.  1.
         12    1    3    3    0    0 -0.27173069043E+02  0.69014654641E+01  0.78525015692E+01  0.29114733172E+02  0.00000000000E+00 0. -1.
</event>
<event>
 7    1  0.2966651E-011  0.5052875E+02  0.7816164E-02  0.1300439E+00
        -11   -1    0    0    0    0  0.00000000000E+00  0.00000000000E+00  0.45593999997E+02  0.45594000000E+02  0.51100000000E-03 0.  1.
         11   -1    0    0    0    0 -0.00000000000E+00 -0.00000000000E+00 -0.45593999997E+02  0.45594000000E+02  0.51100000000E-03 0. -1.
    9900012    2    1    2    0    0 -0.52237072532E+01 -0.35062133262E+02  0.19913174705E+02  0.50528747262E+02  0.29999657777E+02 0.  0.
         12    1    1    2    0    0  0.52237072532E+01  0.35062133262E+02 -0.19913174705E+02  0.40659252738E+02  0.00000000000E+00 0. -1.
         11    1    3    3    0    0 -0.96697149461E+01 -0.92880610337E+01  0.20868103941E+01  0.13569312539E+02  0.51100000000E-03 0. -1.
        -11    1    3    3    0    0  0.35117330211E+01 -0.88659961786E+01  0.17607628055E+02  0.20024153491E+02  0.51100000000E-03 0.  1.
        -12    1    3    3    0    0  0.93427467185E+00 -0.16908076049E+02  0.21873625618E+00  0.16935281232E+02  0.00000000000E+00 0.  1.
</event>
<event>
 7    1  0.2966651E-011  0.5052885E+02  0.7816164E-02  0.1300439E+00
        -11   -1    0    0    0    0  0.00000000000E+00  0.00000000000E+00  0.45593999997E+02  0.45594000000E+02  0.51100000000E-03 0.  1.
         11   -1    0    0    0    0 -0.00000000000E+00 -0.00000000000E+00 -0.45593999997E+02  0.45594000000E+02  0.51100000000E-03 0. -1.
    9900012    2    1    2    0    0 -0.19234271343E+02  0.21753942206E+02  0.28460058406E+02  0.50528854410E+02  0.29999983466E+02 0.  0.
         12    1    1    2    0    0  0.19234271343E+02 -0.21753942206E+02 -0.28460058406E+02  0.40659145590E+02  0.00000000000E+00 0. -1.
         11    1    3    3    0    0 -0.10959065267E+02  0.87997119122E+01  0.40961434260E+00  0.14060719236E+02  0.51100000000E-03 0. -1.
        -11    1    3    3    0    0  0.61208530353E+00  0.13131675428E+02  0.22283663167E+02  0.25872324835E+02  0.51100000000E-03 0.  1.
         12    1    3    3    0    0 -0.88872913803E+01 -0.17744513390E+00  0.57667808961E+01  0.10595810340E+02  0.00000000000E+00 0. -1.
</event>
<event>
 7    1  0.3170490E-011  0.5052887E+02  0.7816164E-02  0.1300439E+00
        -11   -1    0    0    0    0  0.00000000000E+00  0.00000000000E+00  0.45593999997E+02  0.45594000000E+02  0.51100000000E-03 0.  1.
         11   -1    0    0    0    0 -0.00000000000E+00 -0.00000000000E+00 -0.45593999997E+02  0.45594000000E+02  0.51100000000E-03 0. -1.
    9900012    2    1    2    0    0  0.12459564466E+02 -0.38299301146E+02  0.55756365839E+01  0.50528868944E+02  0.30000027641E+02 0.  0.
         12    1    1    2    0    0 -0.12459564466E+02  0.38299301146E+02 -0.55756365839E+01  0.40659131056E+02  0.00000000000E+00 0. -1.
         11    1    3    3    0    0 -0.13307463940E+01  0.25445001945E+01  0.25517490963E+00  0.28827906099E+01  0.51100000000E-03 0. -1.
        -11    1    3    3    0    0  0.17788173698E+01 -0.32152715488E+02  0.62027285378E+01  0.32793827866E+02  0.51100000000E-03 0.  1.
        -12    1    3    3    0    0  0.12011493490E+02 -0.86910858518E+01 -0.88226686346E+00  0.14852250468E+02  0.00000000000E+00 0.  1.
</event>
<event>
 7    1  0.2966651E-011  0.5052886E+02  0.7816164E-02  0.1300439E+00
        -11   -1    0    0    0    0  0.00000000000E+00  0.00000000000E+00  0.45593999997E+02  0.45594000000E+02  0.51100000000E-03 0.  1.
         11   -1    0    0    0    0 -0.00000000000E+00 -0.00000000000E+00 -0.45593999997E+02  0.45594000000E+02  0.51100000000E-03 0. -1.
    9900012    2    1    2    0    0 -0.26500202814E+02 -0.54196093452E+00  0.30831987141E+02  0.50528857093E+02  0.29999991620E+02 0.  0.
         12    1    1    2    0    0  0.26500202814E+02  0.54196093452E+00 -0.30831987141E+02  0.40659142907E+02  0.00000000000E+00 0. -1.
         11    1    3    3    0    0  0.16899105877E+01  0.56702140010E+01  0.13179843469E+02  0.14446985801E+02  0.51100000000E-03 0. -1.
        -11    1    3    3    0    0 -0.18242995536E+02 -0.83852967670E+01  0.16197241629E+02  0.25796719261E+02  0.51100000000E-03 0.  1.
        -12    1    3    3    0    0 -0.99471178664E+01  0.21731218315E+01  0.14549020428E+01  0.10285152031E+02  0.00000000000E+00 0.  1.
</event>
<event>
 7    1  0.2966651E-011  0.5052886E+02  0.7816164E-02  0.1300439E+00
        -11   -1    0    0    0    0  0.00000000000E+00  0.00000000000E+00  0.45593999997E+02  0.45594000000E+02  0.51100000000E-03 0. -1.
         11   -1    0    0    0    0 -0.00000000000E+00 -0.00000000000E+00 -0.45593999997E+02  0.45594000000E+02  0.51100000000E-03 0.  1.
    9900012    2    1    2    0    0  0.29778553143E+02  0.27464789664E+02 -0.34768524319E+01  0.50528863248E+02  0.30000010327E+02 0.  0.
         12    1    1    2    0    0 -0.29778553143E+02 -0.27464789664E+02  0.34768524319E+01  0.40659136752E+02  0.00000000000E+00 0. -1.
         11    1    3    3    0    0  0.13650660510E+02  0.26360332612E+02  0.53488230860E+01  0.30163182466E+02  0.51100000000E-03 0. -1.
        -11    1    3    3    0    0  0.11857933626E+02  0.15999296675E+01 -0.17585716432E+01  0.12093921585E+02  0.51100000000E-03 0.  1.
         12    1    3    3    0    0  0.42699590066E+01 -0.49547261511E+00 -0.70671038747E+01  0.82717591965E+01  0.00000000000E+00 0. -1.
</event>
<event>
 7    1  0.2966651E-011  0.5052886E+02  0.7816164E-02  0.1300439E+00
        -11   -1    0    0    0    0  0.00000000000E+00  0.00000000000E+00  0.45593999997E+02  0.45594000000E+02  0.51100000000E-03 0.  1.
         11   -1    0    0    0    0 -0.00000000000E+00 -0.00000000000E+00 -0.45593999997E+02  0.45594000000E+02  0.51100000000E-03 0. -1.
    9900012    2    1    2    0    0  0.29340307928E+02 -0.19775905750E+02  0.20030620585E+02  0.50528857380E+02  0.29999992493E+02 0.  0.
         12    1    1    2    0    0 -0.29340307928E+02  0.19775905750E+02 -0.20030620585E+02  0.40659142620E+02  0.00000000000E+00 0. -1.
         11    1    3    3    0    0  0.22624884747E+02 -0.75439727645E+01  0.97708210118E+01  0.25773355978E+02  0.51100000000E-03 0. -1.
        -11    1    3    3    0    0  0.30084914292E+01 -0.15046425763E+02  0.12307837932E+02  0.19670506444E+02  0.51100000000E-03 0.  1.
         12    1    3    3    0    0  0.37069317522E+01  0.28144927773E+01 -0.20480383588E+01  0.50849949585E+01  0.00000000000E+00 0. -1.
</event>
<event>
 7    1  0.2966651E-011  0.5052886E+02  0.7816164E-02  0.1300439E+00
        -11   -1    0    0    0    0  0.00000000000E+00  0.00000000000E+00  0.45593999997E+02  0.45594000000E+02  0.51100000000E-03 0. -1.
         11   -1    0    0    0    0 -0.00000000000E+00 -0.00000000000E+00 -0.45593999997E+02  0.45594000000E+02  0.51100000000E-03 0.  1.
    9900012    2    1    2    0    0  0.96209679146E+01  0.27227958657E+02 -0.28622383149E+02  0.50528861133E+02  0.30000003901E+02 0.  0.
         12    1    1    2    0    0 -0.96209679146E+01 -0.27227958657E+02  0.28622383149E+02  0.40659138867E+02  0.00000000000E+00 0. -1.
         11    1    3    3    0    0 -0.81216574347E+01 -0.28945762855E+00 -0.42104404214E+01  0.91527544492E+01  0.51100000000E-03 0. -1.
        -11    1    3    3    0    0  0.28997768241E+01  0.83816789303E+01 -0.91914590044E+01  0.12772790071E+02  0.51100000000E-03 0.  1.
         12    1    3    3    0    0  0.14842848525E+02  0.19135737356E+02 -0.15220483723E+02  0.28603316613E+02  0.00000000000E+00 0. -1.
</event>
<event>
 7    1  0.2966651E-011  0.5052885E+02  0.7816164E-02  0.1300439E+00
        -11   -1    0    0    0    0  0.00000000000E+00  0.00000000000E+00  0.45593999997E+02  0.45594000000E+02  0.51100000000E-03 0.  1.
         11   -1    0    0    0    0 -0.00000000000E+00 -0.00000000000E+00 -0.45593999997E+02  0.45594000000E+02  0.51100000000E-03 0. -1.
    9900012    2    1    2    0    0  0.23815025221E+02  0.55788867454E+01  0.32479024306E+02  0.50528850680E+02  0.29999972126E+02 0.  0.
         12    1    1    2    0    0 -0.23815025221E+02 -0.55788867454E+01 -0.32479024306E+02  0.40659149320E+02  0.00000000000E+00 0. -1.
         11    1    3    3    0    0  0.15369327499E+02  0.37913131892E+01  0.35261241767E+02  0.38651590584E+02  0.51100000000E-03 0.  1.
        -11    1    3    3    0    0  0.36719582554E+01  0.45343220412E+01 -0.25422835923E+01  0.63644764064E+01  0.51100000000E-03 0. -1.
         12    1    3    3    0    0  0.47737394672E+01 -0.27467484849E+01 -0.23993386936E+00  0.55127836890E+01  0.00000000000E+00 0. -1.
</event>
<event>
 7    1  0.2966651E-011  0.5052887E+02  0.7816164E-02  0.1300439E+00
        -11   -1    0    0    0    0  0.00000000000E+00  0.00000000000E+00  0.45593999997E+02  0.45594000000E+02  0.51100000000E-03 0. -1.
         11   -1    0    0    0    0 -0.00000000000E+00 -0.00000000000E+00 -0.45593999997E+02  0.45594000000E+02  0.51100000000E-03 0.  1.
    9900012    2    1    2    0    0 -0.28564983035E+02  0.14878915038E+02 -0.24815803645E+02  0.50528874590E+02  0.30000044804E+02 0.  0.
         12    1    1    2    0    0  0.28564983035E+02 -0.14878915038E+02  0.24815803645E+02  0.40659125410E+02  0.00000000000E+00 0. -1.
         11    1    3    3    0    0 -0.20779388406E+01 -0.27767094935E+01 -0.25119200379E+01  0.42822526753E+01  0.51100000000E-03 0. -1.
        -11    1    3    3    0    0 -0.21008106962E+01  0.15016562396E+02 -0.41189447132E+01  0.15712296381E+02  0.51100000000E-03 0.  1.
        -12    1    3    3    0    0 -0.24386233499E+02  0.26390621363E+01 -0.18184938894E+02  0.30534325534E+02  0.00000000000E+00 0.  1.
</event>
<event>
 7    1  0.2966651E-011  0.5052885E+02  0.7816164E-02  0.1300439E+00
        -11   -1    0    0    0    0  0.00000000000E+00  0.00000000000E+00  0.45593999997E+02  0.45594000000E+02  0.51100000000E-03 0. -1.
         11   -1    0    0    0    0 -0.00000000000E+00 -0.00000000000E+00 -0.45593999997E+02  0.45594000000E+02  0.51100000000E-03 0.  1.
    9900012    2    1    2    0    0 -0.30832868683E+02  0.25588238094E+02 -0.69095869380E+01  0.50528854514E+02  0.29999983780E+02 0.  0.
         12    1    1    2    0    0  0.30832868683E+02 -0.25588238094E+02  0.69095869380E+01  0.40659145486E+02  0.00000000000E+00 0. -1.
         11    1    3    3    0    0 -0.58575668942E+01 -0.55816578656E+01 -0.59905499562E+01  0.10067406989E+02  0.51100000000E-03 0. -1.
        -11    1    3    3    0    0 -0.17871951399E+02  0.17537354621E+02  0.29930767808E+00  0.25041067055E+02  0.51100000000E-03 0.  1.
        -12    1    3    3    0    0 -0.71033503904E+01  0.13632541338E+02 -0.12183446599E+01  0.15420380469E+02  0.00000000000E+00 0.  1.
</event>
<event>
 7    1  0.2966651E-011  0.5052888E+02  0.7816164E-02  0.1300439E+00
        -11   -1    0    0    0    0  0.00000000000E+00  0.00000000000E+00  0.45593999997E+02  0.45594000000E+02  0.51100000000E-03 0.  1.
         11   -1    0    0    0    0 -0.00000000000E+00 -0.00000000000E+00 -0.45593999997E+02  0.45594000000E+02  0.51100000000E-03 0. -1.
    9900012    2    1    2    0    0  0.34937258048E+02 -0.20796439600E+02 -0.24465109002E+00  0.50528883506E+02  0.30000071904E+02 0.  0.
         12    1    1    2    0    0 -0.34937258048E+02  0.20796439600E+02  0.24465109002E+00  0.40659116494E+02  0.00000000000E+00 0. -1.
         11    1    3    3    0    0  0.32234401128E+02 -0.67898948204E+01 -0.61124052317E+01  0.33504041335E+02  0.51100000000E-03 0. -1.
        -11    1    3    3    0    0 -0.82097180858E-01 -0.12078607251E+02  0.26780701648E+01  0.12372208903E+02  0.51100000000E-03 0.  1.
        -12    1    3    3    0    0  0.27849541005E+01 -0.19279375289E+01  0.31896839768E+01  0.46526332683E+01  0.00000000000E+00 0.  1.
</event>
<event>
 7    1  0.2966651E-011  0.5052886E+02  0.7816164E-02  0.1300439E+00
        -11   -1    0    0    0    0  0.00000000000E+00  0.00000000000E+00  0.45593999997E+02  0.45594000000E+02  0.51100000000E-03 0.  1.
         11   -1    0    0    0    0 -0.00000000000E+00 -0.00000000000E+00 -0.45593999997E+02  0.45594000000E+02  0.51100000000E-03 0. -1.
    9900012    2    1    2    0    0  0.21521006592E+02 -0.53571712762E+01  0.34078037205E+02  0.50528860455E+02  0.30000001838E+02 0.  0.
         12    1    1    2    0    0 -0.21521006592E+02  0.53571712762E+01 -0.34078037205E+02  0.40659139545E+02  0.00000000000E+00 0. -1.
         11    1    3    3    0    0 -0.32668104276E+01 -0.36398879577E+01  0.60280306607E+01  0.77626019235E+01  0.51100000000E-03 0. -1.
        -11    1    3    3    0    0  0.28143224898E+02 -0.32423159540E+01  0.22869120479E+02  0.36408108879E+02  0.51100000000E-03 0.  1.
        -12    1    3    3    0    0 -0.33554078789E+01  0.15250326356E+01  0.51808860653E+01  0.63581496518E+01  0.00000000000E+00 0.  1.
</event>
<event>
 7    1  0.2966651E-011  0.5052886E+02  0.7816164E-02  0.1300439E+00
        -11   -1    0    0    0    0  0.00000000000E+00  0.00000000000E+00  0.45593999997E+02  0.45594000000E+02  0.51100000000E-03 0. -1.
         11   -1    0    0    0    0 -0.00000000000E+00 -0.00000000000E+00 -0.45593999997E+02  0.45594000000E+02  0.51100000000E-03 0.  1.
    9900012    2    1    2    0    0 -0.34224532632E+02  0.12982754611E+02 -0.17700134134E+02  0.50528864501E+02  0.30000014138E+02 0.  0.
         12    1    1    2    0    0  0.34224532632E+02 -0.12982754611E+02  0.17700134134E+02  0.40659135499E+02  0.00000000000E+00 0. -1.
         11    1    3    3    0    0 -0.14824399674E+02 -0.57878969177E+01  0.12223503221E+01  0.15961100119E+02  0.51100000000E-03 0. -1.
        -11    1    3    3    0    0 -0.10428396453E+02  0.31150832065E+01 -0.69866544207E+01  0.12933233789E+02  0.51100000000E-03 0.  1.
         12    1    3    3    0    0 -0.89717365041E+01  0.15655568322E+02 -0.11935830035E+02  0.21634530594E+02  0.00000000000E+00 0. -1.
</event>
<event>
 7    1  0.2966651E-011  0.5052886E+02  0.7816164E-02  0.1300439E+00
        -11   -1    0    0    0    0  0.00000000000E+00  0.00000000000E+00  0.45593999997E+02  0.45594000000E+02  0.51100000000E-03 0.  1.
         11   -1    0    0    0    0 -0.00000000000E+00 -0.00000000000E+00 -0.45593999997E+02  0.45594000000E+02  0.51100000000E-03 0. -1.
    9900012    2    1    2    0    0 -0.21572962721E+02  0.17624859815E+02  0.29616503577E+02  0.50528859722E+02  0.29999999610E+02 0.  0.
         12    1    1    2    0    0  0.21572962721E+02 -0.17624859815E+02 -0.29616503577E+02  0.40659140278E+02  0.00000000000E+00 0. -1.
         11    1    3    3    0    0 -0.43007792405E+01  0.19598518522E+02  0.94109826898E+01  0.22162247760E+02  0.51100000000E-03 0. -1.
        -11    1    3    3    0    0 -0.17887120418E+02 -0.44915887354E+00  0.19772864764E+02  0.26666777116E+02  0.51100000000E-03 0.  1.
        -12    1    3    3    0    0  0.61493693770E+00 -0.15244998337E+01  0.43265612342E+00  0.16998348453E+01  0.00000000000E+00 0.  1.
</event>
<event>
 7    1  0.2966651E-011  0.5052886E+02  0.7816164E-02  0.1300439E+00
        -11   -1    0    0    0    0  0.00000000000E+00  0.00000000000E+00  0.45593999997E+02  0.45594000000E+02  0.51100000000E-03 0.  1.
         11   -1    0    0    0    0 -0.00000000000E+00 -0.00000000000E+00 -0.45593999997E+02  0.45594000000E+02  0.51100000000E-03 0. -1.
    9900012    2    1    2    0    0 -0.23889348725E+02 -0.31824878267E+02  0.83451595517E+01  0.50528861456E+02  0.30000004881E+02 0.  0.
         12    1    1    2    0    0  0.23889348725E+02  0.31824878267E+02 -0.83451595517E+01  0.40659138544E+02  0.00000000000E+00 0. -1.
         11    1    3    3    0    0 -0.10500414080E+02 -0.50950466837E+00 -0.58679497078E+01  0.12039564979E+02  0.51100000000E-03 0. -1.
        -11    1    3    3    0    0 -0.83013796241E+01 -0.11615706890E+02  0.11777289661E+01  0.14325662149E+02  0.51100000000E-03 0.  1.
         12    1    3    3    0    0 -0.50875550210E+01 -0.19699666709E+02  0.13035380293E+02  0.24163634328E+02  0.00000000000E+00 0. -1.
</event>
<event>
 7    1  0.2966651E-011  0.5052885E+02  0.7816164E-02  0.1300439E+00
        -11   -1    0    0    0    0  0.00000000000E+00  0.00000000000E+00  0.45593999997E+02  0.45594000000E+02  0.51100000000E-03 0. -1.
         11   -1    0    0    0    0 -0.00000000000E+00 -0.00000000000E+00 -0.45593999997E+02  0.45594000000E+02  0.51100000000E-03 0.  1.
    9900012    2    1    2    0    0 -0.35103630585E+01  0.26841620136E+02 -0.30337616942E+02  0.50528853156E+02  0.29999979654E+02 0.  0.
         12    1    1    2    0    0  0.35103630585E+01 -0.26841620136E+02  0.30337616942E+02  0.40659146844E+02  0.00000000000E+00 0. -1.
         11    1    3    3    0    0 -0.85327888081E+01 -0.75629766238E+00 -0.11274003443E+02  0.14159224022E+02  0.51100000000E-03 0. -1.
        -11    1    3    3    0    0  0.14864828534E+01  0.27378644040E+02 -0.16563678454E+02  0.32033657689E+02  0.51100000000E-03 0.  1.
        -12    1    3    3    0    0  0.35359428962E+01  0.21927375777E+00 -0.24999350445E+01  0.43359714451E+01  0.00000000000E+00 0.  1.
</event>
<event>
 7    1  0.2966651E-011  0.5052885E+02  0.7816164E-02  0.1300439E+00
        -11   -1    0    0    0    0  0.00000000000E+00  0.00000000000E+00  0.45593999997E+02  0.45594000000E+02  0.51100000000E-03 0.  1.
         11   -1    0    0    0    0 -0.00000000000E+00 -0.00000000000E+00 -0.45593999997E+02  0.45594000000E+02  0.51100000000E-03 0. -1.
    9900012    2    1    2    0    0  0.14538057148E+01  0.26271795039E+01  0.40548125158E+02  0.50528854940E+02  0.29999985075E+02 0.  0.
         12    1    1    2    0    0 -0.14538057148E+01 -0.26271795039E+01 -0.40548125158E+02  0.40659145060E+02  0.00000000000E+00 0. -1.
         11    1    3    3    0    0  0.61359805854E+01  0.77808335474E+01  0.41125246683E+01  0.10728675960E+02  0.51100000000E-03 0. -1.
        -11    1    3    3    0    0 -0.92322999777E+01 -0.31580529993E+01  0.15760888394E+02  0.18536835352E+02  0.51100000000E-03 0.  1.
        -12    1    3    3    0    0  0.45501251071E+01 -0.19956010442E+01  0.20674712096E+02  0.21263343628E+02  0.00000000000E+00 0.  1.
</event>
<event>
 7    1  0.2974166E-011  0.5052885E+02  0.7816164E-02  0.1300439E+00
        -11   -1    0    0    0    0  0.00000000000E+00  0.00000000000E+00  0.45593999997E+02  0.45594000000E+02  0.51100000000E-03 0.  1.
         11   -1    0    0    0    0 -0.00000000000E+00 -0.00000000000E+00 -0.45593999997E+02  0.45594000000E+02  0.51100000000E-03 0. -1.
    9900012    2    1    2    0    0  0.37044733572E+02  0.14711073810E+02  0.80273403986E+01  0.50528853772E+02  0.29999981526E+02 0.  0.
         12    1    1    2    0    0 -0.37044733572E+02 -0.14711073810E+02 -0.80273403986E+01  0.40659146228E+02  0.00000000000E+00 0. -1.
         11    1    3    3    0    0 -0.18518414592E+01 -0.19717984609E+01 -0.33175477947E+01  0.42805875288E+01  0.51100000000E-03 0. -1.
        -11    1    3    3    0    0  0.26547182765E+02  0.84145075616E+01  0.50525726155E+00  0.27853404378E+02  0.51100000000E-03 0.  1.
        -12    1    3    3    0    0  0.12349392267E+02  0.82683647096E+01  0.10839630932E+02  0.18394861866E+02  0.00000000000E+00 0.  1.
</event>
<event>
 7    1  0.2966651E-011  0.5052883E+02  0.7816164E-02  0.1300439E+00
        -11   -1    0    0    0    0  0.00000000000E+00  0.00000000000E+00  0.45593999997E+02  0.45594000000E+02  0.51100000000E-03 0.  1.
         11   -1    0    0    0    0 -0.00000000000E+00 -0.00000000000E+00 -0.45593999997E+02  0.45594000000E+02  0.51100000000E-03 0. -1.
    9900012    2    1    2    0    0  0.34473009590E+02  0.19156187327E+02  0.98904063889E+01  0.50528830780E+02  0.29999911638E+02 0.  0.
         12    1    1    2    0    0 -0.34473009590E+02 -0.19156187327E+02 -0.98904063889E+01  0.40659169220E+02  0.00000000000E+00 0. -1.
         11    1    3    3    0    0  0.15798114981E+02 -0.27539428871E+01  0.26499666857E+01  0.16253829151E+02  0.51100000000E-03 0. -1.
        -11    1    3    3    0    0  0.71735965294E+01  0.19534590353E+02  0.67658018439E+00  0.20821106321E+02  0.51100000000E-03 0.  1.
        -12    1    3    3    0    0  0.11501298080E+02  0.23755398608E+01  0.65638595188E+01  0.13453895307E+02  0.00000000000E+00 0.  1.
</event>
<event>
 7    1  0.2966651E-011  0.5052886E+02  0.7816164E-02  0.1300439E+00
        -11   -1    0    0    0    0  0.00000000000E+00  0.00000000000E+00  0.45593999997E+02  0.45594000000E+02  0.51100000000E-03 0. -1.
         11   -1    0    0    0    0 -0.00000000000E+00 -0.00000000000E+00 -0.45593999997E+02  0.45594000000E+02  0.51100000000E-03 0.  1.
    9900012    2    1    2    0    0  0.51430161823E+01 -0.15784621628E+02 -0.37115506445E+02  0.50528859403E+02  0.29999998641E+02 0.  0.
         12    1    1    2    0    0 -0.51430161823E+01  0.15784621628E+02  0.37115506445E+02  0.40659140597E+02  0.00000000000E+00 0. -1.
         11    1    3    3    0    0  0.44595157008E+01 -0.28095490481E+01 -0.27974433444E+02  0.28466643162E+02  0.51100000000E-03 0. -1.
        -11    1    3    3    0    0 -0.70548389262E+01 -0.82217540697E+01 -0.63682144961E+01  0.12566707937E+02  0.51100000000E-03 0.  1.
         12    1    3    3    0    0  0.77383394077E+01 -0.47533185104E+01 -0.27728585050E+01  0.94955083033E+01  0.00000000000E+00 0. -1.
</event>
<event>
 7    1  0.2966651E-011  0.5052885E+02  0.7816164E-02  0.1300439E+00
        -11   -1    0    0    0    0  0.00000000000E+00  0.00000000000E+00  0.45593999997E+02  0.45594000000E+02  0.51100000000E-03 0.  1.
         11   -1    0    0    0    0 -0.00000000000E+00 -0.00000000000E+00 -0.45593999997E+02  0.45594000000E+02  0.51100000000E-03 0. -1.
    9900012    2    1    2    0    0  0.36647955159E+02  0.16562047032E+02 -0.59826537099E+01  0.50528853862E+02  0.29999981799E+02 0.  0.
         12    1    1    2    0    0 -0.36647955159E+02 -0.16562047032E+02  0.59826537099E+01  0.40659146138E+02  0.00000000000E+00 0. -1.
         11    1    3    3    0    0  0.80948806787E-03  0.78214535378E+00 -0.14938268058E+01  0.16862001057E+01  0.51100000000E-03 0. -1.
        -11    1    3    3    0    0  0.70269057662E+01 -0.78399147525E+01 -0.29193999537E+01  0.10925409115E+02  0.51100000000E-03 0.  1.
        -12    1    3    3    0    0  0.29620239905E+02  0.23619816431E+02 -0.15694269505E+01  0.37917244642E+02  0.00000000000E+00 0.  1.
</event>
<event>
 7    1  0.2966651E-011  0.5052886E+02  0.7816164E-02  0.1300439E+00
        -11   -1    0    0    0    0  0.00000000000E+00  0.00000000000E+00  0.45593999997E+02  0.45594000000E+02  0.51100000000E-03 0. -1.
         11   -1    0    0    0    0 -0.00000000000E+00 -0.00000000000E+00 -0.45593999997E+02  0.45594000000E+02  0.51100000000E-03 0.  1.
    9900012    2    1    2    0    0  0.13742981480E+02  0.11746728115E+02 -0.36418545300E+02  0.50528860768E+02  0.30000002789E+02 0.  0.
         12    1    1    2    0    0 -0.13742981480E+02 -0.11746728115E+02  0.36418545300E+02  0.40659139232E+02  0.00000000000E+00 0. -1.
         11    1    3    3    0    0  0.16881334651E+02  0.64392940911E+01 -0.15487936398E+02  0.23797481844E+02  0.51100000000E-03 0.  1.
        -11    1    3    3    0    0 -0.79304112779E+01  0.71820011354E+01 -0.17615927243E+02  0.20610518097E+02  0.51100000000E-03 0. -1.
         12    1    3    3    0    0  0.47920581069E+01 -0.18745671114E+01 -0.33146816591E+01  0.61208608264E+01  0.00000000000E+00 0. -1.
</event>
<event>
 7    1  0.2966651E-011  0.5052885E+02  0.7816164E-02  0.1300439E+00
        -11   -1    0    0    0    0  0.00000000000E+00  0.00000000000E+00  0.45593999997E+02  0.45594000000E+02  0.51100000000E-03 0. -1.
         11   -1    0    0    0    0 -0.00000000000E+00 -0.00000000000E+00 -0.45593999997E+02  0.45594000000E+02  0.51100000000E-03 0.  1.
    9900012    2    1    2    0    0  0.40461213039E+02 -0.16069785828E+01  0.36707173279E+01  0.50528852119E+02  0.29999976499E+02 0.  0.
         12    1    1    2    0    0 -0.40461213039E+02  0.16069785828E+01 -0.36707173279E+01  0.40659147881E+02  0.00000000000E+00 0. -1.
         11    1    3    3    0    0  0.87196505358E+00 -0.52111946409E+01  0.63187366537E+01  0.82367047902E+01  0.51100000000E-03 0. -1.
        -11    1    3    3    0    0  0.23867773146E+02  0.91112862929E+01 -0.18626768980E+01  0.25615536269E+02  0.51100000000E-03 0.  1.
        -12    1    3    3    0    0  0.15721474840E+02 -0.55070702348E+01 -0.78534242779E+00  0.16676611060E+02  0.00000000000E+00 0.  1.
</event>
<event>
 7    1  0.2966651E-011  0.5052886E+02  0.7816164E-02  0.1300439E+00
        -11   -1    0    0    0    0  0.00000000000E+00  0.00000000000E+00  0.45593999997E+02  0.45594000000E+02  0.51100000000E-03 0.  1.
         11   -1    0    0    0    0 -0.00000000000E+00 -0.00000000000E+00 -0.45593999997E+02  0.45594000000E+02  0.51100000000E-03 0. -1.
    9900012    2    1    2    0    0 -0.35949646210E+02  0.16367406041E+02  0.96382976501E+01  0.50528858042E+02  0.29999994505E+02 0.  0.
         12    1    1    2    0    0  0.35949646210E+02 -0.16367406041E+02 -0.96382976501E+01  0.40659141958E+02  0.00000000000E+00 0. -1.
         11    1    3    3    0    0  0.11554078503E+01  0.46192273639E+01  0.41163847781E+01  0.62941919769E+01  0.51100000000E-03 0. -1.
        -11    1    3    3    0    0 -0.20354438548E+02  0.38642968828E+00 -0.56342216528E+01  0.21123374503E+02  0.51100000000E-03 0.  1.
        -12    1    3    3    0    0 -0.16750615513E+02  0.11361748989E+02  0.11156134525E+02  0.23111291562E+02  0.00000000000E+00 0.  1.
</event>
<event>
 7    1  0.2966651E-011  0.5052886E+02  0.7816164E-02  0.1300439E+00
        -11   -1    0    0    0    0  0.00000000000E+00  0.00000000000E+00  0.45593999997E+02  0.45594000000E+02  0.51100000000E-03 0.  1.
         11   -1    0    0    0    0 -0.00000000000E+00 -0.00000000000E+00 -0.45593999997E+02  0.45594000000E+02  0.51100000000E-03 0. -1.
    9900012    2    1    2    0    0  0.16904717684E+02 -0.78603551944E+01  0.36133240876E+02  0.50528858839E+02  0.29999996926E+02 0.  0.
         12    1    1    2    0    0 -0.16904717684E+02  0.78603551944E+01 -0.36133240876E+02  0.40659141161E+02  0.00000000000E+00 0. -1.
         11    1    3    3    0    0  0.69727952141E+00  0.48141895751E+00 -0.31167078805E+01  0.32298345495E+01  0.51100000000E-03 0. -1.
        -11    1    3    3    0    0  0.19459719518E+02 -0.99067664071E+01  0.37234534442E+02  0.43165208904E+02  0.51100000000E-03 0.  1.
        -12    1    3    3    0    0 -0.32522813557E+01  0.15649922552E+01  0.20154143148E+01  0.41338153848E+01  0.00000000000E+00 0.  1.
</event>
<event>
 7    1  0.2966651E-011  0.5052886E+02  0.7816164E-02  0.1300439E+00
        -11   -1    0    0    0    0  0.00000000000E+00  0.00000000000E+00  0.45593999997E+02  0.45594000000E+02  0.51100000000E-03 0.  1.
         11   -1    0    0    0    0 -0.00000000000E+00 -0.00000000000E+00 -0.45593999997E+02  0.45594000000E+02  0.51100000000E-03 0. -1.
    9900012    2    1    2    0    0  0.44504189776E+01  0.35297180585E+02  0.19684213087E+02  0.50528862882E+02  0.30000009216E+02 0.  0.
         12    1    1    2    0    0 -0.44504189776E+01 -0.35297180585E+02 -0.19684213087E+02  0.40659137118E+02  0.00000000000E+00 0. -1.
         11    1    3    3    0    0 -0.48936158946E+01  0.23862627445E+01  0.10046078811E+02  0.11426522925E+02  0.51100000000E-03 0. -1.
        -11    1    3    3    0    0  0.89297409123E+01  0.19982461404E+02 -0.16299430954E+01  0.21947568232E+02  0.51100000000E-03 0.  1.
        -12    1    3    3    0    0  0.41429395982E+00  0.12928456437E+02  0.11268077371E+02  0.17154771726E+02  0.00000000000E+00 0.  1.
</event>
<event>
 7    1  0.2966651E-011  0.5052889E+02  0.7816164E-02  0.1300439E+00
        -11   -1    0    0    0    0  0.00000000000E+00  0.00000000000E+00  0.45593999997E+02  0.45594000000E+02  0.51100000000E-03 0.  1.
         11   -1    0    0    0    0 -0.00000000000E+00 -0.00000000000E+00 -0.45593999997E+02  0.45594000000E+02  0.51100000000E-03 0. -1.
    9900012    2    1    2    0    0 -0.14141614058E+02  0.37808793777E+02  0.48654647351E+01  0.50528894228E+02  0.30000104496E+02 0.  0.
         12    1    1    2    0    0  0.14141614058E+02 -0.37808793777E+02 -0.48654647351E+01  0.40659105772E+02  0.00000000000E+00 0. -1.
         11    1    3    3    0    0 -0.13920750220E+02  0.23629503677E+02  0.10107116456E+02  0.29228317331E+02  0.51100000000E-03 0. -1.
        -11    1    3    3    0    0  0.54544773621E+01  0.46455441990E+01  0.26995475059E+01  0.76563673629E+01  0.51100000000E-03 0.  1.
         12    1    3    3    0    0 -0.56753412004E+01  0.95337459013E+01 -0.79411992268E+01  0.13644209534E+02  0.00000000000E+00 0. -1.
</event>
<event>
 7    1  0.2966651E-011  0.5052886E+02  0.7816164E-02  0.1300439E+00
        -11   -1    0    0    0    0  0.00000000000E+00  0.00000000000E+00  0.45593999997E+02  0.45594000000E+02  0.51100000000E-03 0.  1.
         11   -1    0    0    0    0 -0.00000000000E+00 -0.00000000000E+00 -0.45593999997E+02  0.45594000000E+02  0.51100000000E-03 0. -1.
    9900012    2    1    2    0    0 -0.24305289802E+01 -0.16185052304E+02  0.37219644830E+02  0.50528863874E+02  0.30000012233E+02 0.  0.
         12    1    1    2    0    0  0.24305289802E+01  0.16185052304E+02 -0.37219644830E+02  0.40659136126E+02  0.00000000000E+00 0. -1.
         11    1    3    3    0    0  0.11939459818E+01 -0.45859225591E+01 -0.97078214899E+00  0.48372110733E+01  0.51100000000E-03 0. -1.
        -11    1    3    3    0    0  0.68487563694E+01 -0.67741672053E+01  0.30103912481E+02  0.31607599594E+02  0.51100000000E-03 0.  1.
         12    1    3    3    0    0 -0.10473231331E+02 -0.48249625399E+01  0.80865144975E+01  0.14084053207E+02  0.00000000000E+00 0. -1.
</event>
<event>
 7    1  0.2966651E-011  0.5052886E+02  0.7816164E-02  0.1300439E+00
        -11   -1    0    0    0    0  0.00000000000E+00  0.00000000000E+00  0.45593999997E+02  0.45594000000E+02  0.51100000000E-03 0.  1.
         11   -1    0    0    0    0 -0.00000000000E+00 -0.00000000000E+00 -0.45593999997E+02  0.45594000000E+02  0.51100000000E-03 0. -1.
    9900012    2    1    2    0    0  0.30383296053E+02 -0.24335886008E+02  0.11738195623E+02  0.50528864946E+02  0.30000015490E+02 0.  0.
         12    1    1    2    0    0 -0.30383296053E+02  0.24335886008E+02 -0.11738195623E+02  0.40659135054E+02  0.00000000000E+00 0. -1.
         11    1    3    3    0    0  0.43788822821E+01 -0.21945645569E+02  0.44037546934E+01  0.22807433550E+02  0.51100000000E-03 0. -1.
        -11    1    3    3    0    0  0.21533994650E+02 -0.25377086605E+01  0.81701202078E+01  0.23171183727E+02  0.51100000000E-03 0.  1.
         12    1    3    3    0    0  0.44704191207E+01  0.14746822133E+00 -0.83567927790E+00  0.45502476687E+01  0.00000000000E+00 0. -1.
</event>
<event>
 7    1  0.2966651E-011  0.5052887E+02  0.7816164E-02  0.1300439E+00
        -11   -1    0    0    0    0  0.00000000000E+00  0.00000000000E+00  0.45593999997E+02  0.45594000000E+02  0.51100000000E-03 0.  1.
         11   -1    0    0    0    0 -0.00000000000E+00 -0.00000000000E+00 -0.45593999997E+02  0.45594000000E+02  0.51100000000E-03 0. -1.
    9900012    2    1    2    0    0  0.67825408502E+01  0.35762512485E+02  0.18116424245E+02  0.50528868344E+02  0.30000025817E+02 0.  0.
         12    1    1    2    0    0 -0.67825408502E+01 -0.35762512485E+02 -0.18116424245E+02  0.40659131656E+02  0.00000000000E+00 0. -1.
         11    1    3    3    0    0  0.91405151421E+01  0.95493856823E+00 -0.19753736191E+01  0.94001609523E+01  0.51100000000E-03 0. -1.
        -11    1    3    3    0    0 -0.15332245101E+01  0.14233677072E+02  0.13038723748E+02  0.19363797604E+02  0.51100000000E-03 0.  1.
         12    1    3    3    0    0 -0.82474978183E+00  0.20573896845E+02  0.70530741156E+01  0.21764909788E+02  0.00000000000E+00 0. -1.
</event>
<event>
 7    1  0.2966651E-011  0.5052886E+02  0.7816164E-02  0.1300439E+00
        -11   -1    0    0    0    0  0.00000000000E+00  0.00000000000E+00  0.45593999997E+02  0.45594000000E+02  0.51100000000E-03 0. -1.
         11   -1    0    0    0    0 -0.00000000000E+00 -0.00000000000E+00 -0.45593999997E+02  0.45594000000E+02  0.51100000000E-03 0.  1.
    9900012    2    1    2    0    0 -0.15754273413E+02  0.33409916041E+02 -0.16992521546E+02  0.50528863153E+02  0.30000010041E+02 0.  0.
         12    1    1    2    0    0  0.15754273413E+02 -0.33409916041E+02  0.16992521546E+02  0.40659136847E+02  0.00000000000E+00 0. -1.
         11    1    3    3    0    0 -0.62839451188E+00  0.94891166609E+01  0.60417068788E+01  0.11266784676E+02  0.51100000000E-03 0. -1.
        -11    1    3    3    0    0 -0.65000635245E-01  0.12600669226E+02 -0.12144694701E+02  0.17500705691E+02  0.51100000000E-03 0.  1.
         12    1    3    3    0    0 -0.15060878266E+02  0.11320130154E+02 -0.10889533724E+02  0.21761372787E+02  0.00000000000E+00 0. -1.
</event>
<event>
 7    1  0.2966651E-011  0.5052887E+02  0.7816164E-02  0.1300439E+00
        -11   -1    0    0    0    0  0.00000000000E+00  0.00000000000E+00  0.45593999997E+02  0.45594000000E+02  0.51100000000E-03 0.  1.
         11   -1    0    0    0    0 -0.00000000000E+00 -0.00000000000E+00 -0.45593999997E+02  0.45594000000E+02  0.51100000000E-03 0. -1.
    9900012    2    1    2    0    0  0.11255867577E+02  0.23226865627E+02  0.31416281158E+02  0.50528873551E+02  0.30000041645E+02 0.  0.
         12    1    1    2    0    0 -0.11255867577E+02 -0.23226865627E+02 -0.31416281158E+02  0.40659126449E+02  0.00000000000E+00 0. -1.
         11    1    3    3    0    0  0.15041222196E+02  0.14696721369E+01  0.11318872807E+02  0.18881609657E+02  0.51100000000E-03 0. -1.
        -11    1    3    3    0    0 -0.35799723801E+01  0.97805881552E+01  0.15794749574E+02  0.18919572439E+02  0.51100000000E-03 0.  1.
         12    1    3    3    0    0 -0.20538223904E+00  0.11976605335E+02  0.43026587768E+01  0.12727691455E+02  0.00000000000E+00 0. -1.
</event>
<event>
 7    1  0.2966651E-011  0.5052885E+02  0.7816164E-02  0.1300439E+00
        -11   -1    0    0    0    0  0.00000000000E+00  0.00000000000E+00  0.45593999997E+02  0.45594000000E+02  0.51100000000E-03 0. -1.
         11   -1    0    0    0    0 -0.00000000000E+00 -0.00000000000E+00 -0.45593999997E+02  0.45594000000E+02  0.51100000000E-03 0.  1.
    9900012    2    1    2    0    0 -0.13488517968E+02 -0.27453152626E+02 -0.26787132534E+02  0.50528853729E+02  0.29999981395E+02 0.  0.
         12    1    1    2    0    0  0.13488517968E+02  0.27453152626E+02  0.26787132534E+02  0.40659146271E+02  0.00000000000E+00 0. -1.
         11    1    3    3    0    0 -0.10342339893E+02 -0.46814430899E+01 -0.29394991322E+01  0.11726916017E+02  0.51100000000E-03 0. -1.
        -11    1    3    3    0    0  0.79181986510E+01 -0.14053891580E+02 -0.15795587541E+02  0.22576765146E+02  0.51100000000E-03 0.  1.
        -12    1    3    3    0    0 -0.11064376726E+02 -0.87178179558E+01 -0.80520458615E+01  0.16225172566E+02  0.00000000000E+00 0.  1.
</event>
<event>
 7    1  0.2966651E-011  0.5052885E+02  0.7816164E-02  0.1300439E+00
        -11   -1    0    0    0    0  0.00000000000E+00  0.00000000000E+00  0.45593999997E+02  0.45594000000E+02  0.51100000000E-03 0. -1.
         11   -1    0    0    0    0 -0.00000000000E+00 -0.00000000000E+00 -0.45593999997E+02  0.45594000000E+02  0.51100000000E-03 0.  1.
    9900012    2    1    2    0    0  0.82722674075E+01  0.28490617581E+02 -0.27803258259E+02  0.50528845213E+02  0.29999955509E+02 0.  0.
         12    1    1    2    0    0 -0.82722674075E+01 -0.28490617581E+02  0.27803258259E+02  0.40659154787E+02  0.00000000000E+00 0. -1.
         11    1    3    3    0    0  0.16847257677E+01  0.34011166121E+01 -0.12642141966E+02  0.13199607906E+02  0.51100000000E-03 0. -1.
        -11    1    3    3    0    0  0.49648248357E-01  0.22821847267E+02 -0.25756586481E+01  0.22966784611E+02  0.51100000000E-03 0.  1.
        -12    1    3    3    0    0  0.65378933914E+01  0.22676537013E+01 -0.12585457645E+02  0.14362452696E+02  0.00000000000E+00 0.  1.
</event>
<event>
 7    1  0.2966651E-011  0.5052888E+02  0.7816164E-02  0.1300439E+00
        -11   -1    0    0    0    0  0.00000000000E+00  0.00000000000E+00  0.45593999997E+02  0.45594000000E+02  0.51100000000E-03 0.  1.
         11   -1    0    0    0    0 -0.00000000000E+00 -0.00000000000E+00 -0.45593999997E+02  0.45594000000E+02  0.51100000000E-03 0. -1.
    9900012    2    1    2    0    0  0.29781171590E+02  0.22559667792E+02  0.16040803770E+02  0.50528878296E+02  0.30000056067E+02 0.  0.
         12    1    1    2    0    0 -0.29781171590E+02 -0.22559667792E+02 -0.16040803770E+02  0.40659121704E+02  0.00000000000E+00 0. -1.
         11    1    3    3    0    0  0.33727934829E+01  0.36379515661E+01  0.82402797763E+01  0.96183490542E+01  0.51100000000E-03 0. -1.
        -11    1    3    3    0    0  0.11239301456E+02  0.18985765762E+01 -0.73244998997E+01  0.13548977426E+02  0.51100000000E-03 0.  1.
        -12    1    3    3    0    0  0.15169076651E+02  0.17023139650E+02  0.15125023893E+02  0.27361551816E+02  0.00000000000E+00 0.  1.
</event>
<event>
 7    1  0.2966651E-011  0.5052886E+02  0.7816164E-02  0.1300439E+00
        -11   -1    0    0    0    0  0.00000000000E+00  0.00000000000E+00  0.45593999997E+02  0.45594000000E+02  0.51100000000E-03 0. -1.
         11   -1    0    0    0    0 -0.00000000000E+00 -0.00000000000E+00 -0.45593999997E+02  0.45594000000E+02  0.51100000000E-03 0.  1.
    9900012    2    1    2    0    0  0.29966089124E+02  0.19627915029E+02 -0.19233937669E+02  0.50528857067E+02  0.29999991540E+02 0.  0.
         12    1    1    2    0    0 -0.29966089124E+02 -0.19627915029E+02  0.19233937669E+02  0.40659142933E+02  0.00000000000E+00 0. -1.
         11    1    3    3    0    0  0.30124269525E+01  0.64216856554E+01  0.39185851024E+01  0.81035839149E+01  0.51100000000E-03 0. -1.
        -11    1    3    3    0    0  0.25089641161E+02  0.59538544918E+01 -0.10749780094E+02  0.27937362962E+02  0.51100000000E-03 0.  1.
         12    1    3    3    0    0  0.18640210105E+01  0.72523748818E+01 -0.12402742678E+02  0.14487910190E+02  0.00000000000E+00 0. -1.
</event>
<event>
 7    1  0.2966651E-011  0.5052886E+02  0.7816164E-02  0.1300439E+00
        -11   -1    0    0    0    0  0.00000000000E+00  0.00000000000E+00  0.45593999997E+02  0.45594000000E+02  0.51100000000E-03 0.  1.
         11   -1    0    0    0    0 -0.00000000000E+00 -0.00000000000E+00 -0.45593999997E+02  0.45594000000E+02  0.51100000000E-03 0. -1.
    9900012    2    1    2    0    0 -0.35958079867E+02 -0.17047186157E+02 -0.83411828699E+01  0.50528863324E+02  0.30000010560E+02 0.  0.
         12    1    1    2    0    0  0.35958079867E+02  0.17047186157E+02  0.83411828699E+01  0.40659136676E+02  0.00000000000E+00 0. -1.
         11    1    3    3    0    0 -0.24216056839E+02 -0.16778308549E+02 -0.91420591212E+01  0.30846495617E+02  0.51100000000E-03 0. -1.
        -11    1    3    3    0    0  0.30773446483E+01 -0.32371554534E+01 -0.58790616696E+00  0.45049816244E+01  0.51100000000E-03 0.  1.
         12    1    3    3    0    0 -0.14819367676E+02  0.29682778462E+01  0.13887824183E+01  0.15177386083E+02  0.00000000000E+00 0. -1.
</event>
<event>
 7    1  0.2966651E-011  0.5052886E+02  0.7816164E-02  0.1300439E+00
        -11   -1    0    0    0    0  0.00000000000E+00  0.00000000000E+00  0.45593999997E+02  0.45594000000E+02  0.51100000000E-03 0.  1.
         11   -1    0    0    0    0 -0.00000000000E+00 -0.00000000000E+00 -0.45593999997E+02  0.45594000000E+02  0.51100000000E-03 0. -1.
    9900012    2    1    2    0    0 -0.38279553233E+02 -0.24406237028E+01  0.13486473982E+02  0.50528858097E+02  0.29999994673E+02 0.  0.
         12    1    1    2    0    0  0.38279553233E+02  0.24406237028E+01 -0.13486473982E+02  0.40659141903E+02  0.00000000000E+00 0. -1.
         11    1    3    3    0    0 -0.12132810895E+02 -0.42228097367E+01 -0.48907046804E+01  0.13746134541E+02  0.51100000000E-03 0. -1.
        -11    1    3    3    0    0 -0.13562781273E+02  0.32388518256E+00  0.19835109788E+02  0.24030928364E+02  0.51100000000E-03 0.  1.
        -12    1    3    3    0    0 -0.12583961065E+02  0.14583008513E+01 -0.14579311258E+01  0.12751795193E+02  0.00000000000E+00 0.  1.
</event>
<event>
 7    1  0.2966651E-011  0.5052887E+02  0.7816164E-02  0.1300439E+00
        -11   -1    0    0    0    0  0.00000000000E+00  0.00000000000E+00  0.45593999997E+02  0.45594000000E+02  0.51100000000E-03 0. -1.
         11   -1    0    0    0    0 -0.00000000000E+00 -0.00000000000E+00 -0.45593999997E+02  0.45594000000E+02  0.51100000000E-03 0.  1.
    9900012    2    1    2    0    0 -0.40187102229E+02 -0.57136032801E+01  0.23487393560E+01  0.50528867882E+02  0.30000024414E+02 0.  0.
         12    1    1    2    0    0  0.40187102229E+02  0.57136032801E+01 -0.23487393560E+01  0.40659132118E+02  0.00000000000E+00 0. -1.
         11    1    3    3    0    0  0.17592702382E+01 -0.50660922489E+01  0.38985265213E+01  0.66301456805E+01  0.51100000000E-03 0. -1.
        -11    1    3    3    0    0 -0.25687711617E+02  0.56196785523E+01 -0.27152171771E+01  0.26435047186E+02  0.51100000000E-03 0.  1.
         12    1    3    3    0    0 -0.16258660851E+02 -0.62671895835E+01  0.11654300117E+01  0.17463675015E+02  0.00000000000E+00 0. -1.
</event>
<event>
 7    1  0.2966651E-011  0.5052887E+02  0.7816164E-02  0.1300439E+00
        -11   -1    0    0    0    0  0.00000000000E+00  0.00000000000E+00  0.45593999997E+02  0.45594000000E+02  0.51100000000E-03 0.  1.
         11   -1    0    0    0    0 -0.00000000000E+00 -0.00000000000E+00 -0.45593999997E+02  0.45594000000E+02  0.51100000000E-03 0. -1.
    9900012    2    1    2    0    0  0.38865564650E+02  0.11787178891E+02 -0.19222330307E+01  0.50528872100E+02  0.30000037235E+02 0.  0.
         12    1    1    2    0    0 -0.38865564650E+02 -0.11787178891E+02  0.19222330307E+01  0.40659127900E+02  0.00000000000E+00 0. -1.
         11    1    3    3    0    0 -0.26925584242E+01  0.94118565301E+00 -0.62986190251E+00  0.29210319372E+01  0.51100000000E-03 0. -1.
        -11    1    3    3    0    0  0.43605618376E+02  0.11131500849E+02 -0.27348565065E+01  0.45087023693E+02  0.51100000000E-03 0.  1.
        -12    1    3    3    0    0 -0.20474953021E+01 -0.28550761095E+00  0.14424853784E+01  0.25208164699E+01  0.00000000000E+00 0.  1.
</event>
<event>
 7    1  0.2966651E-011  0.5052886E+02  0.7816164E-02  0.1300439E+00
        -11   -1    0    0    0    0  0.00000000000E+00  0.00000000000E+00  0.45593999997E+02  0.45594000000E+02  0.51100000000E-03 0.  1.
         11   -1    0    0    0    0 -0.00000000000E+00 -0.00000000000E+00 -0.45593999997E+02  0.45594000000E+02  0.51100000000E-03 0. -1.
    9900012    2    1    2    0    0  0.45873393703E+01 -0.30879337329E+02  0.26049737186E+02  0.50528856331E+02  0.29999989305E+02 0.  0.
         12    1    1    2    0    0 -0.45873393703E+01  0.30879337329E+02 -0.26049737186E+02  0.40659143669E+02  0.00000000000E+00 0. -1.
         11    1    3    3    0    0  0.53200367958E+01  0.24595241778E+01 -0.75285580383E-01  0.58615457748E+01  0.51100000000E-03 0. -1.
        -11    1    3    3    0    0 -0.72829777322E+01 -0.16507934710E+02  0.14923123335E+02  0.23414809061E+02  0.51100000000E-03 0.  1.
         12    1    3    3    0    0  0.65502803066E+01 -0.16830926797E+02  0.11201899431E+02  0.21252501496E+02  0.00000000000E+00 0. -1.
</event>
<event>
 7    1  0.2966651E-011  0.5052887E+02  0.7816164E-02  0.1300439E+00
        -11   -1    0    0    0    0  0.00000000000E+00  0.00000000000E+00  0.45593999997E+02  0.45594000000E+02  0.51100000000E-03 0. -1.
         11   -1    0    0    0    0 -0.00000000000E+00 -0.00000000000E+00 -0.45593999997E+02  0.45594000000E+02  0.51100000000E-03 0.  1.
    9900012    2    1    2    0    0  0.28204309669E+02 -0.15950173286E+02 -0.24561635337E+02  0.50528867665E+02  0.30000023756E+02 0.  0.
         12    1    1    2    0    0 -0.28204309669E+02  0.15950173286E+02  0.24561635337E+02  0.40659132335E+02  0.00000000000E+00 0. -1.
         11    1    3    3    0    0  0.49428334545E+01  0.56630093270E+01  0.33426174891E+01  0.82264432859E+01  0.51100000000E-03 0. -1.
        -11    1    3    3    0    0  0.12906263723E+02 -0.11485813088E+02 -0.16129425708E+02  0.23635860879E+02  0.51100000000E-03 0.  1.
         12    1    3    3    0    0  0.10355212492E+02 -0.10127369525E+02 -0.11774827118E+02  0.18666563500E+02  0.00000000000E+00 0. -1.
</event>
<event>
 7    1  0.2966651E-011  0.5052891E+02  0.7816164E-02  0.1300439E+00
        -11   -1    0    0    0    0  0.00000000000E+00  0.00000000000E+00  0.45593999997E+02  0.45594000000E+02  0.51100000000E-03 0. -1.
         11   -1    0    0    0    0 -0.00000000000E+00 -0.00000000000E+00 -0.45593999997E+02  0.45594000000E+02  0.51100000000E-03 0.  1.
    9900012    2    1    2    0    0  0.32085688606E+02  0.22805169383E+02  0.10178124668E+02  0.50528912631E+02  0.30000160433E+02 0.  0.
         12    1    1    2    0    0 -0.32085688606E+02 -0.22805169383E+02 -0.10178124668E+02  0.40659087369E+02  0.00000000000E+00 0. -1.
         11    1    3    3    0    0 -0.76243655869E+00  0.35923580355E+01  0.70846767291E+01  0.79799116774E+01  0.51100000000E-03 0. -1.
        -11    1    3    3    0    0  0.28977802941E+02  0.22414099037E+02  0.53846897559E+01  0.37028364573E+02  0.51100000000E-03 0.  1.
        -12    1    3    3    0    0  0.38703222237E+01 -0.32012876894E+01 -0.22912418171E+01  0.55206363809E+01  0.00000000000E+00 0.  1.
</event>
<event>
 7    1  0.2966651E-011  0.5052886E+02  0.7816164E-02  0.1300439E+00
        -11   -1    0    0    0    0  0.00000000000E+00  0.00000000000E+00  0.45593999997E+02  0.45594000000E+02  0.51100000000E-03 0.  1.
         11   -1    0    0    0    0 -0.00000000000E+00 -0.00000000000E+00 -0.45593999997E+02  0.45594000000E+02  0.51100000000E-03 0. -1.
    9900012    2    1    2    0    0 -0.31909449278E+02 -0.46080214338E+01  0.24773355491E+02  0.50528856415E+02  0.29999989560E+02 0.  0.
         12    1    1    2    0    0  0.31909449278E+02  0.46080214338E+01 -0.24773355491E+02  0.40659143585E+02  0.00000000000E+00 0. -1.
         11    1    3    3    0    0 -0.87968530768E+01 -0.12108751528E+01 -0.60796990984E+01  0.10761671993E+02  0.51100000000E-03 0. -1.
        -11    1    3    3    0    0 -0.14122752943E+02  0.10969551837E+01  0.12735437714E+02  0.19048538930E+02  0.51100000000E-03 0.  1.
         12    1    3    3    0    0 -0.89898432584E+01 -0.44941014647E+01  0.18117616875E+02  0.20718645492E+02  0.00000000000E+00 0. -1.
</event>
<event>
 7    1  0.2966651E-011  0.5052886E+02  0.7816164E-02  0.1300439E+00
        -11   -1    0    0    0    0  0.00000000000E+00  0.00000000000E+00  0.45593999997E+02  0.45594000000E+02  0.51100000000E-03 0.  1.
         11   -1    0    0    0    0 -0.00000000000E+00 -0.00000000000E+00 -0.45593999997E+02  0.45594000000E+02  0.51100000000E-03 0. -1.
    9900012    2    1    2    0    0 -0.33827495894E+02  0.10910057377E+02  0.19744281531E+02  0.50528862237E+02  0.30000007257E+02 0.  0.
         12    1    1    2    0    0  0.33827495894E+02 -0.10910057377E+02 -0.19744281531E+02  0.40659137763E+02  0.00000000000E+00 0. -1.
         11    1    3    3    0    0  0.84094386077E+00 -0.54645974614E+01  0.29687021213E+01  0.62755242441E+01  0.51100000000E-03 0. -1.
        -11    1    3    3    0    0 -0.26868890688E+02  0.99734976502E+01  0.18364321664E+02  0.34039040125E+02  0.51100000000E-03 0.  1.
        -12    1    3    3    0    0 -0.77995490668E+01  0.64011571885E+01 -0.15887422540E+01  0.10214297869E+02  0.00000000000E+00 0.  1.
</event>
<event>
 7    1  0.2966651E-011  0.5052886E+02  0.7816164E-02  0.1300439E+00
        -11   -1    0    0    0    0  0.00000000000E+00  0.00000000000E+00  0.45593999997E+02  0.45594000000E+02  0.51100000000E-03 0. -1.
         11   -1    0    0    0    0 -0.00000000000E+00 -0.00000000000E+00 -0.45593999997E+02  0.45594000000E+02  0.51100000000E-03 0.  1.
    9900012    2    1    2    0    0  0.12079776621E+02 -0.34993119731E+02 -0.16814460757E+02  0.50528861762E+02  0.30000005813E+02 0.  0.
         12    1    1    2    0    0 -0.12079776621E+02  0.34993119731E+02  0.16814460757E+02  0.40659138238E+02  0.00000000000E+00 0. -1.
         11    1    3    3    0    0 -0.36748091225E+01  0.30273414389E+00  0.31261614932E+01  0.48341241183E+01  0.51100000000E-03 0. -1.
        -11    1    3    3    0    0  0.10386977495E+02 -0.33435988592E+02 -0.19296571544E+02  0.39977647607E+02  0.51100000000E-03 0.  1.
         12    1    3    3    0    0  0.53676082481E+01 -0.18598652826E+01 -0.64405070621E+00  0.57170900366E+01  0.00000000000E+00 0. -1.
</event>
<event>
 7    1  0.2966651E-011  0.5052885E+02  0.7816164E-02  0.1300439E+00
        -11   -1    0    0    0    0  0.00000000000E+00  0.00000000000E+00  0.45593999997E+02  0.45594000000E+02  0.51100000000E-03 0.  1.
         11   -1    0    0    0    0 -0.00000000000E+00 -0.00000000000E+00 -0.45593999997E+02  0.45594000000E+02  0.51100000000E-03 0. -1.
    9900012    2    1    2    0    0 -0.31531048655E+02 -0.21461189294E+02  0.14084623107E+02  0.50528852404E+02  0.29999977367E+02 0.  0.
         12    1    1    2    0    0  0.31531048655E+02  0.21461189294E+02 -0.14084623107E+02  0.40659147596E+02  0.00000000000E+00 0. -1.
         11    1    3    3    0    0 -0.34455955148E+02 -0.19385779809E+02  0.78119723799E+01  0.40299481594E+02  0.51100000000E-03 0. -1.
        -11    1    3    3    0    0 -0.22467012332E+01 -0.38905787710E-01  0.31023882451E+01  0.38306648478E+01  0.51100000000E-03 0.  1.
         12    1    3    3    0    0  0.51716077269E+01 -0.20365036975E+01  0.31702624818E+01  0.63987059625E+01  0.00000000000E+00 0. -1.
</event>
<event>
 7    1  0.2966651E-011  0.5052886E+02  0.7816164E-02  0.1300439E+00
        -11   -1    0    0    0    0  0.00000000000E+00  0.00000000000E+00  0.45593999997E+02  0.45594000000E+02  0.51100000000E-03 0.  1.
         11   -1    0    0    0    0 -0.00000000000E+00 -0.00000000000E+00 -0.45593999997E+02  0.45594000000E+02  0.51100000000E-03 0. -1.
    9900012    2    1    2    0    0 -0.37242954628E+02 -0.10385427757E+02 -0.12580569800E+02  0.50528861844E+02  0.30000006060E+02 0.  0.
         12    1    1    2    0    0  0.37242954628E+02  0.10385427757E+02  0.12580569800E+02  0.40659138156E+02  0.00000000000E+00 0. -1.
         11    1    3    3    0    0  0.49669062024E+01 -0.28580356862E+01 -0.40615839617E+00  0.57448664137E+01  0.51100000000E-03 0. -1.
        -11    1    3    3    0    0 -0.13877830455E+02 -0.23562767223E+01 -0.18901109445E+01  0.14202772187E+02  0.51100000000E-03 0.  1.
         12    1    3    3    0    0 -0.28332030375E+02 -0.51711153481E+01 -0.10284300460E+02  0.30581223243E+02  0.00000000000E+00 0. -1.
</event>
<event>
 7    1  0.2966651E-011  0.5052886E+02  0.7816164E-02  0.1300439E+00
        -11   -1    0    0    0    0  0.00000000000E+00  0.00000000000E+00  0.45593999997E+02  0.45594000000E+02  0.51100000000E-03 0.  1.
         11   -1    0    0    0    0 -0.00000000000E+00 -0.00000000000E+00 -0.45593999997E+02  0.45594000000E+02  0.51100000000E-03 0. -1.
    9900012    2    1    2    0    0 -0.33547197089E+02  0.35110054057E+01  0.22702945801E+02  0.50528864009E+02  0.30000012641E+02 0.  0.
         12    1    1    2    0    0  0.33547197089E+02 -0.35110054057E+01 -0.22702945801E+02  0.40659135991E+02  0.00000000000E+00 0. -1.
         11    1    3    3    0    0 -0.36782420969E+01  0.42730724838E+01  0.21002871562E+01  0.60166286054E+01  0.51100000000E-03 0. -1.
        -11    1    3    3    0    0 -0.13547753343E+02 -0.10823174265E+02  0.14322010896E+01  0.17399250617E+02  0.51100000000E-03 0.  1.
        -12    1    3    3    0    0 -0.16321201649E+02  0.10061107187E+02  0.19170457556E+02  0.27112984786E+02  0.00000000000E+00 0.  1.
</event>
<event>
 7    1  0.2966651E-011  0.5052886E+02  0.7816164E-02  0.1300439E+00
        -11   -1    0    0    0    0  0.00000000000E+00  0.00000000000E+00  0.45593999997E+02  0.45594000000E+02  0.51100000000E-03 0. -1.
         11   -1    0    0    0    0 -0.00000000000E+00 -0.00000000000E+00 -0.45593999997E+02  0.45594000000E+02  0.51100000000E-03 0.  1.
    9900012    2    1    2    0    0 -0.89316407899E+01  0.39588530967E+02 -0.24778193143E+01  0.50528861054E+02  0.30000003659E+02 0.  0.
         12    1    1    2    0    0  0.89316407899E+01 -0.39588530967E+02  0.24778193143E+01  0.40659138946E+02  0.00000000000E+00 0. -1.
         11    1    3    3    0    0 -0.57208404334E+01  0.78556447123E+01  0.32003803908E+01  0.10231402837E+02  0.51100000000E-03 0. -1.
        -11    1    3    3    0    0  0.91505343418E+01  0.49736099843E+01 -0.12290488148E+01  0.10487117634E+02  0.51100000000E-03 0.  1.
        -12    1    3    3    0    0 -0.12361334698E+02  0.26759276270E+02 -0.44491508903E+01  0.29810340583E+02  0.00000000000E+00 0.  1.
</event>
<event>
 7    1  0.2966651E-011  0.5052886E+02  0.7816164E-02  0.1300439E+00
        -11   -1    0    0    0    0  0.00000000000E+00  0.00000000000E+00  0.45593999997E+02  0.45594000000E+02  0.51100000000E-03 0.  1.
         11   -1    0    0    0    0 -0.00000000000E+00 -0.00000000000E+00 -0.45593999997E+02  0.45594000000E+02  0.51100000000E-03 0. -1.
    9900012    2    1    2    0    0 -0.40629032876E-01  0.52787291070E+01  0.40315002346E+02  0.50528855323E+02  0.29999986241E+02 0.  0.
         12    1    1    2    0    0  0.40629032876E-01 -0.52787291070E+01 -0.40315002346E+02  0.40659144677E+02  0.00000000000E+00 0. -1.
         11    1    3    3    0    0 -0.57008859785E+01  0.11392869667E+02  0.24608486255E+02  0.27710560734E+02  0.51100000000E-03 0.  1.
        -11    1    3    3    0    0  0.16362336034E+01 -0.80355990298E+01  0.16370787832E+02  0.18309855452E+02  0.51100000000E-03 0. -1.
         12    1    3    3    0    0  0.40240233422E+01  0.19214584693E+01 -0.66427174084E+00  0.45084391372E+01  0.00000000000E+00 0. -1.
</event>
<event>
 7    1  0.2966651E-011  0.5052885E+02  0.7816164E-02  0.1300439E+00
        -11   -1    0    0    0    0  0.00000000000E+00  0.00000000000E+00  0.45593999997E+02  0.45594000000E+02  0.51100000000E-03 0.  1.
         11   -1    0    0    0    0 -0.00000000000E+00 -0.00000000000E+00 -0.45593999997E+02  0.45594000000E+02  0.51100000000E-03 0. -1.
    9900012    2    1    2    0    0  0.13211279287E+02 -0.30151202520E+02  0.23864894201E+02  0.50528854792E+02  0.29999984626E+02 0.  0.
         12    1    1    2    0    0 -0.13211279287E+02  0.30151202520E+02 -0.23864894201E+02  0.40659145208E+02  0.00000000000E+00 0. -1.
         11    1    3    3    0    0  0.14008995550E+02 -0.97840664674E+01  0.85893322931E+01  0.19124762547E+02  0.51100000000E-03 0. -1.
        -11    1    3    3    0    0 -0.15132932457E+01 -0.20270030785E+02  0.18871587037E+02  0.27736275922E+02  0.51100000000E-03 0.  1.
        -12    1    3    3    0    0  0.71557698258E+00 -0.97105267889E-01 -0.35960251293E+01  0.36678163233E+01  0.00000000000E+00 0.  1.
</event>
<event>
 7    1  0.2966651E-011  0.5052886E+02  0.7816164E-02  0.1300439E+00
        -11   -1    0    0    0    0  0.00000000000E+00  0.00000000000E+00  0.45593999997E+02  0.45594000000E+02  0.51100000000E-03 0.  1.
         11   -1    0    0    0    0 -0.00000000000E+00 -0.00000000000E+00 -0.45593999997E+02  0.45594000000E+02  0.51100000000E-03 0. -1.
    9900012    2    1    2    0    0  0.27240522619E+02  0.28230161360E+02  0.10685409204E+02  0.50528855237E+02  0.29999985978E+02 0.  0.
         12    1    1    2    0    0 -0.27240522619E+02 -0.28230161360E+02 -0.10685409204E+02  0.40659144763E+02  0.00000000000E+00 0. -1.
         11    1    3    3    0    0  0.13955032307E+02  0.55891324463E+01 -0.85539139742E+00  0.15056992492E+02  0.51100000000E-03 0. -1.
        -11    1    3    3    0    0 -0.23970295007E+01  0.11621345536E+02  0.11177387161E+02  0.16301392778E+02  0.51100000000E-03 0.  1.
        -12    1    3    3    0    0  0.15682519813E+02  0.11019683378E+02  0.36341344061E+00  0.19170469967E+02  0.00000000000E+00 0.  1.
</event>
<event>
 7    1  0.2966651E-011  0.5052882E+02  0.7816164E-02  0.1300439E+00
        -11   -1    0    0    0    0  0.00000000000E+00  0.00000000000E+00  0.45593999997E+02  0.45594000000E+02  0.51100000000E-03 0.  1.
         11   -1    0    0    0    0 -0.00000000000E+00 -0.00000000000E+00 -0.45593999997E+02  0.45594000000E+02  0.51100000000E-03 0. -1.
    9900012    2    1    2    0    0 -0.29434054591E+02  0.27933750624E+02 -0.25516483536E+01  0.50528820189E+02  0.29999879447E+02 0.  0.
         12    1    1    2    0    0  0.29434054591E+02 -0.27933750624E+02  0.25516483536E+01  0.40659179811E+02  0.00000000000E+00 0. -1.
         11    1    3    3    0    0  0.44793261679E+01 -0.77269919377E+00 -0.26892121803E+01  0.52814097904E+01  0.51100000000E-03 0. -1.
        -11    1    3    3    0    0 -0.15611686275E+02  0.10489408130E+02  0.37342191460E+01  0.19175422399E+02  0.51100000000E-03 0.  1.
        -12    1    3    3    0    0 -0.18301694483E+02  0.18217041687E+02 -0.35966553194E+01  0.26071988000E+02  0.00000000000E+00 0.  1.
</event>
<event>
 7    1  0.2966651E-011  0.5052886E+02  0.7816164E-02  0.1300439E+00
        -11   -1    0    0    0    0  0.00000000000E+00  0.00000000000E+00  0.45593999997E+02  0.45594000000E+02  0.51100000000E-03 0.  1.
         11   -1    0    0    0    0 -0.00000000000E+00 -0.00000000000E+00 -0.45593999997E+02  0.45594000000E+02  0.51100000000E-03 0. -1.
    9900012    2    1    2    0    0 -0.10059701965E+02 -0.39285963375E+02 -0.29294078865E+01  0.50528856471E+02  0.29999989730E+02 0.  0.
         12    1    1    2    0    0  0.10059701965E+02  0.39285963375E+02  0.29294078865E+01  0.40659143529E+02  0.00000000000E+00 0. -1.
         11    1    3    3    0    0 -0.11625456912E+02 -0.39354596906E+01  0.59016826312E+01  0.13618698526E+02  0.51100000000E-03 0. -1.
        -11    1    3    3    0    0  0.19813147498E+01 -0.41720672380E+01 -0.57375429242E+00  0.46541322956E+01  0.51100000000E-03 0.  1.
         12    1    3    3    0    0 -0.41555980223E+00 -0.31178436446E+02 -0.82573362252E+01  0.32256025650E+02  0.00000000000E+00 0. -1.
</event>
<event>
 7    1  0.2966651E-011  0.5052887E+02  0.7816164E-02  0.1300439E+00
        -11   -1    0    0    0    0  0.00000000000E+00  0.00000000000E+00  0.45593999997E+02  0.45594000000E+02  0.51100000000E-03 0.  1.
         11   -1    0    0    0    0 -0.00000000000E+00 -0.00000000000E+00 -0.45593999997E+02  0.45594000000E+02  0.51100000000E-03 0. -1.
    9900012    2    1    2    0    0  0.24804986956E+02 -0.28944809240E+02  0.14144807678E+02  0.50528868872E+02  0.30000027424E+02 0.  0.
         12    1    1    2    0    0 -0.24804986956E+02  0.28944809240E+02 -0.14144807678E+02  0.40659131128E+02  0.00000000000E+00 0. -1.
         11    1    3    3    0    0  0.16796504846E+02 -0.90220394848E+00 -0.11681322429E+01  0.16861230092E+02  0.51100000000E-03 0. -1.
        -11    1    3    3    0    0  0.66018699533E+01 -0.20798407853E+02  0.78980918552E+01  0.23206428232E+02  0.51100000000E-03 0.  1.
        -12    1    3    3    0    0  0.14066121561E+01 -0.72441974386E+01  0.74148480656E+01  0.10461210548E+02  0.00000000000E+00 0.  1.
</event>
<event>
 7    1  0.2966651E-011  0.5052890E+02  0.7816164E-02  0.1300439E+00
        -11   -1    0    0    0    0  0.00000000000E+00  0.00000000000E+00  0.45593999997E+02  0.45594000000E+02  0.51100000000E-03 0.  1.
         11   -1    0    0    0    0 -0.00000000000E+00 -0.00000000000E+00 -0.45593999997E+02  0.45594000000E+02  0.51100000000E-03 0. -1.
    9900012    2    1    2    0    0  0.33352010420E+02 -0.22518482704E+02 -0.58072156019E+01  0.50528899969E+02  0.30000121944E+02 0.  0.
         12    1    1    2    0    0 -0.33352010420E+02  0.22518482704E+02  0.58072156019E+01  0.40659100031E+02  0.00000000000E+00 0. -1.
         11    1    3    3    0    0  0.87286357778E+01  0.61534102611E+01 -0.45717928736E+01  0.11617006100E+02  0.51100000000E-03 0. -1.
        -11    1    3    3    0    0  0.12267110931E+02 -0.20526578090E+02 -0.25795637214E+01  0.24051539824E+02  0.51100000000E-03 0.  1.
         12    1    3    3    0    0  0.12356263711E+02 -0.81453148751E+01  0.13441409931E+01  0.14860354045E+02  0.00000000000E+00 0. -1.
</event>
<event>
 7    1  0.2966651E-011  0.5052886E+02  0.7816164E-02  0.1300439E+00
        -11   -1    0    0    0    0  0.00000000000E+00  0.00000000000E+00  0.45593999997E+02  0.45594000000E+02  0.51100000000E-03 0.  1.
         11   -1    0    0    0    0 -0.00000000000E+00 -0.00000000000E+00 -0.45593999997E+02  0.45594000000E+02  0.51100000000E-03 0. -1.
    9900012    2    1    2    0    0 -0.35234029802E+02 -0.15585498692E+02  0.12993124892E+02  0.50528856870E+02  0.29999990943E+02 0.  0.
         12    1    1    2    0    0  0.35234029802E+02  0.15585498692E+02 -0.12993124892E+02  0.40659143130E+02  0.00000000000E+00 0. -1.
         11    1    3    3    0    0 -0.15829741200E+02 -0.17687014890E+02 -0.45380503621E+01  0.24166197540E+02  0.51100000000E-03 0. -1.
        -11    1    3    3    0    0 -0.90140526654E+01  0.13103332842E+01  0.98579673221E+01  0.13421983414E+02  0.51100000000E-03 0.  1.
         12    1    3    3    0    0 -0.10390235937E+02  0.79118291389E+00  0.76732079321E+01  0.12940675917E+02  0.00000000000E+00 0. -1.
</event>
<event>
 7    1  0.2966651E-011  0.5052883E+02  0.7816164E-02  0.1300439E+00
        -11   -1    0    0    0    0  0.00000000000E+00  0.00000000000E+00  0.45593999997E+02  0.45594000000E+02  0.51100000000E-03 0.  1.
         11   -1    0    0    0    0 -0.00000000000E+00 -0.00000000000E+00 -0.45593999997E+02  0.45594000000E+02  0.51100000000E-03 0. -1.
    9900012    2    1    2    0    0 -0.39465164759E+01 -0.13889928049E+02  0.38008722987E+02  0.50528829858E+02  0.29999908837E+02 0.  0.
         12    1    1    2    0    0  0.39465164759E+01  0.13889928049E+02 -0.38008722987E+02  0.40659170142E+02  0.00000000000E+00 0. -1.
         11    1    3    3    0    0 -0.11407426366E+02  0.44384544013E+01  0.21316964768E+02  0.24581339283E+02  0.51100000000E-03 0. -1.
        -11    1    3    3    0    0  0.21039234088E+01 -0.70608035319E+01  0.67945334561E+01  0.10022331334E+02  0.51100000000E-03 0.  1.
         12    1    3    3    0    0  0.53569864811E+01 -0.11267578919E+02  0.98972247632E+01  0.15925159241E+02  0.00000000000E+00 0. -1.
</event>
<event>
 7    1  0.2966651E-011  0.5052888E+02  0.7816164E-02  0.1300439E+00
        -11   -1    0    0    0    0  0.00000000000E+00  0.00000000000E+00  0.45593999997E+02  0.45594000000E+02  0.51100000000E-03 0.  1.
         11   -1    0    0    0    0 -0.00000000000E+00 -0.00000000000E+00 -0.45593999997E+02  0.45594000000E+02  0.51100000000E-03 0. -1.
    9900012    2    1    2    0    0  0.28402664605E+02  0.17061547842E+01  0.29043796189E+02  0.50528875343E+02  0.30000047093E+02 0.  0.
         12    1    1    2    0    0 -0.28402664605E+02 -0.17061547842E+01 -0.29043796189E+02  0.40659124657E+02  0.00000000000E+00 0. -1.
         11    1    3    3    0    0  0.92760119242E+00  0.39105462390E+01 -0.15290431175E+01  0.43000917404E+01  0.51100000000E-03 0. -1.
        -11    1    3    3    0    0  0.19993061192E+02 -0.11207913526E+02  0.21382977701E+02  0.31345997464E+02  0.51100000000E-03 0.  1.
        -12    1    3    3    0    0  0.74820022206E+01  0.90035220710E+01  0.91898616057E+01  0.14882786138E+02  0.00000000000E+00 0.  1.
</event>
<event>
 7    1  0.2966651E-011  0.5052886E+02  0.7816164E-02  0.1300439E+00
        -11   -1    0    0    0    0  0.00000000000E+00  0.00000000000E+00  0.45593999997E+02  0.45594000000E+02  0.51100000000E-03 0.  1.
         11   -1    0    0    0    0 -0.00000000000E+00 -0.00000000000E+00 -0.45593999997E+02  0.45594000000E+02  0.51100000000E-03 0. -1.
    9900012    2    1    2    0    0 -0.13144374957E+02  0.18381920218E+02  0.33800832154E+02  0.50528857877E+02  0.29999994001E+02 0.  0.
         12    1    1    2    0    0  0.13144374957E+02 -0.18381920218E+02 -0.33800832154E+02  0.40659142123E+02  0.00000000000E+00 0. -1.
         11    1    3    3    0    0 -0.75813766318E+01  0.20527591097E+02  0.76141042563E+01  0.23169675263E+02  0.51100000000E-03 0. -1.
        -11    1    3    3    0    0  0.73513433238E+00 -0.70943616631E+00  0.78842657788E+01  0.79501804566E+01  0.51100000000E-03 0.  1.
         12    1    3    3    0    0 -0.62981326573E+01 -0.14362347131E+01  0.18302462119E+02  0.19409002157E+02  0.00000000000E+00 0. -1.
</event>
<event>
 7    1  0.2966651E-011  0.5052886E+02  0.7816164E-02  0.1300439E+00
        -11   -1    0    0    0    0  0.00000000000E+00  0.00000000000E+00  0.45593999997E+02  0.45594000000E+02  0.51100000000E-03 0.  1.
         11   -1    0    0    0    0 -0.00000000000E+00 -0.00000000000E+00 -0.45593999997E+02  0.45594000000E+02  0.51100000000E-03 0. -1.
    9900012    2    1    2    0    0 -0.84200859139E+00  0.38245045312E+02  0.13775829540E+02  0.50528856515E+02  0.29999989863E+02 0.  0.
         12    1    1    2    0    0  0.84200859139E+00 -0.38245045312E+02 -0.13775829540E+02  0.40659143485E+02  0.00000000000E+00 0. -1.
         11    1    3    3    0    0 -0.59638242482E+01  0.61560114073E+00  0.58782504987E+01  0.83964274316E+01  0.51100000000E-03 0. -1.
        -11    1    3    3    0    0  0.46980318457E+01  0.22956803037E+02  0.12744530147E+02  0.26674132747E+02  0.51100000000E-03 0.  1.
         12    1    3    3    0    0  0.42378381112E+00  0.14672641135E+02 -0.48469511059E+01  0.15458296336E+02  0.00000000000E+00 0. -1.
</event>
<event>
 7    1  0.2966651E-011  0.5052888E+02  0.7816164E-02  0.1300439E+00
        -11   -1    0    0    0    0  0.00000000000E+00  0.00000000000E+00  0.45593999997E+02  0.45594000000E+02  0.51100000000E-03 0.  1.
         11   -1    0    0    0    0 -0.00000000000E+00 -0.00000000000E+00 -0.45593999997E+02  0.45594000000E+02  0.51100000000E-03 0. -1.
    9900012    2    1    2    0    0 -0.17907892061E+02 -0.12617057785E+02  0.34253195927E+02  0.50528878312E+02  0.30000056116E+02 0.  0.
         12    1    1    2    0    0  0.17907892061E+02  0.12617057785E+02 -0.34253195927E+02  0.40659121688E+02  0.00000000000E+00 0. -1.
         11    1    3    3    0    0 -0.47199473338E+01 -0.16502255991E+02  0.79458900689E+01  0.18914003407E+02  0.51100000000E-03 0.  1.
        -11    1    3    3    0    0 -0.60969811963E+01  0.74251278278E+01  0.14537253635E+02  0.17425195737E+02  0.51100000000E-03 0. -1.
        -12    1    3    3    0    0 -0.70909635312E+01 -0.35399296219E+01  0.11770052223E+02  0.14189679167E+02  0.00000000000E+00 0.  1.
</event>
<event>
 7    1  0.2966651E-011  0.5052886E+02  0.7816164E-02  0.1300439E+00
        -11   -1    0    0    0    0  0.00000000000E+00  0.00000000000E+00  0.45593999997E+02  0.45594000000E+02  0.51100000000E-03 0. -1.
         11   -1    0    0    0    0 -0.00000000000E+00 -0.00000000000E+00 -0.45593999997E+02  0.45594000000E+02  0.51100000000E-03 0.  1.
    9900012    2    1    2    0    0  0.32279736018E+02 -0.20938926157E+02  0.13143270323E+02  0.50528861534E+02  0.30000005118E+02 0.  0.
         12    1    1    2    0    0 -0.32279736018E+02  0.20938926157E+02 -0.13143270323E+02  0.40659138466E+02  0.00000000000E+00 0. -1.
         11    1    3    3    0    0  0.27931118769E+02 -0.25292460794E+02  0.13436515356E+02  0.40004948617E+02  0.51100000000E-03 0. -1.
        -11    1    3    3    0    0 -0.12563325298E+01 -0.28319270485E+00 -0.25926491027E+01  0.28948919089E+01  0.51100000000E-03 0.  1.
         12    1    3    3    0    0  0.56049497795E+01  0.46367273412E+01  0.22994040695E+01  0.76290210081E+01  0.00000000000E+00 0. -1.
</event>
<event>
 7    1  0.2966651E-011  0.5052885E+02  0.7816164E-02  0.1300439E+00
        -11   -1    0    0    0    0  0.00000000000E+00  0.00000000000E+00  0.45593999997E+02  0.45594000000E+02  0.51100000000E-03 0. -1.
         11   -1    0    0    0    0 -0.00000000000E+00 -0.00000000000E+00 -0.45593999997E+02  0.45594000000E+02  0.51100000000E-03 0.  1.
    9900012    2    1    2    0    0 -0.19183971055E+02  0.35426898226E+02  0.54842105083E+01  0.50528850621E+02  0.29999971947E+02 0.  0.
         12    1    1    2    0    0  0.19183971055E+02 -0.35426898226E+02 -0.54842105083E+01  0.40659149379E+02  0.00000000000E+00 0. -1.
         11    1    3    3    0    0 -0.18495181664E+01  0.15287570190E+02 -0.10442596209E+02  0.18605868312E+02  0.51100000000E-03 0. -1.
        -11    1    3    3    0    0 -0.15441574706E+02  0.16507089965E+02  0.99959977962E+01  0.24715303371E+02  0.51100000000E-03 0.  1.
         12    1    3    3    0    0 -0.18928781828E+01  0.36322380705E+01  0.59308089215E+01  0.72076789384E+01  0.00000000000E+00 0. -1.
</event>
<event>
 7    1  0.2966651E-011  0.5052886E+02  0.7816164E-02  0.1300439E+00
        -11   -1    0    0    0    0  0.00000000000E+00  0.00000000000E+00  0.45593999997E+02  0.45594000000E+02  0.51100000000E-03 0.  1.
         11   -1    0    0    0    0 -0.00000000000E+00 -0.00000000000E+00 -0.45593999997E+02  0.45594000000E+02  0.51100000000E-03 0. -1.
    9900012    2    1    2    0    0 -0.29424585489E+02 -0.19105166452E+02  0.20551197497E+02  0.50528864065E+02  0.30000012813E+02 0.  0.
         12    1    1    2    0    0  0.29424585489E+02  0.19105166452E+02 -0.20551197497E+02  0.40659135935E+02  0.00000000000E+00 0. -1.
         11    1    3    3    0    0  0.19466698160E+01 -0.75327646541E+01  0.82063553267E-01  0.77806684414E+01  0.51100000000E-03 0. -1.
        -11    1    3    3    0    0 -0.27766035782E+02 -0.15774106603E+02  0.16573369836E+02  0.35978490382E+02  0.51100000000E-03 0.  1.
        -12    1    3    3    0    0 -0.36052195232E+01  0.42017048051E+01  0.38957641080E+01  0.67697052421E+01  0.00000000000E+00 0.  1.
</event>
<event>
 7    1  0.2966651E-011  0.5052884E+02  0.7816164E-02  0.1300439E+00
        -11   -1    0    0    0    0  0.00000000000E+00  0.00000000000E+00  0.45593999997E+02  0.45594000000E+02  0.51100000000E-03 0.  1.
         11   -1    0    0    0    0 -0.00000000000E+00 -0.00000000000E+00 -0.45593999997E+02  0.45594000000E+02  0.51100000000E-03 0. -1.
    9900012    2    1    2    0    0  0.36695414492E+00 -0.60007031083E+01  0.40212242181E+02  0.50528837264E+02  0.29999931349E+02 0.  0.
         12    1    1    2    0    0 -0.36695414492E+00  0.60007031083E+01 -0.40212242181E+02  0.40659162736E+02  0.00000000000E+00 0. -1.
         11    1    3    3    0    0 -0.13735229278E+02 -0.26452891478E+01  0.14350259326E+02  0.20039561397E+02  0.51100000000E-03 0. -1.
        -11    1    3    3    0    0  0.10027770122E+02 -0.27522959028E+01  0.23601963581E+02  0.25791161112E+02  0.51100000000E-03 0.  1.
         12    1    3    3    0    0  0.40744133010E+01 -0.60311805777E+00  0.22600192742E+01  0.46981147558E+01  0.00000000000E+00 0. -1.
</event>
<event>
 7    1  0.2966651E-011  0.5052886E+02  0.7816164E-02  0.1300439E+00
        -11   -1    0    0    0    0  0.00000000000E+00  0.00000000000E+00  0.45593999997E+02  0.45594000000E+02  0.51100000000E-03 0.  1.
         11   -1    0    0    0    0 -0.00000000000E+00 -0.00000000000E+00 -0.45593999997E+02  0.45594000000E+02  0.51100000000E-03 0. -1.
    9900012    2    1    2    0    0  0.22329955673E+02  0.18557472466E+02  0.28463293018E+02  0.50528858911E+02  0.29999997145E+02 0.  0.
         12    1    1    2    0    0 -0.22329955673E+02 -0.18557472466E+02 -0.28463293018E+02  0.40659141089E+02  0.00000000000E+00 0. -1.
         11    1    3    3    0    0  0.14074438306E+02  0.88093704925E+01  0.78997652287E+00  0.16622842274E+02  0.51100000000E-03 0. -1.
        -11    1    3    3    0    0  0.30245556065E+01  0.77380938091E+01  0.27014932254E+02  0.28263626755E+02  0.51100000000E-03 0.  1.
        -12    1    3    3    0    0  0.52309617604E+01  0.20100081646E+01  0.65838424129E+00  0.56423898811E+01  0.00000000000E+00 0.  1.
</event>
<event>
 7    1  0.2966651E-011  0.5052886E+02  0.7816164E-02  0.1300439E+00
        -11   -1    0    0    0    0  0.00000000000E+00  0.00000000000E+00  0.45593999997E+02  0.45594000000E+02  0.51100000000E-03 0.  1.
         11   -1    0    0    0    0 -0.00000000000E+00 -0.00000000000E+00 -0.45593999997E+02  0.45594000000E+02  0.51100000000E-03 0. -1.
    9900012    2    1    2    0    0  0.71540880506E+01 -0.31772442237E+02  0.24341258446E+02  0.50528856818E+02  0.29999990785E+02 0.  0.
         12    1    1    2    0    0 -0.71540880506E+01  0.31772442237E+02 -0.24341258446E+02  0.40659143182E+02  0.00000000000E+00 0. -1.
         11    1    3    3    0    0 -0.53331705388E+01 -0.91682613253E+01  0.11840096486E+02  0.15896150753E+02  0.51100000000E-03 0. -1.
        -11    1    3    3    0    0  0.12789828906E+02 -0.36095342845E+01  0.46957196428E+01  0.14094617569E+02  0.51100000000E-03 0.  1.
        -12    1    3    3    0    0 -0.30257031647E+00 -0.18994646627E+02  0.78054423171E+01  0.20538088496E+02  0.00000000000E+00 0.  1.
</event>
<event>
 7    1  0.2966651E-011  0.5052882E+02  0.7816164E-02  0.1300439E+00
        -11   -1    0    0    0    0  0.00000000000E+00  0.00000000000E+00  0.45593999997E+02  0.45594000000E+02  0.51100000000E-03 0.  1.
         11   -1    0    0    0    0 -0.00000000000E+00 -0.00000000000E+00 -0.45593999997E+02  0.45594000000E+02  0.51100000000E-03 0. -1.
    9900012    2    1    2    0    0 -0.54024088445E+01  0.16621749848E+02  0.36711039726E+02  0.50528818662E+02  0.29999874804E+02 0.  0.
         12    1    1    2    0    0  0.54024088445E+01 -0.16621749848E+02 -0.36711039726E+02  0.40659181338E+02  0.00000000000E+00 0. -1.
         11    1    3    3    0    0 -0.13442916377E+02  0.12690777557E+02  0.85918042011E+01  0.20385949461E+02  0.51100000000E-03 0. -1.
        -11    1    3    3    0    0  0.59047163513E+01  0.55605536748E+01  0.22425080199E+02  0.23846795478E+02  0.51100000000E-03 0.  1.
         12    1    3    3    0    0  0.21357911809E+01 -0.16295813839E+01  0.56941553256E+01  0.62960737232E+01  0.00000000000E+00 0. -1.
</event>
<event>
 7    1  0.2966651E-011  0.5052886E+02  0.7816164E-02  0.1300439E+00
        -11   -1    0    0    0    0  0.00000000000E+00  0.00000000000E+00  0.45593999997E+02  0.45594000000E+02  0.51100000000E-03 0. -1.
         11   -1    0    0    0    0 -0.00000000000E+00 -0.00000000000E+00 -0.45593999997E+02  0.45594000000E+02  0.51100000000E-03 0.  1.
    9900012    2    1    2    0    0 -0.16569848815E+02 -0.21251323350E+02 -0.30446460446E+02  0.50528860959E+02  0.30000003371E+02 0.  0.
         12    1    1    2    0    0  0.16569848815E+02  0.21251323350E+02  0.30446460446E+02  0.40659139041E+02  0.00000000000E+00 0. -1.
         11    1    3    3    0    0 -0.85711881150E+01 -0.17112406503E+01  0.37363001020E+01  0.95054483839E+01  0.51100000000E-03 0. -1.
        -11    1    3    3    0    0 -0.95349466143E+01 -0.14756386593E+02 -0.24999406892E+02  0.30555465918E+02  0.51100000000E-03 0.  1.
         12    1    3    3    0    0  0.15362859147E+01 -0.47836961069E+01 -0.91833536556E+01  0.10467946657E+02  0.00000000000E+00 0. -1.
</event>
<event>
 7    1  0.2966651E-011  0.5052887E+02  0.7816164E-02  0.1300439E+00
        -11   -1    0    0    0    0  0.00000000000E+00  0.00000000000E+00  0.45593999997E+02  0.45594000000E+02  0.51100000000E-03 0.  1.
         11   -1    0    0    0    0 -0.00000000000E+00 -0.00000000000E+00 -0.45593999997E+02  0.45594000000E+02  0.51100000000E-03 0. -1.
    9900012    2    1    2    0    0 -0.75202863251E+01  0.37533753147E+02  0.13705028389E+02  0.50528866526E+02  0.30000020294E+02 0.  0.
         12    1    1    2    0    0  0.75202863251E+01 -0.37533753147E+02 -0.13705028389E+02  0.40659133474E+02  0.00000000000E+00 0. -1.
         11    1    3    3    0    0 -0.78419325014E+01  0.48876914855E+01  0.70116974408E+01  0.11599540279E+02  0.51100000000E-03 0. -1.
        -11    1    3    3    0    0  0.76009372886E+01  0.54644765328E+01 -0.18067924504E+01  0.95341098516E+01  0.51100000000E-03 0.  1.
        -12    1    3    3    0    0 -0.72792911123E+01  0.27181585128E+02  0.85001233986E+01  0.29395216396E+02  0.00000000000E+00 0.  1.
</event>
<event>
 7    1  0.2966651E-011  0.5052886E+02  0.7816164E-02  0.1300439E+00
        -11   -1    0    0    0    0  0.00000000000E+00  0.00000000000E+00  0.45593999997E+02  0.45594000000E+02  0.51100000000E-03 0.  1.
         11   -1    0    0    0    0 -0.00000000000E+00 -0.00000000000E+00 -0.45593999997E+02  0.45594000000E+02  0.51100000000E-03 0. -1.
    9900012    2    1    2    0    0 -0.37499653622E+02 -0.15703964180E+02 -0.57221913108E+00  0.50528856533E+02  0.29999989918E+02 0.  0.
         12    1    1    2    0    0  0.37499653622E+02  0.15703964180E+02  0.57221913108E+00  0.40659143467E+02  0.00000000000E+00 0. -1.
         11    1    3    3    0    0 -0.49774385565E+00  0.14607869104E+01  0.72833160397E+01  0.74450211645E+01  0.51100000000E-03 0. -1.
        -11    1    3    3    0    0 -0.24041684152E+02 -0.12689413758E+02  0.19155524758E+00  0.27185667034E+02  0.51100000000E-03 0.  1.
         12    1    3    3    0    0 -0.12960225614E+02 -0.44753373328E+01 -0.80470904184E+01  0.15898168335E+02  0.00000000000E+00 0. -1.
</event>
<event>
 7    1  0.2966651E-011  0.5052886E+02  0.7816164E-02  0.1300439E+00
        -11   -1    0    0    0    0  0.00000000000E+00  0.00000000000E+00  0.45593999997E+02  0.45594000000E+02  0.51100000000E-03 0. -1.
         11   -1    0    0    0    0 -0.00000000000E+00 -0.00000000000E+00 -0.45593999997E+02  0.45594000000E+02  0.51100000000E-03 0.  1.
    9900012    2    1    2    0    0 -0.49231159888E+01 -0.36039943553E+02 -0.18167305355E+02  0.50528860975E+02  0.30000003420E+02 0.  0.
         12    1    1    2    0    0  0.49231159888E+01  0.36039943553E+02  0.18167305355E+02  0.40659139025E+02  0.00000000000E+00 0. -1.
         11    1    3    3    0    0  0.72804701190E+00  0.70612565286E+00  0.32039574437E+01  0.33606561043E+01  0.51100000000E-03 0. -1.
        -11    1    3    3    0    0 -0.96136803145E+01 -0.31251306317E+02 -0.10467421617E+02  0.34331238127E+02  0.51100000000E-03 0.  1.
        -12    1    3    3    0    0  0.39625173138E+01 -0.54947628889E+01 -0.10903841182E+02  0.12836966744E+02  0.00000000000E+00 0.  1.
</event>
<event>
 7    1  0.2966651E-011  0.5052886E+02  0.7816164E-02  0.1300439E+00
        -11   -1    0    0    0    0  0.00000000000E+00  0.00000000000E+00  0.45593999997E+02  0.45594000000E+02  0.51100000000E-03 0. -1.
         11   -1    0    0    0    0 -0.00000000000E+00 -0.00000000000E+00 -0.45593999997E+02  0.45594000000E+02  0.51100000000E-03 0.  1.
    9900012    2    1    2    0    0 -0.36091734314E+02 -0.80111145665E+01 -0.16922601731E+02  0.50528859678E+02  0.29999999478E+02 0.  0.
         12    1    1    2    0    0  0.36091734314E+02  0.80111145665E+01  0.16922601731E+02  0.40659140322E+02  0.00000000000E+00 0. -1.
         11    1    3    3    0    0 -0.10312491510E+02  0.41222101195E+00  0.68576819883E+01  0.12391336079E+02  0.51100000000E-03 0. -1.
        -11    1    3    3    0    0 -0.17153464546E+02 -0.53256246865E+01 -0.75194673238E+01  0.19471672074E+02  0.51100000000E-03 0.  1.
         12    1    3    3    0    0 -0.86257782568E+01 -0.30977108920E+01 -0.16260816396E+02  0.18665851525E+02  0.00000000000E+00 0. -1.
</event>
<event>
 7    1  0.2966651E-011  0.5052886E+02  0.7816164E-02  0.1300439E+00
        -11   -1    0    0    0    0  0.00000000000E+00  0.00000000000E+00  0.45593999997E+02  0.45594000000E+02  0.51100000000E-03 0. -1.
         11   -1    0    0    0    0 -0.00000000000E+00 -0.00000000000E+00 -0.45593999997E+02  0.45594000000E+02  0.51100000000E-03 0.  1.
    9900012    2    1    2    0    0 -0.13651549120E+02  0.37651668803E+02  0.70108704277E+01  0.50528864973E+02  0.30000015571E+02 0.  0.
         12    1    1    2    0    0  0.13651549120E+02 -0.37651668803E+02 -0.70108704277E+01  0.40659135027E+02  0.00000000000E+00 0. -1.
         11    1    3    3    0    0 -0.30196018604E+01 -0.44523376615E+01 -0.63919791710E+00  0.54175529795E+01  0.51100000000E-03 0. -1.
        -11    1    3    3    0    0 -0.12222315365E+02  0.32601290933E+02  0.56868946634E+01  0.35278462758E+02  0.51100000000E-03 0.  1.
        -12    1    3    3    0    0  0.15903681058E+01  0.95027155312E+01  0.19631736814E+01  0.98328492352E+01  0.00000000000E+00 0.  1.
</event>
<event>
 7    1  0.2966651E-011  0.5052886E+02  0.7816164E-02  0.1300439E+00
        -11   -1    0    0    0    0  0.00000000000E+00  0.00000000000E+00  0.45593999997E+02  0.45594000000E+02  0.51100000000E-03 0. -1.
         11   -1    0    0    0    0 -0.00000000000E+00 -0.00000000000E+00 -0.45593999997E+02  0.45594000000E+02  0.51100000000E-03 0.  1.
    9900012    2    1    2    0    0  0.87755142123E+01 -0.23821524480E+02 -0.31759897717E+02  0.50528858577E+02  0.29999996130E+02 0.  0.
         12    1    1    2    0    0 -0.87755142123E+01  0.23821524480E+02  0.31759897717E+02  0.40659141423E+02  0.00000000000E+00 0. -1.
         11    1    3    3    0    0  0.54692697742E+00 -0.19447494353E+02 -0.10992220960E+02  0.22345762185E+02  0.51100000000E-03 0. -1.
        -11    1    3    3    0    0  0.96548131356E+00 -0.65146696041E+01 -0.19401549083E+02  0.20488855051E+02  0.51100000000E-03 0.  1.
         12    1    3    3    0    0  0.72631059213E+01  0.21406394765E+01 -0.13661276736E+01  0.76942413410E+01  0.00000000000E+00 0. -1.
</event>
<event>
 7    1  0.2966651E-011  0.5052886E+02  0.7816164E-02  0.1300439E+00
        -11   -1    0    0    0    0  0.00000000000E+00  0.00000000000E+00  0.45593999997E+02  0.45594000000E+02  0.51100000000E-03 0.  1.
         11   -1    0    0    0    0 -0.00000000000E+00 -0.00000000000E+00 -0.45593999997E+02  0.45594000000E+02  0.51100000000E-03 0. -1.
    9900012    2    1    2    0    0  0.12270930034E+02 -0.25859899996E+02  0.28876552254E+02  0.50528862998E+02  0.30000009568E+02 0.  0.
         12    1    1    2    0    0 -0.12270930034E+02  0.25859899996E+02 -0.28876552254E+02  0.40659137002E+02  0.00000000000E+00 0. -1.
         11    1    3    3    0    0  0.12609615338E+02 -0.18493411833E+02  0.23796349562E+02  0.32669174047E+02  0.51100000000E-03 0. -1.
        -11    1    3    3    0    0  0.36766141733E+00 -0.10788092028E+02 -0.10068890508E+01  0.10841214431E+02  0.51100000000E-03 0.  1.
         12    1    3    3    0    0 -0.70634672134E+00  0.34216038649E+01  0.60870917427E+01  0.70184745197E+01  0.00000000000E+00 0. -1.
</event>
<event>
 7    1  0.2966651E-011  0.5052886E+02  0.7816164E-02  0.1300439E+00
        -11   -1    0    0    0    0  0.00000000000E+00  0.00000000000E+00  0.45593999997E+02  0.45594000000E+02  0.51100000000E-03 0. -1.
         11   -1    0    0    0    0 -0.00000000000E+00 -0.00000000000E+00 -0.45593999997E+02  0.45594000000E+02  0.51100000000E-03 0.  1.
    9900012    2    1    2    0    0  0.15509095685E+01  0.32073974021E+02 -0.24940338619E+02  0.50528860555E+02  0.30000002142E+02 0.  0.
         12    1    1    2    0    0 -0.15509095685E+01 -0.32073974021E+02  0.24940338619E+02  0.40659139445E+02  0.00000000000E+00 0. -1.
         11    1    3    3    0    0  0.83161383558E+01  0.15100684309E+02 -0.11973336868E+02  0.20989273922E+02  0.51100000000E-03 0.  1.
        -11    1    3    3    0    0 -0.10990247254E+02  0.54623046521E+01 -0.12119717384E+02  0.17248474035E+02  0.51100000000E-03 0. -1.
         12    1    3    3    0    0  0.42250184666E+01  0.11510985060E+02 -0.84728436791E+00  0.12291112598E+02  0.00000000000E+00 0. -1.
</event>
<event>
 7    1  0.2966651E-011  0.5052886E+02  0.7816164E-02  0.1300439E+00
        -11   -1    0    0    0    0  0.00000000000E+00  0.00000000000E+00  0.45593999997E+02  0.45594000000E+02  0.51100000000E-03 0. -1.
         11   -1    0    0    0    0 -0.00000000000E+00 -0.00000000000E+00 -0.45593999997E+02  0.45594000000E+02  0.51100000000E-03 0.  1.
    9900012    2    1    2    0    0 -0.13208430039E+02 -0.25113600329E+02 -0.29120616521E+02  0.50528857705E+02  0.29999993481E+02 0.  0.
         12    1    1    2    0    0  0.13208430039E+02  0.25113600329E+02  0.29120616521E+02  0.40659142295E+02  0.00000000000E+00 0. -1.
         11    1    3    3    0    0 -0.83387632000E+01 -0.28028426730E+01 -0.13723291240E+02  0.16300908609E+02  0.51100000000E-03 0.  1.
        -11    1    3    3    0    0  0.57641773850E+01 -0.15390080395E+01  0.50769991285E+00  0.59876578170E+01  0.51100000000E-03 0. -1.
         12    1    3    3    0    0 -0.10633844224E+02 -0.20771749617E+02 -0.15905025194E+02  0.28240291279E+02  0.00000000000E+00 0. -1.
</event>
<event>
 7    1  0.2966651E-011  0.5052890E+02  0.7816164E-02  0.1300439E+00
        -11   -1    0    0    0    0  0.00000000000E+00  0.00000000000E+00  0.45593999997E+02  0.45594000000E+02  0.51100000000E-03 0.  1.
         11   -1    0    0    0    0 -0.00000000000E+00 -0.00000000000E+00 -0.45593999997E+02  0.45594000000E+02  0.51100000000E-03 0. -1.
    9900012    2    1    2    0    0 -0.20684305748E+02  0.13975575642E+02  0.32093689591E+02  0.50528903473E+02  0.30000132598E+02 0.  0.
         12    1    1    2    0    0  0.20684305748E+02 -0.13975575642E+02 -0.32093689591E+02  0.40659096527E+02  0.00000000000E+00 0. -1.
         11    1    3    3    0    0 -0.11565592053E+02 -0.49426549954E+01  0.20714855762E+02  0.24234232140E+02  0.51100000000E-03 0. -1.
        -11    1    3    3    0    0 -0.96877411094E+01  0.14885206883E+02  0.45340486552E+01  0.18329738384E+02  0.51100000000E-03 0.  1.
        -12    1    3    3    0    0  0.56902741495E+00  0.40330237546E+01  0.68447851740E+01  0.79649329490E+01  0.00000000000E+00 0.  1.
</event>
<event>
 7    1  0.4221221E-011  0.5052887E+02  0.7816164E-02  0.1300439E+00
        -11   -1    0    0    0    0  0.00000000000E+00  0.00000000000E+00  0.45593999997E+02  0.45594000000E+02  0.51100000000E-03 0. -1.
         11   -1    0    0    0    0 -0.00000000000E+00 -0.00000000000E+00 -0.45593999997E+02  0.45594000000E+02  0.51100000000E-03 0.  1.
    9900012    2    1    2    0    0  0.14650556341E+01 -0.40627070397E+02  0.67798824311E+00  0.50528869351E+02  0.30000028880E+02 0.  0.
         12    1    1    2    0    0 -0.14650556341E+01  0.40627070397E+02 -0.67798824311E+00  0.40659130649E+02  0.00000000000E+00 0. -1.
         11    1    3    3    0    0 -0.90944497257E+00 -0.69531621582E+01 -0.91152935634E+01  0.11500527430E+02  0.51100000000E-03 0.  1.
        -11    1    3    3    0    0 -0.48419876354E+01 -0.17910006107E+02  0.11137273628E+02  0.21639131848E+02  0.51100000000E-03 0. -1.
        -12    1    3    3    0    0  0.72164882421E+01 -0.15763902132E+02 -0.13439918214E+01  0.17389210073E+02  0.00000000000E+00 0.  1.
</event>
<event>
 7    1  0.2966651E-011  0.5052886E+02  0.7816164E-02  0.1300439E+00
        -11   -1    0    0    0    0  0.00000000000E+00  0.00000000000E+00  0.45593999997E+02  0.45594000000E+02  0.51100000000E-03 0. -1.
         11   -1    0    0    0    0 -0.00000000000E+00 -0.00000000000E+00 -0.45593999997E+02  0.45594000000E+02  0.51100000000E-03 0.  1.
    9900012    2    1    2    0    0  0.23747245971E+02 -0.24917768391E+02 -0.21641129952E+02  0.50528863531E+02  0.30000011189E+02 0.  0.
         12    1    1    2    0    0 -0.23747245971E+02  0.24917768391E+02  0.21641129952E+02  0.40659136469E+02  0.00000000000E+00 0. -1.
         11    1    3    3    0    0 -0.23595195823E+01 -0.60834956379E+01 -0.12604571518E+00  0.65262653654E+01  0.51100000000E-03 0. -1.
        -11    1    3    3    0    0  0.25266393165E+02 -0.81651399315E+01 -0.10245491593E+02  0.28461030057E+02  0.51100000000E-03 0.  1.
        -12    1    3    3    0    0  0.84037238826E+00 -0.10669132822E+02 -0.11269592644E+02  0.15541568109E+02  0.00000000000E+00 0.  1.
</event>
<event>
 7    1  0.2966651E-011  0.5052887E+02  0.7816164E-02  0.1300439E+00
        -11   -1    0    0    0    0  0.00000000000E+00  0.00000000000E+00  0.45593999997E+02  0.45594000000E+02  0.51100000000E-03 0.  1.
         11   -1    0    0    0    0 -0.00000000000E+00 -0.00000000000E+00 -0.45593999997E+02  0.45594000000E+02  0.51100000000E-03 0. -1.
    9900012    2    1    2    0    0  0.25879775840E+01 -0.38155993681E+02  0.13805340025E+02  0.50528869476E+02  0.30000029260E+02 0.  0.
         12    1    1    2    0    0 -0.25879775840E+01  0.38155993681E+02 -0.13805340025E+02  0.40659130524E+02  0.00000000000E+00 0. -1.
         11    1    3    3    0    0  0.30610029581E+01 -0.84183505352E+01  0.35991539230E+00  0.89648147886E+01  0.51100000000E-03 0. -1.
        -11    1    3    3    0    0 -0.48121318833E+01 -0.17947083594E+02  0.20078502932E+02  0.27356913259E+02  0.51100000000E-03 0.  1.
        -12    1    3    3    0    0  0.43391065091E+01 -0.11790559551E+02 -0.66330783000E+01  0.14207141428E+02  0.00000000000E+00 0.  1.
</event>
<event>
 7    1  0.2966651E-011  0.5052886E+02  0.7816164E-02  0.1300439E+00
        -11   -1    0    0    0    0  0.00000000000E+00  0.00000000000E+00  0.45593999997E+02  0.45594000000E+02  0.51100000000E-03 0.  1.
         11   -1    0    0    0    0 -0.00000000000E+00 -0.00000000000E+00 -0.45593999997E+02  0.45594000000E+02  0.51100000000E-03 0. -1.
    9900012    2    1    2    0    0  0.40266798226E+02  0.50328024990E+01 -0.25341081308E+01  0.50528857801E+02  0.29999993771E+02 0.  0.
         12    1    1    2    0    0 -0.40266798226E+02 -0.50328024990E+01  0.25341081308E+01  0.40659142199E+02  0.00000000000E+00 0. -1.
         11    1    3    3    0    0 -0.19875227767E+01 -0.51567892004E+01  0.23950122301E+01  0.60231889800E+01  0.51100000000E-03 0. -1.
        -11    1    3    3    0    0  0.14559879850E+02  0.75017030202E+01 -0.10559848346E+01  0.16412822843E+02  0.51100000000E-03 0.  1.
         12    1    3    3    0    0  0.27694441152E+02  0.26878886792E+01 -0.38731355263E+01  0.28092845977E+02  0.00000000000E+00 0. -1.
</event>
<event>
 7    1  0.2966651E-011  0.5052887E+02  0.7816164E-02  0.1300439E+00
        -11   -1    0    0    0    0  0.00000000000E+00  0.00000000000E+00  0.45593999997E+02  0.45594000000E+02  0.51100000000E-03 0.  1.
         11   -1    0    0    0    0 -0.00000000000E+00 -0.00000000000E+00 -0.45593999997E+02  0.45594000000E+02  0.51100000000E-03 0. -1.
    9900012    2    1    2    0    0 -0.37123292173E+01  0.11720235105E+02  0.38755902134E+02  0.50528865118E+02  0.30000016012E+02 0.  0.
         12    1    1    2    0    0  0.37123292173E+01 -0.11720235105E+02 -0.38755902134E+02  0.40659134882E+02  0.00000000000E+00 0. -1.
         11    1    3    3    0    0 -0.89748760495E+01 -0.34105662349E+01  0.10914115301E+02  0.14536102477E+02  0.51100000000E-03 0. -1.
        -11    1    3    3    0    0 -0.14484304948E+01  0.15961903872E+02  0.20269966341E+02  0.25840895144E+02  0.51100000000E-03 0.  1.
         12    1    3    3    0    0  0.67109773270E+01 -0.83110253256E+00  0.75718204926E+01  0.10151867497E+02  0.00000000000E+00 0. -1.
</event>
<event>
 7    1  0.2966651E-011  0.5052886E+02  0.7816164E-02  0.1300439E+00
        -11   -1    0    0    0    0  0.00000000000E+00  0.00000000000E+00  0.45593999997E+02  0.45594000000E+02  0.51100000000E-03 0.  1.
         11   -1    0    0    0    0 -0.00000000000E+00 -0.00000000000E+00 -0.45593999997E+02  0.45594000000E+02  0.51100000000E-03 0. -1.
    9900012    2    1    2    0    0 -0.25543839959E+02 -0.94779649617E+01  0.30180226453E+02  0.50528860210E+02  0.30000001095E+02 0.  0.
         12    1    1    2    0    0  0.25543839959E+02  0.94779649617E+01 -0.30180226453E+02  0.40659139790E+02  0.00000000000E+00 0. -1.
         11    1    3    3    0    0 -0.18985063669E+02  0.25197874728E+01  0.12953168580E+02  0.23120695230E+02  0.51100000000E-03 0.  1.
        -11    1    3    3    0    0 -0.94679148834E+01 -0.13127123076E+02  0.17986282680E+02  0.24196469524E+02  0.51100000000E-03 0. -1.
         12    1    3    3    0    0  0.29091385928E+01  0.11293706417E+01 -0.75922480656E+00  0.32116954565E+01  0.00000000000E+00 0. -1.
</event>
<event>
 7    1  0.2966651E-011  0.5052884E+02  0.7816164E-02  0.1300439E+00
        -11   -1    0    0    0    0  0.00000000000E+00  0.00000000000E+00  0.45593999997E+02  0.45594000000E+02  0.51100000000E-03 0.  1.
         11   -1    0    0    0    0 -0.00000000000E+00 -0.00000000000E+00 -0.45593999997E+02  0.45594000000E+02  0.51100000000E-03 0. -1.
    9900012    2    1    2    0    0 -0.39188244440E+02 -0.12269317471E+01  0.10767707502E+02  0.50528838810E+02  0.29999936047E+02 0.  0.
         12    1    1    2    0    0  0.39188244440E+02  0.12269317471E+01 -0.10767707502E+02  0.40659161190E+02  0.00000000000E+00 0. -1.
         11    1    3    3    0    0 -0.16831248063E+02 -0.68430422040E+01 -0.35079647078E+01  0.18504700879E+02  0.51100000000E-03 0. -1.
        -11    1    3    3    0    0 -0.16953827323E+02  0.11391230248E+02  0.12405293404E+02  0.23897357430E+02  0.51100000000E-03 0.  1.
         12    1    3    3    0    0 -0.54031690542E+01 -0.57751197908E+01  0.18703788055E+01  0.81267805005E+01  0.00000000000E+00 0. -1.
</event>
<event>
 7    1  0.2966651E-011  0.5052882E+02  0.7816164E-02  0.1300439E+00
        -11   -1    0    0    0    0  0.00000000000E+00  0.00000000000E+00  0.45593999997E+02  0.45594000000E+02  0.51100000000E-03 0.  1.
         11   -1    0    0    0    0 -0.00000000000E+00 -0.00000000000E+00 -0.45593999997E+02  0.45594000000E+02  0.51100000000E-03 0. -1.
    9900012    2    1    2    0    0 -0.36905397958E+02 -0.12102949603E+02 -0.12028257440E+02  0.50528821890E+02  0.29999884616E+02 0.  0.
         12    1    1    2    0    0  0.36905397958E+02  0.12102949603E+02  0.12028257440E+02  0.40659178110E+02  0.00000000000E+00 0. -1.
         11    1    3    3    0    0 -0.20526498258E+01  0.26898628493E+01  0.48567145130E+01  0.59191561541E+01  0.51100000000E-03 0. -1.
        -11    1    3    3    0    0 -0.27227609558E+02 -0.17293302709E+02 -0.93038746170E+01  0.33570271431E+02  0.51100000000E-03 0.  1.
        -12    1    3    3    0    0 -0.76251385742E+01  0.25004902560E+01 -0.75810973357E+01  0.11039394304E+02  0.00000000000E+00 0.  1.
</event>
<event>
 7    1  0.2966651E-011  0.5052887E+02  0.7816164E-02  0.1300439E+00
        -11   -1    0    0    0    0  0.00000000000E+00  0.00000000000E+00  0.45593999997E+02  0.45594000000E+02  0.51100000000E-03 0.  1.
         11   -1    0    0    0    0 -0.00000000000E+00 -0.00000000000E+00 -0.45593999997E+02  0.45594000000E+02  0.51100000000E-03 0. -1.
    9900012    2    1    2    0    0  0.33133597384E+02 -0.23191343147E+02 -0.41822353499E+01  0.50528871073E+02  0.30000034114E+02 0.  0.
         12    1    1    2    0    0 -0.33133597384E+02  0.23191343147E+02  0.41822353499E+01  0.40659128927E+02  0.00000000000E+00 0. -1.
         11    1    3    3    0    0  0.12661978038E+02 -0.22297525373E+02 -0.93972426843E+01  0.27309586154E+02  0.51100000000E-03 0. -1.
        -11    1    3    3    0    0  0.15963271647E+02 -0.21318737685E+01 -0.14648803879E+00  0.16105663179E+02  0.51100000000E-03 0.  1.
         12    1    3    3    0    0  0.45083476989E+01  0.12380559939E+01  0.53614953732E+01  0.71136217396E+01  0.00000000000E+00 0. -1.
</event>
<event>
 7    1  0.2966651E-011  0.5052886E+02  0.7816164E-02  0.1300439E+00
        -11   -1    0    0    0    0  0.00000000000E+00  0.00000000000E+00  0.45593999997E+02  0.45594000000E+02  0.51100000000E-03 0.  1.
         11   -1    0    0    0    0 -0.00000000000E+00 -0.00000000000E+00 -0.45593999997E+02  0.45594000000E+02  0.51100000000E-03 0. -1.
    9900012    2    1    2    0    0 -0.13427880889E+02 -0.26689894875E+02  0.27577297689E+02  0.50528858082E+02  0.29999994627E+02 0.  0.
         12    1    1    2    0    0  0.13427880889E+02  0.26689894875E+02 -0.27577297689E+02  0.40659141918E+02  0.00000000000E+00 0. -1.
         11    1    3    3    0    0 -0.66386431628E+01 -0.16382719992E+02  0.68581437919E+00  0.17689981317E+02  0.51100000000E-03 0.  1.
        -11    1    3    3    0    0 -0.45286190904E+01 -0.74495897148E+01  0.27756936686E+02  0.29093853513E+02  0.51100000000E-03 0. -1.
         12    1    3    3    0    0 -0.22606186357E+01 -0.28575851684E+01 -0.86545337588E+00  0.37450232518E+01  0.00000000000E+00 0. -1.
</event>
<event>
 7    1  0.2966651E-011  0.5052884E+02  0.7816164E-02  0.1300439E+00
        -11   -1    0    0    0    0  0.00000000000E+00  0.00000000000E+00  0.45593999997E+02  0.45594000000E+02  0.51100000000E-03 0. -1.
         11   -1    0    0    0    0 -0.00000000000E+00 -0.00000000000E+00 -0.45593999997E+02  0.45594000000E+02  0.51100000000E-03 0.  1.
    9900012    2    1    2    0    0  0.50258096047E+01  0.70749660140E+01 -0.39722198812E+02  0.50528843777E+02  0.29999951146E+02 0.  0.
         12    1    1    2    0    0 -0.50258096047E+01 -0.70749660140E+01  0.39722198812E+02  0.40659156223E+02  0.00000000000E+00 0. -1.
         11    1    3    3    0    0  0.20561760185E+01  0.14389574783E+02 -0.10056819120E+02  0.17675614086E+02  0.51100000000E-03 0. -1.
        -11    1    3    3    0    0 -0.28227749778E+01 -0.61309043731E+01 -0.22873928830E+02  0.23848955269E+02  0.51100000000E-03 0.  1.
         12    1    3    3    0    0  0.57924085640E+01 -0.11837043959E+01 -0.67914508619E+01  0.90042744227E+01  0.00000000000E+00 0. -1.
</event>
<event>
 7    1  0.2966651E-011  0.5052884E+02  0.7816164E-02  0.1300439E+00
        -11   -1    0    0    0    0  0.00000000000E+00  0.00000000000E+00  0.45593999997E+02  0.45594000000E+02  0.51100000000E-03 0.  1.
         11   -1    0    0    0    0 -0.00000000000E+00 -0.00000000000E+00 -0.45593999997E+02  0.45594000000E+02  0.51100000000E-03 0. -1.
    9900012    2    1    2    0    0  0.13873557956E+02  0.13239252457E+02  0.35852666960E+02  0.50528841818E+02  0.29999945188E+02 0.  0.
         12    1    1    2    0    0 -0.13873557956E+02 -0.13239252457E+02 -0.35852666960E+02  0.40659158182E+02  0.00000000000E+00 0. -1.
         11    1    3    3    0    0 -0.55428869714E+00 -0.27944138471E+01  0.22749570582E+02  0.22927253360E+02  0.51100000000E-03 0. -1.
        -11    1    3    3    0    0  0.12800928923E+01  0.29414339526E+01  0.75982830750E+01  0.82477013439E+01  0.51100000000E-03 0.  1.
         12    1    3    3    0    0  0.13147753761E+02  0.13092232352E+02  0.55048133030E+01  0.19353887114E+02  0.00000000000E+00 0. -1.
</event>
<event>
 7    1  0.2966651E-011  0.5052885E+02  0.7816164E-02  0.1300439E+00
        -11   -1    0    0    0    0  0.00000000000E+00  0.00000000000E+00  0.45593999997E+02  0.45594000000E+02  0.51100000000E-03 0.  1.
         11   -1    0    0    0    0 -0.00000000000E+00 -0.00000000000E+00 -0.45593999997E+02  0.45594000000E+02  0.51100000000E-03 0. -1.
    9900012    2    1    2    0    0 -0.25687197567E+02 -0.30085156099E+02  0.93924103155E+01  0.50528854560E+02  0.29999983922E+02 0.  0.
         12    1    1    2    0    0  0.25687197567E+02  0.30085156099E+02 -0.93924103155E+01  0.40659145440E+02  0.00000000000E+00 0. -1.
         11    1    3    3    0    0 -0.76602831381E+01 -0.52698025886E+01 -0.66832785531E+01  0.11450631841E+02  0.51100000000E-03 0. -1.
        -11    1    3    3    0    0 -0.21410817785E+02 -0.22999214964E+02  0.15942046132E+02  0.35235434471E+02  0.51100000000E-03 0.  1.
        -12    1    3    3    0    0  0.33839033561E+01 -0.18161385456E+01  0.13364273636E+00  0.38427882483E+01  0.00000000000E+00 0.  1.
</event>
<event>
 7    1  0.2966651E-011  0.5052886E+02  0.7816164E-02  0.1300439E+00
        -11   -1    0    0    0    0  0.00000000000E+00  0.00000000000E+00  0.45593999997E+02  0.45594000000E+02  0.51100000000E-03 0.  1.
         11   -1    0    0    0    0 -0.00000000000E+00 -0.00000000000E+00 -0.45593999997E+02  0.45594000000E+02  0.51100000000E-03 0. -1.
    9900012    2    1    2    0    0 -0.21748441695E+02 -0.34176382373E+02 -0.34850917943E+01  0.50528859662E+02  0.29999999428E+02 0.  0.
         12    1    1    2    0    0  0.21748441695E+02  0.34176382373E+02  0.34850917943E+01  0.40659140338E+02  0.00000000000E+00 0. -1.
         11    1    3    3    0    0  0.34794554672E+01  0.24902783501E+01 -0.34214041322E+01  0.54785128554E+01  0.51100000000E-03 0. -1.
        -11    1    3    3    0    0 -0.13591126831E+02 -0.23514613994E+02 -0.26951896208E+01  0.27293219803E+02  0.51100000000E-03 0.  1.
         12    1    3    3    0    0 -0.11636770331E+02 -0.13152046728E+02  0.26315019588E+01  0.17757127004E+02  0.00000000000E+00 0. -1.
</event>
<event>
 7    1  0.2966651E-011  0.5052886E+02  0.7816164E-02  0.1300439E+00
        -11   -1    0    0    0    0  0.00000000000E+00  0.00000000000E+00  0.45593999997E+02  0.45594000000E+02  0.51100000000E-03 0.  1.
         11   -1    0    0    0    0 -0.00000000000E+00 -0.00000000000E+00 -0.45593999997E+02  0.45594000000E+02  0.51100000000E-03 0. -1.
    9900012    2    1    2    0    0  0.36861689153E+02  0.10888711246E+02  0.13259630152E+02  0.50528856483E+02  0.29999989765E+02 0.  0.
         12    1    1    2    0    0 -0.36861689153E+02 -0.10888711246E+02 -0.13259630152E+02  0.40659143517E+02  0.00000000000E+00 0. -1.
         11    1    3    3    0    0  0.13471819588E+02 -0.43542800728E+01  0.23456890012E+01  0.14351025577E+02  0.51100000000E-03 0. -1.
        -11    1    3    3    0    0  0.21870259592E+02  0.17127554448E+02  0.30453284469E+01  0.27945221445E+02  0.51100000000E-03 0.  1.
        -12    1    3    3    0    0  0.15196099729E+01 -0.18845631290E+01  0.78686127035E+01  0.82326094608E+01  0.00000000000E+00 0.  1.
</event>
<event>
 7    1  0.2966651E-011  0.5052887E+02  0.7816164E-02  0.1300439E+00
        -11   -1    0    0    0    0  0.00000000000E+00  0.00000000000E+00  0.45593999997E+02  0.45594000000E+02  0.51100000000E-03 0. -1.
         11   -1    0    0    0    0 -0.00000000000E+00 -0.00000000000E+00 -0.45593999997E+02  0.45594000000E+02  0.51100000000E-03 0.  1.
    9900012    2    1    2    0    0  0.12571860651E+02 -0.25434285482E+02 -0.29124048449E+02  0.50528871182E+02  0.30000034444E+02 0.  0.
         12    1    1    2    0    0 -0.12571860651E+02  0.25434285482E+02  0.29124048449E+02  0.40659128818E+02  0.00000000000E+00 0. -1.
         11    1    3    3    0    0  0.19090470702E+02 -0.13715586043E+02 -0.20294240969E+02  0.31055105682E+02  0.51100000000E-03 0. -1.
        -11    1    3    3    0    0 -0.50556610738E+01 -0.16508907061E+01 -0.75281680747E+01  0.92172915674E+01  0.51100000000E-03 0.  1.
         12    1    3    3    0    0 -0.14629489773E+01 -0.10067808732E+02 -0.13016394050E+01  0.10256473932E+02  0.00000000000E+00 0. -1.
</event>
<event>
 7    1  0.2966651E-011  0.5052886E+02  0.7816164E-02  0.1300439E+00
        -11   -1    0    0    0    0  0.00000000000E+00  0.00000000000E+00  0.45593999997E+02  0.45594000000E+02  0.51100000000E-03 0.  1.
         11   -1    0    0    0    0 -0.00000000000E+00 -0.00000000000E+00 -0.45593999997E+02  0.45594000000E+02  0.51100000000E-03 0. -1.
    9900012    2    1    2    0    0  0.21506576086E+02  0.40821593635E+01  0.34263226247E+02  0.50528861878E+02  0.30000006164E+02 0.  0.
         12    1    1    2    0    0 -0.21506576086E+02 -0.40821593635E+01 -0.34263226247E+02  0.40659138122E+02  0.00000000000E+00 0. -1.
         11    1    3    3    0    0 -0.59259140798E+01  0.39673402486E+01  0.39635044875E+01  0.81587753010E+01  0.51100000000E-03 0. -1.
        -11    1    3    3    0    0  0.10241543605E+02  0.35129000580E+01  0.59020695458E+01  0.12331427630E+02  0.51100000000E-03 0.  1.
         12    1    3    3    0    0  0.17190946561E+02 -0.33980809431E+01  0.24397652213E+02  0.30038658946E+02  0.00000000000E+00 0. -1.
</event>
<event>
 7    1  0.2966651E-011  0.5052886E+02  0.7816164E-02  0.1300439E+00
        -11   -1    0    0    0    0  0.00000000000E+00  0.00000000000E+00  0.45593999997E+02  0.45594000000E+02  0.51100000000E-03 0.  1.
         11   -1    0    0    0    0 -0.00000000000E+00 -0.00000000000E+00 -0.45593999997E+02  0.45594000000E+02  0.51100000000E-03 0. -1.
    9900012    2    1    2    0    0 -0.29879077445E+02 -0.26552866532E+02  0.74398764500E+01  0.50528858941E+02  0.29999997238E+02 0.  0.
         12    1    1    2    0    0  0.29879077445E+02  0.26552866532E+02 -0.74398764500E+01  0.40659141059E+02  0.00000000000E+00 0. -1.
         11    1    3    3    0    0 -0.14899955148E+01  0.12438091383E+01 -0.47443039882E+01  0.51259699960E+01  0.51100000000E-03 0. -1.
        -11    1    3    3    0    0 -0.18350504578E+02 -0.27310779384E+02  0.55697518989E+01  0.33371272455E+02  0.51100000000E-03 0.  1.
        -12    1    3    3    0    0 -0.10038577353E+02 -0.48589628660E+00  0.66144285393E+01  0.12031616490E+02  0.00000000000E+00 0.  1.
</event>
<event>
 7    1  0.2966651E-011  0.5052886E+02  0.7816164E-02  0.1300439E+00
        -11   -1    0    0    0    0  0.00000000000E+00  0.00000000000E+00  0.45593999997E+02  0.45594000000E+02  0.51100000000E-03 0. -1.
         11   -1    0    0    0    0 -0.00000000000E+00 -0.00000000000E+00 -0.45593999997E+02  0.45594000000E+02  0.51100000000E-03 0.  1.
    9900012    2    1    2    0    0 -0.38151217364E+02 -0.75499951634E+01 -0.11859512964E+02  0.50528857596E+02  0.29999993148E+02 0.  0.
         12    1    1    2    0    0  0.38151217364E+02  0.75499951634E+01  0.11859512964E+02  0.40659142404E+02  0.00000000000E+00 0. -1.
         11    1    3    3    0    0 -0.10233460796E+02 -0.22822420128E+01  0.65446956295E+01  0.12359829676E+02  0.51100000000E-03 0. -1.
        -11    1    3    3    0    0 -0.22869176882E+02  0.24566630749E+01 -0.82188369268E+01  0.24425063468E+02  0.51100000000E-03 0.  1.
         12    1    3    3    0    0 -0.50485796856E+01 -0.77244162255E+01 -0.10185371667E+02  0.13743964452E+02  0.00000000000E+00 0. -1.
</event>
<event>
 7    1  0.2966651E-011  0.5052887E+02  0.7816164E-02  0.1300439E+00
        -11   -1    0    0    0    0  0.00000000000E+00  0.00000000000E+00  0.45593999997E+02  0.45594000000E+02  0.51100000000E-03 0. -1.
         11   -1    0    0    0    0 -0.00000000000E+00 -0.00000000000E+00 -0.45593999997E+02  0.45594000000E+02  0.51100000000E-03 0.  1.
    9900012    2    1    2    0    0 -0.36781388423E+02  0.16823604563E+02 -0.41545957339E+01  0.50528869776E+02  0.30000030172E+02 0.  0.
         12    1    1    2    0    0  0.36781388423E+02 -0.16823604563E+02  0.41545957339E+01  0.40659130224E+02  0.00000000000E+00 0. -1.
         11    1    3    3    0    0 -0.27785327130E+02  0.51214577192E+01  0.59321816826E+01  0.28869439078E+02  0.51100000000E-03 0.  1.
        -11    1    3    3    0    0 -0.18354845300E+01  0.10783812265E+02 -0.93724632974E+01  0.14404953279E+02  0.51100000000E-03 0. -1.
         12    1    3    3    0    0 -0.71605767632E+01  0.91833457871E+00 -0.71431411914E+00  0.72544774202E+01  0.00000000000E+00 0. -1.
</event>
<event>
 7    1  0.2966651E-011  0.5052886E+02  0.7816164E-02  0.1300439E+00
        -11   -1    0    0    0    0  0.00000000000E+00  0.00000000000E+00  0.45593999997E+02  0.45594000000E+02  0.51100000000E-03 0. -1.
         11   -1    0    0    0    0 -0.00000000000E+00 -0.00000000000E+00 -0.45593999997E+02  0.45594000000E+02  0.51100000000E-03 0.  1.
    9900012    2    1    2    0    0 -0.24186653201E+02  0.12376521894E+01 -0.32659450152E+02  0.50528860066E+02  0.30000000656E+02 0.  0.
         12    1    1    2    0    0  0.24186653201E+02 -0.12376521894E+01  0.32659450152E+02  0.40659139934E+02  0.00000000000E+00 0. -1.
         11    1    3    3    0    0 -0.46016609704E+00  0.86990575607E+01 -0.41068909552E+01  0.96307792447E+01  0.51100000000E-03 0. -1.
        -11    1    3    3    0    0 -0.65684819035E+01 -0.99248356783E+01 -0.12757207623E+02  0.17446881221E+02  0.51100000000E-03 0.  1.
        -12    1    3    3    0    0 -0.17158005200E+02  0.24634303071E+01 -0.15795351574E+02  0.23451199600E+02  0.00000000000E+00 0.  1.
</event>
<event>
 7    1  0.2966651E-011  0.5052883E+02  0.7816164E-02  0.1300439E+00
        -11   -1    0    0    0    0  0.00000000000E+00  0.00000000000E+00  0.45593999997E+02  0.45594000000E+02  0.51100000000E-03 0. -1.
         11   -1    0    0    0    0 -0.00000000000E+00 -0.00000000000E+00 -0.45593999997E+02  0.45594000000E+02  0.51100000000E-03 0.  1.
    9900012    2    1    2    0    0 -0.16289390760E+02 -0.35645444770E+02 -0.10827108203E+02  0.50528828142E+02  0.29999903620E+02 0.  0.
         12    1    1    2    0    0  0.16289390760E+02  0.35645444770E+02  0.10827108203E+02  0.40659171858E+02  0.00000000000E+00 0. -1.
         11    1    3    3    0    0 -0.82176696320E+01 -0.16372602960E+02  0.68352192470E+01  0.19552811672E+02  0.51100000000E-03 0. -1.
        -11    1    3    3    0    0 -0.10427160273E+02 -0.16298935384E+02 -0.18837660367E+02  0.27004414720E+02  0.51100000000E-03 0.  1.
        -12    1    3    3    0    0  0.23554391457E+01 -0.29739064255E+01  0.11753329163E+01  0.39716017501E+01  0.00000000000E+00 0.  1.
</event>
<event>
 7    1  0.2966651E-011  0.5052887E+02  0.7816164E-02  0.1300439E+00
        -11   -1    0    0    0    0  0.00000000000E+00  0.00000000000E+00  0.45593999997E+02  0.45594000000E+02  0.51100000000E-03 0.  1.
         11   -1    0    0    0    0 -0.00000000000E+00 -0.00000000000E+00 -0.45593999997E+02  0.45594000000E+02  0.51100000000E-03 0. -1.
    9900012    2    1    2    0    0 -0.39253006876E+02 -0.95198358936E+01 -0.46625367324E+01  0.50528867287E+02  0.30000022604E+02 0.  0.
         12    1    1    2    0    0  0.39253006876E+02  0.95198358936E+01  0.46625367324E+01  0.40659132713E+02  0.00000000000E+00 0. -1.
         11    1    3    3    0    0 -0.11875400778E+02 -0.13082220378E+02  0.56122681770E+00  0.17677234214E+02  0.51100000000E-03 0. -1.
        -11    1    3    3    0    0 -0.21749553507E+02  0.37545092423E+01 -0.11106368148E+02  0.24708112658E+02  0.51100000000E-03 0.  1.
        -12    1    3    3    0    0 -0.56280525914E+01 -0.19212475778E+00  0.58826045982E+01  0.81435204152E+01  0.00000000000E+00 0.  1.
</event>
<event>
 7    1  0.2966651E-011  0.5052886E+02  0.7816164E-02  0.1300439E+00
        -11   -1    0    0    0    0  0.00000000000E+00  0.00000000000E+00  0.45593999997E+02  0.45594000000E+02  0.51100000000E-03 0.  1.
         11   -1    0    0    0    0 -0.00000000000E+00 -0.00000000000E+00 -0.45593999997E+02  0.45594000000E+02  0.51100000000E-03 0. -1.
    9900012    2    1    2    0    0  0.67604355674E+01 -0.39887247979E+02  0.40582846392E+01  0.50528859397E+02  0.29999998623E+02 0.  0.
         12    1    1    2    0    0 -0.67604355674E+01  0.39887247979E+02 -0.40582846392E+01  0.40659140603E+02  0.00000000000E+00 0. -1.
         11    1    3    3    0    0  0.72587626408E+01 -0.24852293627E+02 -0.86574902624E+01  0.27299785191E+02  0.51100000000E-03 0. -1.
        -11    1    3    3    0    0 -0.21197131580E+01 -0.14668439169E+02  0.14539235630E+02  0.20761639253E+02  0.51100000000E-03 0.  1.
        -12    1    3    3    0    0  0.16213860846E+01 -0.36651518303E+00 -0.18234607284E+01  0.24674349521E+01  0.00000000000E+00 0.  1.
</event>
<event>
 7    1  0.2966651E-011  0.5052886E+02  0.7816164E-02  0.1300439E+00
        -11   -1    0    0    0    0  0.00000000000E+00  0.00000000000E+00  0.45593999997E+02  0.45594000000E+02  0.51100000000E-03 0.  1.
         11   -1    0    0    0    0 -0.00000000000E+00 -0.00000000000E+00 -0.45593999997E+02  0.45594000000E+02  0.51100000000E-03 0. -1.
    9900012    2    1    2    0    0  0.35784173656E+02  0.19047758878E+02 -0.31370553396E+01  0.50528864265E+02  0.30000013419E+02 0.  0.
         12    1    1    2    0    0 -0.35784173656E+02 -0.19047758878E+02  0.31370553396E+01  0.40659135735E+02  0.00000000000E+00 0. -1.
         11    1    3    3    0    0  0.30702865414E+02  0.16303866934E+02 -0.71978780857E+01  0.35500584091E+02  0.51100000000E-03 0. -1.
        -11    1    3    3    0    0  0.74651138074E+01  0.53250357816E+01  0.60548001752E+01  0.10988381849E+02  0.51100000000E-03 0.  1.
         12    1    3    3    0    0 -0.23838055652E+01 -0.25811438376E+01 -0.19939774291E+01  0.40398983243E+01  0.00000000000E+00 0. -1.
</event>
<event>
 7    1  0.2966651E-011  0.5052880E+02  0.7816164E-02  0.1300439E+00
        -11   -1    0    0    0    0  0.00000000000E+00  0.00000000000E+00  0.45593999997E+02  0.45594000000E+02  0.51100000000E-03 0.  1.
         11   -1    0    0    0    0 -0.00000000000E+00 -0.00000000000E+00 -0.45593999997E+02  0.45594000000E+02  0.51100000000E-03 0. -1.
    9900012    2    1    2    0    0  0.17907951010E+02  0.64619683363E+01  0.35926579183E+02  0.50528796417E+02  0.29999807190E+02 0.  0.
         12    1    1    2    0    0 -0.17907951010E+02 -0.64619683363E+01 -0.35926579183E+02  0.40659203583E+02  0.00000000000E+00 0. -1.
         11    1    3    3    0    0  0.34911428882E+01  0.13316543264E+02  0.89570812102E+01  0.16423997907E+02  0.51100000000E-03 0. -1.
        -11    1    3    3    0    0  0.14696787518E+02 -0.87820763387E+00  0.21054091217E+02  0.25691274185E+02  0.51100000000E-03 0.  1.
        -12    1    3    3    0    0 -0.27997939622E+00 -0.59763672940E+01  0.59154067563E+01  0.84135243262E+01  0.00000000000E+00 0.  1.
</event>
<event>
 7    1  0.2966651E-011  0.5052886E+02  0.7816164E-02  0.1300439E+00
        -11   -1    0    0    0    0  0.00000000000E+00  0.00000000000E+00  0.45593999997E+02  0.45594000000E+02  0.51100000000E-03 0. -1.
         11   -1    0    0    0    0 -0.00000000000E+00 -0.00000000000E+00 -0.45593999997E+02  0.45594000000E+02  0.51100000000E-03 0.  1.
    9900012    2    1    2    0    0 -0.37849887360E+01 -0.26271463237E+02  0.30800159748E+02  0.50528858828E+02  0.29999996893E+02 0.  0.
         12    1    1    2    0    0  0.37849887360E+01  0.26271463237E+02 -0.30800159748E+02  0.40659141172E+02  0.00000000000E+00 0. -1.
         11    1    3    3    0    0 -0.49769198540E+01 -0.15092464573E+02  0.24938580348E+02  0.29571692684E+02  0.51100000000E-03 0. -1.
        -11    1    3    3    0    0  0.43882853795E+01 -0.68080024626E+01 -0.45000715370E+01  0.92658831312E+01  0.51100000000E-03 0.  1.
        -12    1    3    3    0    0 -0.31963542615E+01 -0.43709962017E+01  0.10361650937E+02  0.11691283013E+02  0.00000000000E+00 0.  1.
</event>
<event>
 7    1  0.2966651E-011  0.5052888E+02  0.7816164E-02  0.1300439E+00
        -11   -1    0    0    0    0  0.00000000000E+00  0.00000000000E+00  0.45593999997E+02  0.45594000000E+02  0.51100000000E-03 0.  1.
         11   -1    0    0    0    0 -0.00000000000E+00 -0.00000000000E+00 -0.45593999997E+02  0.45594000000E+02  0.51100000000E-03 0. -1.
    9900012    2    1    2    0    0  0.22781394217E+02  0.10797386081E+02  0.31899665565E+02  0.50528878861E+02  0.30000057787E+02 0.  0.
         12    1    1    2    0    0 -0.22781394217E+02 -0.10797386081E+02 -0.31899665565E+02  0.40659121139E+02  0.00000000000E+00 0. -1.
         11    1    3    3    0    0  0.12615988038E+01 -0.15802084794E+01  0.14915021242E+01  0.25126219827E+01  0.51100000000E-03 0. -1.
        -11    1    3    3    0    0  0.23571981984E+02  0.31441099206E+01  0.10540816208E+02  0.26012161933E+02  0.51100000000E-03 0.  1.
        -12    1    3    3    0    0 -0.20521865713E+01  0.92334846397E+01  0.19867347232E+02  0.22004094945E+02  0.00000000000E+00 0.  1.
</event>
<event>
 7    1  0.2966651E-011  0.5052886E+02  0.7816164E-02  0.1300439E+00
        -11   -1    0    0    0    0  0.00000000000E+00  0.00000000000E+00  0.45593999997E+02  0.45594000000E+02  0.51100000000E-03 0.  1.
         11   -1    0    0    0    0 -0.00000000000E+00 -0.00000000000E+00 -0.45593999997E+02  0.45594000000E+02  0.51100000000E-03 0. -1.
    9900012    2    1    2    0    0  0.91033542301E+01  0.35362219125E+01  0.39468841588E+02  0.50528863512E+02  0.30000011130E+02 0.  0.
         12    1    1    2    0    0 -0.91033542301E+01 -0.35362219125E+01 -0.39468841588E+02  0.40659136488E+02  0.00000000000E+00 0. -1.
         11    1    3    3    0    0  0.53112483565E+00  0.14266877299E+02  0.10778456691E+02  0.17888572060E+02  0.51100000000E-03 0. -1.
        -11    1    3    3    0    0  0.85618138452E+01 -0.67664450363E+01  0.24758544479E+02  0.27056883777E+02  0.51100000000E-03 0.  1.
         12    1    3    3    0    0  0.10415549249E-01 -0.39642103501E+01  0.39318404178E+01  0.55834076741E+01  0.00000000000E+00 0. -1.
</event>
<event>
 7    1  0.2966651E-011  0.5052886E+02  0.7816164E-02  0.1300439E+00
        -11   -1    0    0    0    0  0.00000000000E+00  0.00000000000E+00  0.45593999997E+02  0.45594000000E+02  0.51100000000E-03 0. -1.
         11   -1    0    0    0    0 -0.00000000000E+00 -0.00000000000E+00 -0.45593999997E+02  0.45594000000E+02  0.51100000000E-03 0.  1.
    9900012    2    1    2    0    0  0.13490159223E+02 -0.32006489975E+02  0.21136837315E+02  0.50528859723E+02  0.29999999614E+02 0.  0.
         12    1    1    2    0    0 -0.13490159223E+02  0.32006489975E+02 -0.21136837315E+02  0.40659140277E+02  0.00000000000E+00 0. -1.
         11    1    3    3    0    0  0.12184740214E+02 -0.20132788253E+02  0.19974369144E+02  0.30867012812E+02  0.51100000000E-03 0.  1.
        -11    1    3    3    0    0 -0.66974127933E+01 -0.44742948503E+01 -0.20265439922E+01  0.83055122265E+01  0.51100000000E-03 0. -1.
         12    1    3    3    0    0  0.80028318023E+01 -0.73994068710E+01  0.31890121633E+01  0.11356334685E+02  0.00000000000E+00 0. -1.
</event>
<event>
 7    1  0.2966651E-011  0.5052880E+02  0.7816164E-02  0.1300439E+00
        -11   -1    0    0    0    0  0.00000000000E+00  0.00000000000E+00  0.45593999997E+02  0.45594000000E+02  0.51100000000E-03 0. -1.
         11   -1    0    0    0    0 -0.00000000000E+00 -0.00000000000E+00 -0.45593999997E+02  0.45594000000E+02  0.51100000000E-03 0.  1.
    9900012    2    1    2    0    0 -0.35644733773E+02 -0.12553551655E+02 -0.15001066213E+02  0.50528798183E+02  0.29999812555E+02 0.  0.
         12    1    1    2    0    0  0.35644733773E+02  0.12553551655E+02  0.15001066213E+02  0.40659201817E+02  0.00000000000E+00 0. -1.
         11    1    3    3    0    0 -0.17492823108E+02  0.15237641233E+01 -0.69868500899E+01  0.18898063176E+02  0.51100000000E-03 0.  1.
        -11    1    3    3    0    0 -0.16776380739E+02 -0.10227039286E+02  0.30060049132E+01  0.19876502435E+02  0.51100000000E-03 0. -1.
        -12    1    3    3    0    0 -0.13755299263E+01 -0.38502764922E+01 -0.11020221036E+02  0.11754232571E+02  0.00000000000E+00 0.  1.
</event>
<event>
 7    1  0.2966651E-011  0.5052891E+02  0.7816164E-02  0.1300439E+00
        -11   -1    0    0    0    0  0.00000000000E+00  0.00000000000E+00  0.45593999997E+02  0.45594000000E+02  0.51100000000E-03 0. -1.
         11   -1    0    0    0    0 -0.00000000000E+00 -0.00000000000E+00 -0.45593999997E+02  0.45594000000E+02  0.51100000000E-03 0.  1.
    9900012    2    1    2    0    0 -0.35679720198E+02 -0.28000258022E+01 -0.19294536494E+02  0.50528908564E+02  0.30000148070E+02 0.  0.
         12    1    1    2    0    0  0.35679720198E+02  0.28000258022E+01  0.19294536494E+02  0.40659091436E+02  0.00000000000E+00 0. -1.
         11    1    3    3    0    0 -0.18585768950E+02 -0.65635824840E+00  0.20762461878E+01  0.18712894274E+02  0.51100000000E-03 0. -1.
        -11    1    3    3    0    0 -0.10640312054E+01 -0.56048566589E+01 -0.11059855067E+02  0.12444556036E+02  0.51100000000E-03 0.  1.
        -12    1    3    3    0    0 -0.16029920043E+02  0.34611891051E+01 -0.10310927615E+02  0.19371458253E+02  0.00000000000E+00 0.  1.
</event>
<event>
 7    1  0.2966651E-011  0.5052889E+02  0.7816164E-02  0.1300439E+00
        -11   -1    0    0    0    0  0.00000000000E+00  0.00000000000E+00  0.45593999997E+02  0.45594000000E+02  0.51100000000E-03 0.  1.
         11   -1    0    0    0    0 -0.00000000000E+00 -0.00000000000E+00 -0.45593999997E+02  0.45594000000E+02  0.51100000000E-03 0. -1.
    9900012    2    1    2    0    0 -0.14847081345E+02  0.21015194864E+01  0.37793000570E+02  0.50528891541E+02  0.30000096327E+02 0.  0.
         12    1    1    2    0    0  0.14847081345E+02 -0.21015194864E+01 -0.37793000570E+02  0.40659108459E+02  0.00000000000E+00 0. -1.
         11    1    3    3    0    0  0.55524708868E+01 -0.42017778597E+01  0.99734530585E+01  0.12163660481E+02  0.51100000000E-03 0. -1.
        -11    1    3    3    0    0 -0.21651537853E+02  0.52928743441E+01  0.28848109585E+02  0.36455685936E+02  0.51100000000E-03 0.  1.
        -12    1    3    3    0    0  0.12519856213E+01  0.10104230020E+01 -0.10285620733E+01  0.19095451232E+01  0.00000000000E+00 0.  1.
</event>
<event>
 7    1  0.2966651E-011  0.5052886E+02  0.7816164E-02  0.1300439E+00
        -11   -1    0    0    0    0  0.00000000000E+00  0.00000000000E+00  0.45593999997E+02  0.45594000000E+02  0.51100000000E-03 0.  1.
         11   -1    0    0    0    0 -0.00000000000E+00 -0.00000000000E+00 -0.45593999997E+02  0.45594000000E+02  0.51100000000E-03 0. -1.
    9900012    2    1    2    0    0  0.24197538358E+02 -0.28875942781E+01  0.32546996310E+02  0.50528855492E+02  0.29999986753E+02 0.  0.
         12    1    1    2    0    0 -0.24197538358E+02  0.28875942781E+01 -0.32546996310E+02  0.40659144508E+02  0.00000000000E+00 0. -1.
         11    1    3    3    0    0  0.12564604601E+02 -0.11638532810E+02  0.39977620342E+01  0.17587121319E+02  0.51100000000E-03 0. -1.
        -11    1    3    3    0    0  0.28795519852E+01  0.17188691406E+01  0.14874961701E+02  0.15248305369E+02  0.51100000000E-03 0.  1.
         12    1    3    3    0    0  0.87533817718E+01  0.70320693915E+01  0.13674272575E+02  0.17693428803E+02  0.00000000000E+00 0. -1.
</event>
<event>
 7    1  0.2966651E-011  0.5052887E+02  0.7816164E-02  0.1300439E+00
        -11   -1    0    0    0    0  0.00000000000E+00  0.00000000000E+00  0.45593999997E+02  0.45594000000E+02  0.51100000000E-03 0. -1.
         11   -1    0    0    0    0 -0.00000000000E+00 -0.00000000000E+00 -0.45593999997E+02  0.45594000000E+02  0.51100000000E-03 0.  1.
    9900012    2    1    2    0    0  0.14516079382E+02  0.28301588705E+02 -0.25327220476E+02  0.50528873338E+02  0.30000040999E+02 0.  0.
         12    1    1    2    0    0 -0.14516079382E+02 -0.28301588705E+02  0.25327220476E+02  0.40659126662E+02  0.00000000000E+00 0. -1.
         11    1    3    3    0    0  0.14164285287E+02  0.20774748855E+02 -0.28242628145E+01  0.25302047909E+02  0.51100000000E-03 0.  1.
        -11    1    3    3    0    0 -0.39856527815E+00  0.79094895811E+01 -0.22946636012E+02  0.24274822023E+02  0.51100000000E-03 0. -1.
         12    1    3    3    0    0  0.75035937310E+00 -0.38264973111E+00  0.44367835117E+00  0.95200340588E+00  0.00000000000E+00 0. -1.
</event>
<event>
 7    1  0.2966651E-011  0.5052891E+02  0.7816164E-02  0.1300439E+00
        -11   -1    0    0    0    0  0.00000000000E+00  0.00000000000E+00  0.45593999997E+02  0.45594000000E+02  0.51100000000E-03 0.  1.
         11   -1    0    0    0    0 -0.00000000000E+00 -0.00000000000E+00 -0.45593999997E+02  0.45594000000E+02  0.51100000000E-03 0. -1.
    9900012    2    1    2    0    0 -0.31263845498E+00  0.20749036944E+02  0.34964859896E+02  0.50528908711E+02  0.30000148519E+02 0.  0.
         12    1    1    2    0    0  0.31263845498E+00 -0.20749036944E+02 -0.34964859896E+02  0.40659091289E+02  0.00000000000E+00 0. -1.
         11    1    3    3    0    0  0.27982071769E+01  0.13402389127E+01  0.25280673537E+02  0.25470348613E+02  0.51100000000E-03 0. -1.
        -11    1    3    3    0    0 -0.52328666665E+01  0.18622104150E+02  0.11183713839E+02  0.22343704080E+02  0.51100000000E-03 0.  1.
         12    1    3    3    0    0  0.21220210346E+01  0.78669388036E+00 -0.14995274801E+01  0.27148560175E+01  0.00000000000E+00 0. -1.
</event>
<event>
 7    1  0.2966651E-011  0.5052886E+02  0.7816164E-02  0.1300439E+00
        -11   -1    0    0    0    0  0.00000000000E+00  0.00000000000E+00  0.45593999997E+02  0.45594000000E+02  0.51100000000E-03 0. -1.
         11   -1    0    0    0    0 -0.00000000000E+00 -0.00000000000E+00 -0.45593999997E+02  0.45594000000E+02  0.51100000000E-03 0.  1.
    9900012    2    1    2    0    0 -0.38618682507E+02 -0.40656472863E+01 -0.12051293485E+02  0.50528858334E+02  0.29999995391E+02 0.  0.
         12    1    1    2    0    0  0.38618682507E+02  0.40656472863E+01  0.12051293485E+02  0.40659141666E+02  0.00000000000E+00 0. -1.
         11    1    3    3    0    0 -0.13227029560E+02  0.92611240702E+01 -0.69032299849E+01  0.17560675230E+02  0.51100000000E-03 0. -1.
        -11    1    3    3    0    0 -0.23794761387E+02 -0.61167014061E+01 -0.12080158065E+01  0.24598048866E+02  0.51100000000E-03 0.  1.
         12    1    3    3    0    0 -0.15968915594E+01 -0.72100699504E+01 -0.39400476932E+01  0.83701342383E+01  0.00000000000E+00 0. -1.
</event>
<event>
 7    1  0.2966651E-011  0.5052886E+02  0.7816164E-02  0.1300439E+00
        -11   -1    0    0    0    0  0.00000000000E+00  0.00000000000E+00  0.45593999997E+02  0.45594000000E+02  0.51100000000E-03 0. -1.
         11   -1    0    0    0    0 -0.00000000000E+00 -0.00000000000E+00 -0.45593999997E+02  0.45594000000E+02  0.51100000000E-03 0.  1.
    9900012    2    1    2    0    0 -0.61449438091E+01  0.88331650935E+01 -0.39209444702E+02  0.50528859653E+02  0.29999999400E+02 0.  0.
         12    1    1    2    0    0  0.61449438091E+01 -0.88331650935E+01  0.39209444702E+02  0.40659140347E+02  0.00000000000E+00 0. -1.
         11    1    3    3    0    0 -0.98230323432E+01 -0.76073104843E+01 -0.25522356994E+02  0.28385803565E+02  0.51100000000E-03 0. -1.
        -11    1    3    3    0    0  0.37431093495E+01  0.68161841890E+01 -0.63924231091E+01  0.10066494324E+02  0.51100000000E-03 0.  1.
         12    1    3    3    0    0 -0.65020815387E-01  0.96242913888E+01 -0.72946645983E+01  0.12076561764E+02  0.00000000000E+00 0. -1.
</event>
<event>
 7    1  0.2966651E-011  0.5052886E+02  0.7816164E-02  0.1300439E+00
        -11   -1    0    0    0    0  0.00000000000E+00  0.00000000000E+00  0.45593999997E+02  0.45594000000E+02  0.51100000000E-03 0.  1.
         11   -1    0    0    0    0 -0.00000000000E+00 -0.00000000000E+00 -0.45593999997E+02  0.45594000000E+02  0.51100000000E-03 0. -1.
    9900012    2    1    2    0    0 -0.31432266199E+02  0.62632909009E+01  0.25018976917E+02  0.50528863544E+02  0.30000011230E+02 0.  0.
         12    1    1    2    0    0  0.31432266199E+02 -0.62632909009E+01 -0.25018976917E+02  0.40659136456E+02  0.00000000000E+00 0. -1.
         11    1    3    3    0    0 -0.29097872556E+02 -0.99690679528E+00  0.11793656386E+02  0.31412900879E+02  0.51100000000E-03 0.  1.
        -11    1    3    3    0    0  0.28867898043E+01  0.59402783308E+01  0.11836301633E+02  0.13554279716E+02  0.51100000000E-03 0. -1.
         12    1    3    3    0    0 -0.52211834477E+01  0.13199193654E+01  0.13890188983E+01  0.55616829491E+01  0.00000000000E+00 0. -1.
</event>
<event>
 7    1  0.2966651E-011  0.5052884E+02  0.7816164E-02  0.1300439E+00
        -11   -1    0    0    0    0  0.00000000000E+00  0.00000000000E+00  0.45593999997E+02  0.45594000000E+02  0.51100000000E-03 0.  1.
         11   -1    0    0    0    0 -0.00000000000E+00 -0.00000000000E+00 -0.45593999997E+02  0.45594000000E+02  0.51100000000E-03 0. -1.
    9900012    2    1    2    0    0 -0.43268508666E+01 -0.32068945952E+02  0.24617649529E+02  0.50528836196E+02  0.29999928103E+02 0.  0.
         12    1    1    2    0    0  0.43268508666E+01  0.32068945952E+02 -0.24617649529E+02  0.40659163804E+02  0.00000000000E+00 0. -1.
         11    1    3    3    0    0  0.44616092812E+01 -0.14064095080E+02  0.66686966035E+01  0.16191857289E+02  0.51100000000E-03 0. -1.
        -11    1    3    3    0    0 -0.64782263665E+01 -0.12464770121E+02  0.22690945662E+02  0.26687392647E+02  0.51100000000E-03 0.  1.
        -12    1    3    3    0    0 -0.23102337813E+01 -0.55400807503E+01 -0.47419927364E+01  0.76495862605E+01  0.00000000000E+00 0.  1.
</event>
<event>
 7    1  0.2966651E-011  0.5052886E+02  0.7816164E-02  0.1300439E+00
        -11   -1    0    0    0    0  0.00000000000E+00  0.00000000000E+00  0.45593999997E+02  0.45594000000E+02  0.51100000000E-03 0. -1.
         11   -1    0    0    0    0 -0.00000000000E+00 -0.00000000000E+00 -0.45593999997E+02  0.45594000000E+02  0.51100000000E-03 0.  1.
    9900012    2    1    2    0    0  0.90659266202E+01  0.19422717737E+02 -0.34550441065E+02  0.50528856286E+02  0.29999989167E+02 0.  0.
         12    1    1    2    0    0 -0.90659266202E+01 -0.19422717737E+02  0.34550441065E+02  0.40659143714E+02  0.00000000000E+00 0. -1.
         11    1    3    3    0    0 -0.64519792634E-01  0.10200403778E+02 -0.12919280342E+01  0.10282095037E+02  0.51100000000E-03 0. -1.
        -11    1    3    3    0    0 -0.13615650277E+01  0.74653925360E+01 -0.26681643207E+02  0.27739791447E+02  0.51100000000E-03 0.  1.
         12    1    3    3    0    0  0.10492011441E+02  0.17569214230E+01 -0.65768698239E+01  0.12506969802E+02  0.00000000000E+00 0. -1.
</event>
<event>
 7    1  0.2966651E-011  0.5052886E+02  0.7816164E-02  0.1300439E+00
        -11   -1    0    0    0    0  0.00000000000E+00  0.00000000000E+00  0.45593999997E+02  0.45594000000E+02  0.51100000000E-03 0. -1.
         11   -1    0    0    0    0 -0.00000000000E+00 -0.00000000000E+00 -0.45593999997E+02  0.45594000000E+02  0.51100000000E-03 0.  1.
    9900012    2    1    2    0    0  0.27872635572E+02 -0.28089675072E+02 -0.93408828584E+01  0.50528858937E+02  0.29999997226E+02 0.  0.
         12    1    1    2    0    0 -0.27872635572E+02  0.28089675072E+02  0.93408828584E+01  0.40659141063E+02  0.00000000000E+00 0. -1.
         11    1    3    3    0    0  0.15872759608E+02 -0.13911808917E+01 -0.76974588519E+00  0.15952190785E+02  0.51100000000E-03 0. -1.
        -11    1    3    3    0    0  0.57649527495E+01 -0.25797601957E+02 -0.97366649610E+01  0.28170083276E+02  0.51100000000E-03 0.  1.
        -12    1    3    3    0    0  0.62349232146E+01 -0.90089222308E+00  0.11655279879E+01  0.64065848765E+01  0.00000000000E+00 0.  1.
</event>
<event>
 7    1  0.2966651E-011  0.5052886E+02  0.7816164E-02  0.1300439E+00
        -11   -1    0    0    0    0  0.00000000000E+00  0.00000000000E+00  0.45593999997E+02  0.45594000000E+02  0.51100000000E-03 0.  1.
         11   -1    0    0    0    0 -0.00000000000E+00 -0.00000000000E+00 -0.45593999997E+02  0.45594000000E+02  0.51100000000E-03 0. -1.
    9900012    2    1    2    0    0 -0.13012023690E+02  0.59696466597E+01  0.38055438897E+02  0.50528857468E+02  0.29999992761E+02 0.  0.
         12    1    1    2    0    0  0.13012023690E+02 -0.59696466597E+01 -0.38055438897E+02  0.40659142532E+02  0.00000000000E+00 0. -1.
         11    1    3    3    0    0 -0.98630831383E+01 -0.37898909239E+01 -0.49066666418E+00  0.10577543961E+02  0.51100000000E-03 0. -1.
        -11    1    3    3    0    0 -0.77113730709E+00  0.55476695361E+01  0.18455394009E+02  0.19286597894E+02  0.51100000000E-03 0.  1.
         12    1    3    3    0    0 -0.23778032445E+01  0.42118680475E+01  0.20090711552E+02  0.20664715613E+02  0.00000000000E+00 0. -1.
</event>
<event>
 7    1  0.2966651E-011  0.5052886E+02  0.7816164E-02  0.1300439E+00
        -11   -1    0    0    0    0  0.00000000000E+00  0.00000000000E+00  0.45593999997E+02  0.45594000000E+02  0.51100000000E-03 0.  1.
         11   -1    0    0    0    0 -0.00000000000E+00 -0.00000000000E+00 -0.45593999997E+02  0.45594000000E+02  0.51100000000E-03 0. -1.
    9900012    2    1    2    0    0 -0.37961137989E+02 -0.75179271552E+00 -0.14544845622E+02  0.50528859283E+02  0.29999998276E+02 0.  0.
         12    1    1    2    0    0  0.37961137989E+02  0.75179271552E+00  0.14544845622E+02  0.40659140717E+02  0.00000000000E+00 0. -1.
         11    1    3    3    0    0 -0.24019318885E+02  0.42041064302E+01 -0.99097169916E+01  0.26321183137E+02  0.51100000000E-03 0. -1.
        -11    1    3    3    0    0  0.44456121677E+01 -0.24677960156E+01 -0.88746137366E-02  0.50846399814E+01  0.51100000000E-03 0.  1.
        -12    1    3    3    0    0 -0.18387431271E+02 -0.24881031301E+01 -0.46262540169E+01  0.19123036165E+02  0.00000000000E+00 0.  1.
</event>
<event>
 7    1  0.2966651E-011  0.5052885E+02  0.7816164E-02  0.1300439E+00
        -11   -1    0    0    0    0  0.00000000000E+00  0.00000000000E+00  0.45593999997E+02  0.45594000000E+02  0.51100000000E-03 0.  1.
         11   -1    0    0    0    0 -0.00000000000E+00 -0.00000000000E+00 -0.45593999997E+02  0.45594000000E+02  0.51100000000E-03 0. -1.
    9900012    2    1    2    0    0  0.37951385189E+02 -0.98853706903E+01  0.10730245545E+02  0.50528851449E+02  0.29999974465E+02 0.  0.
         12    1    1    2    0    0 -0.37951385189E+02  0.98853706903E+01 -0.10730245545E+02  0.40659148551E+02  0.00000000000E+00 0. -1.
         11    1    3    3    0    0  0.18684215450E+02  0.22942823576E+01 -0.11918759987E+01  0.18862242898E+02  0.51100000000E-03 0. -1.
        -11    1    3    3    0    0  0.88780466878E+01 -0.15839391811E+02  0.90255377485E+01  0.20277237924E+02  0.51100000000E-03 0.  1.
        -12    1    3    3    0    0  0.10389123051E+02  0.36597387630E+01  0.28965837950E+01  0.11389370627E+02  0.00000000000E+00 0.  1.
</event>
<event>
 7    1  0.2966651E-011  0.5052886E+02  0.7816164E-02  0.1300439E+00
        -11   -1    0    0    0    0  0.00000000000E+00  0.00000000000E+00  0.45593999997E+02  0.45594000000E+02  0.51100000000E-03 0.  1.
         11   -1    0    0    0    0 -0.00000000000E+00 -0.00000000000E+00 -0.45593999997E+02  0.45594000000E+02  0.51100000000E-03 0. -1.
    9900012    2    1    2    0    0  0.31505751607E+02 -0.23414283419E+02  0.10598342605E+02  0.50528856892E+02  0.29999991007E+02 0.  0.
         12    1    1    2    0    0 -0.31505751607E+02  0.23414283419E+02 -0.10598342605E+02  0.40659143108E+02  0.00000000000E+00 0. -1.
         11    1    3    3    0    0 -0.97873734574E+00  0.33683313456E+01  0.76828361578E+00  0.35907997468E+01  0.51100000000E-03 0. -1.
        -11    1    3    3    0    0  0.16983406434E+02 -0.20623422305E+02 -0.15252081566E+01  0.26759818793E+02  0.51100000000E-03 0.  1.
         12    1    3    3    0    0  0.15501082519E+02 -0.61591924597E+01  0.11355267146E+02  0.20178238351E+02  0.00000000000E+00 0. -1.
</event>
<event>
 7    1  0.2966651E-011  0.5052885E+02  0.7816164E-02  0.1300439E+00
        -11   -1    0    0    0    0  0.00000000000E+00  0.00000000000E+00  0.45593999997E+02  0.45594000000E+02  0.51100000000E-03 0. -1.
         11   -1    0    0    0    0 -0.00000000000E+00 -0.00000000000E+00 -0.45593999997E+02  0.45594000000E+02  0.51100000000E-03 0.  1.
    9900012    2    1    2    0    0  0.36841736975E+01  0.28012422898E+02 -0.29238625963E+02  0.50528853173E+02  0.29999979706E+02 0.  0.
         12    1    1    2    0    0 -0.36841736975E+01 -0.28012422898E+02  0.29238625963E+02  0.40659146827E+02  0.00000000000E+00 0. -1.
         11    1    3    3    0    0  0.12892378672E+02  0.27639843095E+02 -0.17452399228E+02  0.35139160394E+02  0.51100000000E-03 0. -1.
        -11    1    3    3    0    0 -0.53172328300E+01  0.11953668736E+01 -0.90431478894E+01  0.10558427484E+02  0.51100000000E-03 0.  1.
         12    1    3    3    0    0 -0.38909721449E+01 -0.82278707046E+00 -0.27430788454E+01  0.48312652947E+01  0.00000000000E+00 0. -1.
</event>
<event>
 7    1  0.2966651E-011  0.5052886E+02  0.7816164E-02  0.1300439E+00
        -11   -1    0    0    0    0  0.00000000000E+00  0.00000000000E+00  0.45593999997E+02  0.45594000000E+02  0.51100000000E-03 0.  1.
         11   -1    0    0    0    0 -0.00000000000E+00 -0.00000000000E+00 -0.45593999997E+02  0.45594000000E+02  0.51100000000E-03 0. -1.
    9900012    2    1    2    0    0  0.22845829729E+02 -0.24036042110E+02  0.23526634829E+02  0.50528858314E+02  0.29999995330E+02 0.  0.
         12    1    1    2    0    0 -0.22845829729E+02  0.24036042110E+02 -0.23526634829E+02  0.40659141686E+02  0.00000000000E+00 0. -1.
         11    1    3    3    0    0  0.97616413133E+01 -0.12547529115E+02  0.51592802890E+01  0.16713715966E+02  0.51100000000E-03 0. -1.
        -11    1    3    3    0    0  0.76614175032E+01  0.36425998950E+01 -0.11170519064E+01  0.85564979621E+01  0.51100000000E-03 0.  1.
        -12    1    3    3    0    0  0.54227709125E+01 -0.15131112889E+02  0.19484406446E+02  0.25258644386E+02  0.00000000000E+00 0.  1.
</event>
<event>
 7    1  0.2966651E-011  0.5052895E+02  0.7816164E-02  0.1300438E+00
        -11   -1    0    0    0    0  0.00000000000E+00  0.00000000000E+00  0.45593999997E+02  0.45594000000E+02  0.51100000000E-03 0. -1.
         11   -1    0    0    0    0 -0.00000000000E+00 -0.00000000000E+00 -0.45593999997E+02  0.45594000000E+02  0.51100000000E-03 0.  1.
    9900012    2    1    2    0    0  0.10126693830E+02  0.91530257159E+01 -0.38299228854E+02  0.50528945185E+02  0.30000259382E+02 0.  0.
         12    1    1    2    0    0 -0.10126693830E+02 -0.91530257159E+01  0.38299228854E+02  0.40659054815E+02  0.00000000000E+00 0. -1.
         11    1    3    3    0    0 -0.17498105512E+01  0.15624971674E+02 -0.20455077472E+02  0.25799452929E+02  0.51100000000E-03 0. -1.
        -11    1    3    3    0    0  0.47981050998E+01 -0.13858957738E+01 -0.14597639231E+02  0.15428337273E+02  0.51100000000E-03 0.  1.
         12    1    3    3    0    0  0.70783992812E+01 -0.50860501845E+01 -0.32465121509E+01  0.93011549826E+01  0.00000000000E+00 0. -1.
</event>
<event>
 7    1  0.2966651E-011  0.5052886E+02  0.7816164E-02  0.1300439E+00
        -11   -1    0    0    0    0  0.00000000000E+00  0.00000000000E+00  0.45593999997E+02  0.45594000000E+02  0.51100000000E-03 0.  1.
         11   -1    0    0    0    0 -0.00000000000E+00 -0.00000000000E+00 -0.45593999997E+02  0.45594000000E+02  0.51100000000E-03 0. -1.
    9900012    2    1    2    0    0  0.17794701707E+02  0.35255428677E+02  0.96731154101E+01  0.50528858078E+02  0.29999994615E+02 0.  0.
         12    1    1    2    0    0 -0.17794701707E+02 -0.35255428677E+02 -0.96731154101E+01  0.40659141922E+02  0.00000000000E+00 0. -1.
         11    1    3    3    0    0 -0.34126087306E+01  0.21675685150E+02  0.94097493442E+01  0.23875188126E+02  0.51100000000E-03 0. -1.
        -11    1    3    3    0    0  0.52906115260E+01  0.83039395421E+01 -0.58916078550E+00  0.98637261180E+01  0.51100000000E-03 0.  1.
         12    1    3    3    0    0  0.15916698912E+02  0.52758039853E+01  0.85252685138E+00  0.16789943835E+02  0.00000000000E+00 0. -1.
</event>
<event>
 7    1  0.2966651E-011  0.5052884E+02  0.7816164E-02  0.1300439E+00
        -11   -1    0    0    0    0  0.00000000000E+00  0.00000000000E+00  0.45593999997E+02  0.45594000000E+02  0.51100000000E-03 0.  1.
         11   -1    0    0    0    0 -0.00000000000E+00 -0.00000000000E+00 -0.45593999997E+02  0.45594000000E+02  0.51100000000E-03 0. -1.
    9900012    2    1    2    0    0  0.35437219963E+01  0.19837196301E+02  0.35314227262E+02  0.50528843961E+02  0.29999951704E+02 0.  0.
         12    1    1    2    0    0 -0.35437219963E+01 -0.19837196301E+02 -0.35314227262E+02  0.40659156039E+02  0.00000000000E+00 0. -1.
         11    1    3    3    0    0  0.83542094383E+01  0.49373106131E+01  0.21882115833E+02  0.23937352506E+02  0.51100000000E-03 0. -1.
        -11    1    3    3    0    0  0.22128456861E+01  0.15721857094E+02  0.91502921915E+01  0.18324882646E+02  0.51100000000E-03 0.  1.
         12    1    3    3    0    0 -0.70233331281E+01 -0.82197140650E+00  0.42818192377E+01  0.82666088092E+01  0.00000000000E+00 0. -1.
</event>
<event>
 7    1  0.2966651E-011  0.5052886E+02  0.7816164E-02  0.1300439E+00
        -11   -1    0    0    0    0  0.00000000000E+00  0.00000000000E+00  0.45593999997E+02  0.45594000000E+02  0.51100000000E-03 0. -1.
         11   -1    0    0    0    0 -0.00000000000E+00 -0.00000000000E+00 -0.45593999997E+02  0.45594000000E+02  0.51100000000E-03 0.  1.
    9900012    2    1    2    0    0  0.15257301923E+00 -0.33728008360E+02  0.22706028815E+02  0.50528861163E+02  0.30000003990E+02 0.  0.
         12    1    1    2    0    0 -0.15257301923E+00  0.33728008360E+02 -0.22706028815E+02  0.40659138837E+02  0.00000000000E+00 0. -1.
         11    1    3    3    0    0 -0.13364077938E+01 -0.30781839753E+02  0.18586091230E+02  0.35982640702E+02  0.51100000000E-03 0. -1.
        -11    1    3    3    0    0  0.75191873501E+01 -0.12849384109E+01  0.29731554878E+01  0.81871178654E+01  0.51100000000E-03 0.  1.
         12    1    3    3    0    0 -0.60302065371E+01 -0.16612301960E+01  0.11467820969E+01  0.63591025956E+01  0.00000000000E+00 0. -1.
</event>
<event>
 7    1  0.2966651E-011  0.5052886E+02  0.7816164E-02  0.1300439E+00
        -11   -1    0    0    0    0  0.00000000000E+00  0.00000000000E+00  0.45593999997E+02  0.45594000000E+02  0.51100000000E-03 0.  1.
         11   -1    0    0    0    0 -0.00000000000E+00 -0.00000000000E+00 -0.45593999997E+02  0.45594000000E+02  0.51100000000E-03 0. -1.
    9900012    2    1    2    0    0 -0.36112059359E+02 -0.18668751381E+02  0.75005767803E+00  0.50528859628E+02  0.29999999326E+02 0.  0.
         12    1    1    2    0    0  0.36112059359E+02  0.18668751381E+02 -0.75005767803E+00  0.40659140372E+02  0.00000000000E+00 0. -1.
         11    1    3    3    0    0 -0.14742881369E+02  0.28406509301E+01 -0.99557238674E+01  0.18014946204E+02  0.51100000000E-03 0. -1.
        -11    1    3    3    0    0 -0.17218726828E+02 -0.15254544760E+02  0.64786753603E+01  0.23898931443E+02  0.51100000000E-03 0.  1.
         12    1    3    3    0    0 -0.41504511616E+01 -0.62548575513E+01  0.42271061852E+01  0.86149819810E+01  0.00000000000E+00 0. -1.
</event>
<event>
 7    1  0.2966651E-011  0.5052886E+02  0.7816164E-02  0.1300439E+00
        -11   -1    0    0    0    0  0.00000000000E+00  0.00000000000E+00  0.45593999997E+02  0.45594000000E+02  0.51100000000E-03 0. -1.
         11   -1    0    0    0    0 -0.00000000000E+00 -0.00000000000E+00 -0.45593999997E+02  0.45594000000E+02  0.51100000000E-03 0.  1.
    9900012    2    1    2    0    0  0.38011929866E+02 -0.61819127265E+01 -0.13040042178E+02  0.50528861333E+02  0.30000004509E+02 0.  0.
         12    1    1    2    0    0 -0.38011929866E+02  0.61819127265E+01  0.13040042178E+02  0.40659138667E+02  0.00000000000E+00 0. -1.
         11    1    3    3    0    0 -0.68148280858E+00 -0.91355137727E+00  0.63221407912E+00  0.13033379609E+01  0.51100000000E-03 0. -1.
        -11    1    3    3    0    0  0.16009349605E+02  0.43655841775E+01 -0.17690378043E+02  0.24255042271E+02  0.51100000000E-03 0.  1.
        -12    1    3    3    0    0  0.22684063069E+02 -0.96339455268E+01  0.40181217861E+01  0.24970481101E+02  0.00000000000E+00 0.  1.
</event>
<event>
 7    1  0.2966651E-011  0.5052886E+02  0.7816164E-02  0.1300439E+00
        -11   -1    0    0    0    0  0.00000000000E+00  0.00000000000E+00  0.45593999997E+02  0.45594000000E+02  0.51100000000E-03 0.  1.
         11   -1    0    0    0    0 -0.00000000000E+00 -0.00000000000E+00 -0.45593999997E+02  0.45594000000E+02  0.51100000000E-03 0. -1.
    9900012    2    1    2    0    0  0.28997396167E+02 -0.84845746479E+01  0.27208978485E+02  0.50528862015E+02  0.30000006582E+02 0.  0.
         12    1    1    2    0    0 -0.28997396167E+02  0.84845746479E+01 -0.27208978485E+02  0.40659137985E+02  0.00000000000E+00 0. -1.
         11    1    3    3    0    0  0.50702810099E+01 -0.13716163649E+02  0.17696392816E+02  0.22956550563E+02  0.51100000000E-03 0. -1.
        -11    1    3    3    0    0  0.14618453011E+02  0.14178931597E+01  0.95385766801E+01  0.17512682113E+02  0.51100000000E-03 0.  1.
         12    1    3    3    0    0  0.93086621460E+01  0.38136958415E+01 -0.25991011010E-01  0.10059629340E+02  0.00000000000E+00 0. -1.
</event>
<event>
 7    1  0.2966651E-011  0.5052886E+02  0.7816164E-02  0.1300439E+00
        -11   -1    0    0    0    0  0.00000000000E+00  0.00000000000E+00  0.45593999997E+02  0.45594000000E+02  0.51100000000E-03 0.  1.
         11   -1    0    0    0    0 -0.00000000000E+00 -0.00000000000E+00 -0.45593999997E+02  0.45594000000E+02  0.51100000000E-03 0. -1.
    9900012    2    1    2    0    0 -0.10104208384E+02 -0.32114665986E+01  0.39252476175E+02  0.50528862889E+02  0.30000009237E+02 0.  0.
         12    1    1    2    0    0  0.10104208384E+02  0.32114665986E+01 -0.39252476175E+02  0.40659137111E+02  0.00000000000E+00 0. -1.
         11    1    3    3    0    0 -0.10333187001E+02  0.16590825988E+01  0.85193553403E+01  0.13494692451E+02  0.51100000000E-03 0. -1.
        -11    1    3    3    0    0  0.94673442066E+01 -0.38237948268E+01  0.99062285452E+01  0.14226221475E+02  0.51100000000E-03 0.  1.
        -12    1    3    3    0    0 -0.92383655900E+01 -0.10467543707E+01  0.20826892289E+02  0.22807948963E+02  0.00000000000E+00 0.  1.
</event>
<event>
 7    1  0.2966651E-011  0.5052886E+02  0.7816164E-02  0.1300439E+00
        -11   -1    0    0    0    0  0.00000000000E+00  0.00000000000E+00  0.45593999997E+02  0.45594000000E+02  0.51100000000E-03 0.  1.
         11   -1    0    0    0    0 -0.00000000000E+00 -0.00000000000E+00 -0.45593999997E+02  0.45594000000E+02  0.51100000000E-03 0. -1.
    9900012    2    1    2    0    0  0.23113995588E+02 -0.73783368660E+01  0.32626198718E+02  0.50528862162E+02  0.30000007026E+02 0.  0.
         12    1    1    2    0    0 -0.23113995588E+02  0.73783368660E+01 -0.32626198718E+02  0.40659137838E+02  0.00000000000E+00 0. -1.
         11    1    3    3    0    0  0.33035503983E+01  0.17926163806E+01 -0.36138473688E+01  0.52140974088E+01  0.51100000000E-03 0. -1.
        -11    1    3    3    0    0  0.21409491186E+02 -0.11022631141E+02  0.35217610633E+02  0.42663155170E+02  0.51100000000E-03 0.  1.
        -12    1    3    3    0    0 -0.15990459959E+01  0.18516778946E+01  0.10224354543E+01  0.26516095830E+01  0.00000000000E+00 0.  1.
</event>
<event>
 7    1  0.2966651E-011  0.5052886E+02  0.7816164E-02  0.1300439E+00
        -11   -1    0    0    0    0  0.00000000000E+00  0.00000000000E+00  0.45593999997E+02  0.45594000000E+02  0.51100000000E-03 0. -1.
         11   -1    0    0    0    0 -0.00000000000E+00 -0.00000000000E+00 -0.45593999997E+02  0.45594000000E+02  0.51100000000E-03 0.  1.
    9900012    2    1    2    0    0  0.34646384187E+02 -0.16834202987E+02 -0.13015507065E+02  0.50528858941E+02  0.29999997237E+02 0.  0.
         12    1    1    2    0    0 -0.34646384187E+02  0.16834202987E+02  0.13015507065E+02  0.40659141059E+02  0.00000000000E+00 0. -1.
         11    1    3    3    0    0  0.32241361578E+02 -0.21579710086E+02 -0.61799764129E+01  0.39285893048E+02  0.51100000000E-03 0.  1.
        -11    1    3    3    0    0 -0.20319812421E+01  0.30405631688E+01 -0.48916383539E+01  0.61075443673E+01  0.51100000000E-03 0. -1.
         12    1    3    3    0    0  0.44370038514E+01  0.17049439304E+01 -0.19438922987E+01  0.51354215262E+01  0.00000000000E+00 0. -1.
</event>
<event>
 7    1  0.2966651E-011  0.5052886E+02  0.7816164E-02  0.1300439E+00
        -11   -1    0    0    0    0  0.00000000000E+00  0.00000000000E+00  0.45593999997E+02  0.45594000000E+02  0.51100000000E-03 0.  1.
         11   -1    0    0    0    0 -0.00000000000E+00 -0.00000000000E+00 -0.45593999997E+02  0.45594000000E+02  0.51100000000E-03 0. -1.
    9900012    2    1    2    0    0  0.37034909644E+02 -0.16416297748E+02 -0.34765484596E+01  0.50528858921E+02  0.29999997177E+02 0.  0.
         12    1    1    2    0    0 -0.37034909644E+02  0.16416297748E+02  0.34765484596E+01  0.40659141079E+02  0.00000000000E+00 0. -1.
         11    1    3    3    0    0  0.57099798110E+00  0.19944540234E+01 -0.72481642595E+01  0.75392155388E+01  0.51100000000E-03 0. -1.
        -11    1    3    3    0    0  0.28770130260E+02 -0.19119141363E+02  0.57381720435E+01  0.35016975602E+02  0.51100000000E-03 0.  1.
        -12    1    3    3    0    0  0.76937814024E+01  0.70838959100E+00 -0.19665562436E+01  0.79726677806E+01  0.00000000000E+00 0.  1.
</event>
<event>
 7    1  0.2966651E-011  0.5052891E+02  0.7816164E-02  0.1300439E+00
        -11   -1    0    0    0    0  0.00000000000E+00  0.00000000000E+00  0.45593999997E+02  0.45594000000E+02  0.51100000000E-03 0.  1.
         11   -1    0    0    0    0 -0.00000000000E+00 -0.00000000000E+00 -0.45593999997E+02  0.45594000000E+02  0.51100000000E-03 0. -1.
    9900012    2    1    2    0    0 -0.35523738529E+02 -0.71059210969E+01  0.18458912310E+02  0.50528910520E+02  0.30000154015E+02 0.  0.
         12    1    1    2    0    0  0.35523738529E+02  0.71059210969E+01 -0.18458912310E+02  0.40659089480E+02  0.00000000000E+00 0. -1.
         11    1    3    3    0    0 -0.18788850950E+02 -0.12152775259E+02  0.65704987617E+00  0.22386214091E+02  0.51100000000E-03 0. -1.
        -11    1    3    3    0    0 -0.18072862709E+02  0.67976382151E+01  0.14390596952E+02  0.24081643064E+02  0.51100000000E-03 0.  1.
        -12    1    3    3    0    0  0.13379751289E+01 -0.17507840526E+01  0.34112654815E+01  0.40610533645E+01  0.00000000000E+00 0.  1.
</event>
<event>
 7    1  0.2966651E-011  0.5052889E+02  0.7816164E-02  0.1300439E+00
        -11   -1    0    0    0    0  0.00000000000E+00  0.00000000000E+00  0.45593999997E+02  0.45594000000E+02  0.51100000000E-03 0.  1.
         11   -1    0    0    0    0 -0.00000000000E+00 -0.00000000000E+00 -0.45593999997E+02  0.45594000000E+02  0.51100000000E-03 0. -1.
    9900012    2    1    2    0    0 -0.13750271406E+02  0.21780591007E+02  0.31459486104E+02  0.50528888177E+02  0.30000086102E+02 0.  0.
         12    1    1    2    0    0  0.13750271406E+02 -0.21780591007E+02 -0.31459486104E+02  0.40659111823E+02  0.00000000000E+00 0. -1.
         11    1    3    3    0    0 -0.11821834670E+02  0.59431866294E+01 -0.71213368630E+00  0.13250825518E+02  0.51100000000E-03 0. -1.
        -11    1    3    3    0    0 -0.59926058940E+01  0.10808331214E+02  0.20618585634E+02  0.24038665163E+02  0.51100000000E-03 0.  1.
        -12    1    3    3    0    0  0.40641691571E+01  0.50290731630E+01  0.11553034156E+02  0.13239397495E+02  0.00000000000E+00 0.  1.
</event>
<event>
 7    1  0.2966651E-011  0.5052885E+02  0.7816164E-02  0.1300439E+00
        -11   -1    0    0    0    0  0.00000000000E+00  0.00000000000E+00  0.45593999997E+02  0.45594000000E+02  0.51100000000E-03 0.  1.
         11   -1    0    0    0    0 -0.00000000000E+00 -0.00000000000E+00 -0.45593999997E+02  0.45594000000E+02  0.51100000000E-03 0. -1.
    9900012    2    1    2    0    0 -0.29890905770E+02  0.23801623715E+02  0.13899027197E+02  0.50528849785E+02  0.29999969405E+02 0.  0.
         12    1    1    2    0    0  0.29890905770E+02 -0.23801623715E+02 -0.13899027197E+02  0.40659150215E+02  0.00000000000E+00 0. -1.
         11    1    3    3    0    0 -0.72167550097E+00 -0.59676951446E+01  0.19012085446E+01  0.63046645477E+01  0.51100000000E-03 0. -1.
        -11    1    3    3    0    0 -0.20449108445E+02  0.18487118587E+02  0.11739354085E+02  0.29962510317E+02  0.51100000000E-03 0.  1.
         12    1    3    3    0    0 -0.87201218237E+01  0.11282200272E+02  0.25846456684E+00  0.14261674920E+02  0.00000000000E+00 0. -1.
</event>
<event>
 7    1  0.2966651E-011  0.5052887E+02  0.7816164E-02  0.1300439E+00
        -11   -1    0    0    0    0  0.00000000000E+00  0.00000000000E+00  0.45593999997E+02  0.45594000000E+02  0.51100000000E-03 0. -1.
         11   -1    0    0    0    0 -0.00000000000E+00 -0.00000000000E+00 -0.45593999997E+02  0.45594000000E+02  0.51100000000E-03 0.  1.
    9900012    2    1    2    0    0  0.32901667456E+02 -0.18660113149E+02 -0.14914611640E+02  0.50528865916E+02  0.30000018438E+02 0.  0.
         12    1    1    2    0    0 -0.32901667456E+02  0.18660113149E+02  0.14914611640E+02  0.40659134084E+02  0.00000000000E+00 0. -1.
         11    1    3    3    0    0 -0.68962709983E+00 -0.30354948327E+01  0.31732921030E+01  0.44451768748E+01  0.51100000000E-03 0. -1.
        -11    1    3    3    0    0  0.26999566268E+02 -0.16817173108E+02 -0.21668652976E+02  0.38487977500E+02  0.51100000000E-03 0.  1.
        -12    1    3    3    0    0  0.65917282870E+01  0.11925547913E+01  0.35807492331E+01  0.75957115408E+01  0.00000000000E+00 0.  1.
</event>
<event>
 7    1  0.2966651E-011  0.5052885E+02  0.7816164E-02  0.1300439E+00
        -11   -1    0    0    0    0  0.00000000000E+00  0.00000000000E+00  0.45593999997E+02  0.45594000000E+02  0.51100000000E-03 0. -1.
         11   -1    0    0    0    0 -0.00000000000E+00 -0.00000000000E+00 -0.45593999997E+02  0.45594000000E+02  0.51100000000E-03 0.  1.
    9900012    2    1    2    0    0 -0.55303430589E+00  0.35797051850E+02 -0.19272554834E+02  0.50528854191E+02  0.29999982800E+02 0.  0.
         12    1    1    2    0    0  0.55303430589E+00 -0.35797051850E+02  0.19272554834E+02  0.40659145809E+02  0.00000000000E+00 0. -1.
         11    1    3    3    0    0 -0.11318144877E+02  0.80723797149E+01 -0.16290093061E+01  0.13997049307E+02  0.51100000000E-03 0. -1.
        -11    1    3    3    0    0  0.38618691466E+01  0.13797800548E+02 -0.15038076853E+02  0.20771063742E+02  0.51100000000E-03 0.  1.
         12    1    3    3    0    0  0.69032414245E+01  0.13926871586E+02 -0.26054686752E+01  0.15760741143E+02  0.00000000000E+00 0. -1.
</event>
<event>
 7    1  0.2966651E-011  0.5052886E+02  0.7816164E-02  0.1300439E+00
        -11   -1    0    0    0    0  0.00000000000E+00  0.00000000000E+00  0.45593999997E+02  0.45594000000E+02  0.51100000000E-03 0.  1.
         11   -1    0    0    0    0 -0.00000000000E+00 -0.00000000000E+00 -0.45593999997E+02  0.45594000000E+02  0.51100000000E-03 0. -1.
    9900012    2    1    2    0    0 -0.24263578471E+02 -0.18103572130E+02  0.27142310764E+02  0.50528860835E+02  0.30000002994E+02 0.  0.
         12    1    1    2    0    0  0.24263578471E+02  0.18103572130E+02 -0.27142310764E+02  0.40659139165E+02  0.00000000000E+00 0. -1.
         11    1    3    3    0    0  0.10349084001E+01  0.11841781491E+01  0.31633181443E+01  0.35326895177E+01  0.51100000000E-03 0. -1.
        -11    1    3    3    0    0 -0.22360314984E+02 -0.24489226912E+02  0.15452920828E+02  0.36585498265E+02  0.51100000000E-03 0.  1.
        -12    1    3    3    0    0 -0.29381718870E+01  0.52014766334E+01  0.85260717913E+01  0.10410673052E+02  0.00000000000E+00 0.  1.
</event>
<event>
 7    1  0.2966651E-011  0.5052886E+02  0.7816164E-02  0.1300439E+00
        -11   -1    0    0    0    0  0.00000000000E+00  0.00000000000E+00  0.45593999997E+02  0.45594000000E+02  0.51100000000E-03 0.  1.
         11   -1    0    0    0    0 -0.00000000000E+00 -0.00000000000E+00 -0.45593999997E+02  0.45594000000E+02  0.51100000000E-03 0. -1.
    9900012    2    1    2    0    0 -0.15363974729E+02  0.16422526233E+02  0.33873510435E+02  0.50528858389E+02  0.29999995559E+02 0.  0.
         12    1    1    2    0    0  0.15363974729E+02 -0.16422526233E+02 -0.33873510435E+02  0.40659141611E+02  0.00000000000E+00 0. -1.
         11    1    3    3    0    0 -0.22541450838E+02  0.99365961410E+01  0.18220914995E+02  0.30640735831E+02  0.51100000000E-03 0. -1.
        -11    1    3    3    0    0  0.28598736731E+01  0.14008391727E+01  0.11718826166E+02  0.12143809731E+02  0.51100000000E-03 0.  1.
         12    1    3    3    0    0  0.43176024364E+01  0.50850909191E+01  0.39337692744E+01  0.77443128267E+01  0.00000000000E+00 0. -1.
</event>
<event>
 7    1  0.2966651E-011  0.5052881E+02  0.7816164E-02  0.1300439E+00
        -11   -1    0    0    0    0  0.00000000000E+00  0.00000000000E+00  0.45593999997E+02  0.45594000000E+02  0.51100000000E-03 0. -1.
         11   -1    0    0    0    0 -0.00000000000E+00 -0.00000000000E+00 -0.45593999997E+02  0.45594000000E+02  0.51100000000E-03 0.  1.
    9900012    2    1    2    0    0 -0.14279414568E+02  0.34208779683E+02 -0.16704116900E+02  0.50528809044E+02  0.29999845570E+02 0.  0.
         12    1    1    2    0    0  0.14279414568E+02 -0.34208779683E+02  0.16704116900E+02  0.40659190956E+02  0.00000000000E+00 0. -1.
         11    1    3    3    0    0 -0.18073294538E+02  0.14655251677E+02 -0.11132845481E+02  0.25794585206E+02  0.51100000000E-03 0. -1.
        -11    1    3    3    0    0  0.68368897251E+01  0.15511803471E+02  0.33806433119E+00  0.16955040424E+02  0.51100000000E-03 0.  1.
         12    1    3    3    0    0 -0.30430097553E+01  0.40417245350E+01 -0.59093357498E+01  0.77791834142E+01  0.00000000000E+00 0. -1.
</event>
<event>
 7    1  0.2966651E-011  0.5052887E+02  0.7816164E-02  0.1300439E+00
        -11   -1    0    0    0    0  0.00000000000E+00  0.00000000000E+00  0.45593999997E+02  0.45594000000E+02  0.51100000000E-03 0.  1.
         11   -1    0    0    0    0 -0.00000000000E+00 -0.00000000000E+00 -0.45593999997E+02  0.45594000000E+02  0.51100000000E-03 0. -1.
    9900012    2    1    2    0    0 -0.21724563469E+02 -0.10223016315E+02  0.32813078757E+02  0.50528869930E+02  0.30000030640E+02 0.  0.
         12    1    1    2    0    0  0.21724563469E+02  0.10223016315E+02 -0.32813078757E+02  0.40659130070E+02  0.00000000000E+00 0. -1.
         11    1    3    3    0    0  0.40455385188E+01  0.34100261218E+00  0.44552863212E+00  0.40842576696E+01  0.51100000000E-03 0. -1.
        -11    1    3    3    0    0 -0.15931118005E+02 -0.13952773556E+02  0.14166724107E+02  0.25478941952E+02  0.51100000000E-03 0.  1.
         12    1    3    3    0    0 -0.98389839826E+01  0.33887546292E+01  0.18200826018E+02  0.20965670309E+02  0.00000000000E+00 0. -1.
</event>
<event>
 7    1  0.2966651E-011  0.5052883E+02  0.7816164E-02  0.1300439E+00
        -11   -1    0    0    0    0  0.00000000000E+00  0.00000000000E+00  0.45593999997E+02  0.45594000000E+02  0.51100000000E-03 0. -1.
         11   -1    0    0    0    0 -0.00000000000E+00 -0.00000000000E+00 -0.45593999997E+02  0.45594000000E+02  0.51100000000E-03 0.  1.
    9900012    2    1    2    0    0 -0.11870808942E+02 -0.23824956143E+02 -0.30734723253E+02  0.50528833093E+02  0.29999918669E+02 0.  0.
         12    1    1    2    0    0  0.11870808942E+02  0.23824956143E+02  0.30734723253E+02  0.40659166907E+02  0.00000000000E+00 0. -1.
         11    1    3    3    0    0 -0.50593454047E+01 -0.18802845712E+02 -0.26483612681E+02  0.32871351109E+02  0.51100000000E-03 0. -1.
        -11    1    3    3    0    0  0.45042899849E+01  0.13934218742E+00  0.22233024317E-01  0.45064996485E+01  0.51100000000E-03 0.  1.
         12    1    3    3    0    0 -0.11315753522E+02 -0.51614526181E+01 -0.42733435960E+01  0.13150982336E+02  0.00000000000E+00 0. -1.
</event>
<event>
 7    1  0.2966651E-011  0.5052886E+02  0.7816164E-02  0.1300439E+00
        -11   -1    0    0    0    0  0.00000000000E+00  0.00000000000E+00  0.45593999997E+02  0.45594000000E+02  0.51100000000E-03 0.  1.
         11   -1    0    0    0    0 -0.00000000000E+00 -0.00000000000E+00 -0.45593999997E+02  0.45594000000E+02  0.51100000000E-03 0. -1.
    9900012    2    1    2    0    0 -0.29523296511E+02 -0.19483482991E+02  0.20048303868E+02  0.50528860384E+02  0.30000001623E+02 0.  0.
         12    1    1    2    0    0  0.29523296511E+02  0.19483482991E+02 -0.20048303868E+02  0.40659139616E+02  0.00000000000E+00 0. -1.
         11    1    3    3    0    0 -0.11239009581E+02 -0.22310401127E+02  0.19506565349E+02  0.31695037889E+02  0.51100000000E-03 0.  1.
        -11    1    3    3    0    0 -0.92686877366E+01  0.28272543574E+01 -0.78092420203E+00  0.97217170516E+01  0.51100000000E-03 0. -1.
        -12    1    3    3    0    0 -0.90155991938E+01 -0.33622195849E-03  0.13226627204E+01  0.91121054432E+01  0.00000000000E+00 0.  1.
</event>
<event>
 7    1  0.2966651E-011  0.5052886E+02  0.7816164E-02  0.1300439E+00
        -11   -1    0    0    0    0  0.00000000000E+00  0.00000000000E+00  0.45593999997E+02  0.45594000000E+02  0.51100000000E-03 0.  1.
         11   -1    0    0    0    0 -0.00000000000E+00 -0.00000000000E+00 -0.45593999997E+02  0.45594000000E+02  0.51100000000E-03 0. -1.
    9900012    2    1    2    0    0 -0.19809354007E+02  0.35437790720E+02 -0.22176950417E+01  0.50528859717E+02  0.29999999595E+02 0.  0.
         12    1    1    2    0    0  0.19809354007E+02 -0.35437790720E+02  0.22176950417E+01  0.40659140283E+02  0.00000000000E+00 0. -1.
         11    1    3    3    0    0 -0.11355419933E+02  0.76426811536E+01  0.62617751613E+01  0.15052108341E+02  0.51100000000E-03 0.  1.
        -11    1    3    3    0    0 -0.59963503190E+00  0.23426984620E+02 -0.11354960811E+02  0.26040704787E+02  0.51100000000E-03 0. -1.
         12    1    3    3    0    0 -0.78542990420E+01  0.43681249466E+01  0.28754906079E+01  0.94360465888E+01  0.00000000000E+00 0. -1.
</event>
<event>
 7    1  0.2966651E-011  0.5052886E+02  0.7816164E-02  0.1300439E+00
        -11   -1    0    0    0    0  0.00000000000E+00  0.00000000000E+00  0.45593999997E+02  0.45594000000E+02  0.51100000000E-03 0.  1.
         11   -1    0    0    0    0 -0.00000000000E+00 -0.00000000000E+00 -0.45593999997E+02  0.45594000000E+02  0.51100000000E-03 0. -1.
    9900012    2    1    2    0    0 -0.31297056242E+02 -0.22927243368E+02  0.12165587667E+02  0.50528859070E+02  0.29999997630E+02 0.  0.
         12    1    1    2    0    0  0.31297056242E+02  0.22927243368E+02 -0.12165587667E+02  0.40659140930E+02  0.00000000000E+00 0. -1.
         11    1    3    3    0    0 -0.19077160389E+01 -0.69999040863E+01 -0.54501963892E+01  0.90742866741E+01  0.51100000000E-03 0. -1.
        -11    1    3    3    0    0 -0.21969472470E+02 -0.72418264083E+01  0.19016826115E+02  0.29945641521E+02  0.51100000000E-03 0.  1.
        -12    1    3    3    0    0 -0.74198677326E+01 -0.86855128734E+01 -0.14010420588E+01  0.11508930875E+02  0.00000000000E+00 0.  1.
</event>
<event>
 7    1  0.2966651E-011  0.5052884E+02  0.7816164E-02  0.1300439E+00
        -11   -1    0    0    0    0  0.00000000000E+00  0.00000000000E+00  0.45593999997E+02  0.45594000000E+02  0.51100000000E-03 0.  1.
         11   -1    0    0    0    0 -0.00000000000E+00 -0.00000000000E+00 -0.45593999997E+02  0.45594000000E+02  0.51100000000E-03 0. -1.
    9900012    2    1    2    0    0 -0.26146988953E+00 -0.67704576030E+01  0.40090645320E+02  0.50528839841E+02  0.29999939180E+02 0.  0.
         12    1    1    2    0    0  0.26146988953E+00  0.67704576030E+01 -0.40090645320E+02  0.40659160159E+02  0.00000000000E+00 0. -1.
         11    1    3    3    0    0  0.14925302736E+01 -0.43621954245E+01 -0.17648110083E+01  0.49366946123E+01  0.51100000000E-03 0. -1.
        -11    1    3    3    0    0  0.55148529199E+01  0.43984555992E+01  0.25369684928E+02  0.26332127297E+02  0.51100000000E-03 0.  1.
         12    1    3    3    0    0 -0.72688530830E+01 -0.68067177777E+01  0.16485771400E+02  0.19260017931E+02  0.00000000000E+00 0. -1.
</event>
<event>
 7    1  0.2966651E-011  0.5052886E+02  0.7816164E-02  0.1300439E+00
        -11   -1    0    0    0    0  0.00000000000E+00  0.00000000000E+00  0.45593999997E+02  0.45594000000E+02  0.51100000000E-03 0. -1.
         11   -1    0    0    0    0 -0.00000000000E+00 -0.00000000000E+00 -0.45593999997E+02  0.45594000000E+02  0.51100000000E-03 0.  1.
    9900012    2    1    2    0    0  0.31336279086E+02  0.14388765154E+02 -0.21544524071E+02  0.50528862441E+02  0.30000007876E+02 0.  0.
         12    1    1    2    0    0 -0.31336279086E+02 -0.14388765154E+02  0.21544524071E+02  0.40659137559E+02  0.00000000000E+00 0. -1.
         11    1    3    3    0    0  0.10124640795E+02  0.13427433051E+02 -0.14163254975E+01  0.16876323289E+02  0.51100000000E-03 0. -1.
        -11    1    3    3    0    0  0.17199479182E+02 -0.64996067396E+01 -0.15170312041E+02  0.23837058115E+02  0.51100000000E-03 0.  1.
        -12    1    3    3    0    0  0.40121591094E+01  0.74609388421E+01 -0.49578865320E+01  0.98154810370E+01  0.00000000000E+00 0.  1.
</event>
<event>
 7    1  0.2966651E-011  0.5052887E+02  0.7816164E-02  0.1300439E+00
        -11   -1    0    0    0    0  0.00000000000E+00  0.00000000000E+00  0.45593999997E+02  0.45594000000E+02  0.51100000000E-03 0.  1.
         11   -1    0    0    0    0 -0.00000000000E+00 -0.00000000000E+00 -0.45593999997E+02  0.45594000000E+02  0.51100000000E-03 0. -1.
    9900012    2    1    2    0    0 -0.18640261061E+02  0.21007610533E+02  0.29400445074E+02  0.50528865684E+02  0.30000017734E+02 0.  0.
         12    1    1    2    0    0  0.18640261061E+02 -0.21007610533E+02 -0.29400445074E+02  0.40659134316E+02  0.00000000000E+00 0. -1.
         11    1    3    3    0    0 -0.45466877571E+01 -0.80394825504E+00 -0.38547182779E+01  0.60147781024E+01  0.51100000000E-03 0. -1.
        -11    1    3    3    0    0 -0.12411016792E+02  0.64513598633E+01  0.18050369304E+02  0.22835700431E+02  0.51100000000E-03 0.  1.
         12    1    3    3    0    0 -0.16825565121E+01  0.15360198925E+02  0.15204794048E+02  0.21678387151E+02  0.00000000000E+00 0. -1.
</event>
<event>
 7    1  0.2966651E-011  0.5052884E+02  0.7816164E-02  0.1300439E+00
        -11   -1    0    0    0    0  0.00000000000E+00  0.00000000000E+00  0.45593999997E+02  0.45594000000E+02  0.51100000000E-03 0.  1.
         11   -1    0    0    0    0 -0.00000000000E+00 -0.00000000000E+00 -0.45593999997E+02  0.45594000000E+02  0.51100000000E-03 0. -1.
    9900012    2    1    2    0    0 -0.23746945254E+02  0.20327521158E+02 -0.26000808417E+02  0.50528836658E+02  0.29999929506E+02 0.  0.
         12    1    1    2    0    0  0.23746945254E+02 -0.20327521158E+02  0.26000808417E+02  0.40659163342E+02  0.00000000000E+00 0. -1.
         11    1    3    3    0    0 -0.13192896250E+01  0.20022601998E+02 -0.11718775333E+02  0.23237358099E+02  0.51100000000E-03 0. -1.
        -11    1    3    3    0    0 -0.15590045961E+02 -0.45839472095E-01 -0.64042315468E+01  0.16854252172E+02  0.51100000000E-03 0.  1.
         12    1    3    3    0    0 -0.68376096682E+01  0.35075863276E+00 -0.78778015367E+01  0.10437226387E+02  0.00000000000E+00 0. -1.
</event>
<event>
 7    1  0.2966651E-011  0.5052887E+02  0.7816164E-02  0.1300439E+00
        -11   -1    0    0    0    0  0.00000000000E+00  0.00000000000E+00  0.45593999997E+02  0.45594000000E+02  0.51100000000E-03 0.  1.
         11   -1    0    0    0    0 -0.00000000000E+00 -0.00000000000E+00 -0.45593999997E+02  0.45594000000E+02  0.51100000000E-03 0. -1.
    9900012    2    1    2    0    0 -0.50135838326E+01  0.29674940011E+02  0.27339104305E+02  0.50528871730E+02  0.30000036111E+02 0.  0.
         12    1    1    2    0    0  0.50135838326E+01 -0.29674940011E+02 -0.27339104305E+02  0.40659128270E+02  0.00000000000E+00 0. -1.
         11    1    3    3    0    0  0.98816253606E+01  0.11600936610E+02  0.16664064070E+02  0.22581392375E+02  0.51100000000E-03 0. -1.
        -11    1    3    3    0    0 -0.12757029807E+02  0.15879710542E+02  0.12944817119E+02  0.24134525206E+02  0.51100000000E-03 0.  1.
        -12    1    3    3    0    0 -0.21381793865E+01  0.21942928587E+01 -0.22697768849E+01  0.38129541494E+01  0.00000000000E+00 0.  1.
</event>
<event>
 7    1  0.2966651E-011  0.5052889E+02  0.7816164E-02  0.1300439E+00
        -11   -1    0    0    0    0  0.00000000000E+00  0.00000000000E+00  0.45593999997E+02  0.45594000000E+02  0.51100000000E-03 0.  1.
         11   -1    0    0    0    0 -0.00000000000E+00 -0.00000000000E+00 -0.45593999997E+02  0.45594000000E+02  0.51100000000E-03 0. -1.
    9900012    2    1    2    0    0  0.35753013646E+02 -0.97785935665E+01  0.16711210059E+02  0.50528887632E+02  0.30000084448E+02 0.  0.
         12    1    1    2    0    0 -0.35753013646E+02  0.97785935665E+01 -0.16711210059E+02  0.40659112368E+02  0.00000000000E+00 0. -1.
         11    1    3    3    0    0 -0.23302967430E+01 -0.31388338843E+01  0.10315588968E+02  0.11031497500E+02  0.51100000000E-03 0. -1.
        -11    1    3    3    0    0  0.29744698789E+02 -0.51409816444E+01  0.70561244929E+01  0.30999446631E+02  0.51100000000E-03 0.  1.
         12    1    3    3    0    0  0.83386115995E+01 -0.14987780379E+01 -0.66050340205E+00  0.84979435017E+01  0.00000000000E+00 0. -1.
</event>
<event>
 7    1  0.2966651E-011  0.5052887E+02  0.7816164E-02  0.1300439E+00
        -11   -1    0    0    0    0  0.00000000000E+00  0.00000000000E+00  0.45593999997E+02  0.45594000000E+02  0.51100000000E-03 0.  1.
         11   -1    0    0    0    0 -0.00000000000E+00 -0.00000000000E+00 -0.45593999997E+02  0.45594000000E+02  0.51100000000E-03 0. -1.
    9900012    2    1    2    0    0 -0.37205327780E+02  0.15784173044E+02 -0.44484418584E+01  0.50528866108E+02  0.30000019021E+02 0.  0.
         12    1    1    2    0    0  0.37205327780E+02 -0.15784173044E+02  0.44484418584E+01  0.40659133892E+02  0.00000000000E+00 0. -1.
         11    1    3    3    0    0 -0.34252493749E+02  0.92585184188E+01 -0.91969657042E+01  0.36654299472E+02  0.51100000000E-03 0. -1.
        -11    1    3    3    0    0  0.82928626736E+00  0.60300557963E+01  0.71323040878E+01  0.93765159031E+01  0.51100000000E-03 0.  1.
        -12    1    3    3    0    0 -0.37821202982E+01  0.49559882845E+00 -0.23837802420E+01  0.44980507323E+01  0.00000000000E+00 0.  1.
</event>
<event>
 7    1  0.2966651E-011  0.5052886E+02  0.7816164E-02  0.1300439E+00
        -11   -1    0    0    0    0  0.00000000000E+00  0.00000000000E+00  0.45593999997E+02  0.45594000000E+02  0.51100000000E-03 0. -1.
         11   -1    0    0    0    0 -0.00000000000E+00 -0.00000000000E+00 -0.45593999997E+02  0.45594000000E+02  0.51100000000E-03 0.  1.
    9900012    2    1    2    0    0 -0.12943652595E+02  0.23193591025E+02 -0.30784490013E+02  0.50528860407E+02  0.30000001693E+02 0.  0.
         12    1    1    2    0    0  0.12943652595E+02 -0.23193591025E+02  0.30784490013E+02  0.40659139593E+02  0.00000000000E+00 0. -1.
         11    1    3    3    0    0 -0.72645120061E+01  0.24850565209E+02 -0.29835584916E+02  0.39502985374E+02  0.51100000000E-03 0.  1.
        -11    1    3    3    0    0 -0.10998276285E+01 -0.34883776836E+01  0.29818835125E+01  0.47191131814E+01  0.51100000000E-03 0. -1.
         12    1    3    3    0    0 -0.45793129603E+01  0.18314034992E+01 -0.39307886093E+01  0.63067618519E+01  0.00000000000E+00 0. -1.
</event>
<event>
 7    1  0.2966651E-011  0.5052887E+02  0.7816164E-02  0.1300439E+00
        -11   -1    0    0    0    0  0.00000000000E+00  0.00000000000E+00  0.45593999997E+02  0.45594000000E+02  0.51100000000E-03 0.  1.
         11   -1    0    0    0    0 -0.00000000000E+00 -0.00000000000E+00 -0.45593999997E+02  0.45594000000E+02  0.51100000000E-03 0. -1.
    9900012    2    1    2    0    0 -0.20363031288E+02 -0.25764416484E+02  0.23973044106E+02  0.50528867647E+02  0.30000023701E+02 0.  0.
         12    1    1    2    0    0  0.20363031288E+02  0.25764416484E+02 -0.23973044106E+02  0.40659132353E+02  0.00000000000E+00 0. -1.
         11    1    3    3    0    0  0.19798119090E+01 -0.91628704799E+01  0.28063437011E+01  0.97853674359E+01  0.51100000000E-03 0. -1.
        -11    1    3    3    0    0 -0.73850300681E+01  0.44752185048E+01  0.78474431443E+01  0.11668273820E+02  0.51100000000E-03 0.  1.
        -12    1    3    3    0    0 -0.14957813129E+02 -0.21076764509E+02  0.13319257260E+02  0.29075226391E+02  0.00000000000E+00 0.  1.
</event>
<event>
 7    1  0.2966651E-011  0.5052885E+02  0.7816164E-02  0.1300439E+00
        -11   -1    0    0    0    0  0.00000000000E+00  0.00000000000E+00  0.45593999997E+02  0.45594000000E+02  0.51100000000E-03 0.  1.
         11   -1    0    0    0    0 -0.00000000000E+00 -0.00000000000E+00 -0.45593999997E+02  0.45594000000E+02  0.51100000000E-03 0. -1.
    9900012    2    1    2    0    0 -0.19943875762E+02  0.33749772364E+02 -0.10787095963E+02  0.50528846610E+02  0.29999959756E+02 0.  0.
         12    1    1    2    0    0  0.19943875762E+02 -0.33749772364E+02  0.10787095963E+02  0.40659153390E+02  0.00000000000E+00 0. -1.
         11    1    3    3    0    0 -0.23408936450E+02  0.25609657444E+02 -0.70535287705E+01  0.35406004130E+02  0.51100000000E-03 0.  1.
        -11    1    3    3    0    0 -0.89787350000E+00 -0.27138504028E+01 -0.14452317972E+01  0.32031010036E+01  0.51100000000E-03 0. -1.
         12    1    3    3    0    0  0.43629341880E+01  0.10853965324E+02 -0.22883353955E+01  0.11919741476E+02  0.00000000000E+00 0. -1.
</event>
<event>
 7    1  0.2966651E-011  0.5052885E+02  0.7816164E-02  0.1300439E+00
        -11   -1    0    0    0    0  0.00000000000E+00  0.00000000000E+00  0.45593999997E+02  0.45594000000E+02  0.51100000000E-03 0. -1.
         11   -1    0    0    0    0 -0.00000000000E+00 -0.00000000000E+00 -0.45593999997E+02  0.45594000000E+02  0.51100000000E-03 0.  1.
    9900012    2    1    2    0    0 -0.39311562245E+02 -0.57442266116E+00 -0.10365200047E+02  0.50528852696E+02  0.29999978254E+02 0.  0.
         12    1    1    2    0    0  0.39311562245E+02  0.57442266116E+00  0.10365200047E+02  0.40659147304E+02  0.00000000000E+00 0. -1.
         11    1    3    3    0    0 -0.12345355616E+02 -0.85686517565E+01 -0.72866216753E+01  0.16701031523E+02  0.51100000000E-03 0. -1.
        -11    1    3    3    0    0 -0.28801560380E+02  0.10434932318E+02 -0.27808486396E+01  0.30759564565E+02  0.51100000000E-03 0.  1.
         12    1    3    3    0    0  0.18353537522E+01 -0.24407032229E+01 -0.29772973170E+00  0.30682566077E+01  0.00000000000E+00 0. -1.
</event>
<event>
 7    1  0.2966651E-011  0.5052885E+02  0.7816164E-02  0.1300439E+00
        -11   -1    0    0    0    0  0.00000000000E+00  0.00000000000E+00  0.45593999997E+02  0.45594000000E+02  0.51100000000E-03 0.  1.
         11   -1    0    0    0    0 -0.00000000000E+00 -0.00000000000E+00 -0.45593999997E+02  0.45594000000E+02  0.51100000000E-03 0. -1.
    9900012    2    1    2    0    0 -0.33144211932E+02  0.35173959504E+01  0.23286376371E+02  0.50528853632E+02  0.29999981100E+02 0.  0.
         12    1    1    2    0    0  0.33144211932E+02 -0.35173959504E+01 -0.23286376371E+02  0.40659146368E+02  0.00000000000E+00 0. -1.
         11    1    3    3    0    0 -0.18312475489E+02 -0.24672992128E+01  0.25956638266E+02  0.31861911340E+02  0.51100000000E-03 0. -1.
        -11    1    3    3    0    0 -0.13395677767E+02  0.79248582494E+01 -0.37700434462E+01  0.16014393181E+02  0.51100000000E-03 0.  1.
         12    1    3    3    0    0 -0.14360586760E+01 -0.19401630862E+01  0.10997815515E+01  0.26525491104E+01  0.00000000000E+00 0. -1.
</event>
<event>
 7    1  0.2966651E-011  0.5052885E+02  0.7816164E-02  0.1300439E+00
        -11   -1    0    0    0    0  0.00000000000E+00  0.00000000000E+00  0.45593999997E+02  0.45594000000E+02  0.51100000000E-03 0. -1.
         11   -1    0    0    0    0 -0.00000000000E+00 -0.00000000000E+00 -0.45593999997E+02  0.45594000000E+02  0.51100000000E-03 0.  1.
    9900012    2    1    2    0    0  0.67758359597E+01 -0.10631021796E+02 -0.38655343347E+02  0.50528854083E+02  0.29999982472E+02 0.  0.
         12    1    1    2    0    0 -0.67758359597E+01  0.10631021796E+02  0.38655343347E+02  0.40659145917E+02  0.00000000000E+00 0. -1.
         11    1    3    3    0    0 -0.27961536514E+01 -0.12532844797E+02 -0.25759541135E+02  0.28782714148E+02  0.51100000000E-03 0. -1.
        -11    1    3    3    0    0  0.40503740255E+01  0.80615201587E+01 -0.84203993998E+01  0.12340857479E+02  0.51100000000E-03 0.  1.
         12    1    3    3    0    0  0.55216155856E+01 -0.61596971579E+01 -0.44754028118E+01  0.94052824561E+01  0.00000000000E+00 0. -1.
</event>
<event>
 7    1  0.2966651E-011  0.5052886E+02  0.7816164E-02  0.1300439E+00
        -11   -1    0    0    0    0  0.00000000000E+00  0.00000000000E+00  0.45593999997E+02  0.45594000000E+02  0.51100000000E-03 0. -1.
         11   -1    0    0    0    0 -0.00000000000E+00 -0.00000000000E+00 -0.45593999997E+02  0.45594000000E+02  0.51100000000E-03 0.  1.
    9900012    2    1    2    0    0 -0.19175089771E+02 -0.29960912101E+02 -0.19693289043E+02  0.50528856441E+02  0.29999989637E+02 0.  0.
         12    1    1    2    0    0  0.19175089771E+02  0.29960912101E+02  0.19693289043E+02  0.40659143559E+02  0.00000000000E+00 0. -1.
         11    1    3    3    0    0 -0.14495360283E+00 -0.10187268731E+00  0.50282518992E+01  0.50313722795E+01  0.51100000000E-03 0. -1.
        -11    1    3    3    0    0 -0.16874746079E+02 -0.31294435575E+02 -0.23610031675E+02  0.42679413646E+02  0.51100000000E-03 0.  1.
         12    1    3    3    0    0 -0.21553900889E+01  0.14353961617E+01 -0.11115092669E+01  0.28180705148E+01  0.00000000000E+00 0. -1.
</event>
<event>
 7    1  0.2966651E-011  0.5052886E+02  0.7816164E-02  0.1300439E+00
        -11   -1    0    0    0    0  0.00000000000E+00  0.00000000000E+00  0.45593999997E+02  0.45594000000E+02  0.51100000000E-03 0.  1.
         11   -1    0    0    0    0 -0.00000000000E+00 -0.00000000000E+00 -0.45593999997E+02  0.45594000000E+02  0.51100000000E-03 0. -1.
    9900012    2    1    2    0    0 -0.30221212649E+01 -0.40521903983E+02  0.14169562384E+01  0.50528859769E+02  0.29999999755E+02 0.  0.
         12    1    1    2    0    0  0.30221212649E+01  0.40521903983E+02 -0.14169562384E+01  0.40659140231E+02  0.00000000000E+00 0. -1.
         11    1    3    3    0    0 -0.55135886184E+01 -0.17230920290E+02 -0.13075427755E+02  0.22321986576E+02  0.51100000000E-03 0. -1.
        -11    1    3    3    0    0  0.17463201875E+01 -0.47874686153E+01  0.58879077213E+01  0.77869729379E+01  0.51100000000E-03 0.  1.
         12    1    3    3    0    0  0.74514716591E+00 -0.18503515077E+02  0.86044762716E+01  0.20419900255E+02  0.00000000000E+00 0. -1.
</event>
<event>
 7    1  0.2966651E-011  0.5052886E+02  0.7816164E-02  0.1300439E+00
        -11   -1    0    0    0    0  0.00000000000E+00  0.00000000000E+00  0.45593999997E+02  0.45594000000E+02  0.51100000000E-03 0. -1.
         11   -1    0    0    0    0 -0.00000000000E+00 -0.00000000000E+00 -0.45593999997E+02  0.45594000000E+02  0.51100000000E-03 0.  1.
    9900012    2    1    2    0    0  0.46716336609E+01 -0.38737076049E+02 -0.11435926001E+02  0.50528860494E+02  0.30000001956E+02 0.  0.
         12    1    1    2    0    0 -0.46716336609E+01  0.38737076049E+02  0.11435926001E+02  0.40659139506E+02  0.00000000000E+00 0. -1.
         11    1    3    3    0    0  0.44815202988E+01  0.11489571164E+01 -0.18058015974E+01  0.49663916795E+01  0.51100000000E-03 0. -1.
        -11    1    3    3    0    0  0.27722015270E+00 -0.34695709733E+02 -0.15260278345E+02  0.37904422174E+02  0.51100000000E-03 0.  1.
         12    1    3    3    0    0 -0.87106790674E-01 -0.51903234329E+01  0.56301539423E+01  0.76580466403E+01  0.00000000000E+00 0. -1.
</event>
<event>
 7    1  0.2966651E-011  0.5052886E+02  0.7816164E-02  0.1300439E+00
        -11   -1    0    0    0    0  0.00000000000E+00  0.00000000000E+00  0.45593999997E+02  0.45594000000E+02  0.51100000000E-03 0.  1.
         11   -1    0    0    0    0 -0.00000000000E+00 -0.00000000000E+00 -0.45593999997E+02  0.45594000000E+02  0.51100000000E-03 0. -1.
    9900012    2    1    2    0    0  0.24597244989E+02  0.32065125359E+02  0.44686472563E+01  0.50528861622E+02  0.30000005385E+02 0.  0.
         12    1    1    2    0    0 -0.24597244989E+02 -0.32065125359E+02 -0.44686472563E+01  0.40659138378E+02  0.00000000000E+00 0. -1.
         11    1    3    3    0    0  0.10032882758E+02 -0.24410225732E+01 -0.30998796992E+01  0.10780843290E+02  0.51100000000E-03 0. -1.
        -11    1    3    3    0    0  0.15743290674E+02  0.30760763126E+02  0.87529199219E+01  0.35646729959E+02  0.51100000000E-03 0.  1.
         12    1    3    3    0    0 -0.11789284420E+01  0.37453848068E+01 -0.11843929664E+01  0.41012883733E+01  0.00000000000E+00 0. -1.
</event>
<event>
 7    1  0.2966651E-011  0.5052886E+02  0.7816164E-02  0.1300439E+00
        -11   -1    0    0    0    0  0.00000000000E+00  0.00000000000E+00  0.45593999997E+02  0.45594000000E+02  0.51100000000E-03 0.  1.
         11   -1    0    0    0    0 -0.00000000000E+00 -0.00000000000E+00 -0.45593999997E+02  0.45594000000E+02  0.51100000000E-03 0. -1.
    9900012    2    1    2    0    0  0.14820799867E+02  0.29049828651E+02  0.24282029960E+02  0.50528860409E+02  0.30000001698E+02 0.  0.
         12    1    1    2    0    0 -0.14820799867E+02 -0.29049828651E+02 -0.24282029960E+02  0.40659139591E+02  0.00000000000E+00 0. -1.
         11    1    3    3    0    0 -0.73882597672E+01  0.12363995000E+02  0.74584514127E+01  0.16219841321E+02  0.51100000000E-03 0. -1.
        -11    1    3    3    0    0  0.16767411592E+02  0.14228373166E+02  0.17758017939E+02  0.28265524864E+02  0.51100000000E-03 0.  1.
         12    1    3    3    0    0  0.54416480426E+01  0.24574604846E+01 -0.93443939189E+00  0.60434942235E+01  0.00000000000E+00 0. -1.
</event>
<event>
 7    1  0.2966651E-011  0.5052886E+02  0.7816164E-02  0.1300439E+00
        -11   -1    0    0    0    0  0.00000000000E+00  0.00000000000E+00  0.45593999997E+02  0.45594000000E+02  0.51100000000E-03 0. -1.
         11   -1    0    0    0    0 -0.00000000000E+00 -0.00000000000E+00 -0.45593999997E+02  0.45594000000E+02  0.51100000000E-03 0.  1.
    9900012    2    1    2    0    0  0.20851946842E+02  0.20286493574E+02  0.28404582236E+02  0.50528858339E+02  0.29999995407E+02 0.  0.
         12    1    1    2    0    0 -0.20851946842E+02 -0.20286493574E+02 -0.28404582236E+02  0.40659141661E+02  0.00000000000E+00 0. -1.
         11    1    3    3    0    0  0.89261302439E+00  0.11665506071E+01  0.98810351580E+01  0.99896173293E+01  0.51100000000E-03 0. -1.
        -11    1    3    3    0    0  0.21865098655E+02  0.20222709921E+02  0.21574788534E+02  0.36776514738E+02  0.51100000000E-03 0.  1.
        -12    1    3    3    0    0 -0.19057648370E+01 -0.11027669547E+01 -0.30512414560E+01  0.37627262713E+01  0.00000000000E+00 0.  1.
</event>
<event>
 7    1  0.2966651E-011  0.5052893E+02  0.7816164E-02  0.1300439E+00
        -11   -1    0    0    0    0  0.00000000000E+00  0.00000000000E+00  0.45593999997E+02  0.45594000000E+02  0.51100000000E-03 0. -1.
         11   -1    0    0    0    0 -0.00000000000E+00 -0.00000000000E+00 -0.45593999997E+02  0.45594000000E+02  0.51100000000E-03 0.  1.
    9900012    2    1    2    0    0 -0.34152083934E+01  0.17408429429E+02 -0.36584737839E+02  0.50528928364E+02  0.30000208254E+02 0.  0.
         12    1    1    2    0    0  0.34152083934E+01 -0.17408429429E+02  0.36584737839E+02  0.40659071636E+02  0.00000000000E+00 0. -1.
         11    1    3    3    0    0  0.29711988545E+00  0.54256540489E+01 -0.15422518899E+01  0.56484106824E+01  0.51100000000E-03 0. -1.
        -11    1    3    3    0    0 -0.69615549550E+01 -0.59721635502E+01 -0.75297178005E+01  0.11867039870E+02  0.51100000000E-03 0.  1.
        -12    1    3    3    0    0  0.32492266761E+01  0.17954938930E+02 -0.27512768149E+02  0.33013477811E+02  0.00000000000E+00 0.  1.
</event>
<event>
 7    1  0.2966651E-011  0.5052887E+02  0.7816164E-02  0.1300439E+00
        -11   -1    0    0    0    0  0.00000000000E+00  0.00000000000E+00  0.45593999997E+02  0.45594000000E+02  0.51100000000E-03 0. -1.
         11   -1    0    0    0    0 -0.00000000000E+00 -0.00000000000E+00 -0.45593999997E+02  0.45594000000E+02  0.51100000000E-03 0.  1.
    9900012    2    1    2    0    0  0.32735163097E+02 -0.18976790425E+02 -0.14881378457E+02  0.50528869382E+02  0.30000028975E+02 0.  0.
         12    1    1    2    0    0 -0.32735163097E+02  0.18976790425E+02  0.14881378457E+02  0.40659130618E+02  0.00000000000E+00 0. -1.
         11    1    3    3    0    0  0.55862771215E+01 -0.93458499521E+01  0.11186825586E+01  0.10945449024E+02  0.51100000000E-03 0. -1.
        -11    1    3    3    0    0  0.85701447745E+01  0.28802751466E+01 -0.14559688815E+02  0.17138491912E+02  0.51100000000E-03 0.  1.
        -12    1    3    3    0    0  0.18578741201E+02 -0.12511215619E+02 -0.14403722005E+01  0.22444928446E+02  0.00000000000E+00 0.  1.
</event>
<event>
 7    1  0.2966651E-011  0.5052886E+02  0.7816164E-02  0.1300439E+00
        -11   -1    0    0    0    0  0.00000000000E+00  0.00000000000E+00  0.45593999997E+02  0.45594000000E+02  0.51100000000E-03 0. -1.
         11   -1    0    0    0    0 -0.00000000000E+00 -0.00000000000E+00 -0.45593999997E+02  0.45594000000E+02  0.51100000000E-03 0.  1.
    9900012    2    1    2    0    0  0.29828458417E+02 -0.10693044441E+02 -0.25477203944E+02  0.50528855251E+02  0.29999986021E+02 0.  0.
         12    1    1    2    0    0 -0.29828458417E+02  0.10693044441E+02  0.25477203944E+02  0.40659144749E+02  0.00000000000E+00 0. -1.
         11    1    3    3    0    0  0.66019114515E+01 -0.44996974000E+01 -0.19751151154E+02  0.21305879087E+02  0.51100000000E-03 0. -1.
        -11    1    3    3    0    0  0.15336313210E+02 -0.10870600786E+02 -0.67948095933E+01  0.19988544269E+02  0.51100000000E-03 0.  1.
        -12    1    3    3    0    0  0.78902337550E+01  0.46772537455E+01  0.10687568036E+01  0.92344318945E+01  0.00000000000E+00 0.  1.
</event>
<event>
 7    1  0.2966651E-011  0.5052887E+02  0.7816164E-02  0.1300439E+00
        -11   -1    0    0    0    0  0.00000000000E+00  0.00000000000E+00  0.45593999997E+02  0.45594000000E+02  0.51100000000E-03 0. -1.
         11   -1    0    0    0    0 -0.00000000000E+00 -0.00000000000E+00 -0.45593999997E+02  0.45594000000E+02  0.51100000000E-03 0.  1.
    9900012    2    1    2    0    0  0.27520922227E+02  0.30111475882E+01 -0.29777451302E+02  0.50528870938E+02  0.30000033703E+02 0.  0.
         12    1    1    2    0    0 -0.27520922227E+02 -0.30111475882E+01  0.29777451302E+02  0.40659129062E+02  0.00000000000E+00 0. -1.
         11    1    3    3    0    0  0.48926826090E+00 -0.61322208269E+01 -0.16816385511E+02  0.17906265317E+02  0.51100000000E-03 0. -1.
        -11    1    3    3    0    0  0.13585362617E+02  0.11768026171E+01 -0.94878434523E+01  0.16612227890E+02  0.51100000000E-03 0.  1.
         12    1    3    3    0    0  0.13446291349E+02  0.79665657980E+01 -0.34732223386E+01  0.16010377730E+02  0.00000000000E+00 0. -1.
</event>
<event>
 7    1  0.2966651E-011  0.5052886E+02  0.7816164E-02  0.1300439E+00
        -11   -1    0    0    0    0  0.00000000000E+00  0.00000000000E+00  0.45593999997E+02  0.45594000000E+02  0.51100000000E-03 0.  1.
         11   -1    0    0    0    0 -0.00000000000E+00 -0.00000000000E+00 -0.45593999997E+02  0.45594000000E+02  0.51100000000E-03 0. -1.
    9900012    2    1    2    0    0 -0.36059757262E+02 -0.18067862580E+02 -0.51392862496E+01  0.50528855701E+02  0.29999987388E+02 0.  0.
         12    1    1    2    0    0  0.36059757262E+02  0.18067862580E+02  0.51392862496E+01  0.40659144299E+02  0.00000000000E+00 0. -1.
         11    1    3    3    0    0 -0.29406470435E+02 -0.25657779664E+01  0.54912168901E+00  0.29523300203E+02  0.51100000000E-03 0. -1.
        -11    1    3    3    0    0 -0.29770474136E+01 -0.16204558215E+02 -0.45158211351E+01  0.17083417662E+02  0.51100000000E-03 0.  1.
        -12    1    3    3    0    0 -0.36762394137E+01  0.70247360108E+00 -0.11725868035E+01  0.39221378353E+01  0.00000000000E+00 0.  1.
</event>
<event>
 7    1  0.2966651E-011  0.5052887E+02  0.7816164E-02  0.1300439E+00
        -11   -1    0    0    0    0  0.00000000000E+00  0.00000000000E+00  0.45593999997E+02  0.45594000000E+02  0.51100000000E-03 0. -1.
         11   -1    0    0    0    0 -0.00000000000E+00 -0.00000000000E+00 -0.45593999997E+02  0.45594000000E+02  0.51100000000E-03 0.  1.
    9900012    2    1    2    0    0 -0.24459486518E+02 -0.30703861609E+02 -0.10591107553E+02  0.50528866246E+02  0.30000019442E+02 0.  0.
         12    1    1    2    0    0  0.24459486518E+02  0.30703861609E+02  0.10591107553E+02  0.40659133754E+02  0.00000000000E+00 0. -1.
         11    1    3    3    0    0 -0.18912664200E+01 -0.32017349946E+01  0.52661916413E+01  0.64467643288E+01  0.51100000000E-03 0. -1.
        -11    1    3    3    0    0 -0.26173275384E+02 -0.24371169705E+02 -0.16268796417E+02  0.39289540520E+02  0.51100000000E-03 0.  1.
        -12    1    3    3    0    0  0.36050552864E+01 -0.31309569092E+01  0.41149722297E+00  0.47925613976E+01  0.00000000000E+00 0.  1.
</event>
<event>
 7    1  0.2966651E-011  0.5052886E+02  0.7816164E-02  0.1300439E+00
        -11   -1    0    0    0    0  0.00000000000E+00  0.00000000000E+00  0.45593999997E+02  0.45594000000E+02  0.51100000000E-03 0.  1.
         11   -1    0    0    0    0 -0.00000000000E+00 -0.00000000000E+00 -0.45593999997E+02  0.45594000000E+02  0.51100000000E-03 0. -1.
    9900012    2    1    2    0    0  0.39273233697E+02 -0.10321434161E+02 -0.20608145178E+01  0.50528857798E+02  0.29999993762E+02 0.  0.
         12    1    1    2    0    0 -0.39273233697E+02  0.10321434161E+02  0.20608145178E+01  0.40659142202E+02  0.00000000000E+00 0. -1.
         11    1    3    3    0    0  0.14690487298E+02 -0.83931015471E+01 -0.92897683874E+01  0.19301667482E+02  0.51100000000E-03 0. -1.
        -11    1    3    3    0    0  0.93346362393E+01 -0.66507286775E+01  0.97737246210E+01  0.15062978420E+02  0.51100000000E-03 0.  1.
        -12    1    3    3    0    0  0.15248110160E+02  0.47223960639E+01 -0.25447707514E+01  0.16164211896E+02  0.00000000000E+00 0.  1.
</event>
<event>
 7    1  0.2966651E-011  0.5052887E+02  0.7816164E-02  0.1300439E+00
        -11   -1    0    0    0    0  0.00000000000E+00  0.00000000000E+00  0.45593999997E+02  0.45594000000E+02  0.51100000000E-03 0. -1.
         11   -1    0    0    0    0 -0.00000000000E+00 -0.00000000000E+00 -0.45593999997E+02  0.45594000000E+02  0.51100000000E-03 0.  1.
    9900012    2    1    2    0    0 -0.64662683821E+01 -0.15609903391E+02 -0.36982205271E+02  0.50528865511E+02  0.30000017207E+02 0.  0.
         12    1    1    2    0    0  0.64662683821E+01  0.15609903391E+02  0.36982205271E+02  0.40659134489E+02  0.00000000000E+00 0. -1.
         11    1    3    3    0    0  0.31397737807E+01 -0.11047175438E+02 -0.13143794960E+01  0.11559665145E+02  0.51100000000E-03 0. -1.
        -11    1    3    3    0    0 -0.47446866376E+01 -0.72658002720E+01 -0.29080209515E+02  0.30347363816E+02  0.51100000000E-03 0.  1.
         12    1    3    3    0    0 -0.48613555251E+01  0.27030723188E+01 -0.65876162601E+01  0.86218365498E+01  0.00000000000E+00 0. -1.
</event>
<event>
 7    1  0.2966651E-011  0.5052885E+02  0.7816164E-02  0.1300439E+00
        -11   -1    0    0    0    0  0.00000000000E+00  0.00000000000E+00  0.45593999997E+02  0.45594000000E+02  0.51100000000E-03 0.  1.
         11   -1    0    0    0    0 -0.00000000000E+00 -0.00000000000E+00 -0.45593999997E+02  0.45594000000E+02  0.51100000000E-03 0. -1.
    9900012    2    1    2    0    0 -0.15713873911E+02 -0.35456463705E+02  0.12209818038E+02  0.50528852096E+02  0.29999976430E+02 0.  0.
         12    1    1    2    0    0  0.15713873911E+02  0.35456463705E+02 -0.12209818038E+02  0.40659147904E+02  0.00000000000E+00 0. -1.
         11    1    3    3    0    0  0.19023839431E+01 -0.36491367646E+00 -0.14023282528E+01  0.23913911114E+01  0.51100000000E-03 0. -1.
        -11    1    3    3    0    0 -0.22760299453E+02 -0.25316158125E+02  0.14610913110E+02  0.37046158716E+02  0.51100000000E-03 0.  1.
        -12    1    3    3    0    0  0.51440415998E+01 -0.97753919036E+01 -0.99876681919E+00  0.11091302268E+02  0.00000000000E+00 0.  1.
</event>
<event>
 7    1  0.2966651E-011  0.5052885E+02  0.7816164E-02  0.1300439E+00
        -11   -1    0    0    0    0  0.00000000000E+00  0.00000000000E+00  0.45593999997E+02  0.45594000000E+02  0.51100000000E-03 0. -1.
         11   -1    0    0    0    0 -0.00000000000E+00 -0.00000000000E+00 -0.45593999997E+02  0.45594000000E+02  0.51100000000E-03 0.  1.
    9900012    2    1    2    0    0  0.39199531434E+02 -0.10148774072E+02 -0.36831920972E+01  0.50528846248E+02  0.29999958655E+02 0.  0.
         12    1    1    2    0    0 -0.39199531434E+02  0.10148774072E+02  0.36831920972E+01  0.40659153752E+02  0.00000000000E+00 0. -1.
         11    1    3    3    0    0  0.24566216676E+02  0.13057995045E+01  0.71758502794E+01  0.25626098837E+02  0.51100000000E-03 0. -1.
        -11    1    3    3    0    0  0.34490709008E+01  0.17205612461E+01 -0.56744105609E+01  0.68596907040E+01  0.51100000000E-03 0.  1.
         12    1    3    3    0    0  0.11184243857E+02 -0.13175134823E+02 -0.51846318157E+01  0.18043056707E+02  0.00000000000E+00 0. -1.
</event>
<event>
 7    1  0.2966651E-011  0.5052886E+02  0.7816164E-02  0.1300439E+00
        -11   -1    0    0    0    0  0.00000000000E+00  0.00000000000E+00  0.45593999997E+02  0.45594000000E+02  0.51100000000E-03 0.  1.
         11   -1    0    0    0    0 -0.00000000000E+00 -0.00000000000E+00 -0.45593999997E+02  0.45594000000E+02  0.51100000000E-03 0. -1.
    9900012    2    1    2    0    0  0.16095197105E+02  0.92888648873E+01  0.36163893170E+02  0.50528861421E+02  0.30000004776E+02 0.  0.
         12    1    1    2    0    0 -0.16095197105E+02 -0.92888648873E+01 -0.36163893170E+02  0.40659138579E+02  0.00000000000E+00 0. -1.
         11    1    3    3    0    0 -0.11326307687E+01 -0.18220950639E+01  0.11503404710E+01  0.24343718575E+01  0.51100000000E-03 0. -1.
        -11    1    3    3    0    0  0.17355271717E+02  0.90276625140E+00  0.33546284872E+02  0.37780599152E+02  0.51100000000E-03 0.  1.
        -12    1    3    3    0    0 -0.12744384353E+00  0.10208193700E+02  0.14672678269E+01  0.10313890412E+02  0.00000000000E+00 0.  1.
</event>
<event>
 7    1  0.2966651E-011  0.5052886E+02  0.7816164E-02  0.1300439E+00
        -11   -1    0    0    0    0  0.00000000000E+00  0.00000000000E+00  0.45593999997E+02  0.45594000000E+02  0.51100000000E-03 0.  1.
         11   -1    0    0    0    0 -0.00000000000E+00 -0.00000000000E+00 -0.45593999997E+02  0.45594000000E+02  0.51100000000E-03 0. -1.
    9900012    2    1    2    0    0  0.36719738584E+01  0.15804822018E+02  0.37281228593E+02  0.50528858390E+02  0.29999995563E+02 0.  0.
         12    1    1    2    0    0 -0.36719738584E+01 -0.15804822018E+02 -0.37281228593E+02  0.40659141610E+02  0.00000000000E+00 0. -1.
         11    1    3    3    0    0  0.83514994361E+01  0.77365228085E+01  0.53473160542E+01  0.12577564042E+02  0.51100000000E-03 0.  1.
        -11    1    3    3    0    0 -0.82618237612E+01 -0.14097385771E+01  0.66054535390E+01  0.10671321916E+02  0.51100000000E-03 0. -1.
        -12    1    3    3    0    0  0.35822981836E+01  0.94780377865E+01  0.25328459000E+02  0.27279972432E+02  0.00000000000E+00 0.  1.
</event>
<event>
 7    1  0.2966651E-011  0.5052881E+02  0.7816164E-02  0.1300439E+00
        -11   -1    0    0    0    0  0.00000000000E+00  0.00000000000E+00  0.45593999997E+02  0.45594000000E+02  0.51100000000E-03 0.  1.
         11   -1    0    0    0    0 -0.00000000000E+00 -0.00000000000E+00 -0.45593999997E+02  0.45594000000E+02  0.51100000000E-03 0. -1.
    9900012    2    1    2    0    0 -0.37172016268E+02 -0.15935266765E+02  0.41807235283E+01  0.50528807073E+02  0.29999839577E+02 0.  0.
         12    1    1    2    0    0  0.37172016268E+02  0.15935266765E+02 -0.41807235283E+01  0.40659192927E+02  0.00000000000E+00 0. -1.
         11    1    3    3    0    0 -0.28487717564E+02 -0.18373665464E+02 -0.47979616228E+01  0.34236852521E+02  0.51100000000E-03 0. -1.
        -11    1    3    3    0    0 -0.16482649044E+01 -0.17686610603E+01  0.76046843287E+01  0.79797345282E+01  0.51100000000E-03 0.  1.
         12    1    3    3    0    0 -0.70360337999E+01  0.42070597593E+01  0.13740008223E+01  0.83122200230E+01  0.00000000000E+00 0. -1.
</event>
<event>
 7    1  0.2966651E-011  0.5052886E+02  0.7816164E-02  0.1300439E+00
        -11   -1    0    0    0    0  0.00000000000E+00  0.00000000000E+00  0.45593999997E+02  0.45594000000E+02  0.51100000000E-03 0.  1.
         11   -1    0    0    0    0 -0.00000000000E+00 -0.00000000000E+00 -0.45593999997E+02  0.45594000000E+02  0.51100000000E-03 0. -1.
    9900012    2    1    2    0    0  0.36048070149E+02 -0.12556528020E+02  0.14001286738E+02  0.50528858498E+02  0.29999995890E+02 0.  0.
         12    1    1    2    0    0 -0.36048070149E+02  0.12556528020E+02 -0.14001286738E+02  0.40659141502E+02  0.00000000000E+00 0. -1.
         11    1    3    3    0    0  0.14472386290E+02 -0.50015377588E+00  0.11267414797E+02  0.18348154000E+02  0.51100000000E-03 0. -1.
        -11    1    3    3    0    0  0.21035837742E+02 -0.54553618485E+01 -0.46898571304E+01  0.22232008514E+02  0.51100000000E-03 0.  1.
        -12    1    3    3    0    0  0.53984611757E+00 -0.66010123956E+01  0.74237290708E+01  0.99486959846E+01  0.00000000000E+00 0.  1.
</event>
<event>
 7    1  0.2966651E-011  0.5052885E+02  0.7816164E-02  0.1300439E+00
        -11   -1    0    0    0    0  0.00000000000E+00  0.00000000000E+00  0.45593999997E+02  0.45594000000E+02  0.51100000000E-03 0. -1.
         11   -1    0    0    0    0 -0.00000000000E+00 -0.00000000000E+00 -0.45593999997E+02  0.45594000000E+02  0.51100000000E-03 0.  1.
    9900012    2    1    2    0    0 -0.35189482498E+02  0.18514295602E+02 -0.84904258499E+01  0.50528854027E+02  0.29999982301E+02 0.  0.
         12    1    1    2    0    0  0.35189482498E+02 -0.18514295602E+02  0.84904258499E+01  0.40659145973E+02  0.00000000000E+00 0. -1.
         11    1    3    3    0    0 -0.17523900630E+02  0.24314703140E+01  0.91993466635E+01  0.19940589772E+02  0.51100000000E-03 0. -1.
        -11    1    3    3    0    0 -0.11097160487E+02  0.12482316805E+02 -0.15495384378E+02  0.22782935302E+02  0.51100000000E-03 0.  1.
         12    1    3    3    0    0 -0.65684213809E+01  0.36005084823E+01 -0.21943881358E+01  0.78053289526E+01  0.00000000000E+00 0. -1.
</event>
<event>
 7    1  0.2966651E-011  0.5052885E+02  0.7816164E-02  0.1300439E+00
        -11   -1    0    0    0    0  0.00000000000E+00  0.00000000000E+00  0.45593999997E+02  0.45594000000E+02  0.51100000000E-03 0. -1.
         11   -1    0    0    0    0 -0.00000000000E+00 -0.00000000000E+00 -0.45593999997E+02  0.45594000000E+02  0.51100000000E-03 0.  1.
    9900012    2    1    2    0    0  0.20353844445E+02 -0.34753652119E+02 -0.55741360336E+01  0.50528852053E+02  0.29999976300E+02 0.  0.
         12    1    1    2    0    0 -0.20353844445E+02  0.34753652119E+02  0.55741360336E+01  0.40659147947E+02  0.00000000000E+00 0. -1.
         11    1    3    3    0    0 -0.78312426295E+01 -0.63736138088E+01 -0.70763652009E+00  0.10121860689E+02  0.51100000000E-03 0. -1.
        -11    1    3    3    0    0  0.24453049281E+02 -0.23918413975E+02 -0.31944211467E+01  0.34354715440E+02  0.51100000000E-03 0.  1.
         12    1    3    3    0    0  0.37320377934E+01 -0.44616243343E+01 -0.16720783668E+01  0.60522759237E+01  0.00000000000E+00 0. -1.
</event>
<event>
 7    1  0.2966651E-011  0.5052885E+02  0.7816164E-02  0.1300439E+00
        -11   -1    0    0    0    0  0.00000000000E+00  0.00000000000E+00  0.45593999997E+02  0.45594000000E+02  0.51100000000E-03 0.  1.
         11   -1    0    0    0    0 -0.00000000000E+00 -0.00000000000E+00 -0.45593999997E+02  0.45594000000E+02  0.51100000000E-03 0. -1.
    9900012    2    1    2    0    0 -0.13413353211E+02 -0.34219549757E+02  0.17385939063E+02  0.50528849652E+02  0.29999969001E+02 0.  0.
         12    1    1    2    0    0  0.13413353211E+02  0.34219549757E+02 -0.17385939063E+02  0.40659150348E+02  0.00000000000E+00 0. -1.
         11    1    3    3    0    0  0.27712414022E+01 -0.32549944449E+01  0.35174653084E+01  0.55360030890E+01  0.51100000000E-03 0. -1.
        -11    1    3    3    0    0 -0.12152965079E+02 -0.35489405338E+01 -0.23620234181E+01  0.12879002058E+02  0.51100000000E-03 0.  1.
        -12    1    3    3    0    0 -0.40316295338E+01 -0.27415614778E+02  0.16230497173E+02  0.32113844504E+02  0.00000000000E+00 0.  1.
</event>
<event>
 7    1  0.2966651E-011  0.5052886E+02  0.7816164E-02  0.1300439E+00
        -11   -1    0    0    0    0  0.00000000000E+00  0.00000000000E+00  0.45593999997E+02  0.45594000000E+02  0.51100000000E-03 0. -1.
         11   -1    0    0    0    0 -0.00000000000E+00 -0.00000000000E+00 -0.45593999997E+02  0.45594000000E+02  0.51100000000E-03 0.  1.
    9900012    2    1    2    0    0  0.34987871484E+02  0.15130195015E+02 -0.14145375109E+02  0.50528860940E+02  0.30000003313E+02 0.  0.
         12    1    1    2    0    0 -0.34987871484E+02 -0.15130195015E+02  0.14145375109E+02  0.40659139060E+02  0.00000000000E+00 0. -1.
         11    1    3    3    0    0  0.15020553243E+02  0.50385567186E+01  0.76719994468E+01  0.17602944336E+02  0.51100000000E-03 0. -1.
        -11    1    3    3    0    0  0.19140862338E+02  0.54168869585E+01 -0.17076993396E+02  0.26217150475E+02  0.51100000000E-03 0.  1.
         12    1    3    3    0    0  0.82645590305E+00  0.46747513377E+01 -0.47403811599E+01  0.67087661287E+01  0.00000000000E+00 0. -1.
</event>
<event>
 7    1  0.2966651E-011  0.5052891E+02  0.7816164E-02  0.1300439E+00
        -11   -1    0    0    0    0  0.00000000000E+00  0.00000000000E+00  0.45593999997E+02  0.45594000000E+02  0.51100000000E-03 0. -1.
         11   -1    0    0    0    0 -0.00000000000E+00 -0.00000000000E+00 -0.45593999997E+02  0.45594000000E+02  0.51100000000E-03 0.  1.
    9900012    2    1    2    0    0  0.17861641637E+02  0.27621399672E+02 -0.23899407544E+02  0.50528909469E+02  0.30000150822E+02 0.  0.
         12    1    1    2    0    0 -0.17861641637E+02 -0.27621399672E+02  0.23899407544E+02  0.40659090531E+02  0.00000000000E+00 0. -1.
         11    1    3    3    0    0 -0.43734854491E+00  0.33407590368E+01 -0.17155609514E+02  0.17483331569E+02  0.51100000000E-03 0. -1.
        -11    1    3    3    0    0 -0.12116589851E+01  0.21632873722E-01 -0.12449462870E+00  0.12182301306E+01  0.51100000000E-03 0.  1.
         12    1    3    3    0    0  0.19510649167E+02  0.24259007762E+02 -0.66193034017E+01  0.31827347769E+02  0.00000000000E+00 0. -1.
</event>
<event>
 7    1  0.2966651E-011  0.5052886E+02  0.7816164E-02  0.1300439E+00
        -11   -1    0    0    0    0  0.00000000000E+00  0.00000000000E+00  0.45593999997E+02  0.45594000000E+02  0.51100000000E-03 0. -1.
         11   -1    0    0    0    0 -0.00000000000E+00 -0.00000000000E+00 -0.45593999997E+02  0.45594000000E+02  0.51100000000E-03 0.  1.
    9900012    2    1    2    0    0 -0.30644636724E+02  0.16739746362E+02 -0.20829139074E+02  0.50528857083E+02  0.29999991589E+02 0.  0.
         12    1    1    2    0    0  0.30644636724E+02 -0.16739746362E+02  0.20829139074E+02  0.40659142917E+02  0.00000000000E+00 0. -1.
         11    1    3    3    0    0 -0.18171083807E+01 -0.54056986524E+01 -0.79959306343E+00  0.57587160128E+01  0.51100000000E-03 0. -1.
        -11    1    3    3    0    0 -0.19002191423E+02  0.46514715172E+01 -0.66870482275E+01  0.20674527332E+02  0.51100000000E-03 0.  1.
         12    1    3    3    0    0 -0.98253369196E+01  0.17493973497E+02 -0.13342497783E+02  0.24095613738E+02  0.00000000000E+00 0. -1.
</event>
<event>
 7    1  0.2966651E-011  0.5052886E+02  0.7816164E-02  0.1300439E+00
        -11   -1    0    0    0    0  0.00000000000E+00  0.00000000000E+00  0.45593999997E+02  0.45594000000E+02  0.51100000000E-03 0. -1.
         11   -1    0    0    0    0 -0.00000000000E+00 -0.00000000000E+00 -0.45593999997E+02  0.45594000000E+02  0.51100000000E-03 0.  1.
    9900012    2    1    2    0    0  0.19767080057E+02  0.24263442446E+02 -0.25955998406E+02  0.50528856544E+02  0.29999989952E+02 0.  0.
         12    1    1    2    0    0 -0.19767080057E+02 -0.24263442446E+02  0.25955998406E+02  0.40659143456E+02  0.00000000000E+00 0. -1.
         11    1    3    3    0    0  0.18646688851E+02  0.27888879607E+02 -0.13753935169E+02  0.36258231393E+02  0.51100000000E-03 0.  1.
        -11    1    3    3    0    0 -0.21380974331E+01 -0.12240382785E+01 -0.16403180005E+01  0.29597928550E+01  0.51100000000E-03 0. -1.
         12    1    3    3    0    0  0.32584886387E+01 -0.24013988825E+01 -0.10561745236E+02  0.11310832296E+02  0.00000000000E+00 0. -1.
</event>
<event>
 7    1  0.2966651E-011  0.5052890E+02  0.7816164E-02  0.1300439E+00
        -11   -1    0    0    0    0  0.00000000000E+00  0.00000000000E+00  0.45593999997E+02  0.45594000000E+02  0.51100000000E-03 0.  1.
         11   -1    0    0    0    0 -0.00000000000E+00 -0.00000000000E+00 -0.45593999997E+02  0.45594000000E+02  0.51100000000E-03 0. -1.
    9900012    2    1    2    0    0 -0.17462041022E+02  0.11643859192E+02  0.34823265897E+02  0.50528902848E+02  0.30000130695E+02 0.  0.
         12    1    1    2    0    0  0.17462041022E+02 -0.11643859192E+02 -0.34823265897E+02  0.40659097152E+02  0.00000000000E+00 0. -1.
         11    1    3    3    0    0 -0.10782939096E+01  0.16612741386E+00 -0.31788244715E+01  0.33608393825E+01  0.51100000000E-03 0. -1.
        -11    1    3    3    0    0 -0.55555161242E+01  0.15370375029E+02  0.24144679619E+02  0.29156092710E+02  0.51100000000E-03 0.  1.
        -12    1    3    3    0    0 -0.10828230988E+02 -0.38926432513E+01  0.13857410749E+02  0.18011970755E+02  0.00000000000E+00 0.  1.
</event>
<event>
 7    1  0.2966651E-011  0.5052886E+02  0.7816164E-02  0.1300439E+00
        -11   -1    0    0    0    0  0.00000000000E+00  0.00000000000E+00  0.45593999997E+02  0.45594000000E+02  0.51100000000E-03 0.  1.
         11   -1    0    0    0    0 -0.00000000000E+00 -0.00000000000E+00 -0.45593999997E+02  0.45594000000E+02  0.51100000000E-03 0. -1.
    9900012    2    1    2    0    0 -0.20834828878E+02  0.82601794625E+01  0.33924107288E+02  0.50528859399E+02  0.29999998629E+02 0.  0.
         12    1    1    2    0    0  0.20834828878E+02 -0.82601794625E+01 -0.33924107288E+02  0.40659140601E+02  0.00000000000E+00 0. -1.
         11    1    3    3    0    0 -0.89265763749E+01  0.11572571002E+02  0.33402036512E+02  0.36459624364E+02  0.51100000000E-03 0. -1.
        -11    1    3    3    0    0 -0.30935716449E+01  0.55577846813E+00  0.27639874972E+01  0.41855348969E+01  0.51100000000E-03 0.  1.
         12    1    3    3    0    0 -0.88146808580E+01 -0.38681700072E+01 -0.22419167210E+01  0.98837001379E+01  0.00000000000E+00 0. -1.
</event>
<event>
 7    1  0.2966651E-011  0.5052884E+02  0.7816164E-02  0.1300439E+00
        -11   -1    0    0    0    0  0.00000000000E+00  0.00000000000E+00  0.45593999997E+02  0.45594000000E+02  0.51100000000E-03 0.  1.
         11   -1    0    0    0    0 -0.00000000000E+00 -0.00000000000E+00 -0.45593999997E+02  0.45594000000E+02  0.51100000000E-03 0. -1.
    9900012    2    1    2    0    0 -0.17432040123E+02 -0.35453209567E+02  0.96104676956E+01  0.50528841367E+02  0.29999943818E+02 0.  0.
         12    1    1    2    0    0  0.17432040123E+02  0.35453209567E+02 -0.96104676956E+01  0.40659158633E+02  0.00000000000E+00 0. -1.
         11    1    3    3    0    0 -0.38617888082E-01 -0.73264496620E+01 -0.15584965732E+01  0.74904784774E+01  0.51100000000E-03 0. -1.
        -11    1    3    3    0    0 -0.19594544725E+02 -0.20544928945E+02  0.17118756797E+02  0.33152558316E+02  0.51100000000E-03 0.  1.
        -12    1    3    3    0    0  0.22011224909E+01 -0.75818309604E+01 -0.59497925285E+01  0.98858045734E+01  0.00000000000E+00 0.  1.
</event>
<event>
 7    1  0.2966651E-011  0.5052885E+02  0.7816164E-02  0.1300439E+00
        -11   -1    0    0    0    0  0.00000000000E+00  0.00000000000E+00  0.45593999997E+02  0.45594000000E+02  0.51100000000E-03 0. -1.
         11   -1    0    0    0    0 -0.00000000000E+00 -0.00000000000E+00 -0.45593999997E+02  0.45594000000E+02  0.51100000000E-03 0.  1.
    9900012    2    1    2    0    0 -0.34477066990E+02 -0.80909059180E+01 -0.19975875493E+02  0.50528849634E+02  0.29999968948E+02 0.  0.
         12    1    1    2    0    0  0.34477066990E+02  0.80909059180E+01  0.19975875493E+02  0.40659150366E+02  0.00000000000E+00 0. -1.
         11    1    3    3    0    0 -0.17308205077E+00  0.26390303033E+01  0.19532578348E+01  0.32878039431E+01  0.51100000000E-03 0. -1.
        -11    1    3    3    0    0 -0.22147450271E+02  0.25676365894E+01 -0.18341159788E+02  0.28870407926E+02  0.51100000000E-03 0.  1.
        -12    1    3    3    0    0 -0.12156534668E+02 -0.13297572811E+02 -0.35879735397E+01  0.18370637765E+02  0.00000000000E+00 0.  1.
</event>
<event>
 7    1  0.2966651E-011  0.5052881E+02  0.7816164E-02  0.1300439E+00
        -11   -1    0    0    0    0  0.00000000000E+00  0.00000000000E+00  0.45593999997E+02  0.45594000000E+02  0.51100000000E-03 0. -1.
         11   -1    0    0    0    0 -0.00000000000E+00 -0.00000000000E+00 -0.45593999997E+02  0.45594000000E+02  0.51100000000E-03 0.  1.
    9900012    2    1    2    0    0  0.29288881630E+02  0.21875587506E+02 -0.17798588761E+02  0.50528810661E+02  0.29999850484E+02 0.  0.
         12    1    1    2    0    0 -0.29288881630E+02 -0.21875587506E+02  0.17798588761E+02  0.40659189339E+02  0.00000000000E+00 0. -1.
         11    1    3    3    0    0  0.12477248894E+02  0.26917863828E+01 -0.63445315191E+01  0.14254140955E+02  0.51100000000E-03 0. -1.
        -11    1    3    3    0    0 -0.38114889779E+01  0.11795563643E+02 -0.55807468631E+01  0.13594392436E+02  0.51100000000E-03 0.  1.
        -12    1    3    3    0    0  0.20623121713E+02  0.73882374801E+01 -0.58733103785E+01  0.22680277270E+02  0.00000000000E+00 0.  1.
</event>
<event>
 7    1  0.2966651E-011  0.5052886E+02  0.7816164E-02  0.1300439E+00
        -11   -1    0    0    0    0  0.00000000000E+00  0.00000000000E+00  0.45593999997E+02  0.45594000000E+02  0.51100000000E-03 0.  1.
         11   -1    0    0    0    0 -0.00000000000E+00 -0.00000000000E+00 -0.45593999997E+02  0.45594000000E+02  0.51100000000E-03 0. -1.
    9900012    2    1    2    0    0  0.14412574926E+02  0.31259606125E+02  0.21639778245E+02  0.50528864574E+02  0.30000014358E+02 0.  0.
         12    1    1    2    0    0 -0.14412574926E+02 -0.31259606125E+02 -0.21639778245E+02  0.40659135426E+02  0.00000000000E+00 0. -1.
         11    1    3    3    0    0 -0.20873576457E+01  0.19744131521E+02  0.33772707661E+01  0.20139358221E+02  0.51100000000E-03 0. -1.
        -11    1    3    3    0    0  0.16883071713E+02  0.13798152556E+02  0.15331946830E+02  0.26655125554E+02  0.51100000000E-03 0.  1.
         12    1    3    3    0    0 -0.38313914148E+00 -0.22826779514E+01  0.29305606496E+01  0.37343807991E+01  0.00000000000E+00 0. -1.
</event>
<event>
 7    1  0.2966651E-011  0.5052887E+02  0.7816164E-02  0.1300439E+00
        -11   -1    0    0    0    0  0.00000000000E+00  0.00000000000E+00  0.45593999997E+02  0.45594000000E+02  0.51100000000E-03 0.  1.
         11   -1    0    0    0    0 -0.00000000000E+00 -0.00000000000E+00 -0.45593999997E+02  0.45594000000E+02  0.51100000000E-03 0. -1.
    9900012    2    1    2    0    0 -0.14806533666E+02  0.15039250708E+01  0.37837414851E+02  0.50528865818E+02  0.30000018139E+02 0.  0.
         12    1    1    2    0    0  0.14806533666E+02 -0.15039250708E+01 -0.37837414851E+02  0.40659134182E+02  0.00000000000E+00 0. -1.
         11    1    3    3    0    0 -0.11137470332E+02  0.74439723120E+01  0.96581007022E+01  0.16514686755E+02  0.51100000000E-03 0. -1.
        -11    1    3    3    0    0  0.15868249398E+01 -0.88163980311E+01  0.26223837732E+02  0.27711668179E+02  0.51100000000E-03 0.  1.
        -12    1    3    3    0    0 -0.52558882745E+01  0.28763507899E+01  0.19554764172E+01  0.63025108837E+01  0.00000000000E+00 0.  1.
</event>
<event>
 7    1  0.2966651E-011  0.5052887E+02  0.7816164E-02  0.1300439E+00
        -11   -1    0    0    0    0  0.00000000000E+00  0.00000000000E+00  0.45593999997E+02  0.45594000000E+02  0.51100000000E-03 0.  1.
         11   -1    0    0    0    0 -0.00000000000E+00 -0.00000000000E+00 -0.45593999997E+02  0.45594000000E+02  0.51100000000E-03 0. -1.
    9900012    2    1    2    0    0 -0.11348387654E+02 -0.15875388793E+02  0.35670034082E+02  0.50528865687E+02  0.30000017743E+02 0.  0.
         12    1    1    2    0    0  0.11348387654E+02  0.15875388793E+02 -0.35670034082E+02  0.40659134313E+02  0.00000000000E+00 0. -1.
         11    1    3    3    0    0 -0.24954113487E+01 -0.14837502935E+02  0.89445596199E+01  0.17503820103E+02  0.51100000000E-03 0. -1.
        -11    1    3    3    0    0 -0.43413046286E+01 -0.41811555756E+01  0.26856773969E+02  0.27524812372E+02  0.51100000000E-03 0.  1.
         12    1    3    3    0    0 -0.45116716771E+01  0.31432697170E+01 -0.13129950712E+00  0.55002332129E+01  0.00000000000E+00 0. -1.
</event>
<event>
 7    1  0.2966651E-011  0.5052886E+02  0.7816164E-02  0.1300439E+00
        -11   -1    0    0    0    0  0.00000000000E+00  0.00000000000E+00  0.45593999997E+02  0.45594000000E+02  0.51100000000E-03 0.  1.
         11   -1    0    0    0    0 -0.00000000000E+00 -0.00000000000E+00 -0.45593999997E+02  0.45594000000E+02  0.51100000000E-03 0. -1.
    9900012    2    1    2    0    0 -0.30707711878E+02  0.27840195958E+01  0.26503800185E+02  0.50528858861E+02  0.29999996995E+02 0.  0.
         12    1    1    2    0    0  0.30707711878E+02 -0.27840195958E+01 -0.26503800185E+02  0.40659141139E+02  0.00000000000E+00 0. -1.
         11    1    3    3    0    0 -0.78640973517E+01 -0.13098315595E+01  0.18118554626E+02  0.19794991989E+02  0.51100000000E-03 0.  1.
        -11    1    3    3    0    0 -0.19086824262E+02 -0.10263226068E+01 -0.12930354212E+01  0.19158082873E+02  0.51100000000E-03 0. -1.
        -12    1    3    3    0    0 -0.37567902637E+01  0.51201737622E+01  0.96782809807E+01  0.11575783999E+02  0.00000000000E+00 0.  1.
</event>
<event>
 7    1  0.2966651E-011  0.5052886E+02  0.7816164E-02  0.1300439E+00
        -11   -1    0    0    0    0  0.00000000000E+00  0.00000000000E+00  0.45593999997E+02  0.45594000000E+02  0.51100000000E-03 0.  1.
         11   -1    0    0    0    0 -0.00000000000E+00 -0.00000000000E+00 -0.45593999997E+02  0.45594000000E+02  0.51100000000E-03 0. -1.
    9900012    2    1    2    0    0  0.49348844812E+01  0.39460529674E+02  0.84663337322E+01  0.50528864570E+02  0.30000014348E+02 0.  0.
         12    1    1    2    0    0 -0.49348844812E+01 -0.39460529674E+02 -0.84663337322E+01  0.40659135430E+02  0.00000000000E+00 0. -1.
         11    1    3    3    0    0  0.40650836581E+01  0.21890910488E+01  0.21505085630E+01  0.50933007086E+01  0.51100000000E-03 0. -1.
        -11    1    3    3    0    0 -0.24444424224E+01  0.23633404896E+02 -0.83045024862E+01  0.25168986622E+02  0.51100000000E-03 0.  1.
        -12    1    3    3    0    0  0.33142432454E+01  0.13638033729E+02  0.14620327655E+02  0.20266577240E+02  0.00000000000E+00 0.  1.
</event>
<event>
 7    1  0.2966651E-011  0.5052885E+02  0.7816164E-02  0.1300439E+00
        -11   -1    0    0    0    0  0.00000000000E+00  0.00000000000E+00  0.45593999997E+02  0.45594000000E+02  0.51100000000E-03 0.  1.
         11   -1    0    0    0    0 -0.00000000000E+00 -0.00000000000E+00 -0.45593999997E+02  0.45594000000E+02  0.51100000000E-03 0. -1.
    9900012    2    1    2    0    0 -0.40268602739E+02 -0.13733801690E+01  0.54516139323E+01  0.50528848089E+02  0.29999964252E+02 0.  0.
         12    1    1    2    0    0  0.40268602739E+02  0.13733801690E+01 -0.54516139323E+01  0.40659151911E+02  0.00000000000E+00 0. -1.
         11    1    3    3    0    0 -0.29452732239E+01  0.30981713622E+01 -0.10573766312E+01  0.44035605769E+01  0.51100000000E-03 0. -1.
        -11    1    3    3    0    0 -0.29470211567E+02 -0.10503676994E+02  0.13427054329E+02  0.34045651535E+02  0.51100000000E-03 0.  1.
        -12    1    3    3    0    0 -0.78531179476E+01  0.60321254628E+01 -0.69180637651E+01  0.12079635978E+02  0.00000000000E+00 0.  1.
</event>
<event>
 7    1  0.2966651E-011  0.5052886E+02  0.7816164E-02  0.1300439E+00
        -11   -1    0    0    0    0  0.00000000000E+00  0.00000000000E+00  0.45593999997E+02  0.45594000000E+02  0.51100000000E-03 0. -1.
         11   -1    0    0    0    0 -0.00000000000E+00 -0.00000000000E+00 -0.45593999997E+02  0.45594000000E+02  0.51100000000E-03 0.  1.
    9900012    2    1    2    0    0 -0.40191510317E+02 -0.49991875705E+01  0.35800091359E+01  0.50528857813E+02  0.29999993809E+02 0.  0.
         12    1    1    2    0    0  0.40191510317E+02  0.49991875705E+01 -0.35800091359E+01  0.40659142187E+02  0.00000000000E+00 0. -1.
         11    1    3    3    0    0 -0.17016329615E+02  0.10800729529E+02  0.26049153686E+01  0.20322323102E+02  0.51100000000E-03 0. -1.
        -11    1    3    3    0    0 -0.14312331387E+02 -0.42481715317E+01 -0.27428424838E+01  0.15179360205E+02  0.51100000000E-03 0.  1.
         12    1    3    3    0    0 -0.88628493150E+01 -0.11551745568E+02  0.37179362510E+01  0.15027174505E+02  0.00000000000E+00 0. -1.
</event>
<event>
 7    1  0.2966651E-011  0.5052886E+02  0.7816164E-02  0.1300439E+00
        -11   -1    0    0    0    0  0.00000000000E+00  0.00000000000E+00  0.45593999997E+02  0.45594000000E+02  0.51100000000E-03 0. -1.
         11   -1    0    0    0    0 -0.00000000000E+00 -0.00000000000E+00 -0.45593999997E+02  0.45594000000E+02  0.51100000000E-03 0.  1.
    9900012    2    1    2    0    0 -0.17036608335E+02  0.34360124204E+02 -0.13501901732E+02  0.50528861922E+02  0.30000006297E+02 0.  0.
         12    1    1    2    0    0  0.17036608335E+02 -0.34360124204E+02  0.13501901732E+02  0.40659138078E+02  0.00000000000E+00 0. -1.
         11    1    3    3    0    0 -0.25609267578E+01  0.23735623300E+02 -0.29048819204E+01  0.24049459423E+02  0.51100000000E-03 0. -1.
        -11    1    3    3    0    0 -0.17597213430E+02  0.95968785656E+01 -0.61822506240E+01  0.20975753186E+02  0.51100000000E-03 0.  1.
         12    1    3    3    0    0  0.31215318527E+01  0.10276223389E+01 -0.44147691877E+01  0.55036493129E+01  0.00000000000E+00 0. -1.
</event>
<event>
 7    1  0.2966651E-011  0.5052886E+02  0.7816164E-02  0.1300439E+00
        -11   -1    0    0    0    0  0.00000000000E+00  0.00000000000E+00  0.45593999997E+02  0.45594000000E+02  0.51100000000E-03 0.  1.
         11   -1    0    0    0    0 -0.00000000000E+00 -0.00000000000E+00 -0.45593999997E+02  0.45594000000E+02  0.51100000000E-03 0. -1.
    9900012    2    1    2    0    0 -0.23191583392E+02  0.15203424697E+02  0.29735034293E+02  0.50528856783E+02  0.29999990677E+02 0.  0.
         12    1    1    2    0    0  0.23191583392E+02 -0.15203424697E+02 -0.29735034293E+02  0.40659143217E+02  0.00000000000E+00 0. -1.
         11    1    3    3    0    0 -0.83709355399E+00  0.69283487232E+01  0.31303689125E+01  0.76486568388E+01  0.51100000000E-03 0. -1.
        -11    1    3    3    0    0 -0.25032672087E+02  0.19290297781E+01  0.25707976295E+02  0.35934048938E+02  0.51100000000E-03 0.  1.
        -12    1    3    3    0    0  0.26781822490E+01  0.63460461959E+01  0.89668908607E+00  0.69461510058E+01  0.00000000000E+00 0.  1.
</event>
<event>
 7    1  0.2966651E-011  0.5052887E+02  0.7816164E-02  0.1300439E+00
        -11   -1    0    0    0    0  0.00000000000E+00  0.00000000000E+00  0.45593999997E+02  0.45594000000E+02  0.51100000000E-03 0.  1.
         11   -1    0    0    0    0 -0.00000000000E+00 -0.00000000000E+00 -0.45593999997E+02  0.45594000000E+02  0.51100000000E-03 0. -1.
    9900012    2    1    2    0    0  0.29455227834E+02  0.17526420616E+02  0.21871884912E+02  0.50528865529E+02  0.30000017261E+02 0.  0.
         12    1    1    2    0    0 -0.29455227834E+02 -0.17526420616E+02 -0.21871884912E+02  0.40659134471E+02  0.00000000000E+00 0. -1.
         11    1    3    3    0    0  0.27578892687E+01  0.58870990337E+01 -0.58121688528E+01  0.87203896292E+01  0.51100000000E-03 0. -1.
        -11    1    3    3    0    0  0.26978753258E+02  0.11218464985E+02  0.28520687310E+02  0.40830585214E+02  0.51100000000E-03 0.  1.
        -12    1    3    3    0    0 -0.28141469293E+00  0.42085659682E+00 -0.83663354511E+00  0.97789068576E+00  0.00000000000E+00 0.  1.
</event>
<event>
 7    1  0.2966651E-011  0.5052889E+02  0.7816164E-02  0.1300439E+00
        -11   -1    0    0    0    0  0.00000000000E+00  0.00000000000E+00  0.45593999997E+02  0.45594000000E+02  0.51100000000E-03 0. -1.
         11   -1    0    0    0    0 -0.00000000000E+00 -0.00000000000E+00 -0.45593999997E+02  0.45594000000E+02  0.51100000000E-03 0.  1.
    9900012    2    1    2    0    0 -0.65714874443E+01  0.89860999605E+01 -0.39105353091E+02  0.50528891794E+02  0.30000097096E+02 0.  0.
         12    1    1    2    0    0  0.65714874443E+01 -0.89860999605E+01  0.39105353091E+02  0.40659108206E+02  0.00000000000E+00 0. -1.
         11    1    3    3    0    0 -0.28804533476E+01 -0.74193160124E+01 -0.15575945442E+01  0.81098312316E+01  0.51100000000E-03 0. -1.
        -11    1    3    3    0    0  0.32945311858E+01  0.30598071776E+01 -0.11208099852E+02  0.12076334637E+02  0.51100000000E-03 0.  1.
         12    1    3    3    0    0 -0.69855652825E+01  0.13345608795E+02 -0.26339658695E+02  0.30342725926E+02  0.00000000000E+00 0. -1.
</event>
<event>
 7    1  0.2966651E-011  0.5052884E+02  0.7816164E-02  0.1300439E+00
        -11   -1    0    0    0    0  0.00000000000E+00  0.00000000000E+00  0.45593999997E+02  0.45594000000E+02  0.51100000000E-03 0.  1.
         11   -1    0    0    0    0 -0.00000000000E+00 -0.00000000000E+00 -0.45593999997E+02  0.45594000000E+02  0.51100000000E-03 0. -1.
    9900012    2    1    2    0    0 -0.25877555400E+02  0.27632974276E+02  0.14830313006E+02  0.50528839598E+02  0.29999938441E+02 0.  0.
         12    1    1    2    0    0  0.25877555400E+02 -0.27632974276E+02 -0.14830313006E+02  0.40659160402E+02  0.00000000000E+00 0. -1.
         11    1    3    3    0    0 -0.14385856060E+01 -0.37106021108E+01 -0.44013104771E-02  0.39797130805E+01  0.51100000000E-03 0. -1.
        -11    1    3    3    0    0 -0.43035390038E+01  0.20270598946E+02  0.38406466512E+01  0.21075298255E+02  0.51100000000E-03 0.  1.
         12    1    3    3    0    0 -0.20135430790E+02  0.11072977441E+02  0.10994067665E+02  0.25473828262E+02  0.00000000000E+00 0. -1.
</event>
<event>
 7    1  0.2966651E-011  0.5052886E+02  0.7816164E-02  0.1300439E+00
        -11   -1    0    0    0    0  0.00000000000E+00  0.00000000000E+00  0.45593999997E+02  0.45594000000E+02  0.51100000000E-03 0.  1.
         11   -1    0    0    0    0 -0.00000000000E+00 -0.00000000000E+00 -0.45593999997E+02  0.45594000000E+02  0.51100000000E-03 0. -1.
    9900012    2    1    2    0    0  0.44831956448E+00  0.10175051359E+02  0.39362835170E+02  0.50528862611E+02  0.30000008393E+02 0.  0.
         12    1    1    2    0    0 -0.44831956448E+00 -0.10175051359E+02 -0.39362835170E+02  0.40659137389E+02  0.00000000000E+00 0. -1.
         11    1    3    3    0    0 -0.59607616944E+01 -0.75495932039E+00  0.94172654375E+01  0.11170744475E+02  0.51100000000E-03 0. -1.
        -11    1    3    3    0    0  0.79757518420E+01 -0.10286622025E+01  0.25106003265E+02  0.26362514363E+02  0.51100000000E-03 0.  1.
        -12    1    3    3    0    0 -0.15666705831E+01  0.11958672882E+02  0.48395664676E+01  0.12995603772E+02  0.00000000000E+00 0.  1.
</event>
<event>
 7    1  0.2966651E-011  0.5052886E+02  0.7816164E-02  0.1300439E+00
        -11   -1    0    0    0    0  0.00000000000E+00  0.00000000000E+00  0.45593999997E+02  0.45594000000E+02  0.51100000000E-03 0. -1.
         11   -1    0    0    0    0 -0.00000000000E+00 -0.00000000000E+00 -0.45593999997E+02  0.45594000000E+02  0.51100000000E-03 0.  1.
    9900012    2    1    2    0    0 -0.11507186358E+02  0.24956341387E+02 -0.29965500059E+02  0.50528861949E+02  0.30000006379E+02 0.  0.
         12    1    1    2    0    0  0.11507186358E+02 -0.24956341387E+02  0.29965500059E+02  0.40659138051E+02  0.00000000000E+00 0. -1.
         11    1    3    3    0    0  0.21654817209E+01  0.11268059474E+02  0.26258217967E+01  0.11770871496E+02  0.51100000000E-03 0. -1.
        -11    1    3    3    0    0 -0.47738656057E+01  0.46210344366E+01 -0.19117561498E+02  0.20239192424E+02  0.51100000000E-03 0.  1.
         12    1    3    3    0    0 -0.88988024737E+01  0.90672474758E+01 -0.13473760358E+02  0.18518798029E+02  0.00000000000E+00 0. -1.
</event>
<event>
 7    1  0.2966651E-011  0.5052885E+02  0.7816164E-02  0.1300439E+00
        -11   -1    0    0    0    0  0.00000000000E+00  0.00000000000E+00  0.45593999997E+02  0.45594000000E+02  0.51100000000E-03 0.  1.
         11   -1    0    0    0    0 -0.00000000000E+00 -0.00000000000E+00 -0.45593999997E+02  0.45594000000E+02  0.51100000000E-03 0. -1.
    9900012    2    1    2    0    0 -0.24826240156E+02 -0.23454554391E+02 -0.22061456631E+02  0.50528853543E+02  0.29999980828E+02 0.  0.
         12    1    1    2    0    0  0.24826240156E+02  0.23454554391E+02  0.22061456631E+02  0.40659146457E+02  0.00000000000E+00 0. -1.
         11    1    3    3    0    0 -0.21903339419E+02 -0.26232386137E+01 -0.85579286186E+01  0.23661694805E+02  0.51100000000E-03 0. -1.
        -11    1    3    3    0    0  0.28773799100E+01 -0.22224522537E+01 -0.30700466741E+01  0.47585497800E+01  0.51100000000E-03 0.  1.
         12    1    3    3    0    0 -0.58002806466E+01 -0.18608863523E+02 -0.10433481339E+02  0.22108608958E+02  0.00000000000E+00 0. -1.
</event>
<event>
 7    1  0.2966651E-011  0.5052873E+02  0.7816164E-02  0.1300439E+00
        -11   -1    0    0    0    0  0.00000000000E+00  0.00000000000E+00  0.45593999997E+02  0.45594000000E+02  0.51100000000E-03 0.  1.
         11   -1    0    0    0    0 -0.00000000000E+00 -0.00000000000E+00 -0.45593999997E+02  0.45594000000E+02  0.51100000000E-03 0. -1.
    9900012    2    1    2    0    0 -0.34487593513E+02 -0.20361858263E+02  0.70126200134E+01  0.50528730237E+02  0.29999606025E+02 0.  0.
         12    1    1    2    0    0  0.34487593513E+02  0.20361858263E+02 -0.70126200134E+01  0.40659269763E+02  0.00000000000E+00 0. -1.
         11    1    3    3    0    0 -0.34942026074E+02 -0.10509250875E+02  0.20679079971E+01  0.36546761605E+02  0.51100000000E-03 0. -1.
        -11    1    3    3    0    0  0.20324736211E+01 -0.25192729248E+01  0.55831764007E+01  0.64536457970E+01  0.51100000000E-03 0.  1.
         12    1    3    3    0    0 -0.15780410603E+01 -0.73333344629E+01 -0.63846438434E+00  0.75283228346E+01  0.00000000000E+00 0. -1.
</event>
<event>
 7    1  0.2966651E-011  0.5052886E+02  0.7816164E-02  0.1300439E+00
        -11   -1    0    0    0    0  0.00000000000E+00  0.00000000000E+00  0.45593999997E+02  0.45594000000E+02  0.51100000000E-03 0. -1.
         11   -1    0    0    0    0 -0.00000000000E+00 -0.00000000000E+00 -0.45593999997E+02  0.45594000000E+02  0.51100000000E-03 0.  1.
    9900012    2    1    2    0    0 -0.24124495196E+02 -0.97493840906E+01 -0.31242976748E+02  0.50528863823E+02  0.30000012075E+02 0.  0.
         12    1    1    2    0    0  0.24124495196E+02  0.97493840906E+01  0.31242976748E+02  0.40659136177E+02  0.00000000000E+00 0. -1.
         11    1    3    3    0    0 -0.24133476159E+01 -0.28015069759E+01 -0.26230689429E+02  0.26490031261E+02  0.51100000000E-03 0.  1.
        -11    1    3    3    0    0 -0.19571323233E+02 -0.79745355240E+01 -0.46303944050E+01  0.21634936157E+02  0.51100000000E-03 0. -1.
        -12    1    3    3    0    0 -0.21398243463E+01  0.10266584093E+01 -0.38189291443E+00  0.24038964039E+01  0.00000000000E+00 0.  1.
</event>
<event>
 7    1  0.2966651E-011  0.5052885E+02  0.7816164E-02  0.1300439E+00
        -11   -1    0    0    0    0  0.00000000000E+00  0.00000000000E+00  0.45593999997E+02  0.45594000000E+02  0.51100000000E-03 0.  1.
         11   -1    0    0    0    0 -0.00000000000E+00 -0.00000000000E+00 -0.45593999997E+02  0.45594000000E+02  0.51100000000E-03 0. -1.
    9900012    2    1    2    0    0 -0.23100255574E+02 -0.15447375817E+01  0.33423917098E+02  0.50528852739E+02  0.29999978386E+02 0.  0.
         12    1    1    2    0    0  0.23100255574E+02  0.15447375817E+01 -0.33423917098E+02  0.40659147261E+02  0.00000000000E+00 0. -1.
         11    1    3    3    0    0  0.29513173641E+00  0.59058047753E+01  0.13303718586E+02  0.14558659322E+02  0.51100000000E-03 0. -1.
        -11    1    3    3    0    0 -0.15372935442E+02  0.31107054043E+00  0.32093579626E+01  0.15707446889E+02  0.51100000000E-03 0.  1.
        -12    1    3    3    0    0 -0.80224518680E+01 -0.77616128974E+01  0.16910840550E+02  0.20262746528E+02  0.00000000000E+00 0.  1.
</event>
<event>
 7    1  0.2966651E-011  0.5052886E+02  0.7816164E-02  0.1300439E+00
        -11   -1    0    0    0    0  0.00000000000E+00  0.00000000000E+00  0.45593999997E+02  0.45594000000E+02  0.51100000000E-03 0.  1.
         11   -1    0    0    0    0 -0.00000000000E+00 -0.00000000000E+00 -0.45593999997E+02  0.45594000000E+02  0.51100000000E-03 0. -1.
    9900012    2    1    2    0    0 -0.29366898126E+02 -0.20093449110E+02  0.19672416294E+02  0.50528863689E+02  0.30000011669E+02 0.  0.
         12    1    1    2    0    0  0.29366898126E+02  0.20093449110E+02 -0.19672416294E+02  0.40659136311E+02  0.00000000000E+00 0. -1.
         11    1    3    3    0    0 -0.70303092551E+01  0.67159078500E+01  0.73680483269E+01  0.12199049261E+02  0.51100000000E-03 0. -1.
        -11    1    3    3    0    0 -0.16888246355E+02 -0.20804922506E+02  0.13711276307E+02  0.30100776795E+02  0.51100000000E-03 0.  1.
        -12    1    3    3    0    0 -0.54483425166E+01 -0.60044344538E+01 -0.14069083397E+01  0.82290376329E+01  0.00000000000E+00 0.  1.
</event>
<event>
 7    1  0.2966651E-011  0.5052886E+02  0.7816164E-02  0.1300439E+00
        -11   -1    0    0    0    0  0.00000000000E+00  0.00000000000E+00  0.45593999997E+02  0.45594000000E+02  0.51100000000E-03 0.  1.
         11   -1    0    0    0    0 -0.00000000000E+00 -0.00000000000E+00 -0.45593999997E+02  0.45594000000E+02  0.51100000000E-03 0. -1.
    9900012    2    1    2    0    0  0.94168299795E+01  0.13795266318E+02  0.37069929997E+02  0.50528858720E+02  0.29999996564E+02 0.  0.
         12    1    1    2    0    0 -0.94168299795E+01 -0.13795266318E+02 -0.37069929997E+02  0.40659141280E+02  0.00000000000E+00 0. -1.
         11    1    3    3    0    0 -0.35992028679E+01 -0.24159809772E+01 -0.16910662463E+01  0.46530560578E+01  0.51100000000E-03 0. -1.
        -11    1    3    3    0    0  0.13397722404E+02  0.68185922956E+01  0.21738933235E+02  0.26430538870E+02  0.51100000000E-03 0.  1.
         12    1    3    3    0    0 -0.38168955691E+00  0.93926549992E+01  0.17022063009E+02  0.19445263792E+02  0.00000000000E+00 0. -1.
</event>
<event>
 7    1  0.2966651E-011  0.5052886E+02  0.7816164E-02  0.1300439E+00
        -11   -1    0    0    0    0  0.00000000000E+00  0.00000000000E+00  0.45593999997E+02  0.45594000000E+02  0.51100000000E-03 0.  1.
         11   -1    0    0    0    0 -0.00000000000E+00 -0.00000000000E+00 -0.45593999997E+02  0.45594000000E+02  0.51100000000E-03 0. -1.
    9900012    2    1    2    0    0 -0.87940922951E+00  0.16365445552E+02  0.37209736425E+02  0.50528860147E+02  0.30000000904E+02 0.  0.
         12    1    1    2    0    0  0.87940922951E+00 -0.16365445552E+02 -0.37209736425E+02  0.40659139853E+02  0.00000000000E+00 0. -1.
         11    1    3    3    0    0  0.82869815590E+00 -0.53095754398E+01  0.31629961646E+01  0.62356136011E+01  0.51100000000E-03 0. -1.
        -11    1    3    3    0    0  0.81378606568E+01  0.10852503355E+02  0.18553968581E+02  0.22983719358E+02  0.51100000000E-03 0.  1.
         12    1    3    3    0    0 -0.98459680422E+01  0.10822517637E+02  0.15492771680E+02  0.21309527189E+02  0.00000000000E+00 0. -1.
</event>
<event>
 7    1  0.2966651E-011  0.5052886E+02  0.7816164E-02  0.1300439E+00
        -11   -1    0    0    0    0  0.00000000000E+00  0.00000000000E+00  0.45593999997E+02  0.45594000000E+02  0.51100000000E-03 0.  1.
         11   -1    0    0    0    0 -0.00000000000E+00 -0.00000000000E+00 -0.45593999997E+02  0.45594000000E+02  0.51100000000E-03 0. -1.
    9900012    2    1    2    0    0  0.56312280101E+01  0.22348429660E+02  0.33496309338E+02  0.50528858636E+02  0.29999996311E+02 0.  0.
         12    1    1    2    0    0 -0.56312280101E+01 -0.22348429660E+02 -0.33496309338E+02  0.40659141364E+02  0.00000000000E+00 0. -1.
         11    1    3    3    0    0 -0.80503469207E+00  0.13365080359E+01  0.12426729365E+02  0.12524293894E+02  0.51100000000E-03 0. -1.
        -11    1    3    3    0    0  0.12722216686E+02  0.15829326707E+02  0.65196529521E+01  0.21329047243E+02  0.51100000000E-03 0.  1.
        -12    1    3    3    0    0 -0.62859539834E+01  0.51825949170E+01  0.14549927021E+02  0.16675517500E+02  0.00000000000E+00 0.  1.
</event>
<event>
 7    1  0.2966651E-011  0.5052885E+02  0.7816164E-02  0.1300439E+00
        -11   -1    0    0    0    0  0.00000000000E+00  0.00000000000E+00  0.45593999997E+02  0.45594000000E+02  0.51100000000E-03 0.  1.
         11   -1    0    0    0    0 -0.00000000000E+00 -0.00000000000E+00 -0.45593999997E+02  0.45594000000E+02  0.51100000000E-03 0. -1.
    9900012    2    1    2    0    0  0.51002179957E+01 -0.33714627908E+02  0.22146740519E+02  0.50528850056E+02  0.29999970230E+02 0.  0.
         12    1    1    2    0    0 -0.51002179957E+01  0.33714627908E+02 -0.22146740519E+02  0.40659149944E+02  0.00000000000E+00 0. -1.
         11    1    3    3    0    0  0.67637380769E+01 -0.27598446235E+02  0.80263666355E+01  0.29527020659E+02  0.51100000000E-03 0. -1.
        -11    1    3    3    0    0  0.47760295916E+01 -0.10362613918E+01  0.11328396414E+02  0.12337619783E+02  0.51100000000E-03 0.  1.
        -12    1    3    3    0    0 -0.64395496729E+01 -0.50799202813E+01  0.27919774689E+01  0.86642096143E+01  0.00000000000E+00 0.  1.
</event>
<event>
 7    1  0.2966651E-011  0.5052889E+02  0.7816164E-02  0.1300439E+00
        -11   -1    0    0    0    0  0.00000000000E+00  0.00000000000E+00  0.45593999997E+02  0.45594000000E+02  0.51100000000E-03 0.  1.
         11   -1    0    0    0    0 -0.00000000000E+00 -0.00000000000E+00 -0.45593999997E+02  0.45594000000E+02  0.51100000000E-03 0. -1.
    9900012    2    1    2    0    0  0.91363518296E+01  0.17843134730E+02  0.35373897802E+02  0.50528892441E+02  0.30000099064E+02 0.  0.
         12    1    1    2    0    0 -0.91363518296E+01 -0.17843134730E+02 -0.35373897802E+02  0.40659107559E+02  0.00000000000E+00 0. -1.
         11    1    3    3    0    0  0.14792280315E+02 -0.12797363524E+01  0.18317384979E+02  0.23579140671E+02  0.51100000000E-03 0. -1.
        -11    1    3    3    0    0 -0.22962287501E+01  0.10134610652E+02  0.12705319121E+02  0.16413656929E+02  0.51100000000E-03 0.  1.
         12    1    3    3    0    0 -0.33596997353E+01  0.89882604303E+01  0.43511937019E+01  0.10536094841E+02  0.00000000000E+00 0. -1.
</event>
<event>
 7    1  0.2966651E-011  0.5052887E+02  0.7816164E-02  0.1300439E+00
        -11   -1    0    0    0    0  0.00000000000E+00  0.00000000000E+00  0.45593999997E+02  0.45594000000E+02  0.51100000000E-03 0. -1.
         11   -1    0    0    0    0 -0.00000000000E+00 -0.00000000000E+00 -0.45593999997E+02  0.45594000000E+02  0.51100000000E-03 0.  1.
    9900012    2    1    2    0    0  0.36304031810E+02 -0.83430683515E+01 -0.16296476919E+02  0.50528872179E+02  0.30000037475E+02 0.  0.
         12    1    1    2    0    0 -0.36304031810E+02  0.83430683515E+01  0.16296476919E+02  0.40659127821E+02  0.00000000000E+00 0. -1.
         11    1    3    3    0    0  0.27037152041E+02 -0.11107791717E+01  0.56372912742E+00  0.27065831073E+02  0.51100000000E-03 0. -1.
        -11    1    3    3    0    0  0.84215238453E+01 -0.22767834518E+01 -0.16190880670E+02  0.18391585682E+02  0.51100000000E-03 0.  1.
        -12    1    3    3    0    0  0.84535592358E+00 -0.49555057281E+01 -0.66932537660E+00  0.50714554241E+01  0.00000000000E+00 0.  1.
</event>
<event>
 7    1  0.3730564E-011  0.5052886E+02  0.7816164E-02  0.1300439E+00
        -11   -1    0    0    0    0  0.00000000000E+00  0.00000000000E+00  0.45593999997E+02  0.45594000000E+02  0.51100000000E-03 0.  1.
         11   -1    0    0    0    0 -0.00000000000E+00 -0.00000000000E+00 -0.45593999997E+02  0.45594000000E+02  0.51100000000E-03 0. -1.
    9900012    2    1    2    0    0  0.36537008882E+02  0.12827176896E+02  0.12396622581E+02  0.50528859127E+02  0.29999997801E+02 0.  0.
         12    1    1    2    0    0 -0.36537008882E+02 -0.12827176896E+02 -0.12396622581E+02  0.40659140873E+02  0.00000000000E+00 0. -1.
         11    1    3    3    0    0  0.60054257112E+01  0.23328036400E+00 -0.82005169448E+01  0.10167007235E+02  0.51100000000E-03 0.  1.
        -11    1    3    3    0    0  0.12069791958E+02  0.61627674074E+01  0.14582897314E+02  0.19907799335E+02  0.51100000000E-03 0. -1.
        -12    1    3    3    0    0  0.18461791213E+02  0.64311291251E+01  0.60142422118E+01  0.20454052556E+02  0.00000000000E+00 0.  1.
</event>
<event>
 7    1  0.2966651E-011  0.5052885E+02  0.7816164E-02  0.1300439E+00
        -11   -1    0    0    0    0  0.00000000000E+00  0.00000000000E+00  0.45593999997E+02  0.45594000000E+02  0.51100000000E-03 0. -1.
         11   -1    0    0    0    0 -0.00000000000E+00 -0.00000000000E+00 -0.45593999997E+02  0.45594000000E+02  0.51100000000E-03 0.  1.
    9900012    2    1    2    0    0 -0.18665314383E+02 -0.23045683881E+02 -0.27814910637E+02  0.50528846537E+02  0.29999959535E+02 0.  0.
         12    1    1    2    0    0  0.18665314383E+02  0.23045683881E+02  0.27814910637E+02  0.40659153463E+02  0.00000000000E+00 0. -1.
         11    1    3    3    0    0  0.74923828093E+00  0.31508786592E+00  0.18349805938E+01  0.20069360741E+01  0.51100000000E-03 0. -1.
        -11    1    3    3    0    0 -0.16445875085E+02 -0.86061590975E+01 -0.27702582028E+02  0.33346151697E+02  0.51100000000E-03 0.  1.
        -12    1    3    3    0    0 -0.29686775796E+01 -0.14754612649E+02 -0.19473092026E+01  0.15175758766E+02  0.00000000000E+00 0.  1.
</event>
<event>
 7    1  0.2966651E-011  0.5052885E+02  0.7816164E-02  0.1300439E+00
        -11   -1    0    0    0    0  0.00000000000E+00  0.00000000000E+00  0.45593999997E+02  0.45594000000E+02  0.51100000000E-03 0. -1.
         11   -1    0    0    0    0 -0.00000000000E+00 -0.00000000000E+00 -0.45593999997E+02  0.45594000000E+02  0.51100000000E-03 0.  1.
    9900012    2    1    2    0    0 -0.36133928809E+02 -0.14345102585E+02 -0.11904765397E+02  0.50528853200E+02  0.29999979786E+02 0.  0.
         12    1    1    2    0    0  0.36133928809E+02  0.14345102585E+02  0.11904765397E+02  0.40659146800E+02  0.00000000000E+00 0. -1.
         11    1    3    3    0    0  0.31815180444E+01 -0.62056482736E+01  0.39817026903E+00  0.69850316669E+01  0.51100000000E-03 0. -1.
        -11    1    3    3    0    0 -0.29739513915E+02 -0.96098158924E+01 -0.55706042783E+01  0.31746163259E+02  0.51100000000E-03 0.  1.
         12    1    3    3    0    0 -0.95759329385E+01  0.14703615814E+01 -0.67323313880E+01  0.11797658274E+02  0.00000000000E+00 0. -1.
</event>
<event>
 7    1  0.2966651E-011  0.5052885E+02  0.7816164E-02  0.1300439E+00
        -11   -1    0    0    0    0  0.00000000000E+00  0.00000000000E+00  0.45593999997E+02  0.45594000000E+02  0.51100000000E-03 0.  1.
         11   -1    0    0    0    0 -0.00000000000E+00 -0.00000000000E+00 -0.45593999997E+02  0.45594000000E+02  0.51100000000E-03 0. -1.
    9900012    2    1    2    0    0 -0.16326893090E+02 -0.26053950979E+02  0.26604330048E+02  0.50528853712E+02  0.29999981342E+02 0.  0.
         12    1    1    2    0    0  0.16326893090E+02  0.26053950979E+02 -0.26604330048E+02  0.40659146288E+02  0.00000000000E+00 0. -1.
         11    1    3    3    0    0 -0.16953786591E+02 -0.18355459596E+02  0.94717350962E+01  0.26722042263E+02  0.51100000000E-03 0. -1.
        -11    1    3    3    0    0  0.20701978353E+01  0.39610330930E+01  0.69319020135E+01  0.82478341416E+01  0.51100000000E-03 0.  1.
        -12    1    3    3    0    0 -0.14433043347E+01 -0.11659524476E+02  0.10200692938E+02  0.15558977307E+02  0.00000000000E+00 0.  1.
</event>
<event>
 7    1  0.2966651E-011  0.5052884E+02  0.7816164E-02  0.1300439E+00
        -11   -1    0    0    0    0  0.00000000000E+00  0.00000000000E+00  0.45593999997E+02  0.45594000000E+02  0.51100000000E-03 0. -1.
         11   -1    0    0    0    0 -0.00000000000E+00 -0.00000000000E+00 -0.45593999997E+02  0.45594000000E+02  0.51100000000E-03 0.  1.
    9900012    2    1    2    0    0 -0.32761006230E+02 -0.23091309023E+02  0.68319248000E+01  0.50528840170E+02  0.29999940180E+02 0.  0.
         12    1    1    2    0    0  0.32761006230E+02  0.23091309023E+02 -0.68319248000E+01  0.40659159830E+02  0.00000000000E+00 0. -1.
         11    1    3    3    0    0 -0.14869817367E+02  0.79768419545E+00  0.52029799899E+01  0.15773990289E+02  0.51100000000E-03 0. -1.
        -11    1    3    3    0    0 -0.16652990221E+02 -0.25402583413E+02  0.50721046072E+01  0.30795122548E+02  0.51100000000E-03 0.  1.
        -12    1    3    3    0    0 -0.12381986423E+01  0.15135901946E+01 -0.34431597971E+01  0.39597273320E+01  0.00000000000E+00 0.  1.
</event>
<event>
 7    1  0.2966651E-011  0.5052884E+02  0.7816164E-02  0.1300439E+00
        -11   -1    0    0    0    0  0.00000000000E+00  0.00000000000E+00  0.45593999997E+02  0.45594000000E+02  0.51100000000E-03 0.  1.
         11   -1    0    0    0    0 -0.00000000000E+00 -0.00000000000E+00 -0.45593999997E+02  0.45594000000E+02  0.51100000000E-03 0. -1.
    9900012    2    1    2    0    0  0.28888629268E+01 -0.27901936127E+02  0.29433033036E+02  0.50528843561E+02  0.29999950488E+02 0.  0.
         12    1    1    2    0    0 -0.28888629268E+01  0.27901936127E+02 -0.29433033036E+02  0.40659156439E+02  0.00000000000E+00 0. -1.
         11    1    3    3    0    0 -0.69867775794E+01 -0.21521390185E+02  0.59658781978E+01  0.23400363232E+02  0.51100000000E-03 0. -1.
        -11    1    3    3    0    0  0.81396813484E+01 -0.71399407335E+01  0.22568491582E+02  0.25031379879E+02  0.51100000000E-03 0.  1.
         12    1    3    3    0    0  0.17359591578E+01  0.75939479175E+00  0.89866325612E+00  0.20971004495E+01  0.00000000000E+00 0. -1.
</event>
<event>
 7    1  0.2966651E-011  0.5052883E+02  0.7816164E-02  0.1300439E+00
        -11   -1    0    0    0    0  0.00000000000E+00  0.00000000000E+00  0.45593999997E+02  0.45594000000E+02  0.51100000000E-03 0.  1.
         11   -1    0    0    0    0 -0.00000000000E+00 -0.00000000000E+00 -0.45593999997E+02  0.45594000000E+02  0.51100000000E-03 0. -1.
    9900012    2    1    2    0    0  0.65148641335E+01  0.92516875751E+01  0.39052922117E+02  0.50528832478E+02  0.29999916801E+02 0.  0.
         12    1    1    2    0    0 -0.65148641335E+01 -0.92516875751E+01 -0.39052922117E+02  0.40659167522E+02  0.00000000000E+00 0. -1.
         11    1    3    3    0    0  0.80104631410E+01  0.10145130902E+02  0.22667717490E+02  0.26094379035E+02  0.51100000000E-03 0. -1.
        -11    1    3    3    0    0 -0.75162319081E+01 -0.62192821837E+01  0.11273651748E+02  0.14908669859E+02  0.51100000000E-03 0.  1.
        -12    1    3    3    0    0  0.60206329006E+01  0.53258388569E+01  0.51115528786E+01  0.95257835838E+01  0.00000000000E+00 0.  1.
</event>
<event>
 7    1  0.2966651E-011  0.5052886E+02  0.7816164E-02  0.1300439E+00
        -11   -1    0    0    0    0  0.00000000000E+00  0.00000000000E+00  0.45593999997E+02  0.45594000000E+02  0.51100000000E-03 0. -1.
         11   -1    0    0    0    0 -0.00000000000E+00 -0.00000000000E+00 -0.45593999997E+02  0.45594000000E+02  0.51100000000E-03 0.  1.
    9900012    2    1    2    0    0  0.37904955883E+02  0.82341870066E+01 -0.12189252524E+02  0.50528863349E+02  0.30000010635E+02 0.  0.
         12    1    1    2    0    0 -0.37904955883E+02 -0.82341870066E+01  0.12189252524E+02  0.40659136651E+02  0.00000000000E+00 0. -1.
         11    1    3    3    0    0  0.69300164258E+01 -0.70335626304E+01 -0.96591243854E+01  0.13812849637E+02  0.51100000000E-03 0. -1.
        -11    1    3    3    0    0  0.25953569279E+02  0.69581337002E+01 -0.27011633729E+01  0.27005548814E+02  0.51100000000E-03 0.  1.
         12    1    3    3    0    0  0.50213701774E+01  0.83096159369E+01  0.17103523390E+00  0.97104648976E+01  0.00000000000E+00 0. -1.
</event>
<event>
 7    1  0.2966651E-011  0.5052887E+02  0.7816164E-02  0.1300439E+00
        -11   -1    0    0    0    0  0.00000000000E+00  0.00000000000E+00  0.45593999997E+02  0.45594000000E+02  0.51100000000E-03 0.  1.
         11   -1    0    0    0    0 -0.00000000000E+00 -0.00000000000E+00 -0.45593999997E+02  0.45594000000E+02  0.51100000000E-03 0. -1.
    9900012    2    1    2    0    0  0.14571840296E+02  0.11924064032E+02  0.36036695303E+02  0.50528865221E+02  0.30000016326E+02 0.  0.
         12    1    1    2    0    0 -0.14571840296E+02 -0.11924064032E+02 -0.36036695303E+02  0.40659134779E+02  0.00000000000E+00 0. -1.
         11    1    3    3    0    0  0.16706573087E+02  0.17549172035E+02  0.23988186052E+02  0.34095690252E+02  0.51100000000E-03 0. -1.
        -11    1    3    3    0    0  0.17524467517E+01  0.19460644149E+01  0.34905126635E+01  0.43637043025E+01  0.51100000000E-03 0.  1.
         12    1    3    3    0    0 -0.38871795431E+01 -0.75711724181E+01  0.85579965867E+01  0.12069470666E+02  0.00000000000E+00 0. -1.
</event>
<event>
 7    1  0.2966651E-011  0.5052886E+02  0.7816164E-02  0.1300439E+00
        -11   -1    0    0    0    0  0.00000000000E+00  0.00000000000E+00  0.45593999997E+02  0.45594000000E+02  0.51100000000E-03 0.  1.
         11   -1    0    0    0    0 -0.00000000000E+00 -0.00000000000E+00 -0.45593999997E+02  0.45594000000E+02  0.51100000000E-03 0. -1.
    9900012    2    1    2    0    0  0.16732448565E+02 -0.28882495241E+02  0.23216210184E+02  0.50528858572E+02  0.29999996117E+02 0.  0.
         12    1    1    2    0    0 -0.16732448565E+02  0.28882495241E+02 -0.23216210184E+02  0.40659141428E+02  0.00000000000E+00 0. -1.
         11    1    3    3    0    0 -0.66765623100E+00 -0.53974376706E+01 -0.63959175185E+00  0.54760547953E+01  0.51100000000E-03 0. -1.
        -11    1    3    3    0    0  0.83551241842E+01 -0.54535366254E+01  0.22759112201E+02  0.24850077470E+02  0.51100000000E-03 0.  1.
        -12    1    3    3    0    0  0.90449806122E+01 -0.18031520945E+02  0.10966897351E+01  0.20202726307E+02  0.00000000000E+00 0.  1.
</event>
<event>
 7    1  0.3163106E-011  0.5052886E+02  0.7816164E-02  0.1300439E+00
        -11   -1    0    0    0    0  0.00000000000E+00  0.00000000000E+00  0.45593999997E+02  0.45594000000E+02  0.51100000000E-03 0. -1.
         11   -1    0    0    0    0 -0.00000000000E+00 -0.00000000000E+00 -0.45593999997E+02  0.45594000000E+02  0.51100000000E-03 0.  1.
    9900012    2    1    2    0    0  0.15254734262E+02  0.20182860713E+02 -0.31829399861E+02  0.50528862288E+02  0.30000007411E+02 0.  0.
         12    1    1    2    0    0 -0.15254734262E+02 -0.20182860713E+02  0.31829399861E+02  0.40659137712E+02  0.00000000000E+00 0. -1.
         11    1    3    3    0    0  0.10379482044E+02 -0.71413448144E+00 -0.33605853781E+01  0.10933305534E+02  0.51100000000E-03 0. -1.
        -11    1    3    3    0    0 -0.58231180326E+01  0.77699835297E+01 -0.15396590437E+02  0.18202646649E+02  0.51100000000E-03 0.  1.
        -12    1    3    3    0    0  0.10698370250E+02  0.13127011665E+02 -0.13072224046E+02  0.21392910105E+02  0.00000000000E+00 0.  1.
</event>
<event>
 7    1  0.2966651E-011  0.5052886E+02  0.7816164E-02  0.1300439E+00
        -11   -1    0    0    0    0  0.00000000000E+00  0.00000000000E+00  0.45593999997E+02  0.45594000000E+02  0.51100000000E-03 0.  1.
         11   -1    0    0    0    0 -0.00000000000E+00 -0.00000000000E+00 -0.45593999997E+02  0.45594000000E+02  0.51100000000E-03 0. -1.
    9900012    2    1    2    0    0 -0.10210797607E+01  0.40598145371E+02 -0.19782264254E+01  0.50528863374E+02  0.30000010710E+02 0.  0.
         12    1    1    2    0    0  0.10210797607E+01 -0.40598145371E+02  0.19782264254E+01  0.40659136626E+02  0.00000000000E+00 0. -1.
         11    1    3    3    0    0  0.83668765939E+01  0.22433065490E+02 -0.25331053309E+01  0.24076205559E+02  0.51100000000E-03 0.  1.
        -11    1    3    3    0    0 -0.71257663492E+01 -0.28921803426E+00  0.29281564936E+01  0.77093640365E+01  0.51100000000E-03 0. -1.
         12    1    3    3    0    0 -0.22621900054E+01  0.18454297915E+02 -0.23732775882E+01  0.18743293778E+02  0.00000000000E+00 0. -1.
</event>
<event>
 7    1  0.2966651E-011  0.5052885E+02  0.7816164E-02  0.1300439E+00
        -11   -1    0    0    0    0  0.00000000000E+00  0.00000000000E+00  0.45593999997E+02  0.45594000000E+02  0.51100000000E-03 0.  1.
         11   -1    0    0    0    0 -0.00000000000E+00 -0.00000000000E+00 -0.45593999997E+02  0.45594000000E+02  0.51100000000E-03 0. -1.
    9900012    2    1    2    0    0 -0.88745213126E+00  0.23389725907E+01  0.40582112784E+02  0.50528852910E+02  0.29999978905E+02 0.  0.
         12    1    1    2    0    0  0.88745213126E+00 -0.23389725907E+01 -0.40582112784E+02  0.40659147090E+02  0.00000000000E+00 0. -1.
         11    1    3    3    0    0 -0.10867786624E+01 -0.10590094882E+02  0.49376042400E+01  0.11735038703E+02  0.51100000000E-03 0. -1.
        -11    1    3    3    0    0 -0.22606652639E+01  0.70012429891E+01  0.27257315701E+02  0.28232769441E+02  0.51100000000E-03 0.  1.
         12    1    3    3    0    0  0.24599917951E+01  0.59278244840E+01  0.83871928431E+01  0.10561044765E+02  0.00000000000E+00 0. -1.
</event>
<event>
 7    1  0.2966651E-011  0.5052888E+02  0.7816164E-02  0.1300439E+00
        -11   -1    0    0    0    0  0.00000000000E+00  0.00000000000E+00  0.45593999997E+02  0.45594000000E+02  0.51100000000E-03 0.  1.
         11   -1    0    0    0    0 -0.00000000000E+00 -0.00000000000E+00 -0.45593999997E+02  0.45594000000E+02  0.51100000000E-03 0. -1.
    9900012    2    1    2    0    0  0.21003621255E+02 -0.26781140285E+02  0.22243712385E+02  0.50528876528E+02  0.30000050695E+02 0.  0.
         12    1    1    2    0    0 -0.21003621255E+02  0.26781140285E+02 -0.22243712385E+02  0.40659123472E+02  0.00000000000E+00 0. -1.
         11    1    3    3    0    0  0.14614106955E+02 -0.20898147427E+02 -0.13329752567E-01  0.25501075780E+02  0.51100000000E-03 0. -1.
        -11    1    3    3    0    0  0.17016129641E+01  0.13194394552E+01  0.88097122241E+01  0.90690372636E+01  0.51100000000E-03 0.  1.
         12    1    3    3    0    0  0.46879013366E+01 -0.72024323132E+01  0.13447329913E+02  0.15958763485E+02  0.00000000000E+00 0. -1.
</event>
<event>
 7    1  0.2966651E-011  0.5052886E+02  0.7816164E-02  0.1300439E+00
        -11   -1    0    0    0    0  0.00000000000E+00  0.00000000000E+00  0.45593999997E+02  0.45594000000E+02  0.51100000000E-03 0.  1.
         11   -1    0    0    0    0 -0.00000000000E+00 -0.00000000000E+00 -0.45593999997E+02  0.45594000000E+02  0.51100000000E-03 0. -1.
    9900012    2    1    2    0    0 -0.14712794590E+02  0.13502037319E+02  0.35417429068E+02  0.50528860582E+02  0.30000002226E+02 0.  0.
         12    1    1    2    0    0  0.14712794590E+02 -0.13502037319E+02 -0.35417429068E+02  0.40659139418E+02  0.00000000000E+00 0. -1.
         11    1    3    3    0    0 -0.26989858768E+01  0.56947449601E+01  0.17078196217E+02  0.18203830125E+02  0.51100000000E-03 0.  1.
        -11    1    3    3    0    0 -0.79981096456E+01  0.13371727684E+02  0.34905055422E+01  0.15967356962E+02  0.51100000000E-03 0. -1.
        -12    1    3    3    0    0 -0.40156990679E+01 -0.55644353257E+01  0.14848727309E+02  0.16357673496E+02  0.00000000000E+00 0.  1.
</event>
<event>
 7    1  0.2966651E-011  0.5052886E+02  0.7816164E-02  0.1300439E+00
        -11   -1    0    0    0    0  0.00000000000E+00  0.00000000000E+00  0.45593999997E+02  0.45594000000E+02  0.51100000000E-03 0. -1.
         11   -1    0    0    0    0 -0.00000000000E+00 -0.00000000000E+00 -0.45593999997E+02  0.45594000000E+02  0.51100000000E-03 0.  1.
    9900012    2    1    2    0    0  0.22265487548E+01  0.40178480453E+02 -0.58222131611E+01  0.50528856170E+02  0.29999988815E+02 0.  0.
         12    1    1    2    0    0 -0.22265487548E+01 -0.40178480453E+02  0.58222131611E+01  0.40659143830E+02  0.00000000000E+00 0. -1.
         11    1    3    3    0    0 -0.48982707355E+01  0.23469090480E+02  0.93522973438E+01  0.25734349224E+02  0.51100000000E-03 0. -1.
        -11    1    3    3    0    0  0.57926677372E+01  0.11148996554E+02 -0.58561986528E+01  0.13861824793E+02  0.51100000000E-03 0.  1.
         12    1    3    3    0    0  0.13321517531E+01  0.55603934196E+01 -0.93183118520E+01  0.10932682152E+02  0.00000000000E+00 0. -1.
</event>
<event>
 7    1  0.2966651E-011  0.5052886E+02  0.7816164E-02  0.1300439E+00
        -11   -1    0    0    0    0  0.00000000000E+00  0.00000000000E+00  0.45593999997E+02  0.45594000000E+02  0.51100000000E-03 0.  1.
         11   -1    0    0    0    0 -0.00000000000E+00 -0.00000000000E+00 -0.45593999997E+02  0.45594000000E+02  0.51100000000E-03 0. -1.
    9900012    2    1    2    0    0  0.36252729149E+02 -0.43600601076E+01  0.17885619508E+02  0.50528857361E+02  0.29999992436E+02 0.  0.
         12    1    1    2    0    0 -0.36252729149E+02  0.43600601076E+01 -0.17885619508E+02  0.40659142639E+02  0.00000000000E+00 0. -1.
         11    1    3    3    0    0  0.15802363901E+02 -0.26534363465E+00  0.20552645602E+02  0.25926749769E+02  0.51100000000E-03 0. -1.
        -11    1    3    3    0    0  0.83731491491E+01  0.43003826928E+01  0.93452270780E+00  0.94591887036E+01  0.51100000000E-03 0.  1.
         12    1    3    3    0    0  0.12077216099E+02 -0.83950991658E+01 -0.36015488009E+01  0.15142918889E+02  0.00000000000E+00 0. -1.
</event>
<event>
 7    1  0.2966651E-011  0.5052886E+02  0.7816164E-02  0.1300439E+00
        -11   -1    0    0    0    0  0.00000000000E+00  0.00000000000E+00  0.45593999997E+02  0.45594000000E+02  0.51100000000E-03 0. -1.
         11   -1    0    0    0    0 -0.00000000000E+00 -0.00000000000E+00 -0.45593999997E+02  0.45594000000E+02  0.51100000000E-03 0.  1.
    9900012    2    1    2    0    0 -0.39760829702E+02 -0.20464809007E+01 -0.82494884427E+01  0.50528859303E+02  0.29999998337E+02 0.  0.
         12    1    1    2    0    0  0.39760829702E+02  0.20464809007E+01  0.82494884427E+01  0.40659140697E+02  0.00000000000E+00 0. -1.
         11    1    3    3    0    0 -0.35079396883E+02 -0.38085769718E+01  0.23221436425E+01  0.35361867818E+02  0.51100000000E-03 0. -1.
        -11    1    3    3    0    0 -0.46112551275E+01  0.47199106613E+01 -0.10250819567E+02  0.12191002115E+02  0.51100000000E-03 0.  1.
        -12    1    3    3    0    0 -0.70177691204E-01 -0.29578145902E+01 -0.32081251782E+00  0.29759893699E+01  0.00000000000E+00 0.  1.
</event>
<event>
 7    1  0.2966651E-011  0.5052885E+02  0.7816164E-02  0.1300439E+00
        -11   -1    0    0    0    0  0.00000000000E+00  0.00000000000E+00  0.45593999997E+02  0.45594000000E+02  0.51100000000E-03 0.  1.
         11   -1    0    0    0    0 -0.00000000000E+00 -0.00000000000E+00 -0.45593999997E+02  0.45594000000E+02  0.51100000000E-03 0. -1.
    9900012    2    1    2    0    0 -0.14043143488E+02  0.37697962554E+02 -0.59008702370E+01  0.50528849378E+02  0.29999968168E+02 0.  0.
         12    1    1    2    0    0  0.14043143488E+02 -0.37697962554E+02  0.59008702370E+01  0.40659150622E+02  0.00000000000E+00 0. -1.
         11    1    3    3    0    0 -0.65707584810E+01 -0.14728948181E+01  0.28013834815E+01  0.72932870390E+01  0.51100000000E-03 0. -1.
        -11    1    3    3    0    0 -0.11615506447E+02  0.31552828709E+02 -0.60130218492E+01  0.34156367219E+02  0.51100000000E-03 0.  1.
         12    1    3    3    0    0  0.41431214395E+01  0.76180286635E+01 -0.26892318693E+01  0.90791951200E+01  0.00000000000E+00 0. -1.
</event>
<event>
 7    1  0.2966651E-011  0.5052885E+02  0.7816164E-02  0.1300439E+00
        -11   -1    0    0    0    0  0.00000000000E+00  0.00000000000E+00  0.45593999997E+02  0.45594000000E+02  0.51100000000E-03 0.  1.
         11   -1    0    0    0    0 -0.00000000000E+00 -0.00000000000E+00 -0.45593999997E+02  0.45594000000E+02  0.51100000000E-03 0. -1.
    9900012    2    1    2    0    0  0.36438653187E+02  0.16953679344E+02  0.61614645694E+01  0.50528851767E+02  0.29999975430E+02 0.  0.
         12    1    1    2    0    0 -0.36438653187E+02 -0.16953679344E+02 -0.61614645694E+01  0.40659148233E+02  0.00000000000E+00 0. -1.
         11    1    3    3    0    0 -0.42251246039E+01 -0.15335207676E+01  0.13726692643E+01  0.46997430817E+01  0.51100000000E-03 0. -1.
        -11    1    3    3    0    0  0.32137289437E+02  0.11200748726E+02  0.59642754969E+01  0.34551913505E+02  0.51100000000E-03 0.  1.
         12    1    3    3    0    0  0.85264883542E+01  0.72864513858E+01 -0.11754801917E+01  0.11277195180E+02  0.00000000000E+00 0. -1.
</event>
<event>
 7    1  0.2966651E-011  0.5052887E+02  0.7816164E-02  0.1300439E+00
        -11   -1    0    0    0    0  0.00000000000E+00  0.00000000000E+00  0.45593999997E+02  0.45594000000E+02  0.51100000000E-03 0.  1.
         11   -1    0    0    0    0 -0.00000000000E+00 -0.00000000000E+00 -0.45593999997E+02  0.45594000000E+02  0.51100000000E-03 0. -1.
    9900012    2    1    2    0    0 -0.31259013458E+02  0.25950115283E+02 -0.16219231698E+01  0.50528867688E+02  0.30000023824E+02 0.  0.
         12    1    1    2    0    0  0.31259013458E+02 -0.25950115283E+02  0.16219231698E+01  0.40659132312E+02  0.00000000000E+00 0. -1.
         11    1    3    3    0    0 -0.13779427795E+02  0.19174465906E+02  0.83558540538E+01  0.25047017195E+02  0.51100000000E-03 0. -1.
        -11    1    3    3    0    0 -0.15353998753E+02  0.39087788772E+00 -0.27442550768E+01  0.15602211363E+02  0.51100000000E-03 0.  1.
         12    1    3    3    0    0 -0.21255869100E+01  0.63847714895E+01 -0.72335221468E+01  0.98796391297E+01  0.00000000000E+00 0. -1.
</event>
<event>
 7    1  0.2966651E-011  0.5052881E+02  0.7816164E-02  0.1300439E+00
        -11   -1    0    0    0    0  0.00000000000E+00  0.00000000000E+00  0.45593999997E+02  0.45594000000E+02  0.51100000000E-03 0.  1.
         11   -1    0    0    0    0 -0.00000000000E+00 -0.00000000000E+00 -0.45593999997E+02  0.45594000000E+02  0.51100000000E-03 0. -1.
    9900012    2    1    2    0    0 -0.35889427600E+02  0.10774024075E+02 -0.15780986204E+02  0.50528805052E+02  0.29999833435E+02 0.  0.
         12    1    1    2    0    0  0.35889427600E+02 -0.10774024075E+02  0.15780986204E+02  0.40659194948E+02  0.00000000000E+00 0. -1.
         11    1    3    3    0    0 -0.79774781259E+01 -0.14073114178E+01 -0.65529796121E+01  0.10419319783E+02  0.51100000000E-03 0. -1.
        -11    1    3    3    0    0 -0.54966777123E+01  0.12103461844E+02  0.42476211370E+01  0.13955269258E+02  0.51100000000E-03 0.  1.
        -12    1    3    3    0    0 -0.22415271762E+02  0.77873648973E-01 -0.13475627729E+02  0.26154216011E+02  0.00000000000E+00 0.  1.
</event>
<event>
 7    1  0.2966651E-011  0.5052886E+02  0.7816164E-02  0.1300439E+00
        -11   -1    0    0    0    0  0.00000000000E+00  0.00000000000E+00  0.45593999997E+02  0.45594000000E+02  0.51100000000E-03 0. -1.
         11   -1    0    0    0    0 -0.00000000000E+00 -0.00000000000E+00 -0.45593999997E+02  0.45594000000E+02  0.51100000000E-03 0.  1.
    9900012    2    1    2    0    0  0.28446479147E+02  0.12151266196E+02 -0.26387684565E+02  0.50528863970E+02  0.30000012523E+02 0.  0.
         12    1    1    2    0    0 -0.28446479147E+02 -0.12151266196E+02  0.26387684565E+02  0.40659136030E+02  0.00000000000E+00 0. -1.
         11    1    3    3    0    0  0.16204311928E+01  0.11306412285E+02 -0.58318732903E+01  0.12824644336E+02  0.51100000000E-03 0. -1.
        -11    1    3    3    0    0  0.21574965392E+02  0.47486425702E+01 -0.79080186785E+01  0.23464132151E+02  0.51100000000E-03 0.  1.
         12    1    3    3    0    0  0.52510825620E+01 -0.39037886592E+01 -0.12647792597E+02  0.14240087483E+02  0.00000000000E+00 0. -1.
</event>
<event>
 7    1  0.2966651E-011  0.5052887E+02  0.7816164E-02  0.1300439E+00
        -11   -1    0    0    0    0  0.00000000000E+00  0.00000000000E+00  0.45593999997E+02  0.45594000000E+02  0.51100000000E-03 0.  1.
         11   -1    0    0    0    0 -0.00000000000E+00 -0.00000000000E+00 -0.45593999997E+02  0.45594000000E+02  0.51100000000E-03 0. -1.
    9900012    2    1    2    0    0  0.20956084072E+02 -0.32345762676E+02  0.12952166969E+02  0.50528874924E+02  0.30000045819E+02 0.  0.
         12    1    1    2    0    0 -0.20956084072E+02  0.32345762676E+02 -0.12952166969E+02  0.40659125076E+02  0.00000000000E+00 0. -1.
         11    1    3    3    0    0 -0.10561081800E+01  0.25171609434E-01  0.16146709393E+01  0.19295493259E+01  0.51100000000E-03 0. -1.
        -11    1    3    3    0    0 -0.28847309012E+00 -0.19574102166E+00 -0.58386791155E+01  0.58490773072E+01  0.51100000000E-03 0.  1.
        -12    1    3    3    0    0  0.22300665343E+02 -0.32175193264E+02  0.17176175145E+02  0.42750248291E+02  0.00000000000E+00 0.  1.
</event>
<event>
 7    1  0.2966651E-011  0.5052886E+02  0.7816164E-02  0.1300439E+00
        -11   -1    0    0    0    0  0.00000000000E+00  0.00000000000E+00  0.45593999997E+02  0.45594000000E+02  0.51100000000E-03 0.  1.
         11   -1    0    0    0    0 -0.00000000000E+00 -0.00000000000E+00 -0.45593999997E+02  0.45594000000E+02  0.51100000000E-03 0. -1.
    9900012    2    1    2    0    0  0.13271021396E+02  0.33158307735E+02  0.19431229335E+02  0.50528855220E+02  0.29999985927E+02 0.  0.
         12    1    1    2    0    0 -0.13271021396E+02 -0.33158307735E+02 -0.19431229335E+02  0.40659144780E+02  0.00000000000E+00 0. -1.
         11    1    3    3    0    0  0.13789858422E+02  0.11814680547E+02 -0.15776927365E+01  0.18227341725E+02  0.51100000000E-03 0. -1.
        -11    1    3    3    0    0  0.51703803000E+01  0.10622955022E+02  0.13874701852E+02  0.18223264186E+02  0.51100000000E-03 0.  1.
         12    1    3    3    0    0 -0.56892173258E+01  0.10720672166E+02  0.71342202189E+01  0.14078249309E+02  0.00000000000E+00 0. -1.
</event>
<event>
 7    1  0.2966651E-011  0.5052886E+02  0.7816164E-02  0.1300439E+00
        -11   -1    0    0    0    0  0.00000000000E+00  0.00000000000E+00  0.45593999997E+02  0.45594000000E+02  0.51100000000E-03 0.  1.
         11   -1    0    0    0    0 -0.00000000000E+00 -0.00000000000E+00 -0.45593999997E+02  0.45594000000E+02  0.51100000000E-03 0. -1.
    9900012    2    1    2    0    0  0.33135021071E+02 -0.14890388305E+02  0.18262317826E+02  0.50528861573E+02  0.30000005237E+02 0.  0.
         12    1    1    2    0    0 -0.33135021071E+02  0.14890388305E+02 -0.18262317826E+02  0.40659138427E+02  0.00000000000E+00 0. -1.
         11    1    3    3    0    0  0.68454932418E+01 -0.93617697783E+01  0.56778153732E+01  0.12912826909E+02  0.51100000000E-03 0. -1.
        -11    1    3    3    0    0  0.46817400651E-01  0.26504313349E+01 -0.45207580970E+01  0.52406328017E+01  0.51100000000E-03 0.  1.
        -12    1    3    3    0    0  0.26242710428E+02 -0.81790498611E+01  0.17105260550E+02  0.32375401862E+02  0.00000000000E+00 0.  1.
</event>
<event>
 7    1  0.2966651E-011  0.5052884E+02  0.7816164E-02  0.1300439E+00
        -11   -1    0    0    0    0  0.00000000000E+00  0.00000000000E+00  0.45593999997E+02  0.45594000000E+02  0.51100000000E-03 0.  1.
         11   -1    0    0    0    0 -0.00000000000E+00 -0.00000000000E+00 -0.45593999997E+02  0.45594000000E+02  0.51100000000E-03 0. -1.
    9900012    2    1    2    0    0 -0.11893760035E+02  0.26485684025E+02  0.28464268927E+02  0.50528836315E+02  0.29999928463E+02 0.  0.
         12    1    1    2    0    0  0.11893760035E+02 -0.26485684025E+02 -0.28464268927E+02  0.40659163685E+02  0.00000000000E+00 0. -1.
         11    1    3    3    0    0 -0.93622303351E+01 -0.20620770429E+01  0.27080973141E+01  0.99617925045E+01  0.51100000000E-03 0. -1.
        -11    1    3    3    0    0  0.38082459933E+01  0.12319549881E+02  0.16167884236E+02  0.20680293222E+02  0.51100000000E-03 0.  1.
         12    1    3    3    0    0 -0.63397756933E+01  0.16228211187E+02  0.95882873765E+01  0.19886750589E+02  0.00000000000E+00 0. -1.
</event>
<event>
 7    1  0.2966651E-011  0.5052879E+02  0.7816164E-02  0.1300439E+00
        -11   -1    0    0    0    0  0.00000000000E+00  0.00000000000E+00  0.45593999997E+02  0.45594000000E+02  0.51100000000E-03 0.  1.
         11   -1    0    0    0    0 -0.00000000000E+00 -0.00000000000E+00 -0.45593999997E+02  0.45594000000E+02  0.51100000000E-03 0. -1.
    9900012    2    1    2    0    0 -0.19982787787E+02  0.23692078506E+02  0.26316253846E+02  0.50528786922E+02  0.29999778327E+02 0.  0.
         12    1    1    2    0    0  0.19982787787E+02 -0.23692078506E+02 -0.26316253846E+02  0.40659213078E+02  0.00000000000E+00 0. -1.
         11    1    3    3    0    0 -0.91269149571E+01  0.12547562466E+02  0.26636057331E+02  0.30825662213E+02  0.51100000000E-03 0. -1.
        -11    1    3    3    0    0  0.19960992170E+01  0.50343204472E+01 -0.74286093548E+00  0.54663184210E+01  0.51100000000E-03 0.  1.
         12    1    3    3    0    0 -0.12851972047E+02  0.61101955931E+01  0.42305745026E+00  0.14236806288E+02  0.00000000000E+00 0. -1.
</event>
<event>
 7    1  0.2966651E-011  0.5052887E+02  0.7816164E-02  0.1300439E+00
        -11   -1    0    0    0    0  0.00000000000E+00  0.00000000000E+00  0.45593999997E+02  0.45594000000E+02  0.51100000000E-03 0.  1.
         11   -1    0    0    0    0 -0.00000000000E+00 -0.00000000000E+00 -0.45593999997E+02  0.45594000000E+02  0.51100000000E-03 0. -1.
    9900012    2    1    2    0    0 -0.64079056298E+01  0.20921207971E+02  0.34269618102E+02  0.50528869138E+02  0.30000028233E+02 0.  0.
         12    1    1    2    0    0  0.64079056298E+01 -0.20921207971E+02 -0.34269618102E+02  0.40659130862E+02  0.00000000000E+00 0. -1.
         11    1    3    3    0    0 -0.26184132185E+00  0.22775179379E+02  0.11505735855E+02  0.25517823466E+02  0.51100000000E-03 0. -1.
        -11    1    3    3    0    0 -0.86917773176E+00  0.13602363088E+01  0.15009495473E+02  0.15096048071E+02  0.51100000000E-03 0.  1.
         12    1    3    3    0    0 -0.52768865762E+01 -0.32142077168E+01  0.77543867748E+01  0.99149976015E+01  0.00000000000E+00 0. -1.
</event>
<event>
 7    1  0.2966651E-011  0.5052886E+02  0.7816164E-02  0.1300439E+00
        -11   -1    0    0    0    0  0.00000000000E+00  0.00000000000E+00  0.45593999997E+02  0.45594000000E+02  0.51100000000E-03 0.  1.
         11   -1    0    0    0    0 -0.00000000000E+00 -0.00000000000E+00 -0.45593999997E+02  0.45594000000E+02  0.51100000000E-03 0. -1.
    9900012    2    1    2    0    0  0.19891333590E+02 -0.58504609284E+01  0.34975317802E+02  0.50528857112E+02  0.29999991677E+02 0.  0.
         12    1    1    2    0    0 -0.19891333590E+02  0.58504609284E+01 -0.34975317802E+02  0.40659142888E+02  0.00000000000E+00 0. -1.
         11    1    3    3    0    0  0.25580355555E+01  0.74584577472E+01  0.41238623913E+01  0.88982233707E+01  0.51100000000E-03 0. -1.
        -11    1    3    3    0    0  0.42380700844E+01 -0.12692081405E+02  0.89263864278E+01  0.16085103150E+02  0.51100000000E-03 0.  1.
        -12    1    3    3    0    0  0.13095227950E+02 -0.61683727085E+00  0.21925068983E+02  0.25545530591E+02  0.00000000000E+00 0.  1.
</event>
<event>
 7    1  0.2966651E-011  0.5052886E+02  0.7816164E-02  0.1300439E+00
        -11   -1    0    0    0    0  0.00000000000E+00  0.00000000000E+00  0.45593999997E+02  0.45594000000E+02  0.51100000000E-03 0. -1.
         11   -1    0    0    0    0 -0.00000000000E+00 -0.00000000000E+00 -0.45593999997E+02  0.45594000000E+02  0.51100000000E-03 0.  1.
    9900012    2    1    2    0    0 -0.17680240955E+02  0.78550009343E+01 -0.35761346950E+02  0.50528857171E+02  0.29999991858E+02 0.  0.
         12    1    1    2    0    0  0.17680240955E+02 -0.78550009343E+01  0.35761346950E+02  0.40659142829E+02  0.00000000000E+00 0. -1.
         11    1    3    3    0    0 -0.51624211087E+01  0.75670389838E+01 -0.31134378911E+02  0.32453970806E+02  0.51100000000E-03 0. -1.
        -11    1    3    3    0    0 -0.11159602778E+02 -0.41509536105E+01 -0.58706856614E+00  0.11921065380E+02  0.51100000000E-03 0.  1.
         12    1    3    3    0    0 -0.13582170690E+01  0.44389155610E+01 -0.40398994728E+01  0.61538209850E+01  0.00000000000E+00 0. -1.
</event>
<event>
 7    1  0.2966651E-011  0.5052886E+02  0.7816164E-02  0.1300439E+00
        -11   -1    0    0    0    0  0.00000000000E+00  0.00000000000E+00  0.45593999997E+02  0.45594000000E+02  0.51100000000E-03 0.  1.
         11   -1    0    0    0    0 -0.00000000000E+00 -0.00000000000E+00 -0.45593999997E+02  0.45594000000E+02  0.51100000000E-03 0. -1.
    9900012    2    1    2    0    0  0.31508801559E+02  0.11249599536E+02  0.23104270707E+02  0.50528863384E+02  0.30000010743E+02 0.  0.
         12    1    1    2    0    0 -0.31508801559E+02 -0.11249599536E+02 -0.23104270707E+02  0.40659136616E+02  0.00000000000E+00 0. -1.
         11    1    3    3    0    0  0.43007052810E+01  0.75220642997E+01 -0.10074001823E+01  0.87230942120E+01  0.51100000000E-03 0. -1.
        -11    1    3    3    0    0  0.29549694043E+02  0.82977723863E+00  0.17887934858E+02  0.34552151337E+02  0.51100000000E-03 0.  1.
        -12    1    3    3    0    0 -0.23415977647E+01  0.28977579979E+01  0.62237360319E+01  0.72536178353E+01  0.00000000000E+00 0.  1.
</event>
<event>
 7    1  0.2966651E-011  0.5052880E+02  0.7816164E-02  0.1300439E+00
        -11   -1    0    0    0    0  0.00000000000E+00  0.00000000000E+00  0.45593999997E+02  0.45594000000E+02  0.51100000000E-03 0.  1.
         11   -1    0    0    0    0 -0.00000000000E+00 -0.00000000000E+00 -0.45593999997E+02  0.45594000000E+02  0.51100000000E-03 0. -1.
    9900012    2    1    2    0    0 -0.23743208026E+01 -0.33734791456E+02  0.22572031327E+02  0.50528804827E+02  0.29999832753E+02 0.  0.
         12    1    1    2    0    0  0.23743208026E+01  0.33734791456E+02 -0.22572031327E+02  0.40659195173E+02  0.00000000000E+00 0. -1.
         11    1    3    3    0    0 -0.29774109803E+01 -0.89220809457E+01 -0.15895126777E+01  0.95391328411E+01  0.51100000000E-03 0. -1.
        -11    1    3    3    0    0  0.68936830572E+01 -0.69622883123E+01  0.18991347480E+02  0.21369782498E+02  0.51100000000E-03 0.  1.
        -12    1    3    3    0    0 -0.62905928796E+01 -0.17850422198E+02  0.51701965242E+01  0.19619889488E+02  0.00000000000E+00 0.  1.
</event>
<event>
 7    1  0.2966651E-011  0.5052887E+02  0.7816164E-02  0.1300439E+00
        -11   -1    0    0    0    0  0.00000000000E+00  0.00000000000E+00  0.45593999997E+02  0.45594000000E+02  0.51100000000E-03 0.  1.
         11   -1    0    0    0    0 -0.00000000000E+00 -0.00000000000E+00 -0.45593999997E+02  0.45594000000E+02  0.51100000000E-03 0. -1.
    9900012    2    1    2    0    0 -0.31218028521E+02  0.26044676446E+02  0.52415588741E+00  0.50528865536E+02  0.30000017283E+02 0.  0.
         12    1    1    2    0    0  0.31218028521E+02 -0.26044676446E+02 -0.52415588741E+00  0.40659134464E+02  0.00000000000E+00 0. -1.
         11    1    3    3    0    0 -0.32286878989E+01 -0.51233049671E+00  0.61668257878E+01  0.69797312731E+01  0.51100000000E-03 0. -1.
        -11    1    3    3    0    0 -0.18360925167E+02  0.27294618574E+02 -0.74405411793E+01  0.33726568598E+02  0.51100000000E-03 0.  1.
         12    1    3    3    0    0 -0.96284154553E+01 -0.73761163127E+00  0.17978712788E+01  0.98225656645E+01  0.00000000000E+00 0. -1.
</event>
<event>
 7    1  0.2966651E-011  0.5052886E+02  0.7816164E-02  0.1300439E+00
        -11   -1    0    0    0    0  0.00000000000E+00  0.00000000000E+00  0.45593999997E+02  0.45594000000E+02  0.51100000000E-03 0.  1.
         11   -1    0    0    0    0 -0.00000000000E+00 -0.00000000000E+00 -0.45593999997E+02  0.45594000000E+02  0.51100000000E-03 0. -1.
    9900012    2    1    2    0    0  0.11905200477E+02 -0.31966578059E+01  0.38745495828E+02  0.50528857529E+02  0.29999992945E+02 0.  0.
         12    1    1    2    0    0 -0.11905200477E+02  0.31966578059E+01 -0.38745495828E+02  0.40659142471E+02  0.00000000000E+00 0. -1.
         11    1    3    3    0    0 -0.10424117222E+01  0.83056785460E+01  0.63117086076E+01  0.10483729495E+02  0.51100000000E-03 0. -1.
        -11    1    3    3    0    0  0.54941506801E+01 -0.14342820907E+02  0.23440298039E+02  0.28024092772E+02  0.51100000000E-03 0.  1.
         12    1    3    3    0    0  0.74534615189E+01  0.28404845550E+01  0.89934891817E+01  0.12021035263E+02  0.00000000000E+00 0. -1.
</event>
<event>
 7    1  0.2966651E-011  0.5052887E+02  0.7816164E-02  0.1300439E+00
        -11   -1    0    0    0    0  0.00000000000E+00  0.00000000000E+00  0.45593999997E+02  0.45594000000E+02  0.51100000000E-03 0.  1.
         11   -1    0    0    0    0 -0.00000000000E+00 -0.00000000000E+00 -0.45593999997E+02  0.45594000000E+02  0.51100000000E-03 0. -1.
    9900012    2    1    2    0    0  0.33335941164E+02 -0.19458616820E+01  0.23196837746E+02  0.50528872705E+02  0.30000039074E+02 0.  0.
         12    1    1    2    0    0 -0.33335941164E+02  0.19458616820E+01 -0.23196837746E+02  0.40659127295E+02  0.00000000000E+00 0. -1.
         11    1    3    3    0    0  0.11348940378E+02  0.10494649196E+02  0.22877655693E+01  0.15625939364E+02  0.51100000000E-03 0. -1.
        -11    1    3    3    0    0  0.33831653777E+01 -0.34672435765E+01  0.10947423339E+02  0.11971368511E+02  0.51100000000E-03 0.  1.
         12    1    3    3    0    0  0.18603835409E+02 -0.89732673020E+01  0.99616488375E+01  0.22931564830E+02  0.00000000000E+00 0. -1.
</event>
<event>
 7    1  0.2966651E-011  0.5052886E+02  0.7816164E-02  0.1300439E+00
        -11   -1    0    0    0    0  0.00000000000E+00  0.00000000000E+00  0.45593999997E+02  0.45594000000E+02  0.51100000000E-03 0.  1.
         11   -1    0    0    0    0 -0.00000000000E+00 -0.00000000000E+00 -0.45593999997E+02  0.45594000000E+02  0.51100000000E-03 0. -1.
    9900012    2    1    2    0    0  0.13172971417E+02  0.38428810342E+02  0.16926779875E+01  0.50528858358E+02  0.29999995466E+02 0.  0.
         12    1    1    2    0    0 -0.13172971417E+02 -0.38428810342E+02 -0.16926779875E+01  0.40659141642E+02  0.00000000000E+00 0. -1.
         11    1    3    3    0    0  0.18150628551E+01  0.36538952626E+02 -0.46360215424E+01  0.36876580755E+02  0.51100000000E-03 0. -1.
        -11    1    3    3    0    0  0.28685341705E+01 -0.87885841358E+00  0.26205285321E+01  0.39834721596E+01  0.51100000000E-03 0.  1.
         12    1    3    3    0    0  0.84893743911E+01  0.27687161296E+01  0.37081709978E+01  0.96688054436E+01  0.00000000000E+00 0. -1.
</event>
<event>
 7    1  0.2966651E-011  0.5052886E+02  0.7816164E-02  0.1300439E+00
        -11   -1    0    0    0    0  0.00000000000E+00  0.00000000000E+00  0.45593999997E+02  0.45594000000E+02  0.51100000000E-03 0.  1.
         11   -1    0    0    0    0 -0.00000000000E+00 -0.00000000000E+00 -0.45593999997E+02  0.45594000000E+02  0.51100000000E-03 0. -1.
    9900012    2    1    2    0    0  0.18897257542E+02 -0.24362933807E+02  0.26504838948E+02  0.50528863586E+02  0.30000011356E+02 0.  0.
         12    1    1    2    0    0 -0.18897257542E+02  0.24362933807E+02 -0.26504838948E+02  0.40659136414E+02  0.00000000000E+00 0. -1.
         11    1    3    3    0    0  0.53922319156E+01 -0.17725376406E+02  0.35042155660E+01  0.18855891938E+02  0.51100000000E-03 0. -1.
        -11    1    3    3    0    0  0.79117591467E+01  0.46501313631E+01  0.97815186265E+01  0.13412597116E+02  0.51100000000E-03 0.  1.
        -12    1    3    3    0    0  0.55932664797E+01 -0.11287688764E+02  0.13219104755E+02  0.18260374532E+02  0.00000000000E+00 0.  1.
</event>
<event>
 7    1  0.2966651E-011  0.5052886E+02  0.7816164E-02  0.1300439E+00
        -11   -1    0    0    0    0  0.00000000000E+00  0.00000000000E+00  0.45593999997E+02  0.45594000000E+02  0.51100000000E-03 0.  1.
         11   -1    0    0    0    0 -0.00000000000E+00 -0.00000000000E+00 -0.45593999997E+02  0.45594000000E+02  0.51100000000E-03 0. -1.
    9900012    2    1    2    0    0 -0.20764289185E+02  0.23855583462E+02  0.25552320274E+02  0.50528860326E+02  0.30000001445E+02 0.  0.
         12    1    1    2    0    0  0.20764289185E+02 -0.23855583462E+02 -0.25552320274E+02  0.40659139674E+02  0.00000000000E+00 0. -1.
         11    1    3    3    0    0  0.49457678882E+01  0.69119546081E+01 -0.65967264142E+00  0.85247231488E+01  0.51100000000E-03 0. -1.
        -11    1    3    3    0    0 -0.42770942654E+01  0.16106901868E+01  0.10177321410E+02  0.11156421002E+02  0.51100000000E-03 0.  1.
         12    1    3    3    0    0 -0.21432962808E+02  0.15332938667E+02  0.16034671505E+02  0.30847716174E+02  0.00000000000E+00 0. -1.
</event>
<event>
 7    1  0.2966651E-011  0.5052887E+02  0.7816164E-02  0.1300439E+00
        -11   -1    0    0    0    0  0.00000000000E+00  0.00000000000E+00  0.45593999997E+02  0.45594000000E+02  0.51100000000E-03 0. -1.
         11   -1    0    0    0    0 -0.00000000000E+00 -0.00000000000E+00 -0.45593999997E+02  0.45594000000E+02  0.51100000000E-03 0.  1.
    9900012    2    1    2    0    0  0.87205632895E+01 -0.30792498340E+02 -0.25078652196E+02  0.50528868503E+02  0.30000026302E+02 0.  0.
         12    1    1    2    0    0 -0.87205632895E+01  0.30792498340E+02  0.25078652196E+02  0.40659131497E+02  0.00000000000E+00 0. -1.
         11    1    3    3    0    0 -0.11085677162E+01 -0.92992217838E+01  0.25279280738E+01  0.97002509644E+01  0.51100000000E-03 0. -1.
        -11    1    3    3    0    0  0.72466704407E+01 -0.23243726899E+02 -0.16800279271E+02  0.29580981331E+02  0.51100000000E-03 0.  1.
         12    1    3    3    0    0  0.25824605650E+01  0.17504503431E+01 -0.10806300999E+02  0.11247636208E+02  0.00000000000E+00 0. -1.
</event>
<event>
 7    1  0.2966651E-011  0.5052887E+02  0.7816164E-02  0.1300439E+00
        -11   -1    0    0    0    0  0.00000000000E+00  0.00000000000E+00  0.45593999997E+02  0.45594000000E+02  0.51100000000E-03 0.  1.
         11   -1    0    0    0    0 -0.00000000000E+00 -0.00000000000E+00 -0.45593999997E+02  0.45594000000E+02  0.51100000000E-03 0. -1.
    9900012    2    1    2    0    0 -0.14031370204E+02 -0.71884793877E+01  0.37478147109E+02  0.50528866998E+02  0.30000021728E+02 0.  0.
         12    1    1    2    0    0  0.14031370204E+02  0.71884793877E+01 -0.37478147109E+02  0.40659133002E+02  0.00000000000E+00 0. -1.
         11    1    3    3    0    0  0.49043249088E+01 -0.21221487842E+01  0.82879945061E-01  0.53444164901E+01  0.51100000000E-03 0. -1.
        -11    1    3    3    0    0 -0.14640949346E+02 -0.10711787002E+02  0.28837734261E+02  0.34069263216E+02  0.51100000000E-03 0.  1.
        -12    1    3    3    0    0 -0.42947457667E+01  0.56454563983E+01  0.85575329030E+01  0.11115187292E+02  0.00000000000E+00 0.  1.
</event>
<event>
 7    1  0.2966651E-011  0.5052887E+02  0.7816164E-02  0.1300439E+00
        -11   -1    0    0    0    0  0.00000000000E+00  0.00000000000E+00  0.45593999997E+02  0.45594000000E+02  0.51100000000E-03 0. -1.
         11   -1    0    0    0    0 -0.00000000000E+00 -0.00000000000E+00 -0.45593999997E+02  0.45594000000E+02  0.51100000000E-03 0.  1.
    9900012    2    1    2    0    0  0.24534996047E+02 -0.32192808787E+02 -0.38498909681E+01  0.50528872746E+02  0.30000039199E+02 0.  0.
         12    1    1    2    0    0 -0.24534996047E+02  0.32192808787E+02  0.38498909681E+01  0.40659127254E+02  0.00000000000E+00 0. -1.
         11    1    3    3    0    0 -0.13090342228E+01  0.71532677402E+00  0.31799727773E+01  0.35124763509E+01  0.51100000000E-03 0. -1.
        -11    1    3    3    0    0  0.19876087526E+02 -0.31753954255E+02 -0.11814740877E+02  0.39280536763E+02  0.51100000000E-03 0.  1.
        -12    1    3    3    0    0  0.59679427442E+01 -0.11541813056E+01  0.47848771313E+01  0.77358596320E+01  0.00000000000E+00 0.  1.
</event>
<event>
 7    1  0.2966651E-011  0.5052886E+02  0.7816164E-02  0.1300439E+00
        -11   -1    0    0    0    0  0.00000000000E+00  0.00000000000E+00  0.45593999997E+02  0.45594000000E+02  0.51100000000E-03 0.  1.
         11   -1    0    0    0    0 -0.00000000000E+00 -0.00000000000E+00 -0.45593999997E+02  0.45594000000E+02  0.51100000000E-03 0. -1.
    9900012    2    1    2    0    0 -0.24662419985E+02 -0.31986049177E+02  0.46715091707E+01  0.50528864502E+02  0.30000014142E+02 0.  0.
         12    1    1    2    0    0  0.24662419985E+02  0.31986049177E+02 -0.46715091707E+01  0.40659135498E+02  0.00000000000E+00 0. -1.
         11    1    3    3    0    0 -0.17024735111E+02 -0.11199338586E+02 -0.43434401816E+00  0.20382724189E+02  0.51100000000E-03 0. -1.
        -11    1    3    3    0    0 -0.30413371545E+01 -0.13905338993E+02  0.12579103010E+02  0.18995842097E+02  0.51100000000E-03 0.  1.
        -12    1    3    3    0    0 -0.45963477193E+01 -0.68813715982E+01 -0.74732498208E+01  0.11150298216E+02  0.00000000000E+00 0.  1.
</event>
<event>
 7    1  0.2966651E-011  0.5052886E+02  0.7816164E-02  0.1300439E+00
        -11   -1    0    0    0    0  0.00000000000E+00  0.00000000000E+00  0.45593999997E+02  0.45594000000E+02  0.51100000000E-03 0.  1.
         11   -1    0    0    0    0 -0.00000000000E+00 -0.00000000000E+00 -0.45593999997E+02  0.45594000000E+02  0.51100000000E-03 0. -1.
    9900012    2    1    2    0    0 -0.11854858558E+02  0.36932179282E+02 -0.12191888695E+02  0.50528859725E+02  0.29999999620E+02 0.  0.
         12    1    1    2    0    0  0.11854858558E+02 -0.36932179282E+02  0.12191888695E+02  0.40659140275E+02  0.00000000000E+00 0. -1.
         11    1    3    3    0    0  0.41295963110E+00  0.22877057734E+01 -0.10378789188E+02  0.10635948412E+02  0.51100000000E-03 0. -1.
        -11    1    3    3    0    0 -0.77740181142E+01  0.29426159785E+02 -0.70496699169E+01  0.31241512184E+02  0.51100000000E-03 0.  1.
        -12    1    3    3    0    0 -0.44938000746E+01  0.52183137240E+01  0.52365704096E+01  0.86513991289E+01  0.00000000000E+00 0.  1.
</event>
<event>
 7    1  0.2966651E-011  0.5052887E+02  0.7816164E-02  0.1300439E+00
        -11   -1    0    0    0    0  0.00000000000E+00  0.00000000000E+00  0.45593999997E+02  0.45594000000E+02  0.51100000000E-03 0. -1.
         11   -1    0    0    0    0 -0.00000000000E+00 -0.00000000000E+00 -0.45593999997E+02  0.45594000000E+02  0.51100000000E-03 0.  1.
    9900012    2    1    2    0    0 -0.88152958642E+01 -0.39028935859E+02 -0.72247742806E+01  0.50528872625E+02  0.30000038832E+02 0.  0.
         12    1    1    2    0    0  0.88152958642E+01  0.39028935859E+02  0.72247742806E+01  0.40659127375E+02  0.00000000000E+00 0. -1.
         11    1    3    3    0    0 -0.71689606744E+01 -0.60539185112E+01  0.52974529871E+01  0.10775292799E+02  0.51100000000E-03 0. -1.
        -11    1    3    3    0    0  0.22841528329E+01 -0.31802480469E+02 -0.66172334659E+01  0.32563828048E+02  0.51100000000E-03 0.  1.
        -12    1    3    3    0    0 -0.39304880226E+01 -0.11725368786E+01 -0.59049938018E+01  0.71897517778E+01  0.00000000000E+00 0.  1.
</event>
<event>
 7    1  0.2966651E-011  0.5052886E+02  0.7816164E-02  0.1300439E+00
        -11   -1    0    0    0    0  0.00000000000E+00  0.00000000000E+00  0.45593999997E+02  0.45594000000E+02  0.51100000000E-03 0. -1.
         11   -1    0    0    0    0 -0.00000000000E+00 -0.00000000000E+00 -0.45593999997E+02  0.45594000000E+02  0.51100000000E-03 0.  1.
    9900012    2    1    2    0    0  0.23373997600E+02 -0.53122755944E+01 -0.32842073083E+02  0.50528858345E+02  0.29999995424E+02 0.  0.
         12    1    1    2    0    0 -0.23373997600E+02  0.53122755944E+01  0.32842073083E+02  0.40659141655E+02  0.00000000000E+00 0. -1.
         11    1    3    3    0    0  0.17618103711E+02 -0.13545564956E+02 -0.31686704909E+02  0.38703064176E+02  0.51100000000E-03 0. -1.
        -11    1    3    3    0    0  0.18568064489E+01  0.53678441776E+01  0.20310084915E+01  0.60321204445E+01  0.51100000000E-03 0.  1.
         12    1    3    3    0    0  0.38990874401E+01  0.28654451843E+01 -0.31863766655E+01  0.57936737243E+01  0.00000000000E+00 0. -1.
</event>
<event>
 7    1  0.2966651E-011  0.5052886E+02  0.7816164E-02  0.1300439E+00
        -11   -1    0    0    0    0  0.00000000000E+00  0.00000000000E+00  0.45593999997E+02  0.45594000000E+02  0.51100000000E-03 0.  1.
         11   -1    0    0    0    0 -0.00000000000E+00 -0.00000000000E+00 -0.45593999997E+02  0.45594000000E+02  0.51100000000E-03 0. -1.
    9900012    2    1    2    0    0  0.31142306925E+01 -0.24380062756E+02  0.32389502422E+02  0.50528858839E+02  0.29999996927E+02 0.  0.
         12    1    1    2    0    0 -0.31142306925E+01  0.24380062756E+02 -0.32389502422E+02  0.40659141161E+02  0.00000000000E+00 0. -1.
         11    1    3    3    0    0 -0.95618490150E+00 -0.56089585950E+01 -0.20554057208E+01  0.60497437156E+01  0.51100000000E-03 0. -1.
        -11    1    3    3    0    0 -0.13207851061E+01 -0.73424593270E+01  0.30262562861E+02  0.31168556165E+02  0.51100000000E-03 0.  1.
        -12    1    3    3    0    0  0.53912007001E+01 -0.11428644834E+02  0.41823452824E+01  0.13310558958E+02  0.00000000000E+00 0.  1.
</event>
<event>
 7    1  0.2966651E-011  0.5052886E+02  0.7816164E-02  0.1300439E+00
        -11   -1    0    0    0    0  0.00000000000E+00  0.00000000000E+00  0.45593999997E+02  0.45594000000E+02  0.51100000000E-03 0. -1.
         11   -1    0    0    0    0 -0.00000000000E+00 -0.00000000000E+00 -0.45593999997E+02  0.45594000000E+02  0.51100000000E-03 0.  1.
    9900012    2    1    2    0    0 -0.38532767684E+02  0.22244424465E+01  0.12784508397E+02  0.50528856077E+02  0.29999988532E+02 0.  0.
         12    1    1    2    0    0  0.38532767684E+02 -0.22244424465E+01 -0.12784508397E+02  0.40659143923E+02  0.00000000000E+00 0. -1.
         11    1    3    3    0    0 -0.25910153516E+02  0.52910207063E+01  0.15941121154E+02  0.30877990531E+02  0.51100000000E-03 0. -1.
        -11    1    3    3    0    0 -0.94641690722E+01 -0.85280601204E+01 -0.38379057163E+01  0.13305180427E+02  0.51100000000E-03 0.  1.
        -12    1    3    3    0    0 -0.31584450955E+01  0.54614818607E+01  0.68129296014E+00  0.63456851193E+01  0.00000000000E+00 0.  1.
</event>
<event>
 7    1  0.2966651E-011  0.5052890E+02  0.7816164E-02  0.1300439E+00
        -11   -1    0    0    0    0  0.00000000000E+00  0.00000000000E+00  0.45593999997E+02  0.45594000000E+02  0.51100000000E-03 0. -1.
         11   -1    0    0    0    0 -0.00000000000E+00 -0.00000000000E+00 -0.45593999997E+02  0.45594000000E+02  0.51100000000E-03 0.  1.
    9900012    2    1    2    0    0  0.91884339997E+01 -0.45230788971E+01 -0.39348151592E+02  0.50528897750E+02  0.30000115199E+02 0.  0.
         12    1    1    2    0    0 -0.91884339997E+01  0.45230788971E+01  0.39348151592E+02  0.40659102250E+02  0.00000000000E+00 0. -1.
         11    1    3    3    0    0  0.42688625941E+01 -0.15973127141E+02 -0.15747317567E+02  0.22832914604E+02  0.51100000000E-03 0. -1.
        -11    1    3    3    0    0  0.36735384999E+01  0.21481177347E+01 -0.12248125543E+02  0.12966336201E+02  0.51100000000E-03 0.  1.
         12    1    3    3    0    0  0.12460329058E+01  0.93019305092E+01 -0.11352708482E+02  0.14729646944E+02  0.00000000000E+00 0. -1.
</event>
<event>
 7    1  0.2966651E-011  0.5052885E+02  0.7816164E-02  0.1300439E+00
        -11   -1    0    0    0    0  0.00000000000E+00  0.00000000000E+00  0.45593999997E+02  0.45594000000E+02  0.51100000000E-03 0.  1.
         11   -1    0    0    0    0 -0.00000000000E+00 -0.00000000000E+00 -0.45593999997E+02  0.45594000000E+02  0.51100000000E-03 0. -1.
    9900012    2    1    2    0    0  0.33672884790E+02 -0.21517738053E+02  0.75026678691E+01  0.50528852860E+02  0.29999978753E+02 0.  0.
         12    1    1    2    0    0 -0.33672884790E+02  0.21517738053E+02 -0.75026678691E+01  0.40659147140E+02  0.00000000000E+00 0. -1.
         11    1    3    3    0    0  0.16984355907E+02 -0.43034655803E+01  0.12490365244E+01  0.17565541667E+02  0.51100000000E-03 0. -1.
        -11    1    3    3    0    0 -0.46572607021E+01 -0.75402344612E+01  0.26642950783E+01  0.92543871490E+01  0.51100000000E-03 0.  1.
        -12    1    3    3    0    0  0.21345789585E+02 -0.96740380119E+01  0.35893362663E+01  0.23708924044E+02  0.00000000000E+00 0.  1.
</event>
<event>
 7    1  0.2966651E-011  0.5052886E+02  0.7816164E-02  0.1300439E+00
        -11   -1    0    0    0    0  0.00000000000E+00  0.00000000000E+00  0.45593999997E+02  0.45594000000E+02  0.51100000000E-03 0.  1.
         11   -1    0    0    0    0 -0.00000000000E+00 -0.00000000000E+00 -0.45593999997E+02  0.45594000000E+02  0.51100000000E-03 0. -1.
    9900012    2    1    2    0    0  0.26754046646E+02 -0.16328465222E+02  0.25899181263E+02  0.50528863530E+02  0.30000011185E+02 0.  0.
         12    1    1    2    0    0 -0.26754046646E+02  0.16328465222E+02 -0.25899181263E+02  0.40659136470E+02  0.00000000000E+00 0. -1.
         11    1    3    3    0    0  0.29964355976E+01 -0.17789872163E+02  0.12977929454E+02  0.22223519772E+02  0.51100000000E-03 0. -1.
        -11    1    3    3    0    0  0.13549927285E+02  0.32876116815E+01  0.10998523638E+02  0.17758841248E+02  0.51100000000E-03 0.  1.
        -12    1    3    3    0    0  0.10207683764E+02 -0.18262047405E+01  0.19227281704E+01  0.10546502510E+02  0.00000000000E+00 0.  1.
</event>
<event>
 7    1  0.2966651E-011  0.5052887E+02  0.7816164E-02  0.1300439E+00
        -11   -1    0    0    0    0  0.00000000000E+00  0.00000000000E+00  0.45593999997E+02  0.45594000000E+02  0.51100000000E-03 0.  1.
         11   -1    0    0    0    0 -0.00000000000E+00 -0.00000000000E+00 -0.45593999997E+02  0.45594000000E+02  0.51100000000E-03 0. -1.
    9900012    2    1    2    0    0  0.33549821672E+02 -0.15481132755E+02  0.16967868932E+02  0.50528873328E+02  0.30000040969E+02 0.  0.
         12    1    1    2    0    0 -0.33549821672E+02  0.15481132755E+02 -0.16967868932E+02  0.40659126672E+02  0.00000000000E+00 0. -1.
         11    1    3    3    0    0 -0.11915582802E+01 -0.81174862038E+01  0.10452610417E+02  0.13287981720E+02  0.51100000000E-03 0.  1.
        -11    1    3    3    0    0  0.21481041808E+02 -0.21501228409E+01  0.77541309217E+01  0.22938716878E+02  0.51100000000E-03 0. -1.
        -12    1    3    3    0    0  0.13260338144E+02 -0.52135237103E+01 -0.12388724066E+01  0.14302174731E+02  0.00000000000E+00 0.  1.
</event>
<event>
 7    1  0.2966651E-011  0.5052886E+02  0.7816164E-02  0.1300439E+00
        -11   -1    0    0    0    0  0.00000000000E+00  0.00000000000E+00  0.45593999997E+02  0.45594000000E+02  0.51100000000E-03 0.  1.
         11   -1    0    0    0    0 -0.00000000000E+00 -0.00000000000E+00 -0.45593999997E+02  0.45594000000E+02  0.51100000000E-03 0. -1.
    9900012    2    1    2    0    0 -0.22287613269E+02  0.13336547368E+02  0.31282019282E+02  0.50528856732E+02  0.29999990522E+02 0.  0.
         12    1    1    2    0    0  0.22287613269E+02 -0.13336547368E+02 -0.31282019282E+02  0.40659143268E+02  0.00000000000E+00 0. -1.
         11    1    3    3    0    0 -0.13510905148E+02 -0.29003070623E+01  0.35237427914E+01  0.14260894169E+02  0.51100000000E-03 0. -1.
        -11    1    3    3    0    0 -0.72763221976E+01  0.64001225438E+01  0.23546872424E+02  0.25462946305E+02  0.51100000000E-03 0.  1.
        -12    1    3    3    0    0 -0.15003859234E+01  0.98367318868E+01  0.42114040664E+01  0.10805016258E+02  0.00000000000E+00 0.  1.
</event>
<event>
 7    1  0.2966651E-011  0.5052886E+02  0.7816164E-02  0.1300439E+00
        -11   -1    0    0    0    0  0.00000000000E+00  0.00000000000E+00  0.45593999997E+02  0.45594000000E+02  0.51100000000E-03 0.  1.
         11   -1    0    0    0    0 -0.00000000000E+00 -0.00000000000E+00 -0.45593999997E+02  0.45594000000E+02  0.51100000000E-03 0. -1.
    9900012    2    1    2    0    0 -0.35429923577E+02 -0.57923866492E+01  0.19087555187E+02  0.50528856001E+02  0.29999988300E+02 0.  0.
         12    1    1    2    0    0  0.35429923577E+02  0.57923866492E+01 -0.19087555187E+02  0.40659143999E+02  0.00000000000E+00 0. -1.
         11    1    3    3    0    0 -0.14710089532E+02  0.59631881887E+01 -0.19784656578E+01  0.15995645471E+02  0.51100000000E-03 0. -1.
        -11    1    3    3    0    0 -0.17629818009E+02 -0.14269472707E+02  0.14714809959E+02  0.27036160356E+02  0.51100000000E-03 0.  1.
         12    1    3    3    0    0 -0.30900160352E+01  0.25138978693E+01  0.63512108856E+01  0.74970501738E+01  0.00000000000E+00 0. -1.
</event>
<event>
 7    1  0.2966651E-011  0.5052885E+02  0.7816164E-02  0.1300439E+00
        -11   -1    0    0    0    0  0.00000000000E+00  0.00000000000E+00  0.45593999997E+02  0.45594000000E+02  0.51100000000E-03 0.  1.
         11   -1    0    0    0    0 -0.00000000000E+00 -0.00000000000E+00 -0.45593999997E+02  0.45594000000E+02  0.51100000000E-03 0. -1.
    9900012    2    1    2    0    0  0.15351547977E+02  0.25147841750E+01  0.37565573430E+02  0.50528850084E+02  0.29999970316E+02 0.  0.
         12    1    1    2    0    0 -0.15351547977E+02 -0.25147841750E+01 -0.37565573430E+02  0.40659149916E+02  0.00000000000E+00 0. -1.
         11    1    3    3    0    0 -0.13622900384E+01 -0.11444186220E+02  0.11223406169E+02  0.16086953679E+02  0.51100000000E-03 0. -1.
        -11    1    3    3    0    0  0.66277326390E+01  0.72954854764E+01  0.14392635110E+02  0.17444165040E+02  0.51100000000E-03 0.  1.
         12    1    3    3    0    0  0.10086105377E+02  0.66634849183E+01  0.11949532152E+02  0.16997731365E+02  0.00000000000E+00 0. -1.
</event>
<event>
 7    1  0.2966651E-011  0.5052885E+02  0.7816164E-02  0.1300439E+00
        -11   -1    0    0    0    0  0.00000000000E+00  0.00000000000E+00  0.45593999997E+02  0.45594000000E+02  0.51100000000E-03 0.  1.
         11   -1    0    0    0    0 -0.00000000000E+00 -0.00000000000E+00 -0.45593999997E+02  0.45594000000E+02  0.51100000000E-03 0. -1.
    9900012    2    1    2    0    0 -0.16445637129E+02 -0.20084232456E+02  0.31294260413E+02  0.50528854550E+02  0.29999983891E+02 0.  0.
         12    1    1    2    0    0  0.16445637129E+02  0.20084232456E+02 -0.31294260413E+02  0.40659145450E+02  0.00000000000E+00 0. -1.
         11    1    3    3    0    0 -0.40073835444E+01 -0.15473590041E+01 -0.53200846308E+01  0.68378902813E+01  0.51100000000E-03 0. -1.
        -11    1    3    3    0    0 -0.55886180762E+01 -0.13653977187E+02  0.18069376600E+02  0.23327368390E+02  0.51100000000E-03 0.  1.
         12    1    3    3    0    0 -0.68496355083E+01 -0.48828962642E+01  0.18544968444E+02  0.20363595879E+02  0.00000000000E+00 0. -1.
</event>
<event>
 7    1  0.2966651E-011  0.5052885E+02  0.7816164E-02  0.1300439E+00
        -11   -1    0    0    0    0  0.00000000000E+00  0.00000000000E+00  0.45593999997E+02  0.45594000000E+02  0.51100000000E-03 0. -1.
         11   -1    0    0    0    0 -0.00000000000E+00 -0.00000000000E+00 -0.45593999997E+02  0.45594000000E+02  0.51100000000E-03 0.  1.
    9900012    2    1    2    0    0 -0.20424368457E+02  0.14429148565E+02  0.32059499255E+02  0.50528847923E+02  0.29999963745E+02 0.  0.
         12    1    1    2    0    0  0.20424368457E+02 -0.14429148565E+02 -0.32059499255E+02  0.40659152077E+02  0.00000000000E+00 0. -1.
         11    1    3    3    0    0 -0.22673550798E-01  0.41818161624E+01  0.12168936198E+02  0.12867443762E+02  0.51100000000E-03 0. -1.
        -11    1    3    3    0    0 -0.17863003129E+02  0.15546763116E+02  0.90896728839E+01  0.25365545087E+02  0.51100000000E-03 0.  1.
        -12    1    3    3    0    0 -0.25386917779E+01 -0.52994307140E+01  0.10800890173E+02  0.12295859074E+02  0.00000000000E+00 0.  1.
</event>
<event>
 7    1  0.2966651E-011  0.5052885E+02  0.7816164E-02  0.1300439E+00
        -11   -1    0    0    0    0  0.00000000000E+00  0.00000000000E+00  0.45593999997E+02  0.45594000000E+02  0.51100000000E-03 0.  1.
         11   -1    0    0    0    0 -0.00000000000E+00 -0.00000000000E+00 -0.45593999997E+02  0.45594000000E+02  0.51100000000E-03 0. -1.
    9900012    2    1    2    0    0 -0.22500843397E+02  0.46020245502E+01  0.33551446832E+02  0.50528853820E+02  0.29999981671E+02 0.  0.
         12    1    1    2    0    0  0.22500843397E+02 -0.46020245502E+01 -0.33551446832E+02  0.40659146180E+02  0.00000000000E+00 0. -1.
         11    1    3    3    0    0  0.17648137500E+01 -0.34558884790E+01 -0.28184969936E+01  0.47960044115E+01  0.51100000000E-03 0. -1.
        -11    1    3    3    0    0 -0.24608906288E+02  0.85623240578E+01  0.31749993730E+02  0.41072786174E+02  0.51100000000E-03 0.  1.
         12    1    3    3    0    0  0.34324914103E+00 -0.50441102856E+00  0.46199500959E+01  0.46600632342E+01  0.00000000000E+00 0. -1.
</event>
<event>
 7    1  0.2966651E-011  0.5052880E+02  0.7816164E-02  0.1300439E+00
        -11   -1    0    0    0    0  0.00000000000E+00  0.00000000000E+00  0.45593999997E+02  0.45594000000E+02  0.51100000000E-03 0.  1.
         11   -1    0    0    0    0 -0.00000000000E+00 -0.00000000000E+00 -0.45593999997E+02  0.45594000000E+02  0.51100000000E-03 0. -1.
    9900012    2    1    2    0    0 -0.39190569018E+02 -0.53041626867E+01  0.94411560219E+01  0.50528803393E+02  0.29999828392E+02 0.  0.
         12    1    1    2    0    0  0.39190569018E+02  0.53041626867E+01 -0.94411560219E+01  0.40659196607E+02  0.00000000000E+00 0. -1.
         11    1    3    3    0    0 -0.66244339539E+01  0.99129625045E+01  0.48920428024E+01  0.12887281865E+02  0.51100000000E-03 0. -1.
        -11    1    3    3    0    0 -0.93297345094E+01 -0.56217038807E+01  0.60447958017E+01  0.12457409726E+02  0.51100000000E-03 0.  1.
         12    1    3    3    0    0 -0.23236400554E+02 -0.95954213106E+01 -0.14956825823E+01  0.25184111802E+02  0.00000000000E+00 0. -1.
</event>
<event>
 7    1  0.2966651E-011  0.5052886E+02  0.7816164E-02  0.1300439E+00
        -11   -1    0    0    0    0  0.00000000000E+00  0.00000000000E+00  0.45593999997E+02  0.45594000000E+02  0.51100000000E-03 0.  1.
         11   -1    0    0    0    0 -0.00000000000E+00 -0.00000000000E+00 -0.45593999997E+02  0.45594000000E+02  0.51100000000E-03 0. -1.
    9900012    2    1    2    0    0  0.64286824792E+01 -0.14891491565E+02  0.37283792642E+02  0.50528859905E+02  0.30000000168E+02 0.  0.
         12    1    1    2    0    0 -0.64286824792E+01  0.14891491565E+02 -0.37283792642E+02  0.40659140095E+02  0.00000000000E+00 0. -1.
         11    1    3    3    0    0  0.73837216161E+01 -0.12050616439E+02  0.48569044709E+01  0.14944103277E+02  0.51100000000E-03 0. -1.
        -11    1    3    3    0    0 -0.51057485997E+00 -0.15634832606E+01  0.33692396393E+02  0.33732517569E+02  0.51100000000E-03 0.  1.
        -12    1    3    3    0    0 -0.44446427692E+00 -0.12773918662E+01 -0.12655082215E+01  0.18522390591E+01  0.00000000000E+00 0.  1.
</event>
<event>
 7    1  0.2966651E-011  0.5052886E+02  0.7816164E-02  0.1300439E+00
        -11   -1    0    0    0    0  0.00000000000E+00  0.00000000000E+00  0.45593999997E+02  0.45594000000E+02  0.51100000000E-03 0. -1.
         11   -1    0    0    0    0 -0.00000000000E+00 -0.00000000000E+00 -0.45593999997E+02  0.45594000000E+02  0.51100000000E-03 0.  1.
    9900012    2    1    2    0    0 -0.99285283050E+01  0.38539060660E+02 -0.83265333056E+01  0.50528855546E+02  0.29999986916E+02 0.  0.
         12    1    1    2    0    0  0.99285283050E+01 -0.38539060660E+02  0.83265333056E+01  0.40659144454E+02  0.00000000000E+00 0. -1.
         11    1    3    3    0    0  0.13002245236E+01  0.16900417575E+01  0.49372239643E+00  0.21887409668E+01  0.51100000000E-03 0. -1.
        -11    1    3    3    0    0 -0.24472118458E+01  0.38109193228E+02 -0.44362296371E+01  0.38444500100E+02  0.51100000000E-03 0.  1.
        -12    1    3    3    0    0 -0.87815409829E+01 -0.12601743254E+01 -0.43840260650E+01  0.98956144783E+01  0.00000000000E+00 0.  1.
</event>
<event>
 7    1  0.2966651E-011  0.5052886E+02  0.7816164E-02  0.1300439E+00
        -11   -1    0    0    0    0  0.00000000000E+00  0.00000000000E+00  0.45593999997E+02  0.45594000000E+02  0.51100000000E-03 0. -1.
         11   -1    0    0    0    0 -0.00000000000E+00 -0.00000000000E+00 -0.45593999997E+02  0.45594000000E+02  0.51100000000E-03 0.  1.
    9900012    2    1    2    0    0  0.13928934570E+02  0.24295845987E+02 -0.29476465322E+02  0.50528863777E+02  0.30000011937E+02 0.  0.
         12    1    1    2    0    0 -0.13928934570E+02 -0.24295845987E+02  0.29476465322E+02  0.40659136223E+02  0.00000000000E+00 0. -1.
         11    1    3    3    0    0  0.15770762768E+01  0.95741438740E+00  0.15544828736E+01  0.24125151103E+01  0.51100000000E-03 0. -1.
        -11    1    3    3    0    0  0.13469767205E+02  0.62842298649E+01 -0.26582998321E+02  0.30456230455E+02  0.51100000000E-03 0.  1.
        -12    1    3    3    0    0 -0.11179089118E+01  0.17054201735E+02 -0.44479498749E+01  0.17660118212E+02  0.00000000000E+00 0.  1.
</event>
<event>
 7    1  0.2966651E-011  0.5052885E+02  0.7816164E-02  0.1300439E+00
        -11   -1    0    0    0    0  0.00000000000E+00  0.00000000000E+00  0.45593999997E+02  0.45594000000E+02  0.51100000000E-03 0. -1.
         11   -1    0    0    0    0 -0.00000000000E+00 -0.00000000000E+00 -0.45593999997E+02  0.45594000000E+02  0.51100000000E-03 0.  1.
    9900012    2    1    2    0    0 -0.31369858008E+01  0.12994822942E+02 -0.38398699059E+02  0.50528853518E+02  0.29999980754E+02 0.  0.
         12    1    1    2    0    0  0.31369858008E+01 -0.12994822942E+02  0.38398699059E+02  0.40659146482E+02  0.00000000000E+00 0. -1.
         11    1    3    3    0    0  0.39462887588E+01  0.93735151945E+01 -0.70391234078E+01  0.12368720252E+02  0.51100000000E-03 0. -1.
        -11    1    3    3    0    0 -0.11139961568E+02 -0.49275132371E+01 -0.15820191179E+02  0.19966411286E+02  0.51100000000E-03 0.  1.
        -12    1    3    3    0    0  0.40566870083E+01  0.85488209844E+01 -0.15539384472E+02  0.18193721980E+02  0.00000000000E+00 0.  1.
</event>
<event>
 7    1  0.2966651E-011  0.5052885E+02  0.7816164E-02  0.1300439E+00
        -11   -1    0    0    0    0  0.00000000000E+00  0.00000000000E+00  0.45593999997E+02  0.45594000000E+02  0.51100000000E-03 0.  1.
         11   -1    0    0    0    0 -0.00000000000E+00 -0.00000000000E+00 -0.45593999997E+02  0.45594000000E+02  0.51100000000E-03 0. -1.
    9900012    2    1    2    0    0  0.32187438601E+02 -0.10020585892E+02  0.22731542294E+02  0.50528851456E+02  0.29999974485E+02 0.  0.
         12    1    1    2    0    0 -0.32187438601E+02  0.10020585892E+02 -0.22731542294E+02  0.40659148544E+02  0.00000000000E+00 0. -1.
         11    1    3    3    0    0 -0.44168708455E+01 -0.64129612831E+01  0.32538024108E+01  0.84393157823E+01  0.51100000000E-03 0. -1.
        -11    1    3    3    0    0  0.14258714807E+02  0.14950811162E+01  0.86009420060E+01  0.16718923983E+02  0.51100000000E-03 0.  1.
         12    1    3    3    0    0  0.22345594639E+02 -0.51027057256E+01  0.10876797877E+02  0.25370611691E+02  0.00000000000E+00 0. -1.
</event>
<event>
 7    1  0.2966651E-011  0.5052886E+02  0.7816164E-02  0.1300439E+00
        -11   -1    0    0    0    0  0.00000000000E+00  0.00000000000E+00  0.45593999997E+02  0.45594000000E+02  0.51100000000E-03 0. -1.
         11   -1    0    0    0    0 -0.00000000000E+00 -0.00000000000E+00 -0.45593999997E+02  0.45594000000E+02  0.51100000000E-03 0.  1.
    9900012    2    1    2    0    0  0.40441323036E+02  0.37056845248E+01 -0.19832579985E+01  0.50528855654E+02  0.29999987245E+02 0.  0.
         12    1    1    2    0    0 -0.40441323036E+02 -0.37056845248E+01  0.19832579985E+01  0.40659144346E+02  0.00000000000E+00 0. -1.
         11    1    3    3    0    0  0.63548470316E+01  0.88437099827E+01  0.21960294347E+01  0.11109357884E+02  0.51100000000E-03 0. -1.
        -11    1    3    3    0    0  0.24925593343E+02 -0.11708173533E+02 -0.54571160737E+01  0.28073949617E+02  0.51100000000E-03 0.  1.
         12    1    3    3    0    0  0.91608826613E+01  0.65701480751E+01  0.12778286405E+01  0.11345548153E+02  0.00000000000E+00 0. -1.
</event>
<event>
 7    1  0.2966651E-011  0.5052886E+02  0.7816164E-02  0.1300439E+00
        -11   -1    0    0    0    0  0.00000000000E+00  0.00000000000E+00  0.45593999997E+02  0.45594000000E+02  0.51100000000E-03 0.  1.
         11   -1    0    0    0    0 -0.00000000000E+00 -0.00000000000E+00 -0.45593999997E+02  0.45594000000E+02  0.51100000000E-03 0. -1.
    9900012    2    1    2    0    0  0.10491987723E+02 -0.44619164425E+01  0.39027877303E+02  0.50528859435E+02  0.29999998738E+02 0.  0.
         12    1    1    2    0    0 -0.10491987723E+02  0.44619164425E+01 -0.39027877303E+02  0.40659140565E+02  0.00000000000E+00 0. -1.
         11    1    3    3    0    0 -0.10352321127E+00  0.66509591205E+01 -0.12220457016E+01  0.67630888088E+01  0.51100000000E-03 0. -1.
        -11    1    3    3    0    0  0.94939382591E+01 -0.96122650561E+01  0.25128487481E+02  0.28530183780E+02  0.51100000000E-03 0.  1.
        -12    1    3    3    0    0  0.11015726753E+01 -0.15006105070E+01  0.15121435524E+02  0.15235586846E+02  0.00000000000E+00 0.  1.
</event>
<event>
 7    1  0.2966651E-011  0.5052886E+02  0.7816164E-02  0.1300439E+00
        -11   -1    0    0    0    0  0.00000000000E+00  0.00000000000E+00  0.45593999997E+02  0.45594000000E+02  0.51100000000E-03 0. -1.
         11   -1    0    0    0    0 -0.00000000000E+00 -0.00000000000E+00 -0.45593999997E+02  0.45594000000E+02  0.51100000000E-03 0.  1.
    9900012    2    1    2    0    0 -0.61183999745E+01  0.37683216982E+02 -0.13989497580E+02  0.50528859541E+02  0.29999999060E+02 0.  0.
         12    1    1    2    0    0  0.61183999745E+01 -0.37683216982E+02  0.13989497580E+02  0.40659140459E+02  0.00000000000E+00 0. -1.
         11    1    3    3    0    0  0.17984099617E-01  0.20931174818E+01 -0.38220530879E+01  0.43577005735E+01  0.51100000000E-03 0. -1.
        -11    1    3    3    0    0 -0.15518752204E+02  0.23324420619E+02 -0.63342804883E+00  0.28022517705E+02  0.51100000000E-03 0.  1.
        -12    1    3    3    0    0  0.93823681297E+01  0.12265678881E+02 -0.95340164429E+01  0.18148641262E+02  0.00000000000E+00 0.  1.
</event>
<event>
 7    1  0.2966651E-011  0.5052887E+02  0.7816164E-02  0.1300439E+00
        -11   -1    0    0    0    0  0.00000000000E+00  0.00000000000E+00  0.45593999997E+02  0.45594000000E+02  0.51100000000E-03 0. -1.
         11   -1    0    0    0    0 -0.00000000000E+00 -0.00000000000E+00 -0.45593999997E+02  0.45594000000E+02  0.51100000000E-03 0.  1.
    9900012    2    1    2    0    0 -0.14391749084E+02 -0.10792394669E+02 -0.36463226961E+02  0.50528866404E+02  0.30000019921E+02 0.  0.
         12    1    1    2    0    0  0.14391749084E+02  0.10792394669E+02  0.36463226961E+02  0.40659133596E+02  0.00000000000E+00 0. -1.
         11    1    3    3    0    0  0.14450575503E+01  0.27343889749E+01 -0.26950903308E+00  0.31044661006E+01  0.51100000000E-03 0. -1.
        -11    1    3    3    0    0 -0.19903396478E+02 -0.48721888170E+01 -0.28756339455E+02  0.35310203544E+02  0.51100000000E-03 0.  1.
        -12    1    3    3    0    0  0.40665898435E+01 -0.86545948266E+01 -0.74373784731E+01  0.12114196759E+02  0.00000000000E+00 0.  1.
</event>
<event>
 7    1  0.2966651E-011  0.5052886E+02  0.7816164E-02  0.1300439E+00
        -11   -1    0    0    0    0  0.00000000000E+00  0.00000000000E+00  0.45593999997E+02  0.45594000000E+02  0.51100000000E-03 0.  1.
         11   -1    0    0    0    0 -0.00000000000E+00 -0.00000000000E+00 -0.45593999997E+02  0.45594000000E+02  0.51100000000E-03 0. -1.
    9900012    2    1    2    0    0 -0.31904874568E+02 -0.18756638175E+02  0.16835467159E+02  0.50528862635E+02  0.30000008464E+02 0.  0.
         12    1    1    2    0    0  0.31904874568E+02  0.18756638175E+02 -0.16835467159E+02  0.40659137365E+02  0.00000000000E+00 0. -1.
         11    1    3    3    0    0 -0.30170835769E+01 -0.54233476450E-01  0.24867433542E+00  0.30278001530E+01  0.51100000000E-03 0. -1.
        -11    1    3    3    0    0 -0.84222262146E+01 -0.70744206379E+01 -0.78949381535E+01  0.13539252951E+02  0.51100000000E-03 0.  1.
        -12    1    3    3    0    0 -0.20465564776E+02 -0.11627984061E+02  0.24481730977E+02  0.33961809530E+02  0.00000000000E+00 0.  1.
</event>
<event>
 7    1  0.2966651E-011  0.5052888E+02  0.7816164E-02  0.1300439E+00
        -11   -1    0    0    0    0  0.00000000000E+00  0.00000000000E+00  0.45593999997E+02  0.45594000000E+02  0.51100000000E-03 0.  1.
         11   -1    0    0    0    0 -0.00000000000E+00 -0.00000000000E+00 -0.45593999997E+02  0.45594000000E+02  0.51100000000E-03 0. -1.
    9900012    2    1    2    0    0 -0.32908530537E+02 -0.10876934895E+02  0.21257593080E+02  0.50528876075E+02  0.30000049317E+02 0.  0.
         12    1    1    2    0    0  0.32908530537E+02  0.10876934895E+02 -0.21257593080E+02  0.40659123925E+02  0.00000000000E+00 0. -1.
         11    1    3    3    0    0 -0.14207348143E+02 -0.71904167948E+01  0.37896588334E+01  0.16368028265E+02  0.51100000000E-03 0. -1.
        -11    1    3    3    0    0 -0.44641178192E+01  0.85452427640E+01  0.20175947692E+01  0.98498837919E+01  0.51100000000E-03 0.  1.
        -12    1    3    3    0    0 -0.14237064575E+02 -0.12231760864E+02  0.15450339478E+02  0.24310964018E+02  0.00000000000E+00 0.  1.
</event>
<event>
 7    1  0.2966651E-011  0.5052886E+02  0.7816164E-02  0.1300439E+00
        -11   -1    0    0    0    0  0.00000000000E+00  0.00000000000E+00  0.45593999997E+02  0.45594000000E+02  0.51100000000E-03 0. -1.
         11   -1    0    0    0    0 -0.00000000000E+00 -0.00000000000E+00 -0.45593999997E+02  0.45594000000E+02  0.51100000000E-03 0.  1.
    9900012    2    1    2    0    0  0.12224357015E+02 -0.33560476138E+02 -0.19427440285E+02  0.50528857128E+02  0.29999991727E+02 0.  0.
         12    1    1    2    0    0 -0.12224357015E+02  0.33560476138E+02  0.19427440285E+02  0.40659142872E+02  0.00000000000E+00 0. -1.
         11    1    3    3    0    0  0.47276099089E+01  0.30502957167E+01  0.13991572578E+01  0.57976064633E+01  0.51100000000E-03 0. -1.
        -11    1    3    3    0    0  0.93240522260E+01 -0.25163484507E+02 -0.19264584150E+02  0.33034271676E+02  0.51100000000E-03 0.  1.
         12    1    3    3    0    0 -0.18273051196E+01 -0.11447287347E+02 -0.15620133929E+01  0.11696978988E+02  0.00000000000E+00 0. -1.
</event>
<event>
 7    1  0.2966651E-011  0.5052887E+02  0.7816164E-02  0.1300439E+00
        -11   -1    0    0    0    0  0.00000000000E+00  0.00000000000E+00  0.45593999997E+02  0.45594000000E+02  0.51100000000E-03 0.  1.
         11   -1    0    0    0    0 -0.00000000000E+00 -0.00000000000E+00 -0.45593999997E+02  0.45594000000E+02  0.51100000000E-03 0. -1.
    9900012    2    1    2    0    0  0.19452300662E+02 -0.23195984753E+02  0.27142577344E+02  0.50528865546E+02  0.30000017313E+02 0.  0.
         12    1    1    2    0    0 -0.19452300662E+02  0.23195984753E+02 -0.27142577344E+02  0.40659134454E+02  0.00000000000E+00 0. -1.
         11    1    3    3    0    0  0.16338436380E+02  0.11809040146E+01  0.75401994098E+01  0.18033126324E+02  0.51100000000E-03 0. -1.
        -11    1    3    3    0    0  0.16657892445E+00 -0.19394777272E+02  0.11534711468E+02  0.22566229258E+02  0.51100000000E-03 0.  1.
         12    1    3    3    0    0  0.29472853579E+01 -0.49821114948E+01  0.80676664657E+01  0.99295099642E+01  0.00000000000E+00 0. -1.
</event>
<event>
 7    1  0.2966651E-011  0.5052886E+02  0.7816164E-02  0.1300439E+00
        -11   -1    0    0    0    0  0.00000000000E+00  0.00000000000E+00  0.45593999997E+02  0.45594000000E+02  0.51100000000E-03 0.  1.
         11   -1    0    0    0    0 -0.00000000000E+00 -0.00000000000E+00 -0.45593999997E+02  0.45594000000E+02  0.51100000000E-03 0. -1.
    9900012    2    1    2    0    0 -0.22897942095E+01  0.32628757226E+02  0.24151323559E+02  0.50528863447E+02  0.30000010933E+02 0.  0.
         12    1    1    2    0    0  0.22897942095E+01 -0.32628757226E+02 -0.24151323559E+02  0.40659136553E+02  0.00000000000E+00 0. -1.
         11    1    3    3    0    0 -0.14976221354E+02  0.16258627965E+02  0.16183882883E+02  0.27396135764E+02  0.51100000000E-03 0. -1.
        -11    1    3    3    0    0  0.68249660983E+01  0.13595616393E+02  0.60360591006E+01  0.16366274991E+02  0.51100000000E-03 0.  1.
         12    1    3    3    0    0  0.58614610460E+01  0.27745128677E+01  0.19313815750E+01  0.67664526922E+01  0.00000000000E+00 0. -1.
</event>
<event>
 7    1  0.2966651E-011  0.5052886E+02  0.7816164E-02  0.1300439E+00
        -11   -1    0    0    0    0  0.00000000000E+00  0.00000000000E+00  0.45593999997E+02  0.45594000000E+02  0.51100000000E-03 0.  1.
         11   -1    0    0    0    0 -0.00000000000E+00 -0.00000000000E+00 -0.45593999997E+02  0.45594000000E+02  0.51100000000E-03 0. -1.
    9900012    2    1    2    0    0 -0.16975597855E+02  0.17165018616E+02  0.32716304040E+02  0.50528864045E+02  0.30000012750E+02 0.  0.
         12    1    1    2    0    0  0.16975597855E+02 -0.17165018616E+02 -0.32716304040E+02  0.40659135955E+02  0.00000000000E+00 0. -1.
         11    1    3    3    0    0 -0.10437716711E+02 -0.33063448782E+01  0.21973085096E+02  0.24549833308E+02  0.51100000000E-03 0. -1.
        -11    1    3    3    0    0 -0.74358020102E+01  0.76769811139E+01  0.62945488734E+01  0.12403569500E+02  0.51100000000E-03 0.  1.
         12    1    3    3    0    0  0.89792086656E+00  0.12794382380E+02  0.44486700709E+01  0.13575461236E+02  0.00000000000E+00 0. -1.
</event>
<event>
 7    1  0.2966651E-011  0.5052887E+02  0.7816164E-02  0.1300439E+00
        -11   -1    0    0    0    0  0.00000000000E+00  0.00000000000E+00  0.45593999997E+02  0.45594000000E+02  0.51100000000E-03 0.  1.
         11   -1    0    0    0    0 -0.00000000000E+00 -0.00000000000E+00 -0.45593999997E+02  0.45594000000E+02  0.51100000000E-03 0. -1.
    9900012    2    1    2    0    0 -0.82435184699E+00 -0.35366113531E+02  0.20043039577E+02  0.50528868459E+02  0.30000026167E+02 0.  0.
         12    1    1    2    0    0  0.82435184699E+00  0.35366113531E+02 -0.20043039577E+02  0.40659131541E+02  0.00000000000E+00 0. -1.
         11    1    3    3    0    0 -0.30814505627E+01 -0.17166146161E+02 -0.97585887442E+00  0.17467805025E+02  0.51100000000E-03 0. -1.
        -11    1    3    3    0    0  0.93770163294E+01 -0.14549893145E+02  0.16275708964E+02  0.23759767009E+02  0.51100000000E-03 0.  1.
        -12    1    3    3    0    0 -0.71199176137E+01 -0.36500742252E+01  0.47431894875E+01  0.93012964252E+01  0.00000000000E+00 0.  1.
</event>
<event>
 7    1  0.2966651E-011  0.5052886E+02  0.7816164E-02  0.1300439E+00
        -11   -1    0    0    0    0  0.00000000000E+00  0.00000000000E+00  0.45593999997E+02  0.45594000000E+02  0.51100000000E-03 0.  1.
         11   -1    0    0    0    0 -0.00000000000E+00 -0.00000000000E+00 -0.45593999997E+02  0.45594000000E+02  0.51100000000E-03 0. -1.
    9900012    2    1    2    0    0  0.79274575537E+01 -0.38770332371E+02  0.93371564526E+01  0.50528859010E+02  0.29999997446E+02 0.  0.
         12    1    1    2    0    0 -0.79274575537E+01  0.38770332371E+02 -0.93371564526E+01  0.40659140990E+02  0.00000000000E+00 0. -1.
         11    1    3    3    0    0  0.78015632617E+01  0.12122347257E+01  0.71314655959E+00  0.79273249355E+01  0.51100000000E-03 0. -1.
        -11    1    3    3    0    0  0.25738750259E+01 -0.38744952411E+02  0.89225511662E+01  0.39842290215E+02  0.51100000000E-03 0.  1.
        -12    1    3    3    0    0 -0.24479807340E+01 -0.12376146861E+01 -0.29854127317E+00  0.27592438596E+01  0.00000000000E+00 0.  1.
</event>
<event>
 7    1  0.2966651E-011  0.5052886E+02  0.7816164E-02  0.1300439E+00
        -11   -1    0    0    0    0  0.00000000000E+00  0.00000000000E+00  0.45593999997E+02  0.45594000000E+02  0.51100000000E-03 0. -1.
         11   -1    0    0    0    0 -0.00000000000E+00 -0.00000000000E+00 -0.45593999997E+02  0.45594000000E+02  0.51100000000E-03 0.  1.
    9900012    2    1    2    0    0 -0.27489305603E+02 -0.11436770667E+02 -0.27689419232E+02  0.50528861012E+02  0.30000003532E+02 0.  0.
         12    1    1    2    0    0  0.27489305603E+02  0.11436770667E+02  0.27689419232E+02  0.40659138988E+02  0.00000000000E+00 0. -1.
         11    1    3    3    0    0 -0.32479181315E+01 -0.43904630645E+01  0.17795721738E+01  0.57438676423E+01  0.51100000000E-03 0. -1.
        -11    1    3    3    0    0 -0.96314065596E+01 -0.44833271906E+01 -0.27918002647E+02  0.29871040944E+02  0.51100000000E-03 0.  1.
        -12    1    3    3    0    0 -0.14609980912E+02 -0.25629804122E+01 -0.15509887591E+01  0.14913952426E+02  0.00000000000E+00 0.  1.
</event>
<event>
 7    1  0.3062833E-011  0.5052886E+02  0.7816164E-02  0.1300439E+00
        -11   -1    0    0    0    0  0.00000000000E+00  0.00000000000E+00  0.45593999997E+02  0.45594000000E+02  0.51100000000E-03 0.  1.
         11   -1    0    0    0    0 -0.00000000000E+00 -0.00000000000E+00 -0.45593999997E+02  0.45594000000E+02  0.51100000000E-03 0. -1.
    9900012    2    1    2    0    0  0.26024388714E+02 -0.29452301831E+02 -0.10414352909E+02  0.50528860344E+02  0.30000001500E+02 0.  0.
         12    1    1    2    0    0 -0.26024388714E+02  0.29452301831E+02  0.10414352909E+02  0.40659139656E+02  0.00000000000E+00 0. -1.
         11    1    3    3    0    0 -0.44304855041E+01  0.43683490124E+00  0.42889913070E+00  0.44725810511E+01  0.51100000000E-03 0. -1.
        -11    1    3    3    0    0  0.21567019996E+02 -0.12347807544E+02 -0.84387508675E+01  0.26245327568E+02  0.51100000000E-03 0.  1.
        -12    1    3    3    0    0  0.88878542221E+01 -0.17541329188E+02 -0.24045011725E+01  0.19810951725E+02  0.00000000000E+00 0.  1.
</event>
<event>
 7    1  0.2966651E-011  0.5052884E+02  0.7816164E-02  0.1300439E+00
        -11   -1    0    0    0    0  0.00000000000E+00  0.00000000000E+00  0.45593999997E+02  0.45594000000E+02  0.51100000000E-03 0. -1.
         11   -1    0    0    0    0 -0.00000000000E+00 -0.00000000000E+00 -0.45593999997E+02  0.45594000000E+02  0.51100000000E-03 0.  1.
    9900012    2    1    2    0    0 -0.19186010817E+02 -0.35847623191E+02 -0.11075975111E+00  0.50528839074E+02  0.29999936850E+02 0.  0.
         12    1    1    2    0    0  0.19186010817E+02  0.35847623191E+02  0.11075975111E+00  0.40659160926E+02  0.00000000000E+00 0. -1.
         11    1    3    3    0    0 -0.93150647655E+00 -0.10822314986E+01 -0.94958143485E+01  0.96025735995E+01  0.51100000000E-03 0. -1.
        -11    1    3    3    0    0 -0.15523244683E+02 -0.24399488441E+02  0.50176250144E+01  0.29351025923E+02  0.51100000000E-03 0.  1.
         12    1    3    3    0    0 -0.27312596574E+01 -0.10365903251E+02  0.43674295829E+01  0.11575239552E+02  0.00000000000E+00 0. -1.
</event>
<event>
 7    1  0.2966651E-011  0.5052885E+02  0.7816164E-02  0.1300439E+00
        -11   -1    0    0    0    0  0.00000000000E+00  0.00000000000E+00  0.45593999997E+02  0.45594000000E+02  0.51100000000E-03 0.  1.
         11   -1    0    0    0    0 -0.00000000000E+00 -0.00000000000E+00 -0.45593999997E+02  0.45594000000E+02  0.51100000000E-03 0. -1.
    9900012    2    1    2    0    0  0.33556086542E+02 -0.33583039001E+01  0.22712924719E+02  0.50528854677E+02  0.29999984276E+02 0.  0.
         12    1    1    2    0    0 -0.33556086542E+02  0.33583039001E+01 -0.22712924719E+02  0.40659145323E+02  0.00000000000E+00 0. -1.
         11    1    3    3    0    0  0.64241976582E+01  0.44769924746E+01 -0.38533054454E+01  0.87270693985E+01  0.51100000000E-03 0. -1.
        -11    1    3    3    0    0  0.18165259312E+02 -0.12529272613E+02  0.19603972330E+02  0.29517368607E+02  0.51100000000E-03 0.  1.
        -12    1    3    3    0    0  0.89666295723E+01  0.46939762387E+01  0.69622578343E+01  0.12284416672E+02  0.00000000000E+00 0.  1.
</event>
<event>
 7    1  0.2966651E-011  0.5052886E+02  0.7816164E-02  0.1300439E+00
        -11   -1    0    0    0    0  0.00000000000E+00  0.00000000000E+00  0.45593999997E+02  0.45594000000E+02  0.51100000000E-03 0. -1.
         11   -1    0    0    0    0 -0.00000000000E+00 -0.00000000000E+00 -0.45593999997E+02  0.45594000000E+02  0.51100000000E-03 0.  1.
    9900012    2    1    2    0    0  0.34481494234E+02 -0.21265309557E+02 -0.34610788599E+01  0.50528857092E+02  0.29999991617E+02 0.  0.
         12    1    1    2    0    0 -0.34481494234E+02  0.21265309557E+02  0.34610788599E+01  0.40659142908E+02  0.00000000000E+00 0. -1.
         11    1    3    3    0    0 -0.17926136701E+01 -0.44485772208E+01 -0.72709697099E+01  0.87103561261E+01  0.51100000000E-03 0. -1.
        -11    1    3    3    0    0  0.29560957763E+02 -0.13158776262E+02 -0.16886101851E+01  0.32401466343E+02  0.51100000000E-03 0.  1.
         12    1    3    3    0    0  0.67131501405E+01 -0.36579560745E+01  0.54985010351E+01  0.94170346227E+01  0.00000000000E+00 0. -1.
</event>
<event>
 7    1  0.2966651E-011  0.5052885E+02  0.7816164E-02  0.1300439E+00
        -11   -1    0    0    0    0  0.00000000000E+00  0.00000000000E+00  0.45593999997E+02  0.45594000000E+02  0.51100000000E-03 0.  1.
         11   -1    0    0    0    0 -0.00000000000E+00 -0.00000000000E+00 -0.45593999997E+02  0.45594000000E+02  0.51100000000E-03 0. -1.
    9900012    2    1    2    0    0 -0.43958614442E+01  0.33115387279E+02  0.23177871891E+02  0.50528853208E+02  0.29999979811E+02 0.  0.
         12    1    1    2    0    0  0.43958614442E+01 -0.33115387279E+02 -0.23177871891E+02  0.40659146792E+02  0.00000000000E+00 0. -1.
         11    1    3    3    0    0  0.68007755359E+01  0.15639478850E+02 -0.11885016196E+00  0.17054558693E+02  0.51100000000E-03 0. -1.
        -11    1    3    3    0    0 -0.48290357008E+01  0.62755788864E+01  0.17771225008E+02  0.19455562564E+02  0.51100000000E-03 0.  1.
         12    1    3    3    0    0 -0.63676012793E+01  0.11200329543E+02  0.55254970446E+01  0.14018731951E+02  0.00000000000E+00 0. -1.
</event>
<event>
 7    1  0.2966651E-011  0.5052885E+02  0.7816164E-02  0.1300439E+00
        -11   -1    0    0    0    0  0.00000000000E+00  0.00000000000E+00  0.45593999997E+02  0.45594000000E+02  0.51100000000E-03 0.  1.
         11   -1    0    0    0    0 -0.00000000000E+00 -0.00000000000E+00 -0.45593999997E+02  0.45594000000E+02  0.51100000000E-03 0. -1.
    9900012    2    1    2    0    0  0.23945533018E+02 -0.31790966577E+02 -0.83133606565E+01  0.50528854991E+02  0.29999985232E+02 0.  0.
         12    1    1    2    0    0 -0.23945533018E+02  0.31790966577E+02  0.83133606565E+01  0.40659145009E+02  0.00000000000E+00 0. -1.
         11    1    3    3    0    0  0.10980614399E+02  0.12191418866E+01 -0.76062844041E+01  0.13413268140E+02  0.51100000000E-03 0. -1.
        -11    1    3    3    0    0  0.95363608690E+01 -0.11614515139E+02 -0.30052698775E+01  0.15325494702E+02  0.51100000000E-03 0.  1.
         12    1    3    3    0    0  0.34285577507E+01 -0.21395593324E+02  0.22981936251E+01  0.21790092149E+02  0.00000000000E+00 0. -1.
</event>
<event>
 7    1  0.2966651E-011  0.5052886E+02  0.7816164E-02  0.1300439E+00
        -11   -1    0    0    0    0  0.00000000000E+00  0.00000000000E+00  0.45593999997E+02  0.45594000000E+02  0.51100000000E-03 0.  1.
         11   -1    0    0    0    0 -0.00000000000E+00 -0.00000000000E+00 -0.45593999997E+02  0.45594000000E+02  0.51100000000E-03 0. -1.
    9900012    2    1    2    0    0 -0.25037910529E+02 -0.80618516144E+01  0.31004441793E+02  0.50528858027E+02  0.29999994458E+02 0.  0.
         12    1    1    2    0    0  0.25037910529E+02  0.80618516144E+01 -0.31004441793E+02  0.40659141973E+02  0.00000000000E+00 0. -1.
         11    1    3    3    0    0  0.44576652653E+01  0.18127358248E+01  0.12184391655E+01  0.49640089694E+01  0.51100000000E-03 0. -1.
        -11    1    3    3    0    0 -0.11512416543E+02 -0.77911479781E+01  0.21623563383E+02  0.25706345814E+02  0.51100000000E-03 0.  1.
        -12    1    3    3    0    0 -0.17983159251E+02 -0.20834394611E+01  0.81624392441E+01  0.19858503243E+02  0.00000000000E+00 0.  1.
</event>
<event>
 7    1  0.2966651E-011  0.5052887E+02  0.7816164E-02  0.1300439E+00
        -11   -1    0    0    0    0  0.00000000000E+00  0.00000000000E+00  0.45593999997E+02  0.45594000000E+02  0.51100000000E-03 0.  1.
         11   -1    0    0    0    0 -0.00000000000E+00 -0.00000000000E+00 -0.45593999997E+02  0.45594000000E+02  0.51100000000E-03 0. -1.
    9900012    2    1    2    0    0 -0.19851811877E+02  0.91304540854E+01  0.34288560823E+02  0.50528867817E+02  0.30000024215E+02 0.  0.
         12    1    1    2    0    0  0.19851811877E+02 -0.91304540854E+01 -0.34288560823E+02  0.40659132183E+02  0.00000000000E+00 0. -1.
         11    1    3    3    0    0 -0.72937179730E+01 -0.19766463786E+01 -0.40797188333E+01  0.85877563307E+01  0.51100000000E-03 0. -1.
        -11    1    3    3    0    0 -0.43669871454E+01  0.38520198734E+01  0.16302470761E+02  0.17311244525E+02  0.51100000000E-03 0.  1.
         12    1    3    3    0    0 -0.81911067582E+01  0.72550805906E+01  0.22065808895E+02  0.24629866961E+02  0.00000000000E+00 0. -1.
</event>
<event>
 7    1  0.2966651E-011  0.5052887E+02  0.7816164E-02  0.1300439E+00
        -11   -1    0    0    0    0  0.00000000000E+00  0.00000000000E+00  0.45593999997E+02  0.45594000000E+02  0.51100000000E-03 0. -1.
         11   -1    0    0    0    0 -0.00000000000E+00 -0.00000000000E+00 -0.45593999997E+02  0.45594000000E+02  0.51100000000E-03 0.  1.
    9900012    2    1    2    0    0 -0.37017108967E+02 -0.27798123137E+01 -0.16588278235E+02  0.50528872027E+02  0.30000037013E+02 0.  0.
         12    1    1    2    0    0  0.37017108967E+02  0.27798123137E+01  0.16588278235E+02  0.40659127973E+02  0.00000000000E+00 0. -1.
         11    1    3    3    0    0  0.10182385199E+01 -0.24858681725E+01  0.14970692890E+01  0.30753157516E+01  0.51100000000E-03 0. -1.
        -11    1    3    3    0    0 -0.17919475380E+02  0.81153660756E+01 -0.16354756651E+02  0.25582119338E+02  0.51100000000E-03 0.  1.
        -12    1    3    3    0    0 -0.20115872107E+02 -0.84093102168E+01 -0.17305908724E+01  0.21871436937E+02  0.00000000000E+00 0.  1.
</event>
<event>
 7    1  0.2966651E-011  0.5052887E+02  0.7816164E-02  0.1300439E+00
        -11   -1    0    0    0    0  0.00000000000E+00  0.00000000000E+00  0.45593999997E+02  0.45594000000E+02  0.51100000000E-03 0.  1.
         11   -1    0    0    0    0 -0.00000000000E+00 -0.00000000000E+00 -0.45593999997E+02  0.45594000000E+02  0.51100000000E-03 0. -1.
    9900012    2    1    2    0    0  0.26175661889E+02 -0.17651572647E+02  0.25620732062E+02  0.50528865680E+02  0.30000017722E+02 0.  0.
         12    1    1    2    0    0 -0.26175661889E+02  0.17651572647E+02 -0.25620732062E+02  0.40659134320E+02  0.00000000000E+00 0. -1.
         11    1    3    3    0    0  0.43357673788E+01  0.23916335357E+01 -0.32754064771E+00  0.49624664099E+01  0.51100000000E-03 0.  1.
        -11    1    3    3    0    0  0.15235289279E+02 -0.19969076518E+02  0.78732227404E+01  0.26322342088E+02  0.51100000000E-03 0. -1.
        -12    1    3    3    0    0  0.66046052305E+01 -0.74129664762E-01  0.18075049970E+02  0.19244057183E+02  0.00000000000E+00 0.  1.
</event>
<event>
 7    1  0.2966651E-011  0.5052883E+02  0.7816164E-02  0.1300439E+00
        -11   -1    0    0    0    0  0.00000000000E+00  0.00000000000E+00  0.45593999997E+02  0.45594000000E+02  0.51100000000E-03 0.  1.
         11   -1    0    0    0    0 -0.00000000000E+00 -0.00000000000E+00 -0.45593999997E+02  0.45594000000E+02  0.51100000000E-03 0. -1.
    9900012    2    1    2    0    0 -0.18124810411E+02 -0.14540542869E+02  0.33365131645E+02  0.50528829460E+02  0.29999907626E+02 0.  0.
         12    1    1    2    0    0  0.18124810411E+02  0.14540542869E+02 -0.33365131645E+02  0.40659170540E+02  0.00000000000E+00 0. -1.
         11    1    3    3    0    0  0.45678447979E+01 -0.63075861146E+01  0.62959016735E+01  0.10014450900E+02  0.51100000000E-03 0. -1.
        -11    1    3    3    0    0 -0.17915953457E+02 -0.65768136223E+01  0.78415093679E+01  0.20633107743E+02  0.51100000000E-03 0.  1.
        -12    1    3    3    0    0 -0.47767017511E+01 -0.16561431320E+01  0.19227720603E+02  0.19881270817E+02  0.00000000000E+00 0.  1.
</event>
<event>
 7    1  0.2966651E-011  0.5052885E+02  0.7816164E-02  0.1300439E+00
        -11   -1    0    0    0    0  0.00000000000E+00  0.00000000000E+00  0.45593999997E+02  0.45594000000E+02  0.51100000000E-03 0. -1.
         11   -1    0    0    0    0 -0.00000000000E+00 -0.00000000000E+00 -0.45593999997E+02  0.45594000000E+02  0.51100000000E-03 0.  1.
    9900012    2    1    2    0    0 -0.20780072092E+02 -0.30292972541E+02 -0.17426719401E+02  0.50528854281E+02  0.29999983073E+02 0.  0.
         12    1    1    2    0    0  0.20780072092E+02  0.30292972541E+02  0.17426719401E+02  0.40659145719E+02  0.00000000000E+00 0. -1.
         11    1    3    3    0    0 -0.20614907614E+02 -0.92780654616E+01 -0.13962286144E+02  0.26570704719E+02  0.51100000000E-03 0. -1.
        -11    1    3    3    0    0 -0.22921029905E+01 -0.41169940129E+01  0.31713152238E+01  0.56798429848E+01  0.51100000000E-03 0.  1.
         12    1    3    3    0    0  0.21269385127E+01 -0.16897913066E+02 -0.66357484817E+01  0.18278306577E+02  0.00000000000E+00 0. -1.
</event>
<event>
 7    1  0.2966651E-011  0.5052886E+02  0.7816164E-02  0.1300439E+00
        -11   -1    0    0    0    0  0.00000000000E+00  0.00000000000E+00  0.45593999997E+02  0.45594000000E+02  0.51100000000E-03 0.  1.
         11   -1    0    0    0    0 -0.00000000000E+00 -0.00000000000E+00 -0.45593999997E+02  0.45594000000E+02  0.51100000000E-03 0. -1.
    9900012    2    1    2    0    0 -0.26577753790E+02 -0.18957855246E+02  0.24236103275E+02  0.50528856207E+02  0.29999988926E+02 0.  0.
         12    1    1    2    0    0  0.26577753790E+02  0.18957855246E+02 -0.24236103275E+02  0.40659143793E+02  0.00000000000E+00 0. -1.
         11    1    3    3    0    0 -0.18157961601E+02 -0.10343631627E+02  0.14556656432E+02  0.25467597678E+02  0.51100000000E-03 0.  1.
        -11    1    3    3    0    0 -0.21155589549E+00  0.56909102874E+01  0.57791687736E+01  0.81135693607E+01  0.51100000000E-03 0. -1.
         12    1    3    3    0    0 -0.82082362940E+01 -0.14305133906E+02  0.39002780692E+01  0.16947689168E+02  0.00000000000E+00 0. -1.
</event>
<event>
 7    1  0.2966651E-011  0.5052886E+02  0.7816164E-02  0.1300439E+00
        -11   -1    0    0    0    0  0.00000000000E+00  0.00000000000E+00  0.45593999997E+02  0.45594000000E+02  0.51100000000E-03 0.  1.
         11   -1    0    0    0    0 -0.00000000000E+00 -0.00000000000E+00 -0.45593999997E+02  0.45594000000E+02  0.51100000000E-03 0. -1.
    9900012    2    1    2    0    0  0.16624464620E+02 -0.35714029520E+02  0.10064832354E+02  0.50528861066E+02  0.30000003698E+02 0.  0.
         12    1    1    2    0    0 -0.16624464620E+02  0.35714029520E+02 -0.10064832354E+02  0.40659138934E+02  0.00000000000E+00 0. -1.
         11    1    3    3    0    0  0.64268830730E+01 -0.67978589721E+00  0.48079283846E+01  0.80550053081E+01  0.51100000000E-03 0. -1.
        -11    1    3    3    0    0  0.15044503072E+01 -0.31184936131E+02  0.86199801004E+01  0.32389314123E+02  0.51100000000E-03 0.  1.
        -12    1    3    3    0    0  0.86931312399E+01 -0.38493074927E+01 -0.33630761306E+01  0.10084541635E+02  0.00000000000E+00 0.  1.
</event>
<event>
 7    1  0.2966651E-011  0.5052883E+02  0.7816164E-02  0.1300439E+00
        -11   -1    0    0    0    0  0.00000000000E+00  0.00000000000E+00  0.45593999997E+02  0.45594000000E+02  0.51100000000E-03 0.  1.
         11   -1    0    0    0    0 -0.00000000000E+00 -0.00000000000E+00 -0.45593999997E+02  0.45594000000E+02  0.51100000000E-03 0. -1.
    9900012    2    1    2    0    0  0.67642434138E+01  0.32561353492E+02  0.23391696738E+02  0.50528828754E+02  0.29999905479E+02 0.  0.
         12    1    1    2    0    0 -0.67642434138E+01 -0.32561353492E+02 -0.23391696738E+02  0.40659171246E+02  0.00000000000E+00 0. -1.
         11    1    3    3    0    0  0.58044035347E+01  0.45740796764E+00  0.11135704305E+02  0.12565995109E+02  0.51100000000E-03 0. -1.
        -11    1    3    3    0    0  0.60074073899E+01  0.28365465906E+02  0.12725018250E+02  0.31664091482E+02  0.51100000000E-03 0.  1.
        -12    1    3    3    0    0 -0.50475675108E+01  0.37384796174E+01 -0.46902581631E+00  0.62987421635E+01  0.00000000000E+00 0.  1.
</event>
<event>
 7    1  0.2966651E-011  0.5052886E+02  0.7816164E-02  0.1300439E+00
        -11   -1    0    0    0    0  0.00000000000E+00  0.00000000000E+00  0.45593999997E+02  0.45594000000E+02  0.51100000000E-03 0. -1.
         11   -1    0    0    0    0 -0.00000000000E+00 -0.00000000000E+00 -0.45593999997E+02  0.45594000000E+02  0.51100000000E-03 0.  1.
    9900012    2    1    2    0    0  0.24923520409E+02 -0.29880355385E+02 -0.11796097432E+02  0.50528862993E+02  0.30000009553E+02 0.  0.
         12    1    1    2    0    0 -0.24923520409E+02  0.29880355385E+02  0.11796097432E+02  0.40659137007E+02  0.00000000000E+00 0. -1.
         11    1    3    3    0    0  0.21782306941E+02 -0.74198981911E+01 -0.14256908379E+02  0.27069969000E+02  0.51100000000E-03 0. -1.
        -11    1    3    3    0    0 -0.60277060927E+00 -0.63653831164E+01  0.26795935188E+01  0.69326514634E+01  0.51100000000E-03 0.  1.
         12    1    3    3    0    0  0.37439840771E+01 -0.16095074078E+02 -0.21878257203E+00  0.16526242530E+02  0.00000000000E+00 0. -1.
</event>
<event>
 7    1  0.2966651E-011  0.5052886E+02  0.7816164E-02  0.1300439E+00
        -11   -1    0    0    0    0  0.00000000000E+00  0.00000000000E+00  0.45593999997E+02  0.45594000000E+02  0.51100000000E-03 0.  1.
         11   -1    0    0    0    0 -0.00000000000E+00 -0.00000000000E+00 -0.45593999997E+02  0.45594000000E+02  0.51100000000E-03 0. -1.
    9900012    2    1    2    0    0  0.33660346920E+02 -0.12707742219E+02 -0.18938323472E+02  0.50528858801E+02  0.29999996812E+02 0.  0.
         12    1    1    2    0    0 -0.33660346920E+02  0.12707742219E+02  0.18938323472E+02  0.40659141199E+02  0.00000000000E+00 0. -1.
         11    1    3    3    0    0  0.26610401553E+01 -0.12908277910E+01  0.49002154734E+01  0.57235900483E+01  0.51100000000E-03 0. -1.
        -11    1    3    3    0    0  0.21542281819E+02 -0.11500598784E+02 -0.25383010560E+02  0.35222590815E+02  0.51100000000E-03 0.  1.
        -12    1    3    3    0    0  0.94570249456E+01  0.83684356393E-01  0.15444716147E+01  0.95826779379E+01  0.00000000000E+00 0.  1.
</event>
<event>
 7    1  0.2966651E-011  0.5052886E+02  0.7816164E-02  0.1300439E+00
        -11   -1    0    0    0    0  0.00000000000E+00  0.00000000000E+00  0.45593999997E+02  0.45594000000E+02  0.51100000000E-03 0. -1.
         11   -1    0    0    0    0 -0.00000000000E+00 -0.00000000000E+00 -0.45593999997E+02  0.45594000000E+02  0.51100000000E-03 0.  1.
    9900012    2    1    2    0    0  0.21453338921E+02  0.30519461808E+02  0.16170419485E+02  0.50528858762E+02  0.29999996692E+02 0.  0.
         12    1    1    2    0    0 -0.21453338921E+02 -0.30519461808E+02 -0.16170419485E+02  0.40659141238E+02  0.00000000000E+00 0. -1.
         11    1    3    3    0    0 -0.44351900273E+01  0.55535751340E+01  0.10640361466E+02  0.12795718023E+02  0.51100000000E-03 0. -1.
        -11    1    3    3    0    0  0.11613511385E+02  0.18014641677E+02  0.36970818697E+01  0.21750158069E+02  0.51100000000E-03 0.  1.
         12    1    3    3    0    0  0.14275017563E+02  0.69512449977E+01  0.18329761490E+01  0.15982982669E+02  0.00000000000E+00 0. -1.
</event>
<event>
 7    1  0.2966651E-011  0.5052886E+02  0.7816164E-02  0.1300439E+00
        -11   -1    0    0    0    0  0.00000000000E+00  0.00000000000E+00  0.45593999997E+02  0.45594000000E+02  0.51100000000E-03 0.  1.
         11   -1    0    0    0    0 -0.00000000000E+00 -0.00000000000E+00 -0.45593999997E+02  0.45594000000E+02  0.51100000000E-03 0. -1.
    9900012    2    1    2    0    0 -0.14722305918E+02 -0.24458902110E+02  0.28951364870E+02  0.50528859431E+02  0.29999998725E+02 0.  0.
         12    1    1    2    0    0  0.14722305918E+02  0.24458902110E+02 -0.28951364870E+02  0.40659140569E+02  0.00000000000E+00 0. -1.
         11    1    3    3    0    0 -0.28048166814E+01 -0.17239164052E+02  0.30511849984E+02  0.35157200735E+02  0.51100000000E-03 0. -1.
        -11    1    3    3    0    0 -0.71248506384E+01 -0.51644268430E+01  0.20420354246E+01  0.90335325412E+01  0.51100000000E-03 0.  1.
         12    1    3    3    0    0 -0.47926385980E+01 -0.20553112149E+01 -0.36025205378E+01  0.63381261542E+01  0.00000000000E+00 0. -1.
</event>
<event>
 7    1  0.2966651E-011  0.5052886E+02  0.7816164E-02  0.1300439E+00
        -11   -1    0    0    0    0  0.00000000000E+00  0.00000000000E+00  0.45593999997E+02  0.45594000000E+02  0.51100000000E-03 0.  1.
         11   -1    0    0    0    0 -0.00000000000E+00 -0.00000000000E+00 -0.45593999997E+02  0.45594000000E+02  0.51100000000E-03 0. -1.
    9900012    2    1    2    0    0 -0.27244302599E+02  0.10619090322E+02  0.28251520954E+02  0.50528861549E+02  0.30000005163E+02 0.  0.
         12    1    1    2    0    0  0.27244302599E+02 -0.10619090322E+02 -0.28251520954E+02  0.40659138451E+02  0.00000000000E+00 0. -1.
         11    1    3    3    0    0 -0.12827841871E+02  0.64435535919E+01  0.10673730997E+01  0.14394866987E+02  0.51100000000E-03 0. -1.
        -11    1    3    3    0    0 -0.92712160813E+01 -0.68242845035E+01  0.15254504975E+02  0.19110892939E+02  0.51100000000E-03 0.  1.
         12    1    3    3    0    0 -0.51452446466E+01  0.10999821234E+02  0.11929642879E+02  0.17023101623E+02  0.00000000000E+00 0. -1.
</event>
<event>
 7    1  0.2966651E-011  0.5052886E+02  0.7816164E-02  0.1300439E+00
        -11   -1    0    0    0    0  0.00000000000E+00  0.00000000000E+00  0.45593999997E+02  0.45594000000E+02  0.51100000000E-03 0.  1.
         11   -1    0    0    0    0 -0.00000000000E+00 -0.00000000000E+00 -0.45593999997E+02  0.45594000000E+02  0.51100000000E-03 0. -1.
    9900012    2    1    2    0    0  0.33424781987E+02 -0.13973543354E+02  0.18457776290E+02  0.50528862401E+02  0.30000007755E+02 0.  0.
         12    1    1    2    0    0 -0.33424781987E+02  0.13973543354E+02 -0.18457776290E+02  0.40659137599E+02  0.00000000000E+00 0. -1.
         11    1    3    3    0    0  0.10383979872E+02 -0.34713525360E+01 -0.45206627856E+00  0.10958179164E+02  0.51100000000E-03 0. -1.
        -11    1    3    3    0    0 -0.40439479627E+01 -0.45869679629E+01  0.72786546670E+01  0.95064506646E+01  0.51100000000E-03 0.  1.
        -12    1    3    3    0    0  0.27084750077E+02 -0.59152228551E+01  0.11631187901E+02  0.30064232573E+02  0.00000000000E+00 0.  1.
</event>
<event>
 7    1  0.2966651E-011  0.5052885E+02  0.7816164E-02  0.1300439E+00
        -11   -1    0    0    0    0  0.00000000000E+00  0.00000000000E+00  0.45593999997E+02  0.45594000000E+02  0.51100000000E-03 0.  1.
         11   -1    0    0    0    0 -0.00000000000E+00 -0.00000000000E+00 -0.45593999997E+02  0.45594000000E+02  0.51100000000E-03 0. -1.
    9900012    2    1    2    0    0 -0.18526209146E+02  0.36053266405E+02  0.31793024244E+01  0.50528850873E+02  0.29999972713E+02 0.  0.
         12    1    1    2    0    0  0.18526209146E+02 -0.36053266405E+02 -0.31793024244E+01  0.40659149127E+02  0.00000000000E+00 0. -1.
         11    1    3    3    0    0 -0.47056004959E+01  0.21522285159E+02  0.96377855897E+01  0.24046586990E+02  0.51100000000E-03 0.  1.
        -11    1    3    3    0    0 -0.14815382859E+02  0.16745371120E+02 -0.34605785783E+01  0.22624734862E+02  0.51100000000E-03 0. -1.
         12    1    3    3    0    0  0.99477420827E+00 -0.22143898741E+01 -0.29979045870E+01  0.38575290216E+01  0.00000000000E+00 0. -1.
</event>
<event>
 7    1  0.2966651E-011  0.5052887E+02  0.7816164E-02  0.1300439E+00
        -11   -1    0    0    0    0  0.00000000000E+00  0.00000000000E+00  0.45593999997E+02  0.45594000000E+02  0.51100000000E-03 0.  1.
         11   -1    0    0    0    0 -0.00000000000E+00 -0.00000000000E+00 -0.45593999997E+02  0.45594000000E+02  0.51100000000E-03 0. -1.
    9900012    2    1    2    0    0  0.40090936205E+02  0.13992226008E+01 -0.66275348099E+01  0.50528865634E+02  0.30000017582E+02 0.  0.
         12    1    1    2    0    0 -0.40090936205E+02 -0.13992226008E+01  0.66275348099E+01  0.40659134366E+02  0.00000000000E+00 0. -1.
         11    1    3    3    0    0  0.18571553808E+02  0.36990368918E+01 -0.11263149092E+02  0.22032794024E+02  0.51100000000E-03 0. -1.
        -11    1    3    3    0    0 -0.15552193427E+01  0.25846312384E+01  0.38581124198E+01  0.48973520955E+01  0.51100000000E-03 0.  1.
        -12    1    3    3    0    0  0.23074601740E+02 -0.48844455294E+01  0.77750186245E+00  0.23598719515E+02  0.00000000000E+00 0.  1.
</event>
<event>
 7    1  0.2966651E-011  0.5052885E+02  0.7816164E-02  0.1300439E+00
        -11   -1    0    0    0    0  0.00000000000E+00  0.00000000000E+00  0.45593999997E+02  0.45594000000E+02  0.51100000000E-03 0. -1.
         11   -1    0    0    0    0 -0.00000000000E+00 -0.00000000000E+00 -0.45593999997E+02  0.45594000000E+02  0.51100000000E-03 0.  1.
    9900012    2    1    2    0    0 -0.22629100121E+02 -0.10594600470E+02 -0.32075613845E+02  0.50528846849E+02  0.29999960483E+02 0.  0.
         12    1    1    2    0    0  0.22629100121E+02  0.10594600470E+02  0.32075613845E+02  0.40659153151E+02  0.00000000000E+00 0. -1.
         11    1    3    3    0    0 -0.63435689591E+01  0.53342029833E+01 -0.14058848754E+01  0.84066105625E+01  0.51100000000E-03 0. -1.
        -11    1    3    3    0    0 -0.13038320178E+02 -0.14718863128E+02 -0.11789721541E+02  0.22926845817E+02  0.51100000000E-03 0.  1.
        -12    1    3    3    0    0 -0.32472109835E+01 -0.12099403255E+01 -0.18880007429E+02  0.19195390470E+02  0.00000000000E+00 0.  1.
</event>
<event>
 7    1  0.2966651E-011  0.5052886E+02  0.7816164E-02  0.1300439E+00
        -11   -1    0    0    0    0  0.00000000000E+00  0.00000000000E+00  0.45593999997E+02  0.45594000000E+02  0.51100000000E-03 0.  1.
         11   -1    0    0    0    0 -0.00000000000E+00 -0.00000000000E+00 -0.45593999997E+02  0.45594000000E+02  0.51100000000E-03 0. -1.
    9900012    2    1    2    0    0  0.14273735897E+02  0.36032049323E+02  0.12292975010E+02  0.50528863887E+02  0.30000012269E+02 0.  0.
         12    1    1    2    0    0 -0.14273735897E+02 -0.36032049323E+02 -0.12292975010E+02  0.40659136113E+02  0.00000000000E+00 0. -1.
         11    1    3    3    0    0 -0.15438879270E+01  0.85712037747E+01 -0.64137849229E+01  0.10815995626E+02  0.51100000000E-03 0. -1.
        -11    1    3    3    0    0  0.11504266379E+02  0.28355325419E+02  0.15838114410E+02  0.34456037103E+02  0.51100000000E-03 0.  1.
        -12    1    3    3    0    0  0.43133574452E+01 -0.89447986989E+00  0.28686455227E+01  0.52568311579E+01  0.00000000000E+00 0.  1.
</event>
<event>
 7    1  0.2966651E-011  0.5052886E+02  0.7816164E-02  0.1300439E+00
        -11   -1    0    0    0    0  0.00000000000E+00  0.00000000000E+00  0.45593999997E+02  0.45594000000E+02  0.51100000000E-03 0.  1.
         11   -1    0    0    0    0 -0.00000000000E+00 -0.00000000000E+00 -0.45593999997E+02  0.45594000000E+02  0.51100000000E-03 0. -1.
    9900012    2    1    2    0    0  0.37584804149E+01 -0.39652310431E+02 -0.81690916109E+01  0.50528856437E+02  0.29999989625E+02 0.  0.
         12    1    1    2    0    0 -0.37584804149E+01  0.39652310431E+02  0.81690916109E+01  0.40659143563E+02  0.00000000000E+00 0. -1.
         11    1    3    3    0    0 -0.27849994206E+01 -0.14647806162E+02 -0.14360913174E+02  0.20701455856E+02  0.51100000000E-03 0. -1.
        -11    1    3    3    0    0 -0.89631394298E+00 -0.18352966924E+02  0.73302866549E+01  0.19783019898E+02  0.51100000000E-03 0.  1.
         12    1    3    3    0    0  0.74397937785E+01 -0.66515373453E+01 -0.11384650922E+01  0.10044380682E+02  0.00000000000E+00 0. -1.
</event>
<event>
 7    1  0.2966651E-011  0.5052886E+02  0.7816164E-02  0.1300439E+00
        -11   -1    0    0    0    0  0.00000000000E+00  0.00000000000E+00  0.45593999997E+02  0.45594000000E+02  0.51100000000E-03 0.  1.
         11   -1    0    0    0    0 -0.00000000000E+00 -0.00000000000E+00 -0.45593999997E+02  0.45594000000E+02  0.51100000000E-03 0. -1.
    9900012    2    1    2    0    0 -0.21314471449E+02  0.25819722459E+02  0.23069472962E+02  0.50528863957E+02  0.30000012483E+02 0.  0.
         12    1    1    2    0    0  0.21314471449E+02 -0.25819722459E+02 -0.23069472962E+02  0.40659136043E+02  0.00000000000E+00 0. -1.
         11    1    3    3    0    0 -0.16794408927E+00 -0.38129109733E+01  0.18629387649E+01  0.42470032270E+01  0.51100000000E-03 0. -1.
        -11    1    3    3    0    0 -0.13541482639E+02  0.27965778402E+02  0.10009790061E+02  0.32644331989E+02  0.51100000000E-03 0.  1.
        -12    1    3    3    0    0 -0.76050447208E+01  0.16668550307E+01  0.11196744136E+02  0.13637528740E+02  0.00000000000E+00 0.  1.
</event>
<event>
 7    1  0.2966651E-011  0.5052886E+02  0.7816164E-02  0.1300439E+00
        -11   -1    0    0    0    0  0.00000000000E+00  0.00000000000E+00  0.45593999997E+02  0.45594000000E+02  0.51100000000E-03 0.  1.
         11   -1    0    0    0    0 -0.00000000000E+00 -0.00000000000E+00 -0.45593999997E+02  0.45594000000E+02  0.51100000000E-03 0. -1.
    9900012    2    1    2    0    0  0.52428549232E+01 -0.39846805565E+02 -0.61571074390E+01  0.50528863100E+02  0.30000009878E+02 0.  0.
         12    1    1    2    0    0 -0.52428549232E+01  0.39846805565E+02  0.61571074390E+01  0.40659136900E+02  0.00000000000E+00 0. -1.
         11    1    3    3    0    0  0.61781713437E+01  0.27445273661E+01  0.15103975238E+01  0.69270146929E+01  0.51100000000E-03 0. -1.
        -11    1    3    3    0    0  0.93996644311E+00 -0.37119674590E+02 -0.63698757108E+01  0.37673984332E+02  0.51100000000E-03 0.  1.
         12    1    3    3    0    0 -0.18752828637E+01 -0.54716583405E+01 -0.12976292520E+01  0.59278640748E+01  0.00000000000E+00 0. -1.
</event>
<event>
 7    1  0.2966651E-011  0.5052886E+02  0.7816164E-02  0.1300439E+00
        -11   -1    0    0    0    0  0.00000000000E+00  0.00000000000E+00  0.45593999997E+02  0.45594000000E+02  0.51100000000E-03 0. -1.
         11   -1    0    0    0    0 -0.00000000000E+00 -0.00000000000E+00 -0.45593999997E+02  0.45594000000E+02  0.51100000000E-03 0.  1.
    9900012    2    1    2    0    0 -0.51420635191E+01 -0.24453183245E+02 -0.32074395735E+02  0.50528857733E+02  0.29999993566E+02 0.  0.
         12    1    1    2    0    0  0.51420635191E+01  0.24453183245E+02  0.32074395735E+02  0.40659142267E+02  0.00000000000E+00 0. -1.
         11    1    3    3    0    0  0.52547044595E+01  0.18960588880E+01  0.19354611298E+00  0.55896707078E+01  0.51100000000E-03 0. -1.
        -11    1    3    3    0    0 -0.48079331420E+01 -0.21508078778E+02 -0.29960725866E+02  0.37193531272E+02  0.51100000000E-03 0.  1.
         12    1    3    3    0    0 -0.55888348365E+01 -0.48411633553E+01 -0.23072159828E+01  0.77456557537E+01  0.00000000000E+00 0. -1.
</event>
<event>
 7    1  0.2966651E-011  0.5052886E+02  0.7816164E-02  0.1300439E+00
        -11   -1    0    0    0    0  0.00000000000E+00  0.00000000000E+00  0.45593999997E+02  0.45594000000E+02  0.51100000000E-03 0. -1.
         11   -1    0    0    0    0 -0.00000000000E+00 -0.00000000000E+00 -0.45593999997E+02  0.45594000000E+02  0.51100000000E-03 0.  1.
    9900012    2    1    2    0    0  0.13191936820E+02 -0.15472753523E+02 -0.35209833457E+02  0.50528859936E+02  0.30000000261E+02 0.  0.
         12    1    1    2    0    0 -0.13191936820E+02  0.15472753523E+02  0.35209833457E+02  0.40659140064E+02  0.00000000000E+00 0. -1.
         11    1    3    3    0    0  0.76221626042E+01 -0.14848790788E+02 -0.21333294521E+02  0.27086775482E+02  0.51100000000E-03 0.  1.
        -11    1    3    3    0    0 -0.17777750470E+00 -0.46501665091E+01  0.27429467559E+01  0.54017969761E+01  0.51100000000E-03 0. -1.
        -12    1    3    3    0    0  0.57475517207E+01  0.40262037738E+01 -0.16619485692E+02  0.18040287478E+02  0.00000000000E+00 0.  1.
</event>
<event>
 7    1  0.2966651E-011  0.5052896E+02  0.7816164E-02  0.1300438E+00
        -11   -1    0    0    0    0  0.00000000000E+00  0.00000000000E+00  0.45593999997E+02  0.45594000000E+02  0.51100000000E-03 0.  1.
         11   -1    0    0    0    0 -0.00000000000E+00 -0.00000000000E+00 -0.45593999997E+02  0.45594000000E+02  0.51100000000E-03 0. -1.
    9900012    2    1    2    0    0  0.38486400432E+02  0.10040784833E+02  0.84342833973E+01  0.50528960234E+02  0.30000305124E+02 0.  0.
         12    1    1    2    0    0 -0.38486400432E+02 -0.10040784833E+02 -0.84342833973E+01  0.40659039766E+02  0.00000000000E+00 0. -1.
         11    1    3    3    0    0  0.21434749717E+02  0.14633908442E+02  0.30304993131E+01  0.26130130081E+02  0.51100000000E-03 0. -1.
        -11    1    3    3    0    0  0.19646489336E+02 -0.53031872409E+01  0.26032549656E+01  0.20515488656E+02  0.51100000000E-03 0.  1.
         12    1    3    3    0    0 -0.25948386205E+01  0.71006363211E+00  0.28005291186E+01  0.38833414957E+01  0.00000000000E+00 0. -1.
</event>
<event>
 7    1  0.2966651E-011  0.5052885E+02  0.7816164E-02  0.1300439E+00
        -11   -1    0    0    0    0  0.00000000000E+00  0.00000000000E+00  0.45593999997E+02  0.45594000000E+02  0.51100000000E-03 0.  1.
         11   -1    0    0    0    0 -0.00000000000E+00 -0.00000000000E+00 -0.45593999997E+02  0.45594000000E+02  0.51100000000E-03 0. -1.
    9900012    2    1    2    0    0  0.14069481434E+02  0.16278266547E+02  0.34499770390E+02  0.50528850641E+02  0.29999972009E+02 0.  0.
         12    1    1    2    0    0 -0.14069481434E+02 -0.16278266547E+02 -0.34499770390E+02  0.40659149359E+02  0.00000000000E+00 0. -1.
         11    1    3    3    0    0 -0.49360271780E+01 -0.19814749729E+01  0.11385584828E+02  0.12566707982E+02  0.51100000000E-03 0. -1.
        -11    1    3    3    0    0  0.16650142625E+02  0.18840360951E+02  0.24551832821E+02  0.35142267219E+02  0.51100000000E-03 0.  1.
         12    1    3    3    0    0  0.23553659872E+01 -0.58061943116E+00 -0.14376472583E+01  0.28198754399E+01  0.00000000000E+00 0. -1.
</event>
<event>
 7    1  0.2966651E-011  0.5052886E+02  0.7816164E-02  0.1300439E+00
        -11   -1    0    0    0    0  0.00000000000E+00  0.00000000000E+00  0.45593999997E+02  0.45594000000E+02  0.51100000000E-03 0. -1.
         11   -1    0    0    0    0 -0.00000000000E+00 -0.00000000000E+00 -0.45593999997E+02  0.45594000000E+02  0.51100000000E-03 0.  1.
    9900012    2    1    2    0    0 -0.34187311239E+01 -0.27105683819E+02 -0.30112452679E+02  0.50528860509E+02  0.30000002002E+02 0.  0.
         12    1    1    2    0    0  0.34187311239E+01  0.27105683819E+02  0.30112452679E+02  0.40659139491E+02  0.00000000000E+00 0. -1.
         11    1    3    3    0    0 -0.17454570899E+01 -0.11773740578E+02  0.16257845273E+01  0.12012941490E+02  0.51100000000E-03 0. -1.
        -11    1    3    3    0    0  0.20835211637E+01 -0.15098564366E+02 -0.31186381892E+02  0.34711642458E+02  0.51100000000E-03 0.  1.
         12    1    3    3    0    0 -0.37567951977E+01 -0.23337887462E+00 -0.55185531451E+00  0.38042765599E+01  0.00000000000E+00 0. -1.
</event>
<event>
 7    1  0.2966651E-011  0.5052887E+02  0.7816164E-02  0.1300439E+00
        -11   -1    0    0    0    0  0.00000000000E+00  0.00000000000E+00  0.45593999997E+02  0.45594000000E+02  0.51100000000E-03 0.  1.
         11   -1    0    0    0    0 -0.00000000000E+00 -0.00000000000E+00 -0.45593999997E+02  0.45594000000E+02  0.51100000000E-03 0. -1.
    9900012    2    1    2    0    0  0.22609594041E+01  0.22689840902E+02  0.33663394728E+02  0.50528868649E+02  0.30000026745E+02 0.  0.
         12    1    1    2    0    0 -0.22609594041E+01 -0.22689840902E+02 -0.33663394728E+02  0.40659131351E+02  0.00000000000E+00 0. -1.
         11    1    3    3    0    0 -0.47081264175E+01  0.21380861525E+01  0.14924596969E+01  0.53819423043E+01  0.51100000000E-03 0. -1.
        -11    1    3    3    0    0  0.47189875407E+00  0.16928947814E+02  0.33549173824E+02  0.37581365423E+02  0.51100000000E-03 0.  1.
        -12    1    3    3    0    0  0.64971870675E+01  0.36228069362E+01 -0.13782387928E+01  0.75655609215E+01  0.00000000000E+00 0.  1.
</event>
<event>
 7    1  0.2966651E-011  0.5052887E+02  0.7816164E-02  0.1300439E+00
        -11   -1    0    0    0    0  0.00000000000E+00  0.00000000000E+00  0.45593999997E+02  0.45594000000E+02  0.51100000000E-03 0. -1.
         11   -1    0    0    0    0 -0.00000000000E+00 -0.00000000000E+00 -0.45593999997E+02  0.45594000000E+02  0.51100000000E-03 0.  1.
    9900012    2    1    2    0    0 -0.24714887499E+02 -0.29509777583E+02  0.13096280355E+02  0.50528865771E+02  0.30000017998E+02 0.  0.
         12    1    1    2    0    0  0.24714887499E+02  0.29509777583E+02 -0.13096280355E+02  0.40659134229E+02  0.00000000000E+00 0. -1.
         11    1    3    3    0    0 -0.13067304075E+02  0.97637874524E+00  0.38589317350E+01  0.13660128317E+02  0.51100000000E-03 0. -1.
        -11    1    3    3    0    0 -0.11587537592E+02 -0.24358259986E+02  0.12717137883E+02  0.29821493142E+02  0.51100000000E-03 0.  1.
         12    1    3    3    0    0 -0.60045832264E-01 -0.61278963421E+01 -0.34797892630E+01  0.70472443122E+01  0.00000000000E+00 0. -1.
</event>
<event>
 7    1  0.2966651E-011  0.5052887E+02  0.7816164E-02  0.1300439E+00
        -11   -1    0    0    0    0  0.00000000000E+00  0.00000000000E+00  0.45593999997E+02  0.45594000000E+02  0.51100000000E-03 0.  1.
         11   -1    0    0    0    0 -0.00000000000E+00 -0.00000000000E+00 -0.45593999997E+02  0.45594000000E+02  0.51100000000E-03 0. -1.
    9900012    2    1    2    0    0  0.64830536152E+01 -0.20798394705E+02  0.34330186923E+02  0.50528868914E+02  0.30000027551E+02 0.  0.
         12    1    1    2    0    0 -0.64830536152E+01  0.20798394705E+02 -0.34330186923E+02  0.40659131086E+02  0.00000000000E+00 0. -1.
         11    1    3    3    0    0 -0.47019338205E+01 -0.11986096841E+02  0.28751315538E+02  0.31502584729E+02  0.51100000000E-03 0. -1.
        -11    1    3    3    0    0  0.93221707799E+00 -0.34995621131E+01 -0.29496416693E+01  0.46707975660E+01  0.51100000000E-03 0.  1.
        -12    1    3    3    0    0  0.10252770358E+02 -0.53127357505E+01  0.85285130545E+01  0.14355486619E+02  0.00000000000E+00 0.  1.
</event>
<event>
 7    1  0.2966651E-011  0.5052886E+02  0.7816164E-02  0.1300439E+00
        -11   -1    0    0    0    0  0.00000000000E+00  0.00000000000E+00  0.45593999997E+02  0.45594000000E+02  0.51100000000E-03 0.  1.
         11   -1    0    0    0    0 -0.00000000000E+00 -0.00000000000E+00 -0.45593999997E+02  0.45594000000E+02  0.51100000000E-03 0. -1.
    9900012    2    1    2    0    0  0.30716379322E+02  0.23994211201E+02  0.11573563544E+02  0.50528862000E+02  0.30000006535E+02 0.  0.
         12    1    1    2    0    0 -0.30716379322E+02 -0.23994211201E+02 -0.11573563544E+02  0.40659138000E+02  0.00000000000E+00 0. -1.
         11    1    3    3    0    0 -0.15068666392E+01 -0.46731009474E+00  0.22053890674E+01  0.27115986046E+01  0.51100000000E-03 0. -1.
        -11    1    3    3    0    0  0.11908599645E+02  0.21294898145E+02 -0.17178587158E+01  0.24458913945E+02  0.51100000000E-03 0.  1.
        -12    1    3    3    0    0  0.20314646316E+02  0.31666231503E+01  0.11086033192E+02  0.23358349451E+02  0.00000000000E+00 0.  1.
</event>
<event>
 7    1  0.2966651E-011  0.5052886E+02  0.7816164E-02  0.1300439E+00
        -11   -1    0    0    0    0  0.00000000000E+00  0.00000000000E+00  0.45593999997E+02  0.45594000000E+02  0.51100000000E-03 0. -1.
         11   -1    0    0    0    0 -0.00000000000E+00 -0.00000000000E+00 -0.45593999997E+02  0.45594000000E+02  0.51100000000E-03 0.  1.
    9900012    2    1    2    0    0 -0.33137527193E+02  0.94966218946E+01 -0.21561168735E+02  0.50528861629E+02  0.30000005407E+02 0.  0.
         12    1    1    2    0    0  0.33137527193E+02 -0.94966218946E+01  0.21561168735E+02  0.40659138371E+02  0.00000000000E+00 0. -1.
         11    1    3    3    0    0 -0.29013422594E+02 -0.52514872807E+01 -0.12992554675E+02  0.32220541375E+02  0.51100000000E-03 0. -1.
        -11    1    3    3    0    0 -0.40950485211E+01  0.57508218218E+01 -0.48901900963E+01  0.85880925388E+01  0.51100000000E-03 0.  1.
         12    1    3    3    0    0 -0.29056078040E-01  0.89972873535E+01 -0.36784239642E+01  0.97202277153E+01  0.00000000000E+00 0. -1.
</event>
<event>
 7    1  0.2966651E-011  0.5052887E+02  0.7816164E-02  0.1300439E+00
        -11   -1    0    0    0    0  0.00000000000E+00  0.00000000000E+00  0.45593999997E+02  0.45594000000E+02  0.51100000000E-03 0.  1.
         11   -1    0    0    0    0 -0.00000000000E+00 -0.00000000000E+00 -0.45593999997E+02  0.45594000000E+02  0.51100000000E-03 0. -1.
    9900012    2    1    2    0    0 -0.31503281815E+02 -0.74226940968E+01  0.24609174562E+02  0.50528872791E+02  0.30000039337E+02 0.  0.
         12    1    1    2    0    0  0.31503281815E+02  0.74226940968E+01 -0.24609174562E+02  0.40659127209E+02  0.00000000000E+00 0. -1.
         11    1    3    3    0    0  0.95573839516E+00  0.20916639296E+01 -0.39528994493E+01  0.45731726615E+01  0.51100000000E-03 0. -1.
        -11    1    3    3    0    0 -0.93699209282E+01 -0.80924229043E+01  0.64743714734E+01  0.13971406976E+02  0.51100000000E-03 0.  1.
         12    1    3    3    0    0 -0.23089099282E+02 -0.14219351221E+01  0.22087702538E+02  0.31984293153E+02  0.00000000000E+00 0. -1.
</event>
<event>
 7    1  0.2966651E-011  0.5052886E+02  0.7816164E-02  0.1300439E+00
        -11   -1    0    0    0    0  0.00000000000E+00  0.00000000000E+00  0.45593999997E+02  0.45594000000E+02  0.51100000000E-03 0.  1.
         11   -1    0    0    0    0 -0.00000000000E+00 -0.00000000000E+00 -0.45593999997E+02  0.45594000000E+02  0.51100000000E-03 0. -1.
    9900012    2    1    2    0    0 -0.75266456112E+01 -0.64789325208E+01  0.39427636629E+02  0.50528862148E+02  0.30000006984E+02 0.  0.
         12    1    1    2    0    0  0.75266456112E+01  0.64789325208E+01 -0.39427636629E+02  0.40659137852E+02  0.00000000000E+00 0. -1.
         11    1    3    3    0    0 -0.11458358455E+02 -0.11219063462E+02  0.21472415609E+02  0.26799738726E+02  0.51100000000E-03 0. -1.
        -11    1    3    3    0    0 -0.27166255956E+01  0.65596365016E+01  0.14208885158E+02  0.15883995195E+02  0.51100000000E-03 0.  1.
        -12    1    3    3    0    0  0.66483384399E+01 -0.18195055604E+01  0.37463358618E+01  0.78451282261E+01  0.00000000000E+00 0.  1.
</event>
<event>
 7    1  0.2966651E-011  0.5052886E+02  0.7816164E-02  0.1300439E+00
        -11   -1    0    0    0    0  0.00000000000E+00  0.00000000000E+00  0.45593999997E+02  0.45594000000E+02  0.51100000000E-03 0. -1.
         11   -1    0    0    0    0 -0.00000000000E+00 -0.00000000000E+00 -0.45593999997E+02  0.45594000000E+02  0.51100000000E-03 0.  1.
    9900012    2    1    2    0    0 -0.92129880952E+01  0.39463005978E+02 -0.33102573305E+01  0.50528858419E+02  0.29999995651E+02 0.  0.
         12    1    1    2    0    0  0.92129880952E+01 -0.39463005978E+02  0.33102573305E+01  0.40659141581E+02  0.00000000000E+00 0. -1.
         11    1    3    3    0    0 -0.52971066075E+01  0.16446460252E+02  0.51929110617E+01  0.18041943321E+02  0.51100000000E-03 0. -1.
        -11    1    3    3    0    0 -0.27921094272E+01  0.14170534373E+02 -0.15475041437E+02  0.21167825283E+02  0.51100000000E-03 0.  1.
        -12    1    3    3    0    0 -0.11237720606E+01  0.88460113533E+01  0.69718730447E+01  0.11319089816E+02  0.00000000000E+00 0.  1.
</event>
<event>
 7    1  0.2966651E-011  0.5052884E+02  0.7816164E-02  0.1300439E+00
        -11   -1    0    0    0    0  0.00000000000E+00  0.00000000000E+00  0.45593999997E+02  0.45594000000E+02  0.51100000000E-03 0. -1.
         11   -1    0    0    0    0 -0.00000000000E+00 -0.00000000000E+00 -0.45593999997E+02  0.45594000000E+02  0.51100000000E-03 0.  1.
    9900012    2    1    2    0    0  0.13983821676E+02 -0.18494724659E+02 -0.33400074493E+02  0.50528842545E+02  0.29999947398E+02 0.  0.
         12    1    1    2    0    0 -0.13983821676E+02  0.18494724659E+02  0.33400074493E+02  0.40659157455E+02  0.00000000000E+00 0. -1.
         11    1    3    3    0    0 -0.12127980228E+01  0.62624989933E+01 -0.52043163153E+01  0.82325379596E+01  0.51100000000E-03 0. -1.
        -11    1    3    3    0    0  0.10990077307E+02 -0.11194717796E+02 -0.21452705198E+02  0.26576720383E+02  0.51100000000E-03 0.  1.
         12    1    3    3    0    0  0.42065423924E+01 -0.13562505857E+02 -0.67430529792E+01  0.15719584202E+02  0.00000000000E+00 0. -1.
</event>
<event>
 7    1  0.2966651E-011  0.5052886E+02  0.7816164E-02  0.1300439E+00
        -11   -1    0    0    0    0  0.00000000000E+00  0.00000000000E+00  0.45593999997E+02  0.45594000000E+02  0.51100000000E-03 0. -1.
         11   -1    0    0    0    0 -0.00000000000E+00 -0.00000000000E+00 -0.45593999997E+02  0.45594000000E+02  0.51100000000E-03 0.  1.
    9900012    2    1    2    0    0  0.35772175995E+02 -0.12991091257E+02 -0.14309052034E+02  0.50528855917E+02  0.29999988044E+02 0.  0.
         12    1    1    2    0    0 -0.35772175995E+02  0.12991091257E+02  0.14309052034E+02  0.40659144083E+02  0.00000000000E+00 0. -1.
         11    1    3    3    0    0  0.11493887992E+01 -0.33252696951E+01  0.58001613129E+01  0.67838325947E+01  0.51100000000E-03 0. -1.
        -11    1    3    3    0    0  0.92450317237E+01  0.39158523362E+01 -0.45149519644E+01  0.11008601300E+02  0.51100000000E-03 0.  1.
         12    1    3    3    0    0  0.25377755473E+02 -0.13581673898E+02 -0.15594261382E+02  0.32736422021E+02  0.00000000000E+00 0. -1.
</event>
<event>
 7    1  0.2966651E-011  0.5052887E+02  0.7816164E-02  0.1300439E+00
        -11   -1    0    0    0    0  0.00000000000E+00  0.00000000000E+00  0.45593999997E+02  0.45594000000E+02  0.51100000000E-03 0.  1.
         11   -1    0    0    0    0 -0.00000000000E+00 -0.00000000000E+00 -0.45593999997E+02  0.45594000000E+02  0.51100000000E-03 0. -1.
    9900012    2    1    2    0    0 -0.36392621371E+02 -0.13088725275E+02  0.12546997415E+02  0.50528871090E+02  0.30000034165E+02 0.  0.
         12    1    1    2    0    0  0.36392621371E+02  0.13088725275E+02 -0.12546997415E+02  0.40659128910E+02  0.00000000000E+00 0. -1.
         11    1    3    3    0    0 -0.25978297366E+02  0.31100310482E+01  0.60979845834E+01  0.26865026399E+02  0.51100000000E-03 0.  1.
        -11    1    3    3    0    0 -0.48243309067E+01 -0.14022116316E+02 -0.37206760146E-01  0.14828867094E+02  0.51100000000E-03 0. -1.
        -12    1    3    3    0    0 -0.55899930987E+01 -0.21766400065E+01  0.64862195914E+01  0.88349775975E+01  0.00000000000E+00 0.  1.
</event>
<event>
 7    1  0.2966651E-011  0.5052887E+02  0.7816164E-02  0.1300439E+00
        -11   -1    0    0    0    0  0.00000000000E+00  0.00000000000E+00  0.45593999997E+02  0.45594000000E+02  0.51100000000E-03 0. -1.
         11   -1    0    0    0    0 -0.00000000000E+00 -0.00000000000E+00 -0.45593999997E+02  0.45594000000E+02  0.51100000000E-03 0.  1.
    9900012    2    1    2    0    0 -0.27538348894E+02  0.18193832063E+02  0.23744242402E+02  0.50528865329E+02  0.30000016654E+02 0.  0.
         12    1    1    2    0    0  0.27538348894E+02 -0.18193832063E+02 -0.23744242402E+02  0.40659134671E+02  0.00000000000E+00 0. -1.
         11    1    3    3    0    0  0.28258476797E+01  0.50168263527E+01  0.18625361485E+01  0.60516942196E+01  0.51100000000E-03 0. -1.
        -11    1    3    3    0    0 -0.25225798654E+02  0.12240884350E+02  0.72787320107E+01  0.28968260344E+02  0.51100000000E-03 0.  1.
         12    1    3    3    0    0 -0.51383979195E+01  0.93612136017E+00  0.14602974243E+02  0.15508910765E+02  0.00000000000E+00 0. -1.
</event>
<event>
 7    1  0.2966651E-011  0.5052885E+02  0.7816164E-02  0.1300439E+00
        -11   -1    0    0    0    0  0.00000000000E+00  0.00000000000E+00  0.45593999997E+02  0.45594000000E+02  0.51100000000E-03 0.  1.
         11   -1    0    0    0    0 -0.00000000000E+00 -0.00000000000E+00 -0.45593999997E+02  0.45594000000E+02  0.51100000000E-03 0. -1.
    9900012    2    1    2    0    0  0.94261924919E+01 -0.13007205582E+02  0.37351379822E+02  0.50528854946E+02  0.29999985094E+02 0.  0.
         12    1    1    2    0    0 -0.94261924919E+01  0.13007205582E+02 -0.37351379822E+02  0.40659145054E+02  0.00000000000E+00 0. -1.
         11    1    3    3    0    0 -0.23872245746E+01 -0.10098412243E+02  0.93000493449E+01  0.13934406664E+02  0.51100000000E-03 0. -1.
        -11    1    3    3    0    0  0.10754350005E+02  0.30599058598E+01  0.41341341607E+01  0.11920995488E+02  0.51100000000E-03 0.  1.
        -12    1    3    3    0    0  0.10590670612E+01 -0.59686991981E+01  0.23917196316E+02  0.24673452794E+02  0.00000000000E+00 0.  1.
</event>
<event>
 7    1  0.2966651E-011  0.5052885E+02  0.7816164E-02  0.1300439E+00
        -11   -1    0    0    0    0  0.00000000000E+00  0.00000000000E+00  0.45593999997E+02  0.45594000000E+02  0.51100000000E-03 0.  1.
         11   -1    0    0    0    0 -0.00000000000E+00 -0.00000000000E+00 -0.45593999997E+02  0.45594000000E+02  0.51100000000E-03 0. -1.
    9900012    2    1    2    0    0  0.36464572671E+02 -0.16792920120E+02  0.64419996757E+01  0.50528848680E+02  0.29999966048E+02 0.  0.
         12    1    1    2    0    0 -0.36464572671E+02  0.16792920120E+02 -0.64419996757E+01  0.40659151320E+02  0.00000000000E+00 0. -1.
         11    1    3    3    0    0  0.23585068156E+02 -0.15932374282E+02 -0.85203377155E+01  0.29710135396E+02  0.51100000000E-03 0. -1.
        -11    1    3    3    0    0  0.77264244880E+01 -0.35536019588E+01  0.10358342112E+02  0.13402274949E+02  0.51100000000E-03 0.  1.
         12    1    3    3    0    0  0.51530800270E+01  0.26930561216E+01  0.46039952792E+01  0.74164383345E+01  0.00000000000E+00 0. -1.
</event>
<event>
 7    1  0.2966651E-011  0.5052886E+02  0.7816164E-02  0.1300439E+00
        -11   -1    0    0    0    0  0.00000000000E+00  0.00000000000E+00  0.45593999997E+02  0.45594000000E+02  0.51100000000E-03 0.  1.
         11   -1    0    0    0    0 -0.00000000000E+00 -0.00000000000E+00 -0.45593999997E+02  0.45594000000E+02  0.51100000000E-03 0. -1.
    9900012    2    1    2    0    0  0.13625854087E+02  0.38057777199E+02 -0.43711774381E+01  0.50528862071E+02  0.30000006750E+02 0.  0.
         12    1    1    2    0    0 -0.13625854087E+02 -0.38057777199E+02  0.43711774381E+01  0.40659137929E+02  0.00000000000E+00 0. -1.
         11    1    3    3    0    0 -0.17887688641E+01  0.29302674434E+02 -0.57724237154E+01  0.29919346565E+02  0.51100000000E-03 0. -1.
        -11    1    3    3    0    0  0.15727499429E+02  0.54357671863E+01 -0.72331812856E+00  0.16656079748E+02  0.51100000000E-03 0.  1.
        -12    1    3    3    0    0 -0.31287647812E+00  0.33193355787E+01  0.21245644059E+01  0.39534357576E+01  0.00000000000E+00 0.  1.
</event>
<event>
 7    1  0.2966651E-011  0.5052901E+02  0.7816164E-02  0.1300438E+00
        -11   -1    0    0    0    0  0.00000000000E+00  0.00000000000E+00  0.45593999997E+02  0.45594000000E+02  0.51100000000E-03 0.  1.
         11   -1    0    0    0    0 -0.00000000000E+00 -0.00000000000E+00 -0.45593999997E+02  0.45594000000E+02  0.51100000000E-03 0. -1.
    9900012    2    1    2    0    0  0.76239619103E+01  0.12012137451E+02  0.38088549097E+02  0.50529005747E+02  0.30000443465E+02 0.  0.
         12    1    1    2    0    0 -0.76239619103E+01 -0.12012137451E+02 -0.38088549097E+02  0.40658994253E+02  0.00000000000E+00 0. -1.
         11    1    3    3    0    0 -0.65815057568E+01  0.87489883426E+01  0.10953656335E+02  0.15486884852E+02  0.51100000000E-03 0. -1.
        -11    1    3    3    0    0  0.17585915317E+02  0.73717332824E+00  0.19146572801E+02  0.26007673720E+02  0.51100000000E-03 0.  1.
        -12    1    3    3    0    0 -0.33804476498E+01  0.25259757804E+01  0.79883199610E+01  0.90344471749E+01  0.00000000000E+00 0.  1.
</event>
<event>
 7    1  0.2966651E-011  0.5052891E+02  0.7816164E-02  0.1300439E+00
        -11   -1    0    0    0    0  0.00000000000E+00  0.00000000000E+00  0.45593999997E+02  0.45594000000E+02  0.51100000000E-03 0.  1.
         11   -1    0    0    0    0 -0.00000000000E+00 -0.00000000000E+00 -0.45593999997E+02  0.45594000000E+02  0.51100000000E-03 0. -1.
    9900012    2    1    2    0    0  0.25723138316E+02 -0.28556999734E+02  0.13265735691E+02  0.50528907265E+02  0.30000144121E+02 0.  0.
         12    1    1    2    0    0 -0.25723138316E+02  0.28556999734E+02 -0.13265735691E+02  0.40659092735E+02  0.00000000000E+00 0. -1.
         11    1    3    3    0    0  0.10369105294E+01 -0.10953245794E+01 -0.36918403831E+01  0.39880578049E+01  0.51100000000E-03 0. -1.
        -11    1    3    3    0    0  0.11265787149E+02 -0.26660923257E+02  0.69100821487E+01  0.29756881970E+02  0.51100000000E-03 0.  1.
        -12    1    3    3    0    0  0.13420440637E+02 -0.80075189746E+00  0.10047493926E+02  0.16783967489E+02  0.00000000000E+00 0.  1.
</event>
<event>
 7    1  0.2966651E-011  0.5052886E+02  0.7816164E-02  0.1300439E+00
        -11   -1    0    0    0    0  0.00000000000E+00  0.00000000000E+00  0.45593999997E+02  0.45594000000E+02  0.51100000000E-03 0. -1.
         11   -1    0    0    0    0 -0.00000000000E+00 -0.00000000000E+00 -0.45593999997E+02  0.45594000000E+02  0.51100000000E-03 0.  1.
    9900012    2    1    2    0    0 -0.19652731482E+02  0.35566142655E+02 -0.14089929866E+01  0.50528860569E+02  0.30000002184E+02 0.  0.
         12    1    1    2    0    0  0.19652731482E+02 -0.35566142655E+02  0.14089929866E+01  0.40659139431E+02  0.00000000000E+00 0. -1.
         11    1    3    3    0    0  0.99844600346E+00  0.69984271345E+00  0.78164415578E+01  0.79109691652E+01  0.51100000000E-03 0. -1.
        -11    1    3    3    0    0 -0.42725171574E+01  0.14599668107E+02 -0.80381775235E+00  0.15233214859E+02  0.51100000000E-03 0.  1.
         12    1    3    3    0    0 -0.16378660328E+02  0.20266631834E+02 -0.84216167920E+01  0.27384676544E+02  0.00000000000E+00 0. -1.
</event>
<event>
 7    1  0.2966651E-011  0.5052886E+02  0.7816164E-02  0.1300439E+00
        -11   -1    0    0    0    0  0.00000000000E+00  0.00000000000E+00  0.45593999997E+02  0.45594000000E+02  0.51100000000E-03 0. -1.
         11   -1    0    0    0    0 -0.00000000000E+00 -0.00000000000E+00 -0.45593999997E+02  0.45594000000E+02  0.51100000000E-03 0.  1.
    9900012    2    1    2    0    0 -0.35651860874E+02 -0.19522984939E+02 -0.98173666688E+00  0.50528856728E+02  0.29999990511E+02 0.  0.
         12    1    1    2    0    0  0.35651860874E+02  0.19522984939E+02  0.98173666688E+00  0.40659143272E+02  0.00000000000E+00 0. -1.
         11    1    3    3    0    0 -0.52354586930E+01 -0.77825902532E+01  0.21828457567E+01  0.96303455096E+01  0.51100000000E-03 0. -1.
        -11    1    3    3    0    0 -0.15038156456E+02  0.56484932038E+01  0.40925764211E+01  0.16577116972E+02  0.51100000000E-03 0.  1.
        -12    1    3    3    0    0 -0.15378245725E+02 -0.17388887889E+02 -0.72571588447E+01  0.24321394247E+02  0.00000000000E+00 0.  1.
</event>
<event>
 7    1  0.2966651E-011  0.5052886E+02  0.7816164E-02  0.1300439E+00
        -11   -1    0    0    0    0  0.00000000000E+00  0.00000000000E+00  0.45593999997E+02  0.45594000000E+02  0.51100000000E-03 0.  1.
         11   -1    0    0    0    0 -0.00000000000E+00 -0.00000000000E+00 -0.45593999997E+02  0.45594000000E+02  0.51100000000E-03 0. -1.
    9900012    2    1    2    0    0  0.31716477888E+02 -0.25121201100E+02  0.40194544739E+01  0.50528859224E+02  0.29999998098E+02 0.  0.
         12    1    1    2    0    0 -0.31716477888E+02  0.25121201100E+02 -0.40194544739E+01  0.40659140776E+02  0.00000000000E+00 0. -1.
         11    1    3    3    0    0  0.59949798652E+01  0.42378768738E+01 -0.51241385492E+01  0.89529983868E+01  0.51100000000E-03 0. -1.
        -11    1    3    3    0    0  0.25851767164E+02 -0.25637506921E+02  0.99953740493E+01  0.37755835698E+02  0.51100000000E-03 0.  1.
        -12    1    3    3    0    0 -0.13026914049E+00 -0.37215710529E+01 -0.85178102618E+00  0.38200251396E+01  0.00000000000E+00 0.  1.
</event>
<event>
 7    1  0.2966651E-011  0.5052886E+02  0.7816164E-02  0.1300439E+00
        -11   -1    0    0    0    0  0.00000000000E+00  0.00000000000E+00  0.45593999997E+02  0.45594000000E+02  0.51100000000E-03 0. -1.
         11   -1    0    0    0    0 -0.00000000000E+00 -0.00000000000E+00 -0.45593999997E+02  0.45594000000E+02  0.51100000000E-03 0.  1.
    9900012    2    1    2    0    0 -0.24759999356E+02 -0.20567686499E+02 -0.24841062997E+02  0.50528859492E+02  0.29999998912E+02 0.  0.
         12    1    1    2    0    0  0.24759999356E+02  0.20567686499E+02  0.24841062997E+02  0.40659140508E+02  0.00000000000E+00 0. -1.
         11    1    3    3    0    0  0.36770248843E+01 -0.11752644051E+02 -0.13233474504E+01  0.12385330150E+02  0.51100000000E-03 0. -1.
        -11    1    3    3    0    0 -0.13731062598E+02 -0.24108170821E+01 -0.12032747941E+02  0.18415785141E+02  0.51100000000E-03 0.  1.
         12    1    3    3    0    0 -0.14705961642E+02 -0.64042253663E+01 -0.11484967605E+02  0.19727744201E+02  0.00000000000E+00 0. -1.
</event>
<event>
 7    1  0.2966651E-011  0.5052886E+02  0.7816164E-02  0.1300439E+00
        -11   -1    0    0    0    0  0.00000000000E+00  0.00000000000E+00  0.45593999997E+02  0.45594000000E+02  0.51100000000E-03 0.  1.
         11   -1    0    0    0    0 -0.00000000000E+00 -0.00000000000E+00 -0.45593999997E+02  0.45594000000E+02  0.51100000000E-03 0. -1.
    9900012    2    1    2    0    0  0.89196442635E+01  0.17922429216E+02 -0.35389153851E+02  0.50528859169E+02  0.29999997930E+02 0.  0.
         12    1    1    2    0    0 -0.89196442635E+01 -0.17922429216E+02  0.35389153851E+02  0.40659140831E+02  0.00000000000E+00 0. -1.
         11    1    3    3    0    0 -0.37075201262E+00 -0.29699634809E+00 -0.13941677210E+01  0.14728773816E+01  0.51100000000E-03 0. -1.
        -11    1    3    3    0    0 -0.67480410622E+01 -0.24584339684E+01 -0.15051537839E+01  0.73379454842E+01  0.51100000000E-03 0.  1.
        -12    1    3    3    0    0  0.16038437338E+02  0.20677859532E+02 -0.32489832346E+02  0.41718036303E+02  0.00000000000E+00 0.  1.
</event>
<event>
 7    1  0.2966651E-011  0.5052885E+02  0.7816164E-02  0.1300439E+00
        -11   -1    0    0    0    0  0.00000000000E+00  0.00000000000E+00  0.45593999997E+02  0.45594000000E+02  0.51100000000E-03 0.  1.
         11   -1    0    0    0    0 -0.00000000000E+00 -0.00000000000E+00 -0.45593999997E+02  0.45594000000E+02  0.51100000000E-03 0. -1.
    9900012    2    1    2    0    0  0.11539943403E+02 -0.29972292659E+02  0.24933063361E+02  0.50528852572E+02  0.29999977879E+02 0.  0.
         12    1    1    2    0    0 -0.11539943403E+02  0.29972292659E+02 -0.24933063361E+02  0.40659147428E+02  0.00000000000E+00 0. -1.
         11    1    3    3    0    0  0.88912362647E+01 -0.49202612558E+01  0.22531152972E+02  0.24716713124E+02  0.51100000000E-03 0. -1.
        -11    1    3    3    0    0  0.32364403053E+01 -0.18561597967E+02  0.36093602808E+01  0.19184236937E+02  0.51100000000E-03 0.  1.
         12    1    3    3    0    0 -0.58773316710E+00 -0.64904334366E+01 -0.12074498919E+01  0.66279025122E+01  0.00000000000E+00 0. -1.
</event>
<event>
 7    1  0.2966651E-011  0.5052886E+02  0.7816164E-02  0.1300439E+00
        -11   -1    0    0    0    0  0.00000000000E+00  0.00000000000E+00  0.45593999997E+02  0.45594000000E+02  0.51100000000E-03 0.  1.
         11   -1    0    0    0    0 -0.00000000000E+00 -0.00000000000E+00 -0.45593999997E+02  0.45594000000E+02  0.51100000000E-03 0. -1.
    9900012    2    1    2    0    0  0.15448090806E+02 -0.23214566592E+02  0.29590646751E+02  0.50528856050E+02  0.29999988450E+02 0.  0.
         12    1    1    2    0    0 -0.15448090806E+02  0.23214566592E+02 -0.29590646751E+02  0.40659143950E+02  0.00000000000E+00 0. -1.
         11    1    3    3    0    0  0.88832032077E+01 -0.25942471580E+02  0.17925142812E+02  0.32760248411E+02  0.51100000000E-03 0. -1.
        -11    1    3    3    0    0  0.11215329939E+01  0.65668677974E+01  0.48633451692E+01  0.82482552955E+01  0.51100000000E-03 0.  1.
        -12    1    3    3    0    0  0.54433546042E+01 -0.38389628092E+01  0.68021587704E+01  0.95203523430E+01  0.00000000000E+00 0.  1.
</event>
<event>
 7    1  0.2966651E-011  0.5052887E+02  0.7816164E-02  0.1300439E+00
        -11   -1    0    0    0    0  0.00000000000E+00  0.00000000000E+00  0.45593999997E+02  0.45594000000E+02  0.51100000000E-03 0.  1.
         11   -1    0    0    0    0 -0.00000000000E+00 -0.00000000000E+00 -0.45593999997E+02  0.45594000000E+02  0.51100000000E-03 0. -1.
    9900012    2    1    2    0    0  0.74610132847E+01  0.37986077618E+02  0.12432071315E+02  0.50528865612E+02  0.30000017514E+02 0.  0.
         12    1    1    2    0    0 -0.74610132847E+01 -0.37986077618E+02 -0.12432071315E+02  0.40659134388E+02  0.00000000000E+00 0. -1.
         11    1    3    3    0    0  0.11986444943E+02  0.75792310320E+01  0.47285982374E+01  0.14949222286E+02  0.51100000000E-03 0. -1.
        -11    1    3    3    0    0 -0.31582085973E+01  0.28450446098E+02  0.11700540799E+02  0.30924178566E+02  0.51100000000E-03 0.  1.
         12    1    3    3    0    0 -0.13672230608E+01  0.19564004877E+01 -0.39970677211E+01  0.46554647602E+01  0.00000000000E+00 0. -1.
</event>
<event>
 7    1  0.2966651E-011  0.5052886E+02  0.7816164E-02  0.1300439E+00
        -11   -1    0    0    0    0  0.00000000000E+00  0.00000000000E+00  0.45593999997E+02  0.45594000000E+02  0.51100000000E-03 0.  1.
         11   -1    0    0    0    0 -0.00000000000E+00 -0.00000000000E+00 -0.45593999997E+02  0.45594000000E+02  0.51100000000E-03 0. -1.
    9900012    2    1    2    0    0  0.34133167929E+02  0.19172225097E+02  0.10978079728E+02  0.50528860774E+02  0.30000002810E+02 0.  0.
         12    1    1    2    0    0 -0.34133167929E+02 -0.19172225097E+02 -0.10978079728E+02  0.40659139226E+02  0.00000000000E+00 0. -1.
         11    1    3    3    0    0  0.59336266631E+01  0.24934928575E+01 -0.72124575462E+01  0.96666941673E+01  0.51100000000E-03 0. -1.
        -11    1    3    3    0    0  0.20948382896E+02  0.31252266294E+01  0.96139783535E+01  0.23260059490E+02  0.51100000000E-03 0.  1.
         12    1    3    3    0    0  0.72511583702E+01  0.13553505610E+02  0.85765589209E+01  0.17602107117E+02  0.00000000000E+00 0. -1.
</event>
<event>
 7    1  0.2966651E-011  0.5052886E+02  0.7816164E-02  0.1300439E+00
        -11   -1    0    0    0    0  0.00000000000E+00  0.00000000000E+00  0.45593999997E+02  0.45594000000E+02  0.51100000000E-03 0.  1.
         11   -1    0    0    0    0 -0.00000000000E+00 -0.00000000000E+00 -0.45593999997E+02  0.45594000000E+02  0.51100000000E-03 0. -1.
    9900012    2    1    2    0    0  0.37875838740E+02  0.57255263650E+01  0.13631027267E+02  0.50528859370E+02  0.29999998540E+02 0.  0.
         12    1    1    2    0    0 -0.37875838740E+02 -0.57255263650E+01 -0.13631027267E+02  0.40659140630E+02  0.00000000000E+00 0. -1.
         11    1    3    3    0    0  0.32979766277E+02  0.94037888321E+00  0.49047360549E+01  0.33355745115E+02  0.51100000000E-03 0. -1.
        -11    1    3    3    0    0  0.72098170663E+01  0.30566526048E+01  0.10996259115E+02  0.13499714888E+02  0.51100000000E-03 0.  1.
         12    1    3    3    0    0 -0.23137446031E+01  0.17284948770E+01 -0.22699679031E+01  0.36733993669E+01  0.00000000000E+00 0. -1.
</event>
<event>
 7    1  0.2966651E-011  0.5052886E+02  0.7816164E-02  0.1300439E+00
        -11   -1    0    0    0    0  0.00000000000E+00  0.00000000000E+00  0.45593999997E+02  0.45594000000E+02  0.51100000000E-03 0. -1.
         11   -1    0    0    0    0 -0.00000000000E+00 -0.00000000000E+00 -0.45593999997E+02  0.45594000000E+02  0.51100000000E-03 0.  1.
    9900012    2    1    2    0    0  0.30644321966E+02 -0.16199584845E+02 -0.21252395738E+02  0.50528863972E+02  0.30000012530E+02 0.  0.
         12    1    1    2    0    0 -0.30644321966E+02  0.16199584845E+02  0.21252395738E+02  0.40659136028E+02  0.00000000000E+00 0. -1.
         11    1    3    3    0    0 -0.18441192303E+01 -0.91083369545E+01 -0.95140904305E+01  0.13299642657E+02  0.51100000000E-03 0. -1.
        -11    1    3    3    0    0  0.31764168599E+02 -0.40826244081E+01 -0.94828149497E+01  0.33399910306E+02  0.51100000000E-03 0.  1.
        -12    1    3    3    0    0  0.72427259820E+00 -0.30086234820E+01 -0.22554903580E+01  0.38293110096E+01  0.00000000000E+00 0.  1.
</event>
<event>
 7    1  0.2966651E-011  0.5052886E+02  0.7816164E-02  0.1300439E+00
        -11   -1    0    0    0    0  0.00000000000E+00  0.00000000000E+00  0.45593999997E+02  0.45594000000E+02  0.51100000000E-03 0. -1.
         11   -1    0    0    0    0 -0.00000000000E+00 -0.00000000000E+00 -0.45593999997E+02  0.45594000000E+02  0.51100000000E-03 0.  1.
    9900012    2    1    2    0    0 -0.30517780597E+02 -0.25752441156E+02  0.76578302359E+01  0.50528861766E+02  0.30000005823E+02 0.  0.
         12    1    1    2    0    0  0.30517780597E+02  0.25752441156E+02 -0.76578302359E+01  0.40659138234E+02  0.00000000000E+00 0. -1.
         11    1    3    3    0    0 -0.85398558492E+01  0.29024202819E+01  0.43733029845E+01  0.10023919427E+02  0.51100000000E-03 0. -1.
        -11    1    3    3    0    0 -0.19039005904E+02 -0.31076113159E+02  0.20509237602E+01  0.36502258059E+02  0.51100000000E-03 0.  1.
        -12    1    3    3    0    0 -0.29389188439E+01  0.24212517215E+01  0.12336034912E+01  0.40026842797E+01  0.00000000000E+00 0.  1.
</event>
<event>
 7    1  0.2966651E-011  0.5052886E+02  0.7816164E-02  0.1300439E+00
        -11   -1    0    0    0    0  0.00000000000E+00  0.00000000000E+00  0.45593999997E+02  0.45594000000E+02  0.51100000000E-03 0.  1.
         11   -1    0    0    0    0 -0.00000000000E+00 -0.00000000000E+00 -0.45593999997E+02  0.45594000000E+02  0.51100000000E-03 0. -1.
    9900012    2    1    2    0    0 -0.17600241112E+01 -0.17630958532E+02  0.36595316807E+02  0.50528860858E+02  0.30000003063E+02 0.  0.
         12    1    1    2    0    0  0.17600241112E+01  0.17630958532E+02 -0.36595316807E+02  0.40659139142E+02  0.00000000000E+00 0. -1.
         11    1    3    3    0    0 -0.10287443242E+02  0.93473679167E+00  0.32229888093E+01  0.10820946283E+02  0.51100000000E-03 0. -1.
        -11    1    3    3    0    0  0.49435816039E+01 -0.52308225357E+01  0.15779809752E+02  0.17343670302E+02  0.51100000000E-03 0.  1.
         12    1    3    3    0    0  0.35838375268E+01 -0.13334872788E+02  0.17592518245E+02  0.22364244273E+02  0.00000000000E+00 0. -1.
</event>
<event>
 7    1  0.2966651E-011  0.5052886E+02  0.7816164E-02  0.1300439E+00
        -11   -1    0    0    0    0  0.00000000000E+00  0.00000000000E+00  0.45593999997E+02  0.45594000000E+02  0.51100000000E-03 0.  1.
         11   -1    0    0    0    0 -0.00000000000E+00 -0.00000000000E+00 -0.45593999997E+02  0.45594000000E+02  0.51100000000E-03 0. -1.
    9900012    2    1    2    0    0 -0.35393677689E+02 -0.28707152947E+01  0.19804344672E+02  0.50528862103E+02  0.30000006848E+02 0.  0.
         12    1    1    2    0    0  0.35393677689E+02  0.28707152947E+01 -0.19804344672E+02  0.40659137897E+02  0.00000000000E+00 0. -1.
         11    1    3    3    0    0 -0.40047851418E+01  0.84494261235E+01 -0.38295351461E+00  0.93582989642E+01  0.51100000000E-03 0. -1.
        -11    1    3    3    0    0 -0.21038939740E+02 -0.11328837892E+02  0.80391255633E+01  0.25211249343E+02  0.51100000000E-03 0.  1.
         12    1    3    3    0    0 -0.10349952808E+02  0.86964739097E-02  0.12148172623E+02  0.15959313795E+02  0.00000000000E+00 0. -1.
</event>
<event>
 7    1  0.2966651E-011  0.5052887E+02  0.7816164E-02  0.1300439E+00
        -11   -1    0    0    0    0  0.00000000000E+00  0.00000000000E+00  0.45593999997E+02  0.45594000000E+02  0.51100000000E-03 0.  1.
         11   -1    0    0    0    0 -0.00000000000E+00 -0.00000000000E+00 -0.45593999997E+02  0.45594000000E+02  0.51100000000E-03 0. -1.
    9900012    2    1    2    0    0 -0.12381811468E+01  0.90754990104E+01  0.39613976505E+02  0.50528869299E+02  0.30000028721E+02 0.  0.
         12    1    1    2    0    0  0.12381811468E+01 -0.90754990104E+01 -0.39613976505E+02  0.40659130701E+02  0.00000000000E+00 0. -1.
         11    1    3    3    0    0 -0.82838959347E+01  0.81169565234E+01  0.27192632695E+01  0.11912275519E+02  0.51100000000E-03 0. -1.
        -11    1    3    3    0    0  0.68686275805E+01  0.13720142812E+01  0.13423147001E+02  0.15140718071E+02  0.51100000000E-03 0.  1.
         12    1    3    3    0    0  0.17708720745E+00 -0.41347179428E+00  0.23471566234E+02  0.23475875708E+02  0.00000000000E+00 0. -1.
</event>
<event>
 7    1  0.2966651E-011  0.5052885E+02  0.7816164E-02  0.1300439E+00
        -11   -1    0    0    0    0  0.00000000000E+00  0.00000000000E+00  0.45593999997E+02  0.45594000000E+02  0.51100000000E-03 0.  1.
         11   -1    0    0    0    0 -0.00000000000E+00 -0.00000000000E+00 -0.45593999997E+02  0.45594000000E+02  0.51100000000E-03 0. -1.
    9900012    2    1    2    0    0  0.28582809729E+02  0.44891117137E+01  0.28566368059E+02  0.50528849492E+02  0.29999968515E+02 0.  0.
         12    1    1    2    0    0 -0.28582809729E+02 -0.44891117137E+01 -0.28566368059E+02  0.40659150508E+02  0.00000000000E+00 0. -1.
         11    1    3    3    0    0  0.13489819383E+02 -0.33560058169E+01  0.19074281525E+02  0.23602250274E+02  0.51100000000E-03 0. -1.
        -11    1    3    3    0    0  0.15386218142E+02  0.18716713484E+01 -0.24259156795E+00  0.15501539062E+02  0.51100000000E-03 0.  1.
        -12    1    3    3    0    0 -0.29322779591E+00  0.59734461823E+01  0.97346781020E+01  0.11425060157E+02  0.00000000000E+00 0.  1.
</event>
<event>
 7    1  0.2966651E-011  0.5052885E+02  0.7816164E-02  0.1300439E+00
        -11   -1    0    0    0    0  0.00000000000E+00  0.00000000000E+00  0.45593999997E+02  0.45594000000E+02  0.51100000000E-03 0. -1.
         11   -1    0    0    0    0 -0.00000000000E+00 -0.00000000000E+00 -0.45593999997E+02  0.45594000000E+02  0.51100000000E-03 0.  1.
    9900012    2    1    2    0    0 -0.12548984262E+02  0.36326318735E+02 -0.13269818671E+02  0.50528849414E+02  0.29999968278E+02 0.  0.
         12    1    1    2    0    0  0.12548984262E+02 -0.36326318735E+02  0.13269818671E+02  0.40659150586E+02  0.00000000000E+00 0. -1.
         11    1    3    3    0    0  0.89263028619E+00  0.10200289513E+01  0.35228530111E+01  0.37746180586E+01  0.51100000000E-03 0. -1.
        -11    1    3    3    0    0  0.14820849253E+01  0.22821651712E+02 -0.14695737557E+02  0.27184353316E+02  0.51100000000E-03 0.  1.
        -12    1    3    3    0    0 -0.14923699474E+02  0.12484638071E+02 -0.20969341259E+01  0.19569878040E+02  0.00000000000E+00 0.  1.
</event>
<event>
 7    1  0.2966651E-011  0.5052886E+02  0.7816164E-02  0.1300439E+00
        -11   -1    0    0    0    0  0.00000000000E+00  0.00000000000E+00  0.45593999997E+02  0.45594000000E+02  0.51100000000E-03 0.  1.
         11   -1    0    0    0    0 -0.00000000000E+00 -0.00000000000E+00 -0.45593999997E+02  0.45594000000E+02  0.51100000000E-03 0. -1.
    9900012    2    1    2    0    0  0.39431050202E+02 -0.21779485501E+01  0.96754581628E+01  0.50528859938E+02  0.30000000267E+02 0.  0.
         12    1    1    2    0    0 -0.39431050202E+02  0.21779485501E+01 -0.96754581628E+01  0.40659140062E+02  0.00000000000E+00 0. -1.
         11    1    3    3    0    0  0.62380917961E+01  0.74390508574E-01  0.10362812199E+02  0.12095751326E+02  0.51100000000E-03 0.  1.
        -11    1    3    3    0    0  0.23778152873E+02  0.64277462851E+01 -0.45697938007E+01  0.25051935893E+02  0.51100000000E-03 0. -1.
        -12    1    3    3    0    0  0.94148055332E+01 -0.86800853437E+01  0.38824397642E+01  0.13381172719E+02  0.00000000000E+00 0.  1.
</event>
<event>
 7    1  0.2966651E-011  0.5052881E+02  0.7816164E-02  0.1300439E+00
        -11   -1    0    0    0    0  0.00000000000E+00  0.00000000000E+00  0.45593999997E+02  0.45594000000E+02  0.51100000000E-03 0.  1.
         11   -1    0    0    0    0 -0.00000000000E+00 -0.00000000000E+00 -0.45593999997E+02  0.45594000000E+02  0.51100000000E-03 0. -1.
    9900012    2    1    2    0    0  0.36162572159E+02  0.18429628490E+01  0.18494360562E+02  0.50528812726E+02  0.29999856761E+02 0.  0.
         12    1    1    2    0    0 -0.36162572159E+02 -0.18429628490E+01 -0.18494360562E+02  0.40659187274E+02  0.00000000000E+00 0. -1.
         11    1    3    3    0    0  0.13361163555E+01 -0.17106376496E+01 -0.31214394088E+01  0.38019563816E+01  0.51100000000E-03 0. -1.
        -11    1    3    3    0    0  0.34016721487E+02  0.74387896263E+01  0.23818769256E+02  0.42187755344E+02  0.51100000000E-03 0.  1.
        -12    1    3    3    0    0  0.80973431675E+00 -0.38851891278E+01 -0.22029692850E+01  0.45391010005E+01  0.00000000000E+00 0.  1.
</event>
<event>
 7    1  0.2966651E-011  0.5052885E+02  0.7816164E-02  0.1300439E+00
        -11   -1    0    0    0    0  0.00000000000E+00  0.00000000000E+00  0.45593999997E+02  0.45594000000E+02  0.51100000000E-03 0. -1.
         11   -1    0    0    0    0 -0.00000000000E+00 -0.00000000000E+00 -0.45593999997E+02  0.45594000000E+02  0.51100000000E-03 0.  1.
    9900012    2    1    2    0    0 -0.84300631995E+01  0.36460437242E+02  0.15897698531E+02  0.50528852591E+02  0.29999977937E+02 0.  0.
         12    1    1    2    0    0  0.84300631995E+01 -0.36460437242E+02 -0.15897698531E+02  0.40659147409E+02  0.00000000000E+00 0. -1.
         11    1    3    3    0    0 -0.57058791789E+01  0.18814131532E+02  0.20554167823E+02  0.28442967807E+02  0.51100000000E-03 0. -1.
        -11    1    3    3    0    0 -0.28436916633E+01  0.14745232704E+02  0.16851262647E+01  0.15111191897E+02  0.51100000000E-03 0.  1.
         12    1    3    3    0    0  0.11950764269E+00  0.29010730057E+01 -0.63415955567E+01  0.69746928868E+01  0.00000000000E+00 0. -1.
</event>
<event>
 7    1  0.2966651E-011  0.5052886E+02  0.7816164E-02  0.1300439E+00
        -11   -1    0    0    0    0  0.00000000000E+00  0.00000000000E+00  0.45593999997E+02  0.45594000000E+02  0.51100000000E-03 0.  1.
         11   -1    0    0    0    0 -0.00000000000E+00 -0.00000000000E+00 -0.45593999997E+02  0.45594000000E+02  0.51100000000E-03 0. -1.
    9900012    2    1    2    0    0  0.72301774403E+01  0.30213890037E+02  0.26229961752E+02  0.50528861907E+02  0.30000006251E+02 0.  0.
         12    1    1    2    0    0 -0.72301774403E+01 -0.30213890037E+02 -0.26229961752E+02  0.40659138093E+02  0.00000000000E+00 0. -1.
         11    1    3    3    0    0 -0.84873379452E+01  0.36032331970E+01  0.13734210594E+01  0.93222572661E+01  0.51100000000E-03 0. -1.
        -11    1    3    3    0    0  0.77731819003E+01  0.59372810057E+01  0.33598754507E+01  0.10342264061E+02  0.51100000000E-03 0.  1.
         12    1    3    3    0    0  0.79443334852E+01  0.20673375834E+02  0.21496665242E+02  0.30864340580E+02  0.00000000000E+00 0. -1.
</event>
<event>
 7    1  0.2966651E-011  0.5052883E+02  0.7816164E-02  0.1300439E+00
        -11   -1    0    0    0    0  0.00000000000E+00  0.00000000000E+00  0.45593999997E+02  0.45594000000E+02  0.51100000000E-03 0.  1.
         11   -1    0    0    0    0 -0.00000000000E+00 -0.00000000000E+00 -0.45593999997E+02  0.45594000000E+02  0.51100000000E-03 0. -1.
    9900012    2    1    2    0    0  0.18198001074E+02  0.24450076184E+02  0.26910863365E+02  0.50528830855E+02  0.29999911866E+02 0.  0.
         12    1    1    2    0    0 -0.18198001074E+02 -0.24450076184E+02 -0.26910863365E+02  0.40659169145E+02  0.00000000000E+00 0. -1.
         11    1    3    3    0    0  0.37505271324E+01 -0.40115980034E+01  0.38637164038E+01  0.67147358118E+01  0.51100000000E-03 0. -1.
        -11    1    3    3    0    0  0.93203446430E+01  0.19737761933E+02  0.25333506057E+02  0.33440014949E+02  0.51100000000E-03 0.  1.
        -12    1    3    3    0    0  0.51271292991E+01  0.87239122549E+01 -0.22863590958E+01  0.10374080094E+02  0.00000000000E+00 0.  1.
</event>
<event>
 7    1  0.2966651E-011  0.5052886E+02  0.7816164E-02  0.1300439E+00
        -11   -1    0    0    0    0  0.00000000000E+00  0.00000000000E+00  0.45593999997E+02  0.45594000000E+02  0.51100000000E-03 0.  1.
         11   -1    0    0    0    0 -0.00000000000E+00 -0.00000000000E+00 -0.45593999997E+02  0.45594000000E+02  0.51100000000E-03 0. -1.
    9900012    2    1    2    0    0  0.36580082033E+02  0.17721298311E+02  0.10095249548E+01  0.50528856428E+02  0.29999989598E+02 0.  0.
         12    1    1    2    0    0 -0.36580082033E+02 -0.17721298311E+02 -0.10095249548E+01  0.40659143572E+02  0.00000000000E+00 0. -1.
         11    1    3    3    0    0 -0.64536153164E+00 -0.50907444286E+01 -0.40938939861E+01  0.65644602653E+01  0.51100000000E-03 0. -1.
        -11    1    3    3    0    0  0.22071671569E+02  0.13483862772E+02  0.34356377022E+01  0.26091700746E+02  0.51100000000E-03 0.  1.
         12    1    3    3    0    0  0.15153771996E+02  0.93281799670E+01  0.16677812386E+01  0.17872695417E+02  0.00000000000E+00 0. -1.
</event>
<event>
 7    1  0.2966651E-011  0.5052886E+02  0.7816164E-02  0.1300439E+00
        -11   -1    0    0    0    0  0.00000000000E+00  0.00000000000E+00  0.45593999997E+02  0.45594000000E+02  0.51100000000E-03 0.  1.
         11   -1    0    0    0    0 -0.00000000000E+00 -0.00000000000E+00 -0.45593999997E+02  0.45594000000E+02  0.51100000000E-03 0. -1.
    9900012    2    1    2    0    0 -0.21560126878E+02  0.26137283267E+02  0.22475964098E+02  0.50528860687E+02  0.30000002543E+02 0.  0.
         12    1    1    2    0    0  0.21560126878E+02 -0.26137283267E+02 -0.22475964098E+02  0.40659139313E+02  0.00000000000E+00 0. -1.
         11    1    3    3    0    0 -0.21193437375E+02  0.20796211860E+02  0.94190777916E+01  0.31150653961E+02  0.51100000000E-03 0.  1.
        -11    1    3    3    0    0  0.35097402082E+01 -0.33142343925E+01  0.47124009121E+01  0.67460468835E+01  0.51100000000E-03 0. -1.
        -12    1    3    3    0    0 -0.38764297112E+01  0.86553057994E+01  0.83444853941E+01  0.12632159842E+02  0.00000000000E+00 0.  1.
</event>
<event>
 7    1  0.2966651E-011  0.5052886E+02  0.7816164E-02  0.1300439E+00
        -11   -1    0    0    0    0  0.00000000000E+00  0.00000000000E+00  0.45593999997E+02  0.45594000000E+02  0.51100000000E-03 0.  1.
         11   -1    0    0    0    0 -0.00000000000E+00 -0.00000000000E+00 -0.45593999997E+02  0.45594000000E+02  0.51100000000E-03 0. -1.
    9900012    2    1    2    0    0  0.71386794422E+01 -0.38110340271E+02  0.12239557931E+02  0.50528861321E+02  0.30000004471E+02 0.  0.
         12    1    1    2    0    0 -0.71386794422E+01  0.38110340271E+02 -0.12239557931E+02  0.40659138679E+02  0.00000000000E+00 0. -1.
         11    1    3    3    0    0 -0.25611590483E+01 -0.12287209495E+02 -0.61089030546E+01  0.13959002459E+02  0.51100000000E-03 0. -1.
        -11    1    3    3    0    0  0.83496723522E+01 -0.53539565832E+01  0.15155040540E+01  0.10033874241E+02  0.51100000000E-03 0.  1.
         12    1    3    3    0    0  0.13501661384E+01 -0.20469174193E+02  0.16832956932E+02  0.26535984621E+02  0.00000000000E+00 0. -1.
</event>
<event>
 7    1  0.2966651E-011  0.5052885E+02  0.7816164E-02  0.1300439E+00
        -11   -1    0    0    0    0  0.00000000000E+00  0.00000000000E+00  0.45593999997E+02  0.45594000000E+02  0.51100000000E-03 0.  1.
         11   -1    0    0    0    0 -0.00000000000E+00 -0.00000000000E+00 -0.45593999997E+02  0.45594000000E+02  0.51100000000E-03 0. -1.
    9900012    2    1    2    0    0  0.23973462737E+02 -0.28592133866E+02  0.16153314605E+02  0.50528848418E+02  0.29999965253E+02 0.  0.
         12    1    1    2    0    0 -0.23973462737E+02  0.28592133866E+02 -0.16153314605E+02  0.40659151582E+02  0.00000000000E+00 0. -1.
         11    1    3    3    0    0 -0.15603175422E+01 -0.16314920748E+02  0.70817286042E+01  0.17853910220E+02  0.51100000000E-03 0. -1.
        -11    1    3    3    0    0  0.18881101684E+02 -0.10736192763E+02  0.51336210821E+00  0.21726145004E+02  0.51100000000E-03 0.  1.
        -12    1    3    3    0    0  0.66526785952E+01 -0.15410203555E+01  0.85582238921E+01  0.10948793194E+02  0.00000000000E+00 0.  1.
</event>
<event>
 7    1  0.2966651E-011  0.5052886E+02  0.7816164E-02  0.1300439E+00
        -11   -1    0    0    0    0  0.00000000000E+00  0.00000000000E+00  0.45593999997E+02  0.45594000000E+02  0.51100000000E-03 0.  1.
         11   -1    0    0    0    0 -0.00000000000E+00 -0.00000000000E+00 -0.45593999997E+02  0.45594000000E+02  0.51100000000E-03 0. -1.
    9900012    2    1    2    0    0 -0.31644191286E+02  0.22051730558E+02  0.12865921630E+02  0.50528860780E+02  0.30000002828E+02 0.  0.
         12    1    1    2    0    0  0.31644191286E+02 -0.22051730558E+02 -0.12865921630E+02  0.40659139220E+02  0.00000000000E+00 0. -1.
         11    1    3    3    0    0 -0.35700172858E+01  0.83565871226E+01 -0.11110880811E+01  0.91548942508E+01  0.51100000000E-03 0. -1.
        -11    1    3    3    0    0 -0.16677289506E+02  0.89573294676E+01  0.20087240340E+02  0.27601865176E+02  0.51100000000E-03 0.  1.
        -12    1    3    3    0    0 -0.11396884494E+02  0.47378139674E+01 -0.61102306287E+01  0.13772101354E+02  0.00000000000E+00 0.  1.
</event>
<event>
 7    1  0.2966651E-011  0.5052885E+02  0.7816164E-02  0.1300439E+00
        -11   -1    0    0    0    0  0.00000000000E+00  0.00000000000E+00  0.45593999997E+02  0.45594000000E+02  0.51100000000E-03 0.  1.
         11   -1    0    0    0    0 -0.00000000000E+00 -0.00000000000E+00 -0.45593999997E+02  0.45594000000E+02  0.51100000000E-03 0. -1.
    9900012    2    1    2    0    0  0.61857007619E+01 -0.33778928561E+02  0.21768950221E+02  0.50528854629E+02  0.29999984129E+02 0.  0.
         12    1    1    2    0    0 -0.61857007619E+01  0.33778928561E+02 -0.21768950221E+02  0.40659145371E+02  0.00000000000E+00 0. -1.
         11    1    3    3    0    0 -0.20566891150E+01  0.18249127225E+01  0.44541486864E+01  0.52344739318E+01  0.51100000000E-03 0. -1.
        -11    1    3    3    0    0  0.12961265236E+02 -0.23646852578E+02  0.48690918792E+01  0.27402118337E+02  0.51100000000E-03 0.  1.
        -12    1    3    3    0    0 -0.47188753585E+01 -0.11956988705E+02  0.12445709655E+02  0.17892262360E+02  0.00000000000E+00 0.  1.
</event>
<event>
 7    1  0.2966651E-011  0.5052887E+02  0.7816164E-02  0.1300439E+00
        -11   -1    0    0    0    0  0.00000000000E+00  0.00000000000E+00  0.45593999997E+02  0.45594000000E+02  0.51100000000E-03 0.  1.
         11   -1    0    0    0    0 -0.00000000000E+00 -0.00000000000E+00 -0.45593999997E+02  0.45594000000E+02  0.51100000000E-03 0. -1.
    9900012    2    1    2    0    0 -0.17433972200E+02  0.36668324559E+02  0.21577003581E+01  0.50528867158E+02  0.30000022214E+02 0.  0.
         12    1    1    2    0    0  0.17433972200E+02 -0.36668324559E+02 -0.21577003581E+01  0.40659132842E+02  0.00000000000E+00 0. -1.
         11    1    3    3    0    0 -0.15095607373E+01  0.12155122393E+02 -0.10038656073E+02  0.15836678629E+02  0.51100000000E-03 0. -1.
        -11    1    3    3    0    0 -0.12758967080E+02  0.10455982993E+02  0.11791950617E+02  0.20277300632E+02  0.51100000000E-03 0.  1.
        -12    1    3    3    0    0 -0.31654443822E+01  0.14057219174E+02  0.40440581379E+00  0.14414887897E+02  0.00000000000E+00 0.  1.
</event>
<event>
 7    1  0.2966651E-011  0.5052885E+02  0.7816164E-02  0.1300439E+00
        -11   -1    0    0    0    0  0.00000000000E+00  0.00000000000E+00  0.45593999997E+02  0.45594000000E+02  0.51100000000E-03 0. -1.
         11   -1    0    0    0    0 -0.00000000000E+00 -0.00000000000E+00 -0.45593999997E+02  0.45594000000E+02  0.51100000000E-03 0.  1.
    9900012    2    1    2    0    0 -0.18312944469E+02 -0.32550466525E+02  0.16070778099E+02  0.50528847097E+02  0.29999961235E+02 0.  0.
         12    1    1    2    0    0  0.18312944469E+02  0.32550466525E+02 -0.16070778099E+02  0.40659152903E+02  0.00000000000E+00 0. -1.
         11    1    3    3    0    0 -0.14426082173E+02 -0.87840231955E+01  0.21546685460E+01  0.17026846659E+02  0.51100000000E-03 0.  1.
        -11    1    3    3    0    0  0.47633230474E+00 -0.42671859550E+01  0.12787044973E+02  0.13488672576E+02  0.51100000000E-03 0. -1.
        -12    1    3    3    0    0 -0.43631946011E+01 -0.19499257374E+02  0.11290645797E+01  0.20013327862E+02  0.00000000000E+00 0.  1.
</event>
<event>
 7    1  0.2966651E-011  0.5052887E+02  0.7816164E-02  0.1300439E+00
        -11   -1    0    0    0    0  0.00000000000E+00  0.00000000000E+00  0.45593999997E+02  0.45594000000E+02  0.51100000000E-03 0.  1.
         11   -1    0    0    0    0 -0.00000000000E+00 -0.00000000000E+00 -0.45593999997E+02  0.45594000000E+02  0.51100000000E-03 0. -1.
    9900012    2    1    2    0    0  0.37330521593E+02 -0.15594785023E+02  0.40496434965E+01  0.50528870954E+02  0.30000033751E+02 0.  0.
         12    1    1    2    0    0 -0.37330521593E+02  0.15594785023E+02 -0.40496434965E+01  0.40659129046E+02  0.00000000000E+00 0. -1.
         11    1    3    3    0    0 -0.13378007636E+01  0.18755950847E+01 -0.13247057939E+01  0.26575201799E+01  0.51100000000E-03 0. -1.
        -11    1    3    3    0    0  0.40678592817E+02 -0.17675148819E+02  0.25862450262E+01  0.44428003139E+02  0.51100000000E-03 0.  1.
        -12    1    3    3    0    0 -0.20102704600E+01  0.20476871062E+00  0.27881042642E+01  0.34433476350E+01  0.00000000000E+00 0.  1.
</event>
<event>
 7    1  0.2966651E-011  0.5052887E+02  0.7816164E-02  0.1300439E+00
        -11   -1    0    0    0    0  0.00000000000E+00  0.00000000000E+00  0.45593999997E+02  0.45594000000E+02  0.51100000000E-03 0. -1.
         11   -1    0    0    0    0 -0.00000000000E+00 -0.00000000000E+00 -0.45593999997E+02  0.45594000000E+02  0.51100000000E-03 0.  1.
    9900012    2    1    2    0    0 -0.33329603202E+02 -0.60128630700E+01 -0.22497735790E+02  0.50528867107E+02  0.30000022060E+02 0.  0.
         12    1    1    2    0    0  0.33329603202E+02  0.60128630700E+01  0.22497735790E+02  0.40659132893E+02  0.00000000000E+00 0. -1.
         11    1    3    3    0    0 -0.23573631882E+01  0.72344745401E+01 -0.42322180780E+01  0.87066901399E+01  0.51100000000E-03 0. -1.
        -11    1    3    3    0    0 -0.25856881456E+02 -0.72887209562E+01 -0.64384692964E+01  0.27625308305E+02  0.51100000000E-03 0.  1.
         12    1    3    3    0    0 -0.51153585581E+01 -0.59586166539E+01 -0.11827048415E+02  0.14196868663E+02  0.00000000000E+00 0. -1.
</event>
<event>
 7    1  0.2966651E-011  0.5052887E+02  0.7816164E-02  0.1300439E+00
        -11   -1    0    0    0    0  0.00000000000E+00  0.00000000000E+00  0.45593999997E+02  0.45594000000E+02  0.51100000000E-03 0.  1.
         11   -1    0    0    0    0 -0.00000000000E+00 -0.00000000000E+00 -0.45593999997E+02  0.45594000000E+02  0.51100000000E-03 0. -1.
    9900012    2    1    2    0    0  0.31572565481E+02 -0.25518830854E+02  0.22643963381E+01  0.50528866832E+02  0.30000021222E+02 0.  0.
         12    1    1    2    0    0 -0.31572565481E+02  0.25518830854E+02 -0.22643963381E+01  0.40659133168E+02  0.00000000000E+00 0. -1.
         11    1    3    3    0    0  0.16707357714E+02 -0.22047632196E+01 -0.68225735963E+01  0.18180877134E+02  0.51100000000E-03 0. -1.
        -11    1    3    3    0    0  0.12584768013E+02 -0.25057008874E+02  0.73275824031E+01  0.28981434467E+02  0.51100000000E-03 0.  1.
         12    1    3    3    0    0  0.22804397535E+01  0.17429412390E+01  0.17593875314E+01  0.33665552302E+01  0.00000000000E+00 0. -1.
</event>
<event>
 7    1  0.2966651E-011  0.5052887E+02  0.7816164E-02  0.1300439E+00
        -11   -1    0    0    0    0  0.00000000000E+00  0.00000000000E+00  0.45593999997E+02  0.45594000000E+02  0.51100000000E-03 0.  1.
         11   -1    0    0    0    0 -0.00000000000E+00 -0.00000000000E+00 -0.45593999997E+02  0.45594000000E+02  0.51100000000E-03 0. -1.
    9900012    2    1    2    0    0  0.20278471439E+02  0.24522993459E+02  0.25309501579E+02  0.50528874551E+02  0.30000044686E+02 0.  0.
         12    1    1    2    0    0 -0.20278471439E+02 -0.24522993459E+02 -0.25309501579E+02  0.40659125449E+02  0.00000000000E+00 0. -1.
         11    1    3    3    0    0  0.52567584517E+01 -0.13492358523E+01  0.17482832503E+02  0.18305829109E+02  0.51100000000E-03 0.  1.
        -11    1    3    3    0    0  0.11852796551E+02  0.18727148242E+02  0.15833846872E+01  0.22219405363E+02  0.51100000000E-03 0. -1.
        -12    1    3    3    0    0  0.31689164367E+01  0.71450810690E+01  0.62432843888E+01  0.10003640079E+02  0.00000000000E+00 0.  1.
</event>
<event>
 7    1  0.2966651E-011  0.5052885E+02  0.7816164E-02  0.1300439E+00
        -11   -1    0    0    0    0  0.00000000000E+00  0.00000000000E+00  0.45593999997E+02  0.45594000000E+02  0.51100000000E-03 0. -1.
         11   -1    0    0    0    0 -0.00000000000E+00 -0.00000000000E+00 -0.45593999997E+02  0.45594000000E+02  0.51100000000E-03 0.  1.
    9900012    2    1    2    0    0  0.15407975738E+02 -0.22277321260E+02 -0.30322952472E+02  0.50528853360E+02  0.29999980275E+02 0.  0.
         12    1    1    2    0    0 -0.15407975738E+02  0.22277321260E+02  0.30322952472E+02  0.40659146640E+02  0.00000000000E+00 0. -1.
         11    1    3    3    0    0  0.11140869408E+02  0.20006981461E+01 -0.19456490396E+02  0.22509482069E+02  0.51100000000E-03 0. -1.
        -11    1    3    3    0    0  0.37780426398E+01 -0.17894090117E+02 -0.11470889901E+02  0.21588269562E+02  0.51100000000E-03 0.  1.
         12    1    3    3    0    0  0.48906369011E+00 -0.63839292887E+01  0.60442782491E+00  0.64311017292E+01  0.00000000000E+00 0. -1.
</event>
<event>
 7    1  0.2966651E-011  0.5052885E+02  0.7816164E-02  0.1300439E+00
        -11   -1    0    0    0    0  0.00000000000E+00  0.00000000000E+00  0.45593999997E+02  0.45594000000E+02  0.51100000000E-03 0. -1.
         11   -1    0    0    0    0 -0.00000000000E+00 -0.00000000000E+00 -0.45593999997E+02  0.45594000000E+02  0.51100000000E-03 0.  1.
    9900012    2    1    2    0    0 -0.26634789145E+02 -0.27912412875E+02 -0.12831677236E+02  0.50528846959E+02  0.29999960818E+02 0.  0.
         12    1    1    2    0    0  0.26634789145E+02  0.27912412875E+02  0.12831677236E+02  0.40659153041E+02  0.00000000000E+00 0. -1.
         11    1    3    3    0    0 -0.80080389742E+01 -0.38956228454E+01  0.81954673330E+01  0.12102489440E+02  0.51100000000E-03 0. -1.
        -11    1    3    3    0    0 -0.10613697718E+02 -0.21119787171E+02 -0.15144229630E+02  0.28072115716E+02  0.51100000000E-03 0.  1.
         12    1    3    3    0    0 -0.80130524526E+01 -0.28970028590E+01 -0.58829149382E+01  0.10354241804E+02  0.00000000000E+00 0. -1.
</event>
<event>
 7    1  0.2966651E-011  0.5052887E+02  0.7816164E-02  0.1300439E+00
        -11   -1    0    0    0    0  0.00000000000E+00  0.00000000000E+00  0.45593999997E+02  0.45594000000E+02  0.51100000000E-03 0.  1.
         11   -1    0    0    0    0 -0.00000000000E+00 -0.00000000000E+00 -0.45593999997E+02  0.45594000000E+02  0.51100000000E-03 0. -1.
    9900012    2    1    2    0    0 -0.15050830019E+02  0.34614413797E+02 -0.15115558861E+02  0.50528865154E+02  0.30000016121E+02 0.  0.
         12    1    1    2    0    0  0.15050830019E+02 -0.34614413797E+02  0.15115558861E+02  0.40659134846E+02  0.00000000000E+00 0. -1.
         11    1    3    3    0    0  0.55823484430E+01  0.30002770203E+01 -0.33865433388E+01  0.71856073080E+01  0.51100000000E-03 0. -1.
        -11    1    3    3    0    0 -0.18861394010E+02  0.26370266997E+02 -0.24181671239E+01  0.32511393357E+02  0.51100000000E-03 0.  1.
        -12    1    3    3    0    0 -0.17717844518E+01  0.52438697800E+01 -0.93108483984E+01  0.10831864489E+02  0.00000000000E+00 0.  1.
</event>
<event>
 7    1  0.2966651E-011  0.5052886E+02  0.7816164E-02  0.1300439E+00
        -11   -1    0    0    0    0  0.00000000000E+00  0.00000000000E+00  0.45593999997E+02  0.45594000000E+02  0.51100000000E-03 0.  1.
         11   -1    0    0    0    0 -0.00000000000E+00 -0.00000000000E+00 -0.45593999997E+02  0.45594000000E+02  0.51100000000E-03 0. -1.
    9900012    2    1    2    0    0 -0.18801974949E+01  0.40572454091E+02 -0.18725970618E+01  0.50528858428E+02  0.29999995679E+02 0.  0.
         12    1    1    2    0    0  0.18801974949E+01 -0.40572454091E+02  0.18725970618E+01  0.40659141572E+02  0.00000000000E+00 0. -1.
         11    1    3    3    0    0 -0.67391931228E+01 -0.42878716414E+00 -0.23774149881E+01  0.71590980343E+01  0.51100000000E-03 0. -1.
        -11    1    3    3    0    0  0.23519805403E+01  0.40524436950E+02 -0.58006527597E+00  0.40596776702E+02  0.51100000000E-03 0.  1.
        -12    1    3    3    0    0  0.25070150876E+01  0.47680430461E+00  0.10848832023E+01  0.27729836921E+01  0.00000000000E+00 0.  1.
</event>
<event>
 7    1  0.2966651E-011  0.5052886E+02  0.7816164E-02  0.1300439E+00
        -11   -1    0    0    0    0  0.00000000000E+00  0.00000000000E+00  0.45593999997E+02  0.45594000000E+02  0.51100000000E-03 0.  1.
         11   -1    0    0    0    0 -0.00000000000E+00 -0.00000000000E+00 -0.45593999997E+02  0.45594000000E+02  0.51100000000E-03 0. -1.
    9900012    2    1    2    0    0  0.20064022636E+01  0.21080322496E+02  0.34709652523E+02  0.50528860500E+02  0.30000001976E+02 0.  0.
         12    1    1    2    0    0 -0.20064022636E+01 -0.21080322496E+02 -0.34709652523E+02  0.40659139500E+02  0.00000000000E+00 0. -1.
         11    1    3    3    0    0 -0.15767388475E+01 -0.10886549454E+00  0.19401460547E+01  0.25024236380E+01  0.51100000000E-03 0. -1.
        -11    1    3    3    0    0  0.75946837893E+01 -0.23236193061E+01  0.58098063620E+00  0.79634142991E+01  0.51100000000E-03 0.  1.
        -12    1    3    3    0    0 -0.40115426782E+01  0.23512807297E+02  0.32188525832E+02  0.40063022563E+02  0.00000000000E+00 0.  1.
</event>
<event>
 7    1  0.2966651E-011  0.5052886E+02  0.7816164E-02  0.1300439E+00
        -11   -1    0    0    0    0  0.00000000000E+00  0.00000000000E+00  0.45593999997E+02  0.45594000000E+02  0.51100000000E-03 0.  1.
         11   -1    0    0    0    0 -0.00000000000E+00 -0.00000000000E+00 -0.45593999997E+02  0.45594000000E+02  0.51100000000E-03 0. -1.
    9900012    2    1    2    0    0 -0.76650502371E+01 -0.36772115654E+02  0.15563550990E+02  0.50528860754E+02  0.30000002749E+02 0.  0.
         12    1    1    2    0    0  0.76650502371E+01  0.36772115654E+02 -0.15563550990E+02  0.40659139246E+02  0.00000000000E+00 0. -1.
         11    1    3    3    0    0 -0.13640394126E+02 -0.51398391675E+01  0.10241743560E+01  0.14612571025E+02  0.51100000000E-03 0. -1.
        -11    1    3    3    0    0 -0.14192886418E+01 -0.55894997061E+01  0.23785092079E+01  0.62381241993E+01  0.51100000000E-03 0.  1.
         12    1    3    3    0    0  0.73946325309E+01 -0.26042776780E+02  0.12160867426E+02  0.29678165530E+02  0.00000000000E+00 0. -1.
</event>
<event>
 7    1  0.2966651E-011  0.5052887E+02  0.7816164E-02  0.1300439E+00
        -11   -1    0    0    0    0  0.00000000000E+00  0.00000000000E+00  0.45593999997E+02  0.45594000000E+02  0.51100000000E-03 0.  1.
         11   -1    0    0    0    0 -0.00000000000E+00 -0.00000000000E+00 -0.45593999997E+02  0.45594000000E+02  0.51100000000E-03 0. -1.
    9900012    2    1    2    0    0 -0.34114490538E+02 -0.13427637205E+02  0.17580252354E+02  0.50528865991E+02  0.30000018666E+02 0.  0.
         12    1    1    2    0    0  0.34114490538E+02  0.13427637205E+02 -0.17580252354E+02  0.40659134009E+02  0.00000000000E+00 0. -1.
         11    1    3    3    0    0 -0.66708054403E+01  0.73757032319E+01  0.52370479859E+00  0.99586600687E+01  0.51100000000E-03 0. -1.
        -11    1    3    3    0    0 -0.19050964749E+02 -0.17808090676E+02  0.67343517116E+01  0.26933600662E+02  0.51100000000E-03 0.  1.
        -12    1    3    3    0    0 -0.83927203483E+01 -0.29952497606E+01  0.10322195844E+02  0.13636605260E+02  0.00000000000E+00 0.  1.
</event>
<event>
 7    1  0.2966651E-011  0.5052886E+02  0.7816164E-02  0.1300439E+00
        -11   -1    0    0    0    0  0.00000000000E+00  0.00000000000E+00  0.45593999997E+02  0.45594000000E+02  0.51100000000E-03 0. -1.
         11   -1    0    0    0    0 -0.00000000000E+00 -0.00000000000E+00 -0.45593999997E+02  0.45594000000E+02  0.51100000000E-03 0.  1.
    9900012    2    1    2    0    0 -0.36170196959E+02  0.18286523005E+02  0.32381328267E+01  0.50528861102E+02  0.30000003806E+02 0.  0.
         12    1    1    2    0    0  0.36170196959E+02 -0.18286523005E+02 -0.32381328267E+01  0.40659138898E+02  0.00000000000E+00 0. -1.
         11    1    3    3    0    0 -0.61386686034E+01 -0.45804097641E+01  0.76072519422E+01  0.10795077036E+02  0.51100000000E-03 0. -1.
        -11    1    3    3    0    0 -0.16862645353E+02  0.67242236239E+01 -0.52013851691E+01  0.18884342710E+02  0.51100000000E-03 0.  1.
         12    1    3    3    0    0 -0.13168883003E+02  0.16142709146E+02  0.83226605360E+00  0.20849441357E+02  0.00000000000E+00 0. -1.
</event>
<event>
 7    1  0.2966651E-011  0.5052886E+02  0.7816164E-02  0.1300439E+00
        -11   -1    0    0    0    0  0.00000000000E+00  0.00000000000E+00  0.45593999997E+02  0.45594000000E+02  0.51100000000E-03 0. -1.
         11   -1    0    0    0    0 -0.00000000000E+00 -0.00000000000E+00 -0.45593999997E+02  0.45594000000E+02  0.51100000000E-03 0.  1.
    9900012    2    1    2    0    0  0.30994715624E+02 -0.15075852045E+01 -0.26272043381E+02  0.50528862365E+02  0.30000007646E+02 0.  0.
         12    1    1    2    0    0 -0.30994715624E+02  0.15075852045E+01  0.26272043381E+02  0.40659137635E+02  0.00000000000E+00 0. -1.
         11    1    3    3    0    0  0.13307465028E+02  0.74239203385E+01 -0.15601478422E+02  0.21808469636E+02  0.51100000000E-03 0. -1.
        -11    1    3    3    0    0  0.11260894386E+02 -0.79997488399E+01  0.24985716101E+01  0.14037328244E+02  0.51100000000E-03 0.  1.
         12    1    3    3    0    0  0.64263562095E+01 -0.93175670314E+00 -0.13169136569E+02  0.14683064485E+02  0.00000000000E+00 0. -1.
</event>
<event>
 7    1  0.2966651E-011  0.5052886E+02  0.7816164E-02  0.1300439E+00
        -11   -1    0    0    0    0  0.00000000000E+00  0.00000000000E+00  0.45593999997E+02  0.45594000000E+02  0.51100000000E-03 0.  1.
         11   -1    0    0    0    0 -0.00000000000E+00 -0.00000000000E+00 -0.45593999997E+02  0.45594000000E+02  0.51100000000E-03 0. -1.
    9900012    2    1    2    0    0 -0.29055131648E+02 -0.24413399055E+02  0.14592842448E+02  0.50528858603E+02  0.29999996208E+02 0.  0.
         12    1    1    2    0    0  0.29055131648E+02  0.24413399055E+02 -0.14592842448E+02  0.40659141397E+02  0.00000000000E+00 0. -1.
         11    1    3    3    0    0 -0.10467145280E+02  0.31152170610E+01  0.20778915372E+01  0.11116804449E+02  0.51100000000E-03 0. -1.
        -11    1    3    3    0    0 -0.89672134201E+01 -0.16586195467E+02 -0.18569816649E+01  0.18946270814E+02  0.51100000000E-03 0.  1.
        -12    1    3    3    0    0 -0.96207729473E+01 -0.10942420649E+02  0.14371932575E+02  0.20465783340E+02  0.00000000000E+00 0.  1.
</event>
<event>
 7    1  0.2966651E-011  0.5052887E+02  0.7816164E-02  0.1300439E+00
        -11   -1    0    0    0    0  0.00000000000E+00  0.00000000000E+00  0.45593999997E+02  0.45594000000E+02  0.51100000000E-03 0.  1.
         11   -1    0    0    0    0 -0.00000000000E+00 -0.00000000000E+00 -0.45593999997E+02  0.45594000000E+02  0.51100000000E-03 0. -1.
    9900012    2    1    2    0    0 -0.34025070697E+02  0.14803889195E+02 -0.16622394871E+02  0.50528873319E+02  0.30000040941E+02 0.  0.
         12    1    1    2    0    0  0.34025070697E+02 -0.14803889195E+02  0.16622394871E+02  0.40659126681E+02  0.00000000000E+00 0. -1.
         11    1    3    3    0    0 -0.24119248701E+02  0.10998546474E+02 -0.23377879802E+02  0.35344468403E+02  0.51100000000E-03 0. -1.
        -11    1    3    3    0    0 -0.20450401689E-01  0.22399037572E+01  0.43469117649E+01  0.48901154601E+01  0.51100000000E-03 0.  1.
         12    1    3    3    0    0 -0.98853715940E+01  0.15654389636E+01  0.24085731657E+01  0.10294289456E+02  0.00000000000E+00 0. -1.
</event>
<event>
 7    1  0.2966651E-011  0.5052885E+02  0.7816164E-02  0.1300439E+00
        -11   -1    0    0    0    0  0.00000000000E+00  0.00000000000E+00  0.45593999997E+02  0.45594000000E+02  0.51100000000E-03 0.  1.
         11   -1    0    0    0    0 -0.00000000000E+00 -0.00000000000E+00 -0.45593999997E+02  0.45594000000E+02  0.51100000000E-03 0. -1.
    9900012    2    1    2    0    0  0.22328385692E+02 -0.16553696762E+02  0.29674642751E+02  0.50528854577E+02  0.29999983972E+02 0.  0.
         12    1    1    2    0    0 -0.22328385692E+02  0.16553696762E+02 -0.29674642751E+02  0.40659145423E+02  0.00000000000E+00 0. -1.
         11    1    3    3    0    0  0.13676272620E+02 -0.17671413583E+02  0.68763079190E+01  0.23379540236E+02  0.51100000000E-03 0. -1.
        -11    1    3    3    0    0  0.99421633188E+01 -0.99789320933E+00  0.10085248280E+02  0.14196993888E+02  0.51100000000E-03 0.  1.
         12    1    3    3    0    0 -0.12900502463E+01  0.21156100303E+01  0.12713086552E+02  0.12952320453E+02  0.00000000000E+00 0. -1.
</event>
<event>
 7    1  0.2966651E-011  0.5052887E+02  0.7816164E-02  0.1300439E+00
        -11   -1    0    0    0    0  0.00000000000E+00  0.00000000000E+00  0.45593999997E+02  0.45594000000E+02  0.51100000000E-03 0.  1.
         11   -1    0    0    0    0 -0.00000000000E+00 -0.00000000000E+00 -0.45593999997E+02  0.45594000000E+02  0.51100000000E-03 0. -1.
    9900012    2    1    2    0    0  0.14971810904E+02 -0.21284970267E+02  0.31240348922E+02  0.50528874557E+02  0.30000044703E+02 0.  0.
         12    1    1    2    0    0 -0.14971810904E+02  0.21284970267E+02 -0.31240348922E+02  0.40659125443E+02  0.00000000000E+00 0. -1.
         11    1    3    3    0    0  0.71295133914E+01 -0.42282596324E+01 -0.33487520984E+01  0.89399262634E+01  0.51100000000E-03 0. -1.
        -11    1    3    3    0    0 -0.46533013670E-02 -0.14114802273E+02  0.16928603092E+02  0.22040990626E+02  0.51100000000E-03 0.  1.
        -12    1    3    3    0    0  0.78469508141E+01 -0.29419083610E+01  0.17660497929E+02  0.19547957668E+02  0.00000000000E+00 0.  1.
</event>
<event>
 7    1  0.2966651E-011  0.5052881E+02  0.7816164E-02  0.1300439E+00
        -11   -1    0    0    0    0  0.00000000000E+00  0.00000000000E+00  0.45593999997E+02  0.45594000000E+02  0.51100000000E-03 0. -1.
         11   -1    0    0    0    0 -0.00000000000E+00 -0.00000000000E+00 -0.45593999997E+02  0.45594000000E+02  0.51100000000E-03 0.  1.
    9900012    2    1    2    0    0 -0.26041107811E+02 -0.43111110340E+01 -0.30926437588E+02  0.50528812646E+02  0.29999856519E+02 0.  0.
         12    1    1    2    0    0  0.26041107811E+02  0.43111110340E+01  0.30926437588E+02  0.40659187354E+02  0.00000000000E+00 0. -1.
         11    1    3    3    0    0 -0.16405733083E+02 -0.80043971814E+01 -0.81052961675E+01  0.19972838518E+02  0.51100000000E-03 0. -1.
        -11    1    3    3    0    0 -0.94148176800E+00  0.96993480408E+00 -0.21271812006E+02  0.21314716694E+02  0.51100000000E-03 0.  1.
         12    1    3    3    0    0 -0.86938929605E+01  0.27233513433E+01 -0.15493294142E+01  0.92412574351E+01  0.00000000000E+00 0. -1.
</event>
<event>
 7    1  0.2966651E-011  0.5052886E+02  0.7816164E-02  0.1300439E+00
        -11   -1    0    0    0    0  0.00000000000E+00  0.00000000000E+00  0.45593999997E+02  0.45594000000E+02  0.51100000000E-03 0.  1.
         11   -1    0    0    0    0 -0.00000000000E+00 -0.00000000000E+00 -0.45593999997E+02  0.45594000000E+02  0.51100000000E-03 0. -1.
    9900012    2    1    2    0    0  0.37702331440E+02  0.14568654332E+02  0.44106819312E+01  0.50528860805E+02  0.30000002901E+02 0.  0.
         12    1    1    2    0    0 -0.37702331440E+02 -0.14568654332E+02 -0.44106819312E+01  0.40659139195E+02  0.00000000000E+00 0. -1.
         11    1    3    3    0    0 -0.36760549445E+01 -0.93163184283E+00  0.10552026705E+01  0.39363397697E+01  0.51100000000E-03 0. -1.
        -11    1    3    3    0    0  0.25001722929E+02  0.11516216333E+02  0.87700143649E+01  0.28889834549E+02  0.51100000000E-03 0.  1.
        -12    1    3    3    0    0  0.16376663455E+02  0.39840698414E+01 -0.54145351042E+01  0.17702686486E+02  0.00000000000E+00 0.  1.
</event>
<event>
 7    1  0.2966651E-011  0.5052884E+02  0.7816164E-02  0.1300439E+00
        -11   -1    0    0    0    0  0.00000000000E+00  0.00000000000E+00  0.45593999997E+02  0.45594000000E+02  0.51100000000E-03 0.  1.
         11   -1    0    0    0    0 -0.00000000000E+00 -0.00000000000E+00 -0.45593999997E+02  0.45594000000E+02  0.51100000000E-03 0. -1.
    9900012    2    1    2    0    0 -0.73000416155E+01 -0.24461870449E+02  0.31646381595E+02  0.50528841357E+02  0.29999943790E+02 0.  0.
         12    1    1    2    0    0  0.73000416155E+01  0.24461870449E+02 -0.31646381595E+02  0.40659158643E+02  0.00000000000E+00 0. -1.
         11    1    3    3    0    0 -0.11843493733E+02 -0.11846723988E+02  0.13778584782E+02  0.21690150113E+02  0.51100000000E-03 0. -1.
        -11    1    3    3    0    0  0.10123292743E+02 -0.10449428768E+02  0.63824828983E+01  0.15887344201E+02  0.51100000000E-03 0.  1.
        -12    1    3    3    0    0 -0.55798406257E+01 -0.21657176929E+01  0.11485313915E+02  0.12951347044E+02  0.00000000000E+00 0.  1.
</event>
<event>
 7    1  0.2966651E-011  0.5052888E+02  0.7816164E-02  0.1300439E+00
        -11   -1    0    0    0    0  0.00000000000E+00  0.00000000000E+00  0.45593999997E+02  0.45594000000E+02  0.51100000000E-03 0.  1.
         11   -1    0    0    0    0 -0.00000000000E+00 -0.00000000000E+00 -0.45593999997E+02  0.45594000000E+02  0.51100000000E-03 0. -1.
    9900012    2    1    2    0    0 -0.33572670292E+02  0.15052278363E+02  0.17305164625E+02  0.50528880517E+02  0.30000062820E+02 0.  0.
         12    1    1    2    0    0  0.33572670292E+02 -0.15052278363E+02 -0.17305164625E+02  0.40659119483E+02  0.00000000000E+00 0. -1.
         11    1    3    3    0    0 -0.83844452323E+01  0.15947746740E+02  0.43949059020E+01  0.18545747386E+02  0.51100000000E-03 0. -1.
        -11    1    3    3    0    0 -0.24583058538E+02 -0.24119921097E+01  0.15324467675E+02  0.29068604762E+02  0.51100000000E-03 0.  1.
         12    1    3    3    0    0 -0.60516652117E+00  0.15165237323E+01 -0.24142089526E+01  0.29145283693E+01  0.00000000000E+00 0. -1.
</event>
<event>
 7    1  0.2966651E-011  0.5052887E+02  0.7816164E-02  0.1300439E+00
        -11   -1    0    0    0    0  0.00000000000E+00  0.00000000000E+00  0.45593999997E+02  0.45594000000E+02  0.51100000000E-03 0.  1.
         11   -1    0    0    0    0 -0.00000000000E+00 -0.00000000000E+00 -0.45593999997E+02  0.45594000000E+02  0.51100000000E-03 0. -1.
    9900012    2    1    2    0    0  0.12964442294E+01  0.11926186059E+02  0.38849073895E+02  0.50528865429E+02  0.30000016958E+02 0.  0.
         12    1    1    2    0    0 -0.12964442294E+01 -0.11926186059E+02 -0.38849073895E+02  0.40659134571E+02  0.00000000000E+00 0. -1.
         11    1    3    3    0    0  0.13665411242E+02  0.26710238388E+01  0.17940850329E+02  0.22710172688E+02  0.51100000000E-03 0.  1.
        -11    1    3    3    0    0 -0.10584086843E+02  0.30074847896E+01  0.16956834042E+02  0.20213908085E+02  0.51100000000E-03 0. -1.
         12    1    3    3    0    0 -0.17848801689E+01  0.62476774302E+01  0.39513895246E+01  0.76047846560E+01  0.00000000000E+00 0. -1.
</event>
<event>
 7    1  0.2966651E-011  0.5052886E+02  0.7816164E-02  0.1300439E+00
        -11   -1    0    0    0    0  0.00000000000E+00  0.00000000000E+00  0.45593999997E+02  0.45594000000E+02  0.51100000000E-03 0.  1.
         11   -1    0    0    0    0 -0.00000000000E+00 -0.00000000000E+00 -0.45593999997E+02  0.45594000000E+02  0.51100000000E-03 0. -1.
    9900012    2    1    2    0    0 -0.33280555825E+02  0.23052597712E+02  0.37614031820E+01  0.50528858209E+02  0.29999995013E+02 0.  0.
         12    1    1    2    0    0  0.33280555825E+02 -0.23052597712E+02 -0.37614031820E+01  0.40659141791E+02  0.00000000000E+00 0. -1.
         11    1    3    3    0    0 -0.26877045507E+02  0.45552884970E+01  0.35348683222E+01  0.27488570767E+02  0.51100000000E-03 0. -1.
        -11    1    3    3    0    0 -0.26269342268E+00  0.14771708975E+02  0.34437213324E+01  0.15170089346E+02  0.51100000000E-03 0.  1.
         12    1    3    3    0    0 -0.61408168945E+01  0.37256002394E+01 -0.32171864726E+01  0.78701980964E+01  0.00000000000E+00 0. -1.
</event>
<event>
 7    1  0.2966651E-011  0.5052887E+02  0.7816164E-02  0.1300439E+00
        -11   -1    0    0    0    0  0.00000000000E+00  0.00000000000E+00  0.45593999997E+02  0.45594000000E+02  0.51100000000E-03 0. -1.
         11   -1    0    0    0    0 -0.00000000000E+00 -0.00000000000E+00 -0.45593999997E+02  0.45594000000E+02  0.51100000000E-03 0.  1.
    9900012    2    1    2    0    0  0.17449946172E+02  0.24746652451E+02 -0.27134254491E+02  0.50528865777E+02  0.30000018017E+02 0.  0.
         12    1    1    2    0    0 -0.17449946172E+02 -0.24746652451E+02  0.27134254491E+02  0.40659134223E+02  0.00000000000E+00 0. -1.
         11    1    3    3    0    0  0.10338477713E+02 -0.15619000244E+01 -0.21974760125E+01  0.10684219868E+02  0.51100000000E-03 0. -1.
        -11    1    3    3    0    0  0.80898341802E+01  0.22139194041E+02 -0.12477290505E+02  0.26669685196E+02  0.51100000000E-03 0.  1.
         12    1    3    3    0    0 -0.97836572063E+00  0.41693584342E+01 -0.12459487973E+02  0.13174960713E+02  0.00000000000E+00 0. -1.
</event>
<event>
 7    1  0.2966651E-011  0.5052887E+02  0.7816164E-02  0.1300439E+00
        -11   -1    0    0    0    0  0.00000000000E+00  0.00000000000E+00  0.45593999997E+02  0.45594000000E+02  0.51100000000E-03 0. -1.
         11   -1    0    0    0    0 -0.00000000000E+00 -0.00000000000E+00 -0.45593999997E+02  0.45594000000E+02  0.51100000000E-03 0.  1.
    9900012    2    1    2    0    0  0.12368291560E+02 -0.31614398149E+02 -0.22376783263E+02  0.50528865287E+02  0.30000016526E+02 0.  0.
         12    1    1    2    0    0 -0.12368291560E+02  0.31614398149E+02  0.22376783263E+02  0.40659134713E+02  0.00000000000E+00 0. -1.
         11    1    3    3    0    0  0.86661710920E+01  0.23479745214E+01 -0.34175737110E+01  0.96070451274E+01  0.51100000000E-03 0. -1.
        -11    1    3    3    0    0  0.79597891156E+01 -0.24438496979E+02 -0.11883460672E+02  0.28316338308E+02  0.51100000000E-03 0.  1.
         12    1    3    3    0    0 -0.42576686480E+01 -0.95238756920E+01 -0.70757488795E+01  0.12605481852E+02  0.00000000000E+00 0. -1.
</event>
<event>
 7    1  0.2966651E-011  0.5052886E+02  0.7816164E-02  0.1300439E+00
        -11   -1    0    0    0    0  0.00000000000E+00  0.00000000000E+00  0.45593999997E+02  0.45594000000E+02  0.51100000000E-03 0. -1.
         11   -1    0    0    0    0 -0.00000000000E+00 -0.00000000000E+00 -0.45593999997E+02  0.45594000000E+02  0.51100000000E-03 0.  1.
    9900012    2    1    2    0    0 -0.27853233692E+02 -0.24904429816E+02 -0.16035344134E+02  0.50528861876E+02  0.30000006157E+02 0.  0.
         12    1    1    2    0    0  0.27853233692E+02  0.24904429816E+02  0.16035344134E+02  0.40659138124E+02  0.00000000000E+00 0. -1.
         11    1    3    3    0    0 -0.31304435383E+01  0.11320162314E+01  0.30685261639E+01  0.45273602214E+01  0.51100000000E-03 0. -1.
        -11    1    3    3    0    0 -0.16475097456E+02 -0.28301659508E+02 -0.18024903104E+02  0.37380608599E+02  0.51100000000E-03 0.  1.
        -12    1    3    3    0    0 -0.82476926981E+01  0.22652134607E+01 -0.10789671931E+01  0.86208930551E+01  0.00000000000E+00 0.  1.
</event>
<event>
 7    1  0.2966651E-011  0.5052886E+02  0.7816164E-02  0.1300439E+00
        -11   -1    0    0    0    0  0.00000000000E+00  0.00000000000E+00  0.45593999997E+02  0.45594000000E+02  0.51100000000E-03 0.  1.
         11   -1    0    0    0    0 -0.00000000000E+00 -0.00000000000E+00 -0.45593999997E+02  0.45594000000E+02  0.51100000000E-03 0. -1.
    9900012    2    1    2    0    0 -0.34863868741E+02 -0.10258540524E+02  0.18232899464E+02  0.50528860558E+02  0.30000002152E+02 0.  0.
         12    1    1    2    0    0  0.34863868741E+02  0.10258540524E+02 -0.18232899464E+02  0.40659139442E+02  0.00000000000E+00 0. -1.
         11    1    3    3    0    0 -0.20521596277E+01 -0.12389294971E+02  0.30982310376E+01  0.12934644365E+02  0.51100000000E-03 0. -1.
        -11    1    3    3    0    0 -0.13104165738E+02  0.56866951453E+01  0.48791459794E+01  0.15095155750E+02  0.51100000000E-03 0.  1.
        -12    1    3    3    0    0 -0.19707543375E+02 -0.35559406983E+01  0.10255522447E+02  0.22499060443E+02  0.00000000000E+00 0.  1.
</event>
<event>
 7    1  0.2966651E-011  0.5052886E+02  0.7816164E-02  0.1300439E+00
        -11   -1    0    0    0    0  0.00000000000E+00  0.00000000000E+00  0.45593999997E+02  0.45594000000E+02  0.51100000000E-03 0.  1.
         11   -1    0    0    0    0 -0.00000000000E+00 -0.00000000000E+00 -0.45593999997E+02  0.45594000000E+02  0.51100000000E-03 0. -1.
    9900012    2    1    2    0    0 -0.24714909207E+02  0.31645952035E+02  0.63931771597E+01  0.50528859189E+02  0.29999997991E+02 0.  0.
         12    1    1    2    0    0  0.24714909207E+02 -0.31645952035E+02 -0.63931771597E+01  0.40659140811E+02  0.00000000000E+00 0. -1.
         11    1    3    3    0    0  0.13400465517E+01  0.42424046998E+00 -0.36300610975E+01  0.38926916870E+01  0.51100000000E-03 0. -1.
        -11    1    3    3    0    0 -0.25035045042E+02  0.32219082219E+02  0.13419591897E+02  0.42952394418E+02  0.51100000000E-03 0.  1.
        -12    1    3    3    0    0 -0.10199107167E+01 -0.99737065387E+00 -0.33963536399E+01  0.36837730846E+01  0.00000000000E+00 0.  1.
</event>
<event>
 7    1  0.2966651E-011  0.5052878E+02  0.7816164E-02  0.1300439E+00
        -11   -1    0    0    0    0  0.00000000000E+00  0.00000000000E+00  0.45593999997E+02  0.45594000000E+02  0.51100000000E-03 0.  1.
         11   -1    0    0    0    0 -0.00000000000E+00 -0.00000000000E+00 -0.45593999997E+02  0.45594000000E+02  0.51100000000E-03 0. -1.
    9900012    2    1    2    0    0  0.18350639009E+02 -0.60697062889E+01  0.35771287122E+02  0.50528778797E+02  0.29999753630E+02 0.  0.
         12    1    1    2    0    0 -0.18350639009E+02  0.60697062889E+01 -0.35771287122E+02  0.40659221203E+02  0.00000000000E+00 0. -1.
         11    1    3    3    0    0  0.52468832109E+00  0.31698956660E+01  0.48085795300E+00  0.32488091664E+01  0.51100000000E-03 0. -1.
        -11    1    3    3    0    0  0.23271479729E+02 -0.54613248911E+01  0.22272421352E+02  0.32671831774E+02  0.51100000000E-03 0.  1.
        -12    1    3    3    0    0 -0.54455290409E+01 -0.37782770638E+01  0.13018007817E+02  0.14608137856E+02  0.00000000000E+00 0.  1.
</event>
<event>
 7    1  0.2966651E-011  0.5052886E+02  0.7816164E-02  0.1300439E+00
        -11   -1    0    0    0    0  0.00000000000E+00  0.00000000000E+00  0.45593999997E+02  0.45594000000E+02  0.51100000000E-03 0.  1.
         11   -1    0    0    0    0 -0.00000000000E+00 -0.00000000000E+00 -0.45593999997E+02  0.45594000000E+02  0.51100000000E-03 0. -1.
    9900012    2    1    2    0    0  0.50317168615E+01  0.21960065101E+02  0.33846760517E+02  0.50528857961E+02  0.29999994259E+02 0.  0.
         12    1    1    2    0    0 -0.50317168615E+01 -0.21960065101E+02 -0.33846760517E+02  0.40659142039E+02  0.00000000000E+00 0. -1.
         11    1    3    3    0    0  0.14416374081E+02  0.43610025837E+01  0.17457080793E+02  0.23056449321E+02  0.51100000000E-03 0. -1.
        -11    1    3    3    0    0 -0.45183852442E+01  0.14997937301E+02  0.84327295969E+01  0.17789459160E+02  0.51100000000E-03 0.  1.
         12    1    3    3    0    0 -0.48662719753E+01  0.26011252170E+01  0.79569501266E+01  0.96829494808E+01  0.00000000000E+00 0. -1.
</event>
<event>
 7    1  0.2966651E-011  0.5052886E+02  0.7816164E-02  0.1300439E+00
        -11   -1    0    0    0    0  0.00000000000E+00  0.00000000000E+00  0.45593999997E+02  0.45594000000E+02  0.51100000000E-03 0. -1.
         11   -1    0    0    0    0 -0.00000000000E+00 -0.00000000000E+00 -0.45593999997E+02  0.45594000000E+02  0.51100000000E-03 0.  1.
    9900012    2    1    2    0    0  0.28668238129E+02 -0.24242305285E+02 -0.15607965494E+02  0.50528857980E+02  0.29999994315E+02 0.  0.
         12    1    1    2    0    0 -0.28668238129E+02  0.24242305285E+02  0.15607965494E+02  0.40659142020E+02  0.00000000000E+00 0. -1.
         11    1    3    3    0    0  0.14821491939E+01 -0.19217249953E+02 -0.47309013003E+01  0.19846432661E+02  0.51100000000E-03 0. -1.
        -11    1    3    3    0    0  0.19102040747E+02 -0.15509338409E+00 -0.57886658395E+01  0.19960477627E+02  0.51100000000E-03 0.  1.
         12    1    3    3    0    0  0.80840481883E+01 -0.48699619476E+01 -0.50883983543E+01  0.10721947691E+02  0.00000000000E+00 0. -1.
</event>
<event>
 7    1  0.2966651E-011  0.5052895E+02  0.7816164E-02  0.1300438E+00
        -11   -1    0    0    0    0  0.00000000000E+00  0.00000000000E+00  0.45593999997E+02  0.45594000000E+02  0.51100000000E-03 0.  1.
         11   -1    0    0    0    0 -0.00000000000E+00 -0.00000000000E+00 -0.45593999997E+02  0.45594000000E+02  0.51100000000E-03 0. -1.
    9900012    2    1    2    0    0  0.17318555963E+02  0.27739602011E+02  0.24160716475E+02  0.50528952779E+02  0.30000282465E+02 0.  0.
         12    1    1    2    0    0 -0.17318555963E+02 -0.27739602011E+02 -0.24160716475E+02  0.40659047221E+02  0.00000000000E+00 0. -1.
         11    1    3    3    0    0  0.47404704490E+01  0.51619401542E+01  0.31927081464E+01  0.77013681773E+01  0.51100000000E-03 0. -1.
        -11    1    3    3    0    0  0.10232796599E+02  0.37640113661E+01  0.21230448682E+02  0.23866500776E+02  0.51100000000E-03 0.  1.
        -12    1    3    3    0    0  0.23452889152E+01  0.18813650491E+02 -0.26244035391E+00  0.18961083825E+02  0.00000000000E+00 0.  1.
</event>
<event>
 7    1  0.2966651E-011  0.5052886E+02  0.7816164E-02  0.1300439E+00
        -11   -1    0    0    0    0  0.00000000000E+00  0.00000000000E+00  0.45593999997E+02  0.45594000000E+02  0.51100000000E-03 0.  1.
         11   -1    0    0    0    0 -0.00000000000E+00 -0.00000000000E+00 -0.45593999997E+02  0.45594000000E+02  0.51100000000E-03 0. -1.
    9900012    2    1    2    0    0  0.24346825937E+02 -0.28089005578E+02 -0.16474394978E+02  0.50528857640E+02  0.29999993282E+02 0.  0.
         12    1    1    2    0    0 -0.24346825937E+02  0.28089005578E+02  0.16474394978E+02  0.40659142360E+02  0.00000000000E+00 0. -1.
         11    1    3    3    0    0  0.75408509110E+01  0.15655930203E+01  0.18002361515E+01  0.79092581466E+01  0.51100000000E-03 0. -1.
        -11    1    3    3    0    0  0.72521105551E+01 -0.16486790513E+02 -0.19198607592E+02  0.26324777352E+02  0.51100000000E-03 0.  1.
        -12    1    3    3    0    0  0.95538644708E+01 -0.13167808086E+02  0.92397646220E+00  0.16294822141E+02  0.00000000000E+00 0.  1.
</event>
<event>
 7    1  0.2966651E-011  0.5052886E+02  0.7816164E-02  0.1300439E+00
        -11   -1    0    0    0    0  0.00000000000E+00  0.00000000000E+00  0.45593999997E+02  0.45594000000E+02  0.51100000000E-03 0. -1.
         11   -1    0    0    0    0 -0.00000000000E+00 -0.00000000000E+00 -0.45593999997E+02  0.45594000000E+02  0.51100000000E-03 0.  1.
    9900012    2    1    2    0    0 -0.29559470159E+02  0.27358589047E+02 -0.55597998119E+01  0.50528855337E+02  0.29999986284E+02 0.  0.
         12    1    1    2    0    0  0.29559470159E+02 -0.27358589047E+02  0.55597998119E+01  0.40659144663E+02  0.00000000000E+00 0. -1.
         11    1    3    3    0    0 -0.41119694750E+01 -0.45874131024E+01  0.42764287854E+01  0.74993663301E+01  0.51100000000E-03 0. -1.
        -11    1    3    3    0    0 -0.25515257690E+02  0.32484440563E+02 -0.99171992011E+01  0.42480796766E+02  0.51100000000E-03 0.  1.
        -12    1    3    3    0    0  0.67757005532E-01 -0.53843841323E+00  0.80970603811E-01  0.54869224099E+00  0.00000000000E+00 0.  1.
</event>
<event>
 7    1  0.2966651E-011  0.5052888E+02  0.7816164E-02  0.1300439E+00
        -11   -1    0    0    0    0  0.00000000000E+00  0.00000000000E+00  0.45593999997E+02  0.45594000000E+02  0.51100000000E-03 0. -1.
         11   -1    0    0    0    0 -0.00000000000E+00 -0.00000000000E+00 -0.45593999997E+02  0.45594000000E+02  0.51100000000E-03 0.  1.
    9900012    2    1    2    0    0  0.11560609642E+02 -0.11055752108E+02 -0.37380294650E+02  0.50528883211E+02  0.30000071008E+02 0.  0.
         12    1    1    2    0    0 -0.11560609642E+02  0.11055752108E+02  0.37380294650E+02  0.40659116789E+02  0.00000000000E+00 0. -1.
         11    1    3    3    0    0  0.40726845515E+01  0.13604691267E+01  0.19958352957E+01  0.47350812548E+01  0.51100000000E-03 0. -1.
        -11    1    3    3    0    0  0.71294482111E+01  0.16246603167E+01 -0.23427472443E+02  0.24542107047E+02  0.51100000000E-03 0.  1.
        -12    1    3    3    0    0  0.35847687897E+00 -0.14040881551E+02 -0.15948657502E+02  0.21251694910E+02  0.00000000000E+00 0.  1.
</event>
<event>
 7    1  0.2966651E-011  0.5052891E+02  0.7816164E-02  0.1300439E+00
        -11   -1    0    0    0    0  0.00000000000E+00  0.00000000000E+00  0.45593999997E+02  0.45594000000E+02  0.51100000000E-03 0.  1.
         11   -1    0    0    0    0 -0.00000000000E+00 -0.00000000000E+00 -0.45593999997E+02  0.45594000000E+02  0.51100000000E-03 0. -1.
    9900012    2    1    2    0    0  0.32663302790E+02 -0.23793711416E+02  0.44866220851E+01  0.50528907169E+02  0.30000143831E+02 0.  0.
         12    1    1    2    0    0 -0.32663302790E+02  0.23793711416E+02 -0.44866220851E+01  0.40659092831E+02  0.00000000000E+00 0. -1.
         11    1    3    3    0    0  0.64248046250E+00 -0.15380364683E+02  0.53172973152E+00  0.15402958667E+02  0.51100000000E-03 0. -1.
        -11    1    3    3    0    0  0.17919405840E+02 -0.27046027193E+01 -0.30505846183E+01  0.18377324297E+02  0.51100000000E-03 0.  1.
        -12    1    3    3    0    0  0.14101416488E+02 -0.57087440133E+01  0.70054769719E+01  0.16748624205E+02  0.00000000000E+00 0.  1.
</event>
<event>
 7    1  0.2966651E-011  0.5052886E+02  0.7816164E-02  0.1300439E+00
        -11   -1    0    0    0    0  0.00000000000E+00  0.00000000000E+00  0.45593999997E+02  0.45594000000E+02  0.51100000000E-03 0.  1.
         11   -1    0    0    0    0 -0.00000000000E+00 -0.00000000000E+00 -0.45593999997E+02  0.45594000000E+02  0.51100000000E-03 0. -1.
    9900012    2    1    2    0    0 -0.38071641454E+02 -0.13385663444E+02 -0.49537665386E+01  0.50528859923E+02  0.30000000223E+02 0.  0.
         12    1    1    2    0    0  0.38071641454E+02  0.13385663444E+02  0.49537665386E+01  0.40659140077E+02  0.00000000000E+00 0. -1.
         11    1    3    3    0    0 -0.26009623325E+02  0.20668955685E+01  0.43877464131E+00  0.26095307744E+02  0.51100000000E-03 0. -1.
        -11    1    3    3    0    0  0.26781046309E+01 -0.22150739093E+01  0.99935915730E+00  0.36162848096E+01  0.51100000000E-03 0.  1.
         12    1    3    3    0    0 -0.14740122760E+02 -0.13237485103E+02 -0.63919003373E+01  0.20817267370E+02  0.00000000000E+00 0. -1.
</event>
<event>
 7    1  0.2966651E-011  0.5052886E+02  0.7816164E-02  0.1300439E+00
        -11   -1    0    0    0    0  0.00000000000E+00  0.00000000000E+00  0.45593999997E+02  0.45594000000E+02  0.51100000000E-03 0.  1.
         11   -1    0    0    0    0 -0.00000000000E+00 -0.00000000000E+00 -0.45593999997E+02  0.45594000000E+02  0.51100000000E-03 0. -1.
    9900012    2    1    2    0    0 -0.28408606157E+02  0.66510201203E+01  0.28317500210E+02  0.50528858462E+02  0.29999995782E+02 0.  0.
         12    1    1    2    0    0  0.28408606157E+02 -0.66510201203E+01 -0.28317500210E+02  0.40659141538E+02  0.00000000000E+00 0. -1.
         11    1    3    3    0    0 -0.30113453584E+00  0.40845334154E+01  0.15839455431E+02  0.16360392533E+02  0.51100000000E-03 0. -1.
        -11    1    3    3    0    0 -0.25489399094E+02  0.14014255237E+01  0.48028567371E+01  0.25975775114E+02  0.51100000000E-03 0.  1.
        -12    1    3    3    0    0 -0.26180725271E+01  0.11650611812E+01  0.76751880414E+01  0.81926908147E+01  0.00000000000E+00 0.  1.
</event>
<event>
 7    1  0.2966651E-011  0.5052885E+02  0.7816164E-02  0.1300439E+00
        -11   -1    0    0    0    0  0.00000000000E+00  0.00000000000E+00  0.45593999997E+02  0.45594000000E+02  0.51100000000E-03 0. -1.
         11   -1    0    0    0    0 -0.00000000000E+00 -0.00000000000E+00 -0.45593999997E+02  0.45594000000E+02  0.51100000000E-03 0.  1.
    9900012    2    1    2    0    0 -0.19731759203E+01 -0.15534538313E+02 -0.37522678480E+02  0.50528847228E+02  0.29999961635E+02 0.  0.
         12    1    1    2    0    0  0.19731759203E+01  0.15534538313E+02  0.37522678480E+02  0.40659152772E+02  0.00000000000E+00 0. -1.
         11    1    3    3    0    0  0.24075133054E+01  0.42978258672E+01 -0.35995283533E+01  0.61011500659E+01  0.51100000000E-03 0. -1.
        -11    1    3    3    0    0 -0.28523048884E+00 -0.21779876343E+02 -0.19247490770E+02  0.29067340283E+02  0.51100000000E-03 0.  1.
        -12    1    3    3    0    0 -0.40954587368E+01  0.19475121635E+01 -0.14675659357E+02  0.15360356879E+02  0.00000000000E+00 0.  1.
</event>
<event>
 7    1  0.2966651E-011  0.5052886E+02  0.7816164E-02  0.1300439E+00
        -11   -1    0    0    0    0  0.00000000000E+00  0.00000000000E+00  0.45593999997E+02  0.45594000000E+02  0.51100000000E-03 0.  1.
         11   -1    0    0    0    0 -0.00000000000E+00 -0.00000000000E+00 -0.45593999997E+02  0.45594000000E+02  0.51100000000E-03 0. -1.
    9900012    2    1    2    0    0  0.11412584674E+02 -0.35160233403E+02  0.16931515493E+02  0.50528864264E+02  0.30000013416E+02 0.  0.
         12    1    1    2    0    0 -0.11412584674E+02  0.35160233403E+02 -0.16931515493E+02  0.40659135736E+02  0.00000000000E+00 0. -1.
         11    1    3    3    0    0  0.50000156627E+01 -0.11832095361E+02  0.53390025462E+01  0.13910556628E+02  0.51100000000E-03 0. -1.
        -11    1    3    3    0    0 -0.58819520740E+01 -0.83829286709E+01 -0.47499979599E+01  0.11288637393E+02  0.51100000000E-03 0.  1.
        -12    1    3    3    0    0  0.12294521085E+02 -0.14945209372E+02  0.16342510907E+02  0.25329670243E+02  0.00000000000E+00 0.  1.
</event>
<event>
 7    1  0.2966651E-011  0.5052888E+02  0.7816164E-02  0.1300439E+00
        -11   -1    0    0    0    0  0.00000000000E+00  0.00000000000E+00  0.45593999997E+02  0.45594000000E+02  0.51100000000E-03 0.  1.
         11   -1    0    0    0    0 -0.00000000000E+00 -0.00000000000E+00 -0.45593999997E+02  0.45594000000E+02  0.51100000000E-03 0. -1.
    9900012    2    1    2    0    0  0.29619276064E+02  0.21881530474E+02  0.17235468335E+02  0.50528877295E+02  0.30000053025E+02 0.  0.
         12    1    1    2    0    0 -0.29619276064E+02 -0.21881530474E+02 -0.17235468335E+02  0.40659122705E+02  0.00000000000E+00 0. -1.
         11    1    3    3    0    0 -0.26622856241E+01 -0.32329152841E+01  0.90328742028E+00  0.42843242644E+01  0.51100000000E-03 0. -1.
        -11    1    3    3    0    0  0.18675421161E+02  0.17044729590E+02  0.16904933165E+02  0.30414978677E+02  0.51100000000E-03 0.  1.
         12    1    3    3    0    0  0.13606140527E+02  0.80697161682E+01 -0.57275225065E+00  0.15829574353E+02  0.00000000000E+00 0. -1.
</event>
<event>
 7    1  0.2966651E-011  0.5052885E+02  0.7816164E-02  0.1300439E+00
        -11   -1    0    0    0    0  0.00000000000E+00  0.00000000000E+00  0.45593999997E+02  0.45594000000E+02  0.51100000000E-03 0.  1.
         11   -1    0    0    0    0 -0.00000000000E+00 -0.00000000000E+00 -0.45593999997E+02  0.45594000000E+02  0.51100000000E-03 0. -1.
    9900012    2    1    2    0    0  0.70652671099E+01  0.38800276737E+02  0.98887260101E+01  0.50528851259E+02  0.29999973887E+02 0.  0.
         12    1    1    2    0    0 -0.70652671099E+01 -0.38800276737E+02 -0.98887260101E+01  0.40659148741E+02  0.00000000000E+00 0. -1.
         11    1    3    3    0    0 -0.16295361391E+01 -0.22719843805E+01  0.55135608292E+01  0.61819620132E+01  0.51100000000E-03 0. -1.
        -11    1    3    3    0    0  0.66499425527E+01  0.14500103877E+02  0.72865172971E+01  0.17537619079E+02  0.51100000000E-03 0.  1.
        -12    1    3    3    0    0  0.20448606963E+01  0.26572157241E+02 -0.29113521162E+01  0.26809270167E+02  0.00000000000E+00 0.  1.
</event>
<event>
 7    1  0.2966651E-011  0.5052885E+02  0.7816164E-02  0.1300439E+00
        -11   -1    0    0    0    0  0.00000000000E+00  0.00000000000E+00  0.45593999997E+02  0.45594000000E+02  0.51100000000E-03 0. -1.
         11   -1    0    0    0    0 -0.00000000000E+00 -0.00000000000E+00 -0.45593999997E+02  0.45594000000E+02  0.51100000000E-03 0.  1.
    9900012    2    1    2    0    0 -0.37346523651E+02  0.14581009675E+02 -0.67674374874E+01  0.50528845039E+02  0.29999954980E+02 0.  0.
         12    1    1    2    0    0  0.37346523651E+02 -0.14581009675E+02  0.67674374874E+01  0.40659154961E+02  0.00000000000E+00 0. -1.
         11    1    3    3    0    0  0.33683318147E+01  0.19862932648E+01  0.31967267680E+01  0.50507506806E+01  0.51100000000E-03 0. -1.
        -11    1    3    3    0    0 -0.89847945496E+01  0.46625623661E+01 -0.76531755831E+01  0.12690040098E+02  0.51100000000E-03 0.  1.
         12    1    3    3    0    0 -0.31730060917E+02  0.79321540444E+01 -0.23109886723E+01  0.32788054261E+02  0.00000000000E+00 0. -1.
</event>
<event>
 7    1  0.2966651E-011  0.5052886E+02  0.7816164E-02  0.1300439E+00
        -11   -1    0    0    0    0  0.00000000000E+00  0.00000000000E+00  0.45593999997E+02  0.45594000000E+02  0.51100000000E-03 0.  1.
         11   -1    0    0    0    0 -0.00000000000E+00 -0.00000000000E+00 -0.45593999997E+02  0.45594000000E+02  0.51100000000E-03 0. -1.
    9900012    2    1    2    0    0 -0.57621874172E+01  0.12761588209E+02  0.38172039406E+02  0.50528861669E+02  0.30000005528E+02 0.  0.
         12    1    1    2    0    0  0.57621874172E+01 -0.12761588209E+02 -0.38172039406E+02  0.40659138331E+02  0.00000000000E+00 0. -1.
         11    1    3    3    0    0 -0.56357607633E+01  0.12345776155E+02  0.31187480735E+01  0.13925034221E+02  0.51100000000E-03 0. -1.
        -11    1    3    3    0    0 -0.34147398787E+01  0.28877306271E+01  0.28622741451E+02  0.28969997671E+02  0.51100000000E-03 0.  1.
         12    1    3    3    0    0  0.32883132249E+01 -0.24719185724E+01  0.64305498808E+01  0.76338297769E+01  0.00000000000E+00 0. -1.
</event>
<event>
 7    1  0.2966651E-011  0.5052886E+02  0.7816164E-02  0.1300439E+00
        -11   -1    0    0    0    0  0.00000000000E+00  0.00000000000E+00  0.45593999997E+02  0.45594000000E+02  0.51100000000E-03 0.  1.
         11   -1    0    0    0    0 -0.00000000000E+00 -0.00000000000E+00 -0.45593999997E+02  0.45594000000E+02  0.51100000000E-03 0. -1.
    9900012    2    1    2    0    0  0.23484965196E+01 -0.24806362045E+02 -0.32129339702E+02  0.50528861993E+02  0.30000006514E+02 0.  0.
         12    1    1    2    0    0 -0.23484965196E+01  0.24806362045E+02  0.32129339702E+02  0.40659138007E+02  0.00000000000E+00 0. -1.
         11    1    3    3    0    0 -0.46657188543E+01 -0.15874084740E+01 -0.23912530801E+02  0.24415116786E+02  0.51100000000E-03 0. -1.
        -11    1    3    3    0    0  0.74322252273E+01 -0.17084022729E+02 -0.58989338319E+01  0.19542242068E+02  0.51100000000E-03 0.  1.
        -12    1    3    3    0    0 -0.41800985335E+00 -0.61349308421E+01 -0.23178750685E+01  0.65715031392E+01  0.00000000000E+00 0.  1.
</event>
<event>
 7    1  0.2966651E-011  0.5052885E+02  0.7816164E-02  0.1300439E+00
        -11   -1    0    0    0    0  0.00000000000E+00  0.00000000000E+00  0.45593999997E+02  0.45594000000E+02  0.51100000000E-03 0. -1.
         11   -1    0    0    0    0 -0.00000000000E+00 -0.00000000000E+00 -0.45593999997E+02  0.45594000000E+02  0.51100000000E-03 0.  1.
    9900012    2    1    2    0    0 -0.15210874087E+02 -0.35150015450E+02 -0.13648145138E+02  0.50528854137E+02  0.29999982635E+02 0.  0.
         12    1    1    2    0    0  0.15210874087E+02  0.35150015450E+02  0.13648145138E+02  0.40659145863E+02  0.00000000000E+00 0. -1.
         11    1    3    3    0    0 -0.20519839481E+01 -0.14195155469E+02  0.67776018146E+01  0.15863447404E+02  0.51100000000E-03 0. -1.
        -11    1    3    3    0    0 -0.13842124535E+02 -0.10713762650E+02 -0.10639694629E+02  0.20483950396E+02  0.51100000000E-03 0.  1.
        -12    1    3    3    0    0  0.68323439657E+00 -0.10241097331E+02 -0.97860523234E+01  0.14181456338E+02  0.00000000000E+00 0.  1.
</event>
<event>
 7    1  0.2966651E-011  0.5052886E+02  0.7816164E-02  0.1300439E+00
        -11   -1    0    0    0    0  0.00000000000E+00  0.00000000000E+00  0.45593999997E+02  0.45594000000E+02  0.51100000000E-03 0. -1.
         11   -1    0    0    0    0 -0.00000000000E+00 -0.00000000000E+00 -0.45593999997E+02  0.45594000000E+02  0.51100000000E-03 0.  1.
    9900012    2    1    2    0    0  0.21684236447E+02 -0.27450681770E+02 -0.20722435635E+02  0.50528863529E+02  0.30000011184E+02 0.  0.
         12    1    1    2    0    0 -0.21684236447E+02  0.27450681770E+02  0.20722435635E+02  0.40659136471E+02  0.00000000000E+00 0. -1.
         11    1    3    3    0    0 -0.55072982586E+01 -0.12702485955E+02 -0.16148822247E+01  0.13938842434E+02  0.51100000000E-03 0. -1.
        -11    1    3    3    0    0  0.20587077887E+02 -0.12226151277E+02 -0.12987318643E+02  0.27239254703E+02  0.51100000000E-03 0.  1.
         12    1    3    3    0    0  0.66044568185E+01 -0.25220445377E+01 -0.61202347668E+01  0.93507663920E+01  0.00000000000E+00 0. -1.
</event>
<event>
 7    1  0.2966651E-011  0.5052887E+02  0.7816164E-02  0.1300439E+00
        -11   -1    0    0    0    0  0.00000000000E+00  0.00000000000E+00  0.45593999997E+02  0.45594000000E+02  0.51100000000E-03 0.  1.
         11   -1    0    0    0    0 -0.00000000000E+00 -0.00000000000E+00 -0.45593999997E+02  0.45594000000E+02  0.51100000000E-03 0. -1.
    9900012    2    1    2    0    0  0.35137815751E+02  0.14547864108E+02  0.14382580003E+02  0.50528867528E+02  0.30000023338E+02 0.  0.
         12    1    1    2    0    0 -0.35137815751E+02 -0.14547864108E+02 -0.14382580003E+02  0.40659132472E+02  0.00000000000E+00 0. -1.
         11    1    3    3    0    0  0.94835552871E+01  0.56021596367E+01  0.16820769075E+02  0.20106225056E+02  0.51100000000E-03 0. -1.
        -11    1    3    3    0    0  0.16724427030E+02  0.61696715522E+01  0.49547459458E+01  0.18501913798E+02  0.51100000000E-03 0.  1.
         12    1    3    3    0    0  0.89298334337E+01  0.27760329192E+01 -0.73929350182E+01  0.11920728673E+02  0.00000000000E+00 0. -1.
</event>
<event>
 7    1  0.2966651E-011  0.5052897E+02  0.7816164E-02  0.1300438E+00
        -11   -1    0    0    0    0  0.00000000000E+00  0.00000000000E+00  0.45593999997E+02  0.45594000000E+02  0.51100000000E-03 0.  1.
         11   -1    0    0    0    0 -0.00000000000E+00 -0.00000000000E+00 -0.45593999997E+02  0.45594000000E+02  0.51100000000E-03 0. -1.
    9900012    2    1    2    0    0 -0.90470294342E+01 -0.22997907011E+02  0.32286285412E+02  0.50528970324E+02  0.30000335794E+02 0.  0.
         12    1    1    2    0    0  0.90470294342E+01  0.22997907011E+02 -0.32286285412E+02  0.40659029676E+02  0.00000000000E+00 0. -1.
         11    1    3    3    0    0 -0.16863127133E+02 -0.17372556259E+02  0.16175100408E+02  0.29117085039E+02  0.51100000000E-03 0. -1.
        -11    1    3    3    0    0  0.11867454666E+01 -0.24451536887E+01  0.13243894837E+02  0.13519907251E+02  0.51100000000E-03 0.  1.
         12    1    3    3    0    0  0.66293522323E+01 -0.31801970640E+01  0.28672901672E+01  0.78919780340E+01  0.00000000000E+00 0. -1.
</event>
<event>
 7    1  0.2966651E-011  0.5052888E+02  0.7816164E-02  0.1300439E+00
        -11   -1    0    0    0    0  0.00000000000E+00  0.00000000000E+00  0.45593999997E+02  0.45594000000E+02  0.51100000000E-03 0.  1.
         11   -1    0    0    0    0 -0.00000000000E+00 -0.00000000000E+00 -0.45593999997E+02  0.45594000000E+02  0.51100000000E-03 0. -1.
    9900012    2    1    2    0    0  0.36793309166E+02 -0.11094734418E+02 -0.13278691472E+02  0.50528875828E+02  0.30000048568E+02 0.  0.
         12    1    1    2    0    0 -0.36793309166E+02  0.11094734418E+02  0.13278691472E+02  0.40659124172E+02  0.00000000000E+00 0. -1.
         11    1    3    3    0    0  0.21533019925E+02 -0.30188158190E+01 -0.21077865404E+02  0.30283008541E+02  0.51100000000E-03 0. -1.
        -11    1    3    3    0    0  0.10154382061E+02 -0.13678166795E+01  0.45548467410E+01  0.11212895549E+02  0.51100000000E-03 0.  1.
        -12    1    3    3    0    0  0.51059071809E+01 -0.67081019193E+01  0.32443271912E+01  0.90329717382E+01  0.00000000000E+00 0.  1.
</event>
<event>
 7    1  0.2966651E-011  0.5052886E+02  0.7816164E-02  0.1300439E+00
        -11   -1    0    0    0    0  0.00000000000E+00  0.00000000000E+00  0.45593999997E+02  0.45594000000E+02  0.51100000000E-03 0.  1.
         11   -1    0    0    0    0 -0.00000000000E+00 -0.00000000000E+00 -0.45593999997E+02  0.45594000000E+02  0.51100000000E-03 0. -1.
    9900012    2    1    2    0    0  0.88103748123E+01  0.36129923691E+02  0.16436885159E+02  0.50528864692E+02  0.30000014718E+02 0.  0.
         12    1    1    2    0    0 -0.88103748123E+01 -0.36129923691E+02 -0.16436885159E+02  0.40659135308E+02  0.00000000000E+00 0. -1.
         11    1    3    3    0    0  0.75141943956E+01  0.48815520235E+01 -0.51506453455E+01  0.10335463962E+02  0.51100000000E-03 0. -1.
        -11    1    3    3    0    0  0.62844819917E+01  0.16485688310E+02  0.15429553996E+02  0.23438083748E+02  0.51100000000E-03 0.  1.
        -12    1    3    3    0    0 -0.49883015751E+01  0.14762683357E+02  0.61579765081E+01  0.16755316982E+02  0.00000000000E+00 0.  1.
</event>
<event>
 7    1  0.2966651E-011  0.5052886E+02  0.7816164E-02  0.1300439E+00
        -11   -1    0    0    0    0  0.00000000000E+00  0.00000000000E+00  0.45593999997E+02  0.45594000000E+02  0.51100000000E-03 0.  1.
         11   -1    0    0    0    0 -0.00000000000E+00 -0.00000000000E+00 -0.45593999997E+02  0.45594000000E+02  0.51100000000E-03 0. -1.
    9900012    2    1    2    0    0 -0.65114385251E+01 -0.13351861885E+02  0.37848309230E+02  0.50528861310E+02  0.30000004438E+02 0.  0.
         12    1    1    2    0    0  0.65114385251E+01  0.13351861885E+02 -0.37848309230E+02  0.40659138690E+02  0.00000000000E+00 0. -1.
         11    1    3    3    0    0 -0.36674571236E+01 -0.17102096296E+02  0.67898078122E+01  0.18762553927E+02  0.51100000000E-03 0. -1.
        -11    1    3    3    0    0 -0.79588927865E+00  0.38901145939E+01  0.13037326238E+02  0.13628584189E+02  0.51100000000E-03 0.  1.
         12    1    3    3    0    0 -0.20480921228E+01 -0.13988018269E+00  0.18021175180E+02  0.18137723194E+02  0.00000000000E+00 0. -1.
</event>
<event>
 7    1  0.2966651E-011  0.5052888E+02  0.7816164E-02  0.1300439E+00
        -11   -1    0    0    0    0  0.00000000000E+00  0.00000000000E+00  0.45593999997E+02  0.45594000000E+02  0.51100000000E-03 0.  1.
         11   -1    0    0    0    0 -0.00000000000E+00 -0.00000000000E+00 -0.45593999997E+02  0.45594000000E+02  0.51100000000E-03 0. -1.
    9900012    2    1    2    0    0  0.21999277510E+02 -0.30386933956E+02  0.15678969454E+02  0.50528879874E+02  0.30000060866E+02 0.  0.
         12    1    1    2    0    0 -0.21999277510E+02  0.30386933956E+02 -0.15678969454E+02  0.40659120126E+02  0.00000000000E+00 0. -1.
         11    1    3    3    0    0  0.13715723533E+02 -0.16916119757E+02 -0.53780478187E+01  0.22432110428E+02  0.51100000000E-03 0. -1.
        -11    1    3    3    0    0  0.42893331259E+01 -0.13454840380E+02  0.13436104050E+02  0.19492562700E+02  0.51100000000E-03 0.  1.
         12    1    3    3    0    0  0.39942208513E+01 -0.15973819646E-01  0.76209132232E+01  0.86042067460E+01  0.00000000000E+00 0. -1.
</event>
<event>
 7    1  0.2966651E-011  0.5052881E+02  0.7816164E-02  0.1300439E+00
        -11   -1    0    0    0    0  0.00000000000E+00  0.00000000000E+00  0.45593999997E+02  0.45594000000E+02  0.51100000000E-03 0.  1.
         11   -1    0    0    0    0 -0.00000000000E+00 -0.00000000000E+00 -0.45593999997E+02  0.45594000000E+02  0.51100000000E-03 0. -1.
    9900012    2    1    2    0    0  0.14365478948E+02 -0.27574161565E+02  0.26200543627E+02  0.50528808447E+02  0.29999843754E+02 0.  0.
         12    1    1    2    0    0 -0.14365478948E+02  0.27574161565E+02 -0.26200543627E+02  0.40659191553E+02  0.00000000000E+00 0. -1.
         11    1    3    3    0    0  0.80973784228E+01  0.34353477266E+00  0.35306647880E+01  0.88403137709E+01  0.51100000000E-03 0. -1.
        -11    1    3    3    0    0 -0.27124769252E+01 -0.17414378824E+02  0.21528038665E+02  0.27822195634E+02  0.51100000000E-03 0.  1.
        -12    1    3    3    0    0  0.89805774508E+01 -0.10503317513E+02  0.11418401745E+01  0.13866299042E+02  0.00000000000E+00 0.  1.
</event>
<event>
 7    1  0.2966651E-011  0.5052890E+02  0.7816164E-02  0.1300439E+00
        -11   -1    0    0    0    0  0.00000000000E+00  0.00000000000E+00  0.45593999997E+02  0.45594000000E+02  0.51100000000E-03 0.  1.
         11   -1    0    0    0    0 -0.00000000000E+00 -0.00000000000E+00 -0.45593999997E+02  0.45594000000E+02  0.51100000000E-03 0. -1.
    9900012    2    1    2    0    0  0.20356923866E+01  0.23889230413E+02  0.32837830293E+02  0.50528899278E+02  0.30000119844E+02 0.  0.
         12    1    1    2    0    0 -0.20356923866E+01 -0.23889230413E+02 -0.32837830293E+02  0.40659100722E+02  0.00000000000E+00 0. -1.
         11    1    3    3    0    0 -0.11103730113E+02  0.84955056080E+01  0.77678892247E+01  0.15993953271E+02  0.51100000000E-03 0. -1.
        -11    1    3    3    0    0  0.71812239234E+01  0.16211763165E+02  0.18354977431E+02  0.25520510157E+02  0.51100000000E-03 0.  1.
         12    1    3    3    0    0  0.59581985763E+01 -0.81803836011E+00  0.67149636372E+01  0.90144358494E+01  0.00000000000E+00 0. -1.
</event>
<event>
 7    1  0.2966651E-011  0.5052888E+02  0.7816164E-02  0.1300439E+00
        -11   -1    0    0    0    0  0.00000000000E+00  0.00000000000E+00  0.45593999997E+02  0.45594000000E+02  0.51100000000E-03 0.  1.
         11   -1    0    0    0    0 -0.00000000000E+00 -0.00000000000E+00 -0.45593999997E+02  0.45594000000E+02  0.51100000000E-03 0. -1.
    9900012    2    1    2    0    0  0.87482669119E+01  0.28653777719E+02  0.27488045932E+02  0.50528882687E+02  0.30000069415E+02 0.  0.
         12    1    1    2    0    0 -0.87482669119E+01 -0.28653777719E+02 -0.27488045932E+02  0.40659117313E+02  0.00000000000E+00 0. -1.
         11    1    3    3    0    0  0.16531685764E+01 -0.15047737799E+00 -0.45789168146E+01  0.48705327470E+01  0.51100000000E-03 0. -1.
        -11    1    3    3    0    0  0.21136241649E+00  0.19093079809E+02  0.12721335632E+02  0.22943904445E+02  0.51100000000E-03 0.  1.
        -12    1    3    3    0    0  0.68837359190E+01  0.97111752877E+01  0.19345627115E+02  0.22714445495E+02  0.00000000000E+00 0.  1.
</event>
<event>
 7    1  0.2966651E-011  0.5052885E+02  0.7816164E-02  0.1300439E+00
        -11   -1    0    0    0    0  0.00000000000E+00  0.00000000000E+00  0.45593999997E+02  0.45594000000E+02  0.51100000000E-03 0.  1.
         11   -1    0    0    0    0 -0.00000000000E+00 -0.00000000000E+00 -0.45593999997E+02  0.45594000000E+02  0.51100000000E-03 0. -1.
    9900012    2    1    2    0    0 -0.37521012649E+02  0.12246892740E+02 -0.97649249776E+01  0.50528849347E+02  0.29999968076E+02 0.  0.
         12    1    1    2    0    0  0.37521012649E+02 -0.12246892740E+02  0.97649249776E+01  0.40659150653E+02  0.00000000000E+00 0. -1.
         11    1    3    3    0    0 -0.30764399584E+02  0.15630432830E+02 -0.13002071790E+02  0.36875636718E+02  0.51100000000E-03 0.  1.
        -11    1    3    3    0    0 -0.12068521146E+01 -0.58307704281E+01 -0.12802439969E+01  0.60904351868E+01  0.51100000000E-03 0. -1.
        -12    1    3    3    0    0 -0.55497609500E+01  0.24472303383E+01  0.45173908090E+01  0.75627774429E+01  0.00000000000E+00 0.  1.
</event>
<event>
 7    1  0.2966651E-011  0.5052886E+02  0.7816164E-02  0.1300439E+00
        -11   -1    0    0    0    0  0.00000000000E+00  0.00000000000E+00  0.45593999997E+02  0.45594000000E+02  0.51100000000E-03 0.  1.
         11   -1    0    0    0    0 -0.00000000000E+00 -0.00000000000E+00 -0.45593999997E+02  0.45594000000E+02  0.51100000000E-03 0. -1.
    9900012    2    1    2    0    0  0.40122347118E+02  0.63220830993E+01 -0.18423362602E+01  0.50528859873E+02  0.30000000071E+02 0.  0.
         12    1    1    2    0    0 -0.40122347118E+02 -0.63220830993E+01  0.18423362602E+01  0.40659140127E+02  0.00000000000E+00 0. -1.
         11    1    3    3    0    0 -0.13503564773E+01  0.32661394503E+01 -0.26888705646E+01  0.44408506729E+01  0.51100000000E-03 0. -1.
        -11    1    3    3    0    0  0.27031811942E+02 -0.24254748197E+01  0.90359953281E+01  0.28605086904E+02  0.51100000000E-03 0.  1.
        -12    1    3    3    0    0  0.14440891653E+02  0.54814184687E+01 -0.81894610236E+01  0.17482922296E+02  0.00000000000E+00 0.  1.
</event>
<event>
 7    1  0.2966651E-011  0.5052888E+02  0.7816164E-02  0.1300439E+00
        -11   -1    0    0    0    0  0.00000000000E+00  0.00000000000E+00  0.45593999997E+02  0.45594000000E+02  0.51100000000E-03 0.  1.
         11   -1    0    0    0    0 -0.00000000000E+00 -0.00000000000E+00 -0.45593999997E+02  0.45594000000E+02  0.51100000000E-03 0. -1.
    9900012    2    1    2    0    0 -0.12256850390E+02  0.30703079237E+02  0.23669699494E+02  0.50528878880E+02  0.30000057843E+02 0.  0.
         12    1    1    2    0    0  0.12256850390E+02 -0.30703079237E+02 -0.23669699494E+02  0.40659121120E+02  0.00000000000E+00 0. -1.
         11    1    3    3    0    0 -0.18787641248E+02  0.13945496917E+02  0.64630092713E+01  0.24273912684E+02  0.51100000000E-03 0. -1.
        -11    1    3    3    0    0 -0.45584154411E+00  0.72362955144E+01  0.10228530577E+02  0.12537727158E+02  0.51100000000E-03 0.  1.
         12    1    3    3    0    0  0.69866324015E+01  0.95212868060E+01  0.69781596461E+01  0.13717239037E+02  0.00000000000E+00 0. -1.
</event>
<event>
 7    1  0.2966651E-011  0.5052884E+02  0.7816164E-02  0.1300439E+00
        -11   -1    0    0    0    0  0.00000000000E+00  0.00000000000E+00  0.45593999997E+02  0.45594000000E+02  0.51100000000E-03 0. -1.
         11   -1    0    0    0    0 -0.00000000000E+00 -0.00000000000E+00 -0.45593999997E+02  0.45594000000E+02  0.51100000000E-03 0.  1.
    9900012    2    1    2    0    0 -0.36218779908E+02 -0.17156019094E+02  0.68584457588E+01  0.50528840056E+02  0.29999939834E+02 0.  0.
         12    1    1    2    0    0  0.36218779908E+02  0.17156019094E+02 -0.68584457588E+01  0.40659159944E+02  0.00000000000E+00 0. -1.
         11    1    3    3    0    0  0.42001050392E+01  0.65466184058E-01  0.34752821876E+01  0.54518579133E+01  0.51100000000E-03 0. -1.
        -11    1    3    3    0    0 -0.17427613193E+02 -0.88279155060E+01  0.60630892142E+01  0.20455191147E+02  0.51100000000E-03 0.  1.
         12    1    3    3    0    0 -0.22991271753E+02 -0.83935697720E+01 -0.26799256431E+01  0.24621790995E+02  0.00000000000E+00 0. -1.
</event>
<event>
 7    1  0.2966651E-011  0.5052884E+02  0.7816164E-02  0.1300439E+00
        -11   -1    0    0    0    0  0.00000000000E+00  0.00000000000E+00  0.45593999997E+02  0.45594000000E+02  0.51100000000E-03 0.  1.
         11   -1    0    0    0    0 -0.00000000000E+00 -0.00000000000E+00 -0.45593999997E+02  0.45594000000E+02  0.51100000000E-03 0. -1.
    9900012    2    1    2    0    0 -0.26004860316E+02 -0.28406660162E+02  0.13037499575E+02  0.50528837481E+02  0.29999932006E+02 0.  0.
         12    1    1    2    0    0  0.26004860316E+02  0.28406660162E+02 -0.13037499575E+02  0.40659162519E+02  0.00000000000E+00 0. -1.
         11    1    3    3    0    0 -0.16423359389E+02 -0.20118031994E+02 -0.63545515324E+01  0.26736534375E+02  0.51100000000E-03 0. -1.
        -11    1    3    3    0    0 -0.45002245069E+01 -0.67271935331E+01  0.88958551885E+01  0.12026778174E+02  0.51100000000E-03 0.  1.
         12    1    3    3    0    0 -0.50812764197E+01 -0.15614346356E+01  0.10496195919E+02  0.11765524932E+02  0.00000000000E+00 0. -1.
</event>
<event>
 7    1  0.2966651E-011  0.5052885E+02  0.7816164E-02  0.1300439E+00
        -11   -1    0    0    0    0  0.00000000000E+00  0.00000000000E+00  0.45593999997E+02  0.45594000000E+02  0.51100000000E-03 0.  1.
         11   -1    0    0    0    0 -0.00000000000E+00 -0.00000000000E+00 -0.45593999997E+02  0.45594000000E+02  0.51100000000E-03 0. -1.
    9900012    2    1    2    0    0 -0.13002956195E+02  0.34246667938E+02  0.17642422586E+02  0.50528853313E+02  0.29999980129E+02 0.  0.
         12    1    1    2    0    0  0.13002956195E+02 -0.34246667938E+02 -0.17642422586E+02  0.40659146687E+02  0.00000000000E+00 0. -1.
         11    1    3    3    0    0  0.68003700293E+01  0.23294143666E+02  0.95548517947E+01  0.26079826586E+02  0.51100000000E-03 0. -1.
        -11    1    3    3    0    0 -0.17438141697E+02  0.99287826907E+01  0.85820525772E+01  0.21824782662E+02  0.51100000000E-03 0.  1.
         12    1    3    3    0    0 -0.23651845272E+01  0.10237415803E+01 -0.49448178558E+00  0.26242440640E+01  0.00000000000E+00 0. -1.
</event>
<event>
 7    1  0.2978055E-011  0.5052886E+02  0.7816164E-02  0.1300439E+00
        -11   -1    0    0    0    0  0.00000000000E+00  0.00000000000E+00  0.45593999997E+02  0.45594000000E+02  0.51100000000E-03 0.  1.
         11   -1    0    0    0    0 -0.00000000000E+00 -0.00000000000E+00 -0.45593999997E+02  0.45594000000E+02  0.51100000000E-03 0. -1.
    9900012    2    1    2    0    0  0.25238368224E+02  0.31790407307E+02  0.23580267403E+01  0.50528861821E+02  0.30000005992E+02 0.  0.
         12    1    1    2    0    0 -0.25238368224E+02 -0.31790407307E+02 -0.23580267403E+01  0.40659138179E+02  0.00000000000E+00 0. -1.
         11    1    3    3    0    0 -0.25611975391E+01  0.59031709900E+01 -0.51257815239E+01  0.82268339635E+01  0.51100000000E-03 0. -1.
        -11    1    3    3    0    0  0.19888627311E+02  0.25558359189E+02  0.15763895857E+01  0.32423328409E+02  0.51100000000E-03 0.  1.
        -12    1    3    3    0    0  0.79109384515E+01  0.32887712774E+00  0.59074186785E+01  0.98786994484E+01  0.00000000000E+00 0.  1.
</event>
<event>
 7    1  0.2966651E-011  0.5052886E+02  0.7816164E-02  0.1300439E+00
        -11   -1    0    0    0    0  0.00000000000E+00  0.00000000000E+00  0.45593999997E+02  0.45594000000E+02  0.51100000000E-03 0.  1.
         11   -1    0    0    0    0 -0.00000000000E+00 -0.00000000000E+00 -0.45593999997E+02  0.45594000000E+02  0.51100000000E-03 0. -1.
    9900012    2    1    2    0    0 -0.30736444100E+02  0.20005193319E+02  0.17556450141E+02  0.50528859611E+02  0.29999999273E+02 0.  0.
         12    1    1    2    0    0  0.30736444100E+02 -0.20005193319E+02 -0.17556450141E+02  0.40659140389E+02  0.00000000000E+00 0. -1.
         11    1    3    3    0    0 -0.29859556256E+02  0.10764330552E+02  0.16180937979E+02  0.35627049641E+02  0.51100000000E-03 0. -1.
        -11    1    3    3    0    0 -0.12735586946E+01  0.65502442637E+01  0.63633832057E+01  0.92206451914E+01  0.51100000000E-03 0.  1.
         12    1    3    3    0    0  0.39667085081E+00  0.26906185037E+01 -0.49878710429E+01  0.56811647781E+01  0.00000000000E+00 0. -1.
</event>
<event>
 7    1  0.2966651E-011  0.5052885E+02  0.7816164E-02  0.1300439E+00
        -11   -1    0    0    0    0  0.00000000000E+00  0.00000000000E+00  0.45593999997E+02  0.45594000000E+02  0.51100000000E-03 0.  1.
         11   -1    0    0    0    0 -0.00000000000E+00 -0.00000000000E+00 -0.45593999997E+02  0.45594000000E+02  0.51100000000E-03 0. -1.
    9900012    2    1    2    0    0 -0.12623468080E+02 -0.25349880504E+02  0.29175298602E+02  0.50528850520E+02  0.29999971640E+02 0.  0.
         12    1    1    2    0    0  0.12623468080E+02  0.25349880504E+02 -0.29175298602E+02  0.40659149480E+02  0.00000000000E+00 0. -1.
         11    1    3    3    0    0 -0.11151321601E+02 -0.82297182384E+01  0.25526252580E+02  0.29045994677E+02  0.51100000000E-03 0. -1.
        -11    1    3    3    0    0  0.53893047281E+01 -0.57087357837E+01  0.11393286415E+01  0.79329905908E+01  0.51100000000E-03 0.  1.
         12    1    3    3    0    0 -0.68614512074E+01 -0.11411426482E+02  0.25097173804E+01  0.13549865252E+02  0.00000000000E+00 0. -1.
</event>
<event>
 7    1  0.2966651E-011  0.5052884E+02  0.7816164E-02  0.1300439E+00
        -11   -1    0    0    0    0  0.00000000000E+00  0.00000000000E+00  0.45593999997E+02  0.45594000000E+02  0.51100000000E-03 0.  1.
         11   -1    0    0    0    0 -0.00000000000E+00 -0.00000000000E+00 -0.45593999997E+02  0.45594000000E+02  0.51100000000E-03 0. -1.
    9900012    2    1    2    0    0  0.11993720800E+02 -0.31907185522E+02  0.22164150950E+02  0.50528838499E+02  0.29999935103E+02 0.  0.
         12    1    1    2    0    0 -0.11993720800E+02  0.31907185522E+02 -0.22164150950E+02  0.40659161501E+02  0.00000000000E+00 0. -1.
         11    1    3    3    0    0  0.33270560288E+01  0.16097641584E+01  0.11737197728E+02  0.12305383100E+02  0.51100000000E-03 0. -1.
        -11    1    3    3    0    0  0.40836927190E+01 -0.31171895334E+02  0.10269164948E+02  0.33072939905E+02  0.51100000000E-03 0.  1.
        -12    1    3    3    0    0  0.45829720522E+01 -0.23450543465E+01  0.15778827365E+00  0.51505154945E+01  0.00000000000E+00 0.  1.
</event>
<event>
 7    1  0.2966651E-011  0.5052885E+02  0.7816164E-02  0.1300439E+00
        -11   -1    0    0    0    0  0.00000000000E+00  0.00000000000E+00  0.45593999997E+02  0.45594000000E+02  0.51100000000E-03 0. -1.
         11   -1    0    0    0    0 -0.00000000000E+00 -0.00000000000E+00 -0.45593999997E+02  0.45594000000E+02  0.51100000000E-03 0.  1.
    9900012    2    1    2    0    0 -0.24428307778E+02  0.24335748145E+02 -0.21545195341E+02  0.50528852186E+02  0.29999976704E+02 0.  0.
         12    1    1    2    0    0  0.24428307778E+02 -0.24335748145E+02  0.21545195341E+02  0.40659147814E+02  0.00000000000E+00 0. -1.
         11    1    3    3    0    0 -0.54721824393E+01  0.23880346918E+01  0.24979915382E+01  0.64720516318E+01  0.51100000000E-03 0. -1.
        -11    1    3    3    0    0  0.34216000587E+01  0.88220120301E+01 -0.12458902190E+02  0.15644791059E+02  0.51100000000E-03 0.  1.
        -12    1    3    3    0    0 -0.22377725397E+02  0.13125701424E+02 -0.11584284689E+02  0.28412009495E+02  0.00000000000E+00 0.  1.
</event>
<event>
 7    1  0.2966651E-011  0.5052885E+02  0.7816164E-02  0.1300439E+00
        -11   -1    0    0    0    0  0.00000000000E+00  0.00000000000E+00  0.45593999997E+02  0.45594000000E+02  0.51100000000E-03 0. -1.
         11   -1    0    0    0    0 -0.00000000000E+00 -0.00000000000E+00 -0.45593999997E+02  0.45594000000E+02  0.51100000000E-03 0.  1.
    9900012    2    1    2    0    0 -0.38057941442E+02 -0.99980222402E+01 -0.10237134594E+02  0.50528852441E+02  0.29999977479E+02 0.  0.
         12    1    1    2    0    0  0.38057941442E+02  0.99980222402E+01  0.10237134594E+02  0.40659147559E+02  0.00000000000E+00 0. -1.
         11    1    3    3    0    0  0.23099272934E+01  0.20286155599E+01  0.66622627234E+00  0.31456164575E+01  0.51100000000E-03 0. -1.
        -11    1    3    3    0    0 -0.31291554739E+02 -0.16553171188E+02 -0.11505576100E+02  0.37222938573E+02  0.51100000000E-03 0.  1.
        -12    1    3    3    0    0 -0.90763139970E+01  0.45265333878E+01  0.60221523382E+00  0.10160297411E+02  0.00000000000E+00 0.  1.
</event>
<event>
 7    1  0.2966651E-011  0.5052887E+02  0.7816164E-02  0.1300439E+00
        -11   -1    0    0    0    0  0.00000000000E+00  0.00000000000E+00  0.45593999997E+02  0.45594000000E+02  0.51100000000E-03 0.  1.
         11   -1    0    0    0    0 -0.00000000000E+00 -0.00000000000E+00 -0.45593999997E+02  0.45594000000E+02  0.51100000000E-03 0. -1.
    9900012    2    1    2    0    0 -0.21164776650E+02  0.98377941269E+01  0.33293166581E+02  0.50528869353E+02  0.30000028886E+02 0.  0.
         12    1    1    2    0    0  0.21164776650E+02 -0.98377941269E+01 -0.33293166581E+02  0.40659130647E+02  0.00000000000E+00 0. -1.
         11    1    3    3    0    0 -0.13207036115E+02 -0.24510590301E+01  0.28460363077E+02  0.31471030489E+02  0.51100000000E-03 0. -1.
        -11    1    3    3    0    0  0.51770735127E+00  0.49769962547E+01  0.59894875374E+01  0.78046443765E+01  0.51100000000E-03 0.  1.
         12    1    3    3    0    0 -0.84754478865E+01  0.73118569023E+01 -0.11566840327E+01  0.11253194488E+02  0.00000000000E+00 0. -1.
</event>
<event>
 7    1  0.2966651E-011  0.5052886E+02  0.7816164E-02  0.1300439E+00
        -11   -1    0    0    0    0  0.00000000000E+00  0.00000000000E+00  0.45593999997E+02  0.45594000000E+02  0.51100000000E-03 0.  1.
         11   -1    0    0    0    0 -0.00000000000E+00 -0.00000000000E+00 -0.45593999997E+02  0.45594000000E+02  0.51100000000E-03 0. -1.
    9900012    2    1    2    0    0 -0.89156939220E+01  0.39541222237E+02  0.31886962106E+01  0.50528860344E+02  0.30000001500E+02 0.  0.
         12    1    1    2    0    0  0.89156939220E+01 -0.39541222237E+02 -0.31886962106E+01  0.40659139656E+02  0.00000000000E+00 0. -1.
         11    1    3    3    0    0 -0.22897286578E+01 -0.15020082009E+01  0.72546655477E+01  0.77542929034E+01  0.51100000000E-03 0. -1.
        -11    1    3    3    0    0 -0.55779406995E+01  0.17913386269E+02  0.19199886684E+01  0.18859723933E+02  0.51100000000E-03 0.  1.
         12    1    3    3    0    0 -0.10480245648E+01  0.23129844168E+02 -0.59859580055E+01  0.23914843507E+02  0.00000000000E+00 0. -1.
</event>
<event>
 7    1  0.2966651E-011  0.5052886E+02  0.7816164E-02  0.1300439E+00
        -11   -1    0    0    0    0  0.00000000000E+00  0.00000000000E+00  0.45593999997E+02  0.45594000000E+02  0.51100000000E-03 0. -1.
         11   -1    0    0    0    0 -0.00000000000E+00 -0.00000000000E+00 -0.45593999997E+02  0.45594000000E+02  0.51100000000E-03 0.  1.
    9900012    2    1    2    0    0 -0.21941387810E+02 -0.25116855051E+02  0.23256932891E+02  0.50528857926E+02  0.29999994152E+02 0.  0.
         12    1    1    2    0    0  0.21941387810E+02  0.25116855051E+02 -0.23256932891E+02  0.40659142074E+02  0.00000000000E+00 0. -1.
         11    1    3    3    0    0 -0.40732464997E+01 -0.42809896090E+01  0.84486750365E+01  0.10310107624E+02  0.51100000000E-03 0. -1.
        -11    1    3    3    0    0 -0.12500662177E+02  0.14812064478E+01 -0.55154281694E+00  0.12600187583E+02  0.51100000000E-03 0.  1.
        -12    1    3    3    0    0 -0.53674791338E+01 -0.22317071890E+02  0.15359800672E+02  0.27618562719E+02  0.00000000000E+00 0.  1.
</event>
<event>
 7    1  0.2966651E-011  0.5052886E+02  0.7816164E-02  0.1300439E+00
        -11   -1    0    0    0    0  0.00000000000E+00  0.00000000000E+00  0.45593999997E+02  0.45594000000E+02  0.51100000000E-03 0. -1.
         11   -1    0    0    0    0 -0.00000000000E+00 -0.00000000000E+00 -0.45593999997E+02  0.45594000000E+02  0.51100000000E-03 0.  1.
    9900012    2    1    2    0    0 -0.24964952556E+02 -0.21603351518E+02 -0.23732091587E+02  0.50528858051E+02  0.29999994531E+02 0.  0.
         12    1    1    2    0    0  0.24964952556E+02  0.21603351518E+02  0.23732091587E+02  0.40659141949E+02  0.00000000000E+00 0. -1.
         11    1    3    3    0    0 -0.19214877064E+02 -0.20078435795E+02 -0.22250540479E+02  0.35601146560E+02  0.51100000000E-03 0. -1.
        -11    1    3    3    0    0 -0.98752242703E+01 -0.32275959216E+01 -0.92446002691E+00  0.10430343064E+02  0.51100000000E-03 0.  1.
         12    1    3    3    0    0  0.41251487775E+01  0.17026801982E+01 -0.55709108095E+00  0.44973684268E+01  0.00000000000E+00 0. -1.
</event>
<event>
 7    1  0.2966651E-011  0.5052887E+02  0.7816164E-02  0.1300439E+00
        -11   -1    0    0    0    0  0.00000000000E+00  0.00000000000E+00  0.45593999997E+02  0.45594000000E+02  0.51100000000E-03 0. -1.
         11   -1    0    0    0    0 -0.00000000000E+00 -0.00000000000E+00 -0.45593999997E+02  0.45594000000E+02  0.51100000000E-03 0.  1.
    9900012    2    1    2    0    0 -0.24734061966E+02  0.94664119046E+01 -0.30850905376E+02  0.50528866485E+02  0.30000020167E+02 0.  0.
         12    1    1    2    0    0  0.24734061966E+02 -0.94664119046E+01  0.30850905376E+02  0.40659133515E+02  0.00000000000E+00 0. -1.
         11    1    3    3    0    0  0.24814122593E+00  0.61113657155E+01 -0.31534490357E+01  0.68814683069E+01  0.51100000000E-03 0. -1.
        -11    1    3    3    0    0 -0.28445043221E+02  0.92695797697E+00 -0.27236649576E+02  0.39393080805E+02  0.51100000000E-03 0.  1.
        -12    1    3    3    0    0  0.34628400290E+01  0.24280882121E+01 -0.46080676379E+00  0.42543173725E+01  0.00000000000E+00 0.  1.
</event>
<event>
 7    1  0.2966651E-011  0.5052892E+02  0.7816164E-02  0.1300439E+00
        -11   -1    0    0    0    0  0.00000000000E+00  0.00000000000E+00  0.45593999997E+02  0.45594000000E+02  0.51100000000E-03 0. -1.
         11   -1    0    0    0    0 -0.00000000000E+00 -0.00000000000E+00 -0.45593999997E+02  0.45594000000E+02  0.51100000000E-03 0.  1.
    9900012    2    1    2    0    0 -0.17409528071E+02 -0.34296265804E+02  0.13184659648E+02  0.50528920254E+02  0.30000183602E+02 0.  0.
         12    1    1    2    0    0  0.17409528071E+02  0.34296265804E+02 -0.13184659648E+02  0.40659079746E+02  0.00000000000E+00 0. -1.
         11    1    3    3    0    0  0.22382697882E+01 -0.15716848368E+02  0.35782518808E+01  0.16273692299E+02  0.51100000000E-03 0. -1.
        -11    1    3    3    0    0 -0.12368802151E+02 -0.15232102108E+01 -0.16358425195E+01  0.12569145437E+02  0.51100000000E-03 0.  1.
        -12    1    3    3    0    0 -0.72789957084E+01 -0.17056207226E+02  0.11242250287E+02  0.21686082518E+02  0.00000000000E+00 0.  1.
</event>
<event>
 7    1  0.2966651E-011  0.5052887E+02  0.7816164E-02  0.1300439E+00
        -11   -1    0    0    0    0  0.00000000000E+00  0.00000000000E+00  0.45593999997E+02  0.45594000000E+02  0.51100000000E-03 0.  1.
         11   -1    0    0    0    0 -0.00000000000E+00 -0.00000000000E+00 -0.45593999997E+02  0.45594000000E+02  0.51100000000E-03 0. -1.
    9900012    2    1    2    0    0 -0.12601599370E+00 -0.40658683336E+02  0.14436572795E+00  0.50528865084E+02  0.30000015909E+02 0.  0.
         12    1    1    2    0    0  0.12601599370E+00  0.40658683336E+02 -0.14436572795E+00  0.40659134916E+02  0.00000000000E+00 0. -1.
         11    1    3    3    0    0  0.59750643990E+01 -0.68425012319E+01 -0.11199891138E+01  0.91529008274E+01  0.51100000000E-03 0. -1.
        -11    1    3    3    0    0 -0.16385209739E+01 -0.22549502820E+02  0.11633955462E+02  0.25426634625E+02  0.51100000000E-03 0.  1.
        -12    1    3    3    0    0 -0.44625594188E+01 -0.11266679285E+02 -0.10369600620E+02  0.15949329631E+02  0.00000000000E+00 0.  1.
</event>
<event>
 7    1  0.2966651E-011  0.5052886E+02  0.7816164E-02  0.1300439E+00
        -11   -1    0    0    0    0  0.00000000000E+00  0.00000000000E+00  0.45593999997E+02  0.45594000000E+02  0.51100000000E-03 0. -1.
         11   -1    0    0    0    0 -0.00000000000E+00 -0.00000000000E+00 -0.45593999997E+02  0.45594000000E+02  0.51100000000E-03 0.  1.
    9900012    2    1    2    0    0 -0.35158515929E+02  0.27065024036E+01  0.20241529865E+02  0.50528856761E+02  0.29999990612E+02 0.  0.
         12    1    1    2    0    0  0.35158515929E+02 -0.27065024036E+01 -0.20241529865E+02  0.40659143239E+02  0.00000000000E+00 0. -1.
         11    1    3    3    0    0  0.78948347987E+00 -0.77783127670E+00 -0.18766357942E+01  0.21794650319E+01  0.51100000000E-03 0. -1.
        -11    1    3    3    0    0 -0.38152114106E+02  0.29434695869E+01  0.15382385953E+02  0.41241552127E+02  0.51100000000E-03 0.  1.
        -12    1    3    3    0    0  0.22041146970E+01  0.54086409338E+00  0.67357797061E+01  0.71078396025E+01  0.00000000000E+00 0.  1.
</event>
<event>
 7    1  0.2966651E-011  0.5052890E+02  0.7816164E-02  0.1300439E+00
        -11   -1    0    0    0    0  0.00000000000E+00  0.00000000000E+00  0.45593999997E+02  0.45594000000E+02  0.51100000000E-03 0. -1.
         11   -1    0    0    0    0 -0.00000000000E+00 -0.00000000000E+00 -0.45593999997E+02  0.45594000000E+02  0.51100000000E-03 0.  1.
    9900012    2    1    2    0    0  0.23636482704E+02 -0.33050566968E+02  0.14626984714E+01  0.50528895505E+02  0.30000108376E+02 0.  0.
         12    1    1    2    0    0 -0.23636482704E+02  0.33050566968E+02 -0.14626984714E+01  0.40659104495E+02  0.00000000000E+00 0. -1.
         11    1    3    3    0    0 -0.17388173568E+00 -0.10657471842E+02  0.73108695024E+01  0.12925198415E+02  0.51100000000E-03 0. -1.
        -11    1    3    3    0    0  0.23152139517E+02 -0.20925439376E+02 -0.10305629435E+02  0.32864898837E+02  0.51100000000E-03 0.  1.
        -12    1    3    3    0    0  0.65822492342E+00 -0.14676557498E+01  0.44574584044E+01  0.47387982523E+01  0.00000000000E+00 0.  1.
</event>
<event>
 7    1  0.2966651E-011  0.5052886E+02  0.7816164E-02  0.1300439E+00
        -11   -1    0    0    0    0  0.00000000000E+00  0.00000000000E+00  0.45593999997E+02  0.45594000000E+02  0.51100000000E-03 0. -1.
         11   -1    0    0    0    0 -0.00000000000E+00 -0.00000000000E+00 -0.45593999997E+02  0.45594000000E+02  0.51100000000E-03 0.  1.
    9900012    2    1    2    0    0  0.36059366434E+02  0.16685762942E+02 -0.86297588694E+01  0.50528864117E+02  0.30000012971E+02 0.  0.
         12    1    1    2    0    0 -0.36059366434E+02 -0.16685762942E+02  0.86297588694E+01  0.40659135883E+02  0.00000000000E+00 0. -1.
         11    1    3    3    0    0  0.13708658650E+02 -0.82756709414E+01 -0.25540848682E+01  0.16215344624E+02  0.51100000000E-03 0. -1.
        -11    1    3    3    0    0  0.15397079359E+02  0.18076715954E+02 -0.61467623511E+01  0.24527951405E+02  0.51100000000E-03 0.  1.
         12    1    3    3    0    0  0.69536284257E+01  0.68847179294E+01  0.71088349895E-01  0.97855680879E+01  0.00000000000E+00 0. -1.
</event>
<event>
 7    1  0.2966651E-011  0.5052886E+02  0.7816164E-02  0.1300439E+00
        -11   -1    0    0    0    0  0.00000000000E+00  0.00000000000E+00  0.45593999997E+02  0.45594000000E+02  0.51100000000E-03 0. -1.
         11   -1    0    0    0    0 -0.00000000000E+00 -0.00000000000E+00 -0.45593999997E+02  0.45594000000E+02  0.51100000000E-03 0.  1.
    9900012    2    1    2    0    0  0.81120442924E+01  0.32941712015E+02 -0.22409905889E+02  0.50528861605E+02  0.30000005335E+02 0.  0.
         12    1    1    2    0    0 -0.81120442924E+01 -0.32941712015E+02  0.22409905889E+02  0.40659138395E+02  0.00000000000E+00 0. -1.
         11    1    3    3    0    0  0.29078502563E+01 -0.10988579745E+01  0.47364629213E+01  0.56654358374E+01  0.51100000000E-03 0. -1.
        -11    1    3    3    0    0  0.25106643923E+01  0.30726706934E+02 -0.20710866251E+02  0.37139923746E+02  0.51100000000E-03 0.  1.
         12    1    3    3    0    0  0.26935296438E+01  0.33138630549E+01 -0.64355025593E+01  0.77235020217E+01  0.00000000000E+00 0. -1.
</event>
<event>
 7    1  0.2966651E-011  0.5052886E+02  0.7816164E-02  0.1300439E+00
        -11   -1    0    0    0    0  0.00000000000E+00  0.00000000000E+00  0.45593999997E+02  0.45594000000E+02  0.51100000000E-03 0. -1.
         11   -1    0    0    0    0 -0.00000000000E+00 -0.00000000000E+00 -0.45593999997E+02  0.45594000000E+02  0.51100000000E-03 0.  1.
    9900012    2    1    2    0    0  0.17137393405E+02  0.34671244291E+02  0.12545143461E+02  0.50528855175E+02  0.29999985791E+02 0.  0.
         12    1    1    2    0    0 -0.17137393405E+02 -0.34671244291E+02 -0.12545143461E+02  0.40659144825E+02  0.00000000000E+00 0. -1.
         11    1    3    3    0    0  0.67151498633E+01  0.31303342137E+02  0.39642815263E+01  0.32260006121E+02  0.51100000000E-03 0.  1.
        -11    1    3    3    0    0  0.12431581177E+02  0.17881615014E+01  0.42855117589E+01  0.13270544202E+02  0.51100000000E-03 0. -1.
        -12    1    3    3    0    0 -0.20093376357E+01  0.15797406526E+01  0.42953501764E+01  0.49983048528E+01  0.00000000000E+00 0.  1.
</event>
<event>
 7    1  0.2966651E-011  0.5052889E+02  0.7816164E-02  0.1300439E+00
        -11   -1    0    0    0    0  0.00000000000E+00  0.00000000000E+00  0.45593999997E+02  0.45594000000E+02  0.51100000000E-03 0. -1.
         11   -1    0    0    0    0 -0.00000000000E+00 -0.00000000000E+00 -0.45593999997E+02  0.45594000000E+02  0.51100000000E-03 0.  1.
    9900012    2    1    2    0    0  0.15263735170E+02 -0.37684809965E+02  0.19205538584E+00  0.50528887876E+02  0.30000085187E+02 0.  0.
         12    1    1    2    0    0 -0.15263735170E+02  0.37684809965E+02 -0.19205538584E+00  0.40659112124E+02  0.00000000000E+00 0. -1.
         11    1    3    3    0    0 -0.50706271387E+01 -0.12464849755E+02  0.89303987487E+01  0.16150410554E+02  0.51100000000E-03 0. -1.
        -11    1    3    3    0    0  0.13183187868E+02 -0.15609530029E+02 -0.91619493493E+01  0.22391855355E+02  0.51100000000E-03 0.  1.
         12    1    3    3    0    0  0.71511744410E+01 -0.96104301809E+01  0.42360598645E+00  0.11986621967E+02  0.00000000000E+00 0. -1.
</event>
<event>
 7    1  0.2966651E-011  0.5052888E+02  0.7816164E-02  0.1300439E+00
        -11   -1    0    0    0    0  0.00000000000E+00  0.00000000000E+00  0.45593999997E+02  0.45594000000E+02  0.51100000000E-03 0. -1.
         11   -1    0    0    0    0 -0.00000000000E+00 -0.00000000000E+00 -0.45593999997E+02  0.45594000000E+02  0.51100000000E-03 0.  1.
    9900012    2    1    2    0    0  0.36935370802E+02  0.16801821661E+02  0.25771322464E+01  0.50528875095E+02  0.30000046339E+02 0.  0.
         12    1    1    2    0    0 -0.36935370802E+02 -0.16801821661E+02 -0.25771322464E+01  0.40659124905E+02  0.00000000000E+00 0. -1.
         11    1    3    3    0    0  0.14628910805E+01 -0.31016872875E+01  0.72827052274E+01  0.80497397494E+01  0.51100000000E-03 0. -1.
        -11    1    3    3    0    0  0.24528538281E+02  0.19054829957E+02 -0.17405072726E+01  0.31108923169E+02  0.51100000000E-03 0.  1.
         12    1    3    3    0    0  0.10943941441E+02  0.84867899114E+00 -0.29650657085E+01  0.11370212177E+02  0.00000000000E+00 0. -1.
</event>
<event>
 7    1  0.2966651E-011  0.5052887E+02  0.7816164E-02  0.1300439E+00
        -11   -1    0    0    0    0  0.00000000000E+00  0.00000000000E+00  0.45593999997E+02  0.45594000000E+02  0.51100000000E-03 0.  1.
         11   -1    0    0    0    0 -0.00000000000E+00 -0.00000000000E+00 -0.45593999997E+02  0.45594000000E+02  0.51100000000E-03 0. -1.
    9900012    2    1    2    0    0  0.78635393916E-01 -0.40655561579E+02 -0.53310951524E+00  0.50528867243E+02  0.30000022471E+02 0.  0.
         12    1    1    2    0    0 -0.78635393916E-01  0.40655561579E+02  0.53310951524E+00  0.40659132757E+02  0.00000000000E+00 0. -1.
         11    1    3    3    0    0 -0.71514228075E+01 -0.55678655554E+01  0.62000069124E+01  0.10981077406E+02  0.51100000000E-03 0. -1.
        -11    1    3    3    0    0  0.56772453125E+01 -0.72598857089E+01 -0.71645003855E+01  0.11673350885E+02  0.51100000000E-03 0.  1.
        -12    1    3    3    0    0  0.15528128889E+01 -0.27827810315E+02  0.43138395788E+00  0.27874438952E+02  0.00000000000E+00 0.  1.
</event>
<event>
 7    1  0.2966651E-011  0.5052881E+02  0.7816164E-02  0.1300439E+00
        -11   -1    0    0    0    0  0.00000000000E+00  0.00000000000E+00  0.45593999997E+02  0.45594000000E+02  0.51100000000E-03 0.  1.
         11   -1    0    0    0    0 -0.00000000000E+00 -0.00000000000E+00 -0.45593999997E+02  0.45594000000E+02  0.51100000000E-03 0. -1.
    9900012    2    1    2    0    0  0.21657825807E+02  0.24037095254E+02  0.24623696985E+02  0.50528808910E+02  0.29999845161E+02 0.  0.
         12    1    1    2    0    0 -0.21657825807E+02 -0.24037095254E+02 -0.24623696985E+02  0.40659191090E+02  0.00000000000E+00 0. -1.
         11    1    3    3    0    0  0.66132148654E+00 -0.27588530524E+01  0.11117132345E+02  0.11473414841E+02  0.51100000000E-03 0. -1.
        -11    1    3    3    0    0  0.32799505659E+01  0.13614429504E+02  0.19722269425E+01  0.14142151386E+02  0.51100000000E-03 0.  1.
         12    1    3    3    0    0  0.17716553754E+02  0.13181518802E+02  0.11534337697E+02  0.24913242683E+02  0.00000000000E+00 0. -1.
</event>
<event>
 7    1  0.2966651E-011  0.5052886E+02  0.7816164E-02  0.1300439E+00
        -11   -1    0    0    0    0  0.00000000000E+00  0.00000000000E+00  0.45593999997E+02  0.45594000000E+02  0.51100000000E-03 0. -1.
         11   -1    0    0    0    0 -0.00000000000E+00 -0.00000000000E+00 -0.45593999997E+02  0.45594000000E+02  0.51100000000E-03 0.  1.
    9900012    2    1    2    0    0  0.23175382189E+02  0.31348443603E+02  0.11547385957E+02  0.50528863532E+02  0.30000011191E+02 0.  0.
         12    1    1    2    0    0 -0.23175382189E+02 -0.31348443603E+02 -0.11547385957E+02  0.40659136468E+02  0.00000000000E+00 0. -1.
         11    1    3    3    0    0 -0.40750215899E+01  0.24566222086E+01  0.66221423286E+00  0.48040942523E+01  0.51100000000E-03 0. -1.
        -11    1    3    3    0    0  0.27442769216E+02  0.16897256242E+02  0.97745406865E+01  0.33677358813E+02  0.51100000000E-03 0.  1.
        -12    1    3    3    0    0 -0.19236543661E+00  0.11994565152E+02  0.11106310376E+01  0.12047410466E+02  0.00000000000E+00 0.  1.
</event>
<event>
 7    1  0.2966651E-011  0.5052895E+02  0.7816164E-02  0.1300438E+00
        -11   -1    0    0    0    0  0.00000000000E+00  0.00000000000E+00  0.45593999997E+02  0.45594000000E+02  0.51100000000E-03 0.  1.
         11   -1    0    0    0    0 -0.00000000000E+00 -0.00000000000E+00 -0.45593999997E+02  0.45594000000E+02  0.51100000000E-03 0. -1.
    9900012    2    1    2    0    0  0.83101752704E+01  0.29359581820E+01  0.39692306973E+02  0.50528953081E+02  0.30000283384E+02 0.  0.
         12    1    1    2    0    0 -0.83101752704E+01 -0.29359581820E+01 -0.39692306973E+02  0.40659046919E+02  0.00000000000E+00 0. -1.
         11    1    3    3    0    0 -0.49304207283E+00  0.27060231976E+01 -0.38455166459E+01  0.47279647383E+01  0.51100000000E-03 0. -1.
        -11    1    3    3    0    0  0.10182712718E+02  0.21928152736E+01  0.41025422834E+02  0.42327076394E+02  0.51100000000E-03 0.  1.
        -12    1    3    3    0    0 -0.13794953752E+01 -0.19628802891E+01  0.25124007854E+01  0.34739119486E+01  0.00000000000E+00 0.  1.
</event>
<event>
 7    1  0.2966651E-011  0.5052888E+02  0.7816164E-02  0.1300439E+00
        -11   -1    0    0    0    0  0.00000000000E+00  0.00000000000E+00  0.45593999997E+02  0.45594000000E+02  0.51100000000E-03 0.  1.
         11   -1    0    0    0    0 -0.00000000000E+00 -0.00000000000E+00 -0.45593999997E+02  0.45594000000E+02  0.51100000000E-03 0. -1.
    9900012    2    1    2    0    0 -0.17357716625E+02 -0.10546401700E+02  0.35222817560E+02  0.50528883038E+02  0.30000070482E+02 0.  0.
         12    1    1    2    0    0  0.17357716625E+02  0.10546401700E+02 -0.35222817560E+02  0.40659116962E+02  0.00000000000E+00 0. -1.
         11    1    3    3    0    0 -0.53726256782E+01 -0.79660987823E+01 -0.28520430137E+01  0.10022873146E+02  0.51100000000E-03 0. -1.
        -11    1    3    3    0    0 -0.68742964956E+01 -0.35313058709E+01  0.29344521250E+02  0.30345131423E+02  0.51100000000E-03 0.  1.
         12    1    3    3    0    0 -0.51107944513E+01  0.95100295329E+00  0.87303393240E+01  0.10160878469E+02  0.00000000000E+00 0. -1.
</event>
<event>
 7    1  0.2966651E-011  0.5052886E+02  0.7816164E-02  0.1300439E+00
        -11   -1    0    0    0    0  0.00000000000E+00  0.00000000000E+00  0.45593999997E+02  0.45594000000E+02  0.51100000000E-03 0.  1.
         11   -1    0    0    0    0 -0.00000000000E+00 -0.00000000000E+00 -0.45593999997E+02  0.45594000000E+02  0.51100000000E-03 0. -1.
    9900012    2    1    2    0    0  0.21753598128E+02  0.34062696639E+01  0.34181041917E+02  0.50528864113E+02  0.30000012958E+02 0.  0.
         12    1    1    2    0    0 -0.21753598128E+02 -0.34062696639E+01 -0.34181041917E+02  0.40659135887E+02  0.00000000000E+00 0. -1.
         11    1    3    3    0    0 -0.15693764232E+01 -0.49834975185E+01  0.26443408408E+01  0.58558286022E+01  0.51100000000E-03 0. -1.
        -11    1    3    3    0    0  0.16580246687E+02  0.13140490411E+01  0.30633471074E+02  0.34857436156E+02  0.51100000000E-03 0.  1.
        -12    1    3    3    0    0  0.67427278637E+01  0.70757181413E+01  0.90323000296E+00  0.98155993550E+01  0.00000000000E+00 0.  1.
</event>
<event>
 7    1  0.2966651E-011  0.5052889E+02  0.7816164E-02  0.1300439E+00
        -11   -1    0    0    0    0  0.00000000000E+00  0.00000000000E+00  0.45593999997E+02  0.45594000000E+02  0.51100000000E-03 0.  1.
         11   -1    0    0    0    0 -0.00000000000E+00 -0.00000000000E+00 -0.45593999997E+02  0.45594000000E+02  0.51100000000E-03 0. -1.
    9900012    2    1    2    0    0 -0.98130667423E+00 -0.40534096920E+02 -0.30310846504E+01  0.50528887244E+02  0.30000083268E+02 0.  0.
         12    1    1    2    0    0  0.98130667423E+00  0.40534096920E+02  0.30310846504E+01  0.40659112756E+02  0.00000000000E+00 0. -1.
         11    1    3    3    0    0 -0.90783403945E+01 -0.58834409400E+01  0.24463898442E+00  0.10820859028E+02  0.51100000000E-03 0. -1.
        -11    1    3    3    0    0  0.74567924061E+01 -0.35097619943E+02  0.46768192860E+00  0.35884055029E+02  0.51100000000E-03 0.  1.
        -12    1    3    3    0    0  0.64024131413E+00  0.44696396320E+00 -0.37434055635E+01  0.38239731873E+01  0.00000000000E+00 0.  1.
</event>
<event>
 7    1  0.2966651E-011  0.5052885E+02  0.7816164E-02  0.1300439E+00
        -11   -1    0    0    0    0  0.00000000000E+00  0.00000000000E+00  0.45593999997E+02  0.45594000000E+02  0.51100000000E-03 0.  1.
         11   -1    0    0    0    0 -0.00000000000E+00 -0.00000000000E+00 -0.45593999997E+02  0.45594000000E+02  0.51100000000E-03 0. -1.
    9900012    2    1    2    0    0  0.15262000074E+02  0.32825833001E+02  0.18512216595E+02  0.50528854390E+02  0.29999983404E+02 0.  0.
         12    1    1    2    0    0 -0.15262000074E+02 -0.32825833001E+02 -0.18512216595E+02  0.40659145610E+02  0.00000000000E+00 0. -1.
         11    1    3    3    0    0  0.21394966395E+01 -0.49844289924E+01  0.61094323159E+01  0.81698923943E+01  0.51100000000E-03 0. -1.
        -11    1    3    3    0    0  0.76077244933E+01  0.16384230969E+02  0.82025998722E+01  0.19839433998E+02  0.51100000000E-03 0.  1.
         12    1    3    3    0    0  0.55147789408E+01  0.21426031024E+02  0.42001844073E+01  0.22519527998E+02  0.00000000000E+00 0. -1.
</event>
<event>
 7    1  0.2966651E-011  0.5052886E+02  0.7816164E-02  0.1300439E+00
        -11   -1    0    0    0    0  0.00000000000E+00  0.00000000000E+00  0.45593999997E+02  0.45594000000E+02  0.51100000000E-03 0. -1.
         11   -1    0    0    0    0 -0.00000000000E+00 -0.00000000000E+00 -0.45593999997E+02  0.45594000000E+02  0.51100000000E-03 0.  1.
    9900012    2    1    2    0    0 -0.13227347898E+02  0.37615745821E+02  0.79535265499E+01  0.50528860183E+02  0.30000001011E+02 0.  0.
         12    1    1    2    0    0  0.13227347898E+02 -0.37615745821E+02 -0.79535265499E+01  0.40659139817E+02  0.00000000000E+00 0. -1.
         11    1    3    3    0    0  0.42476245291E+01 -0.11556951143E+01  0.13950318432E+01  0.46177981162E+01  0.51100000000E-03 0. -1.
        -11    1    3    3    0    0 -0.13679078820E+02  0.17897308987E+02 -0.28429434427E+01  0.22704915636E+02  0.51100000000E-03 0.  1.
        -12    1    3    3    0    0 -0.37958936069E+01  0.20874131949E+02  0.94014381494E+01  0.23206146431E+02  0.00000000000E+00 0.  1.
</event>
<event>
 7    1  0.2966651E-011  0.5052886E+02  0.7816164E-02  0.1300439E+00
        -11   -1    0    0    0    0  0.00000000000E+00  0.00000000000E+00  0.45593999997E+02  0.45594000000E+02  0.51100000000E-03 0. -1.
         11   -1    0    0    0    0 -0.00000000000E+00 -0.00000000000E+00 -0.45593999997E+02  0.45594000000E+02  0.51100000000E-03 0.  1.
    9900012    2    1    2    0    0 -0.24860060657E+02  0.32168556136E+02  0.57194597197E+00  0.50528859061E+02  0.29999997601E+02 0.  0.
         12    1    1    2    0    0  0.24860060657E+02 -0.32168556136E+02 -0.57194597197E+00  0.40659140939E+02  0.00000000000E+00 0. -1.
         11    1    3    3    0    0 -0.23468319032E+01 -0.35076816527E+00 -0.45736723432E+01  0.51525854919E+01  0.51100000000E-03 0. -1.
        -11    1    3    3    0    0 -0.22617041330E+01  0.22271905496E+02  0.26689148025E+01  0.22544981404E+02  0.51100000000E-03 0.  1.
        -12    1    3    3    0    0 -0.20251524621E+02  0.10247418805E+02  0.24767035127E+01  0.22831292165E+02  0.00000000000E+00 0.  1.
</event>
<event>
 7    1  0.2966651E-011  0.5052886E+02  0.7816164E-02  0.1300439E+00
        -11   -1    0    0    0    0  0.00000000000E+00  0.00000000000E+00  0.45593999997E+02  0.45594000000E+02  0.51100000000E-03 0.  1.
         11   -1    0    0    0    0 -0.00000000000E+00 -0.00000000000E+00 -0.45593999997E+02  0.45594000000E+02  0.51100000000E-03 0. -1.
    9900012    2    1    2    0    0 -0.27408011057E+02  0.26479399183E+02  0.14170663181E+02  0.50528863927E+02  0.30000012393E+02 0.  0.
         12    1    1    2    0    0  0.27408011057E+02 -0.26479399183E+02 -0.14170663181E+02  0.40659136073E+02  0.00000000000E+00 0. -1.
         11    1    3    3    0    0  0.33541926022E+01  0.16297954453E+00  0.53083955843E+01  0.62814197667E+01  0.51100000000E-03 0. -1.
        -11    1    3    3    0    0 -0.25009083047E+02  0.24110387729E+02  0.16726329180E+01  0.34778768415E+02  0.51100000000E-03 0.  1.
         12    1    3    3    0    0 -0.57531206114E+01  0.22060319093E+01  0.71896346792E+01  0.94686757456E+01  0.00000000000E+00 0. -1.
</event>
<event>
 7    1  0.2966651E-011  0.5052888E+02  0.7816164E-02  0.1300439E+00
        -11   -1    0    0    0    0  0.00000000000E+00  0.00000000000E+00  0.45593999997E+02  0.45594000000E+02  0.51100000000E-03 0. -1.
         11   -1    0    0    0    0 -0.00000000000E+00 -0.00000000000E+00 -0.45593999997E+02  0.45594000000E+02  0.51100000000E-03 0.  1.
    9900012    2    1    2    0    0 -0.25917015215E+02  0.29907269081E+02 -0.93288542770E+01  0.50528881175E+02  0.30000064820E+02 0.  0.
         12    1    1    2    0    0  0.25917015215E+02 -0.29907269081E+02  0.93288542770E+01  0.40659118825E+02  0.00000000000E+00 0. -1.
         11    1    3    3    0    0 -0.82051435912E+01 -0.31965892528E+00 -0.46405369256E+00  0.82244701514E+01  0.51100000000E-03 0. -1.
        -11    1    3    3    0    0 -0.22071897662E+00  0.22058194954E+02 -0.45629293444E+01  0.22526273681E+02  0.51100000000E-03 0.  1.
        -12    1    3    3    0    0 -0.17491152647E+02  0.81687330522E+01 -0.43018712400E+01  0.19778137343E+02  0.00000000000E+00 0.  1.
</event>
<event>
 7    1  0.2966651E-011  0.5052885E+02  0.7816164E-02  0.1300439E+00
        -11   -1    0    0    0    0  0.00000000000E+00  0.00000000000E+00  0.45593999997E+02  0.45594000000E+02  0.51100000000E-03 0.  1.
         11   -1    0    0    0    0 -0.00000000000E+00 -0.00000000000E+00 -0.45593999997E+02  0.45594000000E+02  0.51100000000E-03 0. -1.
    9900012    2    1    2    0    0  0.35514326559E+02 -0.14400664607E+02  0.13583821487E+02  0.50528846809E+02  0.29999960359E+02 0.  0.
         12    1    1    2    0    0 -0.35514326559E+02  0.14400664607E+02 -0.13583821487E+02  0.40659153191E+02  0.00000000000E+00 0. -1.
         11    1    3    3    0    0  0.17514693066E+02  0.61343471543E+00 -0.18657631261E+00  0.17526425372E+02  0.51100000000E-03 0. -1.
        -11    1    3    3    0    0  0.68998655484E+01 -0.45118142830E+01  0.15568144496E+02  0.17616235013E+02  0.51100000000E-03 0.  1.
        -12    1    3    3    0    0  0.11099767945E+02 -0.10502285039E+02 -0.17977466971E+01  0.15386186423E+02  0.00000000000E+00 0.  1.
</event>
<event>
 7    1  0.2966651E-011  0.5052886E+02  0.7816164E-02  0.1300439E+00
        -11   -1    0    0    0    0  0.00000000000E+00  0.00000000000E+00  0.45593999997E+02  0.45594000000E+02  0.51100000000E-03 0.  1.
         11   -1    0    0    0    0 -0.00000000000E+00 -0.00000000000E+00 -0.45593999997E+02  0.45594000000E+02  0.51100000000E-03 0. -1.
    9900012    2    1    2    0    0 -0.22235358791E+02  0.27788610735E+02 -0.19660807179E+02  0.50528863191E+02  0.30000010155E+02 0.  0.
         12    1    1    2    0    0  0.22235358791E+02 -0.27788610735E+02  0.19660807179E+02  0.40659136809E+02  0.00000000000E+00 0. -1.
         11    1    3    3    0    0 -0.80322365902E+01  0.81972763390E+01 -0.22156786587E+02  0.24952662306E+02  0.51100000000E-03 0. -1.
        -11    1    3    3    0    0 -0.16491719111E+01  0.37166271528E+00 -0.15173316381E+01  0.22716066401E+01  0.51100000000E-03 0.  1.
         12    1    3    3    0    0 -0.12553950289E+02  0.19219671680E+02  0.40133110459E+01  0.23304594245E+02  0.00000000000E+00 0. -1.
</event>
<event>
 7    1  0.2966651E-011  0.5052887E+02  0.7816164E-02  0.1300439E+00
        -11   -1    0    0    0    0  0.00000000000E+00  0.00000000000E+00  0.45593999997E+02  0.45594000000E+02  0.51100000000E-03 0.  1.
         11   -1    0    0    0    0 -0.00000000000E+00 -0.00000000000E+00 -0.45593999997E+02  0.45594000000E+02  0.51100000000E-03 0. -1.
    9900012    2    1    2    0    0  0.38090285968E+02 -0.12201187032E+02  0.73093111527E+01  0.50528869664E+02  0.30000029831E+02 0.  0.
         12    1    1    2    0    0 -0.38090285968E+02  0.12201187032E+02 -0.73093111527E+01  0.40659130336E+02  0.00000000000E+00 0. -1.
         11    1    3    3    0    0  0.12571185887E+02 -0.87788711629E+01 -0.53745422643E+01  0.16247738252E+02  0.51100000000E-03 0. -1.
        -11    1    3    3    0    0  0.27219727892E+02 -0.10255072300E+00  0.81576854268E+01  0.28416050657E+02  0.51100000000E-03 0.  1.
        -12    1    3    3    0    0 -0.17006278115E+01 -0.33197651465E+01  0.45261679901E+01  0.58650807544E+01  0.00000000000E+00 0.  1.
</event>
<event>
 7    1  0.4151731E-011  0.5052885E+02  0.7816164E-02  0.1300439E+00
        -11   -1    0    0    0    0  0.00000000000E+00  0.00000000000E+00  0.45593999997E+02  0.45594000000E+02  0.51100000000E-03 0.  1.
         11   -1    0    0    0    0 -0.00000000000E+00 -0.00000000000E+00 -0.45593999997E+02  0.45594000000E+02  0.51100000000E-03 0. -1.
    9900012    2    1    2    0    0 -0.11605537610E+02 -0.38608438548E+02  0.52788368557E+01  0.50528854056E+02  0.29999982390E+02 0.  0.
         12    1    1    2    0    0  0.11605537610E+02  0.38608438548E+02 -0.52788368557E+01  0.40659145944E+02  0.00000000000E+00 0. -1.
         11    1    3    3    0    0  0.61637241511E+01 -0.61896493424E+01 -0.12447871454E+01  0.88234205210E+01  0.51100000000E-03 0. -1.
        -11    1    3    3    0    0 -0.15161588412E+02 -0.14246429666E+02 -0.30063659045E+01  0.21020769673E+02  0.51100000000E-03 0.  1.
        -12    1    3    3    0    0 -0.26076733494E+01 -0.18172359539E+02  0.95299899056E+01  0.20684663863E+02  0.00000000000E+00 0.  1.
</event>
<event>
 7    1  0.2966651E-011  0.5052890E+02  0.7816164E-02  0.1300439E+00
        -11   -1    0    0    0    0  0.00000000000E+00  0.00000000000E+00  0.45593999997E+02  0.45594000000E+02  0.51100000000E-03 0.  1.
         11   -1    0    0    0    0 -0.00000000000E+00 -0.00000000000E+00 -0.45593999997E+02  0.45594000000E+02  0.51100000000E-03 0. -1.
    9900012    2    1    2    0    0  0.26631877402E+02  0.21139404987E+02  0.22294195125E+02  0.50528899255E+02  0.30000119774E+02 0.  0.
         12    1    1    2    0    0 -0.26631877402E+02 -0.21139404987E+02 -0.22294195125E+02  0.40659100745E+02  0.00000000000E+00 0. -1.
         11    1    3    3    0    0  0.17978537649E+02  0.11050535757E+01  0.46754231072E+01  0.18609367021E+02  0.51100000000E-03 0. -1.
        -11    1    3    3    0    0  0.93114334729E+01  0.18409407976E+02  0.79756150889E+01  0.22118307613E+02  0.51100000000E-03 0.  1.
        -12    1    3    3    0    0 -0.65809372066E+00  0.16249434356E+01  0.96431569292E+01  0.98012246212E+01  0.00000000000E+00 0.  1.
</event>
<event>
 7    1  0.2966651E-011  0.5052886E+02  0.7816164E-02  0.1300439E+00
        -11   -1    0    0    0    0  0.00000000000E+00  0.00000000000E+00  0.45593999997E+02  0.45594000000E+02  0.51100000000E-03 0.  1.
         11   -1    0    0    0    0 -0.00000000000E+00 -0.00000000000E+00 -0.45593999997E+02  0.45594000000E+02  0.51100000000E-03 0. -1.
    9900012    2    1    2    0    0  0.44877799855E+01 -0.31856764779E+02  0.24863059372E+02  0.50528863847E+02  0.30000012148E+02 0.  0.
         12    1    1    2    0    0 -0.44877799855E+01  0.31856764779E+02 -0.24863059372E+02  0.40659136153E+02  0.00000000000E+00 0. -1.
         11    1    3    3    0    0 -0.44963013497E+01 -0.27528793536E+01  0.17885085260E+02  0.18645947162E+02  0.51100000000E-03 0. -1.
        -11    1    3    3    0    0  0.83035853593E+01 -0.16759306378E+02  0.50197119349E+01  0.19365468966E+02  0.51100000000E-03 0.  1.
         12    1    3    3    0    0  0.68049597589E+00 -0.12344579047E+02  0.19582621774E+01  0.12517447719E+02  0.00000000000E+00 0. -1.
</event>
<event>
 7    1  0.2966651E-011  0.5052886E+02  0.7816164E-02  0.1300439E+00
        -11   -1    0    0    0    0  0.00000000000E+00  0.00000000000E+00  0.45593999997E+02  0.45594000000E+02  0.51100000000E-03 0.  1.
         11   -1    0    0    0    0 -0.00000000000E+00 -0.00000000000E+00 -0.45593999997E+02  0.45594000000E+02  0.51100000000E-03 0. -1.
    9900012    2    1    2    0    0 -0.17609843883E+02  0.15396138267E+02  0.33256847720E+02  0.50528860863E+02  0.30000003079E+02 0.  0.
         12    1    1    2    0    0  0.17609843883E+02 -0.15396138267E+02 -0.33256847720E+02  0.40659139137E+02  0.00000000000E+00 0. -1.
         11    1    3    3    0    0  0.24557243518E+01  0.26791362182E+01  0.10003991794E+01  0.37695028515E+01  0.51100000000E-03 0. -1.
        -11    1    3    3    0    0 -0.10834681956E+02 -0.36361106686E+01  0.23305056933E+02  0.25956450312E+02  0.51100000000E-03 0.  1.
        -12    1    3    3    0    0 -0.92308862790E+01  0.16353112717E+02  0.89513916071E+01  0.20802907699E+02  0.00000000000E+00 0.  1.
</event>
<event>
 7    1  0.2966651E-011  0.5052887E+02  0.7816164E-02  0.1300439E+00
        -11   -1    0    0    0    0  0.00000000000E+00  0.00000000000E+00  0.45593999997E+02  0.45594000000E+02  0.51100000000E-03 0.  1.
         11   -1    0    0    0    0 -0.00000000000E+00 -0.00000000000E+00 -0.45593999997E+02  0.45594000000E+02  0.51100000000E-03 0. -1.
    9900012    2    1    2    0    0 -0.30924233811E+02 -0.14679871815E+02 -0.21939879034E+02  0.50528866151E+02  0.30000019152E+02 0.  0.
         12    1    1    2    0    0  0.30924233811E+02  0.14679871815E+02  0.21939879034E+02  0.40659133849E+02  0.00000000000E+00 0. -1.
         11    1    3    3    0    0 -0.10926968624E+02  0.52892269321E+01 -0.11848745997E+02  0.16963706753E+02  0.51100000000E-03 0. -1.
        -11    1    3    3    0    0 -0.32250926759E+01 -0.10034630984E+02  0.18552379657E+01  0.10702193696E+02  0.51100000000E-03 0.  1.
        -12    1    3    3    0    0 -0.16772172512E+02 -0.99344677638E+01 -0.11946371003E+02  0.22862965701E+02  0.00000000000E+00 0.  1.
</event>
<event>
 7    1  0.2966651E-011  0.5052889E+02  0.7816164E-02  0.1300439E+00
        -11   -1    0    0    0    0  0.00000000000E+00  0.00000000000E+00  0.45593999997E+02  0.45594000000E+02  0.51100000000E-03 0.  1.
         11   -1    0    0    0    0 -0.00000000000E+00 -0.00000000000E+00 -0.45593999997E+02  0.45594000000E+02  0.51100000000E-03 0. -1.
    9900012    2    1    2    0    0 -0.15513257077E+02  0.19597707855E+02 -0.32069178131E+02  0.50528886824E+02  0.30000081989E+02 0.  0.
         12    1    1    2    0    0  0.15513257077E+02 -0.19597707855E+02  0.32069178131E+02  0.40659113176E+02  0.00000000000E+00 0. -1.
         11    1    3    3    0    0  0.25235544008E+01 -0.58307724121E+01 -0.22312712496E+01  0.67338551652E+01  0.51100000000E-03 0. -1.
        -11    1    3    3    0    0 -0.60179621285E+01  0.14056228655E+02 -0.11772524977E+02  0.19297299727E+02  0.51100000000E-03 0.  1.
         12    1    3    3    0    0 -0.12018849349E+02  0.11372251612E+02 -0.18065381905E+02  0.24497731931E+02  0.00000000000E+00 0. -1.
</event>
<event>
 7    1  0.2966651E-011  0.5052886E+02  0.7816164E-02  0.1300439E+00
        -11   -1    0    0    0    0  0.00000000000E+00  0.00000000000E+00  0.45593999997E+02  0.45594000000E+02  0.51100000000E-03 0.  1.
         11   -1    0    0    0    0 -0.00000000000E+00 -0.00000000000E+00 -0.45593999997E+02  0.45594000000E+02  0.51100000000E-03 0. -1.
    9900012    2    1    2    0    0 -0.25288583679E+02 -0.10177507477E+02  0.30167391706E+02  0.50528860249E+02  0.30000001214E+02 0.  0.
         12    1    1    2    0    0  0.25288583679E+02  0.10177507477E+02 -0.30167391706E+02  0.40659139751E+02  0.00000000000E+00 0. -1.
         11    1    3    3    0    0 -0.31438795622E+01  0.95962598089E+00 -0.17153567825E+01  0.37077364897E+01  0.51100000000E-03 0. -1.
        -11    1    3    3    0    0 -0.18221219579E+02  0.74590649299E+00  0.28539099438E+02  0.33868117994E+02  0.51100000000E-03 0.  1.
        -12    1    3    3    0    0 -0.39234845378E+01 -0.11883039951E+02  0.33436490506E+01  0.12953005766E+02  0.00000000000E+00 0.  1.
</event>
<event>
 7    1  0.2966651E-011  0.5052886E+02  0.7816164E-02  0.1300439E+00
        -11   -1    0    0    0    0  0.00000000000E+00  0.00000000000E+00  0.45593999997E+02  0.45594000000E+02  0.51100000000E-03 0. -1.
         11   -1    0    0    0    0 -0.00000000000E+00 -0.00000000000E+00 -0.45593999997E+02  0.45594000000E+02  0.51100000000E-03 0.  1.
    9900012    2    1    2    0    0  0.15875707622E+02  0.31182918588E+02 -0.20706360238E+02  0.50528857627E+02  0.29999993243E+02 0.  0.
         12    1    1    2    0    0 -0.15875707622E+02 -0.31182918588E+02  0.20706360238E+02  0.40659142373E+02  0.00000000000E+00 0. -1.
         11    1    3    3    0    0 -0.12808122195E+01  0.14648325728E+02  0.39803991166E+01  0.15233433755E+02  0.51100000000E-03 0. -1.
        -11    1    3    3    0    0  0.13590434785E+02  0.92149049822E+01 -0.20085607420E+02  0.25943130443E+02  0.51100000000E-03 0.  1.
         12    1    3    3    0    0  0.35660850559E+01  0.73196878781E+01 -0.46011519351E+01  0.93522934293E+01  0.00000000000E+00 0. -1.
</event>
<event>
 7    1  0.2966651E-011  0.5052887E+02  0.7816164E-02  0.1300439E+00
        -11   -1    0    0    0    0  0.00000000000E+00  0.00000000000E+00  0.45593999997E+02  0.45594000000E+02  0.51100000000E-03 0.  1.
         11   -1    0    0    0    0 -0.00000000000E+00 -0.00000000000E+00 -0.45593999997E+02  0.45594000000E+02  0.51100000000E-03 0. -1.
    9900012    2    1    2    0    0 -0.11069933741E+02 -0.45577500306E+01  0.38856770746E+02  0.50528866325E+02  0.30000019683E+02 0.  0.
         12    1    1    2    0    0  0.11069933741E+02  0.45577500306E+01 -0.38856770746E+02  0.40659133675E+02  0.00000000000E+00 0. -1.
         11    1    3    3    0    0 -0.54785320791E+01  0.11398810477E+02  0.23782798502E+02  0.26936382439E+02  0.51100000000E-03 0. -1.
        -11    1    3    3    0    0 -0.40548774007E+01 -0.12704783095E+02  0.14893057098E+02  0.19991415512E+02  0.51100000000E-03 0.  1.
         12    1    3    3    0    0 -0.15365242611E+01 -0.32517774128E+01  0.18091514626E+00  0.36010683745E+01  0.00000000000E+00 0. -1.
</event>
<event>
 7    1  0.2966651E-011  0.5052885E+02  0.7816164E-02  0.1300439E+00
        -11   -1    0    0    0    0  0.00000000000E+00  0.00000000000E+00  0.45593999997E+02  0.45594000000E+02  0.51100000000E-03 0. -1.
         11   -1    0    0    0    0 -0.00000000000E+00 -0.00000000000E+00 -0.45593999997E+02  0.45594000000E+02  0.51100000000E-03 0.  1.
    9900012    2    1    2    0    0 -0.12392589603E+02  0.26053883436E+02 -0.28649344989E+02  0.50528854811E+02  0.29999984684E+02 0.  0.
         12    1    1    2    0    0  0.12392589603E+02 -0.26053883436E+02  0.28649344989E+02  0.40659145189E+02  0.00000000000E+00 0. -1.
         11    1    3    3    0    0 -0.15052939768E+02  0.82433631736E+01 -0.26135418705E+02  0.31266661850E+02  0.51100000000E-03 0. -1.
        -11    1    3    3    0    0  0.55105390833E+00  0.31602498478E+01  0.20091664645E+01  0.37851802670E+01  0.51100000000E-03 0.  1.
         12    1    3    3    0    0  0.21092962570E+01  0.14650270415E+02 -0.45230927481E+01  0.15477012694E+02  0.00000000000E+00 0. -1.
</event>
<event>
 7    1  0.2966651E-011  0.5052886E+02  0.7816164E-02  0.1300439E+00
        -11   -1    0    0    0    0  0.00000000000E+00  0.00000000000E+00  0.45593999997E+02  0.45594000000E+02  0.51100000000E-03 0.  1.
         11   -1    0    0    0    0 -0.00000000000E+00 -0.00000000000E+00 -0.45593999997E+02  0.45594000000E+02  0.51100000000E-03 0. -1.
    9900012    2    1    2    0    0 -0.23626520149E+02  0.24152578060E+02  0.22618709485E+02  0.50528862035E+02  0.30000006641E+02 0.  0.
         12    1    1    2    0    0  0.23626520149E+02 -0.24152578060E+02 -0.22618709485E+02  0.40659137965E+02  0.00000000000E+00 0. -1.
         11    1    3    3    0    0  0.19173807305E+01  0.80946324988E+01 -0.44374450513E+01  0.94281675314E+01  0.51100000000E-03 0. -1.
        -11    1    3    3    0    0 -0.16174176681E+02  0.13749663233E+02  0.17388752387E+02  0.27441318120E+02  0.51100000000E-03 0.  1.
         12    1    3    3    0    0 -0.93697241981E+01  0.23082823289E+01  0.96674021494E+01  0.13659376383E+02  0.00000000000E+00 0. -1.
</event>
<event>
 7    1  0.2966651E-011  0.5052890E+02  0.7816164E-02  0.1300439E+00
        -11   -1    0    0    0    0  0.00000000000E+00  0.00000000000E+00  0.45593999997E+02  0.45594000000E+02  0.51100000000E-03 0.  1.
         11   -1    0    0    0    0 -0.00000000000E+00 -0.00000000000E+00 -0.45593999997E+02  0.45594000000E+02  0.51100000000E-03 0. -1.
    9900012    2    1    2    0    0 -0.13077546628E+02 -0.28273176740E+02  0.26129830335E+02  0.50528895459E+02  0.30000108236E+02 0.  0.
         12    1    1    2    0    0  0.13077546628E+02  0.28273176740E+02 -0.26129830335E+02  0.40659104541E+02  0.00000000000E+00 0. -1.
         11    1    3    3    0    0 -0.62093819646E+01  0.47823663587E+01  0.98320753550E+01  0.12573669250E+02  0.51100000000E-03 0. -1.
        -11    1    3    3    0    0 -0.29355228459E+01 -0.20778553739E+02  0.12865129742E+02  0.24614571973E+02  0.51100000000E-03 0.  1.
         12    1    3    3    0    0 -0.39326418176E+01 -0.12276989360E+02  0.34326252374E+01  0.13340654235E+02  0.00000000000E+00 0. -1.
</event>
<event>
 7    1  0.2966651E-011  0.5052886E+02  0.7816164E-02  0.1300439E+00
        -11   -1    0    0    0    0  0.00000000000E+00  0.00000000000E+00  0.45593999997E+02  0.45594000000E+02  0.51100000000E-03 0.  1.
         11   -1    0    0    0    0 -0.00000000000E+00 -0.00000000000E+00 -0.45593999997E+02  0.45594000000E+02  0.51100000000E-03 0. -1.
    9900012    2    1    2    0    0  0.24032938306E+02  0.84869062803E+01  0.31678945786E+02  0.50528864397E+02  0.30000013822E+02 0.  0.
         12    1    1    2    0    0 -0.24032938306E+02 -0.84869062803E+01 -0.31678945786E+02  0.40659135603E+02  0.00000000000E+00 0. -1.
         11    1    3    3    0    0  0.41188972108E+01 -0.48519001038E+01  0.17320431036E+01  0.65959246830E+01  0.51100000000E-03 0. -1.
        -11    1    3    3    0    0  0.18197166068E+02  0.12630035929E+02  0.33361686125E+02  0.40045683436E+02  0.51100000000E-03 0.  1.
        -12    1    3    3    0    0  0.17168750270E+01  0.70877045527E+00 -0.34147834422E+01  0.38872562784E+01  0.00000000000E+00 0.  1.
</event>
<event>
 7    1  0.2966651E-011  0.5052885E+02  0.7816164E-02  0.1300439E+00
        -11   -1    0    0    0    0  0.00000000000E+00  0.00000000000E+00  0.45593999997E+02  0.45594000000E+02  0.51100000000E-03 0. -1.
         11   -1    0    0    0    0 -0.00000000000E+00 -0.00000000000E+00 -0.45593999997E+02  0.45594000000E+02  0.51100000000E-03 0.  1.
    9900012    2    1    2    0    0 -0.32876908063E+02 -0.10755146555E+02 -0.21368250524E+02  0.50528851070E+02  0.29999973313E+02 0.  0.
         12    1    1    2    0    0  0.32876908063E+02  0.10755146555E+02  0.21368250524E+02  0.40659148930E+02  0.00000000000E+00 0. -1.
         11    1    3    3    0    0 -0.16951219398E+02 -0.17034145410E+02 -0.18919887197E+02  0.30585422683E+02  0.51100000000E-03 0. -1.
        -11    1    3    3    0    0  0.36433803342E+00  0.23229774666E+01  0.14098618209E+01  0.27416559099E+01  0.51100000000E-03 0.  1.
         12    1    3    3    0    0 -0.16290026699E+02  0.39560213874E+01 -0.38582251477E+01  0.17201772477E+02  0.00000000000E+00 0. -1.
</event>
<event>
 7    1  0.2966651E-011  0.5052886E+02  0.7816164E-02  0.1300439E+00
        -11   -1    0    0    0    0  0.00000000000E+00  0.00000000000E+00  0.45593999997E+02  0.45594000000E+02  0.51100000000E-03 0. -1.
         11   -1    0    0    0    0 -0.00000000000E+00 -0.00000000000E+00 -0.45593999997E+02  0.45594000000E+02  0.51100000000E-03 0.  1.
    9900012    2    1    2    0    0  0.43774963935E+00  0.31738511197E+02 -0.25409464724E+02  0.50528860618E+02  0.30000002334E+02 0.  0.
         12    1    1    2    0    0 -0.43774963935E+00 -0.31738511197E+02  0.25409464724E+02  0.40659139382E+02  0.00000000000E+00 0. -1.
         11    1    3    3    0    0 -0.99036965575E+00 -0.81404401594E+00 -0.50719115354E+01  0.52314229994E+01  0.51100000000E-03 0. -1.
        -11    1    3    3    0    0 -0.91847213493E+01  0.22480462652E+02 -0.64540353940E+01  0.25127373131E+02  0.51100000000E-03 0.  1.
        -12    1    3    3    0    0  0.10612840644E+02  0.10072092560E+02 -0.13883517795E+02  0.20170064488E+02  0.00000000000E+00 0.  1.
</event>
<event>
 7    1  0.2966651E-011  0.5052888E+02  0.7816164E-02  0.1300439E+00
        -11   -1    0    0    0    0  0.00000000000E+00  0.00000000000E+00  0.45593999997E+02  0.45594000000E+02  0.51100000000E-03 0.  1.
         11   -1    0    0    0    0 -0.00000000000E+00 -0.00000000000E+00 -0.45593999997E+02  0.45594000000E+02  0.51100000000E-03 0. -1.
    9900012    2    1    2    0    0 -0.31185954695E+02  0.20604903679E+02  0.16001206367E+02  0.50528875181E+02  0.30000046600E+02 0.  0.
         12    1    1    2    0    0  0.31185954695E+02 -0.20604903679E+02 -0.16001206367E+02  0.40659124819E+02  0.00000000000E+00 0. -1.
         11    1    3    3    0    0 -0.42384960407E+01  0.69217977711E+01 -0.71379858401E+01  0.10808652792E+02  0.51100000000E-03 0. -1.
        -11    1    3    3    0    0 -0.18414059587E+02  0.51983084113E+01  0.19077646029E+02  0.27019559195E+02  0.51100000000E-03 0.  1.
        -12    1    3    3    0    0 -0.85333990675E+01  0.84847974964E+01  0.40615461775E+01  0.12700663193E+02  0.00000000000E+00 0.  1.
</event>
<event>
 7    1  0.2966651E-011  0.5052885E+02  0.7816164E-02  0.1300439E+00
        -11   -1    0    0    0    0  0.00000000000E+00  0.00000000000E+00  0.45593999997E+02  0.45594000000E+02  0.51100000000E-03 0.  1.
         11   -1    0    0    0    0 -0.00000000000E+00 -0.00000000000E+00 -0.45593999997E+02  0.45594000000E+02  0.51100000000E-03 0. -1.
    9900012    2    1    2    0    0 -0.16863915678E+02  0.14813049924E+02  0.33902035624E+02  0.50528854418E+02  0.29999983488E+02 0.  0.
         12    1    1    2    0    0  0.16863915678E+02 -0.14813049924E+02 -0.33902035624E+02  0.40659145582E+02  0.00000000000E+00 0. -1.
         11    1    3    3    0    0 -0.13729742870E+02  0.28253395322E+01  0.29482490254E+02  0.32645146876E+02  0.51100000000E-03 0. -1.
        -11    1    3    3    0    0 -0.47257089200E+01  0.12012170452E+02 -0.29090622283E+00  0.12911591322E+02  0.51100000000E-03 0.  1.
         12    1    3    3    0    0  0.15915361121E+01 -0.24460060804E-01  0.47104515930E+01  0.49721162195E+01  0.00000000000E+00 0. -1.
</event>
<event>
 7    1  0.2966651E-011  0.5052886E+02  0.7816164E-02  0.1300439E+00
        -11   -1    0    0    0    0  0.00000000000E+00  0.00000000000E+00  0.45593999997E+02  0.45594000000E+02  0.51100000000E-03 0.  1.
         11   -1    0    0    0    0 -0.00000000000E+00 -0.00000000000E+00 -0.45593999997E+02  0.45594000000E+02  0.51100000000E-03 0. -1.
    9900012    2    1    2    0    0  0.27125371762E+00  0.36655064115E+02 -0.17592565607E+02  0.50528859964E+02  0.30000000347E+02 0.  0.
         12    1    1    2    0    0 -0.27125371762E+00 -0.36655064115E+02  0.17592565607E+02  0.40659140036E+02  0.00000000000E+00 0. -1.
         11    1    3    3    0    0 -0.86075295244E+01  0.59786761916E+01 -0.95727847738E+01  0.14194095325E+02  0.51100000000E-03 0. -1.
        -11    1    3    3    0    0  0.47552129781E+01  0.26157746288E+02 -0.43437609061E+00  0.26590006096E+02  0.51100000000E-03 0.  1.
         12    1    3    3    0    0  0.41235702639E+01  0.45186416351E+01 -0.75854047426E+01  0.97447585428E+01  0.00000000000E+00 0. -1.
</event>
<event>
 7    1  0.2966651E-011  0.5052885E+02  0.7816164E-02  0.1300439E+00
        -11   -1    0    0    0    0  0.00000000000E+00  0.00000000000E+00  0.45593999997E+02  0.45594000000E+02  0.51100000000E-03 0.  1.
         11   -1    0    0    0    0 -0.00000000000E+00 -0.00000000000E+00 -0.45593999997E+02  0.45594000000E+02  0.51100000000E-03 0. -1.
    9900012    2    1    2    0    0 -0.22770737687E+02  0.10236970134E+02  0.32091497720E+02  0.50528852465E+02  0.29999977553E+02 0.  0.
         12    1    1    2    0    0  0.22770737687E+02 -0.10236970134E+02 -0.32091497720E+02  0.40659147535E+02  0.00000000000E+00 0. -1.
         11    1    3    3    0    0  0.10164654862E+01  0.74040877295E+01  0.15688910083E+02  0.17378021092E+02  0.51100000000E-03 0. -1.
        -11    1    3    3    0    0 -0.19607149323E+02 -0.43668476357E+01  0.14003369594E+02  0.24486813249E+02  0.51100000000E-03 0.  1.
         12    1    3    3    0    0 -0.41800538506E+01  0.71997300403E+01  0.23992180430E+01  0.86640181246E+01  0.00000000000E+00 0. -1.
</event>
<event>
 7    1  0.2966651E-011  0.5052886E+02  0.7816164E-02  0.1300439E+00
        -11   -1    0    0    0    0  0.00000000000E+00  0.00000000000E+00  0.45593999997E+02  0.45594000000E+02  0.51100000000E-03 0.  1.
         11   -1    0    0    0    0 -0.00000000000E+00 -0.00000000000E+00 -0.45593999997E+02  0.45594000000E+02  0.51100000000E-03 0. -1.
    9900012    2    1    2    0    0  0.93706754450E+01  0.12828894255E+02  0.37426936256E+02  0.50528860270E+02  0.30000001275E+02 0.  0.
         12    1    1    2    0    0 -0.93706754450E+01 -0.12828894255E+02 -0.37426936256E+02  0.40659139730E+02  0.00000000000E+00 0. -1.
         11    1    3    3    0    0 -0.37140633930E+01 -0.53671561917E+01  0.15087643476E+02  0.16438905633E+02  0.51100000000E-03 0. -1.
        -11    1    3    3    0    0  0.11356101311E+02  0.93126675315E+01  0.69751218881E+01  0.16258509746E+02  0.51100000000E-03 0.  1.
         12    1    3    3    0    0  0.17286375273E+01  0.88833829150E+01  0.15364170892E+02  0.17831444891E+02  0.00000000000E+00 0. -1.
</event>
<event>
 7    1  0.2966651E-011  0.5052886E+02  0.7816164E-02  0.1300439E+00
        -11   -1    0    0    0    0  0.00000000000E+00  0.00000000000E+00  0.45593999997E+02  0.45594000000E+02  0.51100000000E-03 0.  1.
         11   -1    0    0    0    0 -0.00000000000E+00 -0.00000000000E+00 -0.45593999997E+02  0.45594000000E+02  0.51100000000E-03 0. -1.
    9900012    2    1    2    0    0 -0.26592136736E+02  0.88063265048E+01  0.29469851378E+02  0.50528864951E+02  0.30000015505E+02 0.  0.
         12    1    1    2    0    0  0.26592136736E+02 -0.88063265048E+01 -0.29469851378E+02  0.40659135049E+02  0.00000000000E+00 0. -1.
         11    1    3    3    0    0 -0.77457214861E+01 -0.75505695972E+01  0.31064413649E+01  0.11254211691E+02  0.51100000000E-03 0.  1.
        -11    1    3    3    0    0 -0.13806685538E+02  0.17623361127E+02  0.15492017878E+02  0.27225172931E+02  0.51100000000E-03 0. -1.
         12    1    3    3    0    0 -0.50397297118E+01 -0.12664650249E+01  0.10871392135E+02  0.12049480328E+02  0.00000000000E+00 0. -1.
</event>
<event>
 7    1  0.2966651E-011  0.5052892E+02  0.7816164E-02  0.1300439E+00
        -11   -1    0    0    0    0  0.00000000000E+00  0.00000000000E+00  0.45593999997E+02  0.45594000000E+02  0.51100000000E-03 0.  1.
         11   -1    0    0    0    0 -0.00000000000E+00 -0.00000000000E+00 -0.45593999997E+02  0.45594000000E+02  0.51100000000E-03 0. -1.
    9900012    2    1    2    0    0 -0.40078280491E+02  0.68103173808E+01  0.71542945914E+00  0.50528919473E+02  0.30000181230E+02 0.  0.
         12    1    1    2    0    0  0.40078280491E+02 -0.68103173808E+01 -0.71542945914E+00  0.40659080527E+02  0.00000000000E+00 0. -1.
         11    1    3    3    0    0 -0.88512725124E+00  0.41927169173E+01  0.14883765192E+00  0.42877124795E+01  0.51100000000E-03 0. -1.
        -11    1    3    3    0    0 -0.22876272190E+02 -0.59418292189E+01 -0.92293478294E+01  0.25373411781E+02  0.51100000000E-03 0.  1.
        -12    1    3    3    0    0 -0.16316881050E+02  0.85594296824E+01  0.97959396367E+01  0.20867795213E+02  0.00000000000E+00 0.  1.
</event>
<event>
 7    1  0.2966651E-011  0.5052886E+02  0.7816164E-02  0.1300439E+00
        -11   -1    0    0    0    0  0.00000000000E+00  0.00000000000E+00  0.45593999997E+02  0.45594000000E+02  0.51100000000E-03 0.  1.
         11   -1    0    0    0    0 -0.00000000000E+00 -0.00000000000E+00 -0.45593999997E+02  0.45594000000E+02  0.51100000000E-03 0. -1.
    9900012    2    1    2    0    0 -0.37548170270E+02  0.79965910868E+00  0.15577584248E+02  0.50528859868E+02  0.30000000054E+02 0.  0.
         12    1    1    2    0    0  0.37548170270E+02 -0.79965910868E+00 -0.15577584248E+02  0.40659140132E+02  0.00000000000E+00 0. -1.
         11    1    3    3    0    0 -0.28053712440E+02 -0.10086907918E+02  0.78291388299E+01  0.30822912064E+02  0.51100000000E-03 0. -1.
        -11    1    3    3    0    0 -0.73893770709E+01  0.83312552505E+01  0.10571674116E+02  0.15354901544E+02  0.51100000000E-03 0.  1.
         12    1    3    3    0    0 -0.21050807586E+01  0.25553117767E+01 -0.28232286974E+01  0.43510462597E+01  0.00000000000E+00 0. -1.
</event>
<event>
 7    1  0.2966651E-011  0.5052886E+02  0.7816164E-02  0.1300439E+00
        -11   -1    0    0    0    0  0.00000000000E+00  0.00000000000E+00  0.45593999997E+02  0.45594000000E+02  0.51100000000E-03 0.  1.
         11   -1    0    0    0    0 -0.00000000000E+00 -0.00000000000E+00 -0.45593999997E+02  0.45594000000E+02  0.51100000000E-03 0. -1.
    9900012    2    1    2    0    0  0.24144206268E+02  0.11803606287E+02  0.30510615270E+02  0.50528862505E+02  0.30000008070E+02 0.  0.
         12    1    1    2    0    0 -0.24144206268E+02 -0.11803606287E+02 -0.30510615270E+02  0.40659137495E+02  0.00000000000E+00 0. -1.
         11    1    3    3    0    0  0.65894117276E+01  0.95389087869E+01 -0.16104138667E+01  0.11704894739E+02  0.51100000000E-03 0.  1.
        -11    1    3    3    0    0  0.49445450297E+01 -0.50636523497E+01  0.84733406725E+01  0.11040226587E+02  0.51100000000E-03 0. -1.
         12    1    3    3    0    0  0.12610249511E+02  0.73283498493E+01  0.23647688464E+02  0.27783741180E+02  0.00000000000E+00 0. -1.
</event>
<event>
 7    1  0.2966651E-011  0.5052884E+02  0.7816164E-02  0.1300439E+00
        -11   -1    0    0    0    0  0.00000000000E+00  0.00000000000E+00  0.45593999997E+02  0.45594000000E+02  0.51100000000E-03 0.  1.
         11   -1    0    0    0    0 -0.00000000000E+00 -0.00000000000E+00 -0.45593999997E+02  0.45594000000E+02  0.51100000000E-03 0. -1.
    9900012    2    1    2    0    0  0.37198367562E+02  0.14428298253E+02 -0.78276944311E+01  0.50528841870E+02  0.29999945348E+02 0.  0.
         12    1    1    2    0    0 -0.37198367562E+02 -0.14428298253E+02  0.78276944311E+01  0.40659158130E+02  0.00000000000E+00 0. -1.
         11    1    3    3    0    0  0.55166156753E+01  0.89832296570E+01 -0.87734415007E+01  0.13715128129E+02  0.51100000000E-03 0.  1.
        -11    1    3    3    0    0  0.13403212861E+02 -0.47069487927E+01 -0.50267770234E+01  0.15068841012E+02  0.51100000000E-03 0. -1.
         12    1    3    3    0    0  0.18278539025E+02  0.10152017388E+02  0.59725240930E+01  0.21744872729E+02  0.00000000000E+00 0. -1.
</event>
<event>
 7    1  0.2966651E-011  0.5052884E+02  0.7816164E-02  0.1300439E+00
        -11   -1    0    0    0    0  0.00000000000E+00  0.00000000000E+00  0.45593999997E+02  0.45594000000E+02  0.51100000000E-03 0. -1.
         11   -1    0    0    0    0 -0.00000000000E+00 -0.00000000000E+00 -0.45593999997E+02  0.45594000000E+02  0.51100000000E-03 0.  1.
    9900012    2    1    2    0    0  0.50923823781E+01 -0.18933014928E+02 -0.35619876101E+02  0.50528843762E+02  0.29999951098E+02 0.  0.
         12    1    1    2    0    0 -0.50923823781E+01  0.18933014928E+02  0.35619876101E+02  0.40659156238E+02  0.00000000000E+00 0. -1.
         11    1    3    3    0    0  0.78377741434E+01 -0.71941806110E+00 -0.17864645964E+01  0.80709182801E+01  0.51100000000E-03 0. -1.
        -11    1    3    3    0    0 -0.34807987129E+01 -0.16135480105E+02 -0.11742367720E+02  0.20257168554E+02  0.51100000000E-03 0.  1.
        -12    1    3    3    0    0  0.73540694767E+00 -0.20781167617E+01 -0.22091043785E+02  0.22200756928E+02  0.00000000000E+00 0.  1.
</event>
<event>
 7    1  0.2966651E-011  0.5052886E+02  0.7816164E-02  0.1300439E+00
        -11   -1    0    0    0    0  0.00000000000E+00  0.00000000000E+00  0.45593999997E+02  0.45594000000E+02  0.51100000000E-03 0.  1.
         11   -1    0    0    0    0 -0.00000000000E+00 -0.00000000000E+00 -0.45593999997E+02  0.45594000000E+02  0.51100000000E-03 0. -1.
    9900012    2    1    2    0    0 -0.18560619532E+02  0.23491597859E+02  0.27510257061E+02  0.50528855752E+02  0.29999987544E+02 0.  0.
         12    1    1    2    0    0  0.18560619532E+02 -0.23491597859E+02 -0.27510257061E+02  0.40659144248E+02  0.00000000000E+00 0. -1.
         11    1    3    3    0    0  0.45802823179E+00  0.13896301255E+02 -0.15890416437E+01  0.13994357149E+02  0.51100000000E-03 0. -1.
        -11    1    3    3    0    0 -0.12299374012E+02  0.91168977131E+01  0.21253971185E+02  0.26193963358E+02  0.51100000000E-03 0.  1.
         12    1    3    3    0    0 -0.67192737524E+01  0.47839889135E+00  0.78453275199E+01  0.10340535245E+02  0.00000000000E+00 0. -1.
</event>
<event>
 7    1  0.2966651E-011  0.5052886E+02  0.7816164E-02  0.1300439E+00
        -11   -1    0    0    0    0  0.00000000000E+00  0.00000000000E+00  0.45593999997E+02  0.45594000000E+02  0.51100000000E-03 0.  1.
         11   -1    0    0    0    0 -0.00000000000E+00 -0.00000000000E+00 -0.45593999997E+02  0.45594000000E+02  0.51100000000E-03 0. -1.
    9900012    2    1    2    0    0  0.24490123007E+02  0.11402174995E+02  0.30387334625E+02  0.50528858037E+02  0.29999994490E+02 0.  0.
         12    1    1    2    0    0 -0.24490123007E+02 -0.11402174995E+02 -0.30387334625E+02  0.40659141963E+02  0.00000000000E+00 0. -1.
         11    1    3    3    0    0 -0.78247833247E+00 -0.14154511591E+01 -0.40944391821E+01  0.44022956286E+01  0.51100000000E-03 0. -1.
        -11    1    3    3    0    0  0.15243875355E+02  0.10294643483E+02  0.13773079221E+02  0.22979406689E+02  0.51100000000E-03 0.  1.
         12    1    3    3    0    0  0.10028725985E+02  0.25229826712E+01  0.20708694587E+02  0.23147155720E+02  0.00000000000E+00 0. -1.
</event>
<event>
 7    1  0.2966651E-011  0.5052887E+02  0.7816164E-02  0.1300439E+00
        -11   -1    0    0    0    0  0.00000000000E+00  0.00000000000E+00  0.45593999997E+02  0.45594000000E+02  0.51100000000E-03 0.  1.
         11   -1    0    0    0    0 -0.00000000000E+00 -0.00000000000E+00 -0.45593999997E+02  0.45594000000E+02  0.51100000000E-03 0. -1.
    9900012    2    1    2    0    0  0.29550396471E+02 -0.21088510779E+02  0.18308846576E+02  0.50528867183E+02  0.30000022289E+02 0.  0.
         12    1    1    2    0    0 -0.29550396471E+02  0.21088510779E+02 -0.18308846576E+02  0.40659132817E+02  0.00000000000E+00 0. -1.
         11    1    3    3    0    0  0.30155770883E+01  0.40189224520E+01 -0.33656295374E+01  0.60475536620E+01  0.51100000000E-03 0. -1.
        -11    1    3    3    0    0  0.18870567423E+02 -0.10403681424E+02  0.16406148654E+02  0.27083142653E+02  0.51100000000E-03 0.  1.
         12    1    3    3    0    0  0.76642519599E+01 -0.14703751808E+02  0.52683274592E+01  0.17398170868E+02  0.00000000000E+00 0. -1.
</event>
<event>
 7    1  0.2966651E-011  0.5052886E+02  0.7816164E-02  0.1300439E+00
        -11   -1    0    0    0    0  0.00000000000E+00  0.00000000000E+00  0.45593999997E+02  0.45594000000E+02  0.51100000000E-03 0.  1.
         11   -1    0    0    0    0 -0.00000000000E+00 -0.00000000000E+00 -0.45593999997E+02  0.45594000000E+02  0.51100000000E-03 0. -1.
    9900012    2    1    2    0    0  0.91103669541E+01  0.13535548464E+01  0.39602211013E+02  0.50528855716E+02  0.29999987436E+02 0.  0.
         12    1    1    2    0    0 -0.91103669541E+01 -0.13535548464E+01 -0.39602211013E+02  0.40659144284E+02  0.00000000000E+00 0. -1.
         11    1    3    3    0    0  0.34345175037E+01  0.60893422425E+01  0.79624286604E+01  0.10596049729E+02  0.51100000000E-03 0. -1.
        -11    1    3    3    0    0 -0.49825882558E+00 -0.31655546220E+01 -0.31921123830E+01  0.45231161436E+01  0.51100000000E-03 0.  1.
        -12    1    3    3    0    0  0.61741082760E+01 -0.15702327741E+01  0.34831894735E+02  0.35409689844E+02  0.00000000000E+00 0.  1.
</event>
<event>
 7    1  0.2966651E-011  0.5052885E+02  0.7816164E-02  0.1300439E+00
        -11   -1    0    0    0    0  0.00000000000E+00  0.00000000000E+00  0.45593999997E+02  0.45594000000E+02  0.51100000000E-03 0.  1.
         11   -1    0    0    0    0 -0.00000000000E+00 -0.00000000000E+00 -0.45593999997E+02  0.45594000000E+02  0.51100000000E-03 0. -1.
    9900012    2    1    2    0    0 -0.22227163102E+02 -0.34021967605E+02 -0.12748536964E+01  0.50528852060E+02  0.29999976321E+02 0.  0.
         12    1    1    2    0    0  0.22227163102E+02  0.34021967605E+02  0.12748536964E+01  0.40659147940E+02  0.00000000000E+00 0. -1.
         11    1    3    3    0    0 -0.91205507821E+01 -0.29575955273E+02 -0.18808914116E+01  0.31007407658E+02  0.51100000000E-03 0. -1.
        -11    1    3    3    0    0 -0.14643748904E+02 -0.49458890089E+01  0.38221461036E+01  0.15921997398E+02  0.51100000000E-03 0.  1.
         12    1    3    3    0    0  0.15371365836E+01  0.49987667711E+00 -0.32161083883E+01  0.35994470040E+01  0.00000000000E+00 0. -1.
</event>
<event>
 7    1  0.2966651E-011  0.5052885E+02  0.7816164E-02  0.1300439E+00
        -11   -1    0    0    0    0  0.00000000000E+00  0.00000000000E+00  0.45593999997E+02  0.45594000000E+02  0.51100000000E-03 0. -1.
         11   -1    0    0    0    0 -0.00000000000E+00 -0.00000000000E+00 -0.45593999997E+02  0.45594000000E+02  0.51100000000E-03 0.  1.
    9900012    2    1    2    0    0  0.37778765870E+02  0.22145602323E+00  0.15029370826E+02  0.50528853663E+02  0.29999981195E+02 0.  0.
         12    1    1    2    0    0 -0.37778765870E+02 -0.22145602323E+00 -0.15029370826E+02  0.40659146337E+02  0.00000000000E+00 0. -1.
         11    1    3    3    0    0  0.91724161737E+01  0.88870576107E+01 -0.44588603827E+01  0.13527544035E+02  0.51100000000E-03 0. -1.
        -11    1    3    3    0    0  0.21706000369E+02 -0.10215105419E+02  0.17372963077E+02  0.29619565781E+02  0.51100000000E-03 0.  1.
        -12    1    3    3    0    0  0.69003493271E+01  0.15495038314E+01  0.21152681318E+01  0.73817438475E+01  0.00000000000E+00 0.  1.
</event>
<event>
 7    1  0.2966651E-011  0.5052887E+02  0.7816164E-02  0.1300439E+00
        -11   -1    0    0    0    0  0.00000000000E+00  0.00000000000E+00  0.45593999997E+02  0.45594000000E+02  0.51100000000E-03 0.  1.
         11   -1    0    0    0    0 -0.00000000000E+00 -0.00000000000E+00 -0.45593999997E+02  0.45594000000E+02  0.51100000000E-03 0. -1.
    9900012    2    1    2    0    0  0.16314559620E+02 -0.35112161099E+01  0.37076562920E+02  0.50528868035E+02  0.30000024880E+02 0.  0.
         12    1    1    2    0    0 -0.16314559620E+02  0.35112161099E+01 -0.37076562920E+02  0.40659131965E+02  0.00000000000E+00 0. -1.
         11    1    3    3    0    0  0.29559256393E+01  0.69976596050E+00  0.94151520955E-01  0.30390843283E+01  0.51100000000E-03 0. -1.
        -11    1    3    3    0    0 -0.70501006743E+01 -0.59153835006E+01  0.13400287759E+02  0.16256180171E+02  0.51100000000E-03 0.  1.
        -12    1    3    3    0    0  0.20408734655E+02  0.17044014302E+01  0.23582123640E+02  0.31233603536E+02  0.00000000000E+00 0.  1.
</event>
<event>
 7    1  0.2966651E-011  0.5052885E+02  0.7816164E-02  0.1300439E+00
        -11   -1    0    0    0    0  0.00000000000E+00  0.00000000000E+00  0.45593999997E+02  0.45594000000E+02  0.51100000000E-03 0. -1.
         11   -1    0    0    0    0 -0.00000000000E+00 -0.00000000000E+00 -0.45593999997E+02  0.45594000000E+02  0.51100000000E-03 0.  1.
    9900012    2    1    2    0    0  0.46169211399E+01  0.36055414123E+02 -0.18216958297E+02  0.50528850747E+02  0.29999972330E+02 0.  0.
         12    1    1    2    0    0 -0.46169211399E+01 -0.36055414123E+02  0.18216958297E+02  0.40659149253E+02  0.00000000000E+00 0. -1.
         11    1    3    3    0    0 -0.28858978819E+01 -0.28076500727E+00 -0.69369129809E+01  0.75185103272E+01  0.51100000000E-03 0. -1.
        -11    1    3    3    0    0  0.33083458510E+01  0.35567833311E+02 -0.13519070185E+02  0.38193993999E+02  0.51100000000E-03 0.  1.
        -12    1    3    3    0    0  0.41944731708E+01  0.76834581942E+00  0.22390248685E+01  0.48163464204E+01  0.00000000000E+00 0.  1.
</event>
<event>
 7    1  0.2966651E-011  0.5052886E+02  0.7816164E-02  0.1300439E+00
        -11   -1    0    0    0    0  0.00000000000E+00  0.00000000000E+00  0.45593999997E+02  0.45594000000E+02  0.51100000000E-03 0. -1.
         11   -1    0    0    0    0 -0.00000000000E+00 -0.00000000000E+00 -0.45593999997E+02  0.45594000000E+02  0.51100000000E-03 0.  1.
    9900012    2    1    2    0    0  0.33265391796E+02 -0.23256804382E+02  0.23875803302E+01  0.50528858577E+02  0.29999996132E+02 0.  0.
         12    1    1    2    0    0 -0.33265391796E+02  0.23256804382E+02 -0.23875803302E+01  0.40659141423E+02  0.00000000000E+00 0. -1.
         11    1    3    3    0    0 -0.13987467876E+01 -0.12665678241E+01  0.16488077429E+01  0.25058439422E+01  0.51100000000E-03 0. -1.
        -11    1    3    3    0    0  0.24821526887E+02 -0.22250295520E+02 -0.86283722199E+01  0.34433016934E+02  0.51100000000E-03 0.  1.
        -12    1    3    3    0    0  0.98426116969E+01  0.26005896296E+00  0.93671448071E+01  0.13589997701E+02  0.00000000000E+00 0.  1.
</event>
<event>
 7    1  0.2966651E-011  0.5052887E+02  0.7816164E-02  0.1300439E+00
        -11   -1    0    0    0    0  0.00000000000E+00  0.00000000000E+00  0.45593999997E+02  0.45594000000E+02  0.51100000000E-03 0.  1.
         11   -1    0    0    0    0 -0.00000000000E+00 -0.00000000000E+00 -0.45593999997E+02  0.45594000000E+02  0.51100000000E-03 0. -1.
    9900012    2    1    2    0    0  0.35728104095E+01 -0.18900788597E+02  0.35821229285E+02  0.50528865094E+02  0.30000015939E+02 0.  0.
         12    1    1    2    0    0 -0.35728104095E+01  0.18900788597E+02 -0.35821229285E+02  0.40659134906E+02  0.00000000000E+00 0. -1.
         11    1    3    3    0    0 -0.55561571872E+00  0.28324031204E+01 -0.29402092576E+01  0.41201998741E+01  0.51100000000E-03 0. -1.
        -11    1    3    3    0    0  0.73868642603E+00 -0.15232330246E+02  0.34979080667E+02  0.38158952121E+02  0.51100000000E-03 0.  1.
         12    1    3    3    0    0  0.33897397022E+01 -0.65008614710E+01  0.37823578757E+01  0.82497130988E+01  0.00000000000E+00 0. -1.
</event>
<event>
 7    1  0.2966651E-011  0.5052884E+02  0.7816164E-02  0.1300439E+00
        -11   -1    0    0    0    0  0.00000000000E+00  0.00000000000E+00  0.45593999997E+02  0.45594000000E+02  0.51100000000E-03 0.  1.
         11   -1    0    0    0    0 -0.00000000000E+00 -0.00000000000E+00 -0.45593999997E+02  0.45594000000E+02  0.51100000000E-03 0. -1.
    9900012    2    1    2    0    0  0.16396031975E+02  0.14290681079E+02  0.34352790249E+02  0.50528835866E+02  0.29999927098E+02 0.  0.
         12    1    1    2    0    0 -0.16396031975E+02 -0.14290681079E+02 -0.34352790249E+02  0.40659164134E+02  0.00000000000E+00 0. -1.
         11    1    3    3    0    0  0.84315046964E+01  0.14062855970E+02  0.37897109553E+01  0.16829025487E+02  0.51100000000E-03 0. -1.
        -11    1    3    3    0    0  0.10878588867E+02 -0.34948113872E+00  0.26649210202E+02  0.28786216102E+02  0.51100000000E-03 0.  1.
         12    1    3    3    0    0 -0.29140615891E+01  0.57730624766E+00  0.39138690913E+01  0.49135942764E+01  0.00000000000E+00 0. -1.
</event>
<event>
 7    1  0.2966651E-011  0.5052887E+02  0.7816164E-02  0.1300439E+00
        -11   -1    0    0    0    0  0.00000000000E+00  0.00000000000E+00  0.45593999997E+02  0.45594000000E+02  0.51100000000E-03 0. -1.
         11   -1    0    0    0    0 -0.00000000000E+00 -0.00000000000E+00 -0.45593999997E+02  0.45594000000E+02  0.51100000000E-03 0.  1.
    9900012    2    1    2    0    0  0.18707060231E+02  0.69463564477E+01 -0.35425397659E+02  0.50528871017E+02  0.30000033943E+02 0.  0.
         12    1    1    2    0    0 -0.18707060231E+02 -0.69463564477E+01  0.35425397659E+02  0.40659128983E+02  0.00000000000E+00 0. -1.
         11    1    3    3    0    0  0.12547033436E+02 -0.11222644213E+01 -0.15733739912E+02  0.20155349100E+02  0.51100000000E-03 0. -1.
        -11    1    3    3    0    0  0.13652471806E+01  0.13771551317E+02 -0.66506813824E+01  0.15354187984E+02  0.51100000000E-03 0.  1.
         12    1    3    3    0    0  0.47947796139E+01 -0.57029304477E+01 -0.13040976365E+02  0.15019333933E+02  0.00000000000E+00 0. -1.
</event>
<event>
 7    1  0.2966651E-011  0.5052886E+02  0.7816164E-02  0.1300439E+00
        -11   -1    0    0    0    0  0.00000000000E+00  0.00000000000E+00  0.45593999997E+02  0.45594000000E+02  0.51100000000E-03 0. -1.
         11   -1    0    0    0    0 -0.00000000000E+00 -0.00000000000E+00 -0.45593999997E+02  0.45594000000E+02  0.51100000000E-03 0.  1.
    9900012    2    1    2    0    0 -0.54016601748E+01  0.33598318886E+01 -0.40158428891E+02  0.50528858175E+02  0.29999994908E+02 0.  0.
         12    1    1    2    0    0  0.54016601748E+01 -0.33598318886E+01  0.40158428891E+02  0.40659141825E+02  0.00000000000E+00 0. -1.
         11    1    3    3    0    0  0.76114022791E+01 -0.24715702584E+01 -0.15526245784E+02  0.17467295515E+02  0.51100000000E-03 0. -1.
        -11    1    3    3    0    0 -0.10321892899E+02 -0.16861308678E+01 -0.44663175823E+01  0.11372444915E+02  0.51100000000E-03 0.  1.
        -12    1    3    3    0    0 -0.26911695544E+01  0.75175330148E+01 -0.20165865525E+02  0.21689117745E+02  0.00000000000E+00 0.  1.
</event>
<event>
 7    1  0.2966651E-011  0.5052887E+02  0.7816164E-02  0.1300439E+00
        -11   -1    0    0    0    0  0.00000000000E+00  0.00000000000E+00  0.45593999997E+02  0.45594000000E+02  0.51100000000E-03 0.  1.
         11   -1    0    0    0    0 -0.00000000000E+00 -0.00000000000E+00 -0.45593999997E+02  0.45594000000E+02  0.51100000000E-03 0. -1.
    9900012    2    1    2    0    0  0.10131720293E+02  0.24386378989E+02  0.30916303734E+02  0.50528867288E+02  0.30000022607E+02 0.  0.
         12    1    1    2    0    0 -0.10131720293E+02 -0.24386378989E+02 -0.30916303734E+02  0.40659132712E+02  0.00000000000E+00 0. -1.
         11    1    3    3    0    0 -0.32717663566E+01  0.86070766151E+01  0.37867843051E+01  0.99562020161E+01  0.51100000000E-03 0. -1.
        -11    1    3    3    0    0  0.85948233203E+01  0.12847430211E+00  0.21671536343E+02  0.23314008263E+02  0.51100000000E-03 0.  1.
        -12    1    3    3    0    0  0.48086633297E+01  0.15650828072E+02  0.54579830861E+01  0.17258657008E+02  0.00000000000E+00 0.  1.
</event>
<event>
 7    1  0.2966651E-011  0.5052886E+02  0.7816164E-02  0.1300439E+00
        -11   -1    0    0    0    0  0.00000000000E+00  0.00000000000E+00  0.45593999997E+02  0.45594000000E+02  0.51100000000E-03 0. -1.
         11   -1    0    0    0    0 -0.00000000000E+00 -0.00000000000E+00 -0.45593999997E+02  0.45594000000E+02  0.51100000000E-03 0.  1.
    9900012    2    1    2    0    0  0.43490185895E+01  0.40219950071E+02 -0.40752003203E+01  0.50528860756E+02  0.30000002754E+02 0.  0.
         12    1    1    2    0    0 -0.43490185895E+01 -0.40219950071E+02  0.40752003203E+01  0.40659139244E+02  0.00000000000E+00 0. -1.
         11    1    3    3    0    0  0.45929233281E+01  0.31036992942E+02  0.38687261474E+01  0.31612606945E+02  0.51100000000E-03 0. -1.
        -11    1    3    3    0    0  0.20043275719E+01 -0.29558332683E+01 -0.51361600653E+01  0.62557509383E+01  0.51100000000E-03 0.  1.
        -12    1    3    3    0    0 -0.22482323105E+01  0.12138790397E+02 -0.28077664025E+01  0.12660502873E+02  0.00000000000E+00 0.  1.
</event>
<event>
 7    1  0.2966651E-011  0.5052886E+02  0.7816164E-02  0.1300439E+00
        -11   -1    0    0    0    0  0.00000000000E+00  0.00000000000E+00  0.45593999997E+02  0.45594000000E+02  0.51100000000E-03 0. -1.
         11   -1    0    0    0    0 -0.00000000000E+00 -0.00000000000E+00 -0.45593999997E+02  0.45594000000E+02  0.51100000000E-03 0.  1.
    9900012    2    1    2    0    0 -0.18477316676E+02 -0.19356154720E+02 -0.30611980308E+02  0.50528864551E+02  0.30000014290E+02 0.  0.
         12    1    1    2    0    0  0.18477316676E+02  0.19356154720E+02  0.30611980308E+02  0.40659135449E+02  0.00000000000E+00 0. -1.
         11    1    3    3    0    0 -0.18235975420E+02  0.14032317899E+01 -0.13740396380E+02  0.22876152472E+02  0.51100000000E-03 0. -1.
        -11    1    3    3    0    0 -0.25780990473E+01 -0.15011537444E+02 -0.14440999985E+02  0.20988933559E+02  0.51100000000E-03 0.  1.
         12    1    3    3    0    0  0.23367577916E+01 -0.57478490656E+01 -0.24305839436E+01  0.66637785201E+01  0.00000000000E+00 0. -1.
</event>
<event>
 7    1  0.2966651E-011  0.5052886E+02  0.7816164E-02  0.1300439E+00
        -11   -1    0    0    0    0  0.00000000000E+00  0.00000000000E+00  0.45593999997E+02  0.45594000000E+02  0.51100000000E-03 0.  1.
         11   -1    0    0    0    0 -0.00000000000E+00 -0.00000000000E+00 -0.45593999997E+02  0.45594000000E+02  0.51100000000E-03 0. -1.
    9900012    2    1    2    0    0  0.18878659404E+02  0.35948915707E+02 -0.21065639138E+01  0.50528856712E+02  0.29999990461E+02 0.  0.
         12    1    1    2    0    0 -0.18878659404E+02 -0.35948915707E+02  0.21065639138E+01  0.40659143288E+02  0.00000000000E+00 0. -1.
         11    1    3    3    0    0 -0.38016894302E+01  0.15318909461E+02  0.26736333114E+01  0.16008439803E+02  0.51100000000E-03 0. -1.
        -11    1    3    3    0    0  0.15630782614E+02  0.21940096637E+02 -0.28123808903E+01  0.27085027084E+02  0.51100000000E-03 0.  1.
         12    1    3    3    0    0  0.70495662200E+01 -0.13100903908E+01 -0.19678163349E+01  0.74353898250E+01  0.00000000000E+00 0. -1.
</event>
<event>
 7    1  0.2966651E-011  0.5052886E+02  0.7816164E-02  0.1300439E+00
        -11   -1    0    0    0    0  0.00000000000E+00  0.00000000000E+00  0.45593999997E+02  0.45594000000E+02  0.51100000000E-03 0. -1.
         11   -1    0    0    0    0 -0.00000000000E+00 -0.00000000000E+00 -0.45593999997E+02  0.45594000000E+02  0.51100000000E-03 0.  1.
    9900012    2    1    2    0    0 -0.15884642746E+02  0.37419510643E+02 -0.78998054469E+00  0.50528859316E+02  0.29999998377E+02 0.  0.
         12    1    1    2    0    0  0.15884642746E+02 -0.37419510643E+02  0.78998054469E+00  0.40659140684E+02  0.00000000000E+00 0. -1.
         11    1    3    3    0    0 -0.97482498688E+00 -0.32317772348E+01  0.23080641336E+01  0.40892331991E+01  0.51100000000E-03 0. -1.
        -11    1    3    3    0    0 -0.68400128316E+01  0.35018308723E+02 -0.59961984753E+01  0.36180410691E+02  0.51100000000E-03 0.  1.
        -12    1    3    3    0    0 -0.80698049277E+01  0.56329791546E+01  0.28981537971E+01  0.10259215426E+02  0.00000000000E+00 0.  1.
</event>
<event>
 7    1  0.2966651E-011  0.5052882E+02  0.7816164E-02  0.1300439E+00
        -11   -1    0    0    0    0  0.00000000000E+00  0.00000000000E+00  0.45593999997E+02  0.45594000000E+02  0.51100000000E-03 0. -1.
         11   -1    0    0    0    0 -0.00000000000E+00 -0.00000000000E+00 -0.45593999997E+02  0.45594000000E+02  0.51100000000E-03 0.  1.
    9900012    2    1    2    0    0 -0.23129478902E+02  0.36347617528E+01 -0.33241307349E+02  0.50528821435E+02  0.29999883235E+02 0.  0.
         12    1    1    2    0    0  0.23129478902E+02 -0.36347617528E+01  0.33241307349E+02  0.40659178565E+02  0.00000000000E+00 0. -1.
         11    1    3    3    0    0 -0.38756475614E+01  0.48919318800E+01 -0.14155545284E+02  0.15470329799E+02  0.51100000000E-03 0. -1.
        -11    1    3    3    0    0 -0.10331804770E+02 -0.10124260751E+02 -0.32344207093E+01  0.14822561289E+02  0.51100000000E-03 0.  1.
        -12    1    3    3    0    0 -0.89220265699E+01  0.88670906243E+01 -0.15851341356E+02  0.20235930347E+02  0.00000000000E+00 0.  1.
</event>
<event>
 7    1  0.2966651E-011  0.5052886E+02  0.7816164E-02  0.1300439E+00
        -11   -1    0    0    0    0  0.00000000000E+00  0.00000000000E+00  0.45593999997E+02  0.45594000000E+02  0.51100000000E-03 0.  1.
         11   -1    0    0    0    0 -0.00000000000E+00 -0.00000000000E+00 -0.45593999997E+02  0.45594000000E+02  0.51100000000E-03 0. -1.
    9900012    2    1    2    0    0  0.17993212389E+01 -0.69437763332E+01  0.40021395908E+02  0.50528859366E+02  0.29999998528E+02 0.  0.
         12    1    1    2    0    0 -0.17993212389E+01  0.69437763332E+01 -0.40021395908E+02  0.40659140634E+02  0.00000000000E+00 0. -1.
         11    1    3    3    0    0  0.12127717942E+01  0.43035154980E+01  0.11882777382E+02  0.12696119865E+02  0.51100000000E-03 0. -1.
        -11    1    3    3    0    0 -0.31901826033E+01 -0.16480589994E+02  0.12544629604E+02  0.20956021658E+02  0.51100000000E-03 0.  1.
        -12    1    3    3    0    0  0.37767320480E+01  0.52332981625E+01  0.15593988922E+02  0.16876717842E+02  0.00000000000E+00 0.  1.
</event>
<event>
 7    1  0.2966651E-011  0.5052886E+02  0.7816164E-02  0.1300439E+00
        -11   -1    0    0    0    0  0.00000000000E+00  0.00000000000E+00  0.45593999997E+02  0.45594000000E+02  0.51100000000E-03 0. -1.
         11   -1    0    0    0    0 -0.00000000000E+00 -0.00000000000E+00 -0.45593999997E+02  0.45594000000E+02  0.51100000000E-03 0.  1.
    9900012    2    1    2    0    0 -0.26646525498E+02 -0.30709152893E+02 -0.27613383361E+00  0.50528860285E+02  0.30000001321E+02 0.  0.
         12    1    1    2    0    0  0.26646525498E+02  0.30709152893E+02  0.27613383361E+00  0.40659139715E+02  0.00000000000E+00 0. -1.
         11    1    3    3    0    0 -0.10166474873E+01  0.56875406102E-01  0.24972779663E-01  0.10185434827E+01  0.51100000000E-03 0. -1.
        -11    1    3    3    0    0 -0.25663426959E+02 -0.20064588592E+02 -0.10994969893E+02  0.34381514828E+02  0.51100000000E-03 0.  1.
        -12    1    3    3    0    0  0.33548948462E-01 -0.10701439707E+02  0.10693863280E+02  0.15128801974E+02  0.00000000000E+00 0.  1.
</event>
<event>
 7    1  0.2966651E-011  0.5052886E+02  0.7816164E-02  0.1300439E+00
        -11   -1    0    0    0    0  0.00000000000E+00  0.00000000000E+00  0.45593999997E+02  0.45594000000E+02  0.51100000000E-03 0.  1.
         11   -1    0    0    0    0 -0.00000000000E+00 -0.00000000000E+00 -0.45593999997E+02  0.45594000000E+02  0.51100000000E-03 0. -1.
    9900012    2    1    2    0    0 -0.24386768406E+02  0.32489087397E+02 -0.17058746433E+01  0.50528864723E+02  0.30000014811E+02 0.  0.
         12    1    1    2    0    0  0.24386768406E+02 -0.32489087397E+02  0.17058746433E+01  0.40659135277E+02  0.00000000000E+00 0. -1.
         11    1    3    3    0    0  0.86322756411E+00  0.21209117457E+02 -0.44439764202E+01  0.21686879716E+02  0.51100000000E-03 0. -1.
        -11    1    3    3    0    0 -0.18699766474E+02  0.11488689434E+02  0.62401098460E+00  0.21955879419E+02  0.51100000000E-03 0.  1.
         12    1    3    3    0    0 -0.65502294968E+01 -0.20871949388E+00  0.21140907924E+01  0.68861055878E+01  0.00000000000E+00 0. -1.
</event>
<event>
 7    1  0.2966651E-011  0.5052887E+02  0.7816164E-02  0.1300439E+00
        -11   -1    0    0    0    0  0.00000000000E+00  0.00000000000E+00  0.45593999997E+02  0.45594000000E+02  0.51100000000E-03 0.  1.
         11   -1    0    0    0    0 -0.00000000000E+00 -0.00000000000E+00 -0.45593999997E+02  0.45594000000E+02  0.51100000000E-03 0. -1.
    9900012    2    1    2    0    0 -0.94211079310E+01 -0.14067489672E+02  0.36966384709E+02  0.50528866478E+02  0.30000020146E+02 0.  0.
         12    1    1    2    0    0  0.94211079310E+01  0.14067489672E+02 -0.36966384709E+02  0.40659133522E+02  0.00000000000E+00 0. -1.
         11    1    3    3    0    0  0.30289773946E+01 -0.18379408120E+02  0.15134383835E+02  0.24000560852E+02  0.51100000000E-03 0. -1.
        -11    1    3    3    0    0 -0.68149558198E+01 -0.12198405115E+01  0.12626288161E+02  0.14399818981E+02  0.51100000000E-03 0.  1.
         12    1    3    3    0    0 -0.56351295057E+01  0.55317589595E+01  0.92057127128E+01  0.12128486644E+02  0.00000000000E+00 0. -1.
</event>
<event>
 7    1  0.2966651E-011  0.5052886E+02  0.7816164E-02  0.1300439E+00
        -11   -1    0    0    0    0  0.00000000000E+00  0.00000000000E+00  0.45593999997E+02  0.45594000000E+02  0.51100000000E-03 0.  1.
         11   -1    0    0    0    0 -0.00000000000E+00 -0.00000000000E+00 -0.45593999997E+02  0.45594000000E+02  0.51100000000E-03 0. -1.
    9900012    2    1    2    0    0 -0.81062424436E+01  0.23177701126E+02  0.32407543735E+02  0.50528857277E+02  0.29999992180E+02 0.  0.
         12    1    1    2    0    0  0.81062424436E+01 -0.23177701126E+02 -0.32407543735E+02  0.40659142723E+02  0.00000000000E+00 0. -1.
         11    1    3    3    0    0 -0.13824669091E+02  0.12266449099E+02  0.13299744846E+02  0.22769946469E+02  0.51100000000E-03 0. -1.
        -11    1    3    3    0    0  0.63320673779E+01 -0.22538424436E+01  0.85287067589E+01  0.10858808511E+02  0.51100000000E-03 0.  1.
         12    1    3    3    0    0 -0.61364073042E+00  0.13165094470E+02  0.10579092130E+02  0.16900102297E+02  0.00000000000E+00 0. -1.
</event>
<event>
 7    1  0.2966651E-011  0.5052883E+02  0.7816164E-02  0.1300439E+00
        -11   -1    0    0    0    0  0.00000000000E+00  0.00000000000E+00  0.45593999997E+02  0.45594000000E+02  0.51100000000E-03 0. -1.
         11   -1    0    0    0    0 -0.00000000000E+00 -0.00000000000E+00 -0.45593999997E+02  0.45594000000E+02  0.51100000000E-03 0.  1.
    9900012    2    1    2    0    0  0.26991052458E+02 -0.26900795676E+02 -0.14177393451E+02  0.50528828761E+02  0.29999905501E+02 0.  0.
         12    1    1    2    0    0 -0.26991052458E+02  0.26900795676E+02  0.14177393451E+02  0.40659171239E+02  0.00000000000E+00 0. -1.
         11    1    3    3    0    0  0.79764067868E+01 -0.18017954883E+02 -0.17894178205E+02  0.26617125639E+02  0.51100000000E-03 0. -1.
        -11    1    3    3    0    0  0.17706110917E+02 -0.76777308870E+01 -0.53110009343E+00  0.19306371563E+02  0.51100000000E-03 0.  1.
         12    1    3    3    0    0  0.13085347543E+01 -0.12051099066E+01  0.42478848473E+01  0.46053315587E+01  0.00000000000E+00 0. -1.
</event>
<event>
 7    1  0.2966651E-011  0.5052886E+02  0.7816164E-02  0.1300439E+00
        -11   -1    0    0    0    0  0.00000000000E+00  0.00000000000E+00  0.45593999997E+02  0.45594000000E+02  0.51100000000E-03 0.  1.
         11   -1    0    0    0    0 -0.00000000000E+00 -0.00000000000E+00 -0.45593999997E+02  0.45594000000E+02  0.51100000000E-03 0. -1.
    9900012    2    1    2    0    0 -0.17240355759E+02  0.14274343414E+01  0.36795355058E+02  0.50528860937E+02  0.30000003305E+02 0.  0.
         12    1    1    2    0    0  0.17240355759E+02 -0.14274343414E+01 -0.36795355058E+02  0.40659139063E+02  0.00000000000E+00 0. -1.
         11    1    3    3    0    0 -0.38542363963E+01  0.12700055210E+02  0.22135831567E+02  0.25809718711E+02  0.51100000000E-03 0. -1.
        -11    1    3    3    0    0 -0.11359014595E+01 -0.57842360036E+01  0.73919323310E+01  0.94545397623E+01  0.51100000000E-03 0.  1.
         12    1    3    3    0    0 -0.12250217903E+02 -0.54883848651E+01  0.72675911600E+01  0.15264602464E+02  0.00000000000E+00 0. -1.
</event>
<event>
 7    1  0.2966651E-011  0.5052883E+02  0.7816164E-02  0.1300439E+00
        -11   -1    0    0    0    0  0.00000000000E+00  0.00000000000E+00  0.45593999997E+02  0.45594000000E+02  0.51100000000E-03 0. -1.
         11   -1    0    0    0    0 -0.00000000000E+00 -0.00000000000E+00 -0.45593999997E+02  0.45594000000E+02  0.51100000000E-03 0.  1.
    9900012    2    1    2    0    0 -0.24794510330E+02 -0.98430199240E+01 -0.30684119548E+02  0.50528831586E+02  0.29999914088E+02 0.  0.
         12    1    1    2    0    0  0.24794510330E+02  0.98430199240E+01  0.30684119548E+02  0.40659168414E+02  0.00000000000E+00 0. -1.
         11    1    3    3    0    0 -0.93226250665E+01 -0.12605233038E+02 -0.11020145316E+02  0.19163685479E+02  0.51100000000E-03 0.  1.
        -11    1    3    3    0    0 -0.64261479921E+01  0.10265886451E+02 -0.13344184385E+02  0.18020850696E+02  0.51100000000E-03 0. -1.
         12    1    3    3    0    0 -0.90457372714E+01 -0.75036733361E+01 -0.63197898464E+01  0.13344295411E+02  0.00000000000E+00 0. -1.
</event>
<event>
 7    1  0.2966651E-011  0.5052887E+02  0.7816164E-02  0.1300439E+00
        -11   -1    0    0    0    0  0.00000000000E+00  0.00000000000E+00  0.45593999997E+02  0.45594000000E+02  0.51100000000E-03 0.  1.
         11   -1    0    0    0    0 -0.00000000000E+00 -0.00000000000E+00 -0.45593999997E+02  0.45594000000E+02  0.51100000000E-03 0. -1.
    9900012    2    1    2    0    0 -0.38621835580E+02  0.34544785893E+01  0.12230511576E+02  0.50528867947E+02  0.30000024611E+02 0.  0.
         12    1    1    2    0    0  0.38621835580E+02 -0.34544785893E+01 -0.12230511576E+02  0.40659132053E+02  0.00000000000E+00 0. -1.
         11    1    3    3    0    0 -0.83849959905E+01 -0.26652115264E+01 -0.63560481347E+01  0.10854071052E+02  0.51100000000E-03 0. -1.
        -11    1    3    3    0    0 -0.31006002003E+02  0.57421921811E+01  0.13140317596E+02  0.34161570192E+02  0.51100000000E-03 0.  1.
        -12    1    3    3    0    0  0.76916241253E+00  0.37749793458E+00  0.54462421145E+01  0.55132267028E+01  0.00000000000E+00 0.  1.
</event>
<event>
 7    1  0.2966651E-011  0.5052886E+02  0.7816164E-02  0.1300439E+00
        -11   -1    0    0    0    0  0.00000000000E+00  0.00000000000E+00  0.45593999997E+02  0.45594000000E+02  0.51100000000E-03 0.  1.
         11   -1    0    0    0    0 -0.00000000000E+00 -0.00000000000E+00 -0.45593999997E+02  0.45594000000E+02  0.51100000000E-03 0. -1.
    9900012    2    1    2    0    0 -0.25457202785E+02 -0.30758231931E+02  0.76829326403E+01  0.50528862538E+02  0.30000008172E+02 0.  0.
         12    1    1    2    0    0  0.25457202785E+02  0.30758231931E+02 -0.76829326403E+01  0.40659137462E+02  0.00000000000E+00 0. -1.
         11    1    3    3    0    0 -0.19386724806E+01 -0.65619454274E+01 -0.80288636616E+00  0.68892819334E+01  0.51100000000E-03 0. -1.
        -11    1    3    3    0    0 -0.17821297637E+02 -0.37930079917E+01 -0.45319946023E+01  0.18775636725E+02  0.51100000000E-03 0.  1.
        -12    1    3    3    0    0 -0.56972326671E+01 -0.20403278512E+02  0.13017813609E+02  0.24863943880E+02  0.00000000000E+00 0.  1.
</event>
<event>
 7    1  0.2966651E-011  0.5052886E+02  0.7816164E-02  0.1300439E+00
        -11   -1    0    0    0    0  0.00000000000E+00  0.00000000000E+00  0.45593999997E+02  0.45594000000E+02  0.51100000000E-03 0.  1.
         11   -1    0    0    0    0 -0.00000000000E+00 -0.00000000000E+00 -0.45593999997E+02  0.45594000000E+02  0.51100000000E-03 0. -1.
    9900012    2    1    2    0    0  0.13491618380E+02  0.35033463269E+02  0.15614050156E+02  0.50528857395E+02  0.29999992538E+02 0.  0.
         12    1    1    2    0    0 -0.13491618380E+02 -0.35033463269E+02 -0.15614050156E+02  0.40659142605E+02  0.00000000000E+00 0. -1.
         11    1    3    3    0    0 -0.17307270332E+01  0.29492932196E+02  0.90474811821E+01  0.30897983455E+02  0.51100000000E-03 0. -1.
        -11    1    3    3    0    0  0.16318912658E+02  0.50526092091E+01  0.53011851490E+01  0.17886820131E+02  0.51100000000E-03 0.  1.
         12    1    3    3    0    0 -0.10965672440E+01  0.48792186338E+00  0.12653838247E+01  0.17440538092E+01  0.00000000000E+00 0. -1.
</event>
<event>
 7    1  0.2966651E-011  0.5052886E+02  0.7816164E-02  0.1300439E+00
        -11   -1    0    0    0    0  0.00000000000E+00  0.00000000000E+00  0.45593999997E+02  0.45594000000E+02  0.51100000000E-03 0.  1.
         11   -1    0    0    0    0 -0.00000000000E+00 -0.00000000000E+00 -0.45593999997E+02  0.45594000000E+02  0.51100000000E-03 0. -1.
    9900012    2    1    2    0    0  0.10541897634E+02 -0.85746302530E+01  0.38321138874E+02  0.50528861122E+02  0.30000003867E+02 0.  0.
         12    1    1    2    0    0 -0.10541897634E+02  0.85746302530E+01 -0.38321138874E+02  0.40659138878E+02  0.00000000000E+00 0. -1.
         11    1    3    3    0    0 -0.26631043020E+01  0.67865715524E+01  0.24859697572E+02  0.25906644738E+02  0.51100000000E-03 0. -1.
        -11    1    3    3    0    0  0.94704850941E+01 -0.89320962269E+01  0.10027952443E+02  0.16432658379E+02  0.51100000000E-03 0.  1.
         12    1    3    3    0    0  0.37345168418E+01 -0.64291055785E+01  0.34334888588E+01  0.81895580055E+01  0.00000000000E+00 0. -1.
</event>
<event>
 7    1  0.2966651E-011  0.5052886E+02  0.7816164E-02  0.1300439E+00
        -11   -1    0    0    0    0  0.00000000000E+00  0.00000000000E+00  0.45593999997E+02  0.45594000000E+02  0.51100000000E-03 0.  1.
         11   -1    0    0    0    0 -0.00000000000E+00 -0.00000000000E+00 -0.45593999997E+02  0.45594000000E+02  0.51100000000E-03 0. -1.
    9900012    2    1    2    0    0 -0.20340931528E+02  0.34189424976E+02  0.83961465801E+01  0.50528861384E+02  0.30000004663E+02 0.  0.
         12    1    1    2    0    0  0.20340931528E+02 -0.34189424976E+02 -0.83961465801E+01  0.40659138616E+02  0.00000000000E+00 0. -1.
         11    1    3    3    0    0 -0.17260591975E+01  0.12862741288E+02  0.15547422990E+02  0.20252203724E+02  0.51100000000E-03 0.  1.
        -11    1    3    3    0    0 -0.88642234303E+01  0.13820458669E+02 -0.73046887641E+01  0.17970476150E+02  0.51100000000E-03 0. -1.
        -12    1    3    3    0    0 -0.97506489001E+01  0.75062250185E+01  0.15341235378E+00  0.12306181510E+02  0.00000000000E+00 0.  1.
</event>
<event>
 7    1  0.2966651E-011  0.5052884E+02  0.7816164E-02  0.1300439E+00
        -11   -1    0    0    0    0  0.00000000000E+00  0.00000000000E+00  0.45593999997E+02  0.45594000000E+02  0.51100000000E-03 0.  1.
         11   -1    0    0    0    0 -0.00000000000E+00 -0.00000000000E+00 -0.45593999997E+02  0.45594000000E+02  0.51100000000E-03 0. -1.
    9900012    2    1    2    0    0  0.94928740092E+01 -0.13124836201E+02  0.37293319590E+02  0.50528835371E+02  0.29999925595E+02 0.  0.
         12    1    1    2    0    0 -0.94928740092E+01  0.13124836201E+02 -0.37293319590E+02  0.40659164629E+02  0.00000000000E+00 0. -1.
         11    1    3    3    0    0  0.37106506549E+01  0.77649764241E+01  0.34056877668E+01  0.92554036420E+01  0.51100000000E-03 0. -1.
        -11    1    3    3    0    0  0.53306293501E+00 -0.16838778114E+02  0.22702861996E+02  0.28270984198E+02  0.51100000000E-03 0.  1.
         12    1    3    3    0    0  0.52491604192E+01 -0.40510345112E+01  0.11184769827E+02  0.13002447531E+02  0.00000000000E+00 0. -1.
</event>
<event>
 7    1  0.2966651E-011  0.5052886E+02  0.7816164E-02  0.1300439E+00
        -11   -1    0    0    0    0  0.00000000000E+00  0.00000000000E+00  0.45593999997E+02  0.45594000000E+02  0.51100000000E-03 0. -1.
         11   -1    0    0    0    0 -0.00000000000E+00 -0.00000000000E+00 -0.45593999997E+02  0.45594000000E+02  0.51100000000E-03 0.  1.
    9900012    2    1    2    0    0  0.16806501359E+02  0.23381799940E+02 -0.28705369928E+02  0.50528864260E+02  0.30000013406E+02 0.  0.
         12    1    1    2    0    0 -0.16806501359E+02 -0.23381799940E+02  0.28705369928E+02  0.40659135740E+02  0.00000000000E+00 0. -1.
         11    1    3    3    0    0  0.72787393081E+01 -0.40504751343E+01 -0.93649402261E+01  0.12533495140E+02  0.51100000000E-03 0. -1.
        -11    1    3    3    0    0  0.11359291460E+02  0.16256638888E+02 -0.17643152954E+02  0.26544164270E+02  0.51100000000E-03 0.  1.
         12    1    3    3    0    0 -0.18315294091E+01  0.11175636187E+02 -0.16972767485E+01  0.11451204850E+02  0.00000000000E+00 0. -1.
</event>
<event>
 7    1  0.2966651E-011  0.5052885E+02  0.7816164E-02  0.1300439E+00
        -11   -1    0    0    0    0  0.00000000000E+00  0.00000000000E+00  0.45593999997E+02  0.45594000000E+02  0.51100000000E-03 0.  1.
         11   -1    0    0    0    0 -0.00000000000E+00 -0.00000000000E+00 -0.45593999997E+02  0.45594000000E+02  0.51100000000E-03 0. -1.
    9900012    2    1    2    0    0  0.18533532511E+02  0.10641911191E+02  0.34589368904E+02  0.50528849218E+02  0.29999967682E+02 0.  0.
         12    1    1    2    0    0 -0.18533532511E+02 -0.10641911191E+02 -0.34589368904E+02  0.40659150782E+02  0.00000000000E+00 0. -1.
         11    1    3    3    0    0  0.10840336999E+02 -0.17655266432E+01  0.32046735731E+02  0.33876588698E+02  0.51100000000E-03 0. -1.
        -11    1    3    3    0    0  0.96034491168E+00  0.68091076030E+01 -0.14515277942E+01  0.70280254622E+01  0.51100000000E-03 0.  1.
        -12    1    3    3    0    0  0.67328506008E+01  0.55983302317E+01  0.39941609674E+01  0.96242350569E+01  0.00000000000E+00 0.  1.
</event>
<event>
 7    1  0.2966651E-011  0.5052886E+02  0.7816164E-02  0.1300439E+00
        -11   -1    0    0    0    0  0.00000000000E+00  0.00000000000E+00  0.45593999997E+02  0.45594000000E+02  0.51100000000E-03 0.  1.
         11   -1    0    0    0    0 -0.00000000000E+00 -0.00000000000E+00 -0.45593999997E+02  0.45594000000E+02  0.51100000000E-03 0. -1.
    9900012    2    1    2    0    0 -0.34639081432E+02 -0.15252961299E+02  0.14854175768E+02  0.50528864144E+02  0.30000013051E+02 0.  0.
         12    1    1    2    0    0  0.34639081432E+02  0.15252961299E+02 -0.14854175768E+02  0.40659135856E+02  0.00000000000E+00 0. -1.
         11    1    3    3    0    0 -0.27174088494E+02 -0.14336639704E+02 -0.13008690148E+01  0.30751627338E+02  0.51100000000E-03 0. -1.
        -11    1    3    3    0    0 -0.62859496272E+01 -0.33225178322E+01  0.15448474265E+02  0.17006106105E+02  0.51100000000E-03 0.  1.
         12    1    3    3    0    0 -0.11790433113E+01  0.24061962380E+01  0.70657051767E+00  0.27711307010E+01  0.00000000000E+00 0. -1.
</event>
<event>
 7    1  0.2966651E-011  0.5052886E+02  0.7816164E-02  0.1300439E+00
        -11   -1    0    0    0    0  0.00000000000E+00  0.00000000000E+00  0.45593999997E+02  0.45594000000E+02  0.51100000000E-03 0.  1.
         11   -1    0    0    0    0 -0.00000000000E+00 -0.00000000000E+00 -0.45593999997E+02  0.45594000000E+02  0.51100000000E-03 0. -1.
    9900012    2    1    2    0    0  0.31138796215E+02  0.69364578670E+01  0.25207675652E+02  0.50528856019E+02  0.29999988357E+02 0.  0.
         12    1    1    2    0    0 -0.31138796215E+02 -0.69364578670E+01 -0.25207675652E+02  0.40659143981E+02  0.00000000000E+00 0. -1.
         11    1    3    3    0    0  0.17979049637E+02  0.10678620903E+02  0.26600554475E+02  0.33835907980E+02  0.51100000000E-03 0.  1.
        -11    1    3    3    0    0  0.14313702466E+02 -0.20461059992E+01 -0.18899217170E+01  0.14582195733E+02  0.51100000000E-03 0. -1.
         12    1    3    3    0    0 -0.11539558870E+01 -0.16960570366E+01  0.49704289430E+00  0.21107523065E+01  0.00000000000E+00 0. -1.
</event>
<event>
 7    1  0.2966651E-011  0.5052886E+02  0.7816164E-02  0.1300439E+00
        -11   -1    0    0    0    0  0.00000000000E+00  0.00000000000E+00  0.45593999997E+02  0.45594000000E+02  0.51100000000E-03 0.  1.
         11   -1    0    0    0    0 -0.00000000000E+00 -0.00000000000E+00 -0.45593999997E+02  0.45594000000E+02  0.51100000000E-03 0. -1.
    9900012    2    1    2    0    0 -0.33377083481E+01 -0.31119735252E+02  0.25953564679E+02  0.50528859100E+02  0.29999997720E+02 0.  0.
         12    1    1    2    0    0  0.33377083481E+01  0.31119735252E+02 -0.25953564679E+02  0.40659140900E+02  0.00000000000E+00 0. -1.
         11    1    3    3    0    0  0.85387101360E+01 -0.10971027063E+02  0.10062883767E+01  0.13938637744E+02  0.51100000000E-03 0. -1.
        -11    1    3    3    0    0 -0.11014138112E+02 -0.12168803134E+02  0.23128274317E+02  0.28360325830E+02  0.51100000000E-03 0.  1.
        -12    1    3    3    0    0 -0.86228037246E+00 -0.79799050556E+01  0.18190019853E+01  0.82298955254E+01  0.00000000000E+00 0.  1.
</event>
<event>
 7    1  0.2966651E-011  0.5052885E+02  0.7816164E-02  0.1300439E+00
        -11   -1    0    0    0    0  0.00000000000E+00  0.00000000000E+00  0.45593999997E+02  0.45594000000E+02  0.51100000000E-03 0.  1.
         11   -1    0    0    0    0 -0.00000000000E+00 -0.00000000000E+00 -0.45593999997E+02  0.45594000000E+02  0.51100000000E-03 0. -1.
    9900012    2    1    2    0    0  0.37048272045E+02 -0.40968694703E+01  0.16242168620E+02  0.50528845527E+02  0.29999956464E+02 0.  0.
         12    1    1    2    0    0 -0.37048272045E+02  0.40968694703E+01 -0.16242168620E+02  0.40659154473E+02  0.00000000000E+00 0. -1.
         11    1    3    3    0    0  0.64460715127E+01  0.10476988374E+02 -0.10437794101E+01  0.12345387764E+02  0.51100000000E-03 0. -1.
        -11    1    3    3    0    0  0.98468413615E+01 -0.59012220813E+01  0.70305438312E+01  0.13461547224E+02  0.51100000000E-03 0.  1.
         12    1    3    3    0    0  0.20755359171E+02 -0.86726357631E+01  0.10255404198E+02  0.24721910538E+02  0.00000000000E+00 0. -1.
</event>
<event>
 7    1  0.2966651E-011  0.5052886E+02  0.7816164E-02  0.1300439E+00
        -11   -1    0    0    0    0  0.00000000000E+00  0.00000000000E+00  0.45593999997E+02  0.45594000000E+02  0.51100000000E-03 0. -1.
         11   -1    0    0    0    0 -0.00000000000E+00 -0.00000000000E+00 -0.45593999997E+02  0.45594000000E+02  0.51100000000E-03 0.  1.
    9900012    2    1    2    0    0 -0.40171989039E+02 -0.15563175595E+01 -0.60790787449E+01  0.50528855566E+02  0.29999986979E+02 0.  0.
         12    1    1    2    0    0  0.40171989039E+02  0.15563175595E+01  0.60790787449E+01  0.40659144434E+02  0.00000000000E+00 0. -1.
         11    1    3    3    0    0 -0.85003939407E+00  0.61138685333E+01  0.50232840885E+01  0.79583502505E+01  0.51100000000E-03 0. -1.
        -11    1    3    3    0    0 -0.14001590406E+02 -0.36436882427E+01 -0.85495124919E+01  0.16805212347E+02  0.51100000000E-03 0.  1.
         12    1    3    3    0    0 -0.25320359239E+02 -0.40264978501E+01 -0.25528503415E+01  0.25765292969E+02  0.00000000000E+00 0. -1.
</event>
<event>
 7    1  0.2966651E-011  0.5052886E+02  0.7816164E-02  0.1300439E+00
        -11   -1    0    0    0    0  0.00000000000E+00  0.00000000000E+00  0.45593999997E+02  0.45594000000E+02  0.51100000000E-03 0. -1.
         11   -1    0    0    0    0 -0.00000000000E+00 -0.00000000000E+00 -0.45593999997E+02  0.45594000000E+02  0.51100000000E-03 0.  1.
    9900012    2    1    2    0    0 -0.31571381063E+02  0.24045934900E+02 -0.88434531957E+01  0.50528858939E+02  0.29999997231E+02 0.  0.
         12    1    1    2    0    0  0.31571381063E+02 -0.24045934900E+02  0.88434531957E+01  0.40659141061E+02  0.00000000000E+00 0. -1.
         11    1    3    3    0    0 -0.23400098443E+02  0.25709317242E+02 -0.26612018341E+01  0.34865679337E+02  0.51100000000E-03 0. -1.
        -11    1    3    3    0    0 -0.32587740567E+01 -0.66327745059E+01 -0.28355596663E+01  0.79154093313E+01  0.51100000000E-03 0.  1.
         12    1    3    3    0    0 -0.49125085629E+01  0.49693921635E+01 -0.33466916953E+01  0.77477702702E+01  0.00000000000E+00 0. -1.
</event>
<event>
 7    1  0.2966651E-011  0.5052886E+02  0.7816164E-02  0.1300439E+00
        -11   -1    0    0    0    0  0.00000000000E+00  0.00000000000E+00  0.45593999997E+02  0.45594000000E+02  0.51100000000E-03 0. -1.
         11   -1    0    0    0    0 -0.00000000000E+00 -0.00000000000E+00 -0.45593999997E+02  0.45594000000E+02  0.51100000000E-03 0.  1.
    9900012    2    1    2    0    0 -0.35513507289E+02  0.19551281099E+02 -0.31150801921E+01  0.50528861824E+02  0.30000006001E+02 0.  0.
         12    1    1    2    0    0  0.35513507289E+02 -0.19551281099E+02  0.31150801921E+01  0.40659138176E+02  0.00000000000E+00 0. -1.
         11    1    3    3    0    0 -0.53700717969E+01  0.14339788406E+02  0.48898764491E+01  0.16074143665E+02  0.51100000000E-03 0. -1.
        -11    1    3    3    0    0 -0.31320338924E+02  0.44580101818E+01 -0.63120769480E+01  0.32259569135E+02  0.51100000000E-03 0.  1.
        -12    1    3    3    0    0  0.11769034317E+01  0.75348251105E+00 -0.16928796933E+01  0.21951490241E+01  0.00000000000E+00 0.  1.
</event>
<event>
 7    1  0.2966651E-011  0.5052887E+02  0.7816164E-02  0.1300439E+00
        -11   -1    0    0    0    0  0.00000000000E+00  0.00000000000E+00  0.45593999997E+02  0.45594000000E+02  0.51100000000E-03 0.  1.
         11   -1    0    0    0    0 -0.00000000000E+00 -0.00000000000E+00 -0.45593999997E+02  0.45594000000E+02  0.51100000000E-03 0. -1.
    9900012    2    1    2    0    0  0.48144803596E+01  0.19422150105E+02  0.35394431621E+02  0.50528869100E+02  0.30000028115E+02 0.  0.
         12    1    1    2    0    0 -0.48144803596E+01 -0.19422150105E+02 -0.35394431621E+02  0.40659130900E+02  0.00000000000E+00 0. -1.
         11    1    3    3    0    0  0.30511900685E+01  0.23068862494E+02  0.24747126551E+02  0.33969139677E+02  0.51100000000E-03 0. -1.
        -11    1    3    3    0    0 -0.18019973078E+01  0.38198988914E+01  0.49845714688E+01  0.65333586176E+01  0.51100000000E-03 0.  1.
         12    1    3    3    0    0  0.35652875989E+01 -0.74666112809E+01  0.56627336010E+01  0.10026370805E+02  0.00000000000E+00 0. -1.
</event>
<event>
 7    1  0.2966651E-011  0.5052886E+02  0.7816164E-02  0.1300439E+00
        -11   -1    0    0    0    0  0.00000000000E+00  0.00000000000E+00  0.45593999997E+02  0.45594000000E+02  0.51100000000E-03 0.  1.
         11   -1    0    0    0    0 -0.00000000000E+00 -0.00000000000E+00 -0.45593999997E+02  0.45594000000E+02  0.51100000000E-03 0. -1.
    9900012    2    1    2    0    0 -0.24969204365E+02 -0.17188654088E+02  0.27097133566E+02  0.50528860272E+02  0.30000001282E+02 0.  0.
         12    1    1    2    0    0  0.24969204365E+02  0.17188654088E+02 -0.27097133566E+02  0.40659139728E+02  0.00000000000E+00 0. -1.
         11    1    3    3    0    0 -0.10848225197E+02 -0.17098920825E+01  0.48906538049E+01  0.12021905662E+02  0.51100000000E-03 0. -1.
        -11    1    3    3    0    0 -0.75318836874E+00 -0.17862200403E+02  0.12397855495E+02  0.21756201807E+02  0.51100000000E-03 0.  1.
        -12    1    3    3    0    0 -0.13367790799E+02  0.23834383976E+01  0.98086242665E+01  0.16750752802E+02  0.00000000000E+00 0.  1.
</event>
<event>
 7    1  0.2966651E-011  0.5052886E+02  0.7816164E-02  0.1300439E+00
        -11   -1    0    0    0    0  0.00000000000E+00  0.00000000000E+00  0.45593999997E+02  0.45594000000E+02  0.51100000000E-03 0.  1.
         11   -1    0    0    0    0 -0.00000000000E+00 -0.00000000000E+00 -0.45593999997E+02  0.45594000000E+02  0.51100000000E-03 0. -1.
    9900012    2    1    2    0    0  0.91627454327E+00  0.40577650170E+02 -0.24041879401E+01  0.50528863610E+02  0.30000011428E+02 0.  0.
         12    1    1    2    0    0 -0.91627454327E+00 -0.40577650170E+02  0.24041879401E+01  0.40659136390E+02  0.00000000000E+00 0. -1.
         11    1    3    3    0    0  0.94546803944E+01  0.67396521291E+01  0.77615432781E+01  0.13966225206E+02  0.51100000000E-03 0. -1.
        -11    1    3    3    0    0 -0.65899187835E+01  0.18698246374E+02 -0.65019478985E+01  0.20864485946E+02  0.51100000000E-03 0.  1.
         12    1    3    3    0    0 -0.19484870676E+01  0.15139751667E+02 -0.36637833196E+01  0.15698152458E+02  0.00000000000E+00 0. -1.
</event>
<event>
 7    1  0.2966651E-011  0.5052887E+02  0.7816164E-02  0.1300439E+00
        -11   -1    0    0    0    0  0.00000000000E+00  0.00000000000E+00  0.45593999997E+02  0.45594000000E+02  0.51100000000E-03 0.  1.
         11   -1    0    0    0    0 -0.00000000000E+00 -0.00000000000E+00 -0.45593999997E+02  0.45594000000E+02  0.51100000000E-03 0. -1.
    9900012    2    1    2    0    0  0.73449151423E+01  0.29284297893E+02  0.27233201232E+02  0.50528866574E+02  0.30000020440E+02 0.  0.
         12    1    1    2    0    0 -0.73449151423E+01 -0.29284297893E+02 -0.27233201232E+02  0.40659133426E+02  0.00000000000E+00 0. -1.
         11    1    3    3    0    0  0.16389465688E+02  0.12197033405E+02  0.16227396381E+02  0.26090431253E+02  0.51100000000E-03 0. -1.
        -11    1    3    3    0    0 -0.23642195477E+01  0.53459327005E-01  0.43821117528E+01  0.49794874881E+01  0.51100000000E-03 0.  1.
         12    1    3    3    0    0 -0.66803309975E+01  0.17033805161E+02  0.66236930984E+01  0.19458947833E+02  0.00000000000E+00 0. -1.
</event>
<event>
 7    1  0.2966651E-011  0.5052886E+02  0.7816164E-02  0.1300439E+00
        -11   -1    0    0    0    0  0.00000000000E+00  0.00000000000E+00  0.45593999997E+02  0.45594000000E+02  0.51100000000E-03 0.  1.
         11   -1    0    0    0    0 -0.00000000000E+00 -0.00000000000E+00 -0.45593999997E+02  0.45594000000E+02  0.51100000000E-03 0. -1.
    9900012    2    1    2    0    0  0.28169416939E+02 -0.10242757112E+01  0.29301885738E+02  0.50528859586E+02  0.29999999196E+02 0.  0.
         12    1    1    2    0    0 -0.28169416939E+02  0.10242757112E+01 -0.29301885738E+02  0.40659140414E+02  0.00000000000E+00 0. -1.
         11    1    3    3    0    0 -0.59793368198E+00 -0.57983168989E+01  0.14978372037E+02  0.16072636146E+02  0.51100000000E-03 0. -1.
        -11    1    3    3    0    0  0.10601430196E+02  0.12260554639E+01  0.11575153055E+02  0.15744132326E+02  0.51100000000E-03 0.  1.
         12    1    3    3    0    0  0.18165920426E+02  0.35479857238E+01  0.27483606466E+01  0.18712091114E+02  0.00000000000E+00 0. -1.
</event>
<event>
 7    1  0.2966651E-011  0.5052886E+02  0.7816164E-02  0.1300439E+00
        -11   -1    0    0    0    0  0.00000000000E+00  0.00000000000E+00  0.45593999997E+02  0.45594000000E+02  0.51100000000E-03 0.  1.
         11   -1    0    0    0    0 -0.00000000000E+00 -0.00000000000E+00 -0.45593999997E+02  0.45594000000E+02  0.51100000000E-03 0. -1.
    9900012    2    1    2    0    0 -0.32380755599E+02 -0.13593217346E+02  0.20490894719E+02  0.50528860101E+02  0.30000000762E+02 0.  0.
         12    1    1    2    0    0  0.32380755599E+02  0.13593217346E+02 -0.20490894719E+02  0.40659139899E+02  0.00000000000E+00 0. -1.
         11    1    3    3    0    0 -0.17789830616E+02  0.32061033652E+01  0.16835413835E+02  0.24701990434E+02  0.51100000000E-03 0. -1.
        -11    1    3    3    0    0 -0.71392422507E+01 -0.16645498136E+02  0.24549734878E+01  0.18277534932E+02  0.51100000000E-03 0.  1.
         12    1    3    3    0    0 -0.74516827321E+01 -0.15382257485E+00  0.12005073965E+01  0.75493347345E+01  0.00000000000E+00 0. -1.
</event>
<event>
 7    1  0.3028571E-011  0.5052886E+02  0.7816164E-02  0.1300439E+00
        -11   -1    0    0    0    0  0.00000000000E+00  0.00000000000E+00  0.45593999997E+02  0.45594000000E+02  0.51100000000E-03 0.  1.
         11   -1    0    0    0    0 -0.00000000000E+00 -0.00000000000E+00 -0.45593999997E+02  0.45594000000E+02  0.51100000000E-03 0. -1.
    9900012    2    1    2    0    0 -0.36856523787E+02  0.11341625003E+02 -0.12889131139E+02  0.50528861976E+02  0.30000006462E+02 0.  0.
         12    1    1    2    0    0  0.36856523787E+02 -0.11341625003E+02  0.12889131139E+02  0.40659138024E+02  0.00000000000E+00 0. -1.
         11    1    3    3    0    0 -0.88646336436E+00  0.72014345139E+01 -0.44023050506E+01  0.84868584514E+01  0.51100000000E-03 0. -1.
        -11    1    3    3    0    0 -0.33361610918E+02  0.58743334470E+01 -0.95888989582E+00  0.33888410210E+02  0.51100000000E-03 0.  1.
        -12    1    3    3    0    0 -0.26084495044E+01 -0.17341429575E+01 -0.75279361927E+01  0.81535933143E+01  0.00000000000E+00 0.  1.
</event>
<event>
 7    1  0.2966651E-011  0.5052887E+02  0.7816164E-02  0.1300439E+00
        -11   -1    0    0    0    0  0.00000000000E+00  0.00000000000E+00  0.45593999997E+02  0.45594000000E+02  0.51100000000E-03 0.  1.
         11   -1    0    0    0    0 -0.00000000000E+00 -0.00000000000E+00 -0.45593999997E+02  0.45594000000E+02  0.51100000000E-03 0. -1.
    9900012    2    1    2    0    0 -0.23363085262E+02 -0.22363645778E+02  0.24641403555E+02  0.50528866037E+02  0.30000018807E+02 0.  0.
         12    1    1    2    0    0  0.23363085262E+02  0.22363645778E+02 -0.24641403555E+02  0.40659133963E+02  0.00000000000E+00 0. -1.
         11    1    3    3    0    0  0.22952216563E+01 -0.10554352302E+02 -0.12991155015E+00  0.10801818007E+02  0.51100000000E-03 0. -1.
        -11    1    3    3    0    0 -0.21901375114E+02 -0.13058177429E+02  0.25067338318E+02  0.35756924927E+02  0.51100000000E-03 0.  1.
         12    1    3    3    0    0 -0.37569318047E+01  0.12488839541E+01 -0.29602321238E+00  0.39701231037E+01  0.00000000000E+00 0. -1.
</event>
<event>
 7    1  0.2966651E-011  0.5052886E+02  0.7816164E-02  0.1300439E+00
        -11   -1    0    0    0    0  0.00000000000E+00  0.00000000000E+00  0.45593999997E+02  0.45594000000E+02  0.51100000000E-03 0.  1.
         11   -1    0    0    0    0 -0.00000000000E+00 -0.00000000000E+00 -0.45593999997E+02  0.45594000000E+02  0.51100000000E-03 0. -1.
    9900012    2    1    2    0    0 -0.16434857658E+01  0.40085178154E+02 -0.66063053161E+01  0.50528858063E+02  0.29999994568E+02 0.  0.
         12    1    1    2    0    0  0.16434857658E+01 -0.40085178154E+02  0.66063053161E+01  0.40659141937E+02  0.00000000000E+00 0. -1.
         11    1    3    3    0    0 -0.20451391976E+01  0.54277026487E+01 -0.81601600444E+01  0.10011531481E+02  0.51100000000E-03 0. -1.
        -11    1    3    3    0    0  0.96326198574E+01  0.21738754300E+02  0.49337321165E+01  0.24283791234E+02  0.51100000000E-03 0.  1.
        -12    1    3    3    0    0 -0.92309664256E+01  0.12918721206E+02 -0.33798773883E+01  0.16233535348E+02  0.00000000000E+00 0.  1.
</event>
<event>
 7    1  0.2966651E-011  0.5052886E+02  0.7816164E-02  0.1300439E+00
        -11   -1    0    0    0    0  0.00000000000E+00  0.00000000000E+00  0.45593999997E+02  0.45594000000E+02  0.51100000000E-03 0.  1.
         11   -1    0    0    0    0 -0.00000000000E+00 -0.00000000000E+00 -0.45593999997E+02  0.45594000000E+02  0.51100000000E-03 0. -1.
    9900012    2    1    2    0    0  0.91486023018E+00  0.30046288704E+02  0.27377900267E+02  0.50528857643E+02  0.29999993292E+02 0.  0.
         12    1    1    2    0    0 -0.91486023018E+00 -0.30046288704E+02 -0.27377900267E+02  0.40659142357E+02  0.00000000000E+00 0. -1.
         11    1    3    3    0    0  0.55320778005E+01  0.24261941155E+01  0.57737478181E+01  0.83562232381E+01  0.51100000000E-03 0. -1.
        -11    1    3    3    0    0 -0.52098692337E+01  0.64632276622E+01 -0.37806179217E+01  0.91219033856E+01  0.51100000000E-03 0.  1.
        -12    1    3    3    0    0  0.59265166339E+00  0.21156866927E+02  0.25384770371E+02  0.33050731020E+02  0.00000000000E+00 0.  1.
</event>
<event>
 7    1  0.2966651E-011  0.5052890E+02  0.7816164E-02  0.1300439E+00
        -11   -1    0    0    0    0  0.00000000000E+00  0.00000000000E+00  0.45593999997E+02  0.45594000000E+02  0.51100000000E-03 0. -1.
         11   -1    0    0    0    0 -0.00000000000E+00 -0.00000000000E+00 -0.45593999997E+02  0.45594000000E+02  0.51100000000E-03 0.  1.
    9900012    2    1    2    0    0  0.24194117780E+02 -0.30678158070E+02 -0.11254226859E+02  0.50528900896E+02  0.30000124763E+02 0.  0.
         12    1    1    2    0    0 -0.24194117780E+02  0.30678158070E+02  0.11254226859E+02  0.40659099104E+02  0.00000000000E+00 0. -1.
         11    1    3    3    0    0 -0.12765535504E+01  0.27097515066E+01  0.20214963338E+01  0.36136947689E+01  0.51100000000E-03 0. -1.
        -11    1    3    3    0    0  0.26711940810E+02 -0.33939098418E+02 -0.11528685947E+02  0.44702357691E+02  0.51100000000E-03 0.  1.
        -12    1    3    3    0    0 -0.12412694789E+01  0.55118884119E+00 -0.17470372464E+01  0.22128484354E+01  0.00000000000E+00 0.  1.
</event>
<event>
 7    1  0.2966651E-011  0.5052881E+02  0.7816164E-02  0.1300439E+00
        -11   -1    0    0    0    0  0.00000000000E+00  0.00000000000E+00  0.45593999997E+02  0.45594000000E+02  0.51100000000E-03 0.  1.
         11   -1    0    0    0    0 -0.00000000000E+00 -0.00000000000E+00 -0.45593999997E+02  0.45594000000E+02  0.51100000000E-03 0. -1.
    9900012    2    1    2    0    0  0.57621841274E+01  0.12421197646E+01  0.40229638585E+02  0.50528813484E+02  0.29999859066E+02 0.  0.
         12    1    1    2    0    0 -0.57621841274E+01 -0.12421197646E+01 -0.40229638585E+02  0.40659186516E+02  0.00000000000E+00 0. -1.
         11    1    3    3    0    0  0.13663386798E+01  0.66975277417E+01  0.10472228620E+02  0.12505651993E+02  0.51100000000E-03 0. -1.
        -11    1    3    3    0    0  0.20064170992E+01 -0.12786061841E+02  0.86902283715E+01  0.15589392432E+02  0.51100000000E-03 0.  1.
        -12    1    3    3    0    0  0.23894283485E+01  0.73306538641E+01  0.21067181593E+02  0.22433769059E+02  0.00000000000E+00 0.  1.
</event>
<event>
 7    1  0.2966651E-011  0.5052885E+02  0.7816164E-02  0.1300439E+00
        -11   -1    0    0    0    0  0.00000000000E+00  0.00000000000E+00  0.45593999997E+02  0.45594000000E+02  0.51100000000E-03 0.  1.
         11   -1    0    0    0    0 -0.00000000000E+00 -0.00000000000E+00 -0.45593999997E+02  0.45594000000E+02  0.51100000000E-03 0. -1.
    9900012    2    1    2    0    0  0.85767137908E+00  0.24904519973E+02  0.32127799476E+02  0.50528853249E+02  0.29999979937E+02 0.  0.
         12    1    1    2    0    0 -0.85767137908E+00 -0.24904519973E+02 -0.32127799476E+02  0.40659146751E+02  0.00000000000E+00 0. -1.
         11    1    3    3    0    0 -0.29821228221E+01  0.12059627491E+02  0.19633212172E-02  0.12422869067E+02  0.51100000000E-03 0. -1.
        -11    1    3    3    0    0  0.44318498843E+01 -0.36471467686E+00  0.18854217067E+02  0.19371520634E+02  0.51100000000E-03 0.  1.
         12    1    3    3    0    0 -0.59205568311E+00  0.13209607159E+02  0.13271619088E+02  0.18734463549E+02  0.00000000000E+00 0. -1.
</event>
<event>
 7    1  0.2966651E-011  0.5052886E+02  0.7816164E-02  0.1300439E+00
        -11   -1    0    0    0    0  0.00000000000E+00  0.00000000000E+00  0.45593999997E+02  0.45594000000E+02  0.51100000000E-03 0. -1.
         11   -1    0    0    0    0 -0.00000000000E+00 -0.00000000000E+00 -0.45593999997E+02  0.45594000000E+02  0.51100000000E-03 0.  1.
    9900012    2    1    2    0    0  0.17866111003E+02  0.34804681719E+02 -0.11072573478E+02  0.50528859880E+02  0.30000000090E+02 0.  0.
         12    1    1    2    0    0 -0.17866111003E+02 -0.34804681719E+02  0.11072573478E+02  0.40659140120E+02  0.00000000000E+00 0. -1.
         11    1    3    3    0    0 -0.42779291689E+01  0.26019981345E+01  0.35639591289E+01  0.61459643018E+01  0.51100000000E-03 0. -1.
        -11    1    3    3    0    0  0.24242926484E+02  0.30400986481E+02 -0.12361243005E+02  0.40801222928E+02  0.51100000000E-03 0.  1.
        -12    1    3    3    0    0 -0.20988863119E+01  0.18016971034E+01 -0.22752896013E+01  0.35816726501E+01  0.00000000000E+00 0.  1.
</event>
<event>
 7    1  0.2966651E-011  0.5052886E+02  0.7816164E-02  0.1300439E+00
        -11   -1    0    0    0    0  0.00000000000E+00  0.00000000000E+00  0.45593999997E+02  0.45594000000E+02  0.51100000000E-03 0.  1.
         11   -1    0    0    0    0 -0.00000000000E+00 -0.00000000000E+00 -0.45593999997E+02  0.45594000000E+02  0.51100000000E-03 0. -1.
    9900012    2    1    2    0    0 -0.18153032209E+02 -0.34700382275E+02  0.10932362497E+02  0.50528860091E+02  0.30000000733E+02 0.  0.
         12    1    1    2    0    0  0.18153032209E+02  0.34700382275E+02 -0.10932362497E+02  0.40659139909E+02  0.00000000000E+00 0. -1.
         11    1    3    3    0    0  0.72309693887E+00  0.25471779478E+01 -0.47013509960E+01  0.53957099745E+01  0.51100000000E-03 0. -1.
        -11    1    3    3    0    0 -0.78569733832E+01 -0.21363910527E+02  0.60331815751E+01  0.23548842518E+02  0.51100000000E-03 0.  1.
         12    1    3    3    0    0 -0.11019155765E+02 -0.15883649695E+02  0.96005319175E+01  0.21584307598E+02  0.00000000000E+00 0. -1.
</event>
<event>
 7    1  0.2966651E-011  0.5052886E+02  0.7816164E-02  0.1300439E+00
        -11   -1    0    0    0    0  0.00000000000E+00  0.00000000000E+00  0.45593999997E+02  0.45594000000E+02  0.51100000000E-03 0.  1.
         11   -1    0    0    0    0 -0.00000000000E+00 -0.00000000000E+00 -0.45593999997E+02  0.45594000000E+02  0.51100000000E-03 0. -1.
    9900012    2    1    2    0    0  0.21851956776E+02  0.27129123013E+02  0.20968276452E+02  0.50528856530E+02  0.29999989908E+02 0.  0.
         12    1    1    2    0    0 -0.21851956776E+02 -0.27129123013E+02 -0.20968276452E+02  0.40659143470E+02  0.00000000000E+00 0. -1.
         11    1    3    3    0    0 -0.94338552527E+00  0.38244714859E+00  0.47674667846E+01  0.48749340380E+01  0.51100000000E-03 0. -1.
        -11    1    3    3    0    0  0.14134076796E+02  0.25714526239E+02  0.25489926635E+01  0.29453460754E+02  0.51100000000E-03 0.  1.
        -12    1    3    3    0    0  0.86612655050E+01  0.10321496254E+01  0.13651817004E+02  0.16200461737E+02  0.00000000000E+00 0.  1.
</event>
<event>
 7    1  0.2966651E-011  0.5052887E+02  0.7816164E-02  0.1300439E+00
        -11   -1    0    0    0    0  0.00000000000E+00  0.00000000000E+00  0.45593999997E+02  0.45594000000E+02  0.51100000000E-03 0. -1.
         11   -1    0    0    0    0 -0.00000000000E+00 -0.00000000000E+00 -0.45593999997E+02  0.45594000000E+02  0.51100000000E-03 0.  1.
    9900012    2    1    2    0    0  0.26527149493E+01  0.10762078840E+02 -0.39119124153E+02  0.50528866807E+02  0.30000021145E+02 0.  0.
         12    1    1    2    0    0 -0.26527149493E+01 -0.10762078840E+02  0.39119124153E+02  0.40659133193E+02  0.00000000000E+00 0. -1.
         11    1    3    3    0    0  0.16782815213E+01 -0.95490635970E+01 -0.89067566528E+01  0.13165544378E+02  0.51100000000E-03 0. -1.
        -11    1    3    3    0    0 -0.11599610311E+01  0.87713502645E+01 -0.19749914475E+02  0.21641192598E+02  0.51100000000E-03 0.  1.
         12    1    3    3    0    0  0.21343944592E+01  0.11539792172E+02 -0.10462453025E+02  0.15722129830E+02  0.00000000000E+00 0. -1.
</event>
<event>
 7    1  0.2966651E-011  0.5052885E+02  0.7816164E-02  0.1300439E+00
        -11   -1    0    0    0    0  0.00000000000E+00  0.00000000000E+00  0.45593999997E+02  0.45594000000E+02  0.51100000000E-03 0. -1.
         11   -1    0    0    0    0 -0.00000000000E+00 -0.00000000000E+00 -0.45593999997E+02  0.45594000000E+02  0.51100000000E-03 0.  1.
    9900012    2    1    2    0    0 -0.26828255693E+02 -0.25444178511E+02  0.16911673646E+02  0.50528853069E+02  0.29999979389E+02 0.  0.
         12    1    1    2    0    0  0.26828255693E+02  0.25444178511E+02 -0.16911673646E+02  0.40659146931E+02  0.00000000000E+00 0. -1.
         11    1    3    3    0    0 -0.10941157294E+02 -0.21041298074E+02  0.61969142760E+01  0.24512178491E+02  0.51100000000E-03 0. -1.
        -11    1    3    3    0    0 -0.11350761502E+02  0.43140217325E+01  0.97659364841E+00  0.12182130585E+02  0.51100000000E-03 0.  1.
        -12    1    3    3    0    0 -0.45363368981E+01 -0.87169021690E+01  0.97381657219E+01  0.13834543993E+02  0.00000000000E+00 0.  1.
</event>
<event>
 7    1  0.2966651E-011  0.5052886E+02  0.7816164E-02  0.1300439E+00
        -11   -1    0    0    0    0  0.00000000000E+00  0.00000000000E+00  0.45593999997E+02  0.45594000000E+02  0.51100000000E-03 0.  1.
         11   -1    0    0    0    0 -0.00000000000E+00 -0.00000000000E+00 -0.45593999997E+02  0.45594000000E+02  0.51100000000E-03 0. -1.
    9900012    2    1    2    0    0  0.10235689095E+02 -0.38799207269E+02  0.65588125923E+01  0.50528857872E+02  0.29999993989E+02 0.  0.
         12    1    1    2    0    0 -0.10235689095E+02  0.38799207269E+02 -0.65588125923E+01  0.40659142128E+02  0.00000000000E+00 0. -1.
         11    1    3    3    0    0 -0.35825515977E+01 -0.23202503738E+01 -0.23736190467E+01  0.48838822045E+01  0.51100000000E-03 0. -1.
        -11    1    3    3    0    0  0.19833091536E+02 -0.28896572919E+02  0.62410710662E+01  0.35599359751E+02  0.51100000000E-03 0.  1.
        -12    1    3    3    0    0 -0.60148508431E+01 -0.75823839756E+01  0.26913605728E+01  0.10045615917E+02  0.00000000000E+00 0.  1.
</event>
<event>
 7    1  0.2966651E-011  0.5052886E+02  0.7816164E-02  0.1300439E+00
        -11   -1    0    0    0    0  0.00000000000E+00  0.00000000000E+00  0.45593999997E+02  0.45594000000E+02  0.51100000000E-03 0.  1.
         11   -1    0    0    0    0 -0.00000000000E+00 -0.00000000000E+00 -0.45593999997E+02  0.45594000000E+02  0.51100000000E-03 0. -1.
    9900012    2    1    2    0    0 -0.28426517580E+02  0.45575892371E+01  0.28711098408E+02  0.50528859660E+02  0.29999999424E+02 0.  0.
         12    1    1    2    0    0  0.28426517580E+02 -0.45575892371E+01 -0.28711098408E+02  0.40659140340E+02  0.00000000000E+00 0. -1.
         11    1    3    3    0    0 -0.13889088429E+02 -0.59447121787E+00 -0.34916512971E+01  0.14333590006E+02  0.51100000000E-03 0. -1.
        -11    1    3    3    0    0 -0.63513475487E+01  0.69295959834E-01  0.17493586877E+02  0.18611018234E+02  0.51100000000E-03 0.  1.
        -12    1    3    3    0    0 -0.81860816016E+01  0.50827644951E+01  0.14709162828E+02  0.17584251420E+02  0.00000000000E+00 0.  1.
</event>
<event>
 7    1  0.2966651E-011  0.5052887E+02  0.7816164E-02  0.1300439E+00
        -11   -1    0    0    0    0  0.00000000000E+00  0.00000000000E+00  0.45593999997E+02  0.45594000000E+02  0.51100000000E-03 0.  1.
         11   -1    0    0    0    0 -0.00000000000E+00 -0.00000000000E+00 -0.45593999997E+02  0.45594000000E+02  0.51100000000E-03 0. -1.
    9900012    2    1    2    0    0 -0.34944044867E+02  0.11272105073E+02  0.17464781657E+02  0.50528865445E+02  0.30000017006E+02 0.  0.
         12    1    1    2    0    0  0.34944044867E+02 -0.11272105073E+02 -0.17464781657E+02  0.40659134555E+02  0.00000000000E+00 0. -1.
         11    1    3    3    0    0 -0.44230219840E+01 -0.29672609218E+01 -0.51697103327E+01  0.74225107635E+01  0.51100000000E-03 0. -1.
        -11    1    3    3    0    0 -0.81750178709E+01  0.13852798825E+01  0.13331882288E+02  0.15699968253E+02  0.51100000000E-03 0.  1.
         12    1    3    3    0    0 -0.22346005013E+02  0.12854086112E+02  0.93026097014E+01  0.27406386428E+02  0.00000000000E+00 0. -1.
</event>
<event>
 7    1  0.2966651E-011  0.5052885E+02  0.7816164E-02  0.1300439E+00
        -11   -1    0    0    0    0  0.00000000000E+00  0.00000000000E+00  0.45593999997E+02  0.45594000000E+02  0.51100000000E-03 0.  1.
         11   -1    0    0    0    0 -0.00000000000E+00 -0.00000000000E+00 -0.45593999997E+02  0.45594000000E+02  0.51100000000E-03 0. -1.
    9900012    2    1    2    0    0 -0.30044567021E+02  0.25240910689E+02  0.10648311784E+02  0.50528854366E+02  0.29999983330E+02 0.  0.
         12    1    1    2    0    0  0.30044567021E+02 -0.25240910689E+02 -0.10648311784E+02  0.40659145634E+02  0.00000000000E+00 0. -1.
         11    1    3    3    0    0 -0.12128682097E+02  0.14729012597E+02 -0.70982490257E+01  0.20357649201E+02  0.51100000000E-03 0. -1.
        -11    1    3    3    0    0 -0.16381903024E+02  0.50627470086E+01  0.80474985630E+01  0.18940971130E+02  0.51100000000E-03 0.  1.
         12    1    3    3    0    0 -0.15339818991E+01  0.54491510832E+01  0.96990622468E+01  0.11230234034E+02  0.00000000000E+00 0. -1.
</event>
<event>
 7    1  0.2966651E-011  0.5052886E+02  0.7816164E-02  0.1300439E+00
        -11   -1    0    0    0    0  0.00000000000E+00  0.00000000000E+00  0.45593999997E+02  0.45594000000E+02  0.51100000000E-03 0. -1.
         11   -1    0    0    0    0 -0.00000000000E+00 -0.00000000000E+00 -0.45593999997E+02  0.45594000000E+02  0.51100000000E-03 0.  1.
    9900012    2    1    2    0    0 -0.39744513038E+02 -0.70726421960E+01  0.48494819959E+01  0.50528855151E+02  0.29999985716E+02 0.  0.
         12    1    1    2    0    0  0.39744513038E+02  0.70726421960E+01 -0.48494819959E+01  0.40659144849E+02  0.00000000000E+00 0. -1.
         11    1    3    3    0    0 -0.30934166703E+01 -0.64688469817E+01  0.92106954119E+01  0.11672708263E+02  0.51100000000E-03 0. -1.
        -11    1    3    3    0    0 -0.68213183822E+01 -0.23176477956E+01 -0.53297537924E+01  0.89614815474E+01  0.51100000000E-03 0.  1.
         12    1    3    3    0    0 -0.29829777985E+02  0.17138525813E+01  0.96854037643E+00  0.29894665340E+02  0.00000000000E+00 0. -1.
</event>
<event>
 7    1  0.2966651E-011  0.5052886E+02  0.7816164E-02  0.1300439E+00
        -11   -1    0    0    0    0  0.00000000000E+00  0.00000000000E+00  0.45593999997E+02  0.45594000000E+02  0.51100000000E-03 0.  1.
         11   -1    0    0    0    0 -0.00000000000E+00 -0.00000000000E+00 -0.45593999997E+02  0.45594000000E+02  0.51100000000E-03 0. -1.
    9900012    2    1    2    0    0 -0.18426156660E+02 -0.25360801629E+02  0.25893471094E+02  0.50528863833E+02  0.30000012106E+02 0.  0.
         12    1    1    2    0    0  0.18426156660E+02  0.25360801629E+02 -0.25893471094E+02  0.40659136167E+02  0.00000000000E+00 0. -1.
         11    1    3    3    0    0 -0.49157702018E+01 -0.19817669971E+02  0.19999176653E+01  0.20515957465E+02  0.51100000000E-03 0. -1.
        -11    1    3    3    0    0 -0.22151752670E+01 -0.60185084337E+01  0.11983418460E+02  0.13591606361E+02  0.51100000000E-03 0.  1.
         12    1    3    3    0    0 -0.11295211192E+02  0.47537677559E+00  0.11910134969E+02  0.16421300007E+02  0.00000000000E+00 0. -1.
</event>
<event>
 7    1  0.2966651E-011  0.5052885E+02  0.7816164E-02  0.1300439E+00
        -11   -1    0    0    0    0  0.00000000000E+00  0.00000000000E+00  0.45593999997E+02  0.45594000000E+02  0.51100000000E-03 0. -1.
         11   -1    0    0    0    0 -0.00000000000E+00 -0.00000000000E+00 -0.45593999997E+02  0.45594000000E+02  0.51100000000E-03 0.  1.
    9900012    2    1    2    0    0 -0.20847300145E+02  0.29570216680E+01 -0.34782355714E+02  0.50528853803E+02  0.29999981619E+02 0.  0.
         12    1    1    2    0    0  0.20847300145E+02 -0.29570216680E+01  0.34782355714E+02  0.40659146197E+02  0.00000000000E+00 0. -1.
         11    1    3    3    0    0 -0.39375273404E+01  0.99900802900E+01 -0.16786579575E+01  0.10868473607E+02  0.51100000000E-03 0. -1.
        -11    1    3    3    0    0 -0.91547364654E+01 -0.18696123588E+01 -0.26875927727E+02  0.28453824727E+02  0.51100000000E-03 0.  1.
         12    1    3    3    0    0 -0.77550363393E+01 -0.51634462631E+01 -0.62277700290E+01  0.11206555469E+02  0.00000000000E+00 0. -1.
</event>
<event>
 7    1  0.2966651E-011  0.5052886E+02  0.7816164E-02  0.1300439E+00
        -11   -1    0    0    0    0  0.00000000000E+00  0.00000000000E+00  0.45593999997E+02  0.45594000000E+02  0.51100000000E-03 0.  1.
         11   -1    0    0    0    0 -0.00000000000E+00 -0.00000000000E+00 -0.45593999997E+02  0.45594000000E+02  0.51100000000E-03 0. -1.
    9900012    2    1    2    0    0  0.18217423961E+02 -0.29000011924E+02  0.21915522556E+02  0.50528863803E+02  0.30000012014E+02 0.  0.
         12    1    1    2    0    0 -0.18217423961E+02  0.29000011924E+02 -0.21915522556E+02  0.40659136197E+02  0.00000000000E+00 0. -1.
         11    1    3    3    0    0 -0.33150288987E+01 -0.26571920981E+01  0.79452094281E+01  0.90097968658E+01  0.51100000000E-03 0. -1.
        -11    1    3    3    0    0  0.23409285752E+02 -0.28053171451E+02  0.12715394036E+02  0.38686642832E+02  0.51100000000E-03 0.  1.
        -12    1    3    3    0    0 -0.18768328916E+01  0.17103516245E+01  0.12549190924E+01  0.28324241050E+01  0.00000000000E+00 0.  1.
</event>
<event>
 7    1  0.2966651E-011  0.5052883E+02  0.7816164E-02  0.1300439E+00
        -11   -1    0    0    0    0  0.00000000000E+00  0.00000000000E+00  0.45593999997E+02  0.45594000000E+02  0.51100000000E-03 0.  1.
         11   -1    0    0    0    0 -0.00000000000E+00 -0.00000000000E+00 -0.45593999997E+02  0.45594000000E+02  0.51100000000E-03 0. -1.
    9900012    2    1    2    0    0  0.24903775518E+02 -0.20176134346E+02  0.25017860135E+02  0.50528834270E+02  0.29999922246E+02 0.  0.
         12    1    1    2    0    0 -0.24903775518E+02  0.20176134346E+02 -0.25017860135E+02  0.40659165730E+02  0.00000000000E+00 0. -1.
         11    1    3    3    0    0  0.26052859372E+00 -0.33834879464E+01  0.11420133551E+02  0.11913660916E+02  0.51100000000E-03 0. -1.
        -11    1    3    3    0    0  0.19568770657E+02 -0.20556866254E+02  0.65073303330E+01  0.29118153848E+02  0.51100000000E-03 0.  1.
        -12    1    3    3    0    0  0.50744762671E+01  0.37642198547E+01  0.70903962506E+01  0.94970195056E+01  0.00000000000E+00 0.  1.
</event>
<event>
 7    1  0.2966651E-011  0.5052886E+02  0.7816164E-02  0.1300439E+00
        -11   -1    0    0    0    0  0.00000000000E+00  0.00000000000E+00  0.45593999997E+02  0.45594000000E+02  0.51100000000E-03 0.  1.
         11   -1    0    0    0    0 -0.00000000000E+00 -0.00000000000E+00 -0.45593999997E+02  0.45594000000E+02  0.51100000000E-03 0. -1.
    9900012    2    1    2    0    0  0.61688480717E+01 -0.39849685153E+02  0.52070916735E+01  0.50528857153E+02  0.29999991803E+02 0.  0.
         12    1    1    2    0    0 -0.61688480717E+01  0.39849685153E+02 -0.52070916735E+01  0.40659142847E+02  0.00000000000E+00 0. -1.
         11    1    3    3    0    0 -0.87618774590E+01 -0.12656977178E+02  0.94157483734E+00  0.15422585105E+02  0.51100000000E-03 0. -1.
        -11    1    3    3    0    0  0.13912031761E+02 -0.89432733838E+01  0.27498552880E+01  0.16765693272E+02  0.51100000000E-03 0.  1.
        -12    1    3    3    0    0  0.10186937699E+01 -0.18249434592E+02  0.15156615481E+01  0.18340578776E+02  0.00000000000E+00 0.  1.
</event>
<event>
 7    1  0.2966651E-011  0.5052889E+02  0.7816164E-02  0.1300439E+00
        -11   -1    0    0    0    0  0.00000000000E+00  0.00000000000E+00  0.45593999997E+02  0.45594000000E+02  0.51100000000E-03 0. -1.
         11   -1    0    0    0    0 -0.00000000000E+00 -0.00000000000E+00 -0.45593999997E+02  0.45594000000E+02  0.51100000000E-03 0.  1.
    9900012    2    1    2    0    0 -0.31831360044E+02  0.13562187901E+02  0.21354042906E+02  0.50528885753E+02  0.30000078735E+02 0.  0.
         12    1    1    2    0    0  0.31831360044E+02 -0.13562187901E+02 -0.21354042906E+02  0.40659114247E+02  0.00000000000E+00 0. -1.
         11    1    3    3    0    0 -0.15868891814E+02  0.28387231698E+01  0.14812501674E+02  0.21892699302E+02  0.51100000000E-03 0. -1.
        -11    1    3    3    0    0  0.27297482497E+01  0.86441155122E+01  0.18359977008E+01  0.92489537956E+01  0.51100000000E-03 0.  1.
        -12    1    3    3    0    0 -0.18692216479E+02  0.20793492194E+01  0.47055435318E+01  0.19387232655E+02  0.00000000000E+00 0.  1.
</event>
<event>
 7    1  0.2966651E-011  0.5052887E+02  0.7816164E-02  0.1300439E+00
        -11   -1    0    0    0    0  0.00000000000E+00  0.00000000000E+00  0.45593999997E+02  0.45594000000E+02  0.51100000000E-03 0. -1.
         11   -1    0    0    0    0 -0.00000000000E+00 -0.00000000000E+00 -0.45593999997E+02  0.45594000000E+02  0.51100000000E-03 0.  1.
    9900012    2    1    2    0    0  0.19451915925E+02  0.23911819467E+02 -0.26514394268E+02  0.50528865150E+02  0.30000016109E+02 0.  0.
         12    1    1    2    0    0 -0.19451915925E+02 -0.23911819467E+02  0.26514394268E+02  0.40659134850E+02  0.00000000000E+00 0. -1.
         11    1    3    3    0    0  0.23014498551E+01 -0.60030903728E+00 -0.76467283358E+01  0.80080894649E+01  0.51100000000E-03 0. -1.
        -11    1    3    3    0    0  0.10766080778E+02  0.28084954465E+02 -0.11684007000E+02  0.32267463217E+02  0.51100000000E-03 0.  1.
        -12    1    3    3    0    0  0.63843852925E+01 -0.35728259613E+01 -0.71836589318E+01  0.10253312468E+02  0.00000000000E+00 0.  1.
</event>
<event>
 7    1  0.2966651E-011  0.5052885E+02  0.7816164E-02  0.1300439E+00
        -11   -1    0    0    0    0  0.00000000000E+00  0.00000000000E+00  0.45593999997E+02  0.45594000000E+02  0.51100000000E-03 0. -1.
         11   -1    0    0    0    0 -0.00000000000E+00 -0.00000000000E+00 -0.45593999997E+02  0.45594000000E+02  0.51100000000E-03 0.  1.
    9900012    2    1    2    0    0 -0.11184681158E+02 -0.11016065219E+02 -0.37506207189E+02  0.50528851420E+02  0.29999974376E+02 0.  0.
         12    1    1    2    0    0  0.11184681158E+02  0.11016065219E+02  0.37506207189E+02  0.40659148580E+02  0.00000000000E+00 0. -1.
         11    1    3    3    0    0 -0.36092946969E+01 -0.41454596288E+01 -0.20447959068E+01  0.58645574688E+01  0.51100000000E-03 0. -1.
        -11    1    3    3    0    0 -0.11981760891E+02 -0.33373128470E+00 -0.34738022290E+02  0.36747845699E+02  0.51100000000E-03 0.  1.
        -12    1    3    3    0    0  0.44063744292E+01 -0.65368743057E+01 -0.72338899278E+00  0.79164482525E+01  0.00000000000E+00 0.  1.
</event>
<event>
 7    1  0.2966651E-011  0.5052886E+02  0.7816164E-02  0.1300439E+00
        -11   -1    0    0    0    0  0.00000000000E+00  0.00000000000E+00  0.45593999997E+02  0.45594000000E+02  0.51100000000E-03 0. -1.
         11   -1    0    0    0    0 -0.00000000000E+00 -0.00000000000E+00 -0.45593999997E+02  0.45594000000E+02  0.51100000000E-03 0.  1.
    9900012    2    1    2    0    0  0.17624554418E+02  0.35826537341E+02 -0.76811474835E+01  0.50528859294E+02  0.29999998309E+02 0.  0.
         12    1    1    2    0    0 -0.17624554418E+02 -0.35826537341E+02  0.76811474835E+01  0.40659140706E+02  0.00000000000E+00 0. -1.
         11    1    3    3    0    0  0.40659174903E+01  0.31421490257E+00  0.24497464683E+00  0.40853921331E+01  0.51100000000E-03 0. -1.
        -11    1    3    3    0    0 -0.71083434435E+01  0.12843326804E+02  0.30540069671E+00  0.14682399659E+02  0.51100000000E-03 0.  1.
        -12    1    3    3    0    0  0.20666980372E+02  0.22668995635E+02 -0.82315228270E+01  0.31761067501E+02  0.00000000000E+00 0.  1.
</event>
<event>
 7    1  0.2966651E-011  0.5052887E+02  0.7816164E-02  0.1300439E+00
        -11   -1    0    0    0    0  0.00000000000E+00  0.00000000000E+00  0.45593999997E+02  0.45594000000E+02  0.51100000000E-03 0.  1.
         11   -1    0    0    0    0 -0.00000000000E+00 -0.00000000000E+00 -0.45593999997E+02  0.45594000000E+02  0.51100000000E-03 0. -1.
    9900012    2    1    2    0    0 -0.11840220561E+02  0.10039276024E+02  0.37579077278E+02  0.50528868983E+02  0.30000027760E+02 0.  0.
         12    1    1    2    0    0  0.11840220561E+02 -0.10039276024E+02 -0.37579077278E+02  0.40659131017E+02  0.00000000000E+00 0. -1.
         11    1    3    3    0    0 -0.12548370241E+01 -0.82816662238E+01  0.28759070065E+01  0.88561533845E+01  0.51100000000E-03 0. -1.
        -11    1    3    3    0    0  0.10111986113E+01  0.29611658468E+01  0.19600801566E+01  0.36922811763E+01  0.51100000000E-03 0.  1.
         12    1    3    3    0    0 -0.11596582148E+02  0.15359776401E+02  0.32743090115E+02  0.37980434422E+02  0.00000000000E+00 0. -1.
</event>
<event>
 7    1  0.2966651E-011  0.5052883E+02  0.7816164E-02  0.1300439E+00
        -11   -1    0    0    0    0  0.00000000000E+00  0.00000000000E+00  0.45593999997E+02  0.45594000000E+02  0.51100000000E-03 0. -1.
         11   -1    0    0    0    0 -0.00000000000E+00 -0.00000000000E+00 -0.45593999997E+02  0.45594000000E+02  0.51100000000E-03 0.  1.
    9900012    2    1    2    0    0 -0.31613110805E+02  0.22382759828E+02 -0.12360892571E+02  0.50528826651E+02  0.29999899087E+02 0.  0.
         12    1    1    2    0    0  0.31613110805E+02 -0.22382759828E+02  0.12360892571E+02  0.40659173349E+02  0.00000000000E+00 0. -1.
         11    1    3    3    0    0 -0.28197586885E+02  0.27864170454E+02 -0.50335354032E+01  0.39960635382E+02  0.51100000000E-03 0. -1.
        -11    1    3    3    0    0 -0.42799642331E+01 -0.44716283622E+01 -0.53268394786E+01  0.81663194365E+01  0.51100000000E-03 0.  1.
        -12    1    3    3    0    0  0.86444031258E+00 -0.10097822638E+01 -0.20005176895E+01  0.24018718326E+01  0.00000000000E+00 0.  1.
</event>
<event>
 7    1  0.2966651E-011  0.5052886E+02  0.7816164E-02  0.1300439E+00
        -11   -1    0    0    0    0  0.00000000000E+00  0.00000000000E+00  0.45593999997E+02  0.45594000000E+02  0.51100000000E-03 0.  1.
         11   -1    0    0    0    0 -0.00000000000E+00 -0.00000000000E+00 -0.45593999997E+02  0.45594000000E+02  0.51100000000E-03 0. -1.
    9900012    2    1    2    0    0 -0.20612102276E+02  0.29015936074E+02  0.19656602527E+02  0.50528864134E+02  0.30000013022E+02 0.  0.
         12    1    1    2    0    0  0.20612102276E+02 -0.29015936074E+02 -0.19656602527E+02  0.40659135866E+02  0.00000000000E+00 0. -1.
         11    1    3    3    0    0 -0.41896258726E+01  0.24961587071E+01  0.13543121635E+02  0.14394440493E+02  0.51100000000E-03 0. -1.
        -11    1    3    3    0    0 -0.18249423301E+02  0.20188925923E+02  0.93725447526E+01  0.28783307249E+02  0.51100000000E-03 0.  1.
         12    1    3    3    0    0  0.18269468984E+01  0.63308514432E+01 -0.32590638601E+01  0.73511163920E+01  0.00000000000E+00 0. -1.
</event>
<event>
 7    1  0.2966651E-011  0.5052886E+02  0.7816164E-02  0.1300439E+00
        -11   -1    0    0    0    0  0.00000000000E+00  0.00000000000E+00  0.45593999997E+02  0.45594000000E+02  0.51100000000E-03 0. -1.
         11   -1    0    0    0    0 -0.00000000000E+00 -0.00000000000E+00 -0.45593999997E+02  0.45594000000E+02  0.51100000000E-03 0.  1.
    9900012    2    1    2    0    0 -0.22315375280E+02  0.14992953723E+02 -0.30502475086E+02  0.50528860540E+02  0.30000002097E+02 0.  0.
         12    1    1    2    0    0  0.22315375280E+02 -0.14992953723E+02  0.30502475086E+02  0.40659139460E+02  0.00000000000E+00 0. -1.
         11    1    3    3    0    0 -0.78694450989E+01 -0.58469686373E+01 -0.12037993394E+02  0.15525092387E+02  0.51100000000E-03 0. -1.
        -11    1    3    3    0    0 -0.73083648157E+00  0.13038300940E+02 -0.12668939228E+02  0.18194324247E+02  0.51100000000E-03 0.  1.
        -12    1    3    3    0    0 -0.13715093700E+02  0.78016214199E+01 -0.57955424643E+01  0.16809443906E+02  0.00000000000E+00 0.  1.
</event>
<event>
 7    1  0.2966651E-011  0.5052887E+02  0.7816164E-02  0.1300439E+00
        -11   -1    0    0    0    0  0.00000000000E+00  0.00000000000E+00  0.45593999997E+02  0.45594000000E+02  0.51100000000E-03 0.  1.
         11   -1    0    0    0    0 -0.00000000000E+00 -0.00000000000E+00 -0.45593999997E+02  0.45594000000E+02  0.51100000000E-03 0. -1.
    9900012    2    1    2    0    0  0.15074948750E+02  0.20942746310E+02  0.31421525194E+02  0.50528868819E+02  0.30000027264E+02 0.  0.
         12    1    1    2    0    0 -0.15074948750E+02 -0.20942746310E+02 -0.31421525194E+02  0.40659131181E+02  0.00000000000E+00 0. -1.
         11    1    3    3    0    0  0.65294784192E+00  0.94511799695E+01  0.13145784237E+02  0.16203789284E+02  0.51100000000E-03 0. -1.
        -11    1    3    3    0    0  0.47779058633E+01 -0.65523829537E+01  0.24882943402E+01  0.84825536129E+01  0.51100000000E-03 0.  1.
        -12    1    3    3    0    0  0.96440950448E+01  0.18043949294E+02  0.15787446618E+02  0.25842525923E+02  0.00000000000E+00 0.  1.
</event>
<event>
 7    1  0.2966651E-011  0.5052887E+02  0.7816164E-02  0.1300439E+00
        -11   -1    0    0    0    0  0.00000000000E+00  0.00000000000E+00  0.45593999997E+02  0.45594000000E+02  0.51100000000E-03 0. -1.
         11   -1    0    0    0    0 -0.00000000000E+00 -0.00000000000E+00 -0.45593999997E+02  0.45594000000E+02  0.51100000000E-03 0.  1.
    9900012    2    1    2    0    0  0.34818151900E+02 -0.20255723483E+02 -0.55287466074E+01  0.50528867267E+02  0.30000022546E+02 0.  0.
         12    1    1    2    0    0 -0.34818151900E+02  0.20255723483E+02  0.55287466074E+01  0.40659132733E+02  0.00000000000E+00 0. -1.
         11    1    3    3    0    0  0.82926646698E+01 -0.10013837711E+02  0.96858712344E+01  0.16212998947E+02  0.51100000000E-03 0. -1.
        -11    1    3    3    0    0  0.15893226566E+02 -0.75961556066E+00 -0.46409920141E+01  0.16574392104E+02  0.51100000000E-03 0.  1.
         12    1    3    3    0    0  0.10632260663E+02 -0.94822702113E+01 -0.10573625828E+02  0.17741476216E+02  0.00000000000E+00 0. -1.
</event>
<event>
 7    1  0.2966651E-011  0.5052885E+02  0.7816164E-02  0.1300439E+00
        -11   -1    0    0    0    0  0.00000000000E+00  0.00000000000E+00  0.45593999997E+02  0.45594000000E+02  0.51100000000E-03 0. -1.
         11   -1    0    0    0    0 -0.00000000000E+00 -0.00000000000E+00 -0.45593999997E+02  0.45594000000E+02  0.51100000000E-03 0.  1.
    9900012    2    1    2    0    0 -0.12323826974E+02 -0.35848332762E+02 -0.14703284290E+02  0.50528852911E+02  0.29999978907E+02 0.  0.
         12    1    1    2    0    0  0.12323826974E+02  0.35848332762E+02  0.14703284290E+02  0.40659147089E+02  0.00000000000E+00 0. -1.
         11    1    3    3    0    0 -0.74135519341E+01 -0.80705530489E+01 -0.16623368307E+02  0.19910573897E+02  0.51100000000E-03 0. -1.
        -11    1    3    3    0    0 -0.80564772244E+01 -0.20830169414E+02  0.40534241044E+01  0.22698745126E+02  0.51100000000E-03 0.  1.
         12    1    3    3    0    0  0.31462021844E+01 -0.69476102996E+01 -0.21333400882E+01  0.79195338873E+01  0.00000000000E+00 0. -1.
</event>
<event>
 7    1  0.2966651E-011  0.5052886E+02  0.7816164E-02  0.1300439E+00
        -11   -1    0    0    0    0  0.00000000000E+00  0.00000000000E+00  0.45593999997E+02  0.45594000000E+02  0.51100000000E-03 0. -1.
         11   -1    0    0    0    0 -0.00000000000E+00 -0.00000000000E+00 -0.45593999997E+02  0.45594000000E+02  0.51100000000E-03 0.  1.
    9900012    2    1    2    0    0 -0.21837452123E+02 -0.32277164238E+02 -0.11596392502E+02  0.50528856311E+02  0.29999989243E+02 0.  0.
         12    1    1    2    0    0  0.21837452123E+02  0.32277164238E+02  0.11596392502E+02  0.40659143689E+02  0.00000000000E+00 0. -1.
         11    1    3    3    0    0 -0.23871275501E+01 -0.15128597510E+02 -0.25027065784E+01  0.15518903989E+02  0.51100000000E-03 0. -1.
        -11    1    3    3    0    0 -0.19040118308E+01  0.50459269759E+01 -0.38278868339E+00  0.54067705274E+01  0.51100000000E-03 0.  1.
        -12    1    3    3    0    0 -0.17546312743E+02 -0.22194493704E+02 -0.87108972401E+01  0.29603181794E+02  0.00000000000E+00 0.  1.
</event>
<event>
 7    1  0.2966651E-011  0.5052885E+02  0.7816164E-02  0.1300439E+00
        -11   -1    0    0    0    0  0.00000000000E+00  0.00000000000E+00  0.45593999997E+02  0.45594000000E+02  0.51100000000E-03 0.  1.
         11   -1    0    0    0    0 -0.00000000000E+00 -0.00000000000E+00 -0.45593999997E+02  0.45594000000E+02  0.51100000000E-03 0. -1.
    9900012    2    1    2    0    0 -0.28565368428E+02 -0.28787334572E+02 -0.29112410480E+01  0.50528853063E+02  0.29999979370E+02 0.  0.
         12    1    1    2    0    0  0.28565368428E+02  0.28787334572E+02  0.29112410480E+01  0.40659146937E+02  0.00000000000E+00 0. -1.
         11    1    3    3    0    0 -0.30086064660E+02 -0.17962012818E+02 -0.29576189529E+01  0.35164651304E+02  0.51100000000E-03 0. -1.
        -11    1    3    3    0    0 -0.22022097709E+01 -0.10514940993E+01  0.35729274499E+01  0.43267977234E+01  0.51100000000E-03 0.  1.
         12    1    3    3    0    0  0.37229060031E+01 -0.97738276552E+01 -0.35265495449E+01  0.11037404035E+02  0.00000000000E+00 0. -1.
</event>
<event>
 7    1  0.2966651E-011  0.5052888E+02  0.7816164E-02  0.1300439E+00
        -11   -1    0    0    0    0  0.00000000000E+00  0.00000000000E+00  0.45593999997E+02  0.45594000000E+02  0.51100000000E-03 0.  1.
         11   -1    0    0    0    0 -0.00000000000E+00 -0.00000000000E+00 -0.45593999997E+02  0.45594000000E+02  0.51100000000E-03 0. -1.
    9900012    2    1    2    0    0 -0.44644967046E+01  0.10717307807E+02  0.38966286597E+02  0.50528881605E+02  0.30000066128E+02 0.  0.
         12    1    1    2    0    0  0.44644967046E+01 -0.10717307807E+02 -0.38966286597E+02  0.40659118395E+02  0.00000000000E+00 0. -1.
         11    1    3    3    0    0 -0.86352920625E+01  0.28021527751E+01  0.20614500535E+01  0.93096673283E+01  0.51100000000E-03 0. -1.
        -11    1    3    3    0    0  0.10221484730E+02  0.64996586057E+01  0.23217942724E+02  0.26187729506E+02  0.51100000000E-03 0.  1.
        -12    1    3    3    0    0 -0.60506893717E+01  0.14154964258E+01  0.13686893819E+02  0.15031484771E+02  0.00000000000E+00 0.  1.
</event>
<event>
 7    1  0.2966651E-011  0.5052885E+02  0.7816164E-02  0.1300439E+00
        -11   -1    0    0    0    0  0.00000000000E+00  0.00000000000E+00  0.45593999997E+02  0.45594000000E+02  0.51100000000E-03 0.  1.
         11   -1    0    0    0    0 -0.00000000000E+00 -0.00000000000E+00 -0.45593999997E+02  0.45594000000E+02  0.51100000000E-03 0. -1.
    9900012    2    1    2    0    0 -0.15509216303E+02 -0.32658136490E+02 -0.18603137619E+02  0.50528850985E+02  0.29999973055E+02 0.  0.
         12    1    1    2    0    0  0.15509216303E+02  0.32658136490E+02  0.18603137619E+02  0.40659149015E+02  0.00000000000E+00 0. -1.
         11    1    3    3    0    0 -0.19036798550E+02 -0.31846830210E+02 -0.16186413705E+02  0.40479875029E+02  0.51100000000E-03 0. -1.
        -11    1    3    3    0    0  0.21950395238E+01  0.31119164498E+01  0.17338260265E+01  0.41843010710E+01  0.51100000000E-03 0.  1.
        -12    1    3    3    0    0  0.13325427239E+01 -0.39232227297E+01 -0.41505499408E+01  0.58646748851E+01  0.00000000000E+00 0.  1.
</event>
<event>
 7    1  0.2966651E-011  0.5052887E+02  0.7816164E-02  0.1300439E+00
        -11   -1    0    0    0    0  0.00000000000E+00  0.00000000000E+00  0.45593999997E+02  0.45594000000E+02  0.51100000000E-03 0.  1.
         11   -1    0    0    0    0 -0.00000000000E+00 -0.00000000000E+00 -0.45593999997E+02  0.45594000000E+02  0.51100000000E-03 0. -1.
    9900012    2    1    2    0    0  0.18793404785E+02  0.65352303858E+01  0.35457911699E+02  0.50528870624E+02  0.30000032748E+02 0.  0.
         12    1    1    2    0    0 -0.18793404785E+02 -0.65352303858E+01 -0.35457911699E+02  0.40659129376E+02  0.00000000000E+00 0. -1.
         11    1    3    3    0    0  0.15929384560E+02  0.14426864930E+02  0.17923521766E+02  0.27984502084E+02  0.51100000000E-03 0. -1.
        -11    1    3    3    0    0  0.48504830102E+01 -0.99368300054E+01  0.11993262785E+02  0.16312759683E+02  0.51100000000E-03 0.  1.
        -12    1    3    3    0    0 -0.19864627847E+01  0.20451954616E+01  0.55411271472E+01  0.62316088559E+01  0.00000000000E+00 0.  1.
</event>
<event>
 7    1  0.2966651E-011  0.5052886E+02  0.7816164E-02  0.1300439E+00
        -11   -1    0    0    0    0  0.00000000000E+00  0.00000000000E+00  0.45593999997E+02  0.45594000000E+02  0.51100000000E-03 0.  1.
         11   -1    0    0    0    0 -0.00000000000E+00 -0.00000000000E+00 -0.45593999997E+02  0.45594000000E+02  0.51100000000E-03 0. -1.
    9900012    2    1    2    0    0 -0.96984423707E+01 -0.30856696133E+02  0.24636761035E+02  0.50528862344E+02  0.30000007580E+02 0.  0.
         12    1    1    2    0    0  0.96984423707E+01  0.30856696133E+02 -0.24636761035E+02  0.40659137656E+02  0.00000000000E+00 0. -1.
         11    1    3    3    0    0 -0.13657332696E+02 -0.29872562123E+02  0.18408129655E+02  0.37653046913E+02  0.51100000000E-03 0. -1.
        -11    1    3    3    0    0  0.65863954996E+01 -0.17058123912E+01  0.86334060267E+00  0.68582620866E+01  0.51100000000E-03 0.  1.
        -12    1    3    3    0    0 -0.26275051745E+01  0.72167838135E+00  0.53652907766E+01  0.60175533438E+01  0.00000000000E+00 0.  1.
</event>
<event>
 7    1  0.2966651E-011  0.5052886E+02  0.7816164E-02  0.1300439E+00
        -11   -1    0    0    0    0  0.00000000000E+00  0.00000000000E+00  0.45593999997E+02  0.45594000000E+02  0.51100000000E-03 0. -1.
         11   -1    0    0    0    0 -0.00000000000E+00 -0.00000000000E+00 -0.45593999997E+02  0.45594000000E+02  0.51100000000E-03 0.  1.
    9900012    2    1    2    0    0 -0.11132071946E+02  0.37326062764E+02 -0.11662220096E+02  0.50528863698E+02  0.30000011696E+02 0.  0.
         12    1    1    2    0    0  0.11132071946E+02 -0.37326062764E+02  0.11662220096E+02  0.40659136302E+02  0.00000000000E+00 0. -1.
         11    1    3    3    0    0 -0.18045095795E+02  0.13757934543E+02 -0.49419574004E+01  0.23223462024E+02  0.51100000000E-03 0. -1.
        -11    1    3    3    0    0  0.86136246070E+01  0.21888185407E+02 -0.76585011566E+01  0.24737417600E+02  0.51100000000E-03 0.  1.
        -12    1    3    3    0    0 -0.17006007576E+01  0.16799428134E+01  0.93823846126E+00  0.25679840738E+01  0.00000000000E+00 0.  1.
</event>
<event>
 7    1  0.2966651E-011  0.5052886E+02  0.7816164E-02  0.1300439E+00
        -11   -1    0    0    0    0  0.00000000000E+00  0.00000000000E+00  0.45593999997E+02  0.45594000000E+02  0.51100000000E-03 0.  1.
         11   -1    0    0    0    0 -0.00000000000E+00 -0.00000000000E+00 -0.45593999997E+02  0.45594000000E+02  0.51100000000E-03 0. -1.
    9900012    2    1    2    0    0  0.16334102480E+02 -0.19362828021E+02  0.31803203740E+02  0.50528858581E+02  0.29999996144E+02 0.  0.
         12    1    1    2    0    0 -0.16334102480E+02  0.19362828021E+02 -0.31803203740E+02  0.40659141419E+02  0.00000000000E+00 0. -1.
         11    1    3    3    0    0 -0.28011967833E+01 -0.20603403546E+01  0.19463866965E+02  0.19772046512E+02  0.51100000000E-03 0. -1.
        -11    1    3    3    0    0  0.11676064508E+02 -0.66880292973E+01  0.11594533563E+02  0.17762134643E+02  0.51100000000E-03 0.  1.
         12    1    3    3    0    0  0.74592347546E+01 -0.10614458369E+02  0.74480321263E+00  0.12994677426E+02  0.00000000000E+00 0. -1.
</event>
<event>
 7    1  0.2966651E-011  0.5052886E+02  0.7816164E-02  0.1300439E+00
        -11   -1    0    0    0    0  0.00000000000E+00  0.00000000000E+00  0.45593999997E+02  0.45594000000E+02  0.51100000000E-03 0.  1.
         11   -1    0    0    0    0 -0.00000000000E+00 -0.00000000000E+00 -0.45593999997E+02  0.45594000000E+02  0.51100000000E-03 0. -1.
    9900012    2    1    2    0    0  0.19627292031E+02 -0.33641785158E+02 -0.11668995372E+02  0.50528858911E+02  0.29999997146E+02 0.  0.
         12    1    1    2    0    0 -0.19627292031E+02  0.33641785158E+02  0.11668995372E+02  0.40659141089E+02  0.00000000000E+00 0. -1.
         11    1    3    3    0    0 -0.39909671061E+01 -0.20947158930E+02 -0.96303142069E+01  0.23397740012E+02  0.51100000000E-03 0. -1.
        -11    1    3    3    0    0  0.14486027493E+02 -0.74638505516E+01 -0.29757100742E+01  0.16565292279E+02  0.51100000000E-03 0.  1.
         12    1    3    3    0    0  0.91322316442E+01 -0.52307756771E+01  0.93702890947E+00  0.10565826620E+02  0.00000000000E+00 0. -1.
</event>
<event>
 7    1  0.2966651E-011  0.5052887E+02  0.7816164E-02  0.1300439E+00
        -11   -1    0    0    0    0  0.00000000000E+00  0.00000000000E+00  0.45593999997E+02  0.45594000000E+02  0.51100000000E-03 0.  1.
         11   -1    0    0    0    0 -0.00000000000E+00 -0.00000000000E+00 -0.45593999997E+02  0.45594000000E+02  0.51100000000E-03 0. -1.
    9900012    2    1    2    0    0  0.35338185606E+01  0.17678924915E+02  0.36443551228E+02  0.50528872048E+02  0.30000037076E+02 0.  0.
         12    1    1    2    0    0 -0.35338185606E+01 -0.17678924915E+02 -0.36443551228E+02  0.40659127952E+02  0.00000000000E+00 0. -1.
         11    1    3    3    0    0 -0.44373634185E+01  0.19564270362E+02  0.12973110657E+02  0.23890426310E+02  0.51100000000E-03 0. -1.
        -11    1    3    3    0    0  0.55218281564E+01 -0.39738729803E+01  0.22129154562E+02  0.23151279329E+02  0.51100000000E-03 0.  1.
        -12    1    3    3    0    0  0.24493538227E+01  0.20885275327E+01  0.13412860088E+01  0.34871664086E+01  0.00000000000E+00 0.  1.
</event>
<event>
 7    1  0.2966651E-011  0.5052886E+02  0.7816164E-02  0.1300439E+00
        -11   -1    0    0    0    0  0.00000000000E+00  0.00000000000E+00  0.45593999997E+02  0.45594000000E+02  0.51100000000E-03 0.  1.
         11   -1    0    0    0    0 -0.00000000000E+00 -0.00000000000E+00 -0.45593999997E+02  0.45594000000E+02  0.51100000000E-03 0. -1.
    9900012    2    1    2    0    0 -0.25975130607E+02 -0.24967982096E+02  0.18842977024E+02  0.50528864211E+02  0.30000013255E+02 0.  0.
         12    1    1    2    0    0  0.25975130607E+02  0.24967982096E+02 -0.18842977024E+02  0.40659135789E+02  0.00000000000E+00 0. -1.
         11    1    3    3    0    0  0.29641100619E+01 -0.48519076661E+01 -0.12987976805E+01  0.58321378701E+01  0.51100000000E-03 0. -1.
        -11    1    3    3    0    0 -0.19652638800E+02 -0.22908993921E+02  0.14629651597E+02  0.33542136491E+02  0.51100000000E-03 0.  1.
        -12    1    3    3    0    0 -0.92866018689E+01  0.27929194916E+01  0.55121231079E+01  0.11154589850E+02  0.00000000000E+00 0.  1.
</event>
<event>
 7    1  0.2966651E-011  0.5052890E+02  0.7816164E-02  0.1300439E+00
        -11   -1    0    0    0    0  0.00000000000E+00  0.00000000000E+00  0.45593999997E+02  0.45594000000E+02  0.51100000000E-03 0.  1.
         11   -1    0    0    0    0 -0.00000000000E+00 -0.00000000000E+00 -0.45593999997E+02  0.45594000000E+02  0.51100000000E-03 0. -1.
    9900012    2    1    2    0    0  0.16615024506E+02 -0.31624517382E+02  0.19416315644E+02  0.50528899516E+02  0.30000120569E+02 0.  0.
         12    1    1    2    0    0 -0.16615024506E+02  0.31624517382E+02 -0.19416315644E+02  0.40659100484E+02  0.00000000000E+00 0. -1.
         11    1    3    3    0    0 -0.27055861925E+01 -0.48711708890E+01  0.82428588744E+01  0.99495339166E+01  0.51100000000E-03 0. -1.
        -11    1    3    3    0    0  0.13822890636E+02 -0.28412400068E+02  0.47304353650E+01  0.31948611898E+02  0.51100000000E-03 0.  1.
        -12    1    3    3    0    0  0.54977200622E+01  0.16590535751E+01  0.64430214042E+01  0.86307537019E+01  0.00000000000E+00 0.  1.
</event>
<event>
 7    1  0.2966651E-011  0.5052885E+02  0.7816164E-02  0.1300439E+00
        -11   -1    0    0    0    0  0.00000000000E+00  0.00000000000E+00  0.45593999997E+02  0.45594000000E+02  0.51100000000E-03 0.  1.
         11   -1    0    0    0    0 -0.00000000000E+00 -0.00000000000E+00 -0.45593999997E+02  0.45594000000E+02  0.51100000000E-03 0. -1.
    9900012    2    1    2    0    0  0.32247594037E+02 -0.50797792642E+01  0.24237466969E+02  0.50528852400E+02  0.29999977354E+02 0.  0.
         12    1    1    2    0    0 -0.32247594037E+02  0.50797792642E+01 -0.24237466969E+02  0.40659147600E+02  0.00000000000E+00 0. -1.
         11    1    3    3    0    0  0.23014794061E+02 -0.72628233732E+01  0.24329254152E+02  0.34268673112E+02  0.51100000000E-03 0.  1.
        -11    1    3    3    0    0 -0.15219937823E+01  0.13397692246E+01  0.41890992794E+01  0.46540304772E+01  0.51100000000E-03 0. -1.
         12    1    3    3    0    0  0.10754793758E+02  0.84327488439E+00 -0.42808864623E+01  0.11606148810E+02  0.00000000000E+00 0. -1.
</event>
<event>
 7    1  0.2966651E-011  0.5052886E+02  0.7816164E-02  0.1300439E+00
        -11   -1    0    0    0    0  0.00000000000E+00  0.00000000000E+00  0.45593999997E+02  0.45594000000E+02  0.51100000000E-03 0. -1.
         11   -1    0    0    0    0 -0.00000000000E+00 -0.00000000000E+00 -0.45593999997E+02  0.45594000000E+02  0.51100000000E-03 0.  1.
    9900012    2    1    2    0    0  0.27916844869E+02 -0.29314265770E+02  0.38064373491E+01  0.50528863630E+02  0.30000011489E+02 0.  0.
         12    1    1    2    0    0 -0.27916844869E+02  0.29314265770E+02 -0.38064373491E+01  0.40659136370E+02  0.00000000000E+00 0. -1.
         11    1    3    3    0    0  0.30822703773E+00  0.31015537814E+00 -0.19731644452E+00  0.47972315535E+00  0.51100000000E-03 0. -1.
        -11    1    3    3    0    0  0.10960140724E+02 -0.25952424599E+02 -0.78969668957E+01  0.29257735963E+02  0.51100000000E-03 0.  1.
        -12    1    3    3    0    0  0.16648477107E+02 -0.36719965496E+01  0.11900720689E+02  0.20791404512E+02  0.00000000000E+00 0.  1.
</event>
<event>
 7    1  0.2966651E-011  0.5052885E+02  0.7816164E-02  0.1300439E+00
        -11   -1    0    0    0    0  0.00000000000E+00  0.00000000000E+00  0.45593999997E+02  0.45594000000E+02  0.51100000000E-03 0. -1.
         11   -1    0    0    0    0 -0.00000000000E+00 -0.00000000000E+00 -0.45593999997E+02  0.45594000000E+02  0.51100000000E-03 0.  1.
    9900012    2    1    2    0    0  0.24242648252E+02  0.20129346892E+02 -0.25695709632E+02  0.50528854730E+02  0.29999984438E+02 0.  0.
         12    1    1    2    0    0 -0.24242648252E+02 -0.20129346892E+02  0.25695709632E+02  0.40659145270E+02  0.00000000000E+00 0. -1.
         11    1    3    3    0    0  0.16991760935E+02 -0.38280232910E+01 -0.59616898750E+01  0.18409656390E+02  0.51100000000E-03 0. -1.
        -11    1    3    3    0    0  0.69799749284E+01  0.17124992067E+02 -0.14828686640E+02  0.23703910037E+02  0.51100000000E-03 0.  1.
         12    1    3    3    0    0  0.27091238937E+00  0.68323781158E+01 -0.49053331165E+01  0.84152883031E+01  0.00000000000E+00 0. -1.
</event>
<event>
 7    1  0.2966651E-011  0.5052880E+02  0.7816164E-02  0.1300439E+00
        -11   -1    0    0    0    0  0.00000000000E+00  0.00000000000E+00  0.45593999997E+02  0.45594000000E+02  0.51100000000E-03 0.  1.
         11   -1    0    0    0    0 -0.00000000000E+00 -0.00000000000E+00 -0.45593999997E+02  0.45594000000E+02  0.51100000000E-03 0. -1.
    9900012    2    1    2    0    0 -0.69799131434E+01 -0.16034279503E+02  0.36706311459E+02  0.50528799225E+02  0.29999815725E+02 0.  0.
         12    1    1    2    0    0  0.69799131434E+01  0.16034279503E+02 -0.36706311459E+02  0.40659200775E+02  0.00000000000E+00 0. -1.
         11    1    3    3    0    0 -0.24892638070E+01  0.49524927008E+01  0.72159138496E+00  0.55896612277E+01  0.51100000000E-03 0. -1.
        -11    1    3    3    0    0  0.60124515263E+01 -0.10217085035E+02  0.16737182984E+02  0.20510282652E+02  0.51100000000E-03 0.  1.
        -12    1    3    3    0    0 -0.10503100863E+02 -0.10769687169E+02  0.19247537091E+02  0.24428855346E+02  0.00000000000E+00 0.  1.
</event>
<event>
 7    1  0.2966651E-011  0.5052890E+02  0.7816164E-02  0.1300439E+00
        -11   -1    0    0    0    0  0.00000000000E+00  0.00000000000E+00  0.45593999997E+02  0.45594000000E+02  0.51100000000E-03 0.  1.
         11   -1    0    0    0    0 -0.00000000000E+00 -0.00000000000E+00 -0.45593999997E+02  0.45594000000E+02  0.51100000000E-03 0. -1.
    9900012    2    1    2    0    0 -0.39925659711E+02  0.48946562947E+01 -0.59284632979E+01  0.50528897198E+02  0.30000113522E+02 0.  0.
         12    1    1    2    0    0  0.39925659711E+02 -0.48946562947E+01  0.59284632979E+01  0.40659102802E+02  0.00000000000E+00 0. -1.
         11    1    3    3    0    0  0.58397364469E+00  0.30546868481E+01 -0.74949271216E+01  0.81145591240E+01  0.51100000000E-03 0. -1.
        -11    1    3    3    0    0 -0.33063106390E+02  0.14213996729E+00 -0.35013787416E+01  0.33248291104E+02  0.51100000000E-03 0.  1.
         12    1    3    3    0    0 -0.74465269654E+01  0.16978294794E+01  0.50678425654E+01  0.91660469700E+01  0.00000000000E+00 0. -1.
</event>
<event>
 7    1  0.2966651E-011  0.5052886E+02  0.7816164E-02  0.1300439E+00
        -11   -1    0    0    0    0  0.00000000000E+00  0.00000000000E+00  0.45593999997E+02  0.45594000000E+02  0.51100000000E-03 0.  1.
         11   -1    0    0    0    0 -0.00000000000E+00 -0.00000000000E+00 -0.45593999997E+02  0.45594000000E+02  0.51100000000E-03 0. -1.
    9900012    2    1    2    0    0  0.12659487599E+01 -0.65801186574E+01  0.40103180860E+02  0.50528859541E+02  0.29999999060E+02 0.  0.
         12    1    1    2    0    0 -0.12659487599E+01  0.65801186574E+01 -0.40103180860E+02  0.40659140459E+02  0.00000000000E+00 0. -1.
         11    1    3    3    0    0 -0.16135584560E+01 -0.55283564438E+01 -0.22832305715E+01  0.61951140397E+01  0.51100000000E-03 0. -1.
        -11    1    3    3    0    0  0.73023685069E+01  0.13324583555E+01  0.18682036753E+02  0.20102699535E+02  0.51100000000E-03 0.  1.
         12    1    3    3    0    0 -0.44228612910E+01 -0.23842205691E+01  0.23704374678E+02  0.24231045966E+02  0.00000000000E+00 0. -1.
</event>
<event>
 7    1  0.2966651E-011  0.5052887E+02  0.7816164E-02  0.1300439E+00
        -11   -1    0    0    0    0  0.00000000000E+00  0.00000000000E+00  0.45593999997E+02  0.45594000000E+02  0.51100000000E-03 0. -1.
         11   -1    0    0    0    0 -0.00000000000E+00 -0.00000000000E+00 -0.45593999997E+02  0.45594000000E+02  0.51100000000E-03 0.  1.
    9900012    2    1    2    0    0  0.20271291849E+01  0.11085434375E+02 -0.39066214820E+02  0.50528865130E+02  0.30000016050E+02 0.  0.
         12    1    1    2    0    0 -0.20271291849E+01 -0.11085434375E+02  0.39066214820E+02  0.40659134870E+02  0.00000000000E+00 0. -1.
         11    1    3    3    0    0 -0.67681940139E+01 -0.12678981060E+01  0.96270495539E+00  0.69528998920E+01  0.51100000000E-03 0. -1.
        -11    1    3    3    0    0  0.75180258028E+01  0.11452698469E+02 -0.39674740201E+02  0.41973444277E+02  0.51100000000E-03 0.  1.
        -12    1    3    3    0    0  0.12772973959E+01  0.90063401183E+00 -0.35417957441E+00  0.16025209614E+01  0.00000000000E+00 0.  1.
</event>
<event>
 7    1  0.2966651E-011  0.5052886E+02  0.7816164E-02  0.1300439E+00
        -11   -1    0    0    0    0  0.00000000000E+00  0.00000000000E+00  0.45593999997E+02  0.45594000000E+02  0.51100000000E-03 0.  1.
         11   -1    0    0    0    0 -0.00000000000E+00 -0.00000000000E+00 -0.45593999997E+02  0.45594000000E+02  0.51100000000E-03 0. -1.
    9900012    2    1    2    0    0  0.17356113869E+02  0.16672160690E+02  0.32771484489E+02  0.50528858023E+02  0.29999994447E+02 0.  0.
         12    1    1    2    0    0 -0.17356113869E+02 -0.16672160690E+02 -0.32771484489E+02  0.40659141977E+02  0.00000000000E+00 0. -1.
         11    1    3    3    0    0  0.90525277571E+01 -0.76866947860E+01  0.92709759180E+01  0.15066005783E+02  0.51100000000E-03 0. -1.
        -11    1    3    3    0    0 -0.62236295820E+00  0.39273144590E+01  0.18541275467E+01  0.43873595398E+01  0.51100000000E-03 0.  1.
         12    1    3    3    0    0  0.89259490697E+01  0.20431541017E+02  0.21646381024E+02  0.31075492700E+02  0.00000000000E+00 0. -1.
</event>
<event>
 7    1  0.2966651E-011  0.5052885E+02  0.7816164E-02  0.1300439E+00
        -11   -1    0    0    0    0  0.00000000000E+00  0.00000000000E+00  0.45593999997E+02  0.45594000000E+02  0.51100000000E-03 0.  1.
         11   -1    0    0    0    0 -0.00000000000E+00 -0.00000000000E+00 -0.45593999997E+02  0.45594000000E+02  0.51100000000E-03 0. -1.
    9900012    2    1    2    0    0 -0.23797926952E+02  0.34882229524E+01  0.32781966883E+02  0.50528851223E+02  0.29999973777E+02 0.  0.
         12    1    1    2    0    0  0.23797926952E+02 -0.34882229524E+01 -0.32781966883E+02  0.40659148777E+02  0.00000000000E+00 0. -1.
         11    1    3    3    0    0  0.62592118854E+00 -0.22969663299E+01 -0.59424834186E+00  0.24537650678E+01  0.51100000000E-03 0. -1.
        -11    1    3    3    0    0 -0.26800290559E+02  0.44248711456E+01  0.35435632932E+02  0.44648842542E+02  0.51100000000E-03 0.  1.
        -12    1    3    3    0    0  0.23764424191E+01  0.13603181367E+01 -0.20594177075E+01  0.34262436134E+01  0.00000000000E+00 0.  1.
</event>
<event>
 7    1  0.2966651E-011  0.5052886E+02  0.7816164E-02  0.1300439E+00
        -11   -1    0    0    0    0  0.00000000000E+00  0.00000000000E+00  0.45593999997E+02  0.45594000000E+02  0.51100000000E-03 0.  1.
         11   -1    0    0    0    0 -0.00000000000E+00 -0.00000000000E+00 -0.45593999997E+02  0.45594000000E+02  0.51100000000E-03 0. -1.
    9900012    2    1    2    0    0 -0.20254017587E+02 -0.34263353618E+02 -0.83043855587E+01  0.50528862662E+02  0.30000008547E+02 0.  0.
         12    1    1    2    0    0  0.20254017587E+02  0.34263353618E+02  0.83043855587E+01  0.40659137338E+02  0.00000000000E+00 0. -1.
         11    1    3    3    0    0 -0.75787413900E+01  0.16823352739E+01 -0.50436276141E+01  0.92577401563E+01  0.51100000000E-03 0. -1.
        -11    1    3    3    0    0 -0.14630215696E+02 -0.22798310305E+02 -0.58896224114E+01  0.27721721023E+02  0.51100000000E-03 0.  1.
         12    1    3    3    0    0  0.19549394989E+01 -0.13147378587E+02  0.26288644667E+01  0.13549401482E+02  0.00000000000E+00 0. -1.
</event>
<event>
 7    1  0.2966651E-011  0.5052886E+02  0.7816164E-02  0.1300439E+00
        -11   -1    0    0    0    0  0.00000000000E+00  0.00000000000E+00  0.45593999997E+02  0.45594000000E+02  0.51100000000E-03 0.  1.
         11   -1    0    0    0    0 -0.00000000000E+00 -0.00000000000E+00 -0.45593999997E+02  0.45594000000E+02  0.51100000000E-03 0. -1.
    9900012    2    1    2    0    0 -0.27571816870E+02 -0.25935106289E+02  0.14843544683E+02  0.50528860283E+02  0.30000001317E+02 0.  0.
         12    1    1    2    0    0  0.27571816870E+02  0.25935106289E+02 -0.14843544683E+02  0.40659139717E+02  0.00000000000E+00 0. -1.
         11    1    3    3    0    0  0.14792162931E+01  0.12711993432E+01 -0.28301938963E+01  0.34371538173E+01  0.51100000000E-03 0. -1.
        -11    1    3    3    0    0 -0.19512939232E+02 -0.20625620767E+02  0.20673068597E+02  0.35121884844E+02  0.51100000000E-03 0.  1.
        -12    1    3    3    0    0 -0.95380939305E+01 -0.65806848650E+01 -0.29993300169E+01  0.11969821622E+02  0.00000000000E+00 0.  1.
</event>
<event>
 7    1  0.2966651E-011  0.5052885E+02  0.7816164E-02  0.1300439E+00
        -11   -1    0    0    0    0  0.00000000000E+00  0.00000000000E+00  0.45593999997E+02  0.45594000000E+02  0.51100000000E-03 0.  1.
         11   -1    0    0    0    0 -0.00000000000E+00 -0.00000000000E+00 -0.45593999997E+02  0.45594000000E+02  0.51100000000E-03 0. -1.
    9900012    2    1    2    0    0  0.21798426453E+02  0.34308473651E+02  0.96105851654E+00  0.50528851047E+02  0.29999973243E+02 0.  0.
         12    1    1    2    0    0 -0.21798426453E+02 -0.34308473651E+02 -0.96105851654E+00  0.40659148953E+02  0.00000000000E+00 0. -1.
         11    1    3    3    0    0 -0.40966737100E+01  0.86116998946E+01  0.15719442933E+00  0.95377576458E+01  0.51100000000E-03 0. -1.
        -11    1    3    3    0    0  0.17455832411E+02  0.43632663867E+01 -0.63322712981E+00  0.18004031648E+02  0.51100000000E-03 0.  1.
        -12    1    3    3    0    0  0.84392677526E+01  0.21333507370E+02  0.14370912170E+01  0.22987061754E+02  0.00000000000E+00 0.  1.
</event>
<event>
 7    1  0.2966651E-011  0.5052886E+02  0.7816164E-02  0.1300439E+00
        -11   -1    0    0    0    0  0.00000000000E+00  0.00000000000E+00  0.45593999997E+02  0.45594000000E+02  0.51100000000E-03 0.  1.
         11   -1    0    0    0    0 -0.00000000000E+00 -0.00000000000E+00 -0.45593999997E+02  0.45594000000E+02  0.51100000000E-03 0. -1.
    9900012    2    1    2    0    0  0.10925587076E+02  0.78124601523E+00  0.39155932644E+02  0.50528857615E+02  0.29999993205E+02 0.  0.
         12    1    1    2    0    0 -0.10925587076E+02 -0.78124601523E+00 -0.39155932644E+02  0.40659142385E+02  0.00000000000E+00 0. -1.
         11    1    3    3    0    0  0.12878008302E+01 -0.63657770287E+01  0.65303012727E+01  0.92101239476E+01  0.51100000000E-03 0. -1.
        -11    1    3    3    0    0  0.10970742936E+02  0.42037480305E+01  0.38515055859E+01  0.12363769394E+02  0.51100000000E-03 0.  1.
        -12    1    3    3    0    0 -0.13329566907E+01  0.29432750135E+01  0.28774125786E+02  0.28954964273E+02  0.00000000000E+00 0.  1.
</event>
<event>
 7    1  0.2966651E-011  0.5052885E+02  0.7816164E-02  0.1300439E+00
        -11   -1    0    0    0    0  0.00000000000E+00  0.00000000000E+00  0.45593999997E+02  0.45594000000E+02  0.51100000000E-03 0.  1.
         11   -1    0    0    0    0 -0.00000000000E+00 -0.00000000000E+00 -0.45593999997E+02  0.45594000000E+02  0.51100000000E-03 0. -1.
    9900012    2    1    2    0    0  0.39557382775E+02  0.69029991669E+01 -0.63818792290E+01  0.50528852050E+02  0.29999976292E+02 0.  0.
         12    1    1    2    0    0 -0.39557382775E+02 -0.69029991669E+01  0.63818792290E+01  0.40659147950E+02  0.00000000000E+00 0. -1.
         11    1    3    3    0    0  0.25805674647E+02 -0.31070010396E+01 -0.14799920647E+02  0.29910264975E+02  0.51100000000E-03 0. -1.
        -11    1    3    3    0    0  0.74810483740E+01  0.70719986142E+00  0.24050019177E+01  0.78898828194E+01  0.51100000000E-03 0.  1.
         12    1    3    3    0    0  0.62706597539E+01  0.93028003451E+01  0.60130395001E+01  0.12728704256E+02  0.00000000000E+00 0. -1.
</event>
<event>
 7    1  0.2966651E-011  0.5052886E+02  0.7816164E-02  0.1300439E+00
        -11   -1    0    0    0    0  0.00000000000E+00  0.00000000000E+00  0.45593999997E+02  0.45594000000E+02  0.51100000000E-03 0. -1.
         11   -1    0    0    0    0 -0.00000000000E+00 -0.00000000000E+00 -0.45593999997E+02  0.45594000000E+02  0.51100000000E-03 0.  1.
    9900012    2    1    2    0    0 -0.14730678117E+02  0.13938677195E+02 -0.35240404298E+02  0.50528859640E+02  0.29999999360E+02 0.  0.
         12    1    1    2    0    0  0.14730678117E+02 -0.13938677195E+02  0.35240404298E+02  0.40659140360E+02  0.00000000000E+00 0. -1.
         11    1    3    3    0    0 -0.26983628293E+01  0.18807747007E+02 -0.12724831674E+02  0.22867746956E+02  0.51100000000E-03 0. -1.
        -11    1    3    3    0    0 -0.11033083893E+02  0.65122920538E-01 -0.15355306351E+02  0.18908162644E+02  0.51100000000E-03 0.  1.
         12    1    3    3    0    0 -0.99923139517E+00 -0.49341927321E+01 -0.71602662731E+01  0.87529500399E+01  0.00000000000E+00 0. -1.
</event>
<event>
 7    1  0.2966651E-011  0.5052885E+02  0.7816164E-02  0.1300439E+00
        -11   -1    0    0    0    0  0.00000000000E+00  0.00000000000E+00  0.45593999997E+02  0.45594000000E+02  0.51100000000E-03 0.  1.
         11   -1    0    0    0    0 -0.00000000000E+00 -0.00000000000E+00 -0.45593999997E+02  0.45594000000E+02  0.51100000000E-03 0. -1.
    9900012    2    1    2    0    0  0.15244092390E+02 -0.22706902657E+02  0.30086215246E+02  0.50528854302E+02  0.29999983137E+02 0.  0.
         12    1    1    2    0    0 -0.15244092390E+02  0.22706902657E+02 -0.30086215246E+02  0.40659145698E+02  0.00000000000E+00 0. -1.
         11    1    3    3    0    0  0.12654284540E+02 -0.23758856507E+02  0.12098748862E+02  0.29512605850E+02  0.51100000000E-03 0. -1.
        -11    1    3    3    0    0  0.60332697421E+01 -0.19062301421E+01  0.10674119232E+02  0.12408500263E+02  0.51100000000E-03 0.  1.
         12    1    3    3    0    0 -0.34434618921E+01  0.29581839925E+01  0.73133471517E+01  0.86077481897E+01  0.00000000000E+00 0. -1.
</event>
<event>
 7    1  0.2966651E-011  0.5052886E+02  0.7816164E-02  0.1300439E+00
        -11   -1    0    0    0    0  0.00000000000E+00  0.00000000000E+00  0.45593999997E+02  0.45594000000E+02  0.51100000000E-03 0.  1.
         11   -1    0    0    0    0 -0.00000000000E+00 -0.00000000000E+00 -0.45593999997E+02  0.45594000000E+02  0.51100000000E-03 0. -1.
    9900012    2    1    2    0    0 -0.30648318989E+02  0.22042283943E+02 -0.15099123281E+02  0.50528864961E+02  0.30000015534E+02 0.  0.
         12    1    1    2    0    0  0.30648318989E+02 -0.22042283943E+02  0.15099123281E+02  0.40659135039E+02  0.00000000000E+00 0. -1.
         11    1    3    3    0    0 -0.76362159834E+00  0.73273082447E+01 -0.14632353491E+02  0.16382256651E+02  0.51100000000E-03 0. -1.
        -11    1    3    3    0    0 -0.55563137758E+01  0.60001126457E+01 -0.13550131648E+01  0.82891516740E+01  0.51100000000E-03 0.  1.
         12    1    3    3    0    0 -0.24328383615E+02  0.87148630530E+01  0.88824337478E+00  0.25857456635E+02  0.00000000000E+00 0. -1.
</event>
<event>
 7    1  0.2966651E-011  0.5052887E+02  0.7816164E-02  0.1300439E+00
        -11   -1    0    0    0    0  0.00000000000E+00  0.00000000000E+00  0.45593999997E+02  0.45594000000E+02  0.51100000000E-03 0.  1.
         11   -1    0    0    0    0 -0.00000000000E+00 -0.00000000000E+00 -0.45593999997E+02  0.45594000000E+02  0.51100000000E-03 0. -1.
    9900012    2    1    2    0    0 -0.10998374955E+02  0.35069229244E+02  0.17388206194E+02  0.50528870570E+02  0.30000032584E+02 0.  0.
         12    1    1    2    0    0  0.10998374955E+02 -0.35069229244E+02 -0.17388206194E+02  0.40659129430E+02  0.00000000000E+00 0. -1.
         11    1    3    3    0    0 -0.12046360679E+02  0.12185354945E+02  0.15025787346E+01  0.17200448362E+02  0.51100000000E-03 0. -1.
        -11    1    3    3    0    0  0.55123974470E+01  0.22835536894E+02  0.90719891608E+01  0.25182320355E+02  0.51100000000E-03 0.  1.
        -12    1    3    3    0    0 -0.44644117225E+01  0.48337404524E-01  0.68136382983E+01  0.81461018526E+01  0.00000000000E+00 0.  1.
</event>
<event>
 7    1  0.2966651E-011  0.5052884E+02  0.7816164E-02  0.1300439E+00
        -11   -1    0    0    0    0  0.00000000000E+00  0.00000000000E+00  0.45593999997E+02  0.45594000000E+02  0.51100000000E-03 0. -1.
         11   -1    0    0    0    0 -0.00000000000E+00 -0.00000000000E+00 -0.45593999997E+02  0.45594000000E+02  0.51100000000E-03 0.  1.
    9900012    2    1    2    0    0 -0.95152336899E+01  0.11660834080E+02 -0.37771054551E+02  0.50528840079E+02  0.29999939903E+02 0.  0.
         12    1    1    2    0    0  0.95152336899E+01 -0.11660834080E+02  0.37771054551E+02  0.40659159921E+02  0.00000000000E+00 0. -1.
         11    1    3    3    0    0 -0.32745942993E+01  0.12558142604E+02 -0.12311488681E+02  0.17888618373E+02  0.51100000000E-03 0. -1.
        -11    1    3    3    0    0  0.50148519348E+01 -0.61446910818E+00 -0.18998932399E+02  0.19659240697E+02  0.51100000000E-03 0.  1.
        -12    1    3    3    0    0 -0.11255491325E+02 -0.28283941548E+00 -0.64606334706E+01  0.12980981009E+02  0.00000000000E+00 0.  1.
</event>
<event>
 7    1  0.2966651E-011  0.5052881E+02  0.7816164E-02  0.1300439E+00
        -11   -1    0    0    0    0  0.00000000000E+00  0.00000000000E+00  0.45593999997E+02  0.45594000000E+02  0.51100000000E-03 0.  1.
         11   -1    0    0    0    0 -0.00000000000E+00 -0.00000000000E+00 -0.45593999997E+02  0.45594000000E+02  0.51100000000E-03 0. -1.
    9900012    2    1    2    0    0 -0.32789062399E+02 -0.65394506243E+01  0.23136183501E+02  0.50528806520E+02  0.29999837898E+02 0.  0.
         12    1    1    2    0    0  0.32789062399E+02  0.65394506243E+01 -0.23136183501E+02  0.40659193480E+02  0.00000000000E+00 0. -1.
         11    1    3    3    0    0  0.27383147507E+01 -0.60882234074E+01  0.11023074715E+02  0.12886931690E+02  0.51100000000E-03 0. -1.
        -11    1    3    3    0    0 -0.12008975237E+02  0.10292911915E+01  0.47224718840E+01  0.12945140692E+02  0.51100000000E-03 0.  1.
         12    1    3    3    0    0 -0.23518401913E+02 -0.14805184084E+01  0.73906369015E+01  0.24696734138E+02  0.00000000000E+00 0. -1.
</event>
<event>
 7    1  0.2966651E-011  0.5052883E+02  0.7816164E-02  0.1300439E+00
        -11   -1    0    0    0    0  0.00000000000E+00  0.00000000000E+00  0.45593999997E+02  0.45594000000E+02  0.51100000000E-03 0.  1.
         11   -1    0    0    0    0 -0.00000000000E+00 -0.00000000000E+00 -0.45593999997E+02  0.45594000000E+02  0.51100000000E-03 0. -1.
    9900012    2    1    2    0    0 -0.33034354227E+02  0.23017518340E+02 -0.56651013658E+01  0.50528830269E+02  0.29999910086E+02 0.  0.
         12    1    1    2    0    0  0.33034354227E+02 -0.23017518340E+02  0.56651013658E+01  0.40659169731E+02  0.00000000000E+00 0. -1.
         11    1    3    3    0    0 -0.14583086109E+02  0.26600574221E+02 -0.74291090043E+00  0.30344832611E+02  0.51100000000E-03 0. -1.
        -11    1    3    3    0    0 -0.10729428988E+02  0.68457826720E+00 -0.27888304615E+01  0.11107063943E+02  0.51100000000E-03 0.  1.
         12    1    3    3    0    0 -0.77218391297E+01 -0.42676341478E+01 -0.21333600039E+01  0.90769337152E+01  0.00000000000E+00 0. -1.
</event>
<event>
 7    1  0.2966651E-011  0.5052884E+02  0.7816164E-02  0.1300439E+00
        -11   -1    0    0    0    0  0.00000000000E+00  0.00000000000E+00  0.45593999997E+02  0.45594000000E+02  0.51100000000E-03 0. -1.
         11   -1    0    0    0    0 -0.00000000000E+00 -0.00000000000E+00 -0.45593999997E+02  0.45594000000E+02  0.51100000000E-03 0.  1.
    9900012    2    1    2    0    0 -0.13387037102E+02  0.24340079173E+02 -0.29690316456E+02  0.50528842264E+02  0.29999946546E+02 0.  0.
         12    1    1    2    0    0  0.13387037102E+02 -0.24340079173E+02  0.29690316456E+02  0.40659157736E+02  0.00000000000E+00 0. -1.
         11    1    3    3    0    0  0.54422864408E+01  0.17408254277E+02 -0.76637825442E+01  0.19783815654E+02  0.51100000000E-03 0. -1.
        -11    1    3    3    0    0 -0.48408672867E+01  0.54623820505E+01 -0.88540194282E+01  0.11474548969E+02  0.51100000000E-03 0.  1.
         12    1    3    3    0    0 -0.13988456256E+02  0.14694428458E+01 -0.13172514484E+02  0.19270477641E+02  0.00000000000E+00 0. -1.
</event>
<event>
 7    1  0.2966651E-011  0.5052886E+02  0.7816164E-02  0.1300439E+00
        -11   -1    0    0    0    0  0.00000000000E+00  0.00000000000E+00  0.45593999997E+02  0.45594000000E+02  0.51100000000E-03 0. -1.
         11   -1    0    0    0    0 -0.00000000000E+00 -0.00000000000E+00 -0.45593999997E+02  0.45594000000E+02  0.51100000000E-03 0.  1.
    9900012    2    1    2    0    0  0.36227566928E+02 -0.29600602380E+01 -0.18219967685E+02  0.50528858536E+02  0.29999996005E+02 0.  0.
         12    1    1    2    0    0 -0.36227566928E+02  0.29600602380E+01  0.18219967685E+02  0.40659141464E+02  0.00000000000E+00 0. -1.
         11    1    3    3    0    0  0.18214549708E+01 -0.90792203892E+01 -0.33443393538E+01  0.98455343715E+01  0.51100000000E-03 0. -1.
        -11    1    3    3    0    0  0.13141092703E+02  0.46253274467E+01  0.12014515954E+01  0.13983041787E+02  0.51100000000E-03 0.  1.
        -12    1    3    3    0    0  0.21265019255E+02  0.14938327045E+01 -0.16077079927E+02  0.26700282377E+02  0.00000000000E+00 0.  1.
</event>
<event>
 7    1  0.2966651E-011  0.5052885E+02  0.7816164E-02  0.1300439E+00
        -11   -1    0    0    0    0  0.00000000000E+00  0.00000000000E+00  0.45593999997E+02  0.45594000000E+02  0.51100000000E-03 0. -1.
         11   -1    0    0    0    0 -0.00000000000E+00 -0.00000000000E+00 -0.45593999997E+02  0.45594000000E+02  0.51100000000E-03 0.  1.
    9900012    2    1    2    0    0  0.17047603333E+02  0.26344324987E+02 -0.25855796898E+02  0.50528850087E+02  0.29999970323E+02 0.  0.
         12    1    1    2    0    0 -0.17047603333E+02 -0.26344324987E+02  0.25855796898E+02  0.40659149913E+02  0.00000000000E+00 0. -1.
         11    1    3    3    0    0 -0.67977846728E+01 -0.34212230169E+00 -0.67223349492E+01  0.95664367220E+01  0.51100000000E-03 0. -1.
        -11    1    3    3    0    0  0.89205067865E+01  0.12029666880E+02 -0.10710484807E+02  0.18412028993E+02  0.51100000000E-03 0.  1.
         12    1    3    3    0    0  0.14924881219E+02  0.14656780409E+02 -0.84229771418E+01  0.22550384371E+02  0.00000000000E+00 0. -1.
</event>
<event>
 7    1  0.2966651E-011  0.5052886E+02  0.7816164E-02  0.1300439E+00
        -11   -1    0    0    0    0  0.00000000000E+00  0.00000000000E+00  0.45593999997E+02  0.45594000000E+02  0.51100000000E-03 0.  1.
         11   -1    0    0    0    0 -0.00000000000E+00 -0.00000000000E+00 -0.45593999997E+02  0.45594000000E+02  0.51100000000E-03 0. -1.
    9900012    2    1    2    0    0 -0.20089402113E+01  0.11786251200E+02  0.38861478411E+02  0.50528855119E+02  0.29999985620E+02 0.  0.
         12    1    1    2    0    0  0.20089402113E+01 -0.11786251200E+02 -0.38861478411E+02  0.40659144881E+02  0.00000000000E+00 0. -1.
         11    1    3    3    0    0 -0.41582223355E+01 -0.17333338087E+01  0.28600702486E+01  0.53362216194E+01  0.51100000000E-03 0. -1.
        -11    1    3    3    0    0  0.36691785584E+01  0.11787042027E+02  0.38109489916E+01  0.12919774128E+02  0.51100000000E-03 0.  1.
        -12    1    3    3    0    0 -0.15198964342E+01  0.17325429810E+01  0.32190459171E+02  0.32272859371E+02  0.00000000000E+00 0.  1.
</event>
<event>
 7    1  0.2966651E-011  0.5052888E+02  0.7816164E-02  0.1300439E+00
        -11   -1    0    0    0    0  0.00000000000E+00  0.00000000000E+00  0.45593999997E+02  0.45594000000E+02  0.51100000000E-03 0.  1.
         11   -1    0    0    0    0 -0.00000000000E+00 -0.00000000000E+00 -0.45593999997E+02  0.45594000000E+02  0.51100000000E-03 0. -1.
    9900012    2    1    2    0    0  0.15805146608E+02  0.32409492712E+02 -0.18787926452E+02  0.50528879775E+02  0.30000060563E+02 0.  0.
         12    1    1    2    0    0 -0.15805146608E+02 -0.32409492712E+02  0.18787926452E+02  0.40659120225E+02  0.00000000000E+00 0. -1.
         11    1    3    3    0    0  0.92205698948E+01  0.16514712728E+02 -0.21916043309E+02  0.28949397235E+02  0.51100000000E-03 0. -1.
        -11    1    3    3    0    0 -0.16785593681E+01  0.11271990485E+01  0.41605348106E+01  0.46258177027E+01  0.51100000000E-03 0.  1.
        -12    1    3    3    0    0  0.82631360816E+01  0.14767580935E+02 -0.10324179534E+01  0.16953664837E+02  0.00000000000E+00 0.  1.
</event>
<event>
 7    1  0.2966651E-011  0.5052885E+02  0.7816164E-02  0.1300439E+00
        -11   -1    0    0    0    0  0.00000000000E+00  0.00000000000E+00  0.45593999997E+02  0.45594000000E+02  0.51100000000E-03 0.  1.
         11   -1    0    0    0    0 -0.00000000000E+00 -0.00000000000E+00 -0.45593999997E+02  0.45594000000E+02  0.51100000000E-03 0. -1.
    9900012    2    1    2    0    0 -0.72753746308E+01  0.25388013404E+02  0.30914143717E+02  0.50528848725E+02  0.29999966185E+02 0.  0.
         12    1    1    2    0    0  0.72753746308E+01 -0.25388013404E+02 -0.30914143717E+02  0.40659151275E+02  0.00000000000E+00 0. -1.
         11    1    3    3    0    0  0.18867064062E+01 -0.48135325223E+01  0.12077791260E+02  0.13137838421E+02  0.51100000000E-03 0. -1.
        -11    1    3    3    0    0 -0.98577036347E+01  0.22616049811E+02  0.14812227328E+02  0.28776068332E+02  0.51100000000E-03 0.  1.
         12    1    3    3    0    0  0.69562259769E+00  0.75854961157E+01  0.40241251297E+01  0.86149419719E+01  0.00000000000E+00 0. -1.
</event>
<event>
 7    1  0.3130259E-011  0.5052887E+02  0.7816164E-02  0.1300439E+00
        -11   -1    0    0    0    0  0.00000000000E+00  0.00000000000E+00  0.45593999997E+02  0.45594000000E+02  0.51100000000E-03 0. -1.
         11   -1    0    0    0    0 -0.00000000000E+00 -0.00000000000E+00 -0.45593999997E+02  0.45594000000E+02  0.51100000000E-03 0.  1.
    9900012    2    1    2    0    0 -0.31193443655E+02  0.25596965371E+02 -0.49929564036E+01  0.50528866009E+02  0.30000018720E+02 0.  0.
         12    1    1    2    0    0  0.31193443655E+02 -0.25596965371E+02  0.49929564036E+01  0.40659133991E+02  0.00000000000E+00 0. -1.
         11    1    3    3    0    0  0.10976938930E+01 -0.54613151912E-01 -0.31049287914E+01  0.32937057458E+01  0.51100000000E-03 0. -1.
        -11    1    3    3    0    0 -0.32213111383E+02  0.15152983404E+02 -0.57261506633E+01  0.36056708844E+02  0.51100000000E-03 0.  1.
        -12    1    3    3    0    0 -0.78026164893E-01  0.10498595119E+02  0.38381230511E+01  0.11178451419E+02  0.00000000000E+00 0.  1.
</event>
<event>
 7    1  0.2966651E-011  0.5052887E+02  0.7816164E-02  0.1300439E+00
        -11   -1    0    0    0    0  0.00000000000E+00  0.00000000000E+00  0.45593999997E+02  0.45594000000E+02  0.51100000000E-03 0.  1.
         11   -1    0    0    0    0 -0.00000000000E+00 -0.00000000000E+00 -0.45593999997E+02  0.45594000000E+02  0.51100000000E-03 0. -1.
    9900012    2    1    2    0    0 -0.35356908508E+02 -0.10470610949E+02  0.17129521149E+02  0.50528866122E+02  0.30000019065E+02 0.  0.
         12    1    1    2    0    0  0.35356908508E+02  0.10470610949E+02 -0.17129521149E+02  0.40659133878E+02  0.00000000000E+00 0. -1.
         11    1    3    3    0    0 -0.73074576409E+01 -0.21920748240E+01 -0.78247605127E+01  0.10928449412E+02  0.51100000000E-03 0. -1.
        -11    1    3    3    0    0 -0.16093888554E+02 -0.95633412614E+01  0.14909170194E+02  0.23932281567E+02  0.51100000000E-03 0.  1.
         12    1    3    3    0    0 -0.11955562313E+02  0.12848051360E+01  0.10045111468E+02  0.15668135143E+02  0.00000000000E+00 0. -1.
</event>
<event>
 7    1  0.2966651E-011  0.5052886E+02  0.7816164E-02  0.1300439E+00
        -11   -1    0    0    0    0  0.00000000000E+00  0.00000000000E+00  0.45593999997E+02  0.45594000000E+02  0.51100000000E-03 0. -1.
         11   -1    0    0    0    0 -0.00000000000E+00 -0.00000000000E+00 -0.45593999997E+02  0.45594000000E+02  0.51100000000E-03 0.  1.
    9900012    2    1    2    0    0  0.33426453606E+02 -0.53987553749E+01 -0.22509798377E+02  0.50528863472E+02  0.30000011009E+02 0.  0.
         12    1    1    2    0    0 -0.33426453606E+02  0.53987553749E+01  0.22509798377E+02  0.40659136528E+02  0.00000000000E+00 0. -1.
         11    1    3    3    0    0  0.40519867672E+01 -0.79788620238E+01 -0.68577805808E+01  0.11274306662E+02  0.51100000000E-03 0. -1.
        -11    1    3    3    0    0  0.94069354800E+01  0.20946680548E+01  0.47143879566E+01  0.10728631015E+02  0.51100000000E-03 0.  1.
        -12    1    3    3    0    0  0.19967531358E+02  0.48543859405E+00 -0.20366405753E+02  0.28525925795E+02  0.00000000000E+00 0.  1.
</event>
<event>
 7    1  0.2966651E-011  0.5052896E+02  0.7816164E-02  0.1300438E+00
        -11   -1    0    0    0    0  0.00000000000E+00  0.00000000000E+00  0.45593999997E+02  0.45594000000E+02  0.51100000000E-03 0.  1.
         11   -1    0    0    0    0 -0.00000000000E+00 -0.00000000000E+00 -0.45593999997E+02  0.45594000000E+02  0.51100000000E-03 0. -1.
    9900012    2    1    2    0    0 -0.32202646923E+01  0.28817442171E+02  0.28501619343E+02  0.50528961852E+02  0.30000310044E+02 0.  0.
         12    1    1    2    0    0  0.32202646923E+01 -0.28817442171E+02 -0.28501619343E+02  0.40659038148E+02  0.00000000000E+00 0. -1.
         11    1    3    3    0    0 -0.70219264803E+01  0.45806291073E+01  0.18643706101E+02  0.20442049603E+02  0.51100000000E-03 0. -1.
        -11    1    3    3    0    0  0.26934064265E+01  0.23013518554E+02  0.12977646846E+02  0.26557405602E+02  0.51100000000E-03 0.  1.
        -12    1    3    3    0    0  0.11082553615E+01  0.12232945096E+01 -0.31197336048E+01  0.35295066466E+01  0.00000000000E+00 0.  1.
</event>
<event>
 7    1  0.2966651E-011  0.5052886E+02  0.7816164E-02  0.1300439E+00
        -11   -1    0    0    0    0  0.00000000000E+00  0.00000000000E+00  0.45593999997E+02  0.45594000000E+02  0.51100000000E-03 0.  1.
         11   -1    0    0    0    0 -0.00000000000E+00 -0.00000000000E+00 -0.45593999997E+02  0.45594000000E+02  0.51100000000E-03 0. -1.
    9900012    2    1    2    0    0  0.18241419969E+02 -0.26540276402E+01  0.36240482344E+02  0.50528858030E+02  0.29999994469E+02 0.  0.
         12    1    1    2    0    0 -0.18241419969E+02  0.26540276402E+01 -0.36240482344E+02  0.40659141970E+02  0.00000000000E+00 0. -1.
         11    1    3    3    0    0  0.88892137983E+01 -0.89270242122E+01  0.65342593488E+01  0.14191773277E+02  0.51100000000E-03 0. -1.
        -11    1    3    3    0    0  0.55899679326E+01  0.11341685975E+02  0.11589698012E+02  0.17152337523E+02  0.51100000000E-03 0.  1.
        -12    1    3    3    0    0  0.37622382377E+01 -0.50686894033E+01  0.18116524983E+02  0.19184747231E+02  0.00000000000E+00 0.  1.
</event>
<event>
 7    1  0.2966651E-011  0.5052887E+02  0.7816164E-02  0.1300439E+00
        -11   -1    0    0    0    0  0.00000000000E+00  0.00000000000E+00  0.45593999997E+02  0.45594000000E+02  0.51100000000E-03 0.  1.
         11   -1    0    0    0    0 -0.00000000000E+00 -0.00000000000E+00 -0.45593999997E+02  0.45594000000E+02  0.51100000000E-03 0. -1.
    9900012    2    1    2    0    0  0.15944962485E+02  0.30722040851E+02  0.21332595527E+02  0.50528865053E+02  0.30000015816E+02 0.  0.
         12    1    1    2    0    0 -0.15944962485E+02 -0.30722040851E+02 -0.21332595527E+02  0.40659134947E+02  0.00000000000E+00 0. -1.
         11    1    3    3    0    0 -0.64520763345E+01  0.37103015652E+01  0.44529739991E+01  0.86732118865E+01  0.51100000000E-03 0. -1.
        -11    1    3    3    0    0  0.13992428668E+02  0.14218440279E+02  0.17498891053E+02  0.26536075300E+02  0.51100000000E-03 0.  1.
        -12    1    3    3    0    0  0.84046101509E+01  0.12793299007E+02 -0.61926952474E+00  0.15319577866E+02  0.00000000000E+00 0.  1.
</event>
<event>
 7    1  0.2966651E-011  0.5052887E+02  0.7816164E-02  0.1300439E+00
        -11   -1    0    0    0    0  0.00000000000E+00  0.00000000000E+00  0.45593999997E+02  0.45594000000E+02  0.51100000000E-03 0. -1.
         11   -1    0    0    0    0 -0.00000000000E+00 -0.00000000000E+00 -0.45593999997E+02  0.45594000000E+02  0.51100000000E-03 0.  1.
    9900012    2    1    2    0    0 -0.34002897245E+02  0.68880817862E-01 -0.22292667826E+02  0.50528870590E+02  0.30000032644E+02 0.  0.
         12    1    1    2    0    0  0.34002897245E+02 -0.68880817862E-01  0.22292667826E+02  0.40659129410E+02  0.00000000000E+00 0. -1.
         11    1    3    3    0    0 -0.58677898663E+01  0.78529276279E+01 -0.86000258208E+00  0.98406826463E+01  0.51100000000E-03 0. -1.
        -11    1    3    3    0    0 -0.18010662894E+02  0.26996538916E+01 -0.18225496702E+02  0.25765108952E+02  0.51100000000E-03 0.  1.
         12    1    3    3    0    0 -0.10124444485E+02 -0.10483700702E+02 -0.32071685421E+01  0.14923078991E+02  0.00000000000E+00 0. -1.
</event>
<event>
 7    1  0.2966651E-011  0.5052887E+02  0.7816164E-02  0.1300439E+00
        -11   -1    0    0    0    0  0.00000000000E+00  0.00000000000E+00  0.45593999997E+02  0.45594000000E+02  0.51100000000E-03 0.  1.
         11   -1    0    0    0    0 -0.00000000000E+00 -0.00000000000E+00 -0.45593999997E+02  0.45594000000E+02  0.51100000000E-03 0. -1.
    9900012    2    1    2    0    0  0.80286903029E+01  0.37405837907E+02  0.13766202622E+02  0.50528869264E+02  0.30000028616E+02 0.  0.
         12    1    1    2    0    0 -0.80286903029E+01 -0.37405837907E+02 -0.13766202622E+02  0.40659130736E+02  0.00000000000E+00 0. -1.
         11    1    3    3    0    0  0.24177321071E+01  0.14737330954E+02  0.19412459957E+02  0.24492406048E+02  0.51100000000E-03 0. -1.
        -11    1    3    3    0    0  0.30871077861E+01  0.64107608914E+01  0.26722374331E+01  0.76005883226E+01  0.51100000000E-03 0.  1.
         12    1    3    3    0    0  0.25238504098E+01  0.16257746062E+02 -0.83184947674E+01  0.18435874894E+02  0.00000000000E+00 0. -1.
</event>
<event>
 7    1  0.2966651E-011  0.5052887E+02  0.7816164E-02  0.1300439E+00
        -11   -1    0    0    0    0  0.00000000000E+00  0.00000000000E+00  0.45593999997E+02  0.45594000000E+02  0.51100000000E-03 0.  1.
         11   -1    0    0    0    0 -0.00000000000E+00 -0.00000000000E+00 -0.45593999997E+02  0.45594000000E+02  0.51100000000E-03 0. -1.
    9900012    2    1    2    0    0 -0.27112626283E+02  0.86990325304E+01  0.29024082249E+02  0.50528867923E+02  0.30000024538E+02 0.  0.
         12    1    1    2    0    0  0.27112626283E+02 -0.86990325304E+01 -0.29024082249E+02  0.40659132077E+02  0.00000000000E+00 0. -1.
         11    1    3    3    0    0 -0.83531841486E+01 -0.86119301700E+01  0.17357274023E+02  0.21100141906E+02  0.51100000000E-03 0.  1.
        -11    1    3    3    0    0 -0.10257976903E+02  0.50487799998E+01  0.18856864558E+01  0.11587583152E+02  0.51100000000E-03 0. -1.
         12    1    3    3    0    0 -0.85014652312E+01  0.12262182701E+02  0.97811217695E+01  0.17841142865E+02  0.00000000000E+00 0. -1.
</event>
<event>
 7    1  0.2966651E-011  0.5052876E+02  0.7816164E-02  0.1300439E+00
        -11   -1    0    0    0    0  0.00000000000E+00  0.00000000000E+00  0.45593999997E+02  0.45594000000E+02  0.51100000000E-03 0.  1.
         11   -1    0    0    0    0 -0.00000000000E+00 -0.00000000000E+00 -0.45593999997E+02  0.45594000000E+02  0.51100000000E-03 0. -1.
    9900012    2    1    2    0    0  0.39825241015E+02  0.80422456976E+01  0.15639448901E+01  0.50528764132E+02  0.29999709055E+02 0.  0.
         12    1    1    2    0    0 -0.39825241015E+02 -0.80422456976E+01 -0.15639448901E+01  0.40659235868E+02  0.00000000000E+00 0. -1.
         11    1    3    3    0    0  0.18143324616E+02  0.12565431575E+02 -0.98081453531E+01  0.24150983713E+02  0.51100000000E-03 0. -1.
        -11    1    3    3    0    0  0.18237878064E+02 -0.57454805067E+01  0.63126940247E+01  0.20136555034E+02  0.51100000000E-03 0.  1.
         12    1    3    3    0    0  0.34440383346E+01  0.12222946290E+01  0.50593962185E+01  0.62412253850E+01  0.00000000000E+00 0. -1.
</event>
<event>
 7    1  0.2966651E-011  0.5052886E+02  0.7816164E-02  0.1300439E+00
        -11   -1    0    0    0    0  0.00000000000E+00  0.00000000000E+00  0.45593999997E+02  0.45594000000E+02  0.51100000000E-03 0.  1.
         11   -1    0    0    0    0 -0.00000000000E+00 -0.00000000000E+00 -0.45593999997E+02  0.45594000000E+02  0.51100000000E-03 0. -1.
    9900012    2    1    2    0    0  0.38574668911E+02  0.12466520935E+02 -0.31219613321E+01  0.50528857506E+02  0.29999992874E+02 0.  0.
         12    1    1    2    0    0 -0.38574668911E+02 -0.12466520935E+02  0.31219613321E+01  0.40659142494E+02  0.00000000000E+00 0. -1.
         11    1    3    3    0    0  0.17396995778E+01 -0.92638470453E+00  0.72421927060E+01  0.75056044856E+01  0.51100000000E-03 0. -1.
        -11    1    3    3    0    0  0.22713817166E+02  0.13041367569E+02 -0.11988116158E+02  0.28804681696E+02  0.51100000000E-03 0.  1.
         12    1    3    3    0    0  0.14121152167E+02  0.35153807046E+00  0.16239621196E+01  0.14218571324E+02  0.00000000000E+00 0. -1.
</event>
<event>
 7    1  0.2966651E-011  0.5052886E+02  0.7816164E-02  0.1300439E+00
        -11   -1    0    0    0    0  0.00000000000E+00  0.00000000000E+00  0.45593999997E+02  0.45594000000E+02  0.51100000000E-03 0.  1.
         11   -1    0    0    0    0 -0.00000000000E+00 -0.00000000000E+00 -0.45593999997E+02  0.45594000000E+02  0.51100000000E-03 0. -1.
    9900012    2    1    2    0    0  0.16406209102E+02  0.15786289206E+02  0.33686716901E+02  0.50528861795E+02  0.30000005912E+02 0.  0.
         12    1    1    2    0    0 -0.16406209102E+02 -0.15786289206E+02 -0.33686716901E+02  0.40659138205E+02  0.00000000000E+00 0. -1.
         11    1    3    3    0    0  0.17073385738E+02 -0.30561944236E+01  0.20888473501E+02  0.27150859109E+02  0.51100000000E-03 0.  1.
        -11    1    3    3    0    0 -0.17804560701E+00  0.15763752247E+02  0.12725253188E+02  0.20259803901E+02  0.51100000000E-03 0. -1.
         12    1    3    3    0    0 -0.48913102873E+00  0.30787313831E+01  0.72990212353E-01  0.31181987852E+01  0.00000000000E+00 0. -1.
</event>
<event>
 7    1  0.2966651E-011  0.5052887E+02  0.7816164E-02  0.1300439E+00
        -11   -1    0    0    0    0  0.00000000000E+00  0.00000000000E+00  0.45593999997E+02  0.45594000000E+02  0.51100000000E-03 0.  1.
         11   -1    0    0    0    0 -0.00000000000E+00 -0.00000000000E+00 -0.45593999997E+02  0.45594000000E+02  0.51100000000E-03 0. -1.
    9900012    2    1    2    0    0  0.22703019735E+02  0.89685783126E+01  0.32516191959E+02  0.50528865214E+02  0.30000016304E+02 0.  0.
         12    1    1    2    0    0 -0.22703019735E+02 -0.89685783126E+01 -0.32516191959E+02  0.40659134786E+02  0.00000000000E+00 0. -1.
         11    1    3    3    0    0  0.83080721557E+01 -0.45924296078E+01  0.11397685829E+02  0.14833128974E+02  0.51100000000E-03 0. -1.
        -11    1    3    3    0    0 -0.10075087389E+01  0.10753976992E+02  0.19998575788E+01  0.10984649544E+02  0.51100000000E-03 0.  1.
        -12    1    3    3    0    0  0.15402456318E+02  0.28070309281E+01  0.19118648552E+02  0.24711086696E+02  0.00000000000E+00 0.  1.
</event>
<event>
 7    1  0.2966651E-011  0.5052886E+02  0.7816164E-02  0.1300439E+00
        -11   -1    0    0    0    0  0.00000000000E+00  0.00000000000E+00  0.45593999997E+02  0.45594000000E+02  0.51100000000E-03 0.  1.
         11   -1    0    0    0    0 -0.00000000000E+00 -0.00000000000E+00 -0.45593999997E+02  0.45594000000E+02  0.51100000000E-03 0. -1.
    9900012    2    1    2    0    0 -0.37045153471E+02 -0.25211721696E+01  0.16567004291E+02  0.50528864053E+02  0.30000012776E+02 0.  0.
         12    1    1    2    0    0  0.37045153471E+02  0.25211721696E+01 -0.16567004291E+02  0.40659135947E+02  0.00000000000E+00 0. -1.
         11    1    3    3    0    0 -0.16820319138E+02 -0.87311036913E+01 -0.38229832558E+01  0.19333145341E+02  0.51100000000E-03 0. -1.
        -11    1    3    3    0    0 -0.51558996459E+01 -0.19817636550E+01  0.91541816797E+01  0.10691572888E+02  0.51100000000E-03 0.  1.
         12    1    3    3    0    0 -0.15068934687E+02  0.81916951767E+01  0.11235805867E+02  0.20504145823E+02  0.00000000000E+00 0. -1.
</event>
<event>
 7    1  0.2966651E-011  0.5052886E+02  0.7816164E-02  0.1300439E+00
        -11   -1    0    0    0    0  0.00000000000E+00  0.00000000000E+00  0.45593999997E+02  0.45594000000E+02  0.51100000000E-03 0.  1.
         11   -1    0    0    0    0 -0.00000000000E+00 -0.00000000000E+00 -0.45593999997E+02  0.45594000000E+02  0.51100000000E-03 0. -1.
    9900012    2    1    2    0    0 -0.32804462938E+02  0.20963404757E+02  0.11728969691E+02  0.50528857637E+02  0.29999993273E+02 0.  0.
         12    1    1    2    0    0  0.32804462938E+02 -0.20963404757E+02 -0.11728969691E+02  0.40659142363E+02  0.00000000000E+00 0. -1.
         11    1    3    3    0    0 -0.75965773777E+01  0.14592621610E+02  0.14709973705E+02  0.22068890320E+02  0.51100000000E-03 0. -1.
        -11    1    3    3    0    0 -0.14836079387E+02  0.83200668667E+00  0.31646690861E+01  0.15192650111E+02  0.51100000000E-03 0.  1.
         12    1    3    3    0    0 -0.10371806173E+02  0.55387764607E+01 -0.61456731001E+01  0.13267317205E+02  0.00000000000E+00 0. -1.
</event>
<event>
 7    1  0.2966651E-011  0.5052886E+02  0.7816164E-02  0.1300439E+00
        -11   -1    0    0    0    0  0.00000000000E+00  0.00000000000E+00  0.45593999997E+02  0.45594000000E+02  0.51100000000E-03 0.  1.
         11   -1    0    0    0    0 -0.00000000000E+00 -0.00000000000E+00 -0.45593999997E+02  0.45594000000E+02  0.51100000000E-03 0. -1.
    9900012    2    1    2    0    0 -0.22322949883E+01 -0.53759295129E+01  0.40240301175E+02  0.50528860834E+02  0.30000002992E+02 0.  0.
         12    1    1    2    0    0  0.22322949883E+01  0.53759295129E+01 -0.40240301175E+02  0.40659139166E+02  0.00000000000E+00 0. -1.
         11    1    3    3    0    0  0.10665265470E+01 -0.28823201501E+01 -0.50904269373E+00  0.31151842720E+01  0.51100000000E-03 0. -1.
        -11    1    3    3    0    0 -0.47090715416E+01 -0.12320709818E+02  0.30053075128E+02  0.32820154937E+02  0.51100000000E-03 0.  1.
        -12    1    3    3    0    0  0.14102500064E+01  0.98271004555E+01  0.10696268741E+02  0.14593521625E+02  0.00000000000E+00 0.  1.
</event>
<event>
 7    1  0.2966651E-011  0.5052886E+02  0.7816164E-02  0.1300439E+00
        -11   -1    0    0    0    0  0.00000000000E+00  0.00000000000E+00  0.45593999997E+02  0.45594000000E+02  0.51100000000E-03 0.  1.
         11   -1    0    0    0    0 -0.00000000000E+00 -0.00000000000E+00 -0.45593999997E+02  0.45594000000E+02  0.51100000000E-03 0. -1.
    9900012    2    1    2    0    0  0.31366470640E+02 -0.24779853845E+02  0.74343157635E+01  0.50528859725E+02  0.29999999621E+02 0.  0.
         12    1    1    2    0    0 -0.31366470640E+02  0.24779853845E+02 -0.74343157635E+01  0.40659140275E+02  0.00000000000E+00 0. -1.
         11    1    3    3    0    0 -0.15077386300E+01  0.88021275037E-01 -0.31222526722E+01  0.34683548740E+01  0.51100000000E-03 0. -1.
        -11    1    3    3    0    0  0.22492342435E+02 -0.70806906832E+01 -0.69765071357E+00  0.23590853430E+02  0.51100000000E-03 0.  1.
        -12    1    3    3    0    0  0.10381866835E+02 -0.17787184437E+02  0.11254219149E+02  0.23469651422E+02  0.00000000000E+00 0.  1.
</event>
<event>
 7    1  0.2966651E-011  0.5052886E+02  0.7816164E-02  0.1300439E+00
        -11   -1    0    0    0    0  0.00000000000E+00  0.00000000000E+00  0.45593999997E+02  0.45594000000E+02  0.51100000000E-03 0. -1.
         11   -1    0    0    0    0 -0.00000000000E+00 -0.00000000000E+00 -0.45593999997E+02  0.45594000000E+02  0.51100000000E-03 0.  1.
    9900012    2    1    2    0    0 -0.35078207038E+01  0.34790079019E+02 -0.20748767117E+02  0.50528859071E+02  0.29999997631E+02 0.  0.
         12    1    1    2    0    0  0.35078207038E+01 -0.34790079019E+02  0.20748767117E+02  0.40659140929E+02  0.00000000000E+00 0. -1.
         11    1    3    3    0    0  0.10047647216E+01  0.99195559827E+00  0.64996527945E+01  0.66512415957E+01  0.51100000000E-03 0. -1.
        -11    1    3    3    0    0 -0.23144246540E+01  0.29230034452E+02 -0.23309942328E+02  0.37458041688E+02  0.51100000000E-03 0.  1.
         12    1    3    3    0    0 -0.21981607714E+01  0.45680889688E+01 -0.39384775836E+01  0.64195757866E+01  0.00000000000E+00 0. -1.
</event>
<event>
 7    1  0.2966651E-011  0.5052886E+02  0.7816164E-02  0.1300439E+00
        -11   -1    0    0    0    0  0.00000000000E+00  0.00000000000E+00  0.45593999997E+02  0.45594000000E+02  0.51100000000E-03 0. -1.
         11   -1    0    0    0    0 -0.00000000000E+00 -0.00000000000E+00 -0.45593999997E+02  0.45594000000E+02  0.51100000000E-03 0.  1.
    9900012    2    1    2    0    0 -0.67336817837E+01 -0.14419546802E+02 -0.37415235089E+02  0.50528860595E+02  0.30000002265E+02 0.  0.
         12    1    1    2    0    0  0.67336817837E+01  0.14419546802E+02  0.37415235089E+02  0.40659139405E+02  0.00000000000E+00 0. -1.
         11    1    3    3    0    0  0.54159840959E+01 -0.87557359439E+01 -0.94672814547E+01  0.13986608383E+02  0.51100000000E-03 0. -1.
        -11    1    3    3    0    0 -0.27256669933E+01  0.66385191300E+01 -0.13818592569E+02  0.15570892641E+02  0.51100000000E-03 0.  1.
        -12    1    3    3    0    0 -0.94239988863E+01 -0.12302329988E+02 -0.14129361066E+02  0.20971359571E+02  0.00000000000E+00 0.  1.
</event>
<event>
 7    1  0.2966651E-011  0.5052886E+02  0.7816164E-02  0.1300439E+00
        -11   -1    0    0    0    0  0.00000000000E+00  0.00000000000E+00  0.45593999997E+02  0.45594000000E+02  0.51100000000E-03 0.  1.
         11   -1    0    0    0    0 -0.00000000000E+00 -0.00000000000E+00 -0.45593999997E+02  0.45594000000E+02  0.51100000000E-03 0. -1.
    9900012    2    1    2    0    0 -0.69588067833E+01 -0.37214508309E+02  0.14826362716E+02  0.50528860168E+02  0.30000000966E+02 0.  0.
         12    1    1    2    0    0  0.69588067833E+01  0.37214508309E+02 -0.14826362716E+02  0.40659139832E+02  0.00000000000E+00 0. -1.
         11    1    3    3    0    0  0.17044318328E+01 -0.11477410274E+02  0.16794467487E+02  0.20412990298E+02  0.51100000000E-03 0. -1.
        -11    1    3    3    0    0 -0.10741584420E+02 -0.15470910437E+02 -0.44468149232E+01  0.19352128276E+02  0.51100000000E-03 0.  1.
        -12    1    3    3    0    0  0.20783458040E+01 -0.10266187598E+02  0.24787101525E+01  0.10763741594E+02  0.00000000000E+00 0.  1.
</event>
<event>
 7    1  0.2966651E-011  0.5052886E+02  0.7816164E-02  0.1300439E+00
        -11   -1    0    0    0    0  0.00000000000E+00  0.00000000000E+00  0.45593999997E+02  0.45594000000E+02  0.51100000000E-03 0.  1.
         11   -1    0    0    0    0 -0.00000000000E+00 -0.00000000000E+00 -0.45593999997E+02  0.45594000000E+02  0.51100000000E-03 0. -1.
    9900012    2    1    2    0    0  0.15815106549E+02  0.35324730158E+02  0.12458405607E+02  0.50528855565E+02  0.29999986976E+02 0.  0.
         12    1    1    2    0    0 -0.15815106549E+02 -0.35324730158E+02 -0.12458405607E+02  0.40659144435E+02  0.00000000000E+00 0. -1.
         11    1    3    3    0    0  0.19050413258E+02  0.16578952341E+02  0.71270460524E+01  0.26240706769E+02  0.51100000000E-03 0. -1.
        -11    1    3    3    0    0 -0.67202924077E-01  0.17272943496E+02 -0.73385068294E+00  0.17288656117E+02  0.51100000000E-03 0.  1.
        -12    1    3    3    0    0 -0.31681037856E+01  0.14728343212E+01  0.60652102380E+01  0.69994926791E+01  0.00000000000E+00 0.  1.
</event>
<event>
 7    1  0.2966651E-011  0.5052886E+02  0.7816164E-02  0.1300439E+00
        -11   -1    0    0    0    0  0.00000000000E+00  0.00000000000E+00  0.45593999997E+02  0.45594000000E+02  0.51100000000E-03 0. -1.
         11   -1    0    0    0    0 -0.00000000000E+00 -0.00000000000E+00 -0.45593999997E+02  0.45594000000E+02  0.51100000000E-03 0.  1.
    9900012    2    1    2    0    0  0.27152538690E+02  0.13648055097E+02 -0.27011776050E+02  0.50528858216E+02  0.29999995035E+02 0.  0.
         12    1    1    2    0    0 -0.27152538690E+02 -0.13648055097E+02  0.27011776050E+02  0.40659141784E+02  0.00000000000E+00 0. -1.
         11    1    3    3    0    0  0.98537831719E+01 -0.66541582161E+01 -0.16089288494E+02  0.20006000822E+02  0.51100000000E-03 0. -1.
        -11    1    3    3    0    0  0.12789877989E+02  0.18803453954E+02 -0.11908351533E+02  0.25670210285E+02  0.51100000000E-03 0.  1.
         12    1    3    3    0    0  0.45088775293E+01  0.14987593584E+01  0.98586397804E+00  0.48526471097E+01  0.00000000000E+00 0. -1.
</event>
<event>
 7    1  0.2966651E-011  0.5052883E+02  0.7816164E-02  0.1300439E+00
        -11   -1    0    0    0    0  0.00000000000E+00  0.00000000000E+00  0.45593999997E+02  0.45594000000E+02  0.51100000000E-03 0. -1.
         11   -1    0    0    0    0 -0.00000000000E+00 -0.00000000000E+00 -0.45593999997E+02  0.45594000000E+02  0.51100000000E-03 0.  1.
    9900012    2    1    2    0    0  0.23578741653E+02 -0.32686800066E+02 -0.53650589033E+01  0.50528833585E+02  0.29999920166E+02 0.  0.
         12    1    1    2    0    0 -0.23578741653E+02  0.32686800066E+02  0.53650589033E+01  0.40659166415E+02  0.00000000000E+00 0. -1.
         11    1    3    3    0    0  0.24836988523E+02 -0.18167449402E+02 -0.57281940963E+01  0.31300869390E+02  0.51100000000E-03 0. -1.
        -11    1    3    3    0    0 -0.45048275394E+01 -0.12447203658E+02  0.41038761374E+01  0.13858865382E+02  0.51100000000E-03 0.  1.
        -12    1    3    3    0    0  0.32465806689E+01 -0.20721470057E+01 -0.37407409445E+01  0.53690988133E+01  0.00000000000E+00 0.  1.
</event>
<event>
 7    1  0.2966651E-011  0.5052884E+02  0.7816164E-02  0.1300439E+00
        -11   -1    0    0    0    0  0.00000000000E+00  0.00000000000E+00  0.45593999997E+02  0.45594000000E+02  0.51100000000E-03 0.  1.
         11   -1    0    0    0    0 -0.00000000000E+00 -0.00000000000E+00 -0.45593999997E+02  0.45594000000E+02  0.51100000000E-03 0. -1.
    9900012    2    1    2    0    0 -0.25442637864E+02  0.30768208974E+02  0.76913237102E+01  0.50528844016E+02  0.29999951871E+02 0.  0.
         12    1    1    2    0    0  0.25442637864E+02 -0.30768208974E+02 -0.76913237102E+01  0.40659155984E+02  0.00000000000E+00 0. -1.
         11    1    3    3    0    0 -0.21796245485E+02  0.10074941675E+02 -0.47117407164E+01  0.24470007516E+02  0.51100000000E-03 0. -1.
        -11    1    3    3    0    0 -0.54611746732E+01  0.63387046495E+01  0.56189441177E+01  0.10078498832E+02  0.51100000000E-03 0.  1.
         12    1    3    3    0    0  0.18147822947E+01  0.14354562649E+02  0.67841203089E+01  0.15980337668E+02  0.00000000000E+00 0. -1.
</event>
<event>
 7    1  0.2966651E-011  0.5052886E+02  0.7816164E-02  0.1300439E+00
        -11   -1    0    0    0    0  0.00000000000E+00  0.00000000000E+00  0.45593999997E+02  0.45594000000E+02  0.51100000000E-03 0.  1.
         11   -1    0    0    0    0 -0.00000000000E+00 -0.00000000000E+00 -0.45593999997E+02  0.45594000000E+02  0.51100000000E-03 0. -1.
    9900012    2    1    2    0    0 -0.49559403441E+01 -0.18365681642E+02  0.35934746075E+02  0.50528861023E+02  0.30000003565E+02 0.  0.
         12    1    1    2    0    0  0.49559403441E+01  0.18365681642E+02 -0.35934746075E+02  0.40659138977E+02  0.00000000000E+00 0. -1.
         11    1    3    3    0    0 -0.14577176760E+02 -0.13048673640E+02  0.98844342287E+01  0.21919489189E+02  0.51100000000E-03 0. -1.
        -11    1    3    3    0    0  0.92882460184E+01 -0.44023626452E+01  0.20055911958E+02  0.22536457479E+02  0.51100000000E-03 0.  1.
         12    1    3    3    0    0  0.33299039732E+00 -0.91464535744E+00  0.59943998887E+01  0.60729143547E+01  0.00000000000E+00 0. -1.
</event>
<event>
 7    1  0.2966651E-011  0.5052886E+02  0.7816164E-02  0.1300439E+00
        -11   -1    0    0    0    0  0.00000000000E+00  0.00000000000E+00  0.45593999997E+02  0.45594000000E+02  0.51100000000E-03 0. -1.
         11   -1    0    0    0    0 -0.00000000000E+00 -0.00000000000E+00 -0.45593999997E+02  0.45594000000E+02  0.51100000000E-03 0.  1.
    9900012    2    1    2    0    0  0.37267379641E+02  0.13420986307E+01  0.16202064750E+02  0.50528859377E+02  0.29999998562E+02 0.  0.
         12    1    1    2    0    0 -0.37267379641E+02 -0.13420986307E+01 -0.16202064750E+02  0.40659140623E+02  0.00000000000E+00 0. -1.
         11    1    3    3    0    0  0.22898192072E+02 -0.10819139298E+02  0.14451766421E+02  0.29158781324E+02  0.51100000000E-03 0. -1.
        -11    1    3    3    0    0  0.60001604819E+01  0.34429453615E+01 -0.39953801041E+01  0.79886707911E+01  0.51100000000E-03 0.  1.
        -12    1    3    3    0    0  0.83690270872E+01  0.87182925671E+01  0.57456784324E+01  0.13381407262E+02  0.00000000000E+00 0.  1.
</event>
<event>
 7    1  0.2966651E-011  0.5052886E+02  0.7816164E-02  0.1300439E+00
        -11   -1    0    0    0    0  0.00000000000E+00  0.00000000000E+00  0.45593999997E+02  0.45594000000E+02  0.51100000000E-03 0.  1.
         11   -1    0    0    0    0 -0.00000000000E+00 -0.00000000000E+00 -0.45593999997E+02  0.45594000000E+02  0.51100000000E-03 0. -1.
    9900012    2    1    2    0    0 -0.69849081132E+01 -0.18216925830E+02  0.35672407992E+02  0.50528855641E+02  0.29999987207E+02 0.  0.
         12    1    1    2    0    0  0.69849081132E+01  0.18216925830E+02 -0.35672407992E+02  0.40659144359E+02  0.00000000000E+00 0. -1.
         11    1    3    3    0    0  0.45526679534E+01 -0.10043411320E+02  0.63370161611E+01  0.12718280958E+02  0.51100000000E-03 0. -1.
        -11    1    3    3    0    0 -0.13689924125E+02 -0.10076859390E+02  0.30331113478E+02  0.34769721925E+02  0.51100000000E-03 0.  1.
        -12    1    3    3    0    0  0.21523480583E+01  0.19033448801E+01 -0.99572164684E+00  0.30408527578E+01  0.00000000000E+00 0.  1.
</event>
<event>
 7    1  0.2966651E-011  0.5052885E+02  0.7816164E-02  0.1300439E+00
        -11   -1    0    0    0    0  0.00000000000E+00  0.00000000000E+00  0.45593999997E+02  0.45594000000E+02  0.51100000000E-03 0. -1.
         11   -1    0    0    0    0 -0.00000000000E+00 -0.00000000000E+00 -0.45593999997E+02  0.45594000000E+02  0.51100000000E-03 0.  1.
    9900012    2    1    2    0    0  0.10650591393E+02 -0.33319893909E+02  0.20724777067E+02  0.50528845906E+02  0.29999957617E+02 0.  0.
         12    1    1    2    0    0 -0.10650591393E+02  0.33319893909E+02 -0.20724777067E+02  0.40659154094E+02  0.00000000000E+00 0. -1.
         11    1    3    3    0    0  0.32591533498E+01  0.48386671330E+01  0.96305989596E-01  0.58347283816E+01  0.51100000000E-03 0. -1.
        -11    1    3    3    0    0  0.10452562382E+01 -0.18852673356E+02  0.13280278933E+02  0.23084229726E+02  0.51100000000E-03 0.  1.
         12    1    3    3    0    0  0.63461818051E+01 -0.19305887687E+02  0.73481921435E+01  0.21609887798E+02  0.00000000000E+00 0. -1.
</event>
<event>
 7    1  0.2966651E-011  0.5052886E+02  0.7816164E-02  0.1300439E+00
        -11   -1    0    0    0    0  0.00000000000E+00  0.00000000000E+00  0.45593999997E+02  0.45594000000E+02  0.51100000000E-03 0.  1.
         11   -1    0    0    0    0 -0.00000000000E+00 -0.00000000000E+00 -0.45593999997E+02  0.45594000000E+02  0.51100000000E-03 0. -1.
    9900012    2    1    2    0    0  0.19645392163E+02 -0.52058685749E+00  0.35594288660E+02  0.50528857988E+02  0.29999994342E+02 0.  0.
         12    1    1    2    0    0 -0.19645392163E+02  0.52058685749E+00 -0.35594288660E+02  0.40659142012E+02  0.00000000000E+00 0. -1.
         11    1    3    3    0    0  0.80192594780E+01 -0.13946650237E+02  0.22596917835E+02  0.27738750356E+02  0.51100000000E-03 0. -1.
        -11    1    3    3    0    0  0.43811039319E+01  0.58220868146E+01  0.89341212531E+01  0.11528629119E+02  0.51100000000E-03 0.  1.
         12    1    3    3    0    0  0.72450287531E+01  0.76039765647E+01  0.40632495718E+01  0.11261478514E+02  0.00000000000E+00 0. -1.
</event>
<event>
 7    1  0.2966651E-011  0.5052890E+02  0.7816164E-02  0.1300439E+00
        -11   -1    0    0    0    0  0.00000000000E+00  0.00000000000E+00  0.45593999997E+02  0.45594000000E+02  0.51100000000E-03 0.  1.
         11   -1    0    0    0    0 -0.00000000000E+00 -0.00000000000E+00 -0.45593999997E+02  0.45594000000E+02  0.51100000000E-03 0. -1.
    9900012    2    1    2    0    0 -0.39088777863E+02 -0.64111483254E+01 -0.91720992721E+01  0.50528895451E+02  0.30000108214E+02 0.  0.
         12    1    1    2    0    0  0.39088777863E+02  0.64111483254E+01  0.91720992721E+01  0.40659104549E+02  0.00000000000E+00 0. -1.
         11    1    3    3    0    0 -0.31308436830E+01 -0.86717751535E+01  0.45534855933E+01  0.10282805930E+02  0.51100000000E-03 0. -1.
        -11    1    3    3    0    0 -0.26689580587E+02 -0.34180771332E+01 -0.10759113814E+02  0.28978880129E+02  0.51100000000E-03 0.  1.
         12    1    3    3    0    0 -0.92683535925E+01  0.56787039613E+01 -0.29664710515E+01  0.11267209393E+02  0.00000000000E+00 0. -1.
</event>
<event>
 7    1  0.2966651E-011  0.5052885E+02  0.7816164E-02  0.1300439E+00
        -11   -1    0    0    0    0  0.00000000000E+00  0.00000000000E+00  0.45593999997E+02  0.45594000000E+02  0.51100000000E-03 0.  1.
         11   -1    0    0    0    0 -0.00000000000E+00 -0.00000000000E+00 -0.45593999997E+02  0.45594000000E+02  0.51100000000E-03 0. -1.
    9900012    2    1    2    0    0 -0.52590327490E+01  0.20263732322E+02  0.34855269936E+02  0.50528854468E+02  0.29999983640E+02 0.  0.
         12    1    1    2    0    0  0.52590327490E+01 -0.20263732322E+02 -0.34855269936E+02  0.40659145532E+02  0.00000000000E+00 0. -1.
         11    1    3    3    0    0 -0.72209694480E+01  0.95920956923E+01  0.22766969379E+02  0.25738795514E+02  0.51100000000E-03 0.  1.
        -11    1    3    3    0    0  0.62063122628E+01  0.14542757609E+02  0.98255298249E+01  0.18615884276E+02  0.51100000000E-03 0. -1.
         12    1    3    3    0    0 -0.42443755638E+01 -0.38711209793E+01  0.22627707327E+01  0.61741746778E+01  0.00000000000E+00 0. -1.
</event>
<event>
 7    1  0.2966651E-011  0.5052885E+02  0.7816164E-02  0.1300439E+00
        -11   -1    0    0    0    0  0.00000000000E+00  0.00000000000E+00  0.45593999997E+02  0.45594000000E+02  0.51100000000E-03 0. -1.
         11   -1    0    0    0    0 -0.00000000000E+00 -0.00000000000E+00 -0.45593999997E+02  0.45594000000E+02  0.51100000000E-03 0.  1.
    9900012    2    1    2    0    0  0.27137147913E+02 -0.22618316950E+02 -0.20128414158E+02  0.50528854472E+02  0.29999983653E+02 0.  0.
         12    1    1    2    0    0 -0.27137147913E+02  0.22618316950E+02  0.20128414158E+02  0.40659145528E+02  0.00000000000E+00 0. -1.
         11    1    3    3    0    0  0.15725474865E+01 -0.78358930803E+00  0.39004721901E+01  0.42779202152E+01  0.51100000000E-03 0. -1.
        -11    1    3    3    0    0  0.11737880597E+02 -0.60912905308E+01 -0.21368535318E+02  0.25129583426E+02  0.51100000000E-03 0.  1.
         12    1    3    3    0    0  0.13826719829E+02 -0.15743437112E+02 -0.26603510302E+01  0.21121350831E+02  0.00000000000E+00 0. -1.
</event>
<event>
 7    1  0.2966651E-011  0.5052889E+02  0.7816164E-02  0.1300439E+00
        -11   -1    0    0    0    0  0.00000000000E+00  0.00000000000E+00  0.45593999997E+02  0.45594000000E+02  0.51100000000E-03 0.  1.
         11   -1    0    0    0    0 -0.00000000000E+00 -0.00000000000E+00 -0.45593999997E+02  0.45594000000E+02  0.51100000000E-03 0. -1.
    9900012    2    1    2    0    0  0.10397099784E+02  0.95761697130E+01  0.38122968521E+02  0.50528887378E+02  0.30000083675E+02 0.  0.
         12    1    1    2    0    0 -0.10397099784E+02 -0.95761697130E+01 -0.38122968521E+02  0.40659112622E+02  0.00000000000E+00 0. -1.
         11    1    3    3    0    0 -0.11784334950E+01 -0.35062347206E+01  0.23742777328E+01  0.43954046949E+01  0.51100000000E-03 0. -1.
        -11    1    3    3    0    0  0.18045058304E+02  0.12862918232E+02  0.23636688233E+02  0.32400182492E+02  0.51100000000E-03 0.  1.
        -12    1    3    3    0    0 -0.64695250248E+01  0.21948620151E+00  0.12112002556E+02  0.13733300192E+02  0.00000000000E+00 0.  1.
</event>
<event>
 7    1  0.2966651E-011  0.5052886E+02  0.7816164E-02  0.1300439E+00
        -11   -1    0    0    0    0  0.00000000000E+00  0.00000000000E+00  0.45593999997E+02  0.45594000000E+02  0.51100000000E-03 0.  1.
         11   -1    0    0    0    0 -0.00000000000E+00 -0.00000000000E+00 -0.45593999997E+02  0.45594000000E+02  0.51100000000E-03 0. -1.
    9900012    2    1    2    0    0  0.77639176023E+01  0.91942275119E+01  0.38837526588E+02  0.50528859484E+02  0.29999998886E+02 0.  0.
         12    1    1    2    0    0 -0.77639176023E+01 -0.91942275119E+01 -0.38837526588E+02  0.40659140516E+02  0.00000000000E+00 0. -1.
         11    1    3    3    0    0  0.15105095682E+02  0.89863653198E+01  0.25838888636E+02  0.31250069495E+02  0.51100000000E-03 0. -1.
        -11    1    3    3    0    0 -0.19233750007E+01 -0.48499524701E+01  0.10008153696E+02  0.11286476467E+02  0.51100000000E-03 0.  1.
         12    1    3    3    0    0 -0.54178030787E+01  0.50578146622E+01  0.29904842552E+01  0.79923135223E+01  0.00000000000E+00 0. -1.
</event>
<event>
 7    1  0.2966651E-011  0.5052886E+02  0.7816164E-02  0.1300439E+00
        -11   -1    0    0    0    0  0.00000000000E+00  0.00000000000E+00  0.45593999997E+02  0.45594000000E+02  0.51100000000E-03 0.  1.
         11   -1    0    0    0    0 -0.00000000000E+00 -0.00000000000E+00 -0.45593999997E+02  0.45594000000E+02  0.51100000000E-03 0. -1.
    9900012    2    1    2    0    0  0.77531459480E+01 -0.62627663455E+01  0.39418681585E+02  0.50528856228E+02  0.29999988989E+02 0.  0.
         12    1    1    2    0    0 -0.77531459480E+01  0.62627663455E+01 -0.39418681585E+02  0.40659143772E+02  0.00000000000E+00 0. -1.
         11    1    3    3    0    0  0.77529162400E+01 -0.95337059856E+01  0.31143229298E+01  0.12676682043E+02  0.51100000000E-03 0. -1.
        -11    1    3    3    0    0  0.44681131187E+01  0.39829224952E+01  0.24219783942E+02  0.24948459690E+02  0.51100000000E-03 0.  1.
         12    1    3    3    0    0 -0.44678834107E+01 -0.71198285513E+00  0.12084574713E+02  0.12903714494E+02  0.00000000000E+00 0. -1.
</event>
<event>
 7    1  0.2966651E-011  0.5052886E+02  0.7816164E-02  0.1300439E+00
        -11   -1    0    0    0    0  0.00000000000E+00  0.00000000000E+00  0.45593999997E+02  0.45594000000E+02  0.51100000000E-03 0.  1.
         11   -1    0    0    0    0 -0.00000000000E+00 -0.00000000000E+00 -0.45593999997E+02  0.45594000000E+02  0.51100000000E-03 0. -1.
    9900012    2    1    2    0    0 -0.32070057066E+01  0.82438247955E+01  0.39685267407E+02  0.50528856108E+02  0.29999988625E+02 0.  0.
         12    1    1    2    0    0  0.32070057066E+01 -0.82438247955E+01 -0.39685267407E+02  0.40659143892E+02  0.00000000000E+00 0. -1.
         11    1    3    3    0    0 -0.11759718146E+02  0.87006908182E+01  0.35486371519E+02  0.38383271818E+02  0.51100000000E-03 0.  1.
        -11    1    3    3    0    0  0.27278536814E+01 -0.13333866028E+01 -0.19673809012E+01  0.36179681330E+01  0.51100000000E-03 0. -1.
        -12    1    3    3    0    0  0.58248587577E+01  0.87652058002E+00  0.61662767894E+01  0.85276161569E+01  0.00000000000E+00 0.  1.
</event>
<event>
 7    1  0.2966651E-011  0.5052886E+02  0.7816164E-02  0.1300439E+00
        -11   -1    0    0    0    0  0.00000000000E+00  0.00000000000E+00  0.45593999997E+02  0.45594000000E+02  0.51100000000E-03 0.  1.
         11   -1    0    0    0    0 -0.00000000000E+00 -0.00000000000E+00 -0.45593999997E+02  0.45594000000E+02  0.51100000000E-03 0. -1.
    9900012    2    1    2    0    0 -0.19635743111E+02  0.16246205540E+02  0.31680658777E+02  0.50528859053E+02  0.29999997578E+02 0.  0.
         12    1    1    2    0    0  0.19635743111E+02 -0.16246205540E+02 -0.31680658777E+02  0.40659140947E+02  0.00000000000E+00 0. -1.
         11    1    3    3    0    0 -0.57535969346E+01  0.82297554108E+01  0.27852756757E+00  0.10045413365E+02  0.51100000000E-03 0. -1.
        -11    1    3    3    0    0 -0.11555089451E+02  0.14093560969E+02  0.27185952530E+02  0.32729567186E+02  0.51100000000E-03 0.  1.
        -12    1    3    3    0    0 -0.23270567258E+01 -0.60771108395E+01  0.42161786797E+01  0.77538785017E+01  0.00000000000E+00 0.  1.
</event>
<event>
 7    1  0.2966651E-011  0.5052886E+02  0.7816164E-02  0.1300439E+00
        -11   -1    0    0    0    0  0.00000000000E+00  0.00000000000E+00  0.45593999997E+02  0.45594000000E+02  0.51100000000E-03 0. -1.
         11   -1    0    0    0    0 -0.00000000000E+00 -0.00000000000E+00 -0.45593999997E+02  0.45594000000E+02  0.51100000000E-03 0.  1.
    9900012    2    1    2    0    0  0.10037877284E+02  0.38397501604E+02 -0.88339607198E+01  0.50528856234E+02  0.29999989009E+02 0.  0.
         12    1    1    2    0    0 -0.10037877284E+02 -0.38397501604E+02  0.88339607198E+01  0.40659143766E+02  0.00000000000E+00 0. -1.
         11    1    3    3    0    0 -0.78366872503E+00  0.38093387482E+01  0.66848868316E+01  0.77338806935E+01  0.51100000000E-03 0. -1.
        -11    1    3    3    0    0  0.26784570303E+01  0.29526421204E+02 -0.82830681307E+01  0.30782996916E+02  0.51100000000E-03 0.  1.
         12    1    3    3    0    0  0.81430889784E+01  0.50617416516E+01 -0.72357794207E+01  0.12011978625E+02  0.00000000000E+00 0. -1.
</event>
<event>
 7    1  0.2966651E-011  0.5052886E+02  0.7816164E-02  0.1300439E+00
        -11   -1    0    0    0    0  0.00000000000E+00  0.00000000000E+00  0.45593999997E+02  0.45594000000E+02  0.51100000000E-03 0. -1.
         11   -1    0    0    0    0 -0.00000000000E+00 -0.00000000000E+00 -0.45593999997E+02  0.45594000000E+02  0.51100000000E-03 0.  1.
    9900012    2    1    2    0    0  0.19717029715E+02  0.17478555946E+01 -0.35515481601E+02  0.50528859659E+02  0.29999999418E+02 0.  0.
         12    1    1    2    0    0 -0.19717029715E+02 -0.17478555946E+01  0.35515481601E+02  0.40659140341E+02  0.00000000000E+00 0. -1.
         11    1    3    3    0    0  0.21641183917E+02 -0.29041372206E+01 -0.14587232886E+02  0.26259516710E+02  0.51100000000E-03 0. -1.
        -11    1    3    3    0    0 -0.96970885709E-02 -0.34794714722E+01 -0.94713748122E+01  0.10090280316E+02  0.51100000000E-03 0.  1.
         12    1    3    3    0    0 -0.19144571142E+01  0.81314642875E+01 -0.11456873903E+02  0.14179062632E+02  0.00000000000E+00 0. -1.
</event>
<event>
 7    1  0.2966651E-011  0.5052885E+02  0.7816164E-02  0.1300439E+00
        -11   -1    0    0    0    0  0.00000000000E+00  0.00000000000E+00  0.45593999997E+02  0.45594000000E+02  0.51100000000E-03 0.  1.
         11   -1    0    0    0    0 -0.00000000000E+00 -0.00000000000E+00 -0.45593999997E+02  0.45594000000E+02  0.51100000000E-03 0. -1.
    9900012    2    1    2    0    0  0.39865598522E+02 -0.10307083119E+01  0.79270303467E+01  0.50528854470E+02  0.29999983646E+02 0.  0.
         12    1    1    2    0    0 -0.39865598522E+02  0.10307083119E+01 -0.79270303467E+01  0.40659145530E+02  0.00000000000E+00 0. -1.
         11    1    3    3    0    0  0.28863146724E+02 -0.36014238176E+01 -0.50921846753E+01  0.29529338587E+02  0.51100000000E-03 0.  1.
        -11    1    3    3    0    0  0.30289603192E+01  0.65112418924E+01  0.35586856377E+01  0.80146812367E+01  0.51100000000E-03 0. -1.
         12    1    3    3    0    0  0.79734914782E+01 -0.39405263868E+01  0.94605293843E+01  0.12984834646E+02  0.00000000000E+00 0. -1.
</event>
<event>
 7    1  0.2966651E-011  0.5052886E+02  0.7816164E-02  0.1300439E+00
        -11   -1    0    0    0    0  0.00000000000E+00  0.00000000000E+00  0.45593999997E+02  0.45594000000E+02  0.51100000000E-03 0.  1.
         11   -1    0    0    0    0 -0.00000000000E+00 -0.00000000000E+00 -0.45593999997E+02  0.45594000000E+02  0.51100000000E-03 0. -1.
    9900012    2    1    2    0    0 -0.16076979854E+02 -0.34472202225E+02  0.14365358907E+02  0.50528861494E+02  0.30000004998E+02 0.  0.
         12    1    1    2    0    0  0.16076979854E+02  0.34472202225E+02 -0.14365358907E+02  0.40659138506E+02  0.00000000000E+00 0. -1.
         11    1    3    3    0    0 -0.34115633536E+01  0.40225046098E+01  0.57212038013E+00  0.53053397480E+01  0.51100000000E-03 0. -1.
        -11    1    3    3    0    0 -0.12350172589E+02 -0.31775586727E+02  0.54785640861E+01  0.34528674164E+02  0.51100000000E-03 0.  1.
         12    1    3    3    0    0 -0.31524391184E+00 -0.67191201079E+01  0.83146744413E+01  0.10694847582E+02  0.00000000000E+00 0. -1.
</event>
<event>
 7    1  0.2966651E-011  0.5052886E+02  0.7816164E-02  0.1300439E+00
        -11   -1    0    0    0    0  0.00000000000E+00  0.00000000000E+00  0.45593999997E+02  0.45594000000E+02  0.51100000000E-03 0.  1.
         11   -1    0    0    0    0 -0.00000000000E+00 -0.00000000000E+00 -0.45593999997E+02  0.45594000000E+02  0.51100000000E-03 0. -1.
    9900012    2    1    2    0    0 -0.26681758942E+02  0.12075626550E+02  0.28203343674E+02  0.50528860669E+02  0.30000002488E+02 0.  0.
         12    1    1    2    0    0  0.26681758942E+02 -0.12075626550E+02 -0.28203343674E+02  0.40659139331E+02  0.00000000000E+00 0. -1.
         11    1    3    3    0    0 -0.17363817580E+02  0.17486339344E+02  0.26442385105E+02  0.36145178862E+02  0.51100000000E-03 0.  1.
        -11    1    3    3    0    0 -0.10428256492E+02 -0.46100177717E+01  0.37204034285E+01  0.11993423166E+02  0.51100000000E-03 0. -1.
        -12    1    3    3    0    0  0.11103151306E+01 -0.80069502300E+00 -0.19594448599E+01  0.23902586405E+01  0.00000000000E+00 0.  1.
</event>
<event>
 7    1  0.2966651E-011  0.5052885E+02  0.7816164E-02  0.1300439E+00
        -11   -1    0    0    0    0  0.00000000000E+00  0.00000000000E+00  0.45593999997E+02  0.45594000000E+02  0.51100000000E-03 0. -1.
         11   -1    0    0    0    0 -0.00000000000E+00 -0.00000000000E+00 -0.45593999997E+02  0.45594000000E+02  0.51100000000E-03 0.  1.
    9900012    2    1    2    0    0 -0.12192675505E+02  0.38645704610E+02 -0.33188439626E+01  0.50528849172E+02  0.29999967543E+02 0.  0.
         12    1    1    2    0    0  0.12192675505E+02 -0.38645704610E+02  0.33188439626E+01  0.40659150828E+02  0.00000000000E+00 0. -1.
         11    1    3    3    0    0 -0.14489759493E+01  0.82936821105E+01  0.69823666295E+01  0.10937922027E+02  0.51100000000E-03 0. -1.
        -11    1    3    3    0    0  0.19583418947E+00  0.10530459975E+02 -0.13066405453E+02  0.16782725942E+02  0.51100000000E-03 0.  1.
        -12    1    3    3    0    0 -0.10939533745E+02  0.19821562525E+02  0.27651948613E+01  0.22808201203E+02  0.00000000000E+00 0.  1.
</event>
<event>
 7    1  0.2966651E-011  0.5052883E+02  0.7816164E-02  0.1300439E+00
        -11   -1    0    0    0    0  0.00000000000E+00  0.00000000000E+00  0.45593999997E+02  0.45594000000E+02  0.51100000000E-03 0.  1.
         11   -1    0    0    0    0 -0.00000000000E+00 -0.00000000000E+00 -0.45593999997E+02  0.45594000000E+02  0.51100000000E-03 0. -1.
    9900012    2    1    2    0    0 -0.12646188069E+01  0.35587548777E+02  0.19623848158E+02  0.50528827539E+02  0.29999901786E+02 0.  0.
         12    1    1    2    0    0  0.12646188069E+01 -0.35587548777E+02 -0.19623848158E+02  0.40659172461E+02  0.00000000000E+00 0. -1.
         11    1    3    3    0    0  0.80325634202E+01  0.13928912237E+02 -0.77124673336E+00  0.16097561709E+02  0.51100000000E-03 0. -1.
        -11    1    3    3    0    0 -0.71663491892E+01  0.23224449810E+02  0.20483803917E+02  0.31785497524E+02  0.51100000000E-03 0.  1.
         12    1    3    3    0    0 -0.21308330380E+01 -0.15658132698E+01 -0.88709025565E-01  0.26457683048E+01  0.00000000000E+00 0. -1.
</event>
<event>
 7    1  0.2966651E-011  0.5052883E+02  0.7816164E-02  0.1300439E+00
        -11   -1    0    0    0    0  0.00000000000E+00  0.00000000000E+00  0.45593999997E+02  0.45594000000E+02  0.51100000000E-03 0. -1.
         11   -1    0    0    0    0 -0.00000000000E+00 -0.00000000000E+00 -0.45593999997E+02  0.45594000000E+02  0.51100000000E-03 0.  1.
    9900012    2    1    2    0    0  0.35474498723E+02 -0.18048004651E+02 -0.83064836677E+01  0.50528828802E+02  0.29999905628E+02 0.  0.
         12    1    1    2    0    0 -0.35474498723E+02  0.18048004651E+02  0.83064836677E+01  0.40659171198E+02  0.00000000000E+00 0. -1.
         11    1    3    3    0    0  0.91595984750E+01  0.42511158549E+01 -0.39361483485E+01  0.10838057682E+02  0.51100000000E-03 0. -1.
        -11    1    3    3    0    0  0.22222538489E+02 -0.20672677768E+02  0.36208722601E+01  0.30566510092E+02  0.51100000000E-03 0.  1.
        -12    1    3    3    0    0  0.40923617593E+01 -0.16264427378E+01 -0.79912075793E+01  0.91242610289E+01  0.00000000000E+00 0.  1.
</event>
<event>
 7    1  0.2966651E-011  0.5052887E+02  0.7816164E-02  0.1300439E+00
        -11   -1    0    0    0    0  0.00000000000E+00  0.00000000000E+00  0.45593999997E+02  0.45594000000E+02  0.51100000000E-03 0.  1.
         11   -1    0    0    0    0 -0.00000000000E+00 -0.00000000000E+00 -0.45593999997E+02  0.45594000000E+02  0.51100000000E-03 0. -1.
    9900012    2    1    2    0    0  0.22702108076E+02 -0.23675796458E+02  0.24025740060E+02  0.50528865302E+02  0.30000016572E+02 0.  0.
         12    1    1    2    0    0 -0.22702108076E+02  0.23675796458E+02 -0.24025740060E+02  0.40659134698E+02  0.00000000000E+00 0. -1.
         11    1    3    3    0    0  0.57428482092E+01 -0.36266430139E+00 -0.55911208287E+01  0.80232451871E+01  0.51100000000E-03 0. -1.
        -11    1    3    3    0    0  0.11236639285E+02 -0.17799066106E+02  0.14929548791E+02  0.25806205533E+02  0.51100000000E-03 0.  1.
        -12    1    3    3    0    0  0.57226205815E+01 -0.55140660502E+01  0.14687312097E+02  0.16699414582E+02  0.00000000000E+00 0.  1.
</event>
<event>
 7    1  0.2966651E-011  0.5052887E+02  0.7816164E-02  0.1300439E+00
        -11   -1    0    0    0    0  0.00000000000E+00  0.00000000000E+00  0.45593999997E+02  0.45594000000E+02  0.51100000000E-03 0.  1.
         11   -1    0    0    0    0 -0.00000000000E+00 -0.00000000000E+00 -0.45593999997E+02  0.45594000000E+02  0.51100000000E-03 0. -1.
    9900012    2    1    2    0    0  0.21396789324E+02 -0.32765098816E+02  0.11035863212E+02  0.50528873464E+02  0.30000041381E+02 0.  0.
         12    1    1    2    0    0 -0.21396789324E+02  0.32765098816E+02 -0.11035863212E+02  0.40659126536E+02  0.00000000000E+00 0. -1.
         11    1    3    3    0    0 -0.55485441350E+00  0.33221911853E+01 -0.10026211216E+01  0.35142662202E+01  0.51100000000E-03 0. -1.
        -11    1    3    3    0    0  0.11099215310E+02 -0.28598548380E+02  0.13934861459E+02  0.33693469903E+02  0.51100000000E-03 0.  1.
        -12    1    3    3    0    0  0.10852428428E+02 -0.74887416219E+01 -0.18963771254E+01  0.13321137341E+02  0.00000000000E+00 0.  1.
</event>
<event>
 7    1  0.2966651E-011  0.5052886E+02  0.7816164E-02  0.1300439E+00
        -11   -1    0    0    0    0  0.00000000000E+00  0.00000000000E+00  0.45593999997E+02  0.45594000000E+02  0.51100000000E-03 0.  1.
         11   -1    0    0    0    0 -0.00000000000E+00 -0.00000000000E+00 -0.45593999997E+02  0.45594000000E+02  0.51100000000E-03 0. -1.
    9900012    2    1    2    0    0  0.16399215879E+02 -0.55163483089E+01  0.36794041461E+02  0.50528857521E+02  0.29999992920E+02 0.  0.
         12    1    1    2    0    0 -0.16399215879E+02  0.55163483089E+01 -0.36794041461E+02  0.40659142479E+02  0.00000000000E+00 0. -1.
         11    1    3    3    0    0 -0.89615142929E+00 -0.73395342876E+01  0.35371130594E+00  0.74024970714E+01  0.51100000000E-03 0. -1.
        -11    1    3    3    0    0  0.13709141762E+02 -0.29353176303E+01  0.33832106582E+02  0.36621961901E+02  0.51100000000E-03 0.  1.
         12    1    3    3    0    0  0.35862255463E+01  0.47585036090E+01  0.26082235729E+01  0.65043985480E+01  0.00000000000E+00 0. -1.
</event>
<event>
 7    1  0.2966651E-011  0.5052885E+02  0.7816164E-02  0.1300439E+00
        -11   -1    0    0    0    0  0.00000000000E+00  0.00000000000E+00  0.45593999997E+02  0.45594000000E+02  0.51100000000E-03 0. -1.
         11   -1    0    0    0    0 -0.00000000000E+00 -0.00000000000E+00 -0.45593999997E+02  0.45594000000E+02  0.51100000000E-03 0.  1.
    9900012    2    1    2    0    0 -0.39805158889E+02  0.77453859124E+01 -0.29537397023E+01  0.50528852747E+02  0.29999978409E+02 0.  0.
         12    1    1    2    0    0  0.39805158889E+02 -0.77453859124E+01  0.29537397023E+01  0.40659147253E+02  0.00000000000E+00 0. -1.
         11    1    3    3    0    0 -0.13444306099E+02  0.13323285191E+02  0.78566911688E+01  0.20493581706E+02  0.51100000000E-03 0. -1.
        -11    1    3    3    0    0 -0.32826016675E+01 -0.89554446547E+00 -0.45265809834E+01  0.56628093078E+01  0.51100000000E-03 0.  1.
         12    1    3    3    0    0 -0.23078251123E+02 -0.46823548133E+01 -0.62838498877E+01  0.24372461733E+02  0.00000000000E+00 0. -1.
</event>
<event>
 7    1  0.2966651E-011  0.5052887E+02  0.7816164E-02  0.1300439E+00
        -11   -1    0    0    0    0  0.00000000000E+00  0.00000000000E+00  0.45593999997E+02  0.45594000000E+02  0.51100000000E-03 0. -1.
         11   -1    0    0    0    0 -0.00000000000E+00 -0.00000000000E+00 -0.45593999997E+02  0.45594000000E+02  0.51100000000E-03 0.  1.
    9900012    2    1    2    0    0 -0.34280182856E+02 -0.18767258269E+02 -0.11217129960E+02  0.50528869117E+02  0.30000028169E+02 0.  0.
         12    1    1    2    0    0  0.34280182856E+02  0.18767258269E+02  0.11217129960E+02  0.40659130883E+02  0.00000000000E+00 0. -1.
         11    1    3    3    0    0 -0.36390098200E+01 -0.15579471340E+02 -0.48541698093E+01  0.16719009675E+02  0.51100000000E-03 0. -1.
        -11    1    3    3    0    0 -0.26088427724E+02  0.20990843555E+01 -0.58181542651E+01  0.26811623143E+02  0.51100000000E-03 0.  1.
         12    1    3    3    0    0 -0.45527453119E+01 -0.52868712840E+01 -0.54480588575E+00  0.69982362994E+01  0.00000000000E+00 0. -1.
</event>
<event>
 7    1  0.2966651E-011  0.5052885E+02  0.7816164E-02  0.1300439E+00
        -11   -1    0    0    0    0  0.00000000000E+00  0.00000000000E+00  0.45593999997E+02  0.45594000000E+02  0.51100000000E-03 0. -1.
         11   -1    0    0    0    0 -0.00000000000E+00 -0.00000000000E+00 -0.45593999997E+02  0.45594000000E+02  0.51100000000E-03 0.  1.
    9900012    2    1    2    0    0 -0.26106869013E+02  0.19603653224E+02 -0.24234156400E+02  0.50528853848E+02  0.29999981755E+02 0.  0.
         12    1    1    2    0    0  0.26106869013E+02 -0.19603653224E+02  0.24234156400E+02  0.40659146152E+02  0.00000000000E+00 0. -1.
         11    1    3    3    0    0 -0.10586321215E+02  0.21707859156E+02 -0.62339763083E+01  0.24943211639E+02  0.51100000000E-03 0. -1.
        -11    1    3    3    0    0 -0.89392145478E+01  0.10410963641E+00 -0.16055257093E+02  0.18376389094E+02  0.51100000000E-03 0.  1.
        -12    1    3    3    0    0 -0.65813332509E+01 -0.22083155678E+01 -0.19449229989E+01  0.72092531151E+01  0.00000000000E+00 0.  1.
</event>
<event>
 7    1  0.2966651E-011  0.5052886E+02  0.7816164E-02  0.1300439E+00
        -11   -1    0    0    0    0  0.00000000000E+00  0.00000000000E+00  0.45593999997E+02  0.45594000000E+02  0.51100000000E-03 0.  1.
         11   -1    0    0    0    0 -0.00000000000E+00 -0.00000000000E+00 -0.45593999997E+02  0.45594000000E+02  0.51100000000E-03 0. -1.
    9900012    2    1    2    0    0 -0.17854000707E+02  0.21544839084E+02  0.29499500202E+02  0.50528856569E+02  0.29999990027E+02 0.  0.
         12    1    1    2    0    0  0.17854000707E+02 -0.21544839084E+02 -0.29499500202E+02  0.40659143431E+02  0.00000000000E+00 0. -1.
         11    1    3    3    0    0  0.54318331415E+01  0.87326487582E+01  0.15817984715E+02  0.18867236319E+02  0.51100000000E-03 0. -1.
        -11    1    3    3    0    0 -0.10329766244E+02  0.10013071366E+02  0.11068539113E+02  0.18151535119E+02  0.51100000000E-03 0.  1.
         12    1    3    3    0    0 -0.12956067604E+02  0.27991189596E+01  0.26129763739E+01  0.13510085131E+02  0.00000000000E+00 0. -1.
</event>
<event>
 7    1  0.2966651E-011  0.5052886E+02  0.7816164E-02  0.1300439E+00
        -11   -1    0    0    0    0  0.00000000000E+00  0.00000000000E+00  0.45593999997E+02  0.45594000000E+02  0.51100000000E-03 0.  1.
         11   -1    0    0    0    0 -0.00000000000E+00 -0.00000000000E+00 -0.45593999997E+02  0.45594000000E+02  0.51100000000E-03 0. -1.
    9900012    2    1    2    0    0 -0.27785565962E+02  0.11004218189E+02  0.27568728056E+02  0.50528864981E+02  0.30000015598E+02 0.  0.
         12    1    1    2    0    0  0.27785565962E+02 -0.11004218189E+02 -0.27568728056E+02  0.40659135019E+02  0.00000000000E+00 0. -1.
         11    1    3    3    0    0 -0.15693596108E+02  0.19878286566E+02  0.18636548030E+02  0.31444493291E+02  0.51100000000E-03 0. -1.
        -11    1    3    3    0    0 -0.12252720346E+02 -0.94782041428E+01  0.68997167254E+01  0.16957936219E+02  0.51100000000E-03 0.  1.
        -12    1    3    3    0    0  0.16075049170E+00  0.60413576636E+00  0.20324633005E+01  0.21264354711E+01  0.00000000000E+00 0.  1.
</event>
<event>
 7    1  0.2966651E-011  0.5052886E+02  0.7816164E-02  0.1300439E+00
        -11   -1    0    0    0    0  0.00000000000E+00  0.00000000000E+00  0.45593999997E+02  0.45594000000E+02  0.51100000000E-03 0. -1.
         11   -1    0    0    0    0 -0.00000000000E+00 -0.00000000000E+00 -0.45593999997E+02  0.45594000000E+02  0.51100000000E-03 0.  1.
    9900012    2    1    2    0    0 -0.16080504174E+02 -0.21075157975E+02 -0.30828893429E+02  0.50528861197E+02  0.30000004094E+02 0.  0.
         12    1    1    2    0    0  0.16080504174E+02  0.21075157975E+02  0.30828893429E+02  0.40659138803E+02  0.00000000000E+00 0. -1.
         11    1    3    3    0    0 -0.14698228722E+02 -0.70417702881E+01 -0.40839797341E+01  0.16801885224E+02  0.51100000000E-03 0. -1.
        -11    1    3    3    0    0  0.26828740508E+01 -0.62219400002E+00 -0.15546250276E+02  0.15788313287E+02  0.51100000000E-03 0.  1.
         12    1    3    3    0    0 -0.40651495023E+01 -0.13411193687E+02 -0.11198663419E+02  0.17938662686E+02  0.00000000000E+00 0. -1.
</event>
<event>
 7    1  0.2966651E-011  0.5052886E+02  0.7816164E-02  0.1300439E+00
        -11   -1    0    0    0    0  0.00000000000E+00  0.00000000000E+00  0.45593999997E+02  0.45594000000E+02  0.51100000000E-03 0.  1.
         11   -1    0    0    0    0 -0.00000000000E+00 -0.00000000000E+00 -0.45593999997E+02  0.45594000000E+02  0.51100000000E-03 0. -1.
    9900012    2    1    2    0    0  0.10635973599E+02 -0.60867894489E+01  0.38768447881E+02  0.50528862143E+02  0.30000006970E+02 0.  0.
         12    1    1    2    0    0 -0.10635973599E+02  0.60867894489E+01 -0.38768447881E+02  0.40659137857E+02  0.00000000000E+00 0. -1.
         11    1    3    3    0    0 -0.81134363542E+01  0.58158423967E-01  0.78140306605E+01  0.11264559792E+02  0.51100000000E-03 0. -1.
        -11    1    3    3    0    0  0.10519230717E+02 -0.20693794006E+01  0.51881881852E+01  0.11910241093E+02  0.51100000000E-03 0.  1.
         12    1    3    3    0    0  0.82301792356E+01 -0.40755684723E+01  0.25766229035E+02  0.27354061258E+02  0.00000000000E+00 0. -1.
</event>
<event>
 7    1  0.2966651E-011  0.5052885E+02  0.7816164E-02  0.1300439E+00
        -11   -1    0    0    0    0  0.00000000000E+00  0.00000000000E+00  0.45593999997E+02  0.45594000000E+02  0.51100000000E-03 0.  1.
         11   -1    0    0    0    0 -0.00000000000E+00 -0.00000000000E+00 -0.45593999997E+02  0.45594000000E+02  0.51100000000E-03 0. -1.
    9900012    2    1    2    0    0  0.36306355090E+01  0.30766400188E+02  0.26332742909E+02  0.50528852889E+02  0.29999978840E+02 0.  0.
         12    1    1    2    0    0 -0.36306355090E+01 -0.30766400188E+02 -0.26332742909E+02  0.40659147111E+02  0.00000000000E+00 0. -1.
         11    1    3    3    0    0  0.12104307689E+02  0.23535529160E+02  0.12724934429E+02  0.29365955696E+02  0.51100000000E-03 0. -1.
        -11    1    3    3    0    0 -0.11352486927E+02  0.53823602367E+01  0.91449906532E+01  0.15539614392E+02  0.51100000000E-03 0.  1.
         12    1    3    3    0    0  0.28788147476E+01  0.18485107909E+01  0.44628178270E+01  0.56232828002E+01  0.00000000000E+00 0. -1.
</event>
<event>
 7    1  0.2966651E-011  0.5052886E+02  0.7816164E-02  0.1300439E+00
        -11   -1    0    0    0    0  0.00000000000E+00  0.00000000000E+00  0.45593999997E+02  0.45594000000E+02  0.51100000000E-03 0.  1.
         11   -1    0    0    0    0 -0.00000000000E+00 -0.00000000000E+00 -0.45593999997E+02  0.45594000000E+02  0.51100000000E-03 0. -1.
    9900012    2    1    2    0    0  0.46528137360E+01  0.30380412356E+02  0.26618554455E+02  0.50528861152E+02  0.30000003958E+02 0.  0.
         12    1    1    2    0    0 -0.46528137360E+01 -0.30380412356E+02 -0.26618554455E+02  0.40659138848E+02  0.00000000000E+00 0. -1.
         11    1    3    3    0    0 -0.33616388300E+01  0.91830093211E+01 -0.46750513979E+01  0.10839021250E+02  0.51100000000E-03 0. -1.
        -11    1    3    3    0    0 -0.17410744214E+01  0.58707940557E+01  0.96855603391E+01  0.11458954679E+02  0.51100000000E-03 0.  1.
         12    1    3    3    0    0  0.97555269874E+01  0.15326608979E+02  0.21608045514E+02  0.28230885224E+02  0.00000000000E+00 0. -1.
</event>
<event>
 7    1  0.2966651E-011  0.5052885E+02  0.7816164E-02  0.1300439E+00
        -11   -1    0    0    0    0  0.00000000000E+00  0.00000000000E+00  0.45593999997E+02  0.45594000000E+02  0.51100000000E-03 0.  1.
         11   -1    0    0    0    0 -0.00000000000E+00 -0.00000000000E+00 -0.45593999997E+02  0.45594000000E+02  0.51100000000E-03 0. -1.
    9900012    2    1    2    0    0  0.28536307654E+01  0.16025958187E+02  0.37258443369E+02  0.50528854083E+02  0.29999982472E+02 0.  0.
         12    1    1    2    0    0 -0.28536307654E+01 -0.16025958187E+02 -0.37258443369E+02  0.40659145917E+02  0.00000000000E+00 0. -1.
         11    1    3    3    0    0 -0.24391700335E+01 -0.35524738158E+01 -0.60940361683E+00  0.43521251928E+01  0.51100000000E-03 0. -1.
        -11    1    3    3    0    0  0.31772691003E+01  0.22322987840E+02  0.29582406190E+02  0.37195827471E+02  0.51100000000E-03 0.  1.
         12    1    3    3    0    0  0.21155316987E+01 -0.27445558370E+01  0.82854407963E+01  0.89809014191E+01  0.00000000000E+00 0. -1.
</event>
<event>
 7    1  0.2966651E-011  0.5052883E+02  0.7816164E-02  0.1300439E+00
        -11   -1    0    0    0    0  0.00000000000E+00  0.00000000000E+00  0.45593999997E+02  0.45594000000E+02  0.51100000000E-03 0.  1.
         11   -1    0    0    0    0 -0.00000000000E+00 -0.00000000000E+00 -0.45593999997E+02  0.45594000000E+02  0.51100000000E-03 0. -1.
    9900012    2    1    2    0    0 -0.40190133497E+02 -0.93558747727E+00 -0.60865104672E+01  0.50528834193E+02  0.29999922014E+02 0.  0.
         12    1    1    2    0    0  0.40190133497E+02  0.93558747727E+00  0.60865104672E+01  0.40659165807E+02  0.00000000000E+00 0. -1.
         11    1    3    3    0    0  0.18419226841E+01  0.24730983429E+01 -0.39660335978E+01  0.50237752087E+01  0.51100000000E-03 0. -1.
        -11    1    3    3    0    0 -0.22764318443E+02 -0.19034529453E+01  0.73310433788E+01  0.23991280178E+02  0.51100000000E-03 0.  1.
         12    1    3    3    0    0 -0.19267737738E+02 -0.15052328748E+01 -0.94515202482E+01  0.21513778807E+02  0.00000000000E+00 0. -1.
</event>
<event>
 7    1  0.2966651E-011  0.5052886E+02  0.7816164E-02  0.1300439E+00
        -11   -1    0    0    0    0  0.00000000000E+00  0.00000000000E+00  0.45593999997E+02  0.45594000000E+02  0.51100000000E-03 0. -1.
         11   -1    0    0    0    0 -0.00000000000E+00 -0.00000000000E+00 -0.45593999997E+02  0.45594000000E+02  0.51100000000E-03 0.  1.
    9900012    2    1    2    0    0  0.16043175004E+02 -0.58280886258E+01 -0.36902785584E+02  0.50528860005E+02  0.30000000473E+02 0.  0.
         12    1    1    2    0    0 -0.16043175004E+02  0.58280886258E+01  0.36902785584E+02  0.40659139995E+02  0.00000000000E+00 0. -1.
         11    1    3    3    0    0  0.35059719148E+01 -0.13859252998E+02 -0.11223002675E+02  0.18174887125E+02  0.51100000000E-03 0. -1.
        -11    1    3    3    0    0 -0.21780453547E+01  0.20892977543E+01 -0.82358972065E+01  0.87714907359E+01  0.51100000000E-03 0.  1.
         12    1    3    3    0    0  0.14715248444E+02  0.59418666176E+01 -0.17443885703E+02  0.23582482144E+02  0.00000000000E+00 0. -1.
</event>
<event>
 7    1  0.2966651E-011  0.5052886E+02  0.7816164E-02  0.1300439E+00
        -11   -1    0    0    0    0  0.00000000000E+00  0.00000000000E+00  0.45593999997E+02  0.45594000000E+02  0.51100000000E-03 0.  1.
         11   -1    0    0    0    0 -0.00000000000E+00 -0.00000000000E+00 -0.45593999997E+02  0.45594000000E+02  0.51100000000E-03 0. -1.
    9900012    2    1    2    0    0 -0.25184228306E+02 -0.22394140177E+02  0.22746926839E+02  0.50528861418E+02  0.30000004765E+02 0.  0.
         12    1    1    2    0    0  0.25184228306E+02  0.22394140177E+02 -0.22746926839E+02  0.40659138582E+02  0.00000000000E+00 0. -1.
         11    1    3    3    0    0 -0.16344033543E+02 -0.24276316045E+01  0.39067371597E+01  0.16978911130E+02  0.51100000000E-03 0. -1.
        -11    1    3    3    0    0 -0.78268089407E+01 -0.22917030059E+02  0.14571103340E+02  0.28262453144E+02  0.51100000000E-03 0.  1.
        -12    1    3    3    0    0 -0.10133858219E+01  0.29505214865E+01  0.42690863399E+01  0.52874971436E+01  0.00000000000E+00 0.  1.
</event>
<event>
 7    1  0.2966651E-011  0.5052884E+02  0.7816164E-02  0.1300439E+00
        -11   -1    0    0    0    0  0.00000000000E+00  0.00000000000E+00  0.45593999997E+02  0.45594000000E+02  0.51100000000E-03 0.  1.
         11   -1    0    0    0    0 -0.00000000000E+00 -0.00000000000E+00 -0.45593999997E+02  0.45594000000E+02  0.51100000000E-03 0. -1.
    9900012    2    1    2    0    0  0.30704279073E+02  0.24783548410E+02  0.98076601362E+01  0.50528840853E+02  0.29999942256E+02 0.  0.
         12    1    1    2    0    0 -0.30704279073E+02 -0.24783548410E+02 -0.98076601362E+01  0.40659159147E+02  0.00000000000E+00 0. -1.
         11    1    3    3    0    0  0.13561595503E+02  0.32201032743E+01 -0.65142372242E+01  0.15385747449E+02  0.51100000000E-03 0. -1.
        -11    1    3    3    0    0  0.51755060355E+01  0.14961578905E+02  0.31103968431E+01  0.16134102852E+02  0.51100000000E-03 0.  1.
         12    1    3    3    0    0  0.11967177535E+02  0.66018662309E+01  0.13211500517E+02  0.19008990552E+02  0.00000000000E+00 0. -1.
</event>
<event>
 7    1  0.2966651E-011  0.5052876E+02  0.7816164E-02  0.1300439E+00
        -11   -1    0    0    0    0  0.00000000000E+00  0.00000000000E+00  0.45593999997E+02  0.45594000000E+02  0.51100000000E-03 0.  1.
         11   -1    0    0    0    0 -0.00000000000E+00 -0.00000000000E+00 -0.45593999997E+02  0.45594000000E+02  0.51100000000E-03 0. -1.
    9900012    2    1    2    0    0 -0.20621388792E+02  0.48659491622E+01  0.34702377095E+02  0.50528756119E+02  0.29999684697E+02 0.  0.
         12    1    1    2    0    0  0.20621388792E+02 -0.48659491622E+01 -0.34702377095E+02  0.40659243881E+02  0.00000000000E+00 0. -1.
         11    1    3    3    0    0 -0.57748680731E+01  0.13856654221E+02  0.53777749128E+01  0.15946047496E+02  0.51100000000E-03 0. -1.
        -11    1    3    3    0    0 -0.14868986503E+02 -0.84809419545E+01  0.29444410670E+02  0.34058573899E+02  0.51100000000E-03 0.  1.
        -12    1    3    3    0    0  0.22465783798E-01 -0.50976310464E+00 -0.11980848845E+00  0.52413472333E+00  0.00000000000E+00 0.  1.
</event>
<event>
 7    1  0.2966651E-011  0.5052886E+02  0.7816164E-02  0.1300439E+00
        -11   -1    0    0    0    0  0.00000000000E+00  0.00000000000E+00  0.45593999997E+02  0.45594000000E+02  0.51100000000E-03 0.  1.
         11   -1    0    0    0    0 -0.00000000000E+00 -0.00000000000E+00 -0.45593999997E+02  0.45594000000E+02  0.51100000000E-03 0. -1.
    9900012    2    1    2    0    0  0.38957313127E+02 -0.55854392686E+01  0.10212544583E+02  0.50528862715E+02  0.30000008708E+02 0.  0.
         12    1    1    2    0    0 -0.38957313127E+02  0.55854392686E+01 -0.10212544583E+02  0.40659137285E+02  0.00000000000E+00 0. -1.
         11    1    3    3    0    0  0.12813299844E+02 -0.85713308315E+01  0.72833647854E+01  0.17049802579E+02  0.51100000000E-03 0.  1.
        -11    1    3    3    0    0  0.17579205136E+02  0.98883969597E+01  0.75657344426E+01  0.21541800889E+02  0.51100000000E-03 0. -1.
        -12    1    3    3    0    0  0.85648081471E+01 -0.69025053967E+01 -0.46365546446E+01  0.11937259247E+02  0.00000000000E+00 0.  1.
</event>
<event>
 7    1  0.2966651E-011  0.5052880E+02  0.7816164E-02  0.1300439E+00
        -11   -1    0    0    0    0  0.00000000000E+00  0.00000000000E+00  0.45593999997E+02  0.45594000000E+02  0.51100000000E-03 0.  1.
         11   -1    0    0    0    0 -0.00000000000E+00 -0.00000000000E+00 -0.45593999997E+02  0.45594000000E+02  0.51100000000E-03 0. -1.
    9900012    2    1    2    0    0  0.22861646392E+02 -0.18215426211E+02  0.28261528331E+02  0.50528799180E+02  0.29999815586E+02 0.  0.
         12    1    1    2    0    0 -0.22861646392E+02  0.18215426211E+02 -0.28261528331E+02  0.40659200820E+02  0.00000000000E+00 0. -1.
         11    1    3    3    0    0  0.68100561442E+01 -0.18291306283E+02  0.18378229712E+02  0.26808731373E+02  0.51100000000E-03 0. -1.
        -11    1    3    3    0    0  0.16711270582E+02 -0.38341166289E+01  0.59864848735E+01  0.18160534579E+02  0.51100000000E-03 0.  1.
         12    1    3    3    0    0 -0.65968033476E+00  0.39099967011E+01  0.38968137451E+01  0.55595332278E+01  0.00000000000E+00 0. -1.
</event>
<event>
 7    1  0.2966651E-011  0.5052887E+02  0.7816164E-02  0.1300439E+00
        -11   -1    0    0    0    0  0.00000000000E+00  0.00000000000E+00  0.45593999997E+02  0.45594000000E+02  0.51100000000E-03 0.  1.
         11   -1    0    0    0    0 -0.00000000000E+00 -0.00000000000E+00 -0.45593999997E+02  0.45594000000E+02  0.51100000000E-03 0. -1.
    9900012    2    1    2    0    0 -0.24178527470E+02 -0.31592353431E+02 -0.83956675195E+01  0.50528865491E+02  0.30000017147E+02 0.  0.
         12    1    1    2    0    0  0.24178527470E+02  0.31592353431E+02  0.83956675195E+01  0.40659134509E+02  0.00000000000E+00 0. -1.
         11    1    3    3    0    0 -0.23023310729E+02 -0.25868094818E+02 -0.16686495505E+02  0.38440477351E+02  0.51100000000E-03 0. -1.
        -11    1    3    3    0    0 -0.75359801308E+00 -0.66323343593E+01  0.87409665280E+01  0.10998193721E+02  0.51100000000E-03 0.  1.
        -12    1    3    3    0    0 -0.40161872798E+00  0.90807574681E+00 -0.45013854266E+00  0.10901944194E+01  0.00000000000E+00 0.  1.
</event>
<event>
 7    1  0.2966651E-011  0.5052886E+02  0.7816164E-02  0.1300439E+00
        -11   -1    0    0    0    0  0.00000000000E+00  0.00000000000E+00  0.45593999997E+02  0.45594000000E+02  0.51100000000E-03 0. -1.
         11   -1    0    0    0    0 -0.00000000000E+00 -0.00000000000E+00 -0.45593999997E+02  0.45594000000E+02  0.51100000000E-03 0.  1.
    9900012    2    1    2    0    0 -0.31724020666E+02 -0.21155267482E+02 -0.14114056205E+02  0.50528863118E+02  0.30000009932E+02 0.  0.
         12    1    1    2    0    0  0.31724020666E+02  0.21155267482E+02  0.14114056205E+02  0.40659136882E+02  0.00000000000E+00 0. -1.
         11    1    3    3    0    0 -0.23729703780E+02 -0.16467019578E+02 -0.29715699829E+01  0.29036043183E+02  0.51100000000E-03 0.  1.
        -11    1    3    3    0    0 -0.30915365763E+00  0.39196624510E+01  0.16506715239E+01  0.42642756073E+01  0.51100000000E-03 0. -1.
        -12    1    3    3    0    0 -0.76851632282E+01 -0.86079103553E+01 -0.12793157746E+02  0.17228544328E+02  0.00000000000E+00 0.  1.
</event>
<event>
 7    1  0.2966651E-011  0.5052886E+02  0.7816164E-02  0.1300439E+00
        -11   -1    0    0    0    0  0.00000000000E+00  0.00000000000E+00  0.45593999997E+02  0.45594000000E+02  0.51100000000E-03 0.  1.
         11   -1    0    0    0    0 -0.00000000000E+00 -0.00000000000E+00 -0.45593999997E+02  0.45594000000E+02  0.51100000000E-03 0. -1.
    9900012    2    1    2    0    0  0.31445725530E+01  0.35285876415E+01  0.40383491322E+02  0.50528860331E+02  0.30000001461E+02 0.  0.
         12    1    1    2    0    0 -0.31445725530E+01 -0.35285876415E+01 -0.40383491322E+02  0.40659139669E+02  0.00000000000E+00 0. -1.
         11    1    3    3    0    0 -0.25302264114E+01  0.10977164427E+02  0.87287585193E+01  0.14251014353E+02  0.51100000000E-03 0. -1.
        -11    1    3    3    0    0  0.63071598968E+01  0.42725150268E+00  0.25473234677E+02  0.26245923397E+02  0.51100000000E-03 0.  1.
         12    1    3    3    0    0 -0.63236093246E+00 -0.78758282881E+01  0.61814981260E+01  0.10031922580E+02  0.00000000000E+00 0. -1.
</event>
<event>
 7    1  0.2966651E-011  0.5052886E+02  0.7816164E-02  0.1300439E+00
        -11   -1    0    0    0    0  0.00000000000E+00  0.00000000000E+00  0.45593999997E+02  0.45594000000E+02  0.51100000000E-03 0.  1.
         11   -1    0    0    0    0 -0.00000000000E+00 -0.00000000000E+00 -0.45593999997E+02  0.45594000000E+02  0.51100000000E-03 0. -1.
    9900012    2    1    2    0    0  0.39347919342E+01 -0.81007843480E+01  0.39649218960E+02  0.50528857624E+02  0.29999993233E+02 0.  0.
         12    1    1    2    0    0 -0.39347919342E+01  0.81007843480E+01 -0.39649218960E+02  0.40659142376E+02  0.00000000000E+00 0. -1.
         11    1    3    3    0    0 -0.89525877621E+01 -0.12540121813E+02  0.27056946946E+02  0.31136503673E+02  0.51100000000E-03 0. -1.
        -11    1    3    3    0    0  0.12601424253E+02  0.35279384577E+01  0.12913289508E+02  0.18384648192E+02  0.51100000000E-03 0.  1.
        -12    1    3    3    0    0  0.28595544351E+00  0.91139900675E+00 -0.32101749339E+00  0.10077057588E+01  0.00000000000E+00 0.  1.
</event>
<event>
 7    1  0.2966651E-011  0.5052886E+02  0.7816164E-02  0.1300439E+00
        -11   -1    0    0    0    0  0.00000000000E+00  0.00000000000E+00  0.45593999997E+02  0.45594000000E+02  0.51100000000E-03 0.  1.
         11   -1    0    0    0    0 -0.00000000000E+00 -0.00000000000E+00 -0.45593999997E+02  0.45594000000E+02  0.51100000000E-03 0. -1.
    9900012    2    1    2    0    0 -0.35037013325E+02  0.98109084023E+01  0.18147150818E+02  0.50528864382E+02  0.30000013775E+02 0.  0.
         12    1    1    2    0    0  0.35037013325E+02 -0.98109084023E+01 -0.18147150818E+02  0.40659135618E+02  0.00000000000E+00 0. -1.
         11    1    3    3    0    0 -0.10959114745E+02  0.10110295473E+02 -0.11531064258E+01  0.14954929797E+02  0.51100000000E-03 0. -1.
        -11    1    3    3    0    0 -0.15932166475E+02 -0.61744546864E+01  0.18962096573E+02  0.25524868774E+02  0.51100000000E-03 0.  1.
        -12    1    3    3    0    0 -0.81457321055E+01  0.58750676158E+01  0.33816067060E+00  0.10049065810E+02  0.00000000000E+00 0.  1.
</event>
<event>
 7    1  0.2966651E-011  0.5052886E+02  0.7816164E-02  0.1300439E+00
        -11   -1    0    0    0    0  0.00000000000E+00  0.00000000000E+00  0.45593999997E+02  0.45594000000E+02  0.51100000000E-03 0.  1.
         11   -1    0    0    0    0 -0.00000000000E+00 -0.00000000000E+00 -0.45593999997E+02  0.45594000000E+02  0.51100000000E-03 0. -1.
    9900012    2    1    2    0    0  0.15308904031E+02  0.39978616373E+01  0.37454240847E+02  0.50528860833E+02  0.30000002989E+02 0.  0.
         12    1    1    2    0    0 -0.15308904031E+02 -0.39978616373E+01 -0.37454240847E+02  0.40659139167E+02  0.00000000000E+00 0. -1.
         11    1    3    3    0    0 -0.81665576048E+01 -0.56998117097E+00  0.74092982373E+01  0.11041523549E+02  0.51100000000E-03 0. -1.
        -11    1    3    3    0    0  0.12209685020E+02 -0.18204121158E+01  0.11525160404E+02  0.16888446677E+02  0.51100000000E-03 0.  1.
         12    1    3    3    0    0  0.11265776617E+02  0.63882549241E+01  0.18519782206E+02  0.22598890608E+02  0.00000000000E+00 0. -1.
</event>
<event>
 7    1  0.2966651E-011  0.5052886E+02  0.7816164E-02  0.1300439E+00
        -11   -1    0    0    0    0  0.00000000000E+00  0.00000000000E+00  0.45593999997E+02  0.45594000000E+02  0.51100000000E-03 0.  1.
         11   -1    0    0    0    0 -0.00000000000E+00 -0.00000000000E+00 -0.45593999997E+02  0.45594000000E+02  0.51100000000E-03 0. -1.
    9900012    2    1    2    0    0 -0.31918849915E+02  0.63684965466E+01  0.24367910982E+02  0.50528858176E+02  0.29999994913E+02 0.  0.
         12    1    1    2    0    0  0.31918849915E+02 -0.63684965466E+01 -0.24367910982E+02  0.40659141824E+02  0.00000000000E+00 0. -1.
         11    1    3    3    0    0 -0.39901116379E+01  0.75005510001E+01 -0.45322533271E+01  0.96291524378E+01  0.51100000000E-03 0. -1.
        -11    1    3    3    0    0 -0.17212871372E+02 -0.17681125316E+01  0.12692486133E+02  0.21459458690E+02  0.51100000000E-03 0.  1.
         12    1    3    3    0    0 -0.10715866906E+02  0.63605807814E+00  0.16207678177E+02  0.19440247048E+02  0.00000000000E+00 0. -1.
</event>
<event>
 7    1  0.2966651E-011  0.5052886E+02  0.7816164E-02  0.1300439E+00
        -11   -1    0    0    0    0  0.00000000000E+00  0.00000000000E+00  0.45593999997E+02  0.45594000000E+02  0.51100000000E-03 0. -1.
         11   -1    0    0    0    0 -0.00000000000E+00 -0.00000000000E+00 -0.45593999997E+02  0.45594000000E+02  0.51100000000E-03 0.  1.
    9900012    2    1    2    0    0  0.21999692957E+02  0.60112901012E+01 -0.33660712267E+02  0.50528860201E+02  0.30000001067E+02 0.  0.
         12    1    1    2    0    0 -0.21999692957E+02 -0.60112901012E+01  0.33660712267E+02  0.40659139799E+02  0.00000000000E+00 0. -1.
         11    1    3    3    0    0  0.11175084691E+02 -0.30746022333E+01  0.16131325396E+01  0.11702046556E+02  0.51100000000E-03 0. -1.
        -11    1    3    3    0    0  0.23429335163E+01  0.32610645084E+01 -0.20075521375E+02  0.20473163848E+02  0.51100000000E-03 0.  1.
         12    1    3    3    0    0  0.84816747495E+01  0.58248278261E+01 -0.15198323431E+02  0.18353649797E+02  0.00000000000E+00 0. -1.
</event>
<event>
 7    1  0.2966651E-011  0.5052886E+02  0.7816164E-02  0.1300439E+00
        -11   -1    0    0    0    0  0.00000000000E+00  0.00000000000E+00  0.45593999997E+02  0.45594000000E+02  0.51100000000E-03 0.  1.
         11   -1    0    0    0    0 -0.00000000000E+00 -0.00000000000E+00 -0.45593999997E+02  0.45594000000E+02  0.51100000000E-03 0. -1.
    9900012    2    1    2    0    0  0.12153292619E+02  0.34956867152E+02  0.16836883805E+02  0.50528859099E+02  0.29999997718E+02 0.  0.
         12    1    1    2    0    0 -0.12153292619E+02 -0.34956867152E+02 -0.16836883805E+02  0.40659140901E+02  0.00000000000E+00 0. -1.
         11    1    3    3    0    0 -0.68625244689E+01  0.16551519593E+02  0.12255349577E+02  0.21708077677E+02  0.51100000000E-03 0. -1.
        -11    1    3    3    0    0  0.18247132951E+02  0.12394764288E+02  0.53895629958E+01  0.22707607365E+02  0.51100000000E-03 0.  1.
        -12    1    3    3    0    0  0.76868413654E+00  0.60105832711E+01 -0.80802876837E+00  0.61131740570E+01  0.00000000000E+00 0.  1.
</event>
<event>
 7    1  0.2966651E-011  0.5052879E+02  0.7816164E-02  0.1300439E+00
        -11   -1    0    0    0    0  0.00000000000E+00  0.00000000000E+00  0.45593999997E+02  0.45594000000E+02  0.51100000000E-03 0. -1.
         11   -1    0    0    0    0 -0.00000000000E+00 -0.00000000000E+00 -0.45593999997E+02  0.45594000000E+02  0.51100000000E-03 0.  1.
    9900012    2    1    2    0    0 -0.20512489894E+02 -0.29572269804E+02 -0.18917983779E+02  0.50528788334E+02  0.29999782619E+02 0.  0.
         12    1    1    2    0    0  0.20512489894E+02  0.29572269804E+02  0.18917983779E+02  0.40659211666E+02  0.00000000000E+00 0. -1.
         11    1    3    3    0    0 -0.20818921085E+02 -0.26284940220E+02 -0.17893778344E+02  0.38006747575E+02  0.51100000000E-03 0. -1.
        -11    1    3    3    0    0  0.39473302811E+01 -0.14282928716E+01 -0.51968967997E+01  0.66805069780E+01  0.51100000000E-03 0.  1.
         12    1    3    3    0    0 -0.36408990908E+01 -0.18590367126E+01  0.41726913650E+01  0.58415337811E+01  0.00000000000E+00 0. -1.
</event>
<event>
 7    1  0.2966651E-011  0.5052886E+02  0.7816164E-02  0.1300439E+00
        -11   -1    0    0    0    0  0.00000000000E+00  0.00000000000E+00  0.45593999997E+02  0.45594000000E+02  0.51100000000E-03 0.  1.
         11   -1    0    0    0    0 -0.00000000000E+00 -0.00000000000E+00 -0.45593999997E+02  0.45594000000E+02  0.51100000000E-03 0. -1.
    9900012    2    1    2    0    0 -0.38539920816E+02  0.11834495714E+01  0.12901151492E+02  0.50528858848E+02  0.29999996955E+02 0.  0.
         12    1    1    2    0    0  0.38539920816E+02 -0.11834495714E+01 -0.12901151492E+02  0.40659141152E+02  0.00000000000E+00 0. -1.
         11    1    3    3    0    0 -0.64237283249E+01 -0.38454928570E+01  0.10007369391E+02  0.12497981569E+02  0.51100000000E-03 0. -1.
        -11    1    3    3    0    0 -0.29910304474E+02  0.54157541934E+00 -0.32706393765E+01  0.30093466066E+02  0.51100000000E-03 0.  1.
        -12    1    3    3    0    0 -0.22058880171E+01  0.44873670091E+01  0.61644214776E+01  0.79374112135E+01  0.00000000000E+00 0.  1.
</event>
<event>
 7    1  0.2966651E-011  0.5052887E+02  0.7816164E-02  0.1300439E+00
        -11   -1    0    0    0    0  0.00000000000E+00  0.00000000000E+00  0.45593999997E+02  0.45594000000E+02  0.51100000000E-03 0. -1.
         11   -1    0    0    0    0 -0.00000000000E+00 -0.00000000000E+00 -0.45593999997E+02  0.45594000000E+02  0.51100000000E-03 0.  1.
    9900012    2    1    2    0    0  0.26618930106E+02 -0.93775814819E+01 -0.29268730681E+02  0.50528867322E+02  0.30000022712E+02 0.  0.
         12    1    1    2    0    0 -0.26618930106E+02  0.93775814819E+01  0.29268730681E+02  0.40659132678E+02  0.00000000000E+00 0. -1.
         11    1    3    3    0    0  0.25292224151E+02 -0.37478463245E+01 -0.82059866910E+01  0.26852954631E+02  0.51100000000E-03 0. -1.
        -11    1    3    3    0    0  0.48997211216E+01 -0.52848711841E+01 -0.13440348256E+02  0.15250576776E+02  0.51100000000E-03 0.  1.
         12    1    3    3    0    0 -0.35730151673E+01 -0.34486397325E+00 -0.76223957347E+01  0.84253359151E+01  0.00000000000E+00 0. -1.
</event>
<event>
 7    1  0.2966651E-011  0.5052886E+02  0.7816164E-02  0.1300439E+00
        -11   -1    0    0    0    0  0.00000000000E+00  0.00000000000E+00  0.45593999997E+02  0.45594000000E+02  0.51100000000E-03 0.  1.
         11   -1    0    0    0    0 -0.00000000000E+00 -0.00000000000E+00 -0.45593999997E+02  0.45594000000E+02  0.51100000000E-03 0. -1.
    9900012    2    1    2    0    0  0.37328309299E+02 -0.89614347757E+01  0.13396116603E+02  0.50528856768E+02  0.29999990631E+02 0.  0.
         12    1    1    2    0    0 -0.37328309299E+02  0.89614347757E+01 -0.13396116603E+02  0.40659143232E+02  0.00000000000E+00 0. -1.
         11    1    3    3    0    0  0.18229526084E+02  0.11817383230E+01 -0.61364614128E+01  0.19270918132E+02  0.51100000000E-03 0. -1.
        -11    1    3    3    0    0  0.15325929400E+02 -0.12531562651E+02  0.14560098371E+02  0.24574796831E+02  0.51100000000E-03 0.  1.
         12    1    3    3    0    0  0.37728538149E+01  0.23883895526E+01  0.49724796449E+01  0.66831418047E+01  0.00000000000E+00 0. -1.
</event>
<event>
 7    1  0.2966651E-011  0.5052886E+02  0.7816164E-02  0.1300439E+00
        -11   -1    0    0    0    0  0.00000000000E+00  0.00000000000E+00  0.45593999997E+02  0.45594000000E+02  0.51100000000E-03 0. -1.
         11   -1    0    0    0    0 -0.00000000000E+00 -0.00000000000E+00 -0.45593999997E+02  0.45594000000E+02  0.51100000000E-03 0.  1.
    9900012    2    1    2    0    0  0.22038237546E+02  0.22325269506E+02 -0.25866265729E+02  0.50528864798E+02  0.30000015040E+02 0.  0.
         12    1    1    2    0    0 -0.22038237546E+02 -0.22325269506E+02  0.25866265729E+02  0.40659135202E+02  0.00000000000E+00 0. -1.
         11    1    3    3    0    0  0.15721460128E+02  0.59181395962E+01 -0.96404379687E+01  0.19368188592E+02  0.51100000000E-03 0. -1.
        -11    1    3    3    0    0  0.58152139463E+01  0.17556538945E+02 -0.19966141628E+02  0.27215723116E+02  0.51100000000E-03 0.  1.
        -12    1    3    3    0    0  0.50156347169E+00 -0.11494090350E+01  0.37403138685E+01  0.39449530898E+01  0.00000000000E+00 0.  1.
</event>
<event>
 7    1  0.2966651E-011  0.5052885E+02  0.7816164E-02  0.1300439E+00
        -11   -1    0    0    0    0  0.00000000000E+00  0.00000000000E+00  0.45593999997E+02  0.45594000000E+02  0.51100000000E-03 0.  1.
         11   -1    0    0    0    0 -0.00000000000E+00 -0.00000000000E+00 -0.45593999997E+02  0.45594000000E+02  0.51100000000E-03 0. -1.
    9900012    2    1    2    0    0 -0.23471696692E+02 -0.30458315292E+02  0.13211236776E+02  0.50528852282E+02  0.29999976996E+02 0.  0.
         12    1    1    2    0    0  0.23471696692E+02  0.30458315292E+02 -0.13211236776E+02  0.40659147718E+02  0.00000000000E+00 0. -1.
         11    1    3    3    0    0 -0.50051616460E+01  0.49300255768E+00  0.51961070464E+01  0.72314744916E+01  0.51100000000E-03 0. -1.
        -11    1    3    3    0    0 -0.19185975406E+02 -0.28861973094E+02  0.13647218698E+02  0.37247304890E+02  0.51100000000E-03 0.  1.
        -12    1    3    3    0    0  0.71944035932E+00 -0.20893447554E+01 -0.56320889689E+01  0.60500728997E+01  0.00000000000E+00 0.  1.
</event>
<event>
 7    1  0.2966651E-011  0.5052885E+02  0.7816164E-02  0.1300439E+00
        -11   -1    0    0    0    0  0.00000000000E+00  0.00000000000E+00  0.45593999997E+02  0.45594000000E+02  0.51100000000E-03 0.  1.
         11   -1    0    0    0    0 -0.00000000000E+00 -0.00000000000E+00 -0.45593999997E+02  0.45594000000E+02  0.51100000000E-03 0. -1.
    9900012    2    1    2    0    0  0.23007643683E+02  0.32026495522E+02  0.99054784714E+01  0.50528848668E+02  0.29999966012E+02 0.  0.
         12    1    1    2    0    0 -0.23007643683E+02 -0.32026495522E+02 -0.99054784714E+01  0.40659151332E+02  0.00000000000E+00 0. -1.
         11    1    3    3    0    0  0.14079146423E+02  0.25299253627E+01  0.72416893338E+01  0.16033245180E+02  0.51100000000E-03 0. -1.
        -11    1    3    3    0    0  0.10893370926E+02  0.19165116405E+02 -0.34773060614E+01  0.22317232683E+02  0.51100000000E-03 0.  1.
         12    1    3    3    0    0 -0.19648736665E+01  0.10331453755E+02  0.61410951990E+01  0.12178370805E+02  0.00000000000E+00 0. -1.
</event>
<event>
 7    1  0.2966651E-011  0.5052882E+02  0.7816164E-02  0.1300439E+00
        -11   -1    0    0    0    0  0.00000000000E+00  0.00000000000E+00  0.45593999997E+02  0.45594000000E+02  0.51100000000E-03 0.  1.
         11   -1    0    0    0    0 -0.00000000000E+00 -0.00000000000E+00 -0.45593999997E+02  0.45594000000E+02  0.51100000000E-03 0. -1.
    9900012    2    1    2    0    0 -0.28883016919E+02  0.28588369425E+02 -0.12826477793E+01  0.50528822462E+02  0.29999886354E+02 0.  0.
         12    1    1    2    0    0  0.28883016919E+02 -0.28588369425E+02  0.12826477793E+01  0.40659177538E+02  0.00000000000E+00 0. -1.
         11    1    3    3    0    0  0.69440815515E+00 -0.70324376223E+00 -0.60692483442E+01  0.61491893937E+01  0.51100000000E-03 0. -1.
        -11    1    3    3    0    0 -0.21405249284E+02  0.26163331050E+02 -0.11196249867E+01  0.33822450369E+02  0.51100000000E-03 0.  1.
        -12    1    3    3    0    0 -0.81721757905E+01  0.31282821373E+01  0.59062255515E+01  0.10557182699E+02  0.00000000000E+00 0.  1.
</event>
<event>
 7    1  0.2966651E-011  0.5052887E+02  0.7816164E-02  0.1300439E+00
        -11   -1    0    0    0    0  0.00000000000E+00  0.00000000000E+00  0.45593999997E+02  0.45594000000E+02  0.51100000000E-03 0.  1.
         11   -1    0    0    0    0 -0.00000000000E+00 -0.00000000000E+00 -0.45593999997E+02  0.45594000000E+02  0.51100000000E-03 0. -1.
    9900012    2    1    2    0    0  0.18120442857E+02  0.26467055923E+02  0.24986188423E+02  0.50528866826E+02  0.30000021203E+02 0.  0.
         12    1    1    2    0    0 -0.18120442857E+02 -0.26467055923E+02 -0.24986188423E+02  0.40659133174E+02  0.00000000000E+00 0. -1.
         11    1    3    3    0    0  0.12655099211E+02 -0.22410289221E+01  0.35670861494E+01  0.13337835302E+02  0.51100000000E-03 0. -1.
        -11    1    3    3    0    0  0.35111408933E+01  0.70121735032E+01  0.22099135831E+01  0.81475398690E+01  0.51100000000E-03 0.  1.
         12    1    3    3    0    0  0.19542027528E+01  0.21695911342E+02  0.19209188691E+02  0.29043491655E+02  0.00000000000E+00 0. -1.
</event>
<event>
 7    1  0.2966651E-011  0.5052888E+02  0.7816164E-02  0.1300439E+00
        -11   -1    0    0    0    0  0.00000000000E+00  0.00000000000E+00  0.45593999997E+02  0.45594000000E+02  0.51100000000E-03 0. -1.
         11   -1    0    0    0    0 -0.00000000000E+00 -0.00000000000E+00 -0.45593999997E+02  0.45594000000E+02  0.51100000000E-03 0.  1.
    9900012    2    1    2    0    0 -0.14595182710E+02 -0.94047615525E+01 -0.36765408998E+02  0.50528878059E+02  0.30000055348E+02 0.  0.
         12    1    1    2    0    0  0.14595182710E+02  0.94047615525E+01  0.36765408998E+02  0.40659121941E+02  0.00000000000E+00 0. -1.
         11    1    3    3    0    0  0.31300691884E+01  0.15830182018E+01  0.19228687337E+01  0.40000880214E+01  0.51100000000E-03 0. -1.
        -11    1    3    3    0    0 -0.12742598702E+02 -0.13267285487E+02 -0.35995285031E+02  0.40423449019E+02  0.51100000000E-03 0.  1.
        -12    1    3    3    0    0 -0.49826531969E+01  0.22795057324E+01 -0.26929927008E+01  0.61053410184E+01  0.00000000000E+00 0.  1.
</event>
<event>
 7    1  0.2966651E-011  0.5052887E+02  0.7816164E-02  0.1300439E+00
        -11   -1    0    0    0    0  0.00000000000E+00  0.00000000000E+00  0.45593999997E+02  0.45594000000E+02  0.51100000000E-03 0. -1.
         11   -1    0    0    0    0 -0.00000000000E+00 -0.00000000000E+00 -0.45593999997E+02  0.45594000000E+02  0.51100000000E-03 0.  1.
    9900012    2    1    2    0    0  0.36699867578E+02  0.57166721604E+00 -0.17491645837E+02  0.50528871163E+02  0.30000034388E+02 0.  0.
         12    1    1    2    0    0 -0.36699867578E+02 -0.57166721604E+00  0.17491645837E+02  0.40659128837E+02  0.00000000000E+00 0. -1.
         11    1    3    3    0    0  0.17653365362E+02 -0.10444991358E+02 -0.15452469866E+02  0.25681082109E+02  0.51100000000E-03 0. -1.
        -11    1    3    3    0    0  0.19611511596E+02  0.74910500287E+01 -0.61167329045E+00  0.21002413245E+02  0.51100000000E-03 0.  1.
         12    1    3    3    0    0 -0.56500937991E+00  0.35256085453E+01 -0.14275026805E+01  0.38453758096E+01  0.00000000000E+00 0. -1.
</event>
<event>
 7    1  0.2966651E-011  0.5052886E+02  0.7816164E-02  0.1300439E+00
        -11   -1    0    0    0    0  0.00000000000E+00  0.00000000000E+00  0.45593999997E+02  0.45594000000E+02  0.51100000000E-03 0. -1.
         11   -1    0    0    0    0 -0.00000000000E+00 -0.00000000000E+00 -0.45593999997E+02  0.45594000000E+02  0.51100000000E-03 0.  1.
    9900012    2    1    2    0    0  0.20506067127E+02 -0.79584454403E+01 -0.34195463369E+02  0.50528863783E+02  0.30000011956E+02 0.  0.
         12    1    1    2    0    0 -0.20506067127E+02  0.79584454403E+01  0.34195463369E+02  0.40659136217E+02  0.00000000000E+00 0. -1.
         11    1    3    3    0    0  0.12623854542E+01 -0.20856179674E+01 -0.29050872116E+02  0.29152985959E+02  0.51100000000E-03 0. -1.
        -11    1    3    3    0    0  0.12105240025E+02 -0.61916823772E+01 -0.35987642367E+01  0.14065022965E+02  0.51100000000E-03 0.  1.
         12    1    3    3    0    0  0.71384416479E+01  0.31885490432E+00 -0.15458270162E+01  0.73108548593E+01  0.00000000000E+00 0. -1.
</event>
<event>
 7    1  0.2966651E-011  0.5052887E+02  0.7816164E-02  0.1300439E+00
        -11   -1    0    0    0    0  0.00000000000E+00  0.00000000000E+00  0.45593999997E+02  0.45594000000E+02  0.51100000000E-03 0.  1.
         11   -1    0    0    0    0 -0.00000000000E+00 -0.00000000000E+00 -0.45593999997E+02  0.45594000000E+02  0.51100000000E-03 0. -1.
    9900012    2    1    2    0    0 -0.20403942743E+02 -0.35110993449E+02  0.20154597185E+01  0.50528870419E+02  0.30000032124E+02 0.  0.
         12    1    1    2    0    0  0.20403942743E+02  0.35110993449E+02 -0.20154597185E+01  0.40659129581E+02  0.00000000000E+00 0. -1.
         11    1    3    3    0    0 -0.49182915794E+01 -0.85178228815E+00  0.67859764898E+01  0.84240490448E+01  0.51100000000E-03 0. -1.
        -11    1    3    3    0    0 -0.15581604866E+02 -0.20385948468E+02 -0.96276396702E+01  0.27405560585E+02  0.51100000000E-03 0.  1.
        -12    1    3    3    0    0  0.95953702505E-01 -0.13873262693E+02  0.48571228989E+01  0.14699260789E+02  0.00000000000E+00 0.  1.
</event>
<event>
 7    1  0.2966651E-011  0.5052886E+02  0.7816164E-02  0.1300439E+00
        -11   -1    0    0    0    0  0.00000000000E+00  0.00000000000E+00  0.45593999997E+02  0.45594000000E+02  0.51100000000E-03 0.  1.
         11   -1    0    0    0    0 -0.00000000000E+00 -0.00000000000E+00 -0.45593999997E+02  0.45594000000E+02  0.51100000000E-03 0. -1.
    9900012    2    1    2    0    0 -0.36218560636E+02 -0.11520541894E+02  0.14445010573E+02  0.50528863874E+02  0.30000012230E+02 0.  0.
         12    1    1    2    0    0  0.36218560636E+02  0.11520541894E+02 -0.14445010573E+02  0.40659136126E+02  0.00000000000E+00 0. -1.
         11    1    3    3    0    0  0.32630207607E+01 -0.41848415144E+00 -0.64661835909E+00  0.33526928032E+01  0.51100000000E-03 0. -1.
        -11    1    3    3    0    0 -0.28261355304E+02 -0.46215763952E+01  0.18095989255E+02  0.33875182647E+02  0.51100000000E-03 0.  1.
        -12    1    3    3    0    0 -0.11220226093E+02 -0.64804813475E+01 -0.30043603236E+01  0.13300988423E+02  0.00000000000E+00 0.  1.
</event>
<event>
 7    1  0.2966651E-011  0.5052885E+02  0.7816164E-02  0.1300439E+00
        -11   -1    0    0    0    0  0.00000000000E+00  0.00000000000E+00  0.45593999997E+02  0.45594000000E+02  0.51100000000E-03 0.  1.
         11   -1    0    0    0    0 -0.00000000000E+00 -0.00000000000E+00 -0.45593999997E+02  0.45594000000E+02  0.51100000000E-03 0. -1.
    9900012    2    1    2    0    0  0.31505120290E+02  0.25690369006E+02 -0.77374207271E+00  0.50528851694E+02  0.29999975210E+02 0.  0.
         12    1    1    2    0    0 -0.31505120290E+02 -0.25690369006E+02  0.77374207271E+00  0.40659148306E+02  0.00000000000E+00 0. -1.
         11    1    3    3    0    0  0.48997067928E+01 -0.18316969160E+01 -0.81259766885E+01  0.96640435455E+01  0.51100000000E-03 0. -1.
        -11    1    3    3    0    0  0.18333051839E+02  0.23236604946E+02  0.98938686351E+01  0.31207839336E+02  0.51100000000E-03 0.  1.
        -12    1    3    3    0    0  0.82723616579E+01  0.42854609756E+01 -0.25416340193E+01  0.96569688133E+01  0.00000000000E+00 0.  1.
</event>
<event>
 7    1  0.2966651E-011  0.5052886E+02  0.7816164E-02  0.1300439E+00
        -11   -1    0    0    0    0  0.00000000000E+00  0.00000000000E+00  0.45593999997E+02  0.45594000000E+02  0.51100000000E-03 0.  1.
         11   -1    0    0    0    0 -0.00000000000E+00 -0.00000000000E+00 -0.45593999997E+02  0.45594000000E+02  0.51100000000E-03 0. -1.
    9900012    2    1    2    0    0 -0.69458341690E+01  0.39664987024E+02 -0.56222532690E+01  0.50528861547E+02  0.30000005160E+02 0.  0.
         12    1    1    2    0    0  0.69458341690E+01 -0.39664987024E+02  0.56222532690E+01  0.40659138453E+02  0.00000000000E+00 0. -1.
         11    1    3    3    0    0 -0.11911222952E+02  0.13606662986E+02 -0.93122051376E+01  0.20340493471E+02  0.51100000000E-03 0. -1.
        -11    1    3    3    0    0  0.32232961531E+01  0.33430006937E+01  0.56600662492E+01  0.73213142218E+01  0.51100000000E-03 0.  1.
        -12    1    3    3    0    0  0.17420926302E+01  0.22715323344E+02 -0.19701143805E+01  0.22867053855E+02  0.00000000000E+00 0.  1.
</event>
<event>
 7    1  0.2966651E-011  0.5052885E+02  0.7816164E-02  0.1300439E+00
        -11   -1    0    0    0    0  0.00000000000E+00  0.00000000000E+00  0.45593999997E+02  0.45594000000E+02  0.51100000000E-03 0. -1.
         11   -1    0    0    0    0 -0.00000000000E+00 -0.00000000000E+00 -0.45593999997E+02  0.45594000000E+02  0.51100000000E-03 0.  1.
    9900012    2    1    2    0    0 -0.94375302996E+01 -0.36619911521E+02 -0.14935906103E+02  0.50528853562E+02  0.29999980887E+02 0.  0.
         12    1    1    2    0    0  0.94375302996E+01  0.36619911521E+02  0.14935906103E+02  0.40659146438E+02  0.00000000000E+00 0. -1.
         11    1    3    3    0    0  0.35045414933E+01 -0.82767918294E+01 -0.15174270765E+02  0.17636484558E+02  0.51100000000E-03 0. -1.
        -11    1    3    3    0    0 -0.12531503459E+02 -0.24488212042E+02 -0.32213541116E+01  0.27696357713E+02  0.51100000000E-03 0.  1.
         12    1    3    3    0    0 -0.41056833353E+00 -0.38549076495E+01  0.34597187740E+01  0.51960112912E+01  0.00000000000E+00 0. -1.
</event>
<event>
 7    1  0.2966651E-011  0.5052886E+02  0.7816164E-02  0.1300439E+00
        -11   -1    0    0    0    0  0.00000000000E+00  0.00000000000E+00  0.45593999997E+02  0.45594000000E+02  0.51100000000E-03 0.  1.
         11   -1    0    0    0    0 -0.00000000000E+00 -0.00000000000E+00 -0.45593999997E+02  0.45594000000E+02  0.51100000000E-03 0. -1.
    9900012    2    1    2    0    0  0.23705927543E+02 -0.32797400483E+02  0.39402305144E+01  0.50528857171E+02  0.29999991856E+02 0.  0.
         12    1    1    2    0    0 -0.23705927543E+02  0.32797400483E+02 -0.39402305144E+01  0.40659142829E+02  0.00000000000E+00 0. -1.
         11    1    3    3    0    0  0.22528093518E+02 -0.20553923174E+02 -0.57394622966E+01  0.31030955240E+02  0.51100000000E-03 0. -1.
        -11    1    3    3    0    0  0.33878208945E+01 -0.96815811171E+01  0.11698136155E+02  0.15558172550E+02  0.51100000000E-03 0.  1.
         12    1    3    3    0    0 -0.22099868696E+01 -0.25618961922E+01 -0.20184433436E+01  0.39397293809E+01  0.00000000000E+00 0. -1.
</event>
<event>
 7    1  0.2966651E-011  0.5052886E+02  0.7816164E-02  0.1300439E+00
        -11   -1    0    0    0    0  0.00000000000E+00  0.00000000000E+00  0.45593999997E+02  0.45594000000E+02  0.51100000000E-03 0.  1.
         11   -1    0    0    0    0 -0.00000000000E+00 -0.00000000000E+00 -0.45593999997E+02  0.45594000000E+02  0.51100000000E-03 0. -1.
    9900012    2    1    2    0    0  0.27526088516E+02 -0.22494729385E+02  0.19734934870E+02  0.50528855231E+02  0.29999985959E+02 0.  0.
         12    1    1    2    0    0 -0.27526088516E+02  0.22494729385E+02 -0.19734934870E+02  0.40659144769E+02  0.00000000000E+00 0. -1.
         11    1    3    3    0    0 -0.38443185968E+01 -0.31671157259E+01 -0.29096316677E+01  0.57684802329E+01  0.51100000000E-03 0. -1.
        -11    1    3    3    0    0  0.22780235998E+02 -0.74884635498E+01  0.13792714258E+02  0.27663246471E+02  0.51100000000E-03 0.  1.
        -12    1    3    3    0    0  0.85901711147E+01 -0.11839150109E+02  0.88518522792E+01  0.17097128527E+02  0.00000000000E+00 0.  1.
</event>
<event>
 7    1  0.2966651E-011  0.5052880E+02  0.7816164E-02  0.1300439E+00
        -11   -1    0    0    0    0  0.00000000000E+00  0.00000000000E+00  0.45593999997E+02  0.45594000000E+02  0.51100000000E-03 0. -1.
         11   -1    0    0    0    0 -0.00000000000E+00 -0.00000000000E+00 -0.45593999997E+02  0.45594000000E+02  0.51100000000E-03 0.  1.
    9900012    2    1    2    0    0 -0.11114637300E+01 -0.32868776312E+02 -0.23907706027E+02  0.50528804049E+02  0.29999830387E+02 0.  0.
         12    1    1    2    0    0  0.11114637300E+01  0.32868776312E+02  0.23907706027E+02  0.40659195951E+02  0.00000000000E+00 0. -1.
         11    1    3    3    0    0  0.29353609583E+01  0.59275910056E+00  0.43590539834E+00  0.30261726792E+01  0.51100000000E-03 0. -1.
        -11    1    3    3    0    0 -0.11676643535E+02 -0.29028894914E+02 -0.22362236358E+02  0.38458943815E+02  0.51100000000E-03 0.  1.
        -12    1    3    3    0    0  0.76298188470E+01 -0.44326404986E+01 -0.19813750676E+01  0.90436875547E+01  0.00000000000E+00 0.  1.
</event>
<event>
 7    1  0.2966651E-011  0.5052887E+02  0.7816164E-02  0.1300439E+00
        -11   -1    0    0    0    0  0.00000000000E+00  0.00000000000E+00  0.45593999997E+02  0.45594000000E+02  0.51100000000E-03 0.  1.
         11   -1    0    0    0    0 -0.00000000000E+00 -0.00000000000E+00 -0.45593999997E+02  0.45594000000E+02  0.51100000000E-03 0. -1.
    9900012    2    1    2    0    0  0.31418689239E+02 -0.23949326070E+02  0.96156497330E+01  0.50528868523E+02  0.30000026362E+02 0.  0.
         12    1    1    2    0    0 -0.31418689239E+02  0.23949326070E+02 -0.96156497330E+01  0.40659131477E+02  0.00000000000E+00 0. -1.
         11    1    3    3    0    0  0.16287329503E+02 -0.12614786621E+02 -0.98035629001E+01  0.22814902797E+02  0.51100000000E-03 0. -1.
        -11    1    3    3    0    0  0.11245053587E+02 -0.64404947708E+01  0.98180791246E+01  0.16258102011E+02  0.51100000000E-03 0.  1.
         12    1    3    3    0    0  0.38863061499E+01 -0.48940446774E+01  0.96011335085E+01  0.11455863714E+02  0.00000000000E+00 0. -1.
</event>
<event>
 7    1  0.2966651E-011  0.5052886E+02  0.7816164E-02  0.1300439E+00
        -11   -1    0    0    0    0  0.00000000000E+00  0.00000000000E+00  0.45593999997E+02  0.45594000000E+02  0.51100000000E-03 0.  1.
         11   -1    0    0    0    0 -0.00000000000E+00 -0.00000000000E+00 -0.45593999997E+02  0.45594000000E+02  0.51100000000E-03 0. -1.
    9900012    2    1    2    0    0  0.36344706617E+02 -0.17637137616E+02 -0.45999108268E+01  0.50528862011E+02  0.30000006570E+02 0.  0.
         12    1    1    2    0    0 -0.36344706617E+02  0.17637137616E+02  0.45999108268E+01  0.40659137989E+02  0.00000000000E+00 0. -1.
         11    1    3    3    0    0  0.80437219024E+01  0.56782141743E+01 -0.29759204508E+01  0.10285897192E+02  0.51100000000E-03 0. -1.
        -11    1    3    3    0    0  0.27826326701E+02 -0.16331153568E+02  0.20638901120E+01  0.32330646099E+02  0.51100000000E-03 0.  1.
         12    1    3    3    0    0  0.47465801339E+00 -0.69841982220E+01 -0.36878804879E+01  0.79123187201E+01  0.00000000000E+00 0. -1.
</event>
<event>
 7    1  0.2966651E-011  0.5052887E+02  0.7816164E-02  0.1300439E+00
        -11   -1    0    0    0    0  0.00000000000E+00  0.00000000000E+00  0.45593999997E+02  0.45594000000E+02  0.51100000000E-03 0.  1.
         11   -1    0    0    0    0 -0.00000000000E+00 -0.00000000000E+00 -0.45593999997E+02  0.45594000000E+02  0.51100000000E-03 0. -1.
    9900012    2    1    2    0    0  0.11914776732E+02  0.38710934675E+02 -0.35590046581E+01  0.50528869634E+02  0.30000029739E+02 0.  0.
         12    1    1    2    0    0 -0.11914776732E+02 -0.38710934675E+02  0.35590046581E+01  0.40659130366E+02  0.00000000000E+00 0. -1.
         11    1    3    3    0    0 -0.24119395649E+01 -0.36419859396E+01 -0.28340418570E+01  0.52070440326E+01  0.51100000000E-03 0. -1.
        -11    1    3    3    0    0  0.33159043765E+01  0.18245105279E+02 -0.27252103588E+01  0.18743155023E+02  0.51100000000E-03 0.  1.
         12    1    3    3    0    0  0.11010811920E+02  0.24107815336E+02  0.20002475577E+01  0.26578670578E+02  0.00000000000E+00 0. -1.
</event>
<event>
 7    1  0.2966651E-011  0.5052886E+02  0.7816164E-02  0.1300439E+00
        -11   -1    0    0    0    0  0.00000000000E+00  0.00000000000E+00  0.45593999997E+02  0.45594000000E+02  0.51100000000E-03 0. -1.
         11   -1    0    0    0    0 -0.00000000000E+00 -0.00000000000E+00 -0.45593999997E+02  0.45594000000E+02  0.51100000000E-03 0.  1.
    9900012    2    1    2    0    0  0.78398937743E+01 -0.22009395920E+02 -0.33275942369E+02  0.50528858547E+02  0.29999996040E+02 0.  0.
         12    1    1    2    0    0 -0.78398937743E+01  0.22009395920E+02  0.33275942369E+02  0.40659141453E+02  0.00000000000E+00 0. -1.
         11    1    3    3    0    0  0.19440428236E+01  0.28960993558E+00 -0.23616163106E+02  0.23697812906E+02  0.51100000000E-03 0. -1.
        -11    1    3    3    0    0  0.69230253049E+00 -0.78272174097E+01 -0.82411493091E+01  0.11386885323E+02  0.51100000000E-03 0.  1.
         12    1    3    3    0    0  0.52035484202E+01 -0.14471788446E+02 -0.14186299541E+01  0.15444160318E+02  0.00000000000E+00 0. -1.
</event>
<event>
 7    1  0.2966651E-011  0.5052886E+02  0.7816164E-02  0.1300439E+00
        -11   -1    0    0    0    0  0.00000000000E+00  0.00000000000E+00  0.45593999997E+02  0.45594000000E+02  0.51100000000E-03 0. -1.
         11   -1    0    0    0    0 -0.00000000000E+00 -0.00000000000E+00 -0.45593999997E+02  0.45594000000E+02  0.51100000000E-03 0.  1.
    9900012    2    1    2    0    0  0.29257077645E+02 -0.81927756137E+00 -0.28222644241E+02  0.50528862577E+02  0.30000008290E+02 0.  0.
         12    1    1    2    0    0 -0.29257077645E+02  0.81927756137E+00  0.28222644241E+02  0.40659137423E+02  0.00000000000E+00 0. -1.
         11    1    3    3    0    0  0.68902873334E+01  0.44882387790E+01 -0.28384480467E+01  0.86992605691E+01  0.51100000000E-03 0. -1.
        -11    1    3    3    0    0  0.17911227205E+02 -0.13930064167E+02 -0.21849933159E+02  0.31500449632E+02  0.51100000000E-03 0.  1.
        -12    1    3    3    0    0  0.44555631062E+01  0.86225478268E+01 -0.35342630351E+01  0.10329152377E+02  0.00000000000E+00 0.  1.
</event>
<event>
 7    1  0.2966651E-011  0.5052886E+02  0.7816164E-02  0.1300439E+00
        -11   -1    0    0    0    0  0.00000000000E+00  0.00000000000E+00  0.45593999997E+02  0.45594000000E+02  0.51100000000E-03 0. -1.
         11   -1    0    0    0    0 -0.00000000000E+00 -0.00000000000E+00 -0.45593999997E+02  0.45594000000E+02  0.51100000000E-03 0.  1.
    9900012    2    1    2    0    0 -0.39265704960E+02 -0.10388973251E+02  0.18544676767E+01  0.50528863245E+02  0.30000010321E+02 0.  0.
         12    1    1    2    0    0  0.39265704960E+02  0.10388973251E+02 -0.18544676767E+01  0.40659136755E+02  0.00000000000E+00 0. -1.
         11    1    3    3    0    0 -0.23193991502E+02 -0.10070818430E+02 -0.91276343847E+01  0.26883012022E+02  0.51100000000E-03 0. -1.
        -11    1    3    3    0    0 -0.58054886071E+01  0.63967389167E+01  0.38660433093E+01  0.94640508170E+01  0.51100000000E-03 0.  1.
         12    1    3    3    0    0 -0.10266224851E+02 -0.67148937381E+01  0.71160587520E+01  0.14181800406E+02  0.00000000000E+00 0. -1.
</event>
<event>
 7    1  0.2966651E-011  0.5052886E+02  0.7816164E-02  0.1300439E+00
        -11   -1    0    0    0    0  0.00000000000E+00  0.00000000000E+00  0.45593999997E+02  0.45594000000E+02  0.51100000000E-03 0.  1.
         11   -1    0    0    0    0 -0.00000000000E+00 -0.00000000000E+00 -0.45593999997E+02  0.45594000000E+02  0.51100000000E-03 0. -1.
    9900012    2    1    2    0    0  0.31462215891E+01 -0.20572262484E+02  0.34929194011E+02  0.50528864639E+02  0.30000014558E+02 0.  0.
         12    1    1    2    0    0 -0.31462215891E+01  0.20572262484E+02 -0.34929194011E+02  0.40659135361E+02  0.00000000000E+00 0. -1.
         11    1    3    3    0    0 -0.50682542020E+01 -0.46695042583E+01  0.58904474576E+01  0.90658062072E+01  0.51100000000E-03 0. -1.
        -11    1    3    3    0    0  0.96400573078E+01  0.18954186824E+01  0.37713264799E+01  0.10523603022E+02  0.51100000000E-03 0.  1.
        -12    1    3    3    0    0 -0.14255815167E+01 -0.17798176908E+02  0.25267420074E+02  0.30939455410E+02  0.00000000000E+00 0.  1.
</event>
<event>
 7    1  0.2966651E-011  0.5052886E+02  0.7816164E-02  0.1300439E+00
        -11   -1    0    0    0    0  0.00000000000E+00  0.00000000000E+00  0.45593999997E+02  0.45594000000E+02  0.51100000000E-03 0.  1.
         11   -1    0    0    0    0 -0.00000000000E+00 -0.00000000000E+00 -0.45593999997E+02  0.45594000000E+02  0.51100000000E-03 0. -1.
    9900012    2    1    2    0    0  0.10188951344E+02 -0.69331373401E+01  0.38746389529E+02  0.50528858047E+02  0.29999994518E+02 0.  0.
         12    1    1    2    0    0 -0.10188951344E+02  0.69331373401E+01 -0.38746389529E+02  0.40659141953E+02  0.00000000000E+00 0. -1.
         11    1    3    3    0    0 -0.11349703126E+01 -0.11662734750E+02  0.53429896982E+01  0.12878473459E+02  0.51100000000E-03 0. -1.
        -11    1    3    3    0    0  0.67502159096E+01 -0.26253903118E+01  0.23000688754E+02  0.24114099041E+02  0.51100000000E-03 0.  1.
         12    1    3    3    0    0  0.45737057474E+01  0.73549877221E+01  0.10402711076E+02  0.13536285546E+02  0.00000000000E+00 0. -1.
</event>
<event>
 7    1  0.2966651E-011  0.5052882E+02  0.7816164E-02  0.1300439E+00
        -11   -1    0    0    0    0  0.00000000000E+00  0.00000000000E+00  0.45593999997E+02  0.45594000000E+02  0.51100000000E-03 0. -1.
         11   -1    0    0    0    0 -0.00000000000E+00 -0.00000000000E+00 -0.45593999997E+02  0.45594000000E+02  0.51100000000E-03 0.  1.
    9900012    2    1    2    0    0 -0.21268133735E+02 -0.31363578500E+02 -0.14736388293E+02  0.50528822576E+02  0.29999886701E+02 0.  0.
         12    1    1    2    0    0  0.21268133735E+02  0.31363578500E+02  0.14736388293E+02  0.40659177424E+02  0.00000000000E+00 0. -1.
         11    1    3    3    0    0 -0.13765819738E+02 -0.20103388091E+01 -0.31197904153E+01  0.14257361176E+02  0.51100000000E-03 0. -1.
        -11    1    3    3    0    0 -0.51069028400E+01 -0.26058136617E+02 -0.29777849914E+01  0.26720294615E+02  0.51100000000E-03 0.  1.
        -12    1    3    3    0    0 -0.23954111569E+01 -0.32951030736E+01 -0.86388128859E+01  0.95511667850E+01  0.00000000000E+00 0.  1.
</event>
<event>
 7    1  0.2966651E-011  0.5052886E+02  0.7816164E-02  0.1300439E+00
        -11   -1    0    0    0    0  0.00000000000E+00  0.00000000000E+00  0.45593999997E+02  0.45594000000E+02  0.51100000000E-03 0.  1.
         11   -1    0    0    0    0 -0.00000000000E+00 -0.00000000000E+00 -0.45593999997E+02  0.45594000000E+02  0.51100000000E-03 0. -1.
    9900012    2    1    2    0    0  0.27567481540E+02 -0.24915316449E+02  0.16505346010E+02  0.50528862293E+02  0.30000007425E+02 0.  0.
         12    1    1    2    0    0 -0.27567481540E+02  0.24915316449E+02 -0.16505346010E+02  0.40659137707E+02  0.00000000000E+00 0. -1.
         11    1    3    3    0    0 -0.10563341152E+01 -0.96819164172E+00  0.79942608855E+01  0.81216651116E+01  0.51100000000E-03 0. -1.
        -11    1    3    3    0    0  0.13860886611E+02 -0.19879410597E+02 -0.12174142498E+01  0.24265144571E+02  0.51100000000E-03 0.  1.
        -12    1    3    3    0    0  0.14762929044E+02 -0.40677142104E+01  0.97284993739E+01  0.18142052611E+02  0.00000000000E+00 0.  1.
</event>
<event>
 7    1  0.2966651E-011  0.5052899E+02  0.7816164E-02  0.1300438E+00
        -11   -1    0    0    0    0  0.00000000000E+00  0.00000000000E+00  0.45593999997E+02  0.45594000000E+02  0.51100000000E-03 0. -1.
         11   -1    0    0    0    0 -0.00000000000E+00 -0.00000000000E+00 -0.45593999997E+02  0.45594000000E+02  0.51100000000E-03 0.  1.
    9900012    2    1    2    0    0 -0.12208856749E+02 -0.27082018564E+01 -0.38688045007E+02  0.50528986647E+02  0.30000385409E+02 0.  0.
         12    1    1    2    0    0  0.12208856749E+02  0.27082018564E+01  0.38688045007E+02  0.40659013353E+02  0.00000000000E+00 0. -1.
         11    1    3    3    0    0  0.43787141826E+01 -0.74358221379E+01 -0.27878763919E+01  0.90684532197E+01  0.51100000000E-03 0. -1.
        -11    1    3    3    0    0 -0.11677278047E+02  0.70751144088E+01 -0.31921240522E+02  0.34718606873E+02  0.51100000000E-03 0.  1.
        -12    1    3    3    0    0 -0.49102928849E+01 -0.23474941272E+01 -0.39789280930E+01  0.67419265542E+01  0.00000000000E+00 0.  1.
</event>
<event>
 7    1  0.2966651E-011  0.5052886E+02  0.7816164E-02  0.1300439E+00
        -11   -1    0    0    0    0  0.00000000000E+00  0.00000000000E+00  0.45593999997E+02  0.45594000000E+02  0.51100000000E-03 0. -1.
         11   -1    0    0    0    0 -0.00000000000E+00 -0.00000000000E+00 -0.45593999997E+02  0.45594000000E+02  0.51100000000E-03 0.  1.
    9900012    2    1    2    0    0  0.13684867277E+02  0.37729903702E+02  0.65072610751E+01  0.50528859915E+02  0.30000000199E+02 0.  0.
         12    1    1    2    0    0 -0.13684867277E+02 -0.37729903702E+02 -0.65072610751E+01  0.40659140085E+02  0.00000000000E+00 0. -1.
         11    1    3    3    0    0 -0.82964726588E+00 -0.10470350176E+01  0.77499608907E+01  0.78642540003E+01  0.51100000000E-03 0. -1.
        -11    1    3    3    0    0  0.11293819713E+02  0.34446340209E+02  0.21085943169E+01  0.36311800944E+02  0.51100000000E-03 0.  1.
         12    1    3    3    0    0  0.32206948302E+01  0.43305985098E+01 -0.33512941326E+01  0.63528049715E+01  0.00000000000E+00 0. -1.
</event>
<event>
 7    1  0.2966651E-011  0.5052887E+02  0.7816164E-02  0.1300439E+00
        -11   -1    0    0    0    0  0.00000000000E+00  0.00000000000E+00  0.45593999997E+02  0.45594000000E+02  0.51100000000E-03 0.  1.
         11   -1    0    0    0    0 -0.00000000000E+00 -0.00000000000E+00 -0.45593999997E+02  0.45594000000E+02  0.51100000000E-03 0. -1.
    9900012    2    1    2    0    0 -0.21351547216E+02  0.19997084129E+02  0.28238151860E+02  0.50528866184E+02  0.30000019254E+02 0.  0.
         12    1    1    2    0    0  0.21351547216E+02 -0.19997084129E+02 -0.28238151860E+02  0.40659133816E+02  0.00000000000E+00 0. -1.
         11    1    3    3    0    0  0.41376534895E+01  0.73163982848E+00 -0.20089771843E+01  0.46574094544E+01  0.51100000000E-03 0. -1.
        -11    1    3    3    0    0 -0.13231752838E+02  0.15709065278E+02  0.24221960653E+02  0.31757792638E+02  0.51100000000E-03 0.  1.
         12    1    3    3    0    0 -0.12257447867E+02  0.35563790225E+01  0.60251683915E+01  0.14113664092E+02  0.00000000000E+00 0. -1.
</event>
<event>
 7    1  0.2966651E-011  0.5052887E+02  0.7816164E-02  0.1300439E+00
        -11   -1    0    0    0    0  0.00000000000E+00  0.00000000000E+00  0.45593999997E+02  0.45594000000E+02  0.51100000000E-03 0.  1.
         11   -1    0    0    0    0 -0.00000000000E+00 -0.00000000000E+00 -0.45593999997E+02  0.45594000000E+02  0.51100000000E-03 0. -1.
    9900012    2    1    2    0    0  0.23633506989E+02  0.58387730384E+01  0.32565800067E+02  0.50528865022E+02  0.30000015720E+02 0.  0.
         12    1    1    2    0    0 -0.23633506989E+02 -0.58387730384E+01 -0.32565800067E+02  0.40659134978E+02  0.00000000000E+00 0. -1.
         11    1    3    3    0    0  0.18426506832E+02 -0.10363042436E+02  0.21833947174E+02  0.30391611540E+02  0.51100000000E-03 0. -1.
        -11    1    3    3    0    0  0.12055951881E+01  0.50128486690E+01  0.33208449045E+01  0.61327092444E+01  0.51100000000E-03 0.  1.
         12    1    3    3    0    0  0.40014049690E+01  0.11188966805E+02  0.74110079878E+01  0.14004544237E+02  0.00000000000E+00 0. -1.
</event>
<event>
 7    1  0.2966651E-011  0.5052886E+02  0.7816164E-02  0.1300439E+00
        -11   -1    0    0    0    0  0.00000000000E+00  0.00000000000E+00  0.45593999997E+02  0.45594000000E+02  0.51100000000E-03 0. -1.
         11   -1    0    0    0    0 -0.00000000000E+00 -0.00000000000E+00 -0.45593999997E+02  0.45594000000E+02  0.51100000000E-03 0.  1.
    9900012    2    1    2    0    0  0.23258384348E+02  0.23117483055E+01 -0.33269640984E+02  0.50528860389E+02  0.30000001638E+02 0.  0.
         12    1    1    2    0    0 -0.23258384348E+02 -0.23117483055E+01  0.33269640984E+02  0.40659139611E+02  0.00000000000E+00 0. -1.
         11    1    3    3    0    0  0.17420912147E+02 -0.35480034886E+01 -0.23758993070E+02  0.29674336736E+02  0.51100000000E-03 0.  1.
        -11    1    3    3    0    0  0.88793042307E+00  0.11197978098E+02 -0.50431824574E+01  0.12313278340E+02  0.51100000000E-03 0. -1.
        -12    1    3    3    0    0  0.49495417786E+01 -0.53382263037E+01 -0.44674654568E+01  0.85412453129E+01  0.00000000000E+00 0.  1.
</event>
<event>
 7    1  0.2966651E-011  0.5052887E+02  0.7816164E-02  0.1300439E+00
        -11   -1    0    0    0    0  0.00000000000E+00  0.00000000000E+00  0.45593999997E+02  0.45594000000E+02  0.51100000000E-03 0.  1.
         11   -1    0    0    0    0 -0.00000000000E+00 -0.00000000000E+00 -0.45593999997E+02  0.45594000000E+02  0.51100000000E-03 0. -1.
    9900012    2    1    2    0    0 -0.38063841342E+02 -0.91471497671E+01  0.10983561794E+02  0.50528868230E+02  0.30000025473E+02 0.  0.
         12    1    1    2    0    0  0.38063841342E+02  0.91471497671E+01 -0.10983561794E+02  0.40659131770E+02  0.00000000000E+00 0. -1.
         11    1    3    3    0    0 -0.76301982448E+01 -0.78003319700E+01 -0.62483568964E+01  0.12574063316E+02  0.51100000000E-03 0. -1.
        -11    1    3    3    0    0 -0.16134077558E+02  0.54381289467E+01  0.44164045875E+01  0.17589381309E+02  0.51100000000E-03 0.  1.
        -12    1    3    3    0    0 -0.14299565540E+02 -0.67849467438E+01  0.12815514103E+02  0.20365423606E+02  0.00000000000E+00 0.  1.
</event>
<event>
 7    1  0.2966651E-011  0.5052886E+02  0.7816164E-02  0.1300439E+00
        -11   -1    0    0    0    0  0.00000000000E+00  0.00000000000E+00  0.45593999997E+02  0.45594000000E+02  0.51100000000E-03 0.  1.
         11   -1    0    0    0    0 -0.00000000000E+00 -0.00000000000E+00 -0.45593999997E+02  0.45594000000E+02  0.51100000000E-03 0. -1.
    9900012    2    1    2    0    0  0.17784824385E+02 -0.42223797144E+01  0.36318553303E+02  0.50528858557E+02  0.29999996071E+02 0.  0.
         12    1    1    2    0    0 -0.17784824385E+02  0.42223797144E+01 -0.36318553303E+02  0.40659141443E+02  0.00000000000E+00 0. -1.
         11    1    3    3    0    0 -0.11768406455E+01  0.45135703747E+01 -0.16926880724E+01  0.49621028410E+01  0.51100000000E-03 0. -1.
        -11    1    3    3    0    0  0.15984096903E+02 -0.11695317905E+02  0.24998046613E+02  0.31893167755E+02  0.51100000000E-03 0.  1.
         12    1    3    3    0    0  0.29775681275E+01  0.29593678162E+01  0.13013194762E+02  0.13673587962E+02  0.00000000000E+00 0. -1.
</event>
<event>
 7    1  0.2966651E-011  0.5052885E+02  0.7816164E-02  0.1300439E+00
        -11   -1    0    0    0    0  0.00000000000E+00  0.00000000000E+00  0.45593999997E+02  0.45594000000E+02  0.51100000000E-03 0. -1.
         11   -1    0    0    0    0 -0.00000000000E+00 -0.00000000000E+00 -0.45593999997E+02  0.45594000000E+02  0.51100000000E-03 0.  1.
    9900012    2    1    2    0    0  0.32170933823E+02  0.26439541717E+00 -0.24862170136E+02  0.50528851068E+02  0.29999973307E+02 0.  0.
         12    1    1    2    0    0 -0.32170933823E+02 -0.26439541717E+00  0.24862170136E+02  0.40659148932E+02  0.00000000000E+00 0. -1.
         11    1    3    3    0    0  0.86544668201E+01  0.12050404976E+02 -0.17096353603E+02  0.22636195856E+02  0.51100000000E-03 0. -1.
        -11    1    3    3    0    0  0.11142669157E+02 -0.33550361680E+01 -0.18015430226E+01  0.11775436347E+02  0.51100000000E-03 0.  1.
         12    1    3    3    0    0  0.12373797846E+02 -0.84309733913E+01 -0.59642735099E+01  0.16117218865E+02  0.00000000000E+00 0. -1.
</event>
<event>
 7    1  0.2966651E-011  0.5052884E+02  0.7816164E-02  0.1300439E+00
        -11   -1    0    0    0    0  0.00000000000E+00  0.00000000000E+00  0.45593999997E+02  0.45594000000E+02  0.51100000000E-03 0. -1.
         11   -1    0    0    0    0 -0.00000000000E+00 -0.00000000000E+00 -0.45593999997E+02  0.45594000000E+02  0.51100000000E-03 0.  1.
    9900012    2    1    2    0    0  0.32780942761E+02  0.69966975374E+01 -0.23013537986E+02  0.50528844630E+02  0.29999953737E+02 0.  0.
         12    1    1    2    0    0 -0.32780942761E+02 -0.69966975374E+01  0.23013537986E+02  0.40659155370E+02  0.00000000000E+00 0. -1.
         11    1    3    3    0    0 -0.43290504405E+01  0.39206802579E+01 -0.60035071022E+01  0.83758288657E+01  0.51100000000E-03 0.  1.
        -11    1    3    3    0    0  0.22731479887E+02 -0.26538201868E+01 -0.80022822285E+01  0.24244575900E+02  0.51100000000E-03 0. -1.
         12    1    3    3    0    0  0.14378513315E+02  0.57298374664E+01 -0.90077486555E+01  0.17908439865E+02  0.00000000000E+00 0. -1.
</event>
<event>
 7    1  0.2966651E-011  0.5052886E+02  0.7816164E-02  0.1300439E+00
        -11   -1    0    0    0    0  0.00000000000E+00  0.00000000000E+00  0.45593999997E+02  0.45594000000E+02  0.51100000000E-03 0.  1.
         11   -1    0    0    0    0 -0.00000000000E+00 -0.00000000000E+00 -0.45593999997E+02  0.45594000000E+02  0.51100000000E-03 0. -1.
    9900012    2    1    2    0    0 -0.10299334015E+02  0.33736171779E+02  0.20222757240E+02  0.50528862308E+02  0.30000007472E+02 0.  0.
         12    1    1    2    0    0  0.10299334015E+02 -0.33736171779E+02 -0.20222757240E+02  0.40659137692E+02  0.00000000000E+00 0. -1.
         11    1    3    3    0    0 -0.53809362196E+01 -0.77102968956E+00 -0.32639858585E+01  0.63405492922E+01  0.51100000000E-03 0. -1.
        -11    1    3    3    0    0 -0.69069821999E+01  0.31864157320E+02  0.16685931574E+02  0.36625827466E+02  0.51100000000E-03 0.  1.
        -12    1    3    3    0    0  0.19885844042E+01  0.26430441489E+01  0.68008115241E+01  0.75624855498E+01  0.00000000000E+00 0.  1.
</event>
<event>
 7    1  0.2966651E-011  0.5052886E+02  0.7816164E-02  0.1300439E+00
        -11   -1    0    0    0    0  0.00000000000E+00  0.00000000000E+00  0.45593999997E+02  0.45594000000E+02  0.51100000000E-03 0. -1.
         11   -1    0    0    0    0 -0.00000000000E+00 -0.00000000000E+00 -0.45593999997E+02  0.45594000000E+02  0.51100000000E-03 0.  1.
    9900012    2    1    2    0    0  0.29173451356E+02 -0.83986747652E+01 -0.27046950269E+02  0.50528861782E+02  0.30000005871E+02 0.  0.
         12    1    1    2    0    0 -0.29173451356E+02  0.83986747652E+01  0.27046950269E+02  0.40659138218E+02  0.00000000000E+00 0. -1.
         11    1    3    3    0    0  0.10002449467E+01 -0.28969646989E+00  0.60448574750E+01  0.61338989356E+01  0.51100000000E-03 0. -1.
        -11    1    3    3    0    0  0.19347806460E+02 -0.38768453632E+01 -0.23575350759E+02  0.30743531164E+02  0.51100000000E-03 0.  1.
         12    1    3    3    0    0  0.88253999495E+01 -0.42321329321E+01 -0.95164569851E+01  0.13651431682E+02  0.00000000000E+00 0. -1.
</event>
<event>
 7    1  0.2966651E-011  0.5052886E+02  0.7816164E-02  0.1300439E+00
        -11   -1    0    0    0    0  0.00000000000E+00  0.00000000000E+00  0.45593999997E+02  0.45594000000E+02  0.51100000000E-03 0. -1.
         11   -1    0    0    0    0 -0.00000000000E+00 -0.00000000000E+00 -0.45593999997E+02  0.45594000000E+02  0.51100000000E-03 0.  1.
    9900012    2    1    2    0    0 -0.19820673498E+02 -0.20121567050E+02 -0.29247719716E+02  0.50528859981E+02  0.30000000398E+02 0.  0.
         12    1    1    2    0    0  0.19820673498E+02  0.20121567050E+02  0.29247719716E+02  0.40659140019E+02  0.00000000000E+00 0. -1.
         11    1    3    3    0    0 -0.27674389044E+01  0.68609954792E+01 -0.60191820638E+01  0.95374278520E+01  0.51100000000E-03 0. -1.
        -11    1    3    3    0    0 -0.18464694761E+02 -0.22826831775E+02 -0.19654757288E+02  0.35331553685E+02  0.51100000000E-03 0.  1.
        -12    1    3    3    0    0  0.14114601671E+01 -0.41557307547E+01 -0.35737803640E+01  0.56598784438E+01  0.00000000000E+00 0.  1.
</event>
<event>
 7    1  0.2966651E-011  0.5052883E+02  0.7816164E-02  0.1300439E+00
        -11   -1    0    0    0    0  0.00000000000E+00  0.00000000000E+00  0.45593999997E+02  0.45594000000E+02  0.51100000000E-03 0.  1.
         11   -1    0    0    0    0 -0.00000000000E+00 -0.00000000000E+00 -0.45593999997E+02  0.45594000000E+02  0.51100000000E-03 0. -1.
    9900012    2    1    2    0    0 -0.18299581034E+02 -0.34931211327E+02 -0.99047263586E+01  0.50528833813E+02  0.29999920859E+02 0.  0.
         12    1    1    2    0    0  0.18299581034E+02  0.34931211327E+02  0.99047263586E+01  0.40659166187E+02  0.00000000000E+00 0. -1.
         11    1    3    3    0    0 -0.27742448950E+01 -0.18634943072E+02 -0.98685406179E+01  0.21268418658E+02  0.51100000000E-03 0. -1.
        -11    1    3    3    0    0 -0.12749268624E+02 -0.23084864017E+01 -0.53831355415E+01  0.14030363803E+02  0.51100000000E-03 0.  1.
        -12    1    3    3    0    0 -0.27760675144E+01 -0.13987781853E+02  0.53469498008E+01  0.15230051352E+02  0.00000000000E+00 0.  1.
</event>
<event>
 7    1  0.2966651E-011  0.5052886E+02  0.7816164E-02  0.1300439E+00
        -11   -1    0    0    0    0  0.00000000000E+00  0.00000000000E+00  0.45593999997E+02  0.45594000000E+02  0.51100000000E-03 0. -1.
         11   -1    0    0    0    0 -0.00000000000E+00 -0.00000000000E+00 -0.45593999997E+02  0.45594000000E+02  0.51100000000E-03 0.  1.
    9900012    2    1    2    0    0  0.30188011958E+01  0.16633637268E+02 -0.36978025113E+02  0.50528863380E+02  0.30000010730E+02 0.  0.
         12    1    1    2    0    0 -0.30188011958E+01 -0.16633637268E+02  0.36978025113E+02  0.40659136620E+02  0.00000000000E+00 0. -1.
         11    1    3    3    0    0  0.35178171340E+01 -0.49216471368E+01  0.10405280240E+01  0.61384319462E+01  0.51100000000E-03 0. -1.
        -11    1    3    3    0    0 -0.23337334199E+01  0.76862712890E+01 -0.83369641463E+01  0.11577134768E+02  0.51100000000E-03 0.  1.
         12    1    3    3    0    0  0.18347174816E+01  0.13869013116E+02 -0.29681588991E+02  0.32813296666E+02  0.00000000000E+00 0. -1.
</event>
<event>
 7    1  0.2966651E-011  0.5052896E+02  0.7816164E-02  0.1300438E+00
        -11   -1    0    0    0    0  0.00000000000E+00  0.00000000000E+00  0.45593999997E+02  0.45594000000E+02  0.51100000000E-03 0.  1.
         11   -1    0    0    0    0 -0.00000000000E+00 -0.00000000000E+00 -0.45593999997E+02  0.45594000000E+02  0.51100000000E-03 0. -1.
    9900012    2    1    2    0    0 -0.34378290395E+02 -0.87483549916E+01  0.19868498701E+02  0.50528956649E+02  0.30000294229E+02 0.  0.
         12    1    1    2    0    0  0.34378290395E+02  0.87483549916E+01 -0.19868498701E+02  0.40659043351E+02  0.00000000000E+00 0. -1.
         11    1    3    3    0    0 -0.55234514475E+01 -0.13608885672E+02  0.25601419815E+01  0.14908541590E+02  0.51100000000E-03 0. -1.
        -11    1    3    3    0    0 -0.15450641310E+02  0.11241653547E+01  0.14908110265E+02  0.21499716663E+02  0.51100000000E-03 0.  1.
         12    1    3    3    0    0 -0.13404197637E+02  0.37363653257E+01  0.24002464550E+01  0.14120698396E+02  0.00000000000E+00 0. -1.
</event>
<event>
 7    1  0.2966651E-011  0.5052886E+02  0.7816164E-02  0.1300439E+00
        -11   -1    0    0    0    0  0.00000000000E+00  0.00000000000E+00  0.45593999997E+02  0.45594000000E+02  0.51100000000E-03 0. -1.
         11   -1    0    0    0    0 -0.00000000000E+00 -0.00000000000E+00 -0.45593999997E+02  0.45594000000E+02  0.51100000000E-03 0.  1.
    9900012    2    1    2    0    0  0.30087203192E+02 -0.14766539816E+02 -0.23019025096E+02  0.50528855759E+02  0.29999987565E+02 0.  0.
         12    1    1    2    0    0 -0.30087203192E+02  0.14766539816E+02  0.23019025096E+02  0.40659144241E+02  0.00000000000E+00 0. -1.
         11    1    3    3    0    0  0.13638276831E+02 -0.81489502596E+01  0.20142473614E+01  0.16014530213E+02  0.51100000000E-03 0. -1.
        -11    1    3    3    0    0  0.17921194751E+02 -0.87741058807E+01 -0.17497418141E+02  0.26538911002E+02  0.51100000000E-03 0.  1.
         12    1    3    3    0    0 -0.14722683896E+01  0.21565163246E+01 -0.75358543169E+01  0.79754145444E+01  0.00000000000E+00 0. -1.
</event>
<event>
 7    1  0.2966651E-011  0.5052887E+02  0.7816164E-02  0.1300439E+00
        -11   -1    0    0    0    0  0.00000000000E+00  0.00000000000E+00  0.45593999997E+02  0.45594000000E+02  0.51100000000E-03 0. -1.
         11   -1    0    0    0    0 -0.00000000000E+00 -0.00000000000E+00 -0.45593999997E+02  0.45594000000E+02  0.51100000000E-03 0.  1.
    9900012    2    1    2    0    0  0.21828434369E+02 -0.33563686207E+02 -0.70826014680E+01  0.50528870369E+02  0.30000031974E+02 0.  0.
         12    1    1    2    0    0 -0.21828434369E+02  0.33563686207E+02  0.70826014680E+01  0.40659129631E+02  0.00000000000E+00 0. -1.
         11    1    3    3    0    0  0.16692666156E+02 -0.13387729028E+02  0.54858472039E+01  0.22090063642E+02  0.51100000000E-03 0. -1.
        -11    1    3    3    0    0  0.45059467818E+01 -0.21220269459E+02 -0.70845125690E+01  0.22820905129E+02  0.51100000000E-03 0.  1.
         12    1    3    3    0    0  0.62982143109E+00  0.10443122802E+01 -0.54839361030E+01  0.56179015971E+01  0.00000000000E+00 0. -1.
</event>
<event>
 7    1  0.2966651E-011  0.5052886E+02  0.7816164E-02  0.1300439E+00
        -11   -1    0    0    0    0  0.00000000000E+00  0.00000000000E+00  0.45593999997E+02  0.45594000000E+02  0.51100000000E-03 0. -1.
         11   -1    0    0    0    0 -0.00000000000E+00 -0.00000000000E+00 -0.45593999997E+02  0.45594000000E+02  0.51100000000E-03 0.  1.
    9900012    2    1    2    0    0  0.95235796136E+00  0.39721811673E+02 -0.86276557667E+01  0.50528858933E+02  0.29999997214E+02 0.  0.
         12    1    1    2    0    0 -0.95235796136E+00 -0.39721811673E+02  0.86276557667E+01  0.40659141067E+02  0.00000000000E+00 0. -1.
         11    1    3    3    0    0  0.71471058833E+01  0.90162734384E+01  0.66733029242E+01  0.13300649661E+02  0.51100000000E-03 0. -1.
        -11    1    3    3    0    0 -0.85113487684E+01  0.10128340359E+02 -0.57922741320E+01  0.14442187375E+02  0.51100000000E-03 0.  1.
        -12    1    3    3    0    0  0.23166008464E+01  0.20577197875E+02 -0.95086845590E+01  0.22786021898E+02  0.00000000000E+00 0.  1.
</event>
<event>
 7    1  0.2966651E-011  0.5052886E+02  0.7816164E-02  0.1300439E+00
        -11   -1    0    0    0    0  0.00000000000E+00  0.00000000000E+00  0.45593999997E+02  0.45594000000E+02  0.51100000000E-03 0.  1.
         11   -1    0    0    0    0 -0.00000000000E+00 -0.00000000000E+00 -0.45593999997E+02  0.45594000000E+02  0.51100000000E-03 0. -1.
    9900012    2    1    2    0    0 -0.94036886118E+01 -0.12163768400E+02  0.37640126901E+02  0.50528858662E+02  0.29999996390E+02 0.  0.
         12    1    1    2    0    0  0.94036886118E+01  0.12163768400E+02 -0.37640126901E+02  0.40659141338E+02  0.00000000000E+00 0. -1.
         11    1    3    3    0    0 -0.12194922907E+02 -0.46385092847E+01  0.13597657061E+02  0.18844845208E+02  0.51100000000E-03 0. -1.
        -11    1    3    3    0    0  0.84525533589E+01 -0.62737998778E+00  0.32858068566E+01  0.90904230317E+01  0.51100000000E-03 0.  1.
        -12    1    3    3    0    0 -0.56613190641E+01 -0.68978791277E+01  0.20756662983E+02  0.22593590423E+02  0.00000000000E+00 0.  1.
</event>
<event>
 7    1  0.2966651E-011  0.5052886E+02  0.7816164E-02  0.1300439E+00
        -11   -1    0    0    0    0  0.00000000000E+00  0.00000000000E+00  0.45593999997E+02  0.45594000000E+02  0.51100000000E-03 0.  1.
         11   -1    0    0    0    0 -0.00000000000E+00 -0.00000000000E+00 -0.45593999997E+02  0.45594000000E+02  0.51100000000E-03 0. -1.
    9900012    2    1    2    0    0 -0.36987851957E+02 -0.16883234685E+02 -0.14450004450E+00  0.50528859748E+02  0.29999999689E+02 0.  0.
         12    1    1    2    0    0  0.36987851957E+02  0.16883234685E+02  0.14450004450E+00  0.40659140252E+02  0.00000000000E+00 0. -1.
         11    1    3    3    0    0  0.36835046864E+01 -0.34039053245E+01  0.79999623951E+00  0.50788554298E+01  0.51100000000E-03 0. -1.
        -11    1    3    3    0    0 -0.39022043766E+02 -0.14812094018E+02 -0.37797741038E+01  0.41909482476E+02  0.51100000000E-03 0.  1.
        -12    1    3    3    0    0 -0.16493128775E+01  0.13327646571E+01  0.28352778198E+01  0.35405218421E+01  0.00000000000E+00 0.  1.
</event>
<event>
 7    1  0.2966651E-011  0.5052886E+02  0.7816164E-02  0.1300439E+00
        -11   -1    0    0    0    0  0.00000000000E+00  0.00000000000E+00  0.45593999997E+02  0.45594000000E+02  0.51100000000E-03 0. -1.
         11   -1    0    0    0    0 -0.00000000000E+00 -0.00000000000E+00 -0.45593999997E+02  0.45594000000E+02  0.51100000000E-03 0.  1.
    9900012    2    1    2    0    0  0.36609260689E+02  0.17049883121E+02  0.47147529261E+01  0.50528863538E+02  0.30000011212E+02 0.  0.
         12    1    1    2    0    0 -0.36609260689E+02 -0.17049883121E+02 -0.47147529261E+01  0.40659136462E+02  0.00000000000E+00 0. -1.
         11    1    3    3    0    0  0.14526144059E+02  0.62743238761E+01  0.12334805453E+02  0.20062986496E+02  0.51100000000E-03 0. -1.
        -11    1    3    3    0    0  0.23687045352E+02  0.10090677964E+02 -0.34894600858E+01  0.25982190655E+02  0.51100000000E-03 0.  1.
        -12    1    3    3    0    0 -0.16039287213E+01  0.68488128089E+00 -0.41305924409E+01  0.44836863879E+01  0.00000000000E+00 0.  1.
</event>
<event>
 7    1  0.2966651E-011  0.5052888E+02  0.7816164E-02  0.1300439E+00
        -11   -1    0    0    0    0  0.00000000000E+00  0.00000000000E+00  0.45593999997E+02  0.45594000000E+02  0.51100000000E-03 0.  1.
         11   -1    0    0    0    0 -0.00000000000E+00 -0.00000000000E+00 -0.45593999997E+02  0.45594000000E+02  0.51100000000E-03 0. -1.
    9900012    2    1    2    0    0  0.29295658233E+02  0.18016623404E+01  0.28136853741E+02  0.50528879044E+02  0.30000058341E+02 0.  0.
         12    1    1    2    0    0 -0.29295658233E+02 -0.18016623404E+01 -0.28136853741E+02  0.40659120956E+02  0.00000000000E+00 0. -1.
         11    1    3    3    0    0  0.33179293628E+01  0.85610565847E+01  0.10445560520E+02  0.13907195258E+02  0.51100000000E-03 0. -1.
        -11    1    3    3    0    0  0.20285868067E+02 -0.71384914409E+01  0.41146646767E+01  0.21895318426E+02  0.51100000000E-03 0.  1.
        -12    1    3    3    0    0  0.56918608033E+01  0.37909719662E+00  0.13576628544E+02  0.14726365360E+02  0.00000000000E+00 0.  1.
</event>
<event>
 7    1  0.2966651E-011  0.5052888E+02  0.7816164E-02  0.1300439E+00
        -11   -1    0    0    0    0  0.00000000000E+00  0.00000000000E+00  0.45593999997E+02  0.45594000000E+02  0.51100000000E-03 0.  1.
         11   -1    0    0    0    0 -0.00000000000E+00 -0.00000000000E+00 -0.45593999997E+02  0.45594000000E+02  0.51100000000E-03 0. -1.
    9900012    2    1    2    0    0 -0.86636265501E+01 -0.77700771297E+01  0.38958070943E+02  0.50528882754E+02  0.30000069620E+02 0.  0.
         12    1    1    2    0    0  0.86636265501E+01  0.77700771297E+01 -0.38958070943E+02  0.40659117246E+02  0.00000000000E+00 0. -1.
         11    1    3    3    0    0 -0.68959316660E+01  0.28260755069E+01  0.22944070039E+01  0.77977483977E+01  0.51100000000E-03 0. -1.
        -11    1    3    3    0    0  0.47972554917E+01 -0.88283250323E+01  0.33958803511E+02  0.35414027155E+02  0.51100000000E-03 0.  1.
        -12    1    3    3    0    0 -0.65649503757E+01 -0.17678276043E+01  0.27048604276E+01  0.73171072021E+01  0.00000000000E+00 0.  1.
</event>
<event>
 7    1  0.2966651E-011  0.5052887E+02  0.7816164E-02  0.1300439E+00
        -11   -1    0    0    0    0  0.00000000000E+00  0.00000000000E+00  0.45593999997E+02  0.45594000000E+02  0.51100000000E-03 0. -1.
         11   -1    0    0    0    0 -0.00000000000E+00 -0.00000000000E+00 -0.45593999997E+02  0.45594000000E+02  0.51100000000E-03 0.  1.
    9900012    2    1    2    0    0 -0.14411736600E+02  0.24887228981E+02 -0.28741823761E+02  0.50528871243E+02  0.30000034630E+02 0.  0.
         12    1    1    2    0    0  0.14411736600E+02 -0.24887228981E+02  0.28741823761E+02  0.40659128757E+02  0.00000000000E+00 0. -1.
         11    1    3    3    0    0 -0.13171744882E+02 -0.88085316941E+00 -0.38979736919E+01  0.13764627300E+02  0.51100000000E-03 0. -1.
        -11    1    3    3    0    0 -0.18458034085E+01  0.24504380562E+02 -0.19885884924E+02  0.31612024238E+02  0.51100000000E-03 0.  1.
         12    1    3    3    0    0  0.60581169014E+00  0.12637015882E+01 -0.49579651455E+01  0.51522197053E+01  0.00000000000E+00 0. -1.
</event>
<event>
 7    1  0.2966651E-011  0.5052887E+02  0.7816164E-02  0.1300439E+00
        -11   -1    0    0    0    0  0.00000000000E+00  0.00000000000E+00  0.45593999997E+02  0.45594000000E+02  0.51100000000E-03 0.  1.
         11   -1    0    0    0    0 -0.00000000000E+00 -0.00000000000E+00 -0.45593999997E+02  0.45594000000E+02  0.51100000000E-03 0. -1.
    9900012    2    1    2    0    0  0.26189128159E+02 -0.82907141057E+01  0.29975968752E+02  0.50528867241E+02  0.30000022466E+02 0.  0.
         12    1    1    2    0    0 -0.26189128159E+02  0.82907141057E+01 -0.29975968752E+02  0.40659132759E+02  0.00000000000E+00 0. -1.
         11    1    3    3    0    0 -0.32472015697E+01  0.28293829170E+01 -0.18534644699E+01  0.46888225097E+01  0.51100000000E-03 0. -1.
        -11    1    3    3    0    0  0.22785819605E+02 -0.98137243942E+01  0.18710792164E+02  0.31074048742E+02  0.51100000000E-03 0.  1.
        -12    1    3    3    0    0  0.66505101229E+01 -0.13063726284E+01  0.13118641058E+02  0.14765995989E+02  0.00000000000E+00 0.  1.
</event>
<event>
 7    1  0.2966651E-011  0.5052879E+02  0.7816164E-02  0.1300439E+00
        -11   -1    0    0    0    0  0.00000000000E+00  0.00000000000E+00  0.45593999997E+02  0.45594000000E+02  0.51100000000E-03 0. -1.
         11   -1    0    0    0    0 -0.00000000000E+00 -0.00000000000E+00 -0.45593999997E+02  0.45594000000E+02  0.51100000000E-03 0.  1.
    9900012    2    1    2    0    0 -0.32044510758E+01  0.16883858190E+02 -0.36848857426E+02  0.50528788649E+02  0.29999783578E+02 0.  0.
         12    1    1    2    0    0  0.32044510758E+01 -0.16883858190E+02  0.36848857426E+02  0.40659211351E+02  0.00000000000E+00 0. -1.
         11    1    3    3    0    0  0.12581542888E+02  0.32169938252E+01 -0.15812845541E+02  0.20461924521E+02  0.51100000000E-03 0. -1.
        -11    1    3    3    0    0 -0.94403714209E+01  0.60561451219E+01 -0.84207772755E+01  0.14025227146E+02  0.51100000000E-03 0.  1.
         12    1    3    3    0    0 -0.63456225430E+01  0.76107192430E+01 -0.12615234609E+02  0.16041636983E+02  0.00000000000E+00 0. -1.
</event>
<event>
 7    1  0.2966651E-011  0.5052886E+02  0.7816164E-02  0.1300439E+00
        -11   -1    0    0    0    0  0.00000000000E+00  0.00000000000E+00  0.45593999997E+02  0.45594000000E+02  0.51100000000E-03 0.  1.
         11   -1    0    0    0    0 -0.00000000000E+00 -0.00000000000E+00 -0.45593999997E+02  0.45594000000E+02  0.51100000000E-03 0. -1.
    9900012    2    1    2    0    0  0.21304994635E+01  0.39751002604E+02  0.82755412855E+01  0.50528858106E+02  0.29999994699E+02 0.  0.
         12    1    1    2    0    0 -0.21304994635E+01 -0.39751002604E+02 -0.82755412855E+01  0.40659141894E+02  0.00000000000E+00 0. -1.
         11    1    3    3    0    0 -0.14875273239E+00 -0.43750710752E+01 -0.22352489802E+01  0.49152530508E+01  0.51100000000E-03 0. -1.
        -11    1    3    3    0    0  0.12537117387E+01  0.41289671423E+02  0.91772617274E+01  0.42315846823E+02  0.51100000000E-03 0.  1.
         12    1    3    3    0    0  0.10255404573E+01  0.28364022569E+01  0.13335285384E+01  0.32977582317E+01  0.00000000000E+00 0. -1.
</event>
<event>
 7    1  0.2966651E-011  0.5052891E+02  0.7816164E-02  0.1300439E+00
        -11   -1    0    0    0    0  0.00000000000E+00  0.00000000000E+00  0.45593999997E+02  0.45594000000E+02  0.51100000000E-03 0. -1.
         11   -1    0    0    0    0 -0.00000000000E+00 -0.00000000000E+00 -0.45593999997E+02  0.45594000000E+02  0.51100000000E-03 0.  1.
    9900012    2    1    2    0    0 -0.48449894840E+01  0.28751542461E+02 -0.28337904779E+02  0.50528905516E+02  0.30000138805E+02 0.  0.
         12    1    1    2    0    0  0.48449894840E+01 -0.28751542461E+02  0.28337904779E+02  0.40659094484E+02  0.00000000000E+00 0. -1.
         11    1    3    3    0    0  0.34964017116E+00 -0.39486534202E+01 -0.94607150474E+01  0.10257643080E+02  0.51100000000E-03 0. -1.
        -11    1    3    3    0    0 -0.19652240669E+01  0.32228471817E+02 -0.17533491629E+02  0.36741799497E+02  0.51100000000E-03 0.  1.
         12    1    3    3    0    0 -0.32294055883E+01  0.47172406461E+00 -0.13436981025E+01  0.35294629390E+01  0.00000000000E+00 0. -1.
</event>
<event>
 7    1  0.2966651E-011  0.5052886E+02  0.7816164E-02  0.1300439E+00
        -11   -1    0    0    0    0  0.00000000000E+00  0.00000000000E+00  0.45593999997E+02  0.45594000000E+02  0.51100000000E-03 0.  1.
         11   -1    0    0    0    0 -0.00000000000E+00 -0.00000000000E+00 -0.45593999997E+02  0.45594000000E+02  0.51100000000E-03 0. -1.
    9900012    2    1    2    0    0 -0.29019745506E+02 -0.11775814888E+02  0.25929721509E+02  0.50528857080E+02  0.29999991580E+02 0.  0.
         12    1    1    2    0    0  0.29019745506E+02  0.11775814888E+02 -0.25929721509E+02  0.40659142920E+02  0.00000000000E+00 0. -1.
         11    1    3    3    0    0 -0.29450679118E+01  0.50912736367E+01  0.35917918940E+01  0.68916951122E+01  0.51100000000E-03 0. -1.
        -11    1    3    3    0    0 -0.27289573645E+02 -0.20031340365E+02  0.18736145732E+02  0.38691324398E+02  0.51100000000E-03 0.  1.
        -12    1    3    3    0    0  0.12148960512E+01  0.31642518402E+01  0.36017838830E+01  0.49458375694E+01  0.00000000000E+00 0.  1.
</event>
<event>
 7    1  0.2966651E-011  0.5052887E+02  0.7816164E-02  0.1300439E+00
        -11   -1    0    0    0    0  0.00000000000E+00  0.00000000000E+00  0.45593999997E+02  0.45594000000E+02  0.51100000000E-03 0. -1.
         11   -1    0    0    0    0 -0.00000000000E+00 -0.00000000000E+00 -0.45593999997E+02  0.45594000000E+02  0.51100000000E-03 0.  1.
    9900012    2    1    2    0    0  0.33188203984E+02 -0.10497792292E+02 -0.21012010456E+02  0.50528866831E+02  0.30000021219E+02 0.  0.
         12    1    1    2    0    0 -0.33188203984E+02  0.10497792292E+02  0.21012010456E+02  0.40659133169E+02  0.00000000000E+00 0. -1.
         11    1    3    3    0    0  0.17907799057E+01 -0.42833565639E+01  0.66214854651E+01  0.80869095550E+01  0.51100000000E-03 0. -1.
        -11    1    3    3    0    0  0.24512099547E+02 -0.38177215552E+01 -0.22808862641E+02  0.33699588088E+02  0.51100000000E-03 0.  1.
         12    1    3    3    0    0  0.68853245317E+01 -0.23967141729E+01 -0.48246332800E+01  0.87423691881E+01  0.00000000000E+00 0. -1.
</event>
<event>
 7    1  0.2966651E-011  0.5052898E+02  0.7816164E-02  0.1300438E+00
        -11   -1    0    0    0    0  0.00000000000E+00  0.00000000000E+00  0.45593999997E+02  0.45594000000E+02  0.51100000000E-03 0. -1.
         11   -1    0    0    0    0 -0.00000000000E+00 -0.00000000000E+00 -0.45593999997E+02  0.45594000000E+02  0.51100000000E-03 0.  1.
    9900012    2    1    2    0    0  0.15508821629E+02  0.36354754986E+02 -0.95374987916E+01  0.50528983268E+02  0.30000375140E+02 0.  0.
         12    1    1    2    0    0 -0.15508821629E+02 -0.36354754986E+02  0.95374987916E+01  0.40659016732E+02  0.00000000000E+00 0. -1.
         11    1    3    3    0    0 -0.38179940403E+01  0.61316092878E+01 -0.39279279258E+01  0.82220635489E+01  0.51100000000E-03 0. -1.
        -11    1    3    3    0    0  0.50662130763E+01  0.88030950686E+01  0.82443540653E+01  0.13081680776E+02  0.51100000000E-03 0.  1.
        -12    1    3    3    0    0  0.14260602593E+02  0.21420050629E+02 -0.13853924931E+02  0.29225238943E+02  0.00000000000E+00 0.  1.
</event>
<event>
 7    1  0.2966651E-011  0.5052886E+02  0.7816164E-02  0.1300439E+00
        -11   -1    0    0    0    0  0.00000000000E+00  0.00000000000E+00  0.45593999997E+02  0.45594000000E+02  0.51100000000E-03 0.  1.
         11   -1    0    0    0    0 -0.00000000000E+00 -0.00000000000E+00 -0.45593999997E+02  0.45594000000E+02  0.51100000000E-03 0. -1.
    9900012    2    1    2    0    0 -0.28761047683E+02  0.22001245887E+02  0.18490889021E+02  0.50528860053E+02  0.30000000618E+02 0.  0.
         12    1    1    2    0    0  0.28761047683E+02 -0.22001245887E+02 -0.18490889021E+02  0.40659139947E+02  0.00000000000E+00 0. -1.
         11    1    3    3    0    0 -0.11021375428E+02  0.40025191304E+00  0.67357916036E+00  0.11049191240E+02  0.51100000000E-03 0. -1.
        -11    1    3    3    0    0 -0.73419907251E+01  0.22556260217E+02  0.76971912087E+01  0.24938653844E+02  0.51100000000E-03 0.  1.
        -12    1    3    3    0    0 -0.10397681530E+02 -0.95526624313E+00  0.10120118652E+02  0.14541014969E+02  0.00000000000E+00 0.  1.
</event>
<event>
 7    1  0.2966651E-011  0.5052890E+02  0.7816164E-02  0.1300439E+00
        -11   -1    0    0    0    0  0.00000000000E+00  0.00000000000E+00  0.45593999997E+02  0.45594000000E+02  0.51100000000E-03 0. -1.
         11   -1    0    0    0    0 -0.00000000000E+00 -0.00000000000E+00 -0.45593999997E+02  0.45594000000E+02  0.51100000000E-03 0.  1.
    9900012    2    1    2    0    0 -0.35398218881E+02  0.96734308835E+01 -0.17508664081E+02  0.50528899138E+02  0.30000119419E+02 0.  0.
         12    1    1    2    0    0  0.35398218881E+02 -0.96734308835E+01  0.17508664081E+02  0.40659100862E+02  0.00000000000E+00 0. -1.
         11    1    3    3    0    0 -0.21429042655E+02 -0.16116381535E+01 -0.12443195000E+02  0.24832123323E+02  0.51100000000E-03 0.  1.
        -11    1    3    3    0    0 -0.59230718622E+01  0.46109810002E+01  0.66266003070E+01  0.10012779732E+02  0.51100000000E-03 0. -1.
        -12    1    3    3    0    0 -0.80461043642E+01  0.66740880369E+01 -0.11692069388E+02  0.15683996083E+02  0.00000000000E+00 0.  1.
</event>
<event>
 7    1  0.2966651E-011  0.5052886E+02  0.7816164E-02  0.1300439E+00
        -11   -1    0    0    0    0  0.00000000000E+00  0.00000000000E+00  0.45593999997E+02  0.45594000000E+02  0.51100000000E-03 0.  1.
         11   -1    0    0    0    0 -0.00000000000E+00 -0.00000000000E+00 -0.45593999997E+02  0.45594000000E+02  0.51100000000E-03 0. -1.
    9900012    2    1    2    0    0  0.28741225600E+02  0.16047689619E+02  0.23865855575E+02  0.50528862609E+02  0.30000008386E+02 0.  0.
         12    1    1    2    0    0 -0.28741225600E+02 -0.16047689619E+02 -0.23865855575E+02  0.40659137391E+02  0.00000000000E+00 0. -1.
         11    1    3    3    0    0  0.29570604307E+02  0.58576054167E+01  0.13351013043E+02  0.32969405968E+02  0.51100000000E-03 0. -1.
        -11    1    3    3    0    0 -0.37537772138E+00  0.10268475364E+02  0.12119981008E+02  0.15889507061E+02  0.51100000000E-03 0.  1.
        -12    1    3    3    0    0 -0.45400098633E+00 -0.78391161752E-01 -0.16051384769E+01  0.16699495800E+01  0.00000000000E+00 0.  1.
</event>
<event>
 7    1  0.2966651E-011  0.5052888E+02  0.7816164E-02  0.1300439E+00
        -11   -1    0    0    0    0  0.00000000000E+00  0.00000000000E+00  0.45593999997E+02  0.45594000000E+02  0.51100000000E-03 0.  1.
         11   -1    0    0    0    0 -0.00000000000E+00 -0.00000000000E+00 -0.45593999997E+02  0.45594000000E+02  0.51100000000E-03 0. -1.
    9900012    2    1    2    0    0 -0.13637535635E+01  0.48090147254E+01  0.40350682503E+02  0.50528880176E+02  0.30000061784E+02 0.  0.
         12    1    1    2    0    0  0.13637535635E+01 -0.48090147254E+01 -0.40350682503E+02  0.40659119824E+02  0.00000000000E+00 0. -1.
         11    1    3    3    0    0 -0.38060428938E+00  0.75319894449E+00 -0.96852638519E+00  0.12846057352E+01  0.51100000000E-03 0. -1.
        -11    1    3    3    0    0  0.26844285698E+00 -0.76441379678E+01  0.35122272086E+02  0.35945499072E+02  0.51100000000E-03 0.  1.
        -12    1    3    3    0    0 -0.12515921311E+01  0.11699953749E+02  0.61969368022E+01  0.13298775369E+02  0.00000000000E+00 0.  1.
</event>
<event>
 7    1  0.2966651E-011  0.5052887E+02  0.7816164E-02  0.1300439E+00
        -11   -1    0    0    0    0  0.00000000000E+00  0.00000000000E+00  0.45593999997E+02  0.45594000000E+02  0.51100000000E-03 0. -1.
         11   -1    0    0    0    0 -0.00000000000E+00 -0.00000000000E+00 -0.45593999997E+02  0.45594000000E+02  0.51100000000E-03 0.  1.
    9900012    2    1    2    0    0 -0.34219305605E+02 -0.49243063320E+01 -0.21399892349E+02  0.50528867428E+02  0.30000023035E+02 0.  0.
         12    1    1    2    0    0  0.34219305605E+02  0.49243063320E+01  0.21399892349E+02  0.40659132572E+02  0.00000000000E+00 0. -1.
         11    1    3    3    0    0 -0.26131471447E+02  0.70474189967E+01 -0.94359026671E+01  0.28662801223E+02  0.51100000000E-03 0. -1.
        -11    1    3    3    0    0  0.21029298677E+01 -0.54797639632E+01 -0.59924605241E+01  0.83880695344E+01  0.51100000000E-03 0.  1.
        -12    1    3    3    0    0 -0.10190764025E+02 -0.64919613654E+01 -0.59715291579E+01  0.13477996671E+02  0.00000000000E+00 0.  1.
</event>
<event>
 7    1  0.2966651E-011  0.5052892E+02  0.7816164E-02  0.1300439E+00
        -11   -1    0    0    0    0  0.00000000000E+00  0.00000000000E+00  0.45593999997E+02  0.45594000000E+02  0.51100000000E-03 0.  1.
         11   -1    0    0    0    0 -0.00000000000E+00 -0.00000000000E+00 -0.45593999997E+02  0.45594000000E+02  0.51100000000E-03 0. -1.
    9900012    2    1    2    0    0  0.18269360829E+01 -0.33647831335E+02 -0.22751848836E+02  0.50528918917E+02  0.30000179541E+02 0.  0.
         12    1    1    2    0    0 -0.18269360829E+01  0.33647831335E+02  0.22751848836E+02  0.40659081083E+02  0.00000000000E+00 0. -1.
         11    1    3    3    0    0 -0.34117787863E+00 -0.16617758185E+01 -0.53296370489E+01  0.55931147449E+01  0.51100000000E-03 0. -1.
        -11    1    3    3    0    0 -0.52243417515E+01  0.27268471548E+01 -0.31509774122E+01  0.66826717004E+01  0.51100000000E-03 0.  1.
        -12    1    3    3    0    0  0.73924557131E+01 -0.34712902671E+02 -0.14271234375E+02  0.38253132472E+02  0.00000000000E+00 0.  1.
</event>
<event>
 7    1  0.2966651E-011  0.5052881E+02  0.7816164E-02  0.1300439E+00
        -11   -1    0    0    0    0  0.00000000000E+00  0.00000000000E+00  0.45593999997E+02  0.45594000000E+02  0.51100000000E-03 0.  1.
         11   -1    0    0    0    0 -0.00000000000E+00 -0.00000000000E+00 -0.45593999997E+02  0.45594000000E+02  0.51100000000E-03 0. -1.
    9900012    2    1    2    0    0  0.23073641868E+02 -0.33338558041E+02 -0.30524497892E+01  0.50528808529E+02  0.29999844005E+02 0.  0.
         12    1    1    2    0    0 -0.23073641868E+02  0.33338558041E+02  0.30524497892E+01  0.40659191471E+02  0.00000000000E+00 0. -1.
         11    1    3    3    0    0  0.50312333789E+01 -0.55736594351E+01 -0.86221773883E+01  0.11433325500E+02  0.51100000000E-03 0. -1.
        -11    1    3    3    0    0  0.15492578711E+02 -0.71932892128E+01  0.66702108311E+01  0.18337260363E+02  0.51100000000E-03 0.  1.
        -12    1    3    3    0    0  0.25498297783E+01 -0.20571609393E+02 -0.11004832320E+01  0.20758222666E+02  0.00000000000E+00 0.  1.
</event>
<event>
 7    1  0.2966651E-011  0.5052886E+02  0.7816164E-02  0.1300439E+00
        -11   -1    0    0    0    0  0.00000000000E+00  0.00000000000E+00  0.45593999997E+02  0.45594000000E+02  0.51100000000E-03 0. -1.
         11   -1    0    0    0    0 -0.00000000000E+00 -0.00000000000E+00 -0.45593999997E+02  0.45594000000E+02  0.51100000000E-03 0.  1.
    9900012    2    1    2    0    0 -0.34961385180E+02 -0.18886834253E+02 -0.86113063956E+01  0.50528861302E+02  0.30000004414E+02 0.  0.
         12    1    1    2    0    0  0.34961385180E+02  0.18886834253E+02  0.86113063956E+01  0.40659138698E+02  0.00000000000E+00 0. -1.
         11    1    3    3    0    0 -0.16929257182E+01 -0.10474210882E+02 -0.59761279827E+01  0.12177405184E+02  0.51100000000E-03 0. -1.
        -11    1    3    3    0    0 -0.31329521707E+02 -0.12300721754E+02 -0.89068405378E+00  0.33669570897E+02  0.51100000000E-03 0.  1.
         12    1    3    3    0    0 -0.19389377549E+01  0.38880983829E+01 -0.17444943592E+01  0.46818852209E+01  0.00000000000E+00 0. -1.
</event>
<event>
 7    1  0.2966651E-011  0.5052886E+02  0.7816164E-02  0.1300439E+00
        -11   -1    0    0    0    0  0.00000000000E+00  0.00000000000E+00  0.45593999997E+02  0.45594000000E+02  0.51100000000E-03 0. -1.
         11   -1    0    0    0    0 -0.00000000000E+00 -0.00000000000E+00 -0.45593999997E+02  0.45594000000E+02  0.51100000000E-03 0.  1.
    9900012    2    1    2    0    0 -0.47176261596E+01  0.13262818367E+02 -0.38144558319E+02  0.50528859859E+02  0.30000000028E+02 0.  0.
         12    1    1    2    0    0  0.47176261596E+01 -0.13262818367E+02  0.38144558319E+02  0.40659140141E+02  0.00000000000E+00 0. -1.
         11    1    3    3    0    0  0.46002350586E+01  0.46422666085E+01 -0.14360400166E+01  0.66914133820E+01  0.51100000000E-03 0. -1.
        -11    1    3    3    0    0 -0.13349814909E+02  0.16548120033E+01 -0.12639526922E+02  0.18458429022E+02  0.51100000000E-03 0.  1.
        -12    1    3    3    0    0  0.40319536912E+01  0.69657397547E+01 -0.24068991381E+02  0.25379017456E+02  0.00000000000E+00 0.  1.
</event>
<event>
 7    1  0.2966651E-011  0.5052886E+02  0.7816164E-02  0.1300439E+00
        -11   -1    0    0    0    0  0.00000000000E+00  0.00000000000E+00  0.45593999997E+02  0.45594000000E+02  0.51100000000E-03 0. -1.
         11   -1    0    0    0    0 -0.00000000000E+00 -0.00000000000E+00 -0.45593999997E+02  0.45594000000E+02  0.51100000000E-03 0.  1.
    9900012    2    1    2    0    0 -0.22945436274E+02  0.57638252616E+01 -0.33067372436E+02  0.50528857765E+02  0.29999993662E+02 0.  0.
         12    1    1    2    0    0  0.22945436274E+02 -0.57638252616E+01  0.33067372436E+02  0.40659142235E+02  0.00000000000E+00 0. -1.
         11    1    3    3    0    0 -0.61325565729E+01 -0.21401583903E+01 -0.97700784194E+01  0.11732133678E+02  0.51100000000E-03 0. -1.
        -11    1    3    3    0    0 -0.71462070517E+01  0.12724936422E+02 -0.23871549644E+02  0.27979334603E+02  0.51100000000E-03 0.  1.
        -12    1    3    3    0    0 -0.96666726495E+01 -0.48209527698E+01  0.57425562712E+00  0.10817389484E+02  0.00000000000E+00 0.  1.
</event>
<event>
 7    1  0.2966651E-011  0.5052887E+02  0.7816164E-02  0.1300439E+00
        -11   -1    0    0    0    0  0.00000000000E+00  0.00000000000E+00  0.45593999997E+02  0.45594000000E+02  0.51100000000E-03 0.  1.
         11   -1    0    0    0    0 -0.00000000000E+00 -0.00000000000E+00 -0.45593999997E+02  0.45594000000E+02  0.51100000000E-03 0. -1.
    9900012    2    1    2    0    0 -0.96987212721E+01 -0.17610170677E+02  0.35340928180E+02  0.50528874207E+02  0.30000043639E+02 0.  0.
         12    1    1    2    0    0  0.96987212721E+01  0.17610170677E+02 -0.35340928180E+02  0.40659125793E+02  0.00000000000E+00 0. -1.
         11    1    3    3    0    0 -0.38813594820E+01  0.38382956128E+00  0.12420806065E+02  0.13018782590E+02  0.51100000000E-03 0. -1.
        -11    1    3    3    0    0 -0.10695087998E+02 -0.21212756571E+02  0.17171388700E+02  0.29312497997E+02  0.51100000000E-03 0.  1.
        -12    1    3    3    0    0  0.48777262083E+01  0.32187563323E+01  0.57487334151E+01  0.81975936206E+01  0.00000000000E+00 0.  1.
</event>
<event>
 7    1  0.2966651E-011  0.5052885E+02  0.7816164E-02  0.1300439E+00
        -11   -1    0    0    0    0  0.00000000000E+00  0.00000000000E+00  0.45593999997E+02  0.45594000000E+02  0.51100000000E-03 0.  1.
         11   -1    0    0    0    0 -0.00000000000E+00 -0.00000000000E+00 -0.45593999997E+02  0.45594000000E+02  0.51100000000E-03 0. -1.
    9900012    2    1    2    0    0  0.40647964130E+02 -0.90170952144E+00  0.31057922609E+00  0.50528849401E+02  0.29999968238E+02 0.  0.
         12    1    1    2    0    0 -0.40647964130E+02  0.90170952144E+00 -0.31057922609E+00  0.40659150599E+02  0.00000000000E+00 0. -1.
         11    1    3    3    0    0  0.27438750345E+02  0.45324027979E+01 -0.55921080324E+01  0.28367223483E+02  0.51100000000E-03 0. -1.
        -11    1    3    3    0    0  0.14841094983E+02 -0.82983638178E+01  0.73962747376E+01  0.18542540889E+02  0.51100000000E-03 0.  1.
         12    1    3    3    0    0 -0.16318811977E+01  0.28642514984E+01 -0.14935874791E+01  0.36190850290E+01  0.00000000000E+00 0. -1.
</event>
<event>
 7    1  0.2966651E-011  0.5052889E+02  0.7816164E-02  0.1300439E+00
        -11   -1    0    0    0    0  0.00000000000E+00  0.00000000000E+00  0.45593999997E+02  0.45594000000E+02  0.51100000000E-03 0.  1.
         11   -1    0    0    0    0 -0.00000000000E+00 -0.00000000000E+00 -0.45593999997E+02  0.45594000000E+02  0.51100000000E-03 0. -1.
    9900012    2    1    2    0    0 -0.70065234311E+01 -0.39903592197E+02 -0.34315388874E+01  0.50528886631E+02  0.30000081402E+02 0.  0.
         12    1    1    2    0    0  0.70065234311E+01  0.39903592197E+02  0.34315388874E+01  0.40659113369E+02  0.00000000000E+00 0. -1.
         11    1    3    3    0    0  0.20600177787E+01 -0.34768770494E+02 -0.23440818758E+01  0.34908534702E+02  0.51100000000E-03 0.  1.
        -11    1    3    3    0    0 -0.10518414028E+02 -0.61655031735E+01 -0.34416360132E+01  0.12668674822E+02  0.51100000000E-03 0. -1.
        -12    1    3    3    0    0  0.14518728178E+01  0.10306814701E+01  0.23541790015E+01  0.29516771069E+01  0.00000000000E+00 0.  1.
</event>
<event>
 7    1  0.2966651E-011  0.5052886E+02  0.7816164E-02  0.1300439E+00
        -11   -1    0    0    0    0  0.00000000000E+00  0.00000000000E+00  0.45593999997E+02  0.45594000000E+02  0.51100000000E-03 0.  1.
         11   -1    0    0    0    0 -0.00000000000E+00 -0.00000000000E+00 -0.45593999997E+02  0.45594000000E+02  0.51100000000E-03 0. -1.
    9900012    2    1    2    0    0 -0.36612338190E+02 -0.85644338504E+01  0.15471027920E+02  0.50528861546E+02  0.30000005155E+02 0.  0.
         12    1    1    2    0    0  0.36612338190E+02  0.85644338504E+01 -0.15471027920E+02  0.40659138454E+02  0.00000000000E+00 0. -1.
         11    1    3    3    0    0 -0.13979993360E+02 -0.74616205012E+01 -0.71834226123E+01  0.17398780288E+02  0.51100000000E-03 0. -1.
        -11    1    3    3    0    0 -0.20294354420E+02  0.29306486164E+00  0.15695235665E+02  0.25657106836E+02  0.51100000000E-03 0.  1.
         12    1    3    3    0    0 -0.23379904101E+01 -0.13958782108E+01  0.69592148676E+01  0.74729744219E+01  0.00000000000E+00 0. -1.
</event>
<event>
 7    1  0.2966651E-011  0.5052886E+02  0.7816164E-02  0.1300439E+00
        -11   -1    0    0    0    0  0.00000000000E+00  0.00000000000E+00  0.45593999997E+02  0.45594000000E+02  0.51100000000E-03 0.  1.
         11   -1    0    0    0    0 -0.00000000000E+00 -0.00000000000E+00 -0.45593999997E+02  0.45594000000E+02  0.51100000000E-03 0. -1.
    9900012    2    1    2    0    0 -0.37830918482E+02  0.13874463241E+02  0.54301655855E+01  0.50528858080E+02  0.29999994620E+02 0.  0.
         12    1    1    2    0    0  0.37830918482E+02 -0.13874463241E+02 -0.54301655855E+01  0.40659141920E+02  0.00000000000E+00 0. -1.
         11    1    3    3    0    0 -0.82278399505E+01  0.78648544885E+00 -0.39594025278E+01  0.91647574027E+01  0.51100000000E-03 0. -1.
        -11    1    3    3    0    0 -0.89271147379E+01  0.50665803910E+01  0.15289270723E+02  0.18415358099E+02  0.51100000000E-03 0.  1.
        -12    1    3    3    0    0 -0.20675963793E+02  0.80213974007E+01 -0.58997026098E+01  0.22948742578E+02  0.00000000000E+00 0.  1.
</event>
<event>
 7    1  0.2966651E-011  0.5052886E+02  0.7816164E-02  0.1300439E+00
        -11   -1    0    0    0    0  0.00000000000E+00  0.00000000000E+00  0.45593999997E+02  0.45594000000E+02  0.51100000000E-03 0. -1.
         11   -1    0    0    0    0 -0.00000000000E+00 -0.00000000000E+00 -0.45593999997E+02  0.45594000000E+02  0.51100000000E-03 0.  1.
    9900012    2    1    2    0    0  0.20521844545E+02  0.33023482291E+02  0.11894067844E+02  0.50528864052E+02  0.30000012773E+02 0.  0.
         12    1    1    2    0    0 -0.20521844545E+02 -0.33023482291E+02 -0.11894067844E+02  0.40659135948E+02  0.00000000000E+00 0. -1.
         11    1    3    3    0    0  0.14054988505E+02  0.97668153696E+01  0.15170447878E+02  0.22870852049E+02  0.51100000000E-03 0. -1.
        -11    1    3    3    0    0  0.40638686629E+00  0.18103041431E+02  0.18376500437E+01  0.18200610355E+02  0.51100000000E-03 0.  1.
         12    1    3    3    0    0  0.60604691742E+01  0.51536254900E+01 -0.51140300782E+01  0.94574016487E+01  0.00000000000E+00 0. -1.
</event>
<event>
 7    1  0.2966651E-011  0.5052890E+02  0.7816164E-02  0.1300439E+00
        -11   -1    0    0    0    0  0.00000000000E+00  0.00000000000E+00  0.45593999997E+02  0.45594000000E+02  0.51100000000E-03 0.  1.
         11   -1    0    0    0    0 -0.00000000000E+00 -0.00000000000E+00 -0.45593999997E+02  0.45594000000E+02  0.51100000000E-03 0. -1.
    9900012    2    1    2    0    0 -0.45478652598E+01 -0.21134256388E+00  0.40403395061E+02  0.50528904135E+02  0.30000134608E+02 0.  0.
         12    1    1    2    0    0  0.45478652598E+01  0.21134256388E+00 -0.40403395061E+02  0.40659095865E+02  0.00000000000E+00 0. -1.
         11    1    3    3    0    0  0.85045982814E+01  0.58500643449E+01  0.13057024780E+02  0.16644438745E+02  0.51100000000E-03 0. -1.
        -11    1    3    3    0    0 -0.12163107095E+02 -0.10534364966E+01  0.25841306265E+02  0.28580133177E+02  0.51100000000E-03 0.  1.
        -12    1    3    3    0    0 -0.88935644568E+00 -0.50079704122E+01  0.15050640171E+01  0.53043322136E+01  0.00000000000E+00 0.  1.
</event>
<event>
 7    1  0.2966651E-011  0.5052886E+02  0.7816164E-02  0.1300439E+00
        -11   -1    0    0    0    0  0.00000000000E+00  0.00000000000E+00  0.45593999997E+02  0.45594000000E+02  0.51100000000E-03 0.  1.
         11   -1    0    0    0    0 -0.00000000000E+00 -0.00000000000E+00 -0.45593999997E+02  0.45594000000E+02  0.51100000000E-03 0. -1.
    9900012    2    1    2    0    0 -0.22776576877E+02 -0.23337780529E+02 -0.24284585657E+02  0.50528861362E+02  0.30000004596E+02 0.  0.
         12    1    1    2    0    0  0.22776576877E+02  0.23337780529E+02  0.24284585657E+02  0.40659138638E+02  0.00000000000E+00 0. -1.
         11    1    3    3    0    0  0.55293170736E+01 -0.35348739640E+01 -0.23740461763E+01  0.69788807663E+01  0.51100000000E-03 0. -1.
        -11    1    3    3    0    0 -0.16894983901E+02 -0.39758359961E+01 -0.59696731568E+01  0.18354420469E+02  0.51100000000E-03 0.  1.
        -12    1    3    3    0    0 -0.11410910050E+02 -0.15827070569E+02 -0.15940866324E+02  0.25195560127E+02  0.00000000000E+00 0.  1.
</event>
<event>
 7    1  0.2966651E-011  0.5052886E+02  0.7816164E-02  0.1300439E+00
        -11   -1    0    0    0    0  0.00000000000E+00  0.00000000000E+00  0.45593999997E+02  0.45594000000E+02  0.51100000000E-03 0. -1.
         11   -1    0    0    0    0 -0.00000000000E+00 -0.00000000000E+00 -0.45593999997E+02  0.45594000000E+02  0.51100000000E-03 0.  1.
    9900012    2    1    2    0    0  0.38754974219E+02  0.11814841542E+02 -0.34098030843E+01  0.50528864932E+02  0.30000015449E+02 0.  0.
         12    1    1    2    0    0 -0.38754974219E+02 -0.11814841542E+02  0.34098030843E+01  0.40659135068E+02  0.00000000000E+00 0. -1.
         11    1    3    3    0    0 -0.21008351061E+01  0.10947159008E+01 -0.56290716615E+01  0.61072382530E+01  0.51100000000E-03 0. -1.
        -11    1    3    3    0    0  0.15130362227E+02  0.73387662087E+01  0.66797136891E+01  0.18094306448E+02  0.51100000000E-03 0.  1.
         12    1    3    3    0    0  0.25725447098E+02  0.33813594323E+01 -0.44604451118E+01  0.26327320232E+02  0.00000000000E+00 0. -1.
</event>
<event>
 7    1  0.2966651E-011  0.5052887E+02  0.7816164E-02  0.1300439E+00
        -11   -1    0    0    0    0  0.00000000000E+00  0.00000000000E+00  0.45593999997E+02  0.45594000000E+02  0.51100000000E-03 0.  1.
         11   -1    0    0    0    0 -0.00000000000E+00 -0.00000000000E+00 -0.45593999997E+02  0.45594000000E+02  0.51100000000E-03 0. -1.
    9900012    2    1    2    0    0 -0.22354275305E+02 -0.15124966772E+02  0.30408654852E+02  0.50528873913E+02  0.30000042746E+02 0.  0.
         12    1    1    2    0    0  0.22354275305E+02  0.15124966772E+02 -0.30408654852E+02  0.40659126087E+02  0.00000000000E+00 0. -1.
         11    1    3    3    0    0  0.19402467602E+01 -0.87986095578E+01  0.19698718832E+01  0.92228240327E+01  0.51100000000E-03 0. -1.
        -11    1    3    3    0    0 -0.14513939767E+02  0.10972751328E+01  0.60326307271E+01  0.15755985974E+02  0.51100000000E-03 0.  1.
        -12    1    3    3    0    0 -0.97805822982E+01 -0.74236323467E+01  0.22406152242E+02  0.25550063906E+02  0.00000000000E+00 0.  1.
</event>
<event>
 7    1  0.2966651E-011  0.5052884E+02  0.7816164E-02  0.1300439E+00
        -11   -1    0    0    0    0  0.00000000000E+00  0.00000000000E+00  0.45593999997E+02  0.45594000000E+02  0.51100000000E-03 0.  1.
         11   -1    0    0    0    0 -0.00000000000E+00 -0.00000000000E+00 -0.45593999997E+02  0.45594000000E+02  0.51100000000E-03 0. -1.
    9900012    2    1    2    0    0 -0.71422400146E+01  0.38115205566E+02  0.12222376527E+02  0.50528843888E+02  0.29999951481E+02 0.  0.
         12    1    1    2    0    0  0.71422400146E+01 -0.38115205566E+02 -0.12222376527E+02  0.40659156112E+02  0.00000000000E+00 0. -1.
         11    1    3    3    0    0  0.12247194751E+01 -0.23684740066E+01  0.17270864015E+01  0.31768592371E+01  0.51100000000E-03 0. -1.
        -11    1    3    3    0    0 -0.61660026595E+01  0.37521929651E+02  0.19859445605E+01  0.38077011038E+02  0.51100000000E-03 0.  1.
        -12    1    3    3    0    0 -0.22009568302E+01  0.29617499217E+01  0.85093455651E+01  0.92749736125E+01  0.00000000000E+00 0.  1.
</event>
<event>
 7    1  0.2966651E-011  0.5052887E+02  0.7816164E-02  0.1300439E+00
        -11   -1    0    0    0    0  0.00000000000E+00  0.00000000000E+00  0.45593999997E+02  0.45594000000E+02  0.51100000000E-03 0. -1.
         11   -1    0    0    0    0 -0.00000000000E+00 -0.00000000000E+00 -0.45593999997E+02  0.45594000000E+02  0.51100000000E-03 0.  1.
    9900012    2    1    2    0    0  0.31717623820E+01  0.86687650011E+01 -0.39597443817E+02  0.50528866707E+02  0.30000020844E+02 0.  0.
         12    1    1    2    0    0 -0.31717623820E+01 -0.86687650011E+01  0.39597443817E+02  0.40659133293E+02  0.00000000000E+00 0. -1.
         11    1    3    3    0    0  0.15674430305E+02  0.14331813011E+01 -0.15868010664E+02  0.22350291647E+02  0.51100000000E-03 0. -1.
        -11    1    3    3    0    0 -0.21391595893E+01  0.32263071165E+01 -0.42202524294E+01  0.57267435937E+01  0.51100000000E-03 0.  1.
         12    1    3    3    0    0 -0.10363508333E+02  0.40092765835E+01 -0.19509180724E+02  0.22451831467E+02  0.00000000000E+00 0. -1.
</event>
<event>
 7    1  0.2966651E-011  0.5052885E+02  0.7816164E-02  0.1300439E+00
        -11   -1    0    0    0    0  0.00000000000E+00  0.00000000000E+00  0.45593999997E+02  0.45594000000E+02  0.51100000000E-03 0.  1.
         11   -1    0    0    0    0 -0.00000000000E+00 -0.00000000000E+00 -0.45593999997E+02  0.45594000000E+02  0.51100000000E-03 0. -1.
    9900012    2    1    2    0    0  0.47032369151E+00 -0.21771137425E+02  0.34336022984E+02  0.50528854613E+02  0.29999984083E+02 0.  0.
         12    1    1    2    0    0 -0.47032369151E+00  0.21771137425E+02 -0.34336022984E+02  0.40659145387E+02  0.00000000000E+00 0. -1.
         11    1    3    3    0    0 -0.63909181688E+00  0.55029166220E+01  0.12828288166E+02  0.13973385675E+02  0.51100000000E-03 0. -1.
        -11    1    3    3    0    0 -0.39898507518E+01 -0.54523524184E+01  0.26151098157E+01  0.72447122459E+01  0.51100000000E-03 0.  1.
         12    1    3    3    0    0  0.50992662602E+01 -0.21821701629E+02  0.18892625003E+02  0.29310756692E+02  0.00000000000E+00 0. -1.
</event>
<event>
 7    1  0.2966651E-011  0.5052886E+02  0.7816164E-02  0.1300439E+00
        -11   -1    0    0    0    0  0.00000000000E+00  0.00000000000E+00  0.45593999997E+02  0.45594000000E+02  0.51100000000E-03 0.  1.
         11   -1    0    0    0    0 -0.00000000000E+00 -0.00000000000E+00 -0.45593999997E+02  0.45594000000E+02  0.51100000000E-03 0. -1.
    9900012    2    1    2    0    0  0.18223631372E+02 -0.26027686783E+02  0.25369753629E+02  0.50528860574E+02  0.30000002201E+02 0.  0.
         12    1    1    2    0    0 -0.18223631372E+02  0.26027686783E+02 -0.25369753629E+02  0.40659139426E+02  0.00000000000E+00 0. -1.
         11    1    3    3    0    0 -0.58332110235E+01 -0.76710142925E+01  0.12743508042E+02  0.15977102635E+02  0.51100000000E-03 0. -1.
        -11    1    3    3    0    0  0.20123541749E+02 -0.18377786250E+02  0.78423585271E+01  0.28358465182E+02  0.51100000000E-03 0.  1.
         12    1    3    3    0    0  0.39333006473E+01  0.21113760109E-01  0.47838870595E+01  0.61932927568E+01  0.00000000000E+00 0. -1.
</event>
<event>
 7    1  0.2966651E-011  0.5052886E+02  0.7816164E-02  0.1300439E+00
        -11   -1    0    0    0    0  0.00000000000E+00  0.00000000000E+00  0.45593999997E+02  0.45594000000E+02  0.51100000000E-03 0. -1.
         11   -1    0    0    0    0 -0.00000000000E+00 -0.00000000000E+00 -0.45593999997E+02  0.45594000000E+02  0.51100000000E-03 0.  1.
    9900012    2    1    2    0    0  0.60876925357E+01 -0.21989964192E+02 -0.33653341570E+02  0.50528856816E+02  0.29999990779E+02 0.  0.
         12    1    1    2    0    0 -0.60876925357E+01  0.21989964192E+02  0.33653341570E+02  0.40659143184E+02  0.00000000000E+00 0. -1.
         11    1    3    3    0    0 -0.63790467549E+01  0.10048453185E+01 -0.16065896719E+02  0.17315166452E+02  0.51100000000E-03 0. -1.
        -11    1    3    3    0    0  0.11830651352E+02 -0.12293707695E+02 -0.13439795639E+02  0.21719292516E+02  0.51100000000E-03 0.  1.
        -12    1    3    3    0    0  0.63608793885E+00 -0.10701101815E+02 -0.41476492127E+01  0.11494397849E+02  0.00000000000E+00 0.  1.
</event>
<event>
 7    1  0.2966651E-011  0.5052886E+02  0.7816164E-02  0.1300439E+00
        -11   -1    0    0    0    0  0.00000000000E+00  0.00000000000E+00  0.45593999997E+02  0.45594000000E+02  0.51100000000E-03 0. -1.
         11   -1    0    0    0    0 -0.00000000000E+00 -0.00000000000E+00 -0.45593999997E+02  0.45594000000E+02  0.51100000000E-03 0.  1.
    9900012    2    1    2    0    0 -0.19926208238E+02 -0.13519372019E+02  0.32761842711E+02  0.50528861638E+02  0.30000005434E+02 0.  0.
         12    1    1    2    0    0  0.19926208238E+02  0.13519372019E+02 -0.32761842711E+02  0.40659138362E+02  0.00000000000E+00 0. -1.
         11    1    3    3    0    0 -0.13858565473E+02 -0.42091657101E+01  0.24873668607E+02  0.28783264290E+02  0.51100000000E-03 0. -1.
        -11    1    3    3    0    0 -0.50647588106E+01  0.39938469458E+01  0.43861022686E+00  0.64649032806E+01  0.51100000000E-03 0.  1.
         12    1    3    3    0    0 -0.10028839544E+01 -0.13304053254E+02  0.74495638777E+01  0.15280694068E+02  0.00000000000E+00 0. -1.
</event>
<event>
 7    1  0.2966651E-011  0.5052887E+02  0.7816164E-02  0.1300439E+00
        -11   -1    0    0    0    0  0.00000000000E+00  0.00000000000E+00  0.45593999997E+02  0.45594000000E+02  0.51100000000E-03 0. -1.
         11   -1    0    0    0    0 -0.00000000000E+00 -0.00000000000E+00 -0.45593999997E+02  0.45594000000E+02  0.51100000000E-03 0.  1.
    9900012    2    1    2    0    0  0.19452362078E+02  0.25291208006E+02  0.25201697633E+02  0.50528866261E+02  0.30000019487E+02 0.  0.
         12    1    1    2    0    0 -0.19452362078E+02 -0.25291208006E+02 -0.25201697633E+02  0.40659133739E+02  0.00000000000E+00 0. -1.
         11    1    3    3    0    0  0.33714724562E-01  0.15854931755E+02  0.82315052701E+01  0.17864424897E+02  0.51100000000E-03 0. -1.
        -11    1    3    3    0    0  0.68053481756E+01  0.47413007410E-01 -0.28383143848E+01  0.73736721240E+01  0.51100000000E-03 0.  1.
        -12    1    3    3    0    0  0.12613299178E+02  0.93888632436E+01  0.19808506748E+02  0.25290769240E+02  0.00000000000E+00 0.  1.
</event>
<event>
 7    1  0.2966651E-011  0.5052885E+02  0.7816164E-02  0.1300439E+00
        -11   -1    0    0    0    0  0.00000000000E+00  0.00000000000E+00  0.45593999997E+02  0.45594000000E+02  0.51100000000E-03 0. -1.
         11   -1    0    0    0    0 -0.00000000000E+00 -0.00000000000E+00 -0.45593999997E+02  0.45594000000E+02  0.51100000000E-03 0.  1.
    9900012    2    1    2    0    0 -0.38506588273E+02 -0.74267038477E+01 -0.10735599628E+02  0.50528851339E+02  0.29999974130E+02 0.  0.
         12    1    1    2    0    0  0.38506588273E+02  0.74267038477E+01  0.10735599628E+02  0.40659148661E+02  0.00000000000E+00 0. -1.
         11    1    3    3    0    0 -0.13031683275E+02 -0.12361717516E+02  0.63243002464E+01  0.19042941023E+02  0.51100000000E-03 0. -1.
        -11    1    3    3    0    0 -0.15837279022E+02  0.17520928780E+01 -0.12961901272E+02  0.20540207426E+02  0.51100000000E-03 0.  1.
         12    1    3    3    0    0 -0.96376259760E+01  0.31829207906E+01 -0.40979986024E+01  0.10945702890E+02  0.00000000000E+00 0. -1.
</event>
<event>
 7    1  0.2966651E-011  0.5052886E+02  0.7816164E-02  0.1300439E+00
        -11   -1    0    0    0    0  0.00000000000E+00  0.00000000000E+00  0.45593999997E+02  0.45594000000E+02  0.51100000000E-03 0.  1.
         11   -1    0    0    0    0 -0.00000000000E+00 -0.00000000000E+00 -0.45593999997E+02  0.45594000000E+02  0.51100000000E-03 0. -1.
    9900012    2    1    2    0    0 -0.19719228300E+02  0.26927440751E+02  0.23221331916E+02  0.50528864666E+02  0.30000014640E+02 0.  0.
         12    1    1    2    0    0  0.19719228300E+02 -0.26927440751E+02 -0.23221331916E+02  0.40659135334E+02  0.00000000000E+00 0. -1.
         11    1    3    3    0    0 -0.10220109209E+02  0.76328953239E+01  0.85703120214E+01  0.15367562321E+02  0.51100000000E-03 0. -1.
        -11    1    3    3    0    0  0.67883188066E+01  0.11978501663E+02  0.89356109473E+01  0.16413741730E+02  0.51100000000E-03 0.  1.
        -12    1    3    3    0    0 -0.16287437897E+02  0.73160437644E+01  0.57154089468E+01  0.18747560616E+02  0.00000000000E+00 0.  1.
</event>
<event>
 7    1  0.2966651E-011  0.5052886E+02  0.7816164E-02  0.1300439E+00
        -11   -1    0    0    0    0  0.00000000000E+00  0.00000000000E+00  0.45593999997E+02  0.45594000000E+02  0.51100000000E-03 0.  1.
         11   -1    0    0    0    0 -0.00000000000E+00 -0.00000000000E+00 -0.45593999997E+02  0.45594000000E+02  0.51100000000E-03 0. -1.
    9900012    2    1    2    0    0 -0.15377264417E+02  0.33408337812E+02 -0.17337484493E+02  0.50528860008E+02  0.30000000480E+02 0.  0.
         12    1    1    2    0    0  0.15377264417E+02 -0.33408337812E+02  0.17337484493E+02  0.40659139992E+02  0.00000000000E+00 0. -1.
         11    1    3    3    0    0 -0.12979203996E+02  0.21938283515E+02 -0.20085217280E+01  0.25569164627E+02  0.51100000000E-03 0. -1.
        -11    1    3    3    0    0  0.18788148974E+01 -0.20183528615E+01  0.13639082224E+01  0.30763516692E+01  0.51100000000E-03 0.  1.
         12    1    3    3    0    0 -0.42768753192E+01  0.13488407159E+02 -0.16692870988E+02  0.21883343711E+02  0.00000000000E+00 0. -1.
</event>
<event>
 7    1  0.2966651E-011  0.5052887E+02  0.7816164E-02  0.1300439E+00
        -11   -1    0    0    0    0  0.00000000000E+00  0.00000000000E+00  0.45593999997E+02  0.45594000000E+02  0.51100000000E-03 0.  1.
         11   -1    0    0    0    0 -0.00000000000E+00 -0.00000000000E+00 -0.45593999997E+02  0.45594000000E+02  0.51100000000E-03 0. -1.
    9900012    2    1    2    0    0 -0.16262223372E+02 -0.39376524807E+01  0.37056714031E+02  0.50528867313E+02  0.30000022685E+02 0.  0.
         12    1    1    2    0    0  0.16262223372E+02  0.39376524807E+01 -0.37056714031E+02  0.40659132687E+02  0.00000000000E+00 0. -1.
         11    1    3    3    0    0 -0.14532476392E+02 -0.85964154607E+01  0.11727837467E+02  0.20558049537E+02  0.51100000000E-03 0. -1.
        -11    1    3    3    0    0  0.22369542435E+01 -0.20732664232E+01  0.20627409854E+02  0.20851677043E+02  0.51100000000E-03 0.  1.
         12    1    3    3    0    0 -0.39667012233E+01  0.67320294031E+01  0.47014667100E+01  0.91191407328E+01  0.00000000000E+00 0. -1.
</event>
<event>
 7    1  0.2966651E-011  0.5052886E+02  0.7816164E-02  0.1300439E+00
        -11   -1    0    0    0    0  0.00000000000E+00  0.00000000000E+00  0.45593999997E+02  0.45594000000E+02  0.51100000000E-03 0.  1.
         11   -1    0    0    0    0 -0.00000000000E+00 -0.00000000000E+00 -0.45593999997E+02  0.45594000000E+02  0.51100000000E-03 0. -1.
    9900012    2    1    2    0    0 -0.24120438136E+02  0.29742270435E+02  0.13666295645E+02  0.50528858062E+02  0.29999994566E+02 0.  0.
         12    1    1    2    0    0  0.24120438136E+02 -0.29742270435E+02 -0.13666295645E+02  0.40659141938E+02  0.00000000000E+00 0. -1.
         11    1    3    3    0    0 -0.46168118774E+01  0.24576700276E+00 -0.47298927292E+00  0.46474802253E+01  0.51100000000E-03 0. -1.
        -11    1    3    3    0    0 -0.23432056007E+01  0.25612686355E+02  0.55912873456E+01  0.26320387711E+02  0.51100000000E-03 0.  1.
        -12    1    3    3    0    0 -0.17160420658E+02  0.38838170769E+01  0.85479975720E+01  0.19560990126E+02  0.00000000000E+00 0.  1.
</event>
<event>
 7    1  0.2966651E-011  0.5052885E+02  0.7816164E-02  0.1300439E+00
        -11   -1    0    0    0    0  0.00000000000E+00  0.00000000000E+00  0.45593999997E+02  0.45594000000E+02  0.51100000000E-03 0. -1.
         11   -1    0    0    0    0 -0.00000000000E+00 -0.00000000000E+00 -0.45593999997E+02  0.45594000000E+02  0.51100000000E-03 0.  1.
    9900012    2    1    2    0    0  0.40230177678E+02 -0.54577216262E+00 -0.58652569534E+01  0.50528852168E+02  0.29999976650E+02 0.  0.
         12    1    1    2    0    0 -0.40230177678E+02  0.54577216262E+00  0.58652569534E+01  0.40659147832E+02  0.00000000000E+00 0. -1.
         11    1    3    3    0    0  0.92112640047E+01  0.57840577722E+01 -0.11328240154E+02  0.15704513177E+02  0.51100000000E-03 0. -1.
        -11    1    3    3    0    0  0.24531909001E+02  0.71360448954E+00  0.19309076778E+01  0.24618127372E+02  0.51100000000E-03 0.  1.
        -12    1    3    3    0    0  0.64870046728E+01 -0.70434344243E+01  0.35320755228E+01  0.10206211619E+02  0.00000000000E+00 0.  1.
</event>
<event>
 7    1  0.2966651E-011  0.5052887E+02  0.7816164E-02  0.1300439E+00
        -11   -1    0    0    0    0  0.00000000000E+00  0.00000000000E+00  0.45593999997E+02  0.45594000000E+02  0.51100000000E-03 0.  1.
         11   -1    0    0    0    0 -0.00000000000E+00 -0.00000000000E+00 -0.45593999997E+02  0.45594000000E+02  0.51100000000E-03 0. -1.
    9900012    2    1    2    0    0  0.11951185708E+02  0.29197826980E+02 -0.25648027507E+02  0.50528865046E+02  0.30000015795E+02 0.  0.
         12    1    1    2    0    0 -0.11951185708E+02 -0.29197826980E+02  0.25648027507E+02  0.40659134954E+02  0.00000000000E+00 0. -1.
         11    1    3    3    0    0 -0.76883348794E+01  0.13453998629E+02 -0.17639446732E+02  0.23479153597E+02  0.51100000000E-03 0. -1.
        -11    1    3    3    0    0  0.69409121543E+01  0.33896554745E+01 -0.46545315020E+01  0.90183529280E+01  0.51100000000E-03 0.  1.
         12    1    3    3    0    0  0.12698608433E+02  0.12354172877E+02 -0.33540492721E+01  0.18031358522E+02  0.00000000000E+00 0. -1.
</event>
<event>
 7    1  0.2966651E-011  0.5052887E+02  0.7816164E-02  0.1300439E+00
        -11   -1    0    0    0    0  0.00000000000E+00  0.00000000000E+00  0.45593999997E+02  0.45594000000E+02  0.51100000000E-03 0. -1.
         11   -1    0    0    0    0 -0.00000000000E+00 -0.00000000000E+00 -0.45593999997E+02  0.45594000000E+02  0.51100000000E-03 0.  1.
    9900012    2    1    2    0    0 -0.69869176135E+01  0.31783480713E+02 -0.24375360236E+02  0.50528870022E+02  0.30000030919E+02 0.  0.
         12    1    1    2    0    0  0.69869176135E+01 -0.31783480713E+02  0.24375360236E+02  0.40659129978E+02  0.00000000000E+00 0. -1.
         11    1    3    3    0    0 -0.20482729513E+01 -0.22215731904E+01 -0.89164387101E+01  0.94145466729E+01  0.51100000000E-03 0. -1.
        -11    1    3    3    0    0 -0.48062771194E+00  0.29396810890E+02 -0.17705568150E+02  0.34320411380E+02  0.51100000000E-03 0.  1.
        -12    1    3    3    0    0 -0.44580169503E+01  0.46082430130E+01  0.22466466245E+01  0.67939119696E+01  0.00000000000E+00 0.  1.
</event>
<event>
 7    1  0.2966651E-011  0.5052897E+02  0.7816164E-02  0.1300438E+00
        -11   -1    0    0    0    0  0.00000000000E+00  0.00000000000E+00  0.45593999997E+02  0.45594000000E+02  0.51100000000E-03 0.  1.
         11   -1    0    0    0    0 -0.00000000000E+00 -0.00000000000E+00 -0.45593999997E+02  0.45594000000E+02  0.51100000000E-03 0. -1.
    9900012    2    1    2    0    0  0.15538709585E+02  0.45258577722E+01  0.37299080910E+02  0.50528974915E+02  0.30000349750E+02 0.  0.
         12    1    1    2    0    0 -0.15538709585E+02 -0.45258577722E+01 -0.37299080910E+02  0.40659025085E+02  0.00000000000E+00 0. -1.
         11    1    3    3    0    0  0.28281022719E+01 -0.46687505641E+01 -0.28630818334E+01  0.61638163613E+01  0.51100000000E-03 0. -1.
        -11    1    3    3    0    0  0.11317776083E+02  0.23988884310E+01  0.29006157909E+02  0.31228255124E+02  0.51100000000E-03 0.  1.
         12    1    3    3    0    0  0.13928312300E+01  0.67957199052E+01  0.11156004834E+02  0.13136903430E+02  0.00000000000E+00 0. -1.
</event>
<event>
 7    1  0.2966651E-011  0.5052886E+02  0.7816164E-02  0.1300439E+00
        -11   -1    0    0    0    0  0.00000000000E+00  0.00000000000E+00  0.45593999997E+02  0.45594000000E+02  0.51100000000E-03 0.  1.
         11   -1    0    0    0    0 -0.00000000000E+00 -0.00000000000E+00 -0.45593999997E+02  0.45594000000E+02  0.51100000000E-03 0. -1.
    9900012    2    1    2    0    0  0.96501545602E+01 -0.26854785875E+02  0.28963089587E+02  0.50528861226E+02  0.30000004182E+02 0.  0.
         12    1    1    2    0    0 -0.96501545602E+01  0.26854785875E+02 -0.28963089587E+02  0.40659138774E+02  0.00000000000E+00 0. -1.
         11    1    3    3    0    0  0.15529418813E+01 -0.19408091940E+02  0.25205012410E+01  0.19632589947E+02  0.51100000000E-03 0. -1.
        -11    1    3    3    0    0 -0.88541451526E+00 -0.60082837224E+01  0.15614526358E+02  0.16754010439E+02  0.51100000000E-03 0.  1.
         12    1    3    3    0    0  0.89826271942E+01 -0.14384102120E+01  0.10828061989E+02  0.14142260840E+02  0.00000000000E+00 0. -1.
</event>
<event>
 7    1  0.2966651E-011  0.5052887E+02  0.7816164E-02  0.1300439E+00
        -11   -1    0    0    0    0  0.00000000000E+00  0.00000000000E+00  0.45593999997E+02  0.45594000000E+02  0.51100000000E-03 0. -1.
         11   -1    0    0    0    0 -0.00000000000E+00 -0.00000000000E+00 -0.45593999997E+02  0.45594000000E+02  0.51100000000E-03 0.  1.
    9900012    2    1    2    0    0 -0.40515224006E+02 -0.24877703502E+01 -0.23435323904E+01  0.50528874067E+02  0.30000043213E+02 0.  0.
         12    1    1    2    0    0  0.40515224006E+02  0.24877703502E+01  0.23435323904E+01  0.40659125933E+02  0.00000000000E+00 0. -1.
         11    1    3    3    0    0 -0.33669719219E+02 -0.56090289639E+01  0.12478486839E+01  0.34156526826E+02  0.51100000000E-03 0. -1.
        -11    1    3    3    0    0 -0.81579134549E+01  0.22082020947E+01 -0.80279041820E+01  0.11656541264E+02  0.51100000000E-03 0.  1.
         12    1    3    3    0    0  0.13124086678E+01  0.91305651906E+00  0.44365231078E+01  0.47158059761E+01  0.00000000000E+00 0. -1.
</event>
<event>
 7    1  0.2966651E-011  0.5052886E+02  0.7816164E-02  0.1300439E+00
        -11   -1    0    0    0    0  0.00000000000E+00  0.00000000000E+00  0.45593999997E+02  0.45594000000E+02  0.51100000000E-03 0. -1.
         11   -1    0    0    0    0 -0.00000000000E+00 -0.00000000000E+00 -0.45593999997E+02  0.45594000000E+02  0.51100000000E-03 0.  1.
    9900012    2    1    2    0    0 -0.35498865456E+02 -0.17904104175E+02  0.85111411930E+01  0.50528856878E+02  0.29999990967E+02 0.  0.
         12    1    1    2    0    0  0.35498865456E+02  0.17904104175E+02 -0.85111411930E+01  0.40659143122E+02  0.00000000000E+00 0. -1.
         11    1    3    3    0    0 -0.24566860786E+02 -0.11173925000E+02  0.13928369877E+02  0.30370820477E+02  0.51100000000E-03 0. -1.
        -11    1    3    3    0    0  0.23181728395E+01 -0.52921112265E+01 -0.17069751294E-01  0.57775996906E+01  0.51100000000E-03 0.  1.
        -12    1    3    3    0    0 -0.13250177510E+02 -0.14380679483E+01 -0.54001589329E+01  0.14380436710E+02  0.00000000000E+00 0.  1.
</event>
<event>
 7    1  0.2966651E-011  0.5052886E+02  0.7816164E-02  0.1300439E+00
        -11   -1    0    0    0    0  0.00000000000E+00  0.00000000000E+00  0.45593999997E+02  0.45594000000E+02  0.51100000000E-03 0. -1.
         11   -1    0    0    0    0 -0.00000000000E+00 -0.00000000000E+00 -0.45593999997E+02  0.45594000000E+02  0.51100000000E-03 0.  1.
    9900012    2    1    2    0    0 -0.39607867996E+02 -0.39717164568E+01 -0.82830131360E+01  0.50528855329E+02  0.29999986257E+02 0.  0.
         12    1    1    2    0    0  0.39607867996E+02  0.39717164568E+01  0.82830131360E+01  0.40659144671E+02  0.00000000000E+00 0. -1.
         11    1    3    3    0    0 -0.89591436239E+01  0.23549434647E+01  0.11719644979E+01  0.93373183645E+01  0.51100000000E-03 0. -1.
        -11    1    3    3    0    0 -0.14895878831E+02 -0.12279123741E+02 -0.13884154493E+02  0.23778852627E+02  0.51100000000E-03 0.  1.
        -12    1    3    3    0    0 -0.15752845541E+02  0.59524638198E+01  0.44291768595E+01  0.17412684337E+02  0.00000000000E+00 0.  1.
</event>
<event>
 7    1  0.2966651E-011  0.5052884E+02  0.7816164E-02  0.1300439E+00
        -11   -1    0    0    0    0  0.00000000000E+00  0.00000000000E+00  0.45593999997E+02  0.45594000000E+02  0.51100000000E-03 0. -1.
         11   -1    0    0    0    0 -0.00000000000E+00 -0.00000000000E+00 -0.45593999997E+02  0.45594000000E+02  0.51100000000E-03 0.  1.
    9900012    2    1    2    0    0  0.43878313331E+01  0.18339057125E+02 -0.36022118866E+02  0.50528842020E+02  0.29999945805E+02 0.  0.
         12    1    1    2    0    0 -0.43878313331E+01 -0.18339057125E+02  0.36022118866E+02  0.40659157980E+02  0.00000000000E+00 0. -1.
         11    1    3    3    0    0  0.58331365177E+01 -0.44629328443E+01 -0.16905911439E+01  0.75366670275E+01  0.51100000000E-03 0. -1.
        -11    1    3    3    0    0  0.15622850756E+01  0.22775106281E+02 -0.31076787249E+02  0.38560509679E+02  0.51100000000E-03 0.  1.
         12    1    3    3    0    0 -0.30075902602E+01  0.26883688386E-01 -0.32547404733E+01  0.44316653139E+01  0.00000000000E+00 0. -1.
</event>
<event>
 7    1  0.2966651E-011  0.5052887E+02  0.7816164E-02  0.1300439E+00
        -11   -1    0    0    0    0  0.00000000000E+00  0.00000000000E+00  0.45593999997E+02  0.45594000000E+02  0.51100000000E-03 0. -1.
         11   -1    0    0    0    0 -0.00000000000E+00 -0.00000000000E+00 -0.45593999997E+02  0.45594000000E+02  0.51100000000E-03 0.  1.
    9900012    2    1    2    0    0  0.29066127620E+01 -0.35229440378E+02 -0.20089882423E+02  0.50528865198E+02  0.30000016255E+02 0.  0.
         12    1    1    2    0    0 -0.29066127620E+01  0.35229440378E+02  0.20089882423E+02  0.40659134802E+02  0.00000000000E+00 0. -1.
         11    1    3    3    0    0  0.58448071569E+01  0.90920889821E+00 -0.13289351505E+01  0.60625490033E+01  0.51100000000E-03 0. -1.
        -11    1    3    3    0    0 -0.10784805211E+01 -0.37435546873E+02 -0.15585789756E+02  0.40564764667E+02  0.51100000000E-03 0.  1.
         12    1    3    3    0    0 -0.18597138738E+01  0.12968975965E+01 -0.31751575159E+01  0.39015515271E+01  0.00000000000E+00 0. -1.
</event>
<event>
 7    1  0.2966651E-011  0.5052886E+02  0.7816164E-02  0.1300439E+00
        -11   -1    0    0    0    0  0.00000000000E+00  0.00000000000E+00  0.45593999997E+02  0.45594000000E+02  0.51100000000E-03 0.  1.
         11   -1    0    0    0    0 -0.00000000000E+00 -0.00000000000E+00 -0.45593999997E+02  0.45594000000E+02  0.51100000000E-03 0. -1.
    9900012    2    1    2    0    0 -0.20252396118E+02  0.27431199586E+02  0.22148042697E+02  0.50528855216E+02  0.29999985915E+02 0.  0.
         12    1    1    2    0    0  0.20252396118E+02 -0.27431199586E+02 -0.22148042697E+02  0.40659144784E+02  0.00000000000E+00 0. -1.
         11    1    3    3    0    0 -0.22017330279E+02  0.16283701265E+02  0.41810274855E+01  0.27702035134E+02  0.51100000000E-03 0.  1.
        -11    1    3    3    0    0 -0.44373207783E+00 -0.10861489803E+01  0.27690502684E+00  0.12055266150E+01  0.51100000000E-03 0. -1.
         12    1    3    3    0    0  0.22086662385E+01  0.12233647302E+02  0.17690110184E+02  0.21621293467E+02  0.00000000000E+00 0. -1.
</event>
<event>
 7    1  0.2966651E-011  0.5052887E+02  0.7816164E-02  0.1300439E+00
        -11   -1    0    0    0    0  0.00000000000E+00  0.00000000000E+00  0.45593999997E+02  0.45594000000E+02  0.51100000000E-03 0. -1.
         11   -1    0    0    0    0 -0.00000000000E+00 -0.00000000000E+00 -0.45593999997E+02  0.45594000000E+02  0.51100000000E-03 0.  1.
    9900012    2    1    2    0    0 -0.37053694329E+02 -0.25567037605E+01 -0.16542422925E+02  0.50528871213E+02  0.30000034538E+02 0.  0.
         12    1    1    2    0    0  0.37053694329E+02  0.25567037605E+01  0.16542422925E+02  0.40659128787E+02  0.00000000000E+00 0. -1.
         11    1    3    3    0    0 -0.24554341748E+02  0.23234563292E+01  0.21018023519E+00  0.24664920920E+02  0.51100000000E-03 0. -1.
        -11    1    3    3    0    0 -0.42438621488E+01  0.44071055624E+01 -0.99959793964E+01  0.11719750412E+02  0.51100000000E-03 0.  1.
         12    1    3    3    0    0 -0.82554904320E+01 -0.92872656522E+01 -0.67566237635E+01  0.14144199880E+02  0.00000000000E+00 0. -1.
</event>
<event>
 7    1  0.2966651E-011  0.5052886E+02  0.7816164E-02  0.1300439E+00
        -11   -1    0    0    0    0  0.00000000000E+00  0.00000000000E+00  0.45593999997E+02  0.45594000000E+02  0.51100000000E-03 0.  1.
         11   -1    0    0    0    0 -0.00000000000E+00 -0.00000000000E+00 -0.45593999997E+02  0.45594000000E+02  0.51100000000E-03 0. -1.
    9900012    2    1    2    0    0  0.27324849349E+02 -0.30107930330E+02  0.17507050207E+00  0.50528861908E+02  0.30000006254E+02 0.  0.
         12    1    1    2    0    0 -0.27324849349E+02  0.30107930330E+02 -0.17507050207E+00  0.40659138092E+02  0.00000000000E+00 0. -1.
         11    1    3    3    0    0  0.94851096459E+01 -0.23241566934E+02 -0.10005896787E+02  0.27023243871E+02  0.51100000000E-03 0. -1.
        -11    1    3    3    0    0  0.14946880560E+02 -0.80866836746E+01  0.54863930258E+01  0.17857889014E+02  0.51100000000E-03 0.  1.
         12    1    3    3    0    0  0.28928591430E+01  0.12203202782E+01  0.46945742631E+01  0.56477290228E+01  0.00000000000E+00 0. -1.
</event>
<event>
 7    1  0.2966651E-011  0.5052888E+02  0.7816164E-02  0.1300439E+00
        -11   -1    0    0    0    0  0.00000000000E+00  0.00000000000E+00  0.45593999997E+02  0.45594000000E+02  0.51100000000E-03 0. -1.
         11   -1    0    0    0    0 -0.00000000000E+00 -0.00000000000E+00 -0.45593999997E+02  0.45594000000E+02  0.51100000000E-03 0.  1.
    9900012    2    1    2    0    0  0.11838339087E+02 -0.20641622972E+02 -0.32968796933E+02  0.50528875041E+02  0.30000046173E+02 0.  0.
         12    1    1    2    0    0 -0.11838339087E+02  0.20641622972E+02  0.32968796933E+02  0.40659124959E+02  0.00000000000E+00 0. -1.
         11    1    3    3    0    0  0.39424358235E+01 -0.65049181184E+01 -0.57246464607E+01  0.95198916649E+01  0.51100000000E-03 0. -1.
        -11    1    3    3    0    0  0.43431397154E+01  0.47039268344E+01 -0.19160502642E+02  0.20201847737E+02  0.51100000000E-03 0.  1.
        -12    1    3    3    0    0  0.35527635478E+01 -0.18840631688E+02 -0.80836478306E+01  0.20807135639E+02  0.00000000000E+00 0.  1.
</event>
<event>
 7    1  0.2966651E-011  0.5052883E+02  0.7816164E-02  0.1300439E+00
        -11   -1    0    0    0    0  0.00000000000E+00  0.00000000000E+00  0.45593999997E+02  0.45594000000E+02  0.51100000000E-03 0.  1.
         11   -1    0    0    0    0 -0.00000000000E+00 -0.00000000000E+00 -0.45593999997E+02  0.45594000000E+02  0.51100000000E-03 0. -1.
    9900012    2    1    2    0    0 -0.33250693288E+01 -0.45984811974E+01  0.40261217138E+02  0.50528834726E+02  0.29999923633E+02 0.  0.
         12    1    1    2    0    0  0.33250693288E+01  0.45984811974E+01 -0.40261217138E+02  0.40659165274E+02  0.00000000000E+00 0. -1.
         11    1    3    3    0    0  0.21431274452E+01 -0.86568544826E+01  0.23779606389E+01  0.92297790787E+01  0.51100000000E-03 0. -1.
        -11    1    3    3    0    0 -0.57082073441E+00  0.89621312411E+01  0.16041106362E+02  0.18383762571E+02  0.51100000000E-03 0.  1.
         12    1    3    3    0    0 -0.48973760396E+01 -0.49037579559E+01  0.21842150137E+02  0.22915293076E+02  0.00000000000E+00 0. -1.
</event>
<event>
 7    1  0.2966651E-011  0.5052883E+02  0.7816164E-02  0.1300439E+00
        -11   -1    0    0    0    0  0.00000000000E+00  0.00000000000E+00  0.45593999997E+02  0.45594000000E+02  0.51100000000E-03 0. -1.
         11   -1    0    0    0    0 -0.00000000000E+00 -0.00000000000E+00 -0.45593999997E+02  0.45594000000E+02  0.51100000000E-03 0.  1.
    9900012    2    1    2    0    0  0.35271403830E+02  0.17699356480E+02 -0.97892159855E+01  0.50528832552E+02  0.29999917024E+02 0.  0.
         12    1    1    2    0    0 -0.35271403830E+02 -0.17699356480E+02  0.97892159855E+01  0.40659167448E+02  0.00000000000E+00 0. -1.
         11    1    3    3    0    0  0.65734255920E+01 -0.24048528703E+01 -0.59129450049E+01  0.91627594224E+01  0.51100000000E-03 0. -1.
        -11    1    3    3    0    0  0.31862789295E+02  0.20553381140E+02 -0.42212409265E+01  0.38150985481E+02  0.51100000000E-03 0.  1.
        -12    1    3    3    0    0 -0.31648110569E+01 -0.44917178885E+00  0.34496994590E+00  0.32150876482E+01  0.00000000000E+00 0.  1.
</event>
<event>
 7    1  0.2966651E-011  0.5052887E+02  0.7816164E-02  0.1300439E+00
        -11   -1    0    0    0    0  0.00000000000E+00  0.00000000000E+00  0.45593999997E+02  0.45594000000E+02  0.51100000000E-03 0.  1.
         11   -1    0    0    0    0 -0.00000000000E+00 -0.00000000000E+00 -0.45593999997E+02  0.45594000000E+02  0.51100000000E-03 0. -1.
    9900012    2    1    2    0    0  0.20939275814E+01  0.27948003769E+02  0.29456574962E+02  0.50528865038E+02  0.30000015769E+02 0.  0.
         12    1    1    2    0    0 -0.20939275814E+01 -0.27948003769E+02 -0.29456574962E+02  0.40659134962E+02  0.00000000000E+00 0. -1.
         11    1    3    3    0    0  0.27434132458E+01 -0.50347213005E+01  0.58716486424E+01  0.82067650662E+01  0.51100000000E-03 0. -1.
        -11    1    3    3    0    0 -0.34725899642E+01  0.31932827178E+02  0.21814598219E+02  0.38828353408E+02  0.51100000000E-03 0.  1.
        -12    1    3    3    0    0  0.28231042998E+01  0.10498978916E+01  0.17703281006E+01  0.34937465641E+01  0.00000000000E+00 0.  1.
</event>
<event>
 7    1  0.2966651E-011  0.5052886E+02  0.7816164E-02  0.1300439E+00
        -11   -1    0    0    0    0  0.00000000000E+00  0.00000000000E+00  0.45593999997E+02  0.45594000000E+02  0.51100000000E-03 0.  1.
         11   -1    0    0    0    0 -0.00000000000E+00 -0.00000000000E+00 -0.45593999997E+02  0.45594000000E+02  0.51100000000E-03 0. -1.
    9900012    2    1    2    0    0 -0.33359698069E+01 -0.11759171979E+02  0.38778328024E+02  0.50528861488E+02  0.30000004979E+02 0.  0.
         12    1    1    2    0    0  0.33359698069E+01  0.11759171979E+02 -0.38778328024E+02  0.40659138512E+02  0.00000000000E+00 0. -1.
         11    1    3    3    0    0 -0.10408166464E+02 -0.41253221741E+01  0.25561270304E+01  0.11483988760E+02  0.51100000000E-03 0. -1.
        -11    1    3    3    0    0  0.20970907534E+01 -0.91363779258E+01  0.22819316886E+02  0.24669665880E+02  0.51100000000E-03 0.  1.
         12    1    3    3    0    0  0.49751059039E+01  0.15025281209E+01  0.13402884108E+02  0.14375206848E+02  0.00000000000E+00 0. -1.
</event>
<event>
 7    1  0.2966651E-011  0.5052881E+02  0.7816164E-02  0.1300439E+00
        -11   -1    0    0    0    0  0.00000000000E+00  0.00000000000E+00  0.45593999997E+02  0.45594000000E+02  0.51100000000E-03 0.  1.
         11   -1    0    0    0    0 -0.00000000000E+00 -0.00000000000E+00 -0.45593999997E+02  0.45594000000E+02  0.51100000000E-03 0. -1.
    9900012    2    1    2    0    0  0.19570045392E+02 -0.35544737561E+02  0.25989068132E+01  0.50528814549E+02  0.29999862302E+02 0.  0.
         12    1    1    2    0    0 -0.19570045392E+02  0.35544737561E+02 -0.25989068132E+01  0.40659185451E+02  0.00000000000E+00 0. -1.
         11    1    3    3    0    0  0.66720646060E+01 -0.60523490082E+01 -0.52977535880E+01  0.10450529554E+02  0.51100000000E-03 0. -1.
        -11    1    3    3    0    0 -0.62950861285E+01 -0.95978201229E+01  0.40330542312E+01  0.12166009501E+02  0.51100000000E-03 0.  1.
        -12    1    3    3    0    0  0.19193066914E+02 -0.19894568430E+02  0.38636061701E+01  0.27912275494E+02  0.00000000000E+00 0.  1.
</event>
<event>
 7    1  0.2966651E-011  0.5052883E+02  0.7816164E-02  0.1300439E+00
        -11   -1    0    0    0    0  0.00000000000E+00  0.00000000000E+00  0.45593999997E+02  0.45594000000E+02  0.51100000000E-03 0.  1.
         11   -1    0    0    0    0 -0.00000000000E+00 -0.00000000000E+00 -0.45593999997E+02  0.45594000000E+02  0.51100000000E-03 0. -1.
    9900012    2    1    2    0    0 -0.10187319685E+02  0.25868180888E+02  0.29668566883E+02  0.50528829747E+02  0.29999908498E+02 0.  0.
         12    1    1    2    0    0  0.10187319685E+02 -0.25868180888E+02 -0.29668566883E+02  0.40659170253E+02  0.00000000000E+00 0. -1.
         11    1    3    3    0    0 -0.94326805191E+01  0.42846185980E+01 -0.18761644384E+01  0.10528694675E+02  0.51100000000E-03 0. -1.
        -11    1    3    3    0    0  0.14371683811E+01  0.21905135506E+02  0.30425583405E+02  0.37518216113E+02  0.51100000000E-03 0.  1.
        -12    1    3    3    0    0 -0.21918075473E+01 -0.32157321590E+00  0.11191479155E+01  0.24819189581E+01  0.00000000000E+00 0.  1.
</event>
<event>
 7    1  0.2966651E-011  0.5052889E+02  0.7816164E-02  0.1300439E+00
        -11   -1    0    0    0    0  0.00000000000E+00  0.00000000000E+00  0.45593999997E+02  0.45594000000E+02  0.51100000000E-03 0.  1.
         11   -1    0    0    0    0 -0.00000000000E+00 -0.00000000000E+00 -0.45593999997E+02  0.45594000000E+02  0.51100000000E-03 0. -1.
    9900012    2    1    2    0    0 -0.10130848647E+02  0.38908129965E+02  0.60569494963E+01  0.50528888980E+02  0.30000088545E+02 0.  0.
         12    1    1    2    0    0  0.10130848647E+02 -0.38908129965E+02 -0.60569494963E+01  0.40659111020E+02  0.00000000000E+00 0. -1.
         11    1    3    3    0    0  0.77186730459E+01  0.58837703773E+01 -0.42837416376E+01  0.10608822278E+02  0.51100000000E-03 0. -1.
        -11    1    3    3    0    0 -0.90427986127E+01  0.12780132427E+02  0.27851166444E+00  0.15658274509E+02  0.51100000000E-03 0.  1.
         12    1    3    3    0    0 -0.88067230804E+01  0.20244227161E+02  0.10062179469E+02  0.24261792193E+02  0.00000000000E+00 0. -1.
</event>
<event>
 7    1  0.2966651E-011  0.5052886E+02  0.7816164E-02  0.1300439E+00
        -11   -1    0    0    0    0  0.00000000000E+00  0.00000000000E+00  0.45593999997E+02  0.45594000000E+02  0.51100000000E-03 0.  1.
         11   -1    0    0    0    0 -0.00000000000E+00 -0.00000000000E+00 -0.45593999997E+02  0.45594000000E+02  0.51100000000E-03 0. -1.
    9900012    2    1    2    0    0  0.95335084999E+01 -0.38523829757E+02 -0.88426459151E+01  0.50528860434E+02  0.30000001776E+02 0.  0.
         12    1    1    2    0    0 -0.95335084999E+01  0.38523829757E+02  0.88426459151E+01  0.40659139566E+02  0.00000000000E+00 0. -1.
         11    1    3    3    0    0  0.52796566172E+01 -0.12693934821E+02 -0.59996842038E+01  0.15000232199E+02  0.51100000000E-03 0. -1.
        -11    1    3    3    0    0 -0.86726924411E+01 -0.97026564687E+01  0.42292958464E+01  0.13683715882E+02  0.51100000000E-03 0.  1.
        -12    1    3    3    0    0  0.12926544324E+02 -0.16127238467E+02 -0.70722575578E+01  0.21844912353E+02  0.00000000000E+00 0.  1.
</event>
<event>
 7    1  0.2966651E-011  0.5052888E+02  0.7816164E-02  0.1300439E+00
        -11   -1    0    0    0    0  0.00000000000E+00  0.00000000000E+00  0.45593999997E+02  0.45594000000E+02  0.51100000000E-03 0.  1.
         11   -1    0    0    0    0 -0.00000000000E+00 -0.00000000000E+00 -0.45593999997E+02  0.45594000000E+02  0.51100000000E-03 0. -1.
    9900012    2    1    2    0    0 -0.32398647739E+02  0.66118751471E+01  0.23659565982E+02  0.50528876414E+02  0.30000050349E+02 0.  0.
         12    1    1    2    0    0  0.32398647739E+02 -0.66118751471E+01 -0.23659565982E+02  0.40659123586E+02  0.00000000000E+00 0. -1.
         11    1    3    3    0    0 -0.93008800662E+00  0.63423571859E+01  0.89117749691E+00  0.64718433206E+01  0.51100000000E-03 0. -1.
        -11    1    3    3    0    0 -0.23685082784E+02 -0.75187622631E+01  0.90048995583E+01  0.26431101921E+02  0.51100000000E-03 0.  1.
        -12    1    3    3    0    0 -0.77834769491E+01  0.77882802243E+01  0.13763488927E+02  0.17625931173E+02  0.00000000000E+00 0.  1.
</event>
<event>
 7    1  0.2966651E-011  0.5052886E+02  0.7816164E-02  0.1300439E+00
        -11   -1    0    0    0    0  0.00000000000E+00  0.00000000000E+00  0.45593999997E+02  0.45594000000E+02  0.51100000000E-03 0.  1.
         11   -1    0    0    0    0 -0.00000000000E+00 -0.00000000000E+00 -0.45593999997E+02  0.45594000000E+02  0.51100000000E-03 0. -1.
    9900012    2    1    2    0    0 -0.69426160835E+01  0.37456717449E+02 -0.14211273463E+02  0.50528857196E+02  0.29999991932E+02 0.  0.
         12    1    1    2    0    0  0.69426160835E+01 -0.37456717449E+02  0.14211273463E+02  0.40659142804E+02  0.00000000000E+00 0. -1.
         11    1    3    3    0    0 -0.34349995406E+00  0.21427717426E+02 -0.17946605901E+02  0.27952562136E+02  0.51100000000E-03 0. -1.
        -11    1    3    3    0    0 -0.97483620771E+01  0.16415796498E+02  0.32278962512E+01  0.19363064126E+02  0.51100000000E-03 0.  1.
        -12    1    3    3    0    0  0.31492459477E+01 -0.38679647545E+00  0.50743618733E+00  0.32132309342E+01  0.00000000000E+00 0.  1.
</event>
<event>
 7    1  0.2966651E-011  0.5052886E+02  0.7816164E-02  0.1300439E+00
        -11   -1    0    0    0    0  0.00000000000E+00  0.00000000000E+00  0.45593999997E+02  0.45594000000E+02  0.51100000000E-03 0.  1.
         11   -1    0    0    0    0 -0.00000000000E+00 -0.00000000000E+00 -0.45593999997E+02  0.45594000000E+02  0.51100000000E-03 0. -1.
    9900012    2    1    2    0    0  0.11523998660E+02  0.35708839872E+02  0.15660208693E+02  0.50528856791E+02  0.29999990703E+02 0.  0.
         12    1    1    2    0    0 -0.11523998660E+02 -0.35708839872E+02 -0.15660208693E+02  0.40659143209E+02  0.00000000000E+00 0. -1.
         11    1    3    3    0    0  0.54462401214E+01 -0.42833380818E+00 -0.41995736167E+01  0.68906763191E+01  0.51100000000E-03 0. -1.
        -11    1    3    3    0    0  0.83769931050E+01  0.17404567730E+02  0.60117769512E+01  0.20229544081E+02  0.51100000000E-03 0.  1.
         12    1    3    3    0    0 -0.22992345667E+01  0.18732605951E+02  0.13848005359E+02  0.23408636392E+02  0.00000000000E+00 0. -1.
</event>
<event>
 7    1  0.2966651E-011  0.5052886E+02  0.7816164E-02  0.1300439E+00
        -11   -1    0    0    0    0  0.00000000000E+00  0.00000000000E+00  0.45593999997E+02  0.45594000000E+02  0.51100000000E-03 0.  1.
         11   -1    0    0    0    0 -0.00000000000E+00 -0.00000000000E+00 -0.45593999997E+02  0.45594000000E+02  0.51100000000E-03 0. -1.
    9900012    2    1    2    0    0  0.23266066672E+02 -0.15465532063E+02  0.29541045455E+02  0.50528857031E+02  0.29999991431E+02 0.  0.
         12    1    1    2    0    0 -0.23266066672E+02  0.15465532063E+02 -0.29541045455E+02  0.40659142969E+02  0.00000000000E+00 0. -1.
         11    1    3    3    0    0 -0.71042064471E+00 -0.47721749956E+00  0.27602817379E+01  0.28899116886E+01  0.51100000000E-03 0. -1.
        -11    1    3    3    0    0  0.26331358091E+02 -0.18626185582E+02  0.28437406741E+02  0.42999550122E+02  0.51100000000E-03 0.  1.
        -12    1    3    3    0    0 -0.23548707746E+01  0.36378710179E+01 -0.16566430231E+01  0.46393952207E+01  0.00000000000E+00 0.  1.
</event>
<event>
 7    1  0.2966651E-011  0.5052886E+02  0.7816164E-02  0.1300439E+00
        -11   -1    0    0    0    0  0.00000000000E+00  0.00000000000E+00  0.45593999997E+02  0.45594000000E+02  0.51100000000E-03 0.  1.
         11   -1    0    0    0    0 -0.00000000000E+00 -0.00000000000E+00 -0.45593999997E+02  0.45594000000E+02  0.51100000000E-03 0. -1.
    9900012    2    1    2    0    0  0.87673287868E+01  0.21056475794E+02  0.33658946622E+02  0.50528856937E+02  0.29999991146E+02 0.  0.
         12    1    1    2    0    0 -0.87673287868E+01 -0.21056475794E+02 -0.33658946622E+02  0.40659143063E+02  0.00000000000E+00 0. -1.
         11    1    3    3    0    0  0.66139173687E+01  0.19767042915E+02  0.61379224094E+01  0.21729104453E+02  0.51100000000E-03 0. -1.
        -11    1    3    3    0    0  0.14178624900E+01  0.39041170865E+01  0.23979472784E+02  0.24336548226E+02  0.51100000000E-03 0.  1.
        -12    1    3    3    0    0  0.73554892814E+00 -0.26146842079E+01  0.35415514282E+01  0.44632042583E+01  0.00000000000E+00 0.  1.
</event>
<event>
 7    1  0.2966651E-011  0.5052888E+02  0.7816164E-02  0.1300439E+00
        -11   -1    0    0    0    0  0.00000000000E+00  0.00000000000E+00  0.45593999997E+02  0.45594000000E+02  0.51100000000E-03 0.  1.
         11   -1    0    0    0    0 -0.00000000000E+00 -0.00000000000E+00 -0.45593999997E+02  0.45594000000E+02  0.51100000000E-03 0. -1.
    9900012    2    1    2    0    0 -0.16312765090E+02  0.71284327652E+01  0.36554657355E+02  0.50528882536E+02  0.30000068958E+02 0.  0.
         12    1    1    2    0    0  0.16312765090E+02 -0.71284327652E+01 -0.36554657355E+02  0.40659117464E+02  0.00000000000E+00 0. -1.
         11    1    3    3    0    0 -0.11566833575E+02 -0.25617181879E+01  0.25179409746E+02  0.27827265666E+02  0.51100000000E-03 0. -1.
        -11    1    3    3    0    0 -0.22617851720E+01  0.11440072178E+02  0.78930243428E+00  0.11688195849E+02  0.51100000000E-03 0.  1.
        -12    1    3    3    0    0 -0.24841463425E+01 -0.17499212253E+01  0.10585945175E+02  0.11013421022E+02  0.00000000000E+00 0.  1.
</event>
<event>
 7    1  0.2966651E-011  0.5052886E+02  0.7816164E-02  0.1300439E+00
        -11   -1    0    0    0    0  0.00000000000E+00  0.00000000000E+00  0.45593999997E+02  0.45594000000E+02  0.51100000000E-03 0. -1.
         11   -1    0    0    0    0 -0.00000000000E+00 -0.00000000000E+00 -0.45593999997E+02  0.45594000000E+02  0.51100000000E-03 0.  1.
    9900012    2    1    2    0    0 -0.37711563543E+02 -0.10913960660E+02 -0.10577781569E+02  0.50528855579E+02  0.29999987018E+02 0.  0.
         12    1    1    2    0    0  0.37711563543E+02  0.10913960660E+02  0.10577781569E+02  0.40659144421E+02  0.00000000000E+00 0. -1.
         11    1    3    3    0    0 -0.86284828146E+01  0.40919959591E+01 -0.19611186307E+01  0.97489042028E+01  0.51100000000E-03 0. -1.
        -11    1    3    3    0    0 -0.15528096261E+02 -0.11340999028E+02  0.63572008072E+01  0.20252259993E+02  0.51100000000E-03 0.  1.
        -12    1    3    3    0    0 -0.13554984467E+02 -0.36649575911E+01 -0.14973863746E+02  0.20527691383E+02  0.00000000000E+00 0.  1.
</event>
<event>
 7    1  0.2966651E-011  0.5052886E+02  0.7816164E-02  0.1300439E+00
        -11   -1    0    0    0    0  0.00000000000E+00  0.00000000000E+00  0.45593999997E+02  0.45594000000E+02  0.51100000000E-03 0.  1.
         11   -1    0    0    0    0 -0.00000000000E+00 -0.00000000000E+00 -0.45593999997E+02  0.45594000000E+02  0.51100000000E-03 0. -1.
    9900012    2    1    2    0    0 -0.90549200481E+01  0.79522339357E+01  0.38832147922E+02  0.50528864324E+02  0.30000013600E+02 0.  0.
         12    1    1    2    0    0  0.90549200481E+01 -0.79522339357E+01 -0.38832147922E+02  0.40659135676E+02  0.00000000000E+00 0. -1.
         11    1    3    3    0    0  0.82346520090E+01  0.10908544145E+02  0.13592874254E+02  0.19276204497E+02  0.51100000000E-03 0. -1.
        -11    1    3    3    0    0 -0.83194840579E+01 -0.38463557175E+01  0.10149762878E+02  0.13675743272E+02  0.51100000000E-03 0.  1.
         12    1    3    3    0    0 -0.89700879991E+01  0.89004550855E+00  0.15089510790E+02  0.17576916556E+02  0.00000000000E+00 0. -1.
</event>
<event>
 7    1  0.2966651E-011  0.5052887E+02  0.7816164E-02  0.1300439E+00
        -11   -1    0    0    0    0  0.00000000000E+00  0.00000000000E+00  0.45593999997E+02  0.45594000000E+02  0.51100000000E-03 0.  1.
         11   -1    0    0    0    0 -0.00000000000E+00 -0.00000000000E+00 -0.45593999997E+02  0.45594000000E+02  0.51100000000E-03 0. -1.
    9900012    2    1    2    0    0  0.18534731434E+02  0.16356060595E+02  0.32281700038E+02  0.50528866403E+02  0.30000019919E+02 0.  0.
         12    1    1    2    0    0 -0.18534731434E+02 -0.16356060595E+02 -0.32281700038E+02  0.40659133597E+02  0.00000000000E+00 0. -1.
         11    1    3    3    0    0  0.14336395898E+02 -0.43192300429E+01  0.17907844957E+02  0.23342641384E+02  0.51100000000E-03 0.  1.
        -11    1    3    3    0    0  0.46892451821E+01  0.12231221580E+02  0.37876535221E+01  0.13635912921E+02  0.51100000000E-03 0. -1.
        -12    1    3    3    0    0 -0.49090964653E+00  0.84440690579E+01  0.10586201559E+02  0.13550312099E+02  0.00000000000E+00 0.  1.
</event>
<event>
 7    1  0.2966651E-011  0.5052886E+02  0.7816164E-02  0.1300439E+00
        -11   -1    0    0    0    0  0.00000000000E+00  0.00000000000E+00  0.45593999997E+02  0.45594000000E+02  0.51100000000E-03 0.  1.
         11   -1    0    0    0    0 -0.00000000000E+00 -0.00000000000E+00 -0.45593999997E+02  0.45594000000E+02  0.51100000000E-03 0. -1.
    9900012    2    1    2    0    0  0.20776799170E+02  0.26911964857E+02  0.22298802416E+02  0.50528858034E+02  0.29999994481E+02 0.  0.
         12    1    1    2    0    0 -0.20776799170E+02 -0.26911964857E+02 -0.22298802416E+02  0.40659141966E+02  0.00000000000E+00 0. -1.
         11    1    3    3    0    0 -0.77019885903E+00  0.28209894942E+01  0.74640320097E+01  0.80164182845E+01  0.51100000000E-03 0. -1.
        -11    1    3    3    0    0  0.26387337325E+02  0.21796546519E+02  0.11092627740E+02  0.35978151728E+02  0.51100000000E-03 0.  1.
        -12    1    3    3    0    0 -0.48403392963E+01  0.22944288434E+01  0.37421426662E+01  0.65342880220E+01  0.00000000000E+00 0.  1.
</event>
<event>
 7    1  0.2966651E-011  0.5052886E+02  0.7816164E-02  0.1300439E+00
        -11   -1    0    0    0    0  0.00000000000E+00  0.00000000000E+00  0.45593999997E+02  0.45594000000E+02  0.51100000000E-03 0.  1.
         11   -1    0    0    0    0 -0.00000000000E+00 -0.00000000000E+00 -0.45593999997E+02  0.45594000000E+02  0.51100000000E-03 0. -1.
    9900012    2    1    2    0    0 -0.45648955673E+01 -0.18688973716E+02  0.35819680580E+02  0.50528861704E+02  0.30000005636E+02 0.  0.
         12    1    1    2    0    0  0.45648955673E+01  0.18688973716E+02 -0.35819680580E+02  0.40659138296E+02  0.00000000000E+00 0. -1.
         11    1    3    3    0    0  0.13344310882E+00  0.40868203980E+01 -0.18266715045E+01  0.44784636959E+01  0.51100000000E-03 0. -1.
        -11    1    3    3    0    0 -0.39756039211E+01 -0.24257468270E+02  0.36631269562E+02  0.44114397915E+02  0.51100000000E-03 0.  1.
        -12    1    3    3    0    0 -0.72273475509E+00  0.14816741566E+01  0.10150825231E+01  0.19360000933E+01  0.00000000000E+00 0.  1.
</event>
<event>
 7    1  0.2966651E-011  0.5052886E+02  0.7816164E-02  0.1300439E+00
        -11   -1    0    0    0    0  0.00000000000E+00  0.00000000000E+00  0.45593999997E+02  0.45594000000E+02  0.51100000000E-03 0.  1.
         11   -1    0    0    0    0 -0.00000000000E+00 -0.00000000000E+00 -0.45593999997E+02  0.45594000000E+02  0.51100000000E-03 0. -1.
    9900012    2    1    2    0    0 -0.34174974713E+02  0.12007356602E+02  0.18467820082E+02  0.50528857267E+02  0.29999992149E+02 0.  0.
         12    1    1    2    0    0  0.34174974713E+02 -0.12007356602E+02 -0.18467820082E+02  0.40659142733E+02  0.00000000000E+00 0. -1.
         11    1    3    3    0    0 -0.77097072078E+01  0.41631820948E+01  0.17253988761E+02  0.19351273829E+02  0.51100000000E-03 0. -1.
        -11    1    3    3    0    0 -0.71931512111E+01  0.37318407565E+01 -0.61160353338E+01  0.10152534080E+02  0.51100000000E-03 0.  1.
        -12    1    3    3    0    0 -0.19272116294E+02  0.41123337507E+01  0.73298666545E+01  0.21025049358E+02  0.00000000000E+00 0.  1.
</event>
<event>
 7    1  0.2966651E-011  0.5052887E+02  0.7816164E-02  0.1300439E+00
        -11   -1    0    0    0    0  0.00000000000E+00  0.00000000000E+00  0.45593999997E+02  0.45594000000E+02  0.51100000000E-03 0.  1.
         11   -1    0    0    0    0 -0.00000000000E+00 -0.00000000000E+00 -0.45593999997E+02  0.45594000000E+02  0.51100000000E-03 0. -1.
    9900012    2    1    2    0    0 -0.84080525447E+01  0.32910265398E+02  0.22346907512E+02  0.50528865830E+02  0.30000018176E+02 0.  0.
         12    1    1    2    0    0  0.84080525447E+01 -0.32910265398E+02 -0.22346907512E+02  0.40659134170E+02  0.00000000000E+00 0. -1.
         11    1    3    3    0    0 -0.37142850148E+01  0.10079235761E+01 -0.57410073073E+01  0.69116559716E+01  0.51100000000E-03 0. -1.
        -11    1    3    3    0    0 -0.57515825151E+01  0.14380607006E+02  0.16226766294E+02  0.22431908165E+02  0.51100000000E-03 0.  1.
         12    1    3    3    0    0  0.10578149853E+01  0.17521734816E+02  0.11861148525E+02  0.21185301693E+02  0.00000000000E+00 0. -1.
</event>
<event>
 7    1  0.2966651E-011  0.5052884E+02  0.7816164E-02  0.1300439E+00
        -11   -1    0    0    0    0  0.00000000000E+00  0.00000000000E+00  0.45593999997E+02  0.45594000000E+02  0.51100000000E-03 0.  1.
         11   -1    0    0    0    0 -0.00000000000E+00 -0.00000000000E+00 -0.45593999997E+02  0.45594000000E+02  0.51100000000E-03 0. -1.
    9900012    2    1    2    0    0 -0.17988413789E+02  0.32963096517E+02  0.15589039263E+02  0.50528844724E+02  0.29999954023E+02 0.  0.
         12    1    1    2    0    0  0.17988413789E+02 -0.32963096517E+02 -0.15589039263E+02  0.40659155276E+02  0.00000000000E+00 0. -1.
         11    1    3    3    0    0 -0.28794772100E+01 -0.17574455371E+00  0.28687758563E+01  0.40684333995E+01  0.51100000000E-03 0. -1.
        -11    1    3    3    0    0 -0.29009784462E+01  0.31913617457E+02  0.64738740515E+01  0.32692593972E+02  0.51100000000E-03 0.  1.
        -12    1    3    3    0    0 -0.12207958133E+02  0.12252236139E+01  0.62463893551E+01  0.13767817352E+02  0.00000000000E+00 0.  1.
</event>
<event>
 7    1  0.2966651E-011  0.5052891E+02  0.7816164E-02  0.1300439E+00
        -11   -1    0    0    0    0  0.00000000000E+00  0.00000000000E+00  0.45593999997E+02  0.45594000000E+02  0.51100000000E-03 0.  1.
         11   -1    0    0    0    0 -0.00000000000E+00 -0.00000000000E+00 -0.45593999997E+02  0.45594000000E+02  0.51100000000E-03 0. -1.
    9900012    2    1    2    0    0  0.11861247839E+02 -0.18177848070E+02  0.34380782851E+02  0.50528910116E+02  0.30000152789E+02 0.  0.
         12    1    1    2    0    0 -0.11861247839E+02  0.18177848070E+02 -0.34380782851E+02  0.40659089884E+02  0.00000000000E+00 0. -1.
         11    1    3    3    0    0  0.28858832192E+01  0.49311748075E+01 -0.68184078123E+00  0.57541041048E+01  0.51100000000E-03 0. -1.
        -11    1    3    3    0    0  0.11417047042E+02 -0.12514740521E+02  0.20270910342E+02  0.26417371176E+02  0.51100000000E-03 0.  1.
         12    1    3    3    0    0 -0.24416824226E+01 -0.10594282357E+02  0.14791713290E+02  0.18357434836E+02  0.00000000000E+00 0. -1.
</event>
<event>
 7    1  0.2966651E-011  0.5052886E+02  0.7816164E-02  0.1300439E+00
        -11   -1    0    0    0    0  0.00000000000E+00  0.00000000000E+00  0.45593999997E+02  0.45594000000E+02  0.51100000000E-03 0. -1.
         11   -1    0    0    0    0 -0.00000000000E+00 -0.00000000000E+00 -0.45593999997E+02  0.45594000000E+02  0.51100000000E-03 0.  1.
    9900012    2    1    2    0    0  0.22689632980E+02  0.22181038449E+02 -0.25423370707E+02  0.50528859704E+02  0.29999999557E+02 0.  0.
         12    1    1    2    0    0 -0.22689632980E+02 -0.22181038449E+02  0.25423370707E+02  0.40659140296E+02  0.00000000000E+00 0. -1.
         11    1    3    3    0    0 -0.23780812610E+01  0.12238526686E+02 -0.94860532290E+01  0.15665950723E+02  0.51100000000E-03 0. -1.
        -11    1    3    3    0    0  0.25272986888E+02  0.11543566305E+02 -0.17317206665E+02  0.32739325531E+02  0.51100000000E-03 0.  1.
        -12    1    3    3    0    0 -0.20527264720E+00 -0.16010545413E+01  0.13798891868E+01  0.21235834506E+01  0.00000000000E+00 0.  1.
</event>
<event>
 7    1  0.2966651E-011  0.5052885E+02  0.7816164E-02  0.1300439E+00
        -11   -1    0    0    0    0  0.00000000000E+00  0.00000000000E+00  0.45593999997E+02  0.45594000000E+02  0.51100000000E-03 0. -1.
         11   -1    0    0    0    0 -0.00000000000E+00 -0.00000000000E+00 -0.45593999997E+02  0.45594000000E+02  0.51100000000E-03 0.  1.
    9900012    2    1    2    0    0  0.19212778585E+02  0.31912808105E+02  0.16297489083E+02  0.50528851798E+02  0.29999975524E+02 0.  0.
         12    1    1    2    0    0 -0.19212778585E+02 -0.31912808105E+02 -0.16297489083E+02  0.40659148202E+02  0.00000000000E+00 0. -1.
         11    1    3    3    0    0  0.19626814281E+01 -0.49552033610E+01  0.50442594060E+01  0.73383044331E+01  0.51100000000E-03 0. -1.
        -11    1    3    3    0    0  0.16757618615E+02  0.31508751027E+02  0.12221169420E+02  0.37722356172E+02  0.51100000000E-03 0.  1.
         12    1    3    3    0    0  0.49247854252E+00  0.53592604391E+01 -0.96793974313E+00  0.54681911923E+01  0.00000000000E+00 0. -1.
</event>
<event>
 7    1  0.2966651E-011  0.5052886E+02  0.7816164E-02  0.1300439E+00
        -11   -1    0    0    0    0  0.00000000000E+00  0.00000000000E+00  0.45593999997E+02  0.45594000000E+02  0.51100000000E-03 0.  1.
         11   -1    0    0    0    0 -0.00000000000E+00 -0.00000000000E+00 -0.45593999997E+02  0.45594000000E+02  0.51100000000E-03 0. -1.
    9900012    2    1    2    0    0 -0.15266509036E+02 -0.94745859548E+01  0.36473709372E+02  0.50528861390E+02  0.30000004682E+02 0.  0.
         12    1    1    2    0    0  0.15266509036E+02  0.94745859548E+01 -0.36473709372E+02  0.40659138610E+02  0.00000000000E+00 0. -1.
         11    1    3    3    0    0 -0.13306786366E+02  0.65402758696E+01  0.28136685933E+02  0.31804384405E+02  0.51100000000E-03 0.  1.
        -11    1    3    3    0    0 -0.16906005284E+01 -0.15664715317E+02  0.68626483531E+01  0.17185382707E+02  0.51100000000E-03 0. -1.
         12    1    3    3    0    0 -0.26912214157E+00 -0.35014650754E+00  0.14743750856E+01  0.15390942781E+01  0.00000000000E+00 0. -1.
</event>
<event>
 7    1  0.2966651E-011  0.5052879E+02  0.7816164E-02  0.1300439E+00
        -11   -1    0    0    0    0  0.00000000000E+00  0.00000000000E+00  0.45593999997E+02  0.45594000000E+02  0.51100000000E-03 0.  1.
         11   -1    0    0    0    0 -0.00000000000E+00 -0.00000000000E+00 -0.45593999997E+02  0.45594000000E+02  0.51100000000E-03 0. -1.
    9900012    2    1    2    0    0 -0.34062990591E+02  0.11071414628E+02  0.19243392727E+02  0.50528785626E+02  0.29999774388E+02 0.  0.
         12    1    1    2    0    0  0.34062990591E+02 -0.11071414628E+02 -0.19243392727E+02  0.40659214374E+02  0.00000000000E+00 0. -1.
         11    1    3    3    0    0 -0.21871902902E+02 -0.42246366336E+01  0.52508703812E+00  0.22282356426E+02  0.51100000000E-03 0. -1.
        -11    1    3    3    0    0 -0.11978512590E+02  0.95139250429E+01  0.14584194926E+02  0.21135237768E+02  0.51100000000E-03 0.  1.
         12    1    3    3    0    0 -0.21257509831E+00  0.57821262191E+01  0.41341107621E+01  0.71111914318E+01  0.00000000000E+00 0. -1.
</event>
<event>
 7    1  0.2966651E-011  0.5052888E+02  0.7816164E-02  0.1300439E+00
        -11   -1    0    0    0    0  0.00000000000E+00  0.00000000000E+00  0.45593999997E+02  0.45594000000E+02  0.51100000000E-03 0.  1.
         11   -1    0    0    0    0 -0.00000000000E+00 -0.00000000000E+00 -0.45593999997E+02  0.45594000000E+02  0.51100000000E-03 0. -1.
    9900012    2    1    2    0    0 -0.82066291173E+01  0.29015037197E+02  0.27275319453E+02  0.50528878068E+02  0.30000055376E+02 0.  0.
         12    1    1    2    0    0  0.82066291173E+01 -0.29015037197E+02 -0.27275319453E+02  0.40659121932E+02  0.00000000000E+00 0. -1.
         11    1    3    3    0    0  0.26407691718E+01 -0.24450733844E+01  0.99015558662E+01  0.10535314637E+02  0.51100000000E-03 0. -1.
        -11    1    3    3    0    0 -0.15711904784E+01  0.12424380884E+02  0.13593988319E+02  0.18483246429E+02  0.51100000000E-03 0.  1.
         12    1    3    3    0    0 -0.92762078107E+01  0.19035729697E+02  0.37797752678E+01  0.21510317002E+02  0.00000000000E+00 0. -1.
</event>
<event>
 7    1  0.2966651E-011  0.5052888E+02  0.7816164E-02  0.1300439E+00
        -11   -1    0    0    0    0  0.00000000000E+00  0.00000000000E+00  0.45593999997E+02  0.45594000000E+02  0.51100000000E-03 0. -1.
         11   -1    0    0    0    0 -0.00000000000E+00 -0.00000000000E+00 -0.45593999997E+02  0.45594000000E+02  0.51100000000E-03 0.  1.
    9900012    2    1    2    0    0  0.11383700654E+02  0.19533737042E+02 -0.33793611248E+02  0.50528884361E+02  0.30000074503E+02 0.  0.
         12    1    1    2    0    0 -0.11383700654E+02 -0.19533737042E+02  0.33793611248E+02  0.40659115639E+02  0.00000000000E+00 0. -1.
         11    1    3    3    0    0 -0.63101133110E+01  0.21264787301E+01 -0.12975424975E+02  0.14584275619E+02  0.51100000000E-03 0. -1.
        -11    1    3    3    0    0  0.98793019761E+01 -0.14780550486E+00 -0.50997747155E+01  0.11118909857E+02  0.51100000000E-03 0.  1.
         12    1    3    3    0    0  0.78145119891E+01  0.17555063816E+02 -0.15718411558E+02  0.24825698885E+02  0.00000000000E+00 0. -1.
</event>
<event>
 7    1  0.2966651E-011  0.5052886E+02  0.7816164E-02  0.1300439E+00
        -11   -1    0    0    0    0  0.00000000000E+00  0.00000000000E+00  0.45593999997E+02  0.45594000000E+02  0.51100000000E-03 0. -1.
         11   -1    0    0    0    0 -0.00000000000E+00 -0.00000000000E+00 -0.45593999997E+02  0.45594000000E+02  0.51100000000E-03 0.  1.
    9900012    2    1    2    0    0  0.66770215982E+01 -0.23289804299E+02 -0.32652232397E+02  0.50528857335E+02  0.29999992357E+02 0.  0.
         12    1    1    2    0    0 -0.66770215982E+01  0.23289804299E+02  0.32652232397E+02  0.40659142665E+02  0.00000000000E+00 0. -1.
         11    1    3    3    0    0  0.14807245329E+02 -0.11117955401E+02 -0.54042868035E+01  0.19289109949E+02  0.51100000000E-03 0. -1.
        -11    1    3    3    0    0 -0.31853224920E+01 -0.86190632257E+01 -0.16135822027E+02  0.18568771716E+02  0.51100000000E-03 0.  1.
         12    1    3    3    0    0 -0.49449012385E+01 -0.35527856724E+01 -0.11112123566E+02  0.12670975671E+02  0.00000000000E+00 0. -1.
</event>
<event>
 7    1  0.2966651E-011  0.5052885E+02  0.7816164E-02  0.1300439E+00
        -11   -1    0    0    0    0  0.00000000000E+00  0.00000000000E+00  0.45593999997E+02  0.45594000000E+02  0.51100000000E-03 0. -1.
         11   -1    0    0    0    0 -0.00000000000E+00 -0.00000000000E+00 -0.45593999997E+02  0.45594000000E+02  0.51100000000E-03 0.  1.
    9900012    2    1    2    0    0  0.19449755497E+02 -0.14544262433E+02 -0.32608868354E+02  0.50528845386E+02  0.29999956034E+02 0.  0.
         12    1    1    2    0    0 -0.19449755497E+02  0.14544262433E+02  0.32608868354E+02  0.40659154614E+02  0.00000000000E+00 0. -1.
         11    1    3    3    0    0 -0.59026706216E+00  0.57031666707E+00  0.20883771734E+01  0.22438796280E+01  0.51100000000E-03 0. -1.
        -11    1    3    3    0    0  0.23943894480E+02 -0.81448799871E+01 -0.28963587084E+02  0.38451768879E+02  0.51100000000E-03 0.  1.
         12    1    3    3    0    0 -0.39038719215E+01 -0.69696991127E+01 -0.57336584435E+01  0.98331968783E+01  0.00000000000E+00 0. -1.
</event>
<event>
 7    1  0.2966651E-011  0.5052885E+02  0.7816164E-02  0.1300439E+00
        -11   -1    0    0    0    0  0.00000000000E+00  0.00000000000E+00  0.45593999997E+02  0.45594000000E+02  0.51100000000E-03 0.  1.
         11   -1    0    0    0    0 -0.00000000000E+00 -0.00000000000E+00 -0.45593999997E+02  0.45594000000E+02  0.51100000000E-03 0. -1.
    9900012    2    1    2    0    0  0.19802851011E+02  0.37456115563E+01  0.35312660483E+02  0.50528849683E+02  0.29999969098E+02 0.  0.
         12    1    1    2    0    0 -0.19802851011E+02 -0.37456115563E+01 -0.35312660483E+02  0.40659150317E+02  0.00000000000E+00 0. -1.
         11    1    3    3    0    0  0.72635386918E+01  0.36322821213E+00 -0.13364097665E+01  0.73943843818E+01  0.51100000000E-03 0. -1.
        -11    1    3    3    0    0  0.34520674285E+01  0.67751089655E+00  0.32658833983E+02  0.32847758339E+02  0.51100000000E-03 0.  1.
        -12    1    3    3    0    0  0.90872448909E+01  0.27048724476E+01  0.39902362665E+01  0.10286706962E+02  0.00000000000E+00 0.  1.
</event>
<event>
 7    1  0.2966651E-011  0.5052886E+02  0.7816164E-02  0.1300439E+00
        -11   -1    0    0    0    0  0.00000000000E+00  0.00000000000E+00  0.45593999997E+02  0.45594000000E+02  0.51100000000E-03 0.  1.
         11   -1    0    0    0    0 -0.00000000000E+00 -0.00000000000E+00 -0.45593999997E+02  0.45594000000E+02  0.51100000000E-03 0. -1.
    9900012    2    1    2    0    0  0.26985725899E+02 -0.12239158074E+00  0.30412519818E+02  0.50528859039E+02  0.29999997536E+02 0.  0.
         12    1    1    2    0    0 -0.26985725899E+02  0.12239158074E+00 -0.30412519818E+02  0.40659140961E+02  0.00000000000E+00 0. -1.
         11    1    3    3    0    0 -0.34510590915E+01  0.69768477034E+00  0.27336440916E+01  0.44575086284E+01  0.51100000000E-03 0. -1.
        -11    1    3    3    0    0  0.28406867135E+02  0.56461207036E+01  0.26369681674E+02  0.39168723381E+02  0.51100000000E-03 0.  1.
         12    1    3    3    0    0  0.20299178553E+01 -0.64661970546E+01  0.13091940525E+01  0.69026270300E+01  0.00000000000E+00 0. -1.
</event>
<event>
 7    1  0.2966651E-011  0.5052886E+02  0.7816164E-02  0.1300439E+00
        -11   -1    0    0    0    0  0.00000000000E+00  0.00000000000E+00  0.45593999997E+02  0.45594000000E+02  0.51100000000E-03 0. -1.
         11   -1    0    0    0    0 -0.00000000000E+00 -0.00000000000E+00 -0.45593999997E+02  0.45594000000E+02  0.51100000000E-03 0.  1.
    9900012    2    1    2    0    0  0.29754470178E+01 -0.69458033680E+01 -0.39950820510E+02  0.50528861681E+02  0.30000005566E+02 0.  0.
         12    1    1    2    0    0 -0.29754470178E+01  0.69458033680E+01  0.39950820510E+02  0.40659138319E+02  0.00000000000E+00 0. -1.
         11    1    3    3    0    0 -0.21786529557E+01  0.13636704401E+01  0.18636784999E+01  0.31748107948E+01  0.51100000000E-03 0. -1.
        -11    1    3    3    0    0  0.76685573247E+01 -0.94531344603E+01 -0.42740957839E+02  0.44440499545E+02  0.51100000000E-03 0.  1.
        -12    1    3    3    0    0 -0.25144573512E+01  0.11436606521E+01  0.92645882878E+00  0.29135513415E+01  0.00000000000E+00 0.  1.
</event>
<event>
 7    1  0.2966651E-011  0.5052886E+02  0.7816164E-02  0.1300439E+00
        -11   -1    0    0    0    0  0.00000000000E+00  0.00000000000E+00  0.45593999997E+02  0.45594000000E+02  0.51100000000E-03 0. -1.
         11   -1    0    0    0    0 -0.00000000000E+00 -0.00000000000E+00 -0.45593999997E+02  0.45594000000E+02  0.51100000000E-03 0.  1.
    9900012    2    1    2    0    0 -0.31661350477E+02 -0.38535751157E+00 -0.25506400075E+02  0.50528855159E+02  0.29999985742E+02 0.  0.
         12    1    1    2    0    0  0.31661350477E+02  0.38535751157E+00  0.25506400075E+02  0.40659144841E+02  0.00000000000E+00 0. -1.
         11    1    3    3    0    0  0.34097626788E+01  0.17235718756E+01  0.22589965549E+01  0.44384960552E+01  0.51100000000E-03 0. -1.
        -11    1    3    3    0    0 -0.22872318533E+02 -0.60260690023E+01 -0.20851694910E+02  0.31531724399E+02  0.51100000000E-03 0.  1.
         12    1    3    3    0    0 -0.12198794623E+02  0.39171396152E+01 -0.69137017198E+01  0.14558634705E+02  0.00000000000E+00 0. -1.
</event>
<event>
 7    1  0.2966651E-011  0.5052886E+02  0.7816164E-02  0.1300439E+00
        -11   -1    0    0    0    0  0.00000000000E+00  0.00000000000E+00  0.45593999997E+02  0.45594000000E+02  0.51100000000E-03 0. -1.
         11   -1    0    0    0    0 -0.00000000000E+00 -0.00000000000E+00 -0.45593999997E+02  0.45594000000E+02  0.51100000000E-03 0.  1.
    9900012    2    1    2    0    0 -0.19680011580E+02  0.29647275270E+02 -0.19669824917E+02  0.50528858359E+02  0.29999995468E+02 0.  0.
         12    1    1    2    0    0  0.19680011580E+02 -0.29647275270E+02  0.19669824917E+02  0.40659141641E+02  0.00000000000E+00 0. -1.
         11    1    3    3    0    0  0.22291496143E+01  0.16157590983E+02 -0.13964085930E+02  0.21471668555E+02  0.51100000000E-03 0. -1.
        -11    1    3    3    0    0 -0.11281436579E+02  0.27510457357E+01 -0.75287253884E+01  0.13839102939E+02  0.51100000000E-03 0.  1.
         12    1    3    3    0    0 -0.10627724616E+02  0.10738638551E+02  0.18229864016E+01  0.15218086866E+02  0.00000000000E+00 0. -1.
</event>
<event>
 7    1  0.2966651E-011  0.5052890E+02  0.7816164E-02  0.1300439E+00
        -11   -1    0    0    0    0  0.00000000000E+00  0.00000000000E+00  0.45593999997E+02  0.45594000000E+02  0.51100000000E-03 0. -1.
         11   -1    0    0    0    0 -0.00000000000E+00 -0.00000000000E+00 -0.45593999997E+02  0.45594000000E+02  0.51100000000E-03 0.  1.
    9900012    2    1    2    0    0  0.24374354596E+02  0.32145632268E+02  0.50706282571E+01  0.50528903764E+02  0.30000133480E+02 0.  0.
         12    1    1    2    0    0 -0.24374354596E+02 -0.32145632268E+02 -0.50706282571E+01  0.40659096236E+02  0.00000000000E+00 0. -1.
         11    1    3    3    0    0  0.32035504149E+00 -0.47236233656E+01 -0.23647359431E+01  0.52921849358E+01  0.51100000000E-03 0. -1.
        -11    1    3    3    0    0  0.15454959109E+02  0.18622777653E+02  0.16713794336E+01  0.24258135090E+02  0.51100000000E-03 0.  1.
         12    1    3    3    0    0  0.85990404449E+01  0.18246477980E+02  0.57639847665E+01  0.20978583738E+02  0.00000000000E+00 0. -1.
</event>
<event>
 7    1  0.2966651E-011  0.5052886E+02  0.7816164E-02  0.1300439E+00
        -11   -1    0    0    0    0  0.00000000000E+00  0.00000000000E+00  0.45593999997E+02  0.45594000000E+02  0.51100000000E-03 0.  1.
         11   -1    0    0    0    0 -0.00000000000E+00 -0.00000000000E+00 -0.45593999997E+02  0.45594000000E+02  0.51100000000E-03 0. -1.
    9900012    2    1    2    0    0  0.30466929160E+01 -0.35139173088E+02  0.20226759874E+02  0.50528860339E+02  0.30000001485E+02 0.  0.
         12    1    1    2    0    0 -0.30466929160E+01  0.35139173088E+02 -0.20226759874E+02  0.40659139661E+02  0.00000000000E+00 0. -1.
         11    1    3    3    0    0 -0.57755438494E+01 -0.40217384386E+01  0.10111875656E+02  0.12319956021E+02  0.51100000000E-03 0. -1.
        -11    1    3    3    0    0  0.98983376005E+01 -0.26316279208E+02  0.13393503458E+01  0.28148134898E+02  0.51100000000E-03 0.  1.
        -12    1    3    3    0    0 -0.10761008351E+01 -0.48011554410E+01  0.87755338717E+01  0.10060769419E+02  0.00000000000E+00 0.  1.
</event>
<event>
 7    1  0.2966651E-011  0.5052886E+02  0.7816164E-02  0.1300439E+00
        -11   -1    0    0    0    0  0.00000000000E+00  0.00000000000E+00  0.45593999997E+02  0.45594000000E+02  0.51100000000E-03 0.  1.
         11   -1    0    0    0    0 -0.00000000000E+00 -0.00000000000E+00 -0.45593999997E+02  0.45594000000E+02  0.51100000000E-03 0. -1.
    9900012    2    1    2    0    0  0.49855739727E+01  0.20218130492E+02  0.34921869241E+02  0.50528859580E+02  0.29999999179E+02 0.  0.
         12    1    1    2    0    0 -0.49855739727E+01 -0.20218130492E+02 -0.34921869241E+02  0.40659140420E+02  0.00000000000E+00 0. -1.
         11    1    3    3    0    0  0.14386424572E+02  0.21856308669E+02  0.24917438653E+02  0.36132342712E+02  0.51100000000E-03 0.  1.
        -11    1    3    3    0    0 -0.60912349809E+01 -0.17114379004E+01  0.38448726802E+01  0.74037294297E+01  0.51100000000E-03 0. -1.
        -12    1    3    3    0    0 -0.33096156185E+01  0.73259723221E-01  0.61595579083E+01  0.69927874382E+01  0.00000000000E+00 0.  1.
</event>
<event>
 7    1  0.2966651E-011  0.5052879E+02  0.7816164E-02  0.1300439E+00
        -11   -1    0    0    0    0  0.00000000000E+00  0.00000000000E+00  0.45593999997E+02  0.45594000000E+02  0.51100000000E-03 0.  1.
         11   -1    0    0    0    0 -0.00000000000E+00 -0.00000000000E+00 -0.45593999997E+02  0.45594000000E+02  0.51100000000E-03 0. -1.
    9900012    2    1    2    0    0 -0.30361791039E+02  0.15190892987E+02  0.22373416136E+02  0.50528790288E+02  0.29999788558E+02 0.  0.
         12    1    1    2    0    0  0.30361791039E+02 -0.15190892987E+02 -0.22373416136E+02  0.40659209712E+02  0.00000000000E+00 0. -1.
         11    1    3    3    0    0  0.13265557175E+01  0.34084794474E+01 -0.11654843010E+00  0.36593805504E+01  0.51100000000E-03 0. -1.
        -11    1    3    3    0    0 -0.11284435312E+02 -0.70309796015E+01  0.85945410931E+01  0.15831591560E+02  0.51100000000E-03 0.  1.
        -12    1    3    3    0    0 -0.20403911445E+02  0.18813393141E+02  0.13895423473E+02  0.31037818177E+02  0.00000000000E+00 0.  1.
</event>
<event>
 7    1  0.2966651E-011  0.5052886E+02  0.7816164E-02  0.1300439E+00
        -11   -1    0    0    0    0  0.00000000000E+00  0.00000000000E+00  0.45593999997E+02  0.45594000000E+02  0.51100000000E-03 0.  1.
         11   -1    0    0    0    0 -0.00000000000E+00 -0.00000000000E+00 -0.45593999997E+02  0.45594000000E+02  0.51100000000E-03 0. -1.
    9900012    2    1    2    0    0  0.25540336572E+02 -0.22439639097E+02  0.22300663260E+02  0.50528858631E+02  0.29999996296E+02 0.  0.
         12    1    1    2    0    0 -0.25540336572E+02  0.22439639097E+02 -0.22300663260E+02  0.40659141369E+02  0.00000000000E+00 0. -1.
         11    1    3    3    0    0 -0.64476440451E+01 -0.15963099013E+01  0.24187618382E+01  0.70689976747E+01  0.51100000000E-03 0. -1.
        -11    1    3    3    0    0  0.18588155621E+02 -0.93253039140E+01  0.12826566291E+02  0.24433616711E+02  0.51100000000E-03 0.  1.
         12    1    3    3    0    0  0.13399824996E+02 -0.11518025282E+02  0.70553351302E+01  0.19026244246E+02  0.00000000000E+00 0. -1.
</event>
<event>
 7    1  0.2966651E-011  0.5052886E+02  0.7816164E-02  0.1300439E+00
        -11   -1    0    0    0    0  0.00000000000E+00  0.00000000000E+00  0.45593999997E+02  0.45594000000E+02  0.51100000000E-03 0. -1.
         11   -1    0    0    0    0 -0.00000000000E+00 -0.00000000000E+00 -0.45593999997E+02  0.45594000000E+02  0.51100000000E-03 0.  1.
    9900012    2    1    2    0    0 -0.37899295651E+01 -0.22971153776E+02 -0.33333585470E+02  0.50528863362E+02  0.30000010674E+02 0.  0.
         12    1    1    2    0    0  0.37899295651E+01  0.22971153776E+02  0.33333585470E+02  0.40659136638E+02  0.00000000000E+00 0. -1.
         11    1    3    3    0    0 -0.78287431929E+01  0.29985104268E+01 -0.13898664882E+02  0.16231240573E+02  0.51100000000E-03 0. -1.
        -11    1    3    3    0    0  0.31469654116E+01 -0.11162981122E+02 -0.14704708251E+02  0.18728160182E+02  0.51100000000E-03 0.  1.
         12    1    3    3    0    0  0.89184821626E+00 -0.14806683081E+02 -0.47302123373E+01  0.15569462606E+02  0.00000000000E+00 0. -1.
</event>
<event>
 7    1  0.2966651E-011  0.5052886E+02  0.7816164E-02  0.1300439E+00
        -11   -1    0    0    0    0  0.00000000000E+00  0.00000000000E+00  0.45593999997E+02  0.45594000000E+02  0.51100000000E-03 0. -1.
         11   -1    0    0    0    0 -0.00000000000E+00 -0.00000000000E+00 -0.45593999997E+02  0.45594000000E+02  0.51100000000E-03 0.  1.
    9900012    2    1    2    0    0  0.21785645196E+02  0.29616078742E+02 -0.17362000879E+02  0.50528861652E+02  0.30000005478E+02 0.  0.
         12    1    1    2    0    0 -0.21785645196E+02 -0.29616078742E+02  0.17362000879E+02  0.40659138348E+02  0.00000000000E+00 0. -1.
         11    1    3    3    0    0  0.71928396824E+00 -0.37508092310E+01 -0.87046907348E+01  0.95056604381E+01  0.51100000000E-03 0. -1.
        -11    1    3    3    0    0  0.12094035338E+02  0.23461016993E+02 -0.32050973505E+01  0.26588675378E+02  0.51100000000E-03 0.  1.
        -12    1    3    3    0    0  0.89723258904E+01  0.99058709798E+01 -0.54522127939E+01  0.14434525836E+02  0.00000000000E+00 0.  1.
</event>
<event>
 7    1  0.2966651E-011  0.5052886E+02  0.7816164E-02  0.1300439E+00
        -11   -1    0    0    0    0  0.00000000000E+00  0.00000000000E+00  0.45593999997E+02  0.45594000000E+02  0.51100000000E-03 0.  1.
         11   -1    0    0    0    0 -0.00000000000E+00 -0.00000000000E+00 -0.45593999997E+02  0.45594000000E+02  0.51100000000E-03 0. -1.
    9900012    2    1    2    0    0 -0.28874910316E+02 -0.47714732289E+01  0.28224775935E+02  0.50528863523E+02  0.30000011163E+02 0.  0.
         12    1    1    2    0    0  0.28874910316E+02  0.47714732289E+01 -0.28224775935E+02  0.40659136477E+02  0.00000000000E+00 0. -1.
         11    1    3    3    0    0 -0.35925219326E+00 -0.53785994899E+01  0.14049468524E+02  0.15048121500E+02  0.51100000000E-03 0. -1.
        -11    1    3    3    0    0 -0.29176985008E+02  0.64918301639E+00  0.16180043920E+02  0.33369322952E+02  0.51100000000E-03 0.  1.
         12    1    3    3    0    0  0.66132688557E+00 -0.42056755454E-01 -0.20047365093E+01  0.21114190707E+01  0.00000000000E+00 0. -1.
</event>
<event>
 7    1  0.2966651E-011  0.5052886E+02  0.7816164E-02  0.1300439E+00
        -11   -1    0    0    0    0  0.00000000000E+00  0.00000000000E+00  0.45593999997E+02  0.45594000000E+02  0.51100000000E-03 0. -1.
         11   -1    0    0    0    0 -0.00000000000E+00 -0.00000000000E+00 -0.45593999997E+02  0.45594000000E+02  0.51100000000E-03 0.  1.
    9900012    2    1    2    0    0 -0.28063951214E+02  0.29219374812E+02  0.34363341499E+01  0.50528860627E+02  0.30000002363E+02 0.  0.
         12    1    1    2    0    0  0.28063951214E+02 -0.29219374812E+02 -0.34363341499E+01  0.40659139373E+02  0.00000000000E+00 0. -1.
         11    1    3    3    0    0 -0.26919692208E+01  0.58812754190E+01 -0.99146573034E+01  0.11837927544E+02  0.51100000000E-03 0.  1.
        -11    1    3    3    0    0 -0.11071800381E+02  0.73746547476E+01  0.10746418442E+02  0.17101339302E+02  0.51100000000E-03 0. -1.
        -12    1    3    3    0    0 -0.14300181612E+02  0.15963444645E+02  0.26045730117E+01  0.21589593781E+02  0.00000000000E+00 0.  1.
</event>
<event>
 7    1  0.2966651E-011  0.5052888E+02  0.7816164E-02  0.1300439E+00
        -11   -1    0    0    0    0  0.00000000000E+00  0.00000000000E+00  0.45593999997E+02  0.45594000000E+02  0.51100000000E-03 0.  1.
         11   -1    0    0    0    0 -0.00000000000E+00 -0.00000000000E+00 -0.45593999997E+02  0.45594000000E+02  0.51100000000E-03 0. -1.
    9900012    2    1    2    0    0  0.36910733985E+02 -0.34405508464E+01  0.16701033158E+02  0.50528878244E+02  0.30000055909E+02 0.  0.
         12    1    1    2    0    0 -0.36910733985E+02  0.34405508464E+01 -0.16701033158E+02  0.40659121756E+02  0.00000000000E+00 0. -1.
         11    1    3    3    0    0  0.32392172002E+02 -0.51784632454E+01  0.10203966587E+02  0.34353896766E+02  0.51100000000E-03 0. -1.
        -11    1    3    3    0    0  0.24464451305E+01 -0.35002413513E+01  0.90373958401E+01  0.99955643726E+01  0.51100000000E-03 0.  1.
         12    1    3    3    0    0  0.20721168523E+01  0.52381537503E+01 -0.25403292697E+01  0.61794171052E+01  0.00000000000E+00 0. -1.
</event>
<event>
 7    1  0.2966651E-011  0.5052886E+02  0.7816164E-02  0.1300439E+00
        -11   -1    0    0    0    0  0.00000000000E+00  0.00000000000E+00  0.45593999997E+02  0.45594000000E+02  0.51100000000E-03 0.  1.
         11   -1    0    0    0    0 -0.00000000000E+00 -0.00000000000E+00 -0.45593999997E+02  0.45594000000E+02  0.51100000000E-03 0. -1.
    9900012    2    1    2    0    0 -0.68074785523E+01  0.40002317001E+02 -0.25765776498E+01  0.50528857337E+02  0.29999992363E+02 0.  0.
         12    1    1    2    0    0  0.68074785523E+01 -0.40002317001E+02  0.25765776498E+01  0.40659142663E+02  0.00000000000E+00 0. -1.
         11    1    3    3    0    0 -0.67305936918E+01  0.75610385990E+01  0.62075931956E+01  0.11874527767E+02  0.51100000000E-03 0. -1.
        -11    1    3    3    0    0  0.25886167968E+01  0.32752760381E+02 -0.39054259611E+01  0.33086199566E+02  0.51100000000E-03 0.  1.
         12    1    3    3    0    0 -0.26655016573E+01 -0.31148197911E+00 -0.48787448843E+01  0.55681300052E+01  0.00000000000E+00 0. -1.
</event>
<event>
 7    1  0.2966651E-011  0.5052890E+02  0.7816164E-02  0.1300439E+00
        -11   -1    0    0    0    0  0.00000000000E+00  0.00000000000E+00  0.45593999997E+02  0.45594000000E+02  0.51100000000E-03 0.  1.
         11   -1    0    0    0    0 -0.00000000000E+00 -0.00000000000E+00 -0.45593999997E+02  0.45594000000E+02  0.51100000000E-03 0. -1.
    9900012    2    1    2    0    0 -0.37431931651E+02 -0.14992371999E+02  0.52193569203E+01  0.50528900010E+02  0.30000122071E+02 0.  0.
         12    1    1    2    0    0  0.37431931651E+02  0.14992371999E+02 -0.52193569203E+01  0.40659099990E+02  0.00000000000E+00 0. -1.
         11    1    3    3    0    0 -0.80755952710E+01  0.70151361618E+01  0.84582321928E+01  0.13637047570E+02  0.51100000000E-03 0. -1.
        -11    1    3    3    0    0 -0.27587272308E+02 -0.20266860185E+02 -0.34280504284E+01  0.34402830482E+02  0.51100000000E-03 0.  1.
         12    1    3    3    0    0 -0.17690640720E+01 -0.17406479761E+01  0.18917515596E+00  0.24890219579E+01  0.00000000000E+00 0. -1.
</event>
<event>
 7    1  0.2966651E-011  0.5052887E+02  0.7816164E-02  0.1300439E+00
        -11   -1    0    0    0    0  0.00000000000E+00  0.00000000000E+00  0.45593999997E+02  0.45594000000E+02  0.51100000000E-03 0. -1.
         11   -1    0    0    0    0 -0.00000000000E+00 -0.00000000000E+00 -0.45593999997E+02  0.45594000000E+02  0.51100000000E-03 0.  1.
    9900012    2    1    2    0    0  0.38200591580E+02 -0.13467012551E+02 -0.35382827858E+01  0.50528867334E+02  0.30000022747E+02 0.  0.
         12    1    1    2    0    0 -0.38200591580E+02  0.13467012551E+02  0.35382827858E+01  0.40659132666E+02  0.00000000000E+00 0. -1.
         11    1    3    3    0    0  0.37813014925E+01 -0.63547033636E+01 -0.42643322060E+01  0.85361012904E+01  0.51100000000E-03 0. -1.
        -11    1    3    3    0    0  0.25001748831E+02  0.42558224592E+01  0.64350349788E+01  0.26165036687E+02  0.51100000000E-03 0.  1.
        -12    1    3    3    0    0  0.94175412567E+01 -0.11368131647E+02 -0.57089855586E+01  0.15827729356E+02  0.00000000000E+00 0.  1.
</event>
<event>
 7    1  0.2966651E-011  0.5052886E+02  0.7816164E-02  0.1300439E+00
        -11   -1    0    0    0    0  0.00000000000E+00  0.00000000000E+00  0.45593999997E+02  0.45594000000E+02  0.51100000000E-03 0. -1.
         11   -1    0    0    0    0 -0.00000000000E+00 -0.00000000000E+00 -0.45593999997E+02  0.45594000000E+02  0.51100000000E-03 0.  1.
    9900012    2    1    2    0    0  0.40279249961E+02 -0.32029859414E+01  0.45264689629E+01  0.50528855670E+02  0.29999987295E+02 0.  0.
         12    1    1    2    0    0 -0.40279249961E+02  0.32029859414E+01 -0.45264689629E+01  0.40659144330E+02  0.00000000000E+00 0. -1.
         11    1    3    3    0    0  0.32529249419E+02 -0.95774929963E+01  0.25178665307E+01  0.34003236493E+02  0.51100000000E-03 0. -1.
        -11    1    3    3    0    0  0.24866254042E+01  0.18294311790E+01 -0.54901681809E+01  0.62985769230E+01  0.51100000000E-03 0.  1.
         12    1    3    3    0    0  0.52633751377E+01  0.45450758759E+01  0.74987706131E+01  0.10227042254E+02  0.00000000000E+00 0. -1.
</event>
<event>
 7    1  0.2966651E-011  0.5052886E+02  0.7816164E-02  0.1300439E+00
        -11   -1    0    0    0    0  0.00000000000E+00  0.00000000000E+00  0.45593999997E+02  0.45594000000E+02  0.51100000000E-03 0.  1.
         11   -1    0    0    0    0 -0.00000000000E+00 -0.00000000000E+00 -0.45593999997E+02  0.45594000000E+02  0.51100000000E-03 0. -1.
    9900012    2    1    2    0    0  0.15259137991E+02  0.64918158855E+01  0.37123857344E+02  0.50528858963E+02  0.29999997305E+02 0.  0.
         12    1    1    2    0    0 -0.15259137991E+02 -0.64918158855E+01 -0.37123857344E+02  0.40659141037E+02  0.00000000000E+00 0. -1.
         11    1    3    3    0    0 -0.59903285794E+01 -0.15784055882E+01  0.39102368767E+00  0.62071169213E+01  0.51100000000E-03 0. -1.
        -11    1    3    3    0    0  0.56463168046E+01  0.64054063339E+01  0.17718610413E+02  0.19668738622E+02  0.51100000000E-03 0.  1.
         12    1    3    3    0    0  0.15603149766E+02  0.16648151398E+01  0.19014223244E+02  0.24653003420E+02  0.00000000000E+00 0. -1.
</event>
<event>
 7    1  0.2966651E-011  0.5052886E+02  0.7816164E-02  0.1300439E+00
        -11   -1    0    0    0    0  0.00000000000E+00  0.00000000000E+00  0.45593999997E+02  0.45594000000E+02  0.51100000000E-03 0.  1.
         11   -1    0    0    0    0 -0.00000000000E+00 -0.00000000000E+00 -0.45593999997E+02  0.45594000000E+02  0.51100000000E-03 0. -1.
    9900012    2    1    2    0    0 -0.11622106563E+02 -0.33285690101E+02  0.20252284472E+02  0.50528861387E+02  0.30000004671E+02 0.  0.
         12    1    1    2    0    0  0.11622106563E+02  0.33285690101E+02 -0.20252284472E+02  0.40659138613E+02  0.00000000000E+00 0. -1.
         11    1    3    3    0    0 -0.74820997997E+01 -0.70010759594E+00  0.88017908155E+01  0.11573395780E+02  0.51100000000E-03 0. -1.
        -11    1    3    3    0    0 -0.59262780864E+01 -0.21885671433E+02 -0.67728398395E+00  0.22683961292E+02  0.51100000000E-03 0.  1.
        -12    1    3    3    0    0  0.17862713234E+01 -0.10699911072E+02  0.12127777640E+02  0.16271504315E+02  0.00000000000E+00 0.  1.
</event>
<event>
 7    1  0.2966651E-011  0.5052886E+02  0.7816164E-02  0.1300439E+00
        -11   -1    0    0    0    0  0.00000000000E+00  0.00000000000E+00  0.45593999997E+02  0.45594000000E+02  0.51100000000E-03 0.  1.
         11   -1    0    0    0    0 -0.00000000000E+00 -0.00000000000E+00 -0.45593999997E+02  0.45594000000E+02  0.51100000000E-03 0. -1.
    9900012    2    1    2    0    0  0.12443866268E+02 -0.43066489006E+01  0.38467759639E+02  0.50528861248E+02  0.30000004248E+02 0.  0.
         12    1    1    2    0    0 -0.12443866268E+02  0.43066489006E+01 -0.38467759639E+02  0.40659138752E+02  0.00000000000E+00 0. -1.
         11    1    3    3    0    0  0.86007064711E+01 -0.98241963098E+01  0.39718194406E+01  0.13647795971E+02  0.51100000000E-03 0. -1.
        -11    1    3    3    0    0  0.46602385486E+01  0.47612292526E+01  0.82171075012E+01  0.10578656969E+02  0.51100000000E-03 0.  1.
         12    1    3    3    0    0 -0.81707875143E+00  0.75631815661E+00  0.26278832697E+02  0.26302408307E+02  0.00000000000E+00 0. -1.
</event>
<event>
 7    1  0.2966651E-011  0.5052885E+02  0.7816164E-02  0.1300439E+00
        -11   -1    0    0    0    0  0.00000000000E+00  0.00000000000E+00  0.45593999997E+02  0.45594000000E+02  0.51100000000E-03 0.  1.
         11   -1    0    0    0    0 -0.00000000000E+00 -0.00000000000E+00 -0.45593999997E+02  0.45594000000E+02  0.51100000000E-03 0. -1.
    9900012    2    1    2    0    0  0.37158131199E+02 -0.45390492895E+01  0.15869363040E+02  0.50528851387E+02  0.29999974275E+02 0.  0.
         12    1    1    2    0    0 -0.37158131199E+02  0.45390492895E+01 -0.15869363040E+02  0.40659148613E+02  0.00000000000E+00 0. -1.
         11    1    3    3    0    0  0.43531546310E+01 -0.13043023161E+02  0.50082022858E+01  0.14633950213E+02  0.51100000000E-03 0. -1.
        -11    1    3    3    0    0  0.20027733198E+02  0.61467351357E+01  0.88708335278E+01  0.22750475547E+02  0.51100000000E-03 0.  1.
         12    1    3    3    0    0  0.12777243370E+02  0.23572387362E+01  0.19903272260E+01  0.13144425627E+02  0.00000000000E+00 0. -1.
</event>
<event>
 7    1  0.2966651E-011  0.5052891E+02  0.7816164E-02  0.1300439E+00
        -11   -1    0    0    0    0  0.00000000000E+00  0.00000000000E+00  0.45593999997E+02  0.45594000000E+02  0.51100000000E-03 0.  1.
         11   -1    0    0    0    0 -0.00000000000E+00 -0.00000000000E+00 -0.45593999997E+02  0.45594000000E+02  0.51100000000E-03 0. -1.
    9900012    2    1    2    0    0 -0.29902507972E+02  0.11931898002E+02  0.24832056409E+02  0.50528914934E+02  0.30000167432E+02 0.  0.
         12    1    1    2    0    0  0.29902507972E+02 -0.11931898002E+02 -0.24832056409E+02  0.40659085066E+02  0.00000000000E+00 0. -1.
         11    1    3    3    0    0 -0.27495145135E+02  0.15027569840E+02  0.19784926911E+02  0.37057444521E+02  0.51100000000E-03 0.  1.
        -11    1    3    3    0    0  0.19143607754E+01 -0.64646437014E+01  0.41549638107E+01  0.79196035187E+01  0.51100000000E-03 0. -1.
         12    1    3    3    0    0 -0.43217236119E+01  0.33689718639E+01  0.89216568742E+00  0.55518668942E+01  0.00000000000E+00 0. -1.
</event>
<event>
 7    1  0.2966651E-011  0.5052884E+02  0.7816164E-02  0.1300439E+00
        -11   -1    0    0    0    0  0.00000000000E+00  0.00000000000E+00  0.45593999997E+02  0.45594000000E+02  0.51100000000E-03 0.  1.
         11   -1    0    0    0    0 -0.00000000000E+00 -0.00000000000E+00 -0.45593999997E+02  0.45594000000E+02  0.51100000000E-03 0. -1.
    9900012    2    1    2    0    0  0.21093263232E+02  0.19808327151E+02  0.28563463417E+02  0.50528843336E+02  0.29999949803E+02 0.  0.
         12    1    1    2    0    0 -0.21093263232E+02 -0.19808327151E+02 -0.28563463417E+02  0.40659156664E+02  0.00000000000E+00 0. -1.
         11    1    3    3    0    0  0.56060466055E+01  0.90196390929E+01 -0.13993057023E+01  0.10711662085E+02  0.51100000000E-03 0. -1.
        -11    1    3    3    0    0  0.56456243389E+01  0.80629280868E+01  0.27645497161E+02  0.29345483418E+02  0.51100000000E-03 0.  1.
        -12    1    3    3    0    0  0.98415922876E+01  0.27257599713E+01  0.23172719583E+01  0.10471697833E+02  0.00000000000E+00 0.  1.
</event>
<event>
 7    1  0.2966651E-011  0.5052883E+02  0.7816164E-02  0.1300439E+00
        -11   -1    0    0    0    0  0.00000000000E+00  0.00000000000E+00  0.45593999997E+02  0.45594000000E+02  0.51100000000E-03 0.  1.
         11   -1    0    0    0    0 -0.00000000000E+00 -0.00000000000E+00 -0.45593999997E+02  0.45594000000E+02  0.51100000000E-03 0. -1.
    9900012    2    1    2    0    0  0.19496092642E+02 -0.30485182971E+02  0.18539789551E+02  0.50528833682E+02  0.29999920459E+02 0.  0.
         12    1    1    2    0    0 -0.19496092642E+02  0.30485182971E+02 -0.18539789551E+02  0.40659166318E+02  0.00000000000E+00 0. -1.
         11    1    3    3    0    0 -0.33042983028E+01 -0.93099699979E+01  0.27437841369E+01  0.10252915697E+02  0.51100000000E-03 0.  1.
        -11    1    3    3    0    0  0.26074300449E+02 -0.17677295662E+02  0.10670335864E+02  0.33259765387E+02  0.51100000000E-03 0. -1.
         12    1    3    3    0    0 -0.32739095042E+01 -0.34979173108E+01  0.51256695492E+01  0.70161525983E+01  0.00000000000E+00 0. -1.
</event>
<event>
 7    1  0.2966651E-011  0.5052885E+02  0.7816164E-02  0.1300439E+00
        -11   -1    0    0    0    0  0.00000000000E+00  0.00000000000E+00  0.45593999997E+02  0.45594000000E+02  0.51100000000E-03 0. -1.
         11   -1    0    0    0    0 -0.00000000000E+00 -0.00000000000E+00 -0.45593999997E+02  0.45594000000E+02  0.51100000000E-03 0.  1.
    9900012    2    1    2    0    0 -0.27425800933E+02 -0.28583624481E+02  0.91634064925E+01  0.50528853872E+02  0.29999981829E+02 0.  0.
         12    1    1    2    0    0  0.27425800933E+02  0.28583624481E+02 -0.91634064925E+01  0.40659146128E+02  0.00000000000E+00 0. -1.
         11    1    3    3    0    0 -0.26991152261E+02 -0.23220044174E+02  0.10658196126E+02  0.37165708614E+02  0.51100000000E-03 0.  1.
        -11    1    3    3    0    0  0.42832926697E+01  0.86556114782E+00 -0.31357464177E+01  0.53785405132E+01  0.51100000000E-03 0. -1.
         12    1    3    3    0    0 -0.47179413413E+01 -0.62291414550E+01  0.16409567842E+01  0.79846047450E+01  0.00000000000E+00 0. -1.
</event>
<event>
 7    1  0.2966651E-011  0.5052886E+02  0.7816164E-02  0.1300439E+00
        -11   -1    0    0    0    0  0.00000000000E+00  0.00000000000E+00  0.45593999997E+02  0.45594000000E+02  0.51100000000E-03 0.  1.
         11   -1    0    0    0    0 -0.00000000000E+00 -0.00000000000E+00 -0.45593999997E+02  0.45594000000E+02  0.51100000000E-03 0. -1.
    9900012    2    1    2    0    0 -0.27040645722E+02 -0.25932838389E+02  0.15794204376E+02  0.50528861792E+02  0.30000005902E+02 0.  0.
         12    1    1    2    0    0  0.27040645722E+02  0.25932838389E+02 -0.15794204376E+02  0.40659138208E+02  0.00000000000E+00 0. -1.
         11    1    3    3    0    0 -0.92007849084E+01 -0.12650116105E+02 -0.31774913096E+01  0.15961714560E+02  0.51100000000E-03 0. -1.
        -11    1    3    3    0    0 -0.17420821819E+02 -0.13998896519E+02  0.22040288218E+02  0.31388348819E+02  0.51100000000E-03 0.  1.
        -12    1    3    3    0    0 -0.41903899515E+00  0.71617423561E+00 -0.30685925327E+01  0.31787984124E+01  0.00000000000E+00 0.  1.
</event>
<event>
 7    1  0.2966651E-011  0.5052886E+02  0.7816164E-02  0.1300439E+00
        -11   -1    0    0    0    0  0.00000000000E+00  0.00000000000E+00  0.45593999997E+02  0.45594000000E+02  0.51100000000E-03 0.  1.
         11   -1    0    0    0    0 -0.00000000000E+00 -0.00000000000E+00 -0.45593999997E+02  0.45594000000E+02  0.51100000000E-03 0. -1.
    9900012    2    1    2    0    0  0.55909771179E+01 -0.20637577620E+02  0.34583188670E+02  0.50528861129E+02  0.30000003887E+02 0.  0.
         12    1    1    2    0    0 -0.55909771179E+01  0.20637577620E+02 -0.34583188670E+02  0.40659138871E+02  0.00000000000E+00 0. -1.
         11    1    3    3    0    0  0.14155416325E+02 -0.17528280386E+02  0.18973661604E+02  0.29455326506E+02  0.51100000000E-03 0.  1.
        -11    1    3    3    0    0 -0.81590485762E+01 -0.23009615350E+01  0.39038525684E+01  0.93329825239E+01  0.51100000000E-03 0. -1.
        -12    1    3    3    0    0 -0.40539063061E+00 -0.80833569940E+00  0.11705674497E+02  0.11740552099E+02  0.00000000000E+00 0.  1.
</event>
<event>
 7    1  0.2966651E-011  0.5052883E+02  0.7816164E-02  0.1300439E+00
        -11   -1    0    0    0    0  0.00000000000E+00  0.00000000000E+00  0.45593999997E+02  0.45594000000E+02  0.51100000000E-03 0.  1.
         11   -1    0    0    0    0 -0.00000000000E+00 -0.00000000000E+00 -0.45593999997E+02  0.45594000000E+02  0.51100000000E-03 0. -1.
    9900012    2    1    2    0    0  0.27687454643E+02  0.11153651870E+02  0.27607406506E+02  0.50528831432E+02  0.29999913621E+02 0.  0.
         12    1    1    2    0    0 -0.27687454643E+02 -0.11153651870E+02 -0.27607406506E+02  0.40659168568E+02  0.00000000000E+00 0. -1.
         11    1    3    3    0    0 -0.33586217944E+00 -0.43993125484E+00  0.39579759817E+00  0.68044023426E+00  0.51100000000E-03 0. -1.
        -11    1    3    3    0    0  0.32307093857E+02  0.37732443045E+01  0.18687808673E+02  0.37512929495E+02  0.51100000000E-03 0.  1.
        -12    1    3    3    0    0 -0.42837770350E+01  0.78203388206E+01  0.85238002354E+01  0.12335461702E+02  0.00000000000E+00 0.  1.
</event>
<event>
 7    1  0.2966651E-011  0.5052886E+02  0.7816164E-02  0.1300439E+00
        -11   -1    0    0    0    0  0.00000000000E+00  0.00000000000E+00  0.45593999997E+02  0.45594000000E+02  0.51100000000E-03 0.  1.
         11   -1    0    0    0    0 -0.00000000000E+00 -0.00000000000E+00 -0.45593999997E+02  0.45594000000E+02  0.51100000000E-03 0. -1.
    9900012    2    1    2    0    0  0.38953313139E+02  0.30273694582E+01  0.11253446544E+02  0.50528860444E+02  0.30000001804E+02 0.  0.
         12    1    1    2    0    0 -0.38953313139E+02 -0.30273694582E+01 -0.11253446544E+02  0.40659139556E+02  0.00000000000E+00 0. -1.
         11    1    3    3    0    0  0.35120908386E+01  0.35578105874E+01  0.12786530967E+02  0.13729099485E+02  0.51100000000E-03 0. -1.
        -11    1    3    3    0    0  0.10136974561E+02 -0.52557013823E-01 -0.49154304579E+01  0.11265987411E+02  0.51100000000E-03 0.  1.
         12    1    3    3    0    0  0.25304247739E+02 -0.47788411545E+00  0.33823460345E+01  0.25533773548E+02  0.00000000000E+00 0. -1.
</event>
<event>
 7    1  0.2966651E-011  0.5052888E+02  0.7816164E-02  0.1300439E+00
        -11   -1    0    0    0    0  0.00000000000E+00  0.00000000000E+00  0.45593999997E+02  0.45594000000E+02  0.51100000000E-03 0. -1.
         11   -1    0    0    0    0 -0.00000000000E+00 -0.00000000000E+00 -0.45593999997E+02  0.45594000000E+02  0.51100000000E-03 0.  1.
    9900012    2    1    2    0    0  0.32376844555E+02 -0.21280787338E+02 -0.12330142468E+02  0.50528875730E+02  0.30000048270E+02 0.  0.
         12    1    1    2    0    0 -0.32376844555E+02  0.21280787338E+02  0.12330142468E+02  0.40659124270E+02  0.00000000000E+00 0. -1.
         11    1    3    3    0    0  0.18791134873E+01 -0.82790597621E+01 -0.11222571409E+02  0.14071958191E+02  0.51100000000E-03 0. -1.
        -11    1    3    3    0    0  0.30198331527E+02 -0.96172587407E+01 -0.40650181779E+01  0.31952390611E+02  0.51100000000E-03 0.  1.
        -12    1    3    3    0    0  0.29939954075E+00 -0.33844688353E+01  0.29574471191E+01  0.45045269279E+01  0.00000000000E+00 0.  1.
</event>
<event>
 7    1  0.2966651E-011  0.5052886E+02  0.7816164E-02  0.1300439E+00
        -11   -1    0    0    0    0  0.00000000000E+00  0.00000000000E+00  0.45593999997E+02  0.45594000000E+02  0.51100000000E-03 0.  1.
         11   -1    0    0    0    0 -0.00000000000E+00 -0.00000000000E+00 -0.45593999997E+02  0.45594000000E+02  0.51100000000E-03 0. -1.
    9900012    2    1    2    0    0  0.11173656069E+02  0.91981261121E+01  0.37996174169E+02  0.50528863691E+02  0.30000011674E+02 0.  0.
         12    1    1    2    0    0 -0.11173656069E+02 -0.91981261121E+01 -0.37996174169E+02  0.40659136309E+02  0.00000000000E+00 0. -1.
         11    1    3    3    0    0 -0.50899169377E+01 -0.11266122437E+01 -0.59153716738E+00  0.52465632620E+01  0.51100000000E-03 0. -1.
        -11    1    3    3    0    0  0.92957829024E+01  0.11318150505E+02  0.33607458252E+02  0.36660242239E+02  0.51100000000E-03 0.  1.
         12    1    3    3    0    0  0.69677901044E+01 -0.99341214923E+00  0.49802530848E+01  0.86220581897E+01  0.00000000000E+00 0. -1.
</event>
<event>
 7    1  0.2966651E-011  0.5052886E+02  0.7816164E-02  0.1300439E+00
        -11   -1    0    0    0    0  0.00000000000E+00  0.00000000000E+00  0.45593999997E+02  0.45594000000E+02  0.51100000000E-03 0. -1.
         11   -1    0    0    0    0 -0.00000000000E+00 -0.00000000000E+00 -0.45593999997E+02  0.45594000000E+02  0.51100000000E-03 0.  1.
    9900012    2    1    2    0    0  0.31714236747E+02 -0.22940806791E+02  0.11004185270E+02  0.50528861763E+02  0.30000005815E+02 0.  0.
         12    1    1    2    0    0 -0.31714236747E+02  0.22940806791E+02 -0.11004185270E+02  0.40659138237E+02  0.00000000000E+00 0. -1.
         11    1    3    3    0    0 -0.24408114437E+01 -0.60241775609E+01  0.96512628185E+01  0.11635942164E+02  0.51100000000E-03 0. -1.
        -11    1    3    3    0    0  0.32266665341E+02 -0.13908483780E+02  0.23160774166E+01  0.35212892925E+02  0.51100000000E-03 0.  1.
         12    1    3    3    0    0  0.18883828500E+01 -0.30081454503E+01 -0.96315496461E+00  0.36800266744E+01  0.00000000000E+00 0. -1.
</event>
<event>
 7    1  0.2966651E-011  0.5052880E+02  0.7816164E-02  0.1300439E+00
        -11   -1    0    0    0    0  0.00000000000E+00  0.00000000000E+00  0.45593999997E+02  0.45594000000E+02  0.51100000000E-03 0. -1.
         11   -1    0    0    0    0 -0.00000000000E+00 -0.00000000000E+00 -0.45593999997E+02  0.45594000000E+02  0.51100000000E-03 0.  1.
    9900012    2    1    2    0    0  0.33609449637E+02  0.22004887813E+02  0.62738049120E+01  0.50528796605E+02  0.29999807761E+02 0.  0.
         12    1    1    2    0    0 -0.33609449637E+02 -0.22004887813E+02 -0.62738049120E+01  0.40659203395E+02  0.00000000000E+00 0. -1.
         11    1    3    3    0    0 -0.11261511823E+01  0.98521461987E+01 -0.30688462635E+01  0.10380309189E+02  0.51100000000E-03 0. -1.
        -11    1    3    3    0    0  0.26031902538E+02  0.46451372245E+01  0.10797264618E+02  0.28562530929E+02  0.51100000000E-03 0.  1.
        -12    1    3    3    0    0  0.87036982820E+01  0.75076043903E+01 -0.14546134430E+01  0.11585956488E+02  0.00000000000E+00 0.  1.
</event>
<event>
 7    1  0.2966651E-011  0.5052886E+02  0.7816164E-02  0.1300439E+00
        -11   -1    0    0    0    0  0.00000000000E+00  0.00000000000E+00  0.45593999997E+02  0.45594000000E+02  0.51100000000E-03 0. -1.
         11   -1    0    0    0    0 -0.00000000000E+00 -0.00000000000E+00 -0.45593999997E+02  0.45594000000E+02  0.51100000000E-03 0.  1.
    9900012    2    1    2    0    0  0.13582846960E+02 -0.17755330214E+02 -0.33962040621E+02  0.50528859753E+02  0.29999999704E+02 0.  0.
         12    1    1    2    0    0 -0.13582846960E+02  0.17755330214E+02  0.33962040621E+02  0.40659140247E+02  0.00000000000E+00 0. -1.
         11    1    3    3    0    0 -0.67303122033E+01  0.15783308189E+01 -0.11417222775E+01  0.70065512592E+01  0.51100000000E-03 0. -1.
        -11    1    3    3    0    0  0.18873958825E+02 -0.15611141023E+02 -0.26879721648E+02  0.36365553508E+02  0.51100000000E-03 0.  1.
        -12    1    3    3    0    0  0.14392003380E+01 -0.37225200098E+01 -0.59405966947E+01  0.71567549857E+01  0.00000000000E+00 0.  1.
</event>
<event>
 7    1  0.2966651E-011  0.5052883E+02  0.7816164E-02  0.1300439E+00
        -11   -1    0    0    0    0  0.00000000000E+00  0.00000000000E+00  0.45593999997E+02  0.45594000000E+02  0.51100000000E-03 0.  1.
         11   -1    0    0    0    0 -0.00000000000E+00 -0.00000000000E+00 -0.45593999997E+02  0.45594000000E+02  0.51100000000E-03 0. -1.
    9900012    2    1    2    0    0 -0.12669858947E+02 -0.14772470169E+00  0.38634454493E+02  0.50528828559E+02  0.29999904888E+02 0.  0.
         12    1    1    2    0    0  0.12669858947E+02  0.14772470169E+00 -0.38634454493E+02  0.40659171441E+02  0.00000000000E+00 0. -1.
         11    1    3    3    0    0 -0.13420408169E+02  0.53165799119E+01  0.27325020166E+02  0.30903561360E+02  0.51100000000E-03 0.  1.
        -11    1    3    3    0    0  0.75614481866E+01 -0.14617450980E+01  0.78629267014E+01  0.11006262489E+02  0.51100000000E-03 0. -1.
         12    1    3    3    0    0 -0.68108989646E+01 -0.40025595156E+01  0.34465076253E+01  0.86190047101E+01  0.00000000000E+00 0. -1.
</event>
<event>
 7    1  0.2966651E-011  0.5052886E+02  0.7816164E-02  0.1300439E+00
        -11   -1    0    0    0    0  0.00000000000E+00  0.00000000000E+00  0.45593999997E+02  0.45594000000E+02  0.51100000000E-03 0. -1.
         11   -1    0    0    0    0 -0.00000000000E+00 -0.00000000000E+00 -0.45593999997E+02  0.45594000000E+02  0.51100000000E-03 0.  1.
    9900012    2    1    2    0    0 -0.16056172488E+01 -0.37056138818E+02 -0.16656246657E+02  0.50528856089E+02  0.29999988568E+02 0.  0.
         12    1    1    2    0    0  0.16056172488E+01  0.37056138818E+02  0.16656246657E+02  0.40659143911E+02  0.00000000000E+00 0. -1.
         11    1    3    3    0    0 -0.63786061705E+01 -0.37780142118E+01  0.10284819265E-02  0.74135018299E+01  0.51100000000E-03 0. -1.
        -11    1    3    3    0    0  0.10988128188E+02 -0.86611534649E+01 -0.88391226015E+01  0.16549460083E+02  0.51100000000E-03 0.  1.
        -12    1    3    3    0    0 -0.62151392658E+01 -0.24616971142E+02 -0.78181525376E+01  0.26565894176E+02  0.00000000000E+00 0.  1.
</event>
<event>
 7    1  0.2966651E-011  0.5052888E+02  0.7816164E-02  0.1300439E+00
        -11   -1    0    0    0    0  0.00000000000E+00  0.00000000000E+00  0.45593999997E+02  0.45594000000E+02  0.51100000000E-03 0.  1.
         11   -1    0    0    0    0 -0.00000000000E+00 -0.00000000000E+00 -0.45593999997E+02  0.45594000000E+02  0.51100000000E-03 0. -1.
    9900012    2    1    2    0    0 -0.17837971384E+02 -0.21303998569E+02 -0.29683506556E+02  0.50528878765E+02  0.30000057494E+02 0.  0.
         12    1    1    2    0    0  0.17837971384E+02  0.21303998569E+02  0.29683506556E+02  0.40659121235E+02  0.00000000000E+00 0. -1.
         11    1    3    3    0    0  0.53962923136E+01 -0.16017681831E+02 -0.11135059530E+02  0.20240445967E+02  0.51100000000E-03 0. -1.
        -11    1    3    3    0    0 -0.19181590492E+01 -0.10557177462E+01 -0.20979115412E+01  0.30323435151E+01  0.51100000000E-03 0.  1.
         12    1    3    3    0    0 -0.21316104649E+02 -0.42305989921E+01 -0.16450535485E+02  0.27256089283E+02  0.00000000000E+00 0. -1.
</event>
<event>
 7    1  0.2966651E-011  0.5052886E+02  0.7816164E-02  0.1300439E+00
        -11   -1    0    0    0    0  0.00000000000E+00  0.00000000000E+00  0.45593999997E+02  0.45594000000E+02  0.51100000000E-03 0. -1.
         11   -1    0    0    0    0 -0.00000000000E+00 -0.00000000000E+00 -0.45593999997E+02  0.45594000000E+02  0.51100000000E-03 0.  1.
    9900012    2    1    2    0    0 -0.36726625027E+02  0.77306888099E+01 -0.15638324771E+02  0.50528859121E+02  0.29999997786E+02 0.  0.
         12    1    1    2    0    0  0.36726625027E+02 -0.77306888099E+01  0.15638324771E+02  0.40659140879E+02  0.00000000000E+00 0. -1.
         11    1    3    3    0    0  0.19549702798E+01  0.79796644129E+01  0.84151965642E+00  0.82586384187E+01  0.51100000000E-03 0. -1.
        -11    1    3    3    0    0 -0.15888735903E+02  0.19999713658E+01 -0.71966150408E+01  0.17556852860E+02  0.51100000000E-03 0.  1.
         12    1    3    3    0    0 -0.22792859404E+02 -0.22489469689E+01 -0.92832293865E+01  0.24713367843E+02  0.00000000000E+00 0. -1.
</event>
<event>
 7    1  0.4516789E-011  0.5052884E+02  0.7816164E-02  0.1300439E+00
        -11   -1    0    0    0    0  0.00000000000E+00  0.00000000000E+00  0.45593999997E+02  0.45594000000E+02  0.51100000000E-03 0.  1.
         11   -1    0    0    0    0 -0.00000000000E+00 -0.00000000000E+00 -0.45593999997E+02  0.45594000000E+02  0.51100000000E-03 0. -1.
    9900012    2    1    2    0    0 -0.15266772083E+02 -0.35877853386E+02  0.11527029924E+02  0.50528842209E+02  0.29999946378E+02 0.  0.
         12    1    1    2    0    0  0.15266772083E+02  0.35877853386E+02 -0.11527029924E+02  0.40659157791E+02  0.00000000000E+00 0. -1.
         11    1    3    3    0    0 -0.49293556799E+01 -0.11529782496E+01 -0.19069863385E+01  0.54096675886E+01  0.51100000000E-03 0. -1.
        -11    1    3    3    0    0 -0.45986207726E+01 -0.31295423140E+02  0.17772785595E+01  0.31681375315E+02  0.51100000000E-03 0.  1.
        -12    1    3    3    0    0 -0.57387956310E+01 -0.34294519959E+01  0.11656737703E+02  0.13437799305E+02  0.00000000000E+00 0.  1.
</event>
<event>
 7    1  0.2966651E-011  0.5052887E+02  0.7816164E-02  0.1300439E+00
        -11   -1    0    0    0    0  0.00000000000E+00  0.00000000000E+00  0.45593999997E+02  0.45594000000E+02  0.51100000000E-03 0.  1.
         11   -1    0    0    0    0 -0.00000000000E+00 -0.00000000000E+00 -0.45593999997E+02  0.45594000000E+02  0.51100000000E-03 0. -1.
    9900012    2    1    2    0    0 -0.31759258252E+02  0.36366033171E+01  0.25125477896E+02  0.50528868088E+02  0.30000025039E+02 0.  0.
         12    1    1    2    0    0  0.31759258252E+02 -0.36366033171E+01 -0.25125477896E+02  0.40659131912E+02  0.00000000000E+00 0. -1.
         11    1    3    3    0    0 -0.72781970677E+01 -0.61277488750E+01  0.10907355564E+01  0.95765945485E+01  0.51100000000E-03 0. -1.
        -11    1    3    3    0    0 -0.87267872925E+01  0.11844008251E+02  0.37463122642E+01  0.15181311002E+02  0.51100000000E-03 0.  1.
        -12    1    3    3    0    0 -0.15754273891E+02 -0.20796560586E+01  0.20288430075E+02  0.25770962537E+02  0.00000000000E+00 0.  1.
</event>
<event>
 7    1  0.2966651E-011  0.5052886E+02  0.7816164E-02  0.1300439E+00
        -11   -1    0    0    0    0  0.00000000000E+00  0.00000000000E+00  0.45593999997E+02  0.45594000000E+02  0.51100000000E-03 0.  1.
         11   -1    0    0    0    0 -0.00000000000E+00 -0.00000000000E+00 -0.45593999997E+02  0.45594000000E+02  0.51100000000E-03 0. -1.
    9900012    2    1    2    0    0 -0.95855297538E+01 -0.10605090604E+02  0.38063306413E+02  0.50528860530E+02  0.30000002067E+02 0.  0.
         12    1    1    2    0    0  0.95855297538E+01  0.10605090604E+02 -0.38063306413E+02  0.40659139470E+02  0.00000000000E+00 0. -1.
         11    1    3    3    0    0 -0.17630911552E+01  0.11687557026E+01 -0.16821645755E+01  0.27026206234E+01  0.51100000000E-03 0.  1.
        -11    1    3    3    0    0  0.37808140525E+01 -0.14153114385E+02  0.19823434474E+02  0.24649011264E+02  0.51100000000E-03 0. -1.
        -12    1    3    3    0    0 -0.11603252651E+02  0.23792680790E+01  0.19922036514E+02  0.23177228643E+02  0.00000000000E+00 0.  1.
</event>
<event>
 7    1  0.2966651E-011  0.5052886E+02  0.7816164E-02  0.1300439E+00
        -11   -1    0    0    0    0  0.00000000000E+00  0.00000000000E+00  0.45593999997E+02  0.45594000000E+02  0.51100000000E-03 0.  1.
         11   -1    0    0    0    0 -0.00000000000E+00 -0.00000000000E+00 -0.45593999997E+02  0.45594000000E+02  0.51100000000E-03 0. -1.
    9900012    2    1    2    0    0  0.38883203107E+01  0.13379731779E+02  0.38197248559E+02  0.50528855214E+02  0.29999985908E+02 0.  0.
         12    1    1    2    0    0 -0.38883203107E+01 -0.13379731779E+02 -0.38197248559E+02  0.40659144786E+02  0.00000000000E+00 0. -1.
         11    1    3    3    0    0  0.83442667061E+01  0.48343060457E+01  0.28924187177E+01  0.10067938622E+02  0.51100000000E-03 0.  1.
        -11    1    3    3    0    0 -0.97605994668E+01  0.12114485826E+00  0.16065596668E+02  0.18798600335E+02  0.51100000000E-03 0. -1.
        -12    1    3    3    0    0  0.53046530714E+01  0.84242808748E+01  0.19239233173E+02  0.21662316256E+02  0.00000000000E+00 0.  1.
</event>
<event>
 7    1  0.2966651E-011  0.5052885E+02  0.7816164E-02  0.1300439E+00
        -11   -1    0    0    0    0  0.00000000000E+00  0.00000000000E+00  0.45593999997E+02  0.45594000000E+02  0.51100000000E-03 0. -1.
         11   -1    0    0    0    0 -0.00000000000E+00 -0.00000000000E+00 -0.45593999997E+02  0.45594000000E+02  0.51100000000E-03 0.  1.
    9900012    2    1    2    0    0  0.23470951518E+02  0.31725683394E+02 -0.97857969023E+01  0.50528851300E+02  0.29999974012E+02 0.  0.
         12    1    1    2    0    0 -0.23470951518E+02 -0.31725683394E+02  0.97857969023E+01  0.40659148700E+02  0.00000000000E+00 0. -1.
         11    1    3    3    0    0 -0.11021143181E+01  0.15125348144E+01  0.22044232552E+01  0.28916949501E+01  0.51100000000E-03 0. -1.
        -11    1    3    3    0    0  0.25703054680E+02  0.18472287380E+02 -0.15619281557E+02  0.35296379099E+02  0.51100000000E-03 0.  1.
        -12    1    3    3    0    0 -0.11299888439E+01  0.11740861200E+02  0.36290613993E+01  0.12340777251E+02  0.00000000000E+00 0.  1.
</event>
<event>
 7    1  0.2966651E-011  0.5052886E+02  0.7816164E-02  0.1300439E+00
        -11   -1    0    0    0    0  0.00000000000E+00  0.00000000000E+00  0.45593999997E+02  0.45594000000E+02  0.51100000000E-03 0. -1.
         11   -1    0    0    0    0 -0.00000000000E+00 -0.00000000000E+00 -0.45593999997E+02  0.45594000000E+02  0.51100000000E-03 0.  1.
    9900012    2    1    2    0    0 -0.14398955963E+02 -0.36758036694E+02 -0.97304880994E+01  0.50528860891E+02  0.30000003164E+02 0.  0.
         12    1    1    2    0    0  0.14398955963E+02  0.36758036694E+02  0.97304880994E+01  0.40659139109E+02  0.00000000000E+00 0. -1.
         11    1    3    3    0    0 -0.16284021735E+02 -0.63905375826E+01  0.93802922349E+00  0.17518225754E+02  0.51100000000E-03 0. -1.
        -11    1    3    3    0    0  0.20427259977E+01 -0.15274535387E+02 -0.89458083724E+01  0.17818856543E+02  0.51100000000E-03 0.  1.
         12    1    3    3    0    0 -0.15766022480E+00 -0.15092963724E+02 -0.17227089505E+01  0.15191778594E+02  0.00000000000E+00 0. -1.
</event>
<event>
 7    1  0.2966651E-011  0.5052885E+02  0.7816164E-02  0.1300439E+00
        -11   -1    0    0    0    0  0.00000000000E+00  0.00000000000E+00  0.45593999997E+02  0.45594000000E+02  0.51100000000E-03 0. -1.
         11   -1    0    0    0    0 -0.00000000000E+00 -0.00000000000E+00 -0.45593999997E+02  0.45594000000E+02  0.51100000000E-03 0.  1.
    9900012    2    1    2    0    0  0.21581512569E+02 -0.22658761894E+02 -0.25961232080E+02  0.50528846707E+02  0.29999960052E+02 0.  0.
         12    1    1    2    0    0 -0.21581512569E+02  0.22658761894E+02  0.25961232080E+02  0.40659153293E+02  0.00000000000E+00 0. -1.
         11    1    3    3    0    0 -0.13078175450E+01 -0.14629199681E+01  0.34006008852E+01  0.39261441906E+01  0.51100000000E-03 0. -1.
        -11    1    3    3    0    0  0.10191229037E+02 -0.20281256925E+02 -0.23208341982E+02  0.32462557964E+02  0.51100000000E-03 0.  1.
        -12    1    3    3    0    0  0.12698101077E+02 -0.91458500133E+00 -0.61534909836E+01  0.14140144553E+02  0.00000000000E+00 0.  1.
</event>
<event>
 7    1  0.2966651E-011  0.5052886E+02  0.7816164E-02  0.1300439E+00
        -11   -1    0    0    0    0  0.00000000000E+00  0.00000000000E+00  0.45593999997E+02  0.45594000000E+02  0.51100000000E-03 0.  1.
         11   -1    0    0    0    0 -0.00000000000E+00 -0.00000000000E+00 -0.45593999997E+02  0.45594000000E+02  0.51100000000E-03 0. -1.
    9900012    2    1    2    0    0 -0.27426497097E+02  0.14063409633E+02  0.26517412088E+02  0.50528863544E+02  0.30000011228E+02 0.  0.
         12    1    1    2    0    0  0.27426497097E+02 -0.14063409633E+02 -0.26517412088E+02  0.40659136456E+02  0.00000000000E+00 0. -1.
         11    1    3    3    0    0 -0.21208584063E+02  0.99524756513E+01  0.36582939961E+01  0.23711577863E+02  0.51100000000E-03 0. -1.
        -11    1    3    3    0    0 -0.32413005876E+00 -0.11847526768E+01  0.16794307266E+02  0.16839164350E+02  0.51100000000E-03 0.  1.
         12    1    3    3    0    0 -0.58937829757E+01  0.52956866582E+01  0.60648108255E+01  0.99781213310E+01  0.00000000000E+00 0. -1.
</event>
<event>
 7    1  0.2966651E-011  0.5052884E+02  0.7816164E-02  0.1300439E+00
        -11   -1    0    0    0    0  0.00000000000E+00  0.00000000000E+00  0.45593999997E+02  0.45594000000E+02  0.51100000000E-03 0. -1.
         11   -1    0    0    0    0 -0.00000000000E+00 -0.00000000000E+00 -0.45593999997E+02  0.45594000000E+02  0.51100000000E-03 0.  1.
    9900012    2    1    2    0    0 -0.20249155789E+02  0.22715944132E+02 -0.26965259624E+02  0.50528835540E+02  0.29999926108E+02 0.  0.
         12    1    1    2    0    0  0.20249155789E+02 -0.22715944132E+02  0.26965259624E+02  0.40659164460E+02  0.00000000000E+00 0. -1.
         11    1    3    3    0    0  0.14391692065E+01 -0.50053921355E+01 -0.49161901730E+01  0.71619888657E+01  0.51100000000E-03 0. -1.
        -11    1    3    3    0    0 -0.12814874485E+02  0.24551292009E+02 -0.18463764821E+02  0.33285095147E+02  0.51100000000E-03 0.  1.
         12    1    3    3    0    0 -0.88734505097E+01  0.31700442594E+01 -0.35853046308E+01  0.10081751527E+02  0.00000000000E+00 0. -1.
</event>
<event>
 7    1  0.2966651E-011  0.5052886E+02  0.7816164E-02  0.1300439E+00
        -11   -1    0    0    0    0  0.00000000000E+00  0.00000000000E+00  0.45593999997E+02  0.45594000000E+02  0.51100000000E-03 0. -1.
         11   -1    0    0    0    0 -0.00000000000E+00 -0.00000000000E+00 -0.45593999997E+02  0.45594000000E+02  0.51100000000E-03 0.  1.
    9900012    2    1    2    0    0 -0.37049220320E+02  0.10553589778E+02  0.13005490789E+02  0.50528858664E+02  0.29999996395E+02 0.  0.
         12    1    1    2    0    0  0.37049220320E+02 -0.10553589778E+02 -0.13005490789E+02  0.40659141336E+02  0.00000000000E+00 0. -1.
         11    1    3    3    0    0  0.39726293063E+01 -0.23803172378E+01  0.23504814837E+01  0.51935014416E+01  0.51100000000E-03 0. -1.
        -11    1    3    3    0    0 -0.17865852868E+02  0.49724160039E+01 -0.21136537186E+00  0.18546112671E+02  0.51100000000E-03 0.  1.
         12    1    3    3    0    0 -0.23155996758E+02  0.79614910116E+01  0.10866374678E+02  0.26789244551E+02  0.00000000000E+00 0. -1.
</event>
<event>
 7    1  0.2966651E-011  0.5052887E+02  0.7816164E-02  0.1300439E+00
        -11   -1    0    0    0    0  0.00000000000E+00  0.00000000000E+00  0.45593999997E+02  0.45594000000E+02  0.51100000000E-03 0.  1.
         11   -1    0    0    0    0 -0.00000000000E+00 -0.00000000000E+00 -0.45593999997E+02  0.45594000000E+02  0.51100000000E-03 0. -1.
    9900012    2    1    2    0    0  0.38153332168E+02 -0.41160722592E+01  0.13436747174E+02  0.50528868418E+02  0.30000026044E+02 0.  0.
         12    1    1    2    0    0 -0.38153332168E+02  0.41160722592E+01 -0.13436747174E+02  0.40659131582E+02  0.00000000000E+00 0. -1.
         11    1    3    3    0    0  0.95803859152E+01 -0.95117154587E+01 -0.60766628597E+01  0.14804808578E+02  0.51100000000E-03 0. -1.
        -11    1    3    3    0    0  0.93933933896E+01 -0.15584378975E+01  0.60961151135E+01  0.11306068627E+02  0.51100000000E-03 0.  1.
         12    1    3    3    0    0  0.19179552863E+02  0.69540810970E+01  0.13417294920E+02  0.24417991214E+02  0.00000000000E+00 0. -1.
</event>
<event>
 7    1  0.2966651E-011  0.5052886E+02  0.7816164E-02  0.1300439E+00
        -11   -1    0    0    0    0  0.00000000000E+00  0.00000000000E+00  0.45593999997E+02  0.45594000000E+02  0.51100000000E-03 0.  1.
         11   -1    0    0    0    0 -0.00000000000E+00 -0.00000000000E+00 -0.45593999997E+02  0.45594000000E+02  0.51100000000E-03 0. -1.
    9900012    2    1    2    0    0 -0.20396059118E+02  0.47499489334E+01  0.34851173861E+02  0.50528861275E+02  0.30000004330E+02 0.  0.
         12    1    1    2    0    0  0.20396059118E+02 -0.47499489334E+01 -0.34851173861E+02  0.40659138725E+02  0.00000000000E+00 0. -1.
         11    1    3    3    0    0 -0.38959665709E+01  0.27022171608E+01 -0.46159907066E+01  0.66172428979E+01  0.51100000000E-03 0. -1.
        -11    1    3    3    0    0 -0.13447696639E+02 -0.21961642382E+01  0.24174458985E+02  0.27750101796E+02  0.51100000000E-03 0.  1.
         12    1    3    3    0    0 -0.30523959083E+01  0.42438960108E+01  0.15292705583E+02  0.16161516580E+02  0.00000000000E+00 0. -1.
</event>
<event>
 7    1  0.2966651E-011  0.5052886E+02  0.7816164E-02  0.1300439E+00
        -11   -1    0    0    0    0  0.00000000000E+00  0.00000000000E+00  0.45593999997E+02  0.45594000000E+02  0.51100000000E-03 0.  1.
         11   -1    0    0    0    0 -0.00000000000E+00 -0.00000000000E+00 -0.45593999997E+02  0.45594000000E+02  0.51100000000E-03 0. -1.
    9900012    2    1    2    0    0 -0.22491866215E+02  0.13278021959E+02  0.31160485918E+02  0.50528858400E+02  0.29999995592E+02 0.  0.
         12    1    1    2    0    0  0.22491866215E+02 -0.13278021959E+02 -0.31160485918E+02  0.40659141600E+02  0.00000000000E+00 0. -1.
         11    1    3    3    0    0 -0.12127134394E+02 -0.76254211073E+01  0.10669303884E+02  0.17861928264E+02  0.51100000000E-03 0. -1.
        -11    1    3    3    0    0 -0.17394093999E+01  0.42958809081E+01  0.10444900828E+02  0.11426989604E+02  0.51100000000E-03 0.  1.
         12    1    3    3    0    0 -0.86253224211E+01  0.16607562159E+02  0.10046281206E+02  0.21239940532E+02  0.00000000000E+00 0. -1.
</event>
<event>
 7    1  0.2966651E-011  0.5052886E+02  0.7816164E-02  0.1300439E+00
        -11   -1    0    0    0    0  0.00000000000E+00  0.00000000000E+00  0.45593999997E+02  0.45594000000E+02  0.51100000000E-03 0. -1.
         11   -1    0    0    0    0 -0.00000000000E+00 -0.00000000000E+00 -0.45593999997E+02  0.45594000000E+02  0.51100000000E-03 0.  1.
    9900012    2    1    2    0    0 -0.27571052871E+02 -0.23371317601E+02 -0.18622143451E+02  0.50528859951E+02  0.30000000307E+02 0.  0.
         12    1    1    2    0    0  0.27571052871E+02  0.23371317601E+02  0.18622143451E+02  0.40659140049E+02  0.00000000000E+00 0. -1.
         11    1    3    3    0    0 -0.59303465257E+01 -0.20738536968E+02 -0.75509485360E+01  0.22853287499E+02  0.51100000000E-03 0. -1.
        -11    1    3    3    0    0 -0.13506607625E+02  0.41739343510E+01 -0.32724810584E+01  0.14510661944E+02  0.51100000000E-03 0.  1.
        -12    1    3    3    0    0 -0.81340987197E+01 -0.68067149845E+01 -0.77987138570E+01  0.13164910508E+02  0.00000000000E+00 0.  1.
</event>
<event>
 7    1  0.2966651E-011  0.5052886E+02  0.7816164E-02  0.1300439E+00
        -11   -1    0    0    0    0  0.00000000000E+00  0.00000000000E+00  0.45593999997E+02  0.45594000000E+02  0.51100000000E-03 0.  1.
         11   -1    0    0    0    0 -0.00000000000E+00 -0.00000000000E+00 -0.45593999997E+02  0.45594000000E+02  0.51100000000E-03 0. -1.
    9900012    2    1    2    0    0  0.18912922166E+02 -0.28487301764E+02  0.21998648642E+02  0.50528861682E+02  0.30000005570E+02 0.  0.
         12    1    1    2    0    0 -0.18912922166E+02  0.28487301764E+02 -0.21998648642E+02  0.40659138318E+02  0.00000000000E+00 0. -1.
         11    1    3    3    0    0 -0.25644495032E+01  0.42416888609E+01  0.70135542813E+01  0.85882634778E+01  0.51100000000E-03 0. -1.
        -11    1    3    3    0    0  0.11941119022E+02 -0.17672450633E+02  0.88503032758E+01  0.23091853611E+02  0.51100000000E-03 0.  1.
         12    1    3    3    0    0  0.95362526478E+01 -0.15056539992E+02  0.61347910851E+01  0.18848744593E+02  0.00000000000E+00 0. -1.
</event>
<event>
 7    1  0.2966651E-011  0.5052884E+02  0.7816164E-02  0.1300439E+00
        -11   -1    0    0    0    0  0.00000000000E+00  0.00000000000E+00  0.45593999997E+02  0.45594000000E+02  0.51100000000E-03 0.  1.
         11   -1    0    0    0    0 -0.00000000000E+00 -0.00000000000E+00 -0.45593999997E+02  0.45594000000E+02  0.51100000000E-03 0. -1.
    9900012    2    1    2    0    0  0.20039164065E+02  0.33249711958E+02 -0.12085353009E+02  0.50528841142E+02  0.29999943135E+02 0.  0.
         12    1    1    2    0    0 -0.20039164065E+02 -0.33249711958E+02  0.12085353009E+02  0.40659158858E+02  0.00000000000E+00 0. -1.
         11    1    3    3    0    0  0.33226987060E+01 -0.44957037089E+00 -0.56934223942E+01  0.66073821616E+01  0.51100000000E-03 0. -1.
        -11    1    3    3    0    0  0.52203188112E+01  0.17269088452E+02  0.74885447572E+01  0.19533341939E+02  0.51100000000E-03 0.  1.
        -12    1    3    3    0    0  0.11496146548E+02  0.16430193876E+02 -0.13880475372E+02  0.24388117041E+02  0.00000000000E+00 0.  1.
</event>
<event>
 7    1  0.2966651E-011  0.5052886E+02  0.7816164E-02  0.1300439E+00
        -11   -1    0    0    0    0  0.00000000000E+00  0.00000000000E+00  0.45593999997E+02  0.45594000000E+02  0.51100000000E-03 0. -1.
         11   -1    0    0    0    0 -0.00000000000E+00 -0.00000000000E+00 -0.45593999997E+02  0.45594000000E+02  0.51100000000E-03 0.  1.
    9900012    2    1    2    0    0 -0.16061214770E+02 -0.20086856511E+02 -0.31491601159E+02  0.50528863659E+02  0.30000011579E+02 0.  0.
         12    1    1    2    0    0  0.16061214770E+02  0.20086856511E+02  0.31491601159E+02  0.40659136341E+02  0.00000000000E+00 0. -1.
         11    1    3    3    0    0 -0.42642697006E+01 -0.47201844488E+01  0.32612682710E+01  0.71484269812E+01  0.51100000000E-03 0. -1.
        -11    1    3    3    0    0 -0.93193635728E+01 -0.15719603520E+01 -0.23752088621E+02  0.25563319637E+02  0.51100000000E-03 0.  1.
        -12    1    3    3    0    0 -0.24775814969E+01 -0.13794711711E+02 -0.11000780810E+02  0.17817117041E+02  0.00000000000E+00 0.  1.
</event>
<event>
 7    1  0.2966651E-011  0.5052882E+02  0.7816164E-02  0.1300439E+00
        -11   -1    0    0    0    0  0.00000000000E+00  0.00000000000E+00  0.45593999997E+02  0.45594000000E+02  0.51100000000E-03 0.  1.
         11   -1    0    0    0    0 -0.00000000000E+00 -0.00000000000E+00 -0.45593999997E+02  0.45594000000E+02  0.51100000000E-03 0. -1.
    9900012    2    1    2    0    0 -0.14994644234E+02  0.37563361120E+02 -0.41621005935E+01  0.50528824704E+02  0.29999893171E+02 0.  0.
         12    1    1    2    0    0  0.14994644234E+02 -0.37563361120E+02  0.41621005935E+01  0.40659175296E+02  0.00000000000E+00 0. -1.
         11    1    3    3    0    0 -0.14050402591E+02  0.32549719565E+01  0.31865756162E+01  0.14770339191E+02  0.51100000000E-03 0. -1.
        -11    1    3    3    0    0 -0.11661948601E+01  0.14096619480E+02  0.29677838281E+00  0.14147889203E+02  0.51100000000E-03 0.  1.
         12    1    3    3    0    0  0.22195321671E+00  0.20211769684E+02 -0.76454545925E+01  0.21610596311E+02  0.00000000000E+00 0. -1.
</event>
<event>
 7    1  0.2966651E-011  0.5052887E+02  0.7816164E-02  0.1300439E+00
        -11   -1    0    0    0    0  0.00000000000E+00  0.00000000000E+00  0.45593999997E+02  0.45594000000E+02  0.51100000000E-03 0.  1.
         11   -1    0    0    0    0 -0.00000000000E+00 -0.00000000000E+00 -0.45593999997E+02  0.45594000000E+02  0.51100000000E-03 0. -1.
    9900012    2    1    2    0    0 -0.17985766213E+02  0.31649102869E+02  0.18111084281E+02  0.50528869752E+02  0.30000030097E+02 0.  0.
         12    1    1    2    0    0  0.17985766213E+02 -0.31649102869E+02 -0.18111084281E+02  0.40659130248E+02  0.00000000000E+00 0. -1.
         11    1    3    3    0    0  0.21640699718E+01  0.10139679287E+02 -0.25081747183E+01  0.10667109991E+02  0.51100000000E-03 0. -1.
        -11    1    3    3    0    0 -0.11462011839E+02  0.13739769825E+01  0.10892260675E+02  0.15871574308E+02  0.51100000000E-03 0.  1.
        -12    1    3    3    0    0 -0.86878243458E+01  0.20135446600E+02  0.97269983251E+01  0.23990185453E+02  0.00000000000E+00 0.  1.
</event>
<event>
 7    1  0.2966651E-011  0.5052886E+02  0.7816164E-02  0.1300439E+00
        -11   -1    0    0    0    0  0.00000000000E+00  0.00000000000E+00  0.45593999997E+02  0.45594000000E+02  0.51100000000E-03 0. -1.
         11   -1    0    0    0    0 -0.00000000000E+00 -0.00000000000E+00 -0.45593999997E+02  0.45594000000E+02  0.51100000000E-03 0.  1.
    9900012    2    1    2    0    0 -0.37298777983E+02  0.16103515726E+02  0.16259938077E+01  0.50528856949E+02  0.29999991183E+02 0.  0.
         12    1    1    2    0    0  0.37298777983E+02 -0.16103515726E+02 -0.16259938077E+01  0.40659143051E+02  0.00000000000E+00 0. -1.
         11    1    3    3    0    0  0.31473509425E+01 -0.23415101957E+01 -0.12710432095E+01  0.41235954037E+01  0.51100000000E-03 0. -1.
        -11    1    3    3    0    0 -0.29822766050E+02  0.10722499207E+02  0.73578568747E+01  0.32534711035E+02  0.51100000000E-03 0.  1.
         12    1    3    3    0    0 -0.10623362876E+02  0.77225267151E+01 -0.44608198575E+01  0.13870550510E+02  0.00000000000E+00 0. -1.
</event>
<event>
 7    1  0.2966651E-011  0.5052886E+02  0.7816164E-02  0.1300439E+00
        -11   -1    0    0    0    0  0.00000000000E+00  0.00000000000E+00  0.45593999997E+02  0.45594000000E+02  0.51100000000E-03 0. -1.
         11   -1    0    0    0    0 -0.00000000000E+00 -0.00000000000E+00 -0.45593999997E+02  0.45594000000E+02  0.51100000000E-03 0.  1.
    9900012    2    1    2    0    0  0.22934834969E+02 -0.31639725148E+02  0.11228844771E+02  0.50528858133E+02  0.29999994782E+02 0.  0.
         12    1    1    2    0    0 -0.22934834969E+02  0.31639725148E+02 -0.11228844771E+02  0.40659141867E+02  0.00000000000E+00 0. -1.
         11    1    3    3    0    0 -0.18887966367E+01 -0.89306027102E+00  0.72113571136E+01  0.75079145615E+01  0.51100000000E-03 0. -1.
        -11    1    3    3    0    0  0.25716295511E+02 -0.31887016991E+02  0.26843941114E+01  0.41052596500E+02  0.51100000000E-03 0.  1.
        -12    1    3    3    0    0 -0.89266390624E+00  0.11403521140E+01  0.13330935457E+01  0.19683470717E+01  0.00000000000E+00 0.  1.
</event>
<event>
 7    1  0.2966651E-011  0.5052887E+02  0.7816164E-02  0.1300439E+00
        -11   -1    0    0    0    0  0.00000000000E+00  0.00000000000E+00  0.45593999997E+02  0.45594000000E+02  0.51100000000E-03 0.  1.
         11   -1    0    0    0    0 -0.00000000000E+00 -0.00000000000E+00 -0.45593999997E+02  0.45594000000E+02  0.51100000000E-03 0. -1.
    9900012    2    1    2    0    0  0.28729729734E+02 -0.27017064450E+02  0.98916898177E+01  0.50528872249E+02  0.30000037687E+02 0.  0.
         12    1    1    2    0    0 -0.28729729734E+02  0.27017064450E+02 -0.98916898177E+01  0.40659127751E+02  0.00000000000E+00 0. -1.
         11    1    3    3    0    0 -0.52440116144E+01 -0.48422121531E+01  0.18141804876E+01  0.73646403476E+01  0.51100000000E-03 0. -1.
        -11    1    3    3    0    0  0.11630923087E+02 -0.10847847806E+02  0.86561613133E+01  0.18107548227E+02  0.51100000000E-03 0.  1.
        -12    1    3    3    0    0  0.22342818261E+02 -0.11327004491E+02 -0.57865198325E+00  0.25056683674E+02  0.00000000000E+00 0.  1.
</event>
<event>
 7    1  0.2966651E-011  0.5052886E+02  0.7816164E-02  0.1300439E+00
        -11   -1    0    0    0    0  0.00000000000E+00  0.00000000000E+00  0.45593999997E+02  0.45594000000E+02  0.51100000000E-03 0. -1.
         11   -1    0    0    0    0 -0.00000000000E+00 -0.00000000000E+00 -0.45593999997E+02  0.45594000000E+02  0.51100000000E-03 0.  1.
    9900012    2    1    2    0    0 -0.18432184910E+02  0.19916199304E+02 -0.30278129408E+02  0.50528861351E+02  0.30000004562E+02 0.  0.
         12    1    1    2    0    0  0.18432184910E+02 -0.19916199304E+02  0.30278129408E+02  0.40659138649E+02  0.00000000000E+00 0. -1.
         11    1    3    3    0    0 -0.14640401858E+02 -0.26953925216E+01 -0.38362649091E+01  0.15372814841E+02  0.51100000000E-03 0. -1.
        -11    1    3    3    0    0  0.35225115280E+00  0.26359814936E+01 -0.42346725490E+01  0.50004930925E+01  0.51100000000E-03 0.  1.
         12    1    3    3    0    0 -0.41440342043E+01  0.19975610332E+02 -0.22207191950E+02  0.30155553418E+02  0.00000000000E+00 0. -1.
</event>
<event>
 7    1  0.2966651E-011  0.5052886E+02  0.7816164E-02  0.1300439E+00
        -11   -1    0    0    0    0  0.00000000000E+00  0.00000000000E+00  0.45593999997E+02  0.45594000000E+02  0.51100000000E-03 0.  1.
         11   -1    0    0    0    0 -0.00000000000E+00 -0.00000000000E+00 -0.45593999997E+02  0.45594000000E+02  0.51100000000E-03 0. -1.
    9900012    2    1    2    0    0 -0.32236558235E+02  0.12460936130E+01  0.24747062655E+02  0.50528861468E+02  0.30000004918E+02 0.  0.
         12    1    1    2    0    0  0.32236558235E+02 -0.12460936130E+01 -0.24747062655E+02  0.40659138532E+02  0.00000000000E+00 0. -1.
         11    1    3    3    0    0 -0.82092527564E+01  0.10951540387E+02  0.10892248781E+02  0.17491973915E+02  0.51100000000E-03 0. -1.
        -11    1    3    3    0    0 -0.20522699633E+02 -0.95727247872E+01  0.45567628730E+01  0.23099401469E+02  0.51100000000E-03 0.  1.
         12    1    3    3    0    0 -0.35046058457E+01 -0.13272198694E+00  0.92980510010E+01  0.99374860844E+01  0.00000000000E+00 0. -1.
</event>
<event>
 7    1  0.2966651E-011  0.5052887E+02  0.7816164E-02  0.1300439E+00
        -11   -1    0    0    0    0  0.00000000000E+00  0.00000000000E+00  0.45593999997E+02  0.45594000000E+02  0.51100000000E-03 0. -1.
         11   -1    0    0    0    0 -0.00000000000E+00 -0.00000000000E+00 -0.45593999997E+02  0.45594000000E+02  0.51100000000E-03 0.  1.
    9900012    2    1    2    0    0 -0.21434281239E+02  0.21607158160E+02 -0.26960472469E+02  0.50528870991E+02  0.30000033865E+02 0.  0.
         12    1    1    2    0    0  0.21434281239E+02 -0.21607158160E+02  0.26960472469E+02  0.40659129009E+02  0.00000000000E+00 0. -1.
         11    1    3    3    0    0 -0.92313742987E+01  0.26187955036E+01 -0.32480207244E+01  0.10130449162E+02  0.51100000000E-03 0. -1.
        -11    1    3    3    0    0 -0.10410362460E+02  0.24412215540E+02 -0.21890810525E+02  0.34402608910E+02  0.51100000000E-03 0.  1.
        -12    1    3    3    0    0 -0.17925444804E+01 -0.54238528843E+01 -0.18216412201E+01  0.59958129190E+01  0.00000000000E+00 0.  1.
</event>
<event>
 7    1  0.2966651E-011  0.5052885E+02  0.7816164E-02  0.1300439E+00
        -11   -1    0    0    0    0  0.00000000000E+00  0.00000000000E+00  0.45593999997E+02  0.45594000000E+02  0.51100000000E-03 0. -1.
         11   -1    0    0    0    0 -0.00000000000E+00 -0.00000000000E+00 -0.45593999997E+02  0.45594000000E+02  0.51100000000E-03 0.  1.
    9900012    2    1    2    0    0 -0.21112013484E+02  0.29958556417E+02 -0.17604959691E+02  0.50528845783E+02  0.29999957241E+02 0.  0.
         12    1    1    2    0    0  0.21112013484E+02 -0.29958556417E+02  0.17604959691E+02  0.40659154217E+02  0.00000000000E+00 0. -1.
         11    1    3    3    0    0  0.34874420956E+01  0.72517041063E+01 -0.12164654491E+01  0.81381357365E+01  0.51100000000E-03 0. -1.
        -11    1    3    3    0    0 -0.15662952347E+02  0.12161467312E+02 -0.19937209596E+02  0.28119774006E+02  0.51100000000E-03 0.  1.
        -12    1    3    3    0    0 -0.89365032323E+01  0.10545384999E+02  0.35487153539E+01  0.14270936040E+02  0.00000000000E+00 0.  1.
</event>
<event>
 7    1  0.2966651E-011  0.5052887E+02  0.7816164E-02  0.1300439E+00
        -11   -1    0    0    0    0  0.00000000000E+00  0.00000000000E+00  0.45593999997E+02  0.45594000000E+02  0.51100000000E-03 0. -1.
         11   -1    0    0    0    0 -0.00000000000E+00 -0.00000000000E+00 -0.45593999997E+02  0.45594000000E+02  0.51100000000E-03 0.  1.
    9900012    2    1    2    0    0 -0.14410614272E+02 -0.37375502625E+01 -0.37835566802E+02  0.50528865714E+02  0.30000017823E+02 0.  0.
         12    1    1    2    0    0  0.14410614272E+02  0.37375502625E+01  0.37835566802E+02  0.40659134286E+02  0.00000000000E+00 0. -1.
         11    1    3    3    0    0 -0.19238987199E+02 -0.43385705284E+01 -0.22334478900E+02  0.29795818006E+02  0.51100000000E-03 0. -1.
        -11    1    3    3    0    0  0.45099863956E+01  0.92026801979E+00 -0.17802478360E+02  0.18387906529E+02  0.51100000000E-03 0.  1.
         12    1    3    3    0    0  0.31838653100E+00 -0.31924775397E+00  0.23013904570E+01  0.23451411785E+01  0.00000000000E+00 0. -1.
</event>
<event>
 7    1  0.2966651E-011  0.5052886E+02  0.7816164E-02  0.1300439E+00
        -11   -1    0    0    0    0  0.00000000000E+00  0.00000000000E+00  0.45593999997E+02  0.45594000000E+02  0.51100000000E-03 0.  1.
         11   -1    0    0    0    0 -0.00000000000E+00 -0.00000000000E+00 -0.45593999997E+02  0.45594000000E+02  0.51100000000E-03 0. -1.
    9900012    2    1    2    0    0  0.36328832875E+02  0.17791557375E+02  0.41038702673E+01  0.50528863719E+02  0.30000011761E+02 0.  0.
         12    1    1    2    0    0 -0.36328832875E+02 -0.17791557375E+02 -0.41038702673E+01  0.40659136281E+02  0.00000000000E+00 0. -1.
         11    1    3    3    0    0  0.54099427030E+00  0.25637451779E+01  0.80712560825E+01  0.84859082689E+01  0.51100000000E-03 0. -1.
        -11    1    3    3    0    0  0.35801966756E+02  0.15396729849E+02 -0.64948736829E+01  0.39509789901E+02  0.51100000000E-03 0.  1.
        -12    1    3    3    0    0 -0.14128150962E-01 -0.16891765136E+00  0.25274878677E+01  0.25331655491E+01  0.00000000000E+00 0.  1.
</event>
<event>
 7    1  0.2966651E-011  0.5052886E+02  0.7816164E-02  0.1300439E+00
        -11   -1    0    0    0    0  0.00000000000E+00  0.00000000000E+00  0.45593999997E+02  0.45594000000E+02  0.51100000000E-03 0.  1.
         11   -1    0    0    0    0 -0.00000000000E+00 -0.00000000000E+00 -0.45593999997E+02  0.45594000000E+02  0.51100000000E-03 0. -1.
    9900012    2    1    2    0    0 -0.30787755145E+02 -0.25993646775E+02  0.54415321624E+01  0.50528858202E+02  0.29999994990E+02 0.  0.
         12    1    1    2    0    0  0.30787755145E+02  0.25993646775E+02 -0.54415321624E+01  0.40659141798E+02  0.00000000000E+00 0. -1.
         11    1    3    3    0    0 -0.40954156284E-01 -0.14590137754E+02  0.54683775313E+01  0.15581301294E+02  0.51100000000E-03 0. -1.
        -11    1    3    3    0    0 -0.18107193848E+02 -0.29784577848E+00 -0.48023216431E+00  0.18116009614E+02  0.51100000000E-03 0.  1.
         12    1    3    3    0    0 -0.12639607140E+02 -0.11105663242E+02  0.45338679537E+00  0.16831547293E+02  0.00000000000E+00 0. -1.
</event>
<event>
 7    1  0.2966651E-011  0.5052896E+02  0.7816164E-02  0.1300438E+00
        -11   -1    0    0    0    0  0.00000000000E+00  0.00000000000E+00  0.45593999997E+02  0.45594000000E+02  0.51100000000E-03 0. -1.
         11   -1    0    0    0    0 -0.00000000000E+00 -0.00000000000E+00 -0.45593999997E+02  0.45594000000E+02  0.51100000000E-03 0.  1.
    9900012    2    1    2    0    0 -0.20845945507E+02  0.34882962864E+02 -0.13354077541E+01  0.50528956035E+02  0.30000292364E+02 0.  0.
         12    1    1    2    0    0  0.20845945507E+02 -0.34882962864E+02  0.13354077541E+01  0.40659043965E+02  0.00000000000E+00 0. -1.
         11    1    3    3    0    0 -0.75366985847E+01 -0.35395279693E+01 -0.30470958933E+01  0.88665031126E+01  0.51100000000E-03 0. -1.
        -11    1    3    3    0    0 -0.98912537944E+01  0.18718101658E+02 -0.22000289996E+01  0.21284838716E+02  0.51100000000E-03 0.  1.
         12    1    3    3    0    0 -0.34179931277E+01  0.19704389175E+02  0.39117171388E+01  0.20377614207E+02  0.00000000000E+00 0. -1.
</event>
<event>
 7    1  0.2966651E-011  0.5052886E+02  0.7816164E-02  0.1300439E+00
        -11   -1    0    0    0    0  0.00000000000E+00  0.00000000000E+00  0.45593999997E+02  0.45594000000E+02  0.51100000000E-03 0.  1.
         11   -1    0    0    0    0 -0.00000000000E+00 -0.00000000000E+00 -0.45593999997E+02  0.45594000000E+02  0.51100000000E-03 0. -1.
    9900012    2    1    2    0    0  0.28540199844E+02 -0.13165179353E+02  0.25793419547E+02  0.50528862694E+02  0.30000008645E+02 0.  0.
         12    1    1    2    0    0 -0.28540199844E+02  0.13165179353E+02 -0.25793419547E+02  0.40659137306E+02  0.00000000000E+00 0. -1.
         11    1    3    3    0    0  0.14031328926E+02 -0.14371411835E+02  0.10749024779E+02  0.22780632202E+02  0.51100000000E-03 0. -1.
        -11    1    3    3    0    0  0.70638760523E+01  0.65953275621E+01  0.15805559826E+02  0.18525992880E+02  0.51100000000E-03 0.  1.
        -12    1    3    3    0    0  0.74449948649E+01 -0.53890950806E+01 -0.76116505737E+00  0.92222376119E+01  0.00000000000E+00 0.  1.
</event>
<event>
 7    1  0.2966651E-011  0.5052886E+02  0.7816164E-02  0.1300439E+00
        -11   -1    0    0    0    0  0.00000000000E+00  0.00000000000E+00  0.45593999997E+02  0.45594000000E+02  0.51100000000E-03 0.  1.
         11   -1    0    0    0    0 -0.00000000000E+00 -0.00000000000E+00 -0.45593999997E+02  0.45594000000E+02  0.51100000000E-03 0. -1.
    9900012    2    1    2    0    0  0.28311651714E+02  0.60286450765E+01  0.28552956421E+02  0.50528861979E+02  0.30000006472E+02 0.  0.
         12    1    1    2    0    0 -0.28311651714E+02 -0.60286450765E+01 -0.28552956421E+02  0.40659138021E+02  0.00000000000E+00 0. -1.
         11    1    3    3    0    0  0.81658854796E+01 -0.43348211599E+01 -0.11638295272E+01  0.93180931303E+01  0.51100000000E-03 0. -1.
        -11    1    3    3    0    0  0.16616992583E+02  0.10458974202E+02  0.11710140258E+02  0.22861364111E+02  0.51100000000E-03 0.  1.
         12    1    3    3    0    0  0.35287736510E+01 -0.95507966125E-01  0.18006645690E+02  0.18349404738E+02  0.00000000000E+00 0. -1.
</event>
<event>
 7    1  0.2966651E-011  0.5052887E+02  0.7816164E-02  0.1300439E+00
        -11   -1    0    0    0    0  0.00000000000E+00  0.00000000000E+00  0.45593999997E+02  0.45594000000E+02  0.51100000000E-03 0.  1.
         11   -1    0    0    0    0 -0.00000000000E+00 -0.00000000000E+00 -0.45593999997E+02  0.45594000000E+02  0.51100000000E-03 0. -1.
    9900012    2    1    2    0    0 -0.10218273719E+02  0.39026435470E+02  0.50684241013E+01  0.50528871798E+02  0.30000036317E+02 0.  0.
         12    1    1    2    0    0  0.10218273719E+02 -0.39026435470E+02 -0.50684241013E+01  0.40659128202E+02  0.00000000000E+00 0. -1.
         11    1    3    3    0    0 -0.12014040222E+01  0.12025518212E+02 -0.10496901801E+02  0.16007542209E+02  0.51100000000E-03 0. -1.
        -11    1    3    3    0    0 -0.69277999178E+01  0.27606231894E+02  0.13423757486E+02  0.31468964336E+02  0.51100000000E-03 0.  1.
         12    1    3    3    0    0 -0.20890697792E+01 -0.60531463601E+00  0.21415684171E+01  0.30523652527E+01  0.00000000000E+00 0. -1.
</event>
<event>
 7    1  0.2966651E-011  0.5052886E+02  0.7816164E-02  0.1300439E+00
        -11   -1    0    0    0    0  0.00000000000E+00  0.00000000000E+00  0.45593999997E+02  0.45594000000E+02  0.51100000000E-03 0.  1.
         11   -1    0    0    0    0 -0.00000000000E+00 -0.00000000000E+00 -0.45593999997E+02  0.45594000000E+02  0.51100000000E-03 0. -1.
    9900012    2    1    2    0    0 -0.38836865514E+02  0.11991626056E+02 -0.10315368239E+01  0.50528864660E+02  0.30000014619E+02 0.  0.
         12    1    1    2    0    0  0.38836865514E+02 -0.11991626056E+02  0.10315368239E+01  0.40659135340E+02  0.00000000000E+00 0. -1.
         11    1    3    3    0    0 -0.18503121049E+01 -0.14482275017E+01  0.93098370066E+01  0.96017749991E+01  0.51100000000E-03 0. -1.
        -11    1    3    3    0    0 -0.22397597166E+02  0.61527428128E+01 -0.49273055669E+01  0.23744198099E+02  0.51100000000E-03 0.  1.
         12    1    3    3    0    0 -0.14588956243E+02  0.72871107450E+01 -0.54140682636E+01  0.17182891562E+02  0.00000000000E+00 0. -1.
</event>
<event>
 7    1  0.2966651E-011  0.5052889E+02  0.7816164E-02  0.1300439E+00
        -11   -1    0    0    0    0  0.00000000000E+00  0.00000000000E+00  0.45593999997E+02  0.45594000000E+02  0.51100000000E-03 0.  1.
         11   -1    0    0    0    0 -0.00000000000E+00 -0.00000000000E+00 -0.45593999997E+02  0.45594000000E+02  0.51100000000E-03 0. -1.
    9900012    2    1    2    0    0 -0.28946136648E+02  0.22002897025E+02  0.18197727588E+02  0.50528885478E+02  0.30000077899E+02 0.  0.
         12    1    1    2    0    0  0.28946136648E+02 -0.22002897025E+02 -0.18197727588E+02  0.40659114522E+02  0.00000000000E+00 0. -1.
         11    1    3    3    0    0 -0.46554730773E+01  0.58531397834E+01 -0.69690686399E+01  0.10222553148E+02  0.51100000000E-03 0. -1.
        -11    1    3    3    0    0 -0.17161344049E+02  0.15627130166E+02  0.14181279367E+02  0.27199772270E+02  0.51100000000E-03 0.  1.
         12    1    3    3    0    0 -0.71293195213E+01  0.52262707532E+00  0.10985516861E+02  0.13106560060E+02  0.00000000000E+00 0. -1.
</event>
<event>
 7    1  0.2966651E-011  0.5052889E+02  0.7816164E-02  0.1300439E+00
        -11   -1    0    0    0    0  0.00000000000E+00  0.00000000000E+00  0.45593999997E+02  0.45594000000E+02  0.51100000000E-03 0.  1.
         11   -1    0    0    0    0 -0.00000000000E+00 -0.00000000000E+00 -0.45593999997E+02  0.45594000000E+02  0.51100000000E-03 0. -1.
    9900012    2    1    2    0    0 -0.67959283871E+01 -0.16626626610E+02  0.36476487746E+02  0.50528886466E+02  0.30000080901E+02 0.  0.
         12    1    1    2    0    0  0.67959283871E+01  0.16626626610E+02 -0.36476487746E+02  0.40659113534E+02  0.00000000000E+00 0. -1.
         11    1    3    3    0    0 -0.26042285963E+01  0.26246446699E+01  0.79717430575E+01  0.87874600347E+01  0.51100000000E-03 0. -1.
        -11    1    3    3    0    0 -0.63861319626E+01 -0.88497731538E+01 -0.42373238135E+00  0.10921571119E+02  0.51100000000E-03 0.  1.
        -12    1    3    3    0    0  0.21944321718E+01 -0.10401498126E+02  0.28928477070E+02  0.30819855312E+02  0.00000000000E+00 0.  1.
</event>
<event>
 7    1  0.2966651E-011  0.5052885E+02  0.7816164E-02  0.1300439E+00
        -11   -1    0    0    0    0  0.00000000000E+00  0.00000000000E+00  0.45593999997E+02  0.45594000000E+02  0.51100000000E-03 0.  1.
         11   -1    0    0    0    0 -0.00000000000E+00 -0.00000000000E+00 -0.45593999997E+02  0.45594000000E+02  0.51100000000E-03 0. -1.
    9900012    2    1    2    0    0  0.15933106013E+02  0.19054789829E+02  0.32190330509E+02  0.50528852679E+02  0.29999978202E+02 0.  0.
         12    1    1    2    0    0 -0.15933106013E+02 -0.19054789829E+02 -0.32190330509E+02  0.40659147321E+02  0.00000000000E+00 0. -1.
         11    1    3    3    0    0  0.15686831209E+02  0.15340181509E+02  0.29191750964E+02  0.36517888311E+02  0.51100000000E-03 0. -1.
        -11    1    3    3    0    0  0.24065790993E+01  0.55525075780E+01  0.69062115072E+01  0.91824681327E+01  0.51100000000E-03 0.  1.
         12    1    3    3    0    0 -0.21603042957E+01 -0.18378992586E+01 -0.39076319624E+01  0.48284962347E+01  0.00000000000E+00 0. -1.
</event>
<event>
 7    1  0.2966651E-011  0.5052899E+02  0.7816164E-02  0.1300438E+00
        -11   -1    0    0    0    0  0.00000000000E+00  0.00000000000E+00  0.45593999997E+02  0.45594000000E+02  0.51100000000E-03 0.  1.
         11   -1    0    0    0    0 -0.00000000000E+00 -0.00000000000E+00 -0.45593999997E+02  0.45594000000E+02  0.51100000000E-03 0. -1.
    9900012    2    1    2    0    0 -0.30196795858E+02 -0.12299972923E+02  0.24290313676E+02  0.50528989284E+02  0.30000393424E+02 0.  0.
         12    1    1    2    0    0  0.30196795858E+02  0.12299972923E+02 -0.24290313676E+02  0.40659010716E+02  0.00000000000E+00 0. -1.
         11    1    3    3    0    0 -0.24604450228E+02 -0.16514191294E+02  0.15590056815E+02  0.33483538595E+02  0.51100000000E-03 0. -1.
        -11    1    3    3    0    0 -0.75443425993E+01  0.66868675096E+01  0.29755557798E+01  0.10511195689E+02  0.51100000000E-03 0.  1.
        -12    1    3    3    0    0  0.19519969694E+01 -0.24726491381E+01  0.57247010812E+01  0.65342549995E+01  0.00000000000E+00 0.  1.
</event>
<event>
 7    1  0.2966651E-011  0.5052884E+02  0.7816164E-02  0.1300439E+00
        -11   -1    0    0    0    0  0.00000000000E+00  0.00000000000E+00  0.45593999997E+02  0.45594000000E+02  0.51100000000E-03 0.  1.
         11   -1    0    0    0    0 -0.00000000000E+00 -0.00000000000E+00 -0.45593999997E+02  0.45594000000E+02  0.51100000000E-03 0. -1.
    9900012    2    1    2    0    0 -0.10519932794E+02 -0.27124447885E+02  0.28403560905E+02  0.50528844437E+02  0.29999953150E+02 0.  0.
         12    1    1    2    0    0  0.10519932794E+02  0.27124447885E+02 -0.28403560905E+02  0.40659155563E+02  0.00000000000E+00 0. -1.
         11    1    3    3    0    0  0.48191522498E+01 -0.84630260131E+01  0.12730553661E+01  0.98217975917E+01  0.51100000000E-03 0. -1.
        -11    1    3    3    0    0 -0.52560673175E+01  0.15426489655E+01  0.12904564104E+02  0.14019050769E+02  0.51100000000E-03 0.  1.
        -12    1    3    3    0    0 -0.10083017726E+02 -0.20204070837E+02  0.14225941434E+02  0.26687996076E+02  0.00000000000E+00 0.  1.
</event>
<event>
 7    1  0.2966651E-011  0.5052886E+02  0.7816164E-02  0.1300439E+00
        -11   -1    0    0    0    0  0.00000000000E+00  0.00000000000E+00  0.45593999997E+02  0.45594000000E+02  0.51100000000E-03 0. -1.
         11   -1    0    0    0    0 -0.00000000000E+00 -0.00000000000E+00 -0.45593999997E+02  0.45594000000E+02  0.51100000000E-03 0.  1.
    9900012    2    1    2    0    0  0.32848004966E+01  0.18327169993E+02 -0.36145411718E+02  0.50528857578E+02  0.29999993094E+02 0.  0.
         12    1    1    2    0    0 -0.32848004966E+01 -0.18327169993E+02  0.36145411718E+02  0.40659142422E+02  0.00000000000E+00 0. -1.
         11    1    3    3    0    0  0.29411016780E+01 -0.13862118744E+01  0.30385482073E+01  0.44502177374E+01  0.51100000000E-03 0. -1.
        -11    1    3    3    0    0  0.33265511807E+00  0.11542225620E+02 -0.35086400212E+02  0.36937638146E+02  0.51100000000E-03 0.  1.
        -12    1    3    3    0    0  0.11043700540E-01  0.81711562470E+01 -0.40975597133E+01  0.91410016946E+01  0.00000000000E+00 0.  1.
</event>
<event>
 7    1  0.2966651E-011  0.5052886E+02  0.7816164E-02  0.1300439E+00
        -11   -1    0    0    0    0  0.00000000000E+00  0.00000000000E+00  0.45593999997E+02  0.45594000000E+02  0.51100000000E-03 0. -1.
         11   -1    0    0    0    0 -0.00000000000E+00 -0.00000000000E+00 -0.45593999997E+02  0.45594000000E+02  0.51100000000E-03 0.  1.
    9900012    2    1    2    0    0 -0.29623616595E+02 -0.27671957357E+02  0.31416036163E+01  0.50528861330E+02  0.30000004498E+02 0.  0.
         12    1    1    2    0    0  0.29623616595E+02  0.27671957357E+02 -0.31416036163E+01  0.40659138670E+02  0.00000000000E+00 0. -1.
         11    1    3    3    0    0 -0.19013615680E+02  0.15363178318E+01  0.92312168888E+00  0.19097905844E+02  0.51100000000E-03 0. -1.
        -11    1    3    3    0    0 -0.31641566929E+01 -0.14512831960E+02  0.42930104848E+00  0.14859962272E+02  0.51100000000E-03 0.  1.
         12    1    3    3    0    0 -0.74458442216E+01 -0.14695443229E+02  0.17891808789E+01  0.16570993213E+02  0.00000000000E+00 0. -1.
</event>
<event>
 7    1  0.2966651E-011  0.5052884E+02  0.7816164E-02  0.1300439E+00
        -11   -1    0    0    0    0  0.00000000000E+00  0.00000000000E+00  0.45593999997E+02  0.45594000000E+02  0.51100000000E-03 0. -1.
         11   -1    0    0    0    0 -0.00000000000E+00 -0.00000000000E+00 -0.45593999997E+02  0.45594000000E+02  0.51100000000E-03 0.  1.
    9900012    2    1    2    0    0 -0.30843864375E+02 -0.26409100001E+02  0.20934795757E+01  0.50528841263E+02  0.29999943504E+02 0.  0.
         12    1    1    2    0    0  0.30843864375E+02  0.26409100001E+02 -0.20934795757E+01  0.40659158737E+02  0.00000000000E+00 0. -1.
         11    1    3    3    0    0 -0.46453845631E+01  0.31435938067E+01 -0.37581043233E+01  0.67516759494E+01  0.51100000000E-03 0. -1.
        -11    1    3    3    0    0 -0.12646075100E+02 -0.26621423521E+02  0.30357476372E+01  0.29628350776E+02  0.51100000000E-03 0.  1.
        -12    1    3    3    0    0 -0.13552404712E+02 -0.29312702861E+01  0.28158362619E+01  0.14148814538E+02  0.00000000000E+00 0.  1.
</event>
<event>
 7    1  0.2966651E-011  0.5052886E+02  0.7816164E-02  0.1300439E+00
        -11   -1    0    0    0    0  0.00000000000E+00  0.00000000000E+00  0.45593999997E+02  0.45594000000E+02  0.51100000000E-03 0.  1.
         11   -1    0    0    0    0 -0.00000000000E+00 -0.00000000000E+00 -0.45593999997E+02  0.45594000000E+02  0.51100000000E-03 0. -1.
    9900012    2    1    2    0    0 -0.78598694500E+01 -0.13588284615E+02  0.37506621932E+02  0.50528859388E+02  0.29999998596E+02 0.  0.
         12    1    1    2    0    0  0.78598694500E+01  0.13588284615E+02 -0.37506621932E+02  0.40659140612E+02  0.00000000000E+00 0. -1.
         11    1    3    3    0    0 -0.12108371874E+02  0.71291847721E-01  0.32524705259E+01  0.12537795530E+02  0.51100000000E-03 0. -1.
        -11    1    3    3    0    0 -0.46101087403E+00 -0.68571002706E+01  0.84443729086E+01  0.10887597955E+02  0.51100000000E-03 0.  1.
         12    1    3    3    0    0  0.47095132985E+01 -0.68024761917E+01  0.25809778498E+02  0.27103465903E+02  0.00000000000E+00 0. -1.
</event>
<event>
 7    1  0.2966651E-011  0.5052888E+02  0.7816164E-02  0.1300439E+00
        -11   -1    0    0    0    0  0.00000000000E+00  0.00000000000E+00  0.45593999997E+02  0.45594000000E+02  0.51100000000E-03 0.  1.
         11   -1    0    0    0    0 -0.00000000000E+00 -0.00000000000E+00 -0.45593999997E+02  0.45594000000E+02  0.51100000000E-03 0. -1.
    9900012    2    1    2    0    0  0.84159641274E+00  0.28191797400E+02  0.29286149686E+02  0.50528876932E+02  0.30000051923E+02 0.  0.
         12    1    1    2    0    0 -0.84159641274E+00 -0.28191797400E+02 -0.29286149686E+02  0.40659123068E+02  0.00000000000E+00 0. -1.
         11    1    3    3    0    0 -0.59182386198E+01  0.68767304124E+01 -0.40924050841E+01  0.99530271354E+01  0.51100000000E-03 0. -1.
        -11    1    3    3    0    0  0.54398421490E+01  0.13712283163E+02  0.17258511194E+02  0.22704070143E+02  0.51100000000E-03 0.  1.
         12    1    3    3    0    0  0.13199928835E+01  0.76027838248E+01  0.16120043577E+02  0.17871779654E+02  0.00000000000E+00 0. -1.
</event>
<event>
 7    1  0.2966651E-011  0.5052886E+02  0.7816164E-02  0.1300439E+00
        -11   -1    0    0    0    0  0.00000000000E+00  0.00000000000E+00  0.45593999997E+02  0.45594000000E+02  0.51100000000E-03 0. -1.
         11   -1    0    0    0    0 -0.00000000000E+00 -0.00000000000E+00 -0.45593999997E+02  0.45594000000E+02  0.51100000000E-03 0.  1.
    9900012    2    1    2    0    0 -0.15593005888E+02 -0.13340343049E+02  0.35100699643E+02  0.50528859568E+02  0.29999999142E+02 0.  0.
         12    1    1    2    0    0  0.15593005888E+02  0.13340343049E+02 -0.35100699643E+02  0.40659140432E+02  0.00000000000E+00 0. -1.
         11    1    3    3    0    0  0.45652539898E+00 -0.35490775389E+00  0.17209451132E+02  0.17219163263E+02  0.51100000000E-03 0. -1.
        -11    1    3    3    0    0 -0.11360786976E+02 -0.76769357198E+01 -0.37690061523E+00  0.13716591307E+02  0.51100000000E-03 0.  1.
        -12    1    3    3    0    0 -0.46887443111E+01 -0.53084995755E+01  0.18268149126E+02  0.19593104998E+02  0.00000000000E+00 0.  1.
</event>
<event>
 7    1  0.2966651E-011  0.5052886E+02  0.7816164E-02  0.1300439E+00
        -11   -1    0    0    0    0  0.00000000000E+00  0.00000000000E+00  0.45593999997E+02  0.45594000000E+02  0.51100000000E-03 0. -1.
         11   -1    0    0    0    0 -0.00000000000E+00 -0.00000000000E+00 -0.45593999997E+02  0.45594000000E+02  0.51100000000E-03 0.  1.
    9900012    2    1    2    0    0 -0.30136757685E+02 -0.24428306724E+02  0.12173719572E+02  0.50528858576E+02  0.29999996126E+02 0.  0.
         12    1    1    2    0    0  0.30136757685E+02  0.24428306724E+02 -0.12173719572E+02  0.40659141424E+02  0.00000000000E+00 0. -1.
         11    1    3    3    0    0  0.45500764106E+01 -0.50170707918E+01 -0.16048358150E+01  0.69605813641E+01  0.51100000000E-03 0. -1.
        -11    1    3    3    0    0 -0.15186547746E+02 -0.11797865040E+02  0.14765243694E+01  0.19287326834E+02  0.51100000000E-03 0.  1.
         12    1    3    3    0    0 -0.19500286349E+02 -0.76133708924E+01  0.12302031018E+02  0.24280950377E+02  0.00000000000E+00 0. -1.
</event>
<event>
 7    1  0.2966651E-011  0.5052887E+02  0.7816164E-02  0.1300439E+00
        -11   -1    0    0    0    0  0.00000000000E+00  0.00000000000E+00  0.45593999997E+02  0.45594000000E+02  0.51100000000E-03 0.  1.
         11   -1    0    0    0    0 -0.00000000000E+00 -0.00000000000E+00 -0.45593999997E+02  0.45594000000E+02  0.51100000000E-03 0. -1.
    9900012    2    1    2    0    0  0.21480551709E+02 -0.30467784203E+02  0.16231604935E+02  0.50528868496E+02  0.30000026279E+02 0.  0.
         12    1    1    2    0    0 -0.21480551709E+02  0.30467784203E+02 -0.16231604935E+02  0.40659131504E+02  0.00000000000E+00 0. -1.
         11    1    3    3    0    0  0.23885421276E+02 -0.17996084440E+02  0.10161492635E+01  0.29923318070E+02  0.51100000000E-03 0. -1.
        -11    1    3    3    0    0 -0.15919836033E+00 -0.82442445254E+01  0.12844917482E+02  0.15263840188E+02  0.51100000000E-03 0.  1.
         12    1    3    3    0    0 -0.22456712074E+01 -0.42274552378E+01  0.23705381895E+01  0.53417102380E+01  0.00000000000E+00 0. -1.
</event>
<event>
 7    1  0.2966651E-011  0.5052886E+02  0.7816164E-02  0.1300439E+00
        -11   -1    0    0    0    0  0.00000000000E+00  0.00000000000E+00  0.45593999997E+02  0.45594000000E+02  0.51100000000E-03 0.  1.
         11   -1    0    0    0    0 -0.00000000000E+00 -0.00000000000E+00 -0.45593999997E+02  0.45594000000E+02  0.51100000000E-03 0. -1.
    9900012    2    1    2    0    0  0.11066795943E+02  0.28095769226E+02  0.27227180288E+02  0.50528861209E+02  0.30000004130E+02 0.  0.
         12    1    1    2    0    0 -0.11066795943E+02 -0.28095769226E+02 -0.27227180288E+02  0.40659138791E+02  0.00000000000E+00 0. -1.
         11    1    3    3    0    0  0.16347546029E+01  0.22403050571E+02  0.28764931511E+02  0.36496443424E+02  0.51100000000E-03 0.  1.
        -11    1    3    3    0    0  0.47769599911E+01  0.67818499449E+01  0.14122735493E+01  0.84147104687E+01  0.51100000000E-03 0. -1.
         12    1    3    3    0    0  0.46550813488E+01 -0.10891312903E+01 -0.29500247722E+01  0.56177073160E+01  0.00000000000E+00 0. -1.
</event>
<event>
 7    1  0.2966651E-011  0.5052887E+02  0.7816164E-02  0.1300439E+00
        -11   -1    0    0    0    0  0.00000000000E+00  0.00000000000E+00  0.45593999997E+02  0.45594000000E+02  0.51100000000E-03 0.  1.
         11   -1    0    0    0    0 -0.00000000000E+00 -0.00000000000E+00 -0.45593999997E+02  0.45594000000E+02  0.51100000000E-03 0. -1.
    9900012    2    1    2    0    0  0.20625678022E+02  0.90821023021E+01  0.33841713144E+02  0.50528871571E+02  0.30000035626E+02 0.  0.
         12    1    1    2    0    0 -0.20625678022E+02 -0.90821023021E+01 -0.33841713144E+02  0.40659128429E+02  0.00000000000E+00 0. -1.
         11    1    3    3    0    0 -0.49573662151E+01  0.17347748801E+01  0.16648936735E+02  0.17457720881E+02  0.51100000000E-03 0. -1.
        -11    1    3    3    0    0  0.25315979334E+02  0.77339737552E+01  0.14195122551E+02  0.30036888390E+02  0.51100000000E-03 0.  1.
        -12    1    3    3    0    0  0.26706490367E+00 -0.38664633330E+00  0.29976538581E+01  0.30342622996E+01  0.00000000000E+00 0.  1.
</event>
<event>
 7    1  0.2966651E-011  0.5052886E+02  0.7816164E-02  0.1300439E+00
        -11   -1    0    0    0    0  0.00000000000E+00  0.00000000000E+00  0.45593999997E+02  0.45594000000E+02  0.51100000000E-03 0.  1.
         11   -1    0    0    0    0 -0.00000000000E+00 -0.00000000000E+00 -0.45593999997E+02  0.45594000000E+02  0.51100000000E-03 0. -1.
    9900012    2    1    2    0    0  0.17787164507E+02  0.85092851122E+01  0.35558048969E+02  0.50528855877E+02  0.29999987925E+02 0.  0.
         12    1    1    2    0    0 -0.17787164507E+02 -0.85092851122E+01 -0.35558048969E+02  0.40659144123E+02  0.00000000000E+00 0. -1.
         11    1    3    3    0    0  0.10399972934E+02  0.11121835316E+02  0.44893487536E+01  0.15874788512E+02  0.51100000000E-03 0. -1.
        -11    1    3    3    0    0  0.10927039292E+02 -0.68632988027E+00  0.18981532317E+02  0.21912777227E+02  0.51100000000E-03 0.  1.
         12    1    3    3    0    0 -0.35398477196E+01 -0.19262203231E+01  0.12087167898E+02  0.12741290139E+02  0.00000000000E+00 0. -1.
</event>
<event>
 7    1  0.2966651E-011  0.5052882E+02  0.7816164E-02  0.1300439E+00
        -11   -1    0    0    0    0  0.00000000000E+00  0.00000000000E+00  0.45593999997E+02  0.45594000000E+02  0.51100000000E-03 0.  1.
         11   -1    0    0    0    0 -0.00000000000E+00 -0.00000000000E+00 -0.45593999997E+02  0.45594000000E+02  0.51100000000E-03 0. -1.
    9900012    2    1    2    0    0  0.33404790450E+02 -0.71498234298E+01  0.22049236777E+02  0.50528820932E+02  0.29999881704E+02 0.  0.
         12    1    1    2    0    0 -0.33404790450E+02  0.71498234298E+01 -0.22049236777E+02  0.40659179068E+02  0.00000000000E+00 0. -1.
         11    1    3    3    0    0  0.19526200873E+02  0.32739216706E+01  0.20162598034E+02  0.28258121724E+02  0.51100000000E-03 0. -1.
        -11    1    3    3    0    0  0.16658866911E+02 -0.97965161097E+01  0.19139137041E+01  0.19420418136E+02  0.51100000000E-03 0.  1.
         12    1    3    3    0    0 -0.27802773345E+01 -0.62722899072E+00 -0.27274960806E-01  0.28502810716E+01  0.00000000000E+00 0. -1.
</event>
<event>
 7    1  0.2966651E-011  0.5052886E+02  0.7816164E-02  0.1300439E+00
        -11   -1    0    0    0    0  0.00000000000E+00  0.00000000000E+00  0.45593999997E+02  0.45594000000E+02  0.51100000000E-03 0.  1.
         11   -1    0    0    0    0 -0.00000000000E+00 -0.00000000000E+00 -0.45593999997E+02  0.45594000000E+02  0.51100000000E-03 0. -1.
    9900012    2    1    2    0    0 -0.12126461692E+02 -0.12593265711E+02  0.36708637772E+02  0.50528862017E+02  0.30000006588E+02 0.  0.
         12    1    1    2    0    0  0.12126461692E+02  0.12593265711E+02 -0.36708637772E+02  0.40659137983E+02  0.00000000000E+00 0. -1.
         11    1    3    3    0    0  0.73922486269E+01 -0.85740116011E+01  0.53092851019E+01  0.12503900322E+02  0.51100000000E-03 0. -1.
        -11    1    3    3    0    0 -0.14418716870E+02 -0.41655156186E+01  0.28359295251E+02  0.32085830891E+02  0.51100000000E-03 0.  1.
        -12    1    3    3    0    0 -0.50999934491E+01  0.14626150912E+00  0.30400574187E+01  0.59391308050E+01  0.00000000000E+00 0.  1.
</event>
<event>
 7    1  0.2966651E-011  0.5052887E+02  0.7816164E-02  0.1300439E+00
        -11   -1    0    0    0    0  0.00000000000E+00  0.00000000000E+00  0.45593999997E+02  0.45594000000E+02  0.51100000000E-03 0. -1.
         11   -1    0    0    0    0 -0.00000000000E+00 -0.00000000000E+00 -0.45593999997E+02  0.45594000000E+02  0.51100000000E-03 0.  1.
    9900012    2    1    2    0    0  0.34663503569E+02  0.35121613190E+00 -0.21248136097E+02  0.50528866708E+02  0.30000020846E+02 0.  0.
         12    1    1    2    0    0 -0.34663503569E+02 -0.35121613190E+00  0.21248136097E+02  0.40659133292E+02  0.00000000000E+00 0. -1.
         11    1    3    3    0    0 -0.13842658315E+01 -0.16362854703E+00  0.23711335970E+01  0.27504983166E+01  0.51100000000E-03 0. -1.
        -11    1    3    3    0    0  0.36430917949E+02 -0.10946004124E+01 -0.26077196246E+02  0.44815511789E+02  0.51100000000E-03 0.  1.
        -12    1    3    3    0    0 -0.38314854826E+00  0.16094450913E+01  0.24579265515E+01  0.29628566021E+01  0.00000000000E+00 0.  1.
</event>
<event>
 7    1  0.2966651E-011  0.5052885E+02  0.7816164E-02  0.1300439E+00
        -11   -1    0    0    0    0  0.00000000000E+00  0.00000000000E+00  0.45593999997E+02  0.45594000000E+02  0.51100000000E-03 0.  1.
         11   -1    0    0    0    0 -0.00000000000E+00 -0.00000000000E+00 -0.45593999997E+02  0.45594000000E+02  0.51100000000E-03 0. -1.
    9900012    2    1    2    0    0  0.55439939045E+00  0.33195250818E+02  0.23471993916E+02  0.50528849321E+02  0.29999967996E+02 0.  0.
         12    1    1    2    0    0 -0.55439939045E+00 -0.33195250818E+02 -0.23471993916E+02  0.40659150679E+02  0.00000000000E+00 0. -1.
         11    1    3    3    0    0  0.23190251401E+00  0.11584693896E+02  0.17002506991E+02  0.20575328811E+02  0.51100000000E-03 0.  1.
        -11    1    3    3    0    0  0.17029023100E+01  0.21903893741E+02 -0.13464416142E+01  0.22011209475E+02  0.51100000000E-03 0. -1.
        -12    1    3    3    0    0 -0.13804054335E+01 -0.29333681805E+00  0.78159285388E+01  0.79423110348E+01  0.00000000000E+00 0.  1.
</event>
<event>
 7    1  0.2966651E-011  0.5052884E+02  0.7816164E-02  0.1300439E+00
        -11   -1    0    0    0    0  0.00000000000E+00  0.00000000000E+00  0.45593999997E+02  0.45594000000E+02  0.51100000000E-03 0.  1.
         11   -1    0    0    0    0 -0.00000000000E+00 -0.00000000000E+00 -0.45593999997E+02  0.45594000000E+02  0.51100000000E-03 0. -1.
    9900012    2    1    2    0    0 -0.27376812074E+02  0.29755143411E+02  0.42788562298E+01  0.50528843474E+02  0.29999950223E+02 0.  0.
         12    1    1    2    0    0  0.27376812074E+02 -0.29755143411E+02 -0.42788562298E+01  0.40659156526E+02  0.00000000000E+00 0. -1.
         11    1    3    3    0    0 -0.76474921469E+01  0.26625626630E+02 -0.98134375188E+00  0.27719508751E+02  0.51100000000E-03 0.  1.
        -11    1    3    3    0    0 -0.79449429746E+01 -0.21766199719E+01  0.54618102346E+01  0.98838840883E+01  0.51100000000E-03 0. -1.
        -12    1    3    3    0    0 -0.11784376953E+02  0.53061367536E+01 -0.20161025284E+00  0.12925450635E+02  0.00000000000E+00 0.  1.
</event>
<event>
 7    1  0.2966651E-011  0.5052886E+02  0.7816164E-02  0.1300439E+00
        -11   -1    0    0    0    0  0.00000000000E+00  0.00000000000E+00  0.45593999997E+02  0.45594000000E+02  0.51100000000E-03 0.  1.
         11   -1    0    0    0    0 -0.00000000000E+00 -0.00000000000E+00 -0.45593999997E+02  0.45594000000E+02  0.51100000000E-03 0. -1.
    9900012    2    1    2    0    0 -0.21817783591E+02  0.87035097953E+01  0.33187327629E+02  0.50528862297E+02  0.30000007438E+02 0.  0.
         12    1    1    2    0    0  0.21817783591E+02 -0.87035097953E+01 -0.33187327629E+02  0.40659137703E+02  0.00000000000E+00 0. -1.
         11    1    3    3    0    0 -0.23128913939E+01 -0.52279446336E+01  0.13116468769E+01  0.58652612459E+01  0.51100000000E-03 0. -1.
        -11    1    3    3    0    0 -0.66716780644E+01  0.16201811211E+02  0.22921697811E+02  0.28851589307E+02  0.51100000000E-03 0.  1.
        -12    1    3    3    0    0 -0.12833214133E+02 -0.22703567822E+01  0.89539829414E+01  0.15812011744E+02  0.00000000000E+00 0.  1.
</event>
<event>
 7    1  0.2966651E-011  0.5052887E+02  0.7816164E-02  0.1300439E+00
        -11   -1    0    0    0    0  0.00000000000E+00  0.00000000000E+00  0.45593999997E+02  0.45594000000E+02  0.51100000000E-03 0.  1.
         11   -1    0    0    0    0 -0.00000000000E+00 -0.00000000000E+00 -0.45593999997E+02  0.45594000000E+02  0.51100000000E-03 0. -1.
    9900012    2    1    2    0    0 -0.18212270214E+02 -0.35658860317E+02 -0.70656833408E+01  0.50528868350E+02  0.30000025836E+02 0.  0.
         12    1    1    2    0    0  0.18212270214E+02  0.35658860317E+02  0.70656833408E+01  0.40659131650E+02  0.00000000000E+00 0. -1.
         11    1    3    3    0    0  0.52274889128E+01 -0.40514640263E+01 -0.38158319155E+01  0.76355467754E+01  0.51100000000E-03 0. -1.
        -11    1    3    3    0    0 -0.25638476220E+02 -0.31301305692E+02 -0.24555493704E+01  0.40535576027E+02  0.51100000000E-03 0.  1.
        -12    1    3    3    0    0  0.21987170932E+01 -0.30609059887E+00 -0.79430205492E+00  0.23577455471E+01  0.00000000000E+00 0.  1.
</event>
<event>
 7    1  0.2966651E-011  0.5052884E+02  0.7816164E-02  0.1300439E+00
        -11   -1    0    0    0    0  0.00000000000E+00  0.00000000000E+00  0.45593999997E+02  0.45594000000E+02  0.51100000000E-03 0. -1.
         11   -1    0    0    0    0 -0.00000000000E+00 -0.00000000000E+00 -0.45593999997E+02  0.45594000000E+02  0.51100000000E-03 0.  1.
    9900012    2    1    2    0    0 -0.27182552052E+02 -0.19025647058E+02 -0.23501076783E+02  0.50528843688E+02  0.29999950874E+02 0.  0.
         12    1    1    2    0    0  0.27182552052E+02  0.19025647058E+02  0.23501076783E+02  0.40659156312E+02  0.00000000000E+00 0. -1.
         11    1    3    3    0    0 -0.45506706982E+01  0.53235030178E+01 -0.11007381715E+02  0.13046483843E+02  0.51100000000E-03 0. -1.
        -11    1    3    3    0    0 -0.18563094262E+02 -0.11578343801E+02 -0.87805361633E+01  0.23574230196E+02  0.51100000000E-03 0.  1.
         12    1    3    3    0    0 -0.40687870925E+01 -0.12770806275E+02 -0.37131589049E+01  0.13908129650E+02  0.00000000000E+00 0. -1.
</event>
<event>
 7    1  0.2966651E-011  0.5052884E+02  0.7816164E-02  0.1300439E+00
        -11   -1    0    0    0    0  0.00000000000E+00  0.00000000000E+00  0.45593999997E+02  0.45594000000E+02  0.51100000000E-03 0.  1.
         11   -1    0    0    0    0 -0.00000000000E+00 -0.00000000000E+00 -0.45593999997E+02  0.45594000000E+02  0.51100000000E-03 0. -1.
    9900012    2    1    2    0    0 -0.51598633834E+01  0.12940140305E+02  0.38198108459E+02  0.50528844683E+02  0.29999953897E+02 0.  0.
         12    1    1    2    0    0  0.51598633834E+01 -0.12940140305E+02 -0.38198108459E+02  0.40659155317E+02  0.00000000000E+00 0. -1.
         11    1    3    3    0    0 -0.69457161274E+01  0.11284646417E+02  0.15315734757E+01  0.13339112971E+02  0.51100000000E-03 0. -1.
        -11    1    3    3    0    0  0.20822581450E+01 -0.17468364402E+01  0.13293954987E+02  0.13568952649E+02  0.51100000000E-03 0.  1.
         12    1    3    3    0    0 -0.29640540103E+00  0.34023303281E+01  0.23372579997E+02  0.23620779063E+02  0.00000000000E+00 0. -1.
</event>
<event>
 7    1  0.2966651E-011  0.5052886E+02  0.7816164E-02  0.1300439E+00
        -11   -1    0    0    0    0  0.00000000000E+00  0.00000000000E+00  0.45593999997E+02  0.45594000000E+02  0.51100000000E-03 0. -1.
         11   -1    0    0    0    0 -0.00000000000E+00 -0.00000000000E+00 -0.45593999997E+02  0.45594000000E+02  0.51100000000E-03 0.  1.
    9900012    2    1    2    0    0  0.17579431821E+02 -0.36095280643E+02 -0.64233626924E+01  0.50528864543E+02  0.30000014264E+02 0.  0.
         12    1    1    2    0    0 -0.17579431821E+02  0.36095280643E+02  0.64233626924E+01  0.40659135457E+02  0.00000000000E+00 0. -1.
         11    1    3    3    0    0  0.11992205862E+02 -0.15670992592E+02  0.42478743843E+01  0.20185079819E+02  0.51100000000E-03 0. -1.
        -11    1    3    3    0    0 -0.34787161595E+01 -0.74497715989E+00 -0.76892508946E+01  0.84723690116E+01  0.51100000000E-03 0.  1.
        -12    1    3    3    0    0  0.90659421188E+01 -0.19679310892E+02 -0.29819861821E+01  0.21871415712E+02  0.00000000000E+00 0.  1.
</event>
<event>
 7    1  0.2966651E-011  0.5052885E+02  0.7816164E-02  0.1300439E+00
        -11   -1    0    0    0    0  0.00000000000E+00  0.00000000000E+00  0.45593999997E+02  0.45594000000E+02  0.51100000000E-03 0.  1.
         11   -1    0    0    0    0 -0.00000000000E+00 -0.00000000000E+00 -0.45593999997E+02  0.45594000000E+02  0.51100000000E-03 0. -1.
    9900012    2    1    2    0    0 -0.27418137122E+02 -0.25623456647E+02  0.15647693450E+02  0.50528854853E+02  0.29999984810E+02 0.  0.
         12    1    1    2    0    0  0.27418137122E+02  0.25623456647E+02 -0.15647693450E+02  0.40659145147E+02  0.00000000000E+00 0. -1.
         11    1    3    3    0    0 -0.11036081232E+02 -0.20249092376E+02  0.17062196255E+02  0.28686919882E+02  0.51100000000E-03 0.  1.
        -11    1    3    3    0    0 -0.16690882615E+02 -0.16062556837E+01  0.18198893116E+01  0.16866464276E+02  0.51100000000E-03 0. -1.
        -12    1    3    3    0    0  0.30882672488E+00 -0.37681085873E+01 -0.32343921165E+01  0.49754706948E+01  0.00000000000E+00 0.  1.
</event>
<event>
 7    1  0.2966651E-011  0.5052887E+02  0.7816164E-02  0.1300439E+00
        -11   -1    0    0    0    0  0.00000000000E+00  0.00000000000E+00  0.45593999997E+02  0.45594000000E+02  0.51100000000E-03 0. -1.
         11   -1    0    0    0    0 -0.00000000000E+00 -0.00000000000E+00 -0.45593999997E+02  0.45594000000E+02  0.51100000000E-03 0.  1.
    9900012    2    1    2    0    0  0.93531473729E+00  0.40539524680E+02 -0.29727429322E+01  0.50528867256E+02  0.30000022511E+02 0.  0.
         12    1    1    2    0    0 -0.93531473729E+00 -0.40539524680E+02  0.29727429322E+01  0.40659132744E+02  0.00000000000E+00 0. -1.
         11    1    3    3    0    0 -0.41000013312E+01  0.50247233386E+01  0.10233408144E+02  0.12115300163E+02  0.51100000000E-03 0. -1.
        -11    1    3    3    0    0  0.39428784639E+01  0.24946751952E+02 -0.74613672313E+01  0.26335503123E+02  0.51100000000E-03 0.  1.
         12    1    3    3    0    0  0.10924376046E+01  0.10568049390E+02 -0.57447838450E+01  0.12078063970E+02  0.00000000000E+00 0. -1.
</event>
<event>
 7    1  0.2966651E-011  0.5052887E+02  0.7816164E-02  0.1300439E+00
        -11   -1    0    0    0    0  0.00000000000E+00  0.00000000000E+00  0.45593999997E+02  0.45594000000E+02  0.51100000000E-03 0. -1.
         11   -1    0    0    0    0 -0.00000000000E+00 -0.00000000000E+00 -0.45593999997E+02  0.45594000000E+02  0.51100000000E-03 0.  1.
    9900012    2    1    2    0    0 -0.38274784560E+01  0.22428027133E+02 -0.33697158873E+02  0.50528874229E+02  0.30000043705E+02 0.  0.
         12    1    1    2    0    0  0.38274784560E+01 -0.22428027133E+02  0.33697158873E+02  0.40659125771E+02  0.00000000000E+00 0. -1.
         11    1    3    3    0    0  0.32677203742E+01  0.23796683435E+01  0.33341214558E+01  0.52399603064E+01  0.51100000000E-03 0. -1.
        -11    1    3    3    0    0  0.28039948077E+01  0.13762989573E+02 -0.16728681953E+02  0.21843330081E+02  0.51100000000E-03 0.  1.
         12    1    3    3    0    0 -0.98991936379E+01  0.62853692163E+01 -0.20302598375E+02  0.23445583841E+02  0.00000000000E+00 0. -1.
</event>
<event>
 7    1  0.2966651E-011  0.5052886E+02  0.7816164E-02  0.1300439E+00
        -11   -1    0    0    0    0  0.00000000000E+00  0.00000000000E+00  0.45593999997E+02  0.45594000000E+02  0.51100000000E-03 0. -1.
         11   -1    0    0    0    0 -0.00000000000E+00 -0.00000000000E+00 -0.45593999997E+02  0.45594000000E+02  0.51100000000E-03 0.  1.
    9900012    2    1    2    0    0  0.11197072485E+02  0.24870014531E+02 -0.30154160678E+02  0.50528862513E+02  0.30000008094E+02 0.  0.
         12    1    1    2    0    0 -0.11197072485E+02 -0.24870014531E+02  0.30154160678E+02  0.40659137487E+02  0.00000000000E+00 0. -1.
         11    1    3    3    0    0 -0.79410423469E+00  0.18272154061E+02 -0.27673996382E+01  0.18497586777E+02  0.51100000000E-03 0. -1.
        -11    1    3    3    0    0  0.12361798169E+02  0.72847474752E+01 -0.20062090554E+02  0.24665138910E+02  0.51100000000E-03 0.  1.
        -12    1    3    3    0    0 -0.37062144929E+00 -0.68688700572E+00 -0.73246704856E+01  0.73661368260E+01  0.00000000000E+00 0.  1.
</event>
<event>
 7    1  0.2966651E-011  0.5052886E+02  0.7816164E-02  0.1300439E+00
        -11   -1    0    0    0    0  0.00000000000E+00  0.00000000000E+00  0.45593999997E+02  0.45594000000E+02  0.51100000000E-03 0.  1.
         11   -1    0    0    0    0 -0.00000000000E+00 -0.00000000000E+00 -0.45593999997E+02  0.45594000000E+02  0.51100000000E-03 0. -1.
    9900012    2    1    2    0    0  0.95319990501E+01 -0.18059632779E+02  0.35159013932E+02  0.50528860773E+02  0.30000002807E+02 0.  0.
         12    1    1    2    0    0 -0.95319990501E+01  0.18059632779E+02 -0.35159013932E+02  0.40659139227E+02  0.00000000000E+00 0. -1.
         11    1    3    3    0    0  0.40006202333E+01 -0.83041711096E+01  0.58904850078E+01  0.10939014305E+02  0.51100000000E-03 0. -1.
        -11    1    3    3    0    0 -0.93055440806E+01 -0.98477946517E+00  0.89884578187E+01  0.12975180748E+02  0.51100000000E-03 0.  1.
        -12    1    3    3    0    0  0.14836922897E+02 -0.87706822040E+01  0.20280071105E+02  0.26614665721E+02  0.00000000000E+00 0.  1.
</event>
<event>
 7    1  0.2966651E-011  0.5052885E+02  0.7816164E-02  0.1300439E+00
        -11   -1    0    0    0    0  0.00000000000E+00  0.00000000000E+00  0.45593999997E+02  0.45594000000E+02  0.51100000000E-03 0.  1.
         11   -1    0    0    0    0 -0.00000000000E+00 -0.00000000000E+00 -0.45593999997E+02  0.45594000000E+02  0.51100000000E-03 0. -1.
    9900012    2    1    2    0    0 -0.20058051305E+01 -0.77827721823E+01  0.39856892387E+02  0.50528847675E+02  0.29999962992E+02 0.  0.
         12    1    1    2    0    0  0.20058051305E+01  0.77827721823E+01 -0.39856892387E+02  0.40659152325E+02  0.00000000000E+00 0. -1.
         11    1    3    3    0    0  0.28127934274E+01 -0.78186392396E+01  0.22522229345E+01  0.86090321658E+01  0.51100000000E-03 0. -1.
        -11    1    3    3    0    0 -0.11153672383E+02 -0.30821959682E+00  0.30048965876E+02  0.32053701151E+02  0.51100000000E-03 0.  1.
        -12    1    3    3    0    0  0.63350738256E+01  0.34408665411E+00  0.75557035760E+01  0.98661143582E+01  0.00000000000E+00 0.  1.
</event>
<event>
 7    1  0.2966651E-011  0.5052887E+02  0.7816164E-02  0.1300439E+00
        -11   -1    0    0    0    0  0.00000000000E+00  0.00000000000E+00  0.45593999997E+02  0.45594000000E+02  0.51100000000E-03 0.  1.
         11   -1    0    0    0    0 -0.00000000000E+00 -0.00000000000E+00 -0.45593999997E+02  0.45594000000E+02  0.51100000000E-03 0. -1.
    9900012    2    1    2    0    0 -0.20073150338E+02 -0.94893045824E+01  0.34061517310E+02  0.50528865387E+02  0.30000016832E+02 0.  0.
         12    1    1    2    0    0  0.20073150338E+02  0.94893045824E+01 -0.34061517310E+02  0.40659134613E+02  0.00000000000E+00 0. -1.
         11    1    3    3    0    0  0.19943109710E+01  0.33576328820E+01  0.14216441922E+02  0.14743072814E+02  0.51100000000E-03 0. -1.
        -11    1    3    3    0    0 -0.94747037342E+01 -0.14244928908E+02  0.11265802704E+02  0.20484294502E+02  0.51100000000E-03 0.  1.
         12    1    3    3    0    0 -0.12592757575E+02  0.13979914431E+01  0.85792726842E+01  0.15301498071E+02  0.00000000000E+00 0. -1.
</event>
<event>
 7    1  0.2966651E-011  0.5052886E+02  0.7816164E-02  0.1300439E+00
        -11   -1    0    0    0    0  0.00000000000E+00  0.00000000000E+00  0.45593999997E+02  0.45594000000E+02  0.51100000000E-03 0.  1.
         11   -1    0    0    0    0 -0.00000000000E+00 -0.00000000000E+00 -0.45593999997E+02  0.45594000000E+02  0.51100000000E-03 0. -1.
    9900012    2    1    2    0    0  0.12998274179E+02  0.79932063807E+01  0.37687126386E+02  0.50528856193E+02  0.29999988885E+02 0.  0.
         12    1    1    2    0    0 -0.12998274179E+02 -0.79932063807E+01 -0.37687126386E+02  0.40659143807E+02  0.00000000000E+00 0. -1.
         11    1    3    3    0    0  0.12413020374E+01  0.75251708647E+01 -0.14322658377E+01  0.77601812467E+01  0.51100000000E-03 0. -1.
        -11    1    3    3    0    0  0.61563801261E+01  0.55419368670E+01  0.28867406141E+02  0.30032336207E+02  0.51100000000E-03 0.  1.
        -12    1    3    3    0    0  0.56005920151E+01 -0.50739013510E+01  0.10251986083E+02  0.12736338739E+02  0.00000000000E+00 0.  1.
</event>
<event>
 7    1  0.2966651E-011  0.5052886E+02  0.7816164E-02  0.1300439E+00
        -11   -1    0    0    0    0  0.00000000000E+00  0.00000000000E+00  0.45593999997E+02  0.45594000000E+02  0.51100000000E-03 0.  1.
         11   -1    0    0    0    0 -0.00000000000E+00 -0.00000000000E+00 -0.45593999997E+02  0.45594000000E+02  0.51100000000E-03 0. -1.
    9900012    2    1    2    0    0 -0.13383754596E+01  0.37311890182E+02  0.16099598547E+02  0.50528862390E+02  0.30000007721E+02 0.  0.
         12    1    1    2    0    0  0.13383754596E+01 -0.37311890182E+02 -0.16099598547E+02  0.40659137610E+02  0.00000000000E+00 0. -1.
         11    1    3    3    0    0 -0.12867213191E+02  0.12998292807E+02  0.43098548505E+00  0.18294986744E+02  0.51100000000E-03 0. -1.
        -11    1    3    3    0    0  0.96998607895E+00  0.11359336590E+02  0.53587053888E+01  0.12597266548E+02  0.51100000000E-03 0.  1.
         12    1    3    3    0    0  0.10558851652E+02  0.12954260784E+02  0.10309907674E+02  0.19636609099E+02  0.00000000000E+00 0. -1.
</event>
<event>
 7    1  0.2966651E-011  0.5052885E+02  0.7816164E-02  0.1300439E+00
        -11   -1    0    0    0    0  0.00000000000E+00  0.00000000000E+00  0.45593999997E+02  0.45594000000E+02  0.51100000000E-03 0.  1.
         11   -1    0    0    0    0 -0.00000000000E+00 -0.00000000000E+00 -0.45593999997E+02  0.45594000000E+02  0.51100000000E-03 0. -1.
    9900012    2    1    2    0    0 -0.16100571184E+02  0.34293813772E+02  0.14760499921E+02  0.50528850803E+02  0.29999972502E+02 0.  0.
         12    1    1    2    0    0  0.16100571184E+02 -0.34293813772E+02 -0.14760499921E+02  0.40659149197E+02  0.00000000000E+00 0. -1.
         11    1    3    3    0    0  0.55126130539E+01  0.32813264288E+01 -0.72781783300E+00  0.64564483173E+01  0.51100000000E-03 0. -1.
        -11    1    3    3    0    0 -0.23630794523E+02  0.23056574234E+02  0.13151610577E+02  0.35538499212E+02  0.51100000000E-03 0.  1.
        -12    1    3    3    0    0  0.20176102849E+01  0.79559131092E+01  0.23367071769E+01  0.85339032742E+01  0.00000000000E+00 0.  1.
</event>
<event>
 7    1  0.2966651E-011  0.5052887E+02  0.7816164E-02  0.1300439E+00
        -11   -1    0    0    0    0  0.00000000000E+00  0.00000000000E+00  0.45593999997E+02  0.45594000000E+02  0.51100000000E-03 0.  1.
         11   -1    0    0    0    0 -0.00000000000E+00 -0.00000000000E+00 -0.45593999997E+02  0.45594000000E+02  0.51100000000E-03 0. -1.
    9900012    2    1    2    0    0  0.28928023850E+02 -0.48685052204E+01  0.28153719077E+02  0.50528870584E+02  0.30000032627E+02 0.  0.
         12    1    1    2    0    0 -0.28928023850E+02  0.48685052204E+01 -0.28153719077E+02  0.40659129416E+02  0.00000000000E+00 0. -1.
         11    1    3    3    0    0  0.19242236701E+02  0.65876052295E+01  0.60798025734E+01  0.21227911238E+02  0.51100000000E-03 0. -1.
        -11    1    3    3    0    0  0.10339516167E+02 -0.63257593902E+01  0.85817254112E+01  0.14851492778E+02  0.51100000000E-03 0.  1.
         12    1    3    3    0    0 -0.65372901823E+00 -0.51303510597E+01  0.13492191093E+02  0.14449466568E+02  0.00000000000E+00 0. -1.
</event>
<event>
 7    1  0.2966651E-011  0.5052886E+02  0.7816164E-02  0.1300439E+00
        -11   -1    0    0    0    0  0.00000000000E+00  0.00000000000E+00  0.45593999997E+02  0.45594000000E+02  0.51100000000E-03 0.  1.
         11   -1    0    0    0    0 -0.00000000000E+00 -0.00000000000E+00 -0.45593999997E+02  0.45594000000E+02  0.51100000000E-03 0. -1.
    9900012    2    1    2    0    0 -0.12223669235E+02 -0.43685792258E+01  0.38531327965E+02  0.50528858239E+02  0.29999995104E+02 0.  0.
         12    1    1    2    0    0  0.12223669235E+02  0.43685792258E+01 -0.38531327965E+02  0.40659141761E+02  0.00000000000E+00 0. -1.
         11    1    3    3    0    0  0.37430288831E+01 -0.58390601362E+01  0.29472350685E-01  0.69358314119E+01  0.51100000000E-03 0. -1.
        -11    1    3    3    0    0 -0.14715971333E+02 -0.28957349289E+01  0.34169823804E+02  0.37316510449E+02  0.51100000000E-03 0.  1.
        -12    1    3    3    0    0 -0.12507267849E+01  0.43662158392E+01  0.43320318101E+01  0.62765163785E+01  0.00000000000E+00 0.  1.
</event>
<event>
 7    1  0.2966651E-011  0.5052887E+02  0.7816164E-02  0.1300439E+00
        -11   -1    0    0    0    0  0.00000000000E+00  0.00000000000E+00  0.45593999997E+02  0.45594000000E+02  0.51100000000E-03 0.  1.
         11   -1    0    0    0    0 -0.00000000000E+00 -0.00000000000E+00 -0.45593999997E+02  0.45594000000E+02  0.51100000000E-03 0. -1.
    9900012    2    1    2    0    0 -0.39710175553E+02  0.69068019253E+01  0.53444642036E+01  0.50528865074E+02  0.30000015878E+02 0.  0.
         12    1    1    2    0    0  0.39710175553E+02 -0.69068019253E+01 -0.53444642036E+01  0.40659134926E+02  0.00000000000E+00 0. -1.
         11    1    3    3    0    0 -0.50424817030E+01  0.11530636613E+02 -0.55854200804E+01  0.13768773372E+02  0.51100000000E-03 0. -1.
        -11    1    3    3    0    0 -0.16625579844E+02 -0.16318195054E+01  0.38093394382E+01  0.17134287475E+02  0.51100000000E-03 0.  1.
         12    1    3    3    0    0 -0.18042114006E+02 -0.29920151823E+01  0.71205448458E+01  0.19625804227E+02  0.00000000000E+00 0. -1.
</event>
<event>
 7    1  0.2966651E-011  0.5052885E+02  0.7816164E-02  0.1300439E+00
        -11   -1    0    0    0    0  0.00000000000E+00  0.00000000000E+00  0.45593999997E+02  0.45594000000E+02  0.51100000000E-03 0. -1.
         11   -1    0    0    0    0 -0.00000000000E+00 -0.00000000000E+00 -0.45593999997E+02  0.45594000000E+02  0.51100000000E-03 0.  1.
    9900012    2    1    2    0    0 -0.21118540454E+02  0.50397567700E+01  0.34376947406E+02  0.50528850818E+02  0.29999972546E+02 0.  0.
         12    1    1    2    0    0  0.21118540454E+02 -0.50397567700E+01 -0.34376947406E+02  0.40659149182E+02  0.00000000000E+00 0. -1.
         11    1    3    3    0    0  0.21063960787E+01  0.58359173035E+01  0.14301391587E+02  0.15589247473E+02  0.51100000000E-03 0. -1.
        -11    1    3    3    0    0 -0.13814472737E+02 -0.79497430098E+01  0.72889883799E+01  0.17526192478E+02  0.51100000000E-03 0.  1.
         12    1    3    3    0    0 -0.94104637965E+01  0.71535824763E+01  0.12786567440E+02  0.17413410867E+02  0.00000000000E+00 0. -1.
</event>
<event>
 7    1  0.2966651E-011  0.5052886E+02  0.7816164E-02  0.1300439E+00
        -11   -1    0    0    0    0  0.00000000000E+00  0.00000000000E+00  0.45593999997E+02  0.45594000000E+02  0.51100000000E-03 0. -1.
         11   -1    0    0    0    0 -0.00000000000E+00 -0.00000000000E+00 -0.45593999997E+02  0.45594000000E+02  0.51100000000E-03 0.  1.
    9900012    2    1    2    0    0 -0.34678243008E+02 -0.20889980719E+02  0.37675135050E+01  0.50528856003E+02  0.29999988306E+02 0.  0.
         12    1    1    2    0    0  0.34678243008E+02  0.20889980719E+02 -0.37675135050E+01  0.40659143997E+02  0.00000000000E+00 0. -1.
         11    1    3    3    0    0 -0.15309646145E+02 -0.12566624361E+02  0.14468033312E+02  0.24528132850E+02  0.51100000000E-03 0. -1.
        -11    1    3    3    0    0 -0.19619042804E+02 -0.83967421055E+01 -0.72469567877E+01  0.22537313537E+02  0.51100000000E-03 0.  1.
         12    1    3    3    0    0  0.25044594060E+00  0.73385747353E-01 -0.34535630195E+01  0.34634096158E+01  0.00000000000E+00 0. -1.
</event>
<event>
 7    1  0.2966651E-011  0.5052889E+02  0.7816164E-02  0.1300439E+00
        -11   -1    0    0    0    0  0.00000000000E+00  0.00000000000E+00  0.45593999997E+02  0.45594000000E+02  0.51100000000E-03 0.  1.
         11   -1    0    0    0    0 -0.00000000000E+00 -0.00000000000E+00 -0.45593999997E+02  0.45594000000E+02  0.51100000000E-03 0. -1.
    9900012    2    1    2    0    0 -0.11178635007E+01 -0.30551885895E+02  0.26804779664E+02  0.50528885851E+02  0.30000079033E+02 0.  0.
         12    1    1    2    0    0  0.11178635007E+01  0.30551885895E+02 -0.26804779664E+02  0.40659114149E+02  0.00000000000E+00 0. -1.
         11    1    3    3    0    0 -0.14377450381E+02 -0.10939911515E+02  0.16528310737E+02  0.24486277780E+02  0.51100000000E-03 0. -1.
        -11    1    3    3    0    0  0.63832792026E+01 -0.75486396073E+01  0.57580412542E+01  0.11440421874E+02  0.51100000000E-03 0.  1.
         12    1    3    3    0    0  0.68763076781E+01 -0.12063334773E+02  0.45184276725E+01  0.14602186198E+02  0.00000000000E+00 0. -1.
</event>
<event>
 7    1  0.2966651E-011  0.5052885E+02  0.7816164E-02  0.1300439E+00
        -11   -1    0    0    0    0  0.00000000000E+00  0.00000000000E+00  0.45593999997E+02  0.45594000000E+02  0.51100000000E-03 0.  1.
         11   -1    0    0    0    0 -0.00000000000E+00 -0.00000000000E+00 -0.45593999997E+02  0.45594000000E+02  0.51100000000E-03 0. -1.
    9900012    2    1    2    0    0 -0.10358890719E+02 -0.32462001427E+01  0.39183186629E+02  0.50528849164E+02  0.29999967519E+02 0.  0.
         12    1    1    2    0    0  0.10358890719E+02  0.32462001427E+01 -0.39183186629E+02  0.40659150836E+02  0.00000000000E+00 0. -1.
         11    1    3    3    0    0 -0.37853593362E+01 -0.44850041913E+01  0.32433334213E+02  0.32960057287E+02  0.51100000000E-03 0.  1.
        -11    1    3    3    0    0 -0.50562209332E+01  0.78741868554E+01  0.31838168641E+01  0.98845778283E+01  0.51100000000E-03 0. -1.
         12    1    3    3    0    0 -0.15173104496E+01 -0.66353828069E+01  0.35660355519E+01  0.76842140490E+01  0.00000000000E+00 0. -1.
</event>
<event>
 7    1  0.2966651E-011  0.5052887E+02  0.7816164E-02  0.1300439E+00
        -11   -1    0    0    0    0  0.00000000000E+00  0.00000000000E+00  0.45593999997E+02  0.45594000000E+02  0.51100000000E-03 0.  1.
         11   -1    0    0    0    0 -0.00000000000E+00 -0.00000000000E+00 -0.45593999997E+02  0.45594000000E+02  0.51100000000E-03 0. -1.
    9900012    2    1    2    0    0  0.20510664090E+02  0.15574587886E+02  0.31462832954E+02  0.50528868348E+02  0.30000025831E+02 0.  0.
         12    1    1    2    0    0 -0.20510664090E+02 -0.15574587886E+02 -0.31462832954E+02  0.40659131652E+02  0.00000000000E+00 0. -1.
         11    1    3    3    0    0  0.10561439304E+02  0.19606018800E+01 -0.18843691154E+01  0.10905906983E+02  0.51100000000E-03 0. -1.
        -11    1    3    3    0    0  0.20256256062E+01  0.87892745929E+00  0.18103111825E+02  0.18237278595E+02  0.51100000000E-03 0.  1.
        -12    1    3    3    0    0  0.79235991795E+01  0.12735058547E+02  0.15244090244E+02  0.21385682770E+02  0.00000000000E+00 0.  1.
</event>
<event>
 7    1  0.2966651E-011  0.5052883E+02  0.7816164E-02  0.1300439E+00
        -11   -1    0    0    0    0  0.00000000000E+00  0.00000000000E+00  0.45593999997E+02  0.45594000000E+02  0.51100000000E-03 0.  1.
         11   -1    0    0    0    0 -0.00000000000E+00 -0.00000000000E+00 -0.45593999997E+02  0.45594000000E+02  0.51100000000E-03 0. -1.
    9900012    2    1    2    0    0  0.15355738364E+02 -0.20961375860E+02  0.31272830942E+02  0.50528832106E+02  0.29999915671E+02 0.  0.
         12    1    1    2    0    0 -0.15355738364E+02  0.20961375860E+02 -0.31272830942E+02  0.40659167894E+02  0.00000000000E+00 0. -1.
         11    1    3    3    0    0  0.35478084607E+00  0.13043681791E+01  0.13196181521E+02  0.13265234743E+02  0.51100000000E-03 0. -1.
        -11    1    3    3    0    0  0.55878280968E+01 -0.11975649157E+02 -0.14214215916E+01  0.13291366941E+02  0.51100000000E-03 0.  1.
        -12    1    3    3    0    0  0.94131294212E+01 -0.10290094883E+02  0.19498071013E+02  0.23972230422E+02  0.00000000000E+00 0.  1.
</event>
<event>
 7    1  0.2966651E-011  0.5052886E+02  0.7816164E-02  0.1300439E+00
        -11   -1    0    0    0    0  0.00000000000E+00  0.00000000000E+00  0.45593999997E+02  0.45594000000E+02  0.51100000000E-03 0.  1.
         11   -1    0    0    0    0 -0.00000000000E+00 -0.00000000000E+00 -0.45593999997E+02  0.45594000000E+02  0.51100000000E-03 0. -1.
    9900012    2    1    2    0    0  0.37390551289E+02  0.13596521286E+02 -0.83813612961E+01  0.50528856699E+02  0.29999990422E+02 0.  0.
         12    1    1    2    0    0 -0.37390551289E+02 -0.13596521286E+02  0.83813612961E+01  0.40659143301E+02  0.00000000000E+00 0. -1.
         11    1    3    3    0    0 -0.20377176732E+01 -0.34187326167E+01  0.24860799934E+01  0.46926133460E+01  0.51100000000E-03 0. -1.
        -11    1    3    3    0    0  0.10519422182E+02 -0.62957294625E+00 -0.40433040204E+01  0.11287289879E+02  0.51100000000E-03 0.  1.
         12    1    3    3    0    0  0.28908846780E+02  0.17644826849E+02 -0.68241372691E+01  0.34548953474E+02  0.00000000000E+00 0. -1.
</event>
<event>
 7    1  0.2966651E-011  0.5052886E+02  0.7816164E-02  0.1300439E+00
        -11   -1    0    0    0    0  0.00000000000E+00  0.00000000000E+00  0.45593999997E+02  0.45594000000E+02  0.51100000000E-03 0. -1.
         11   -1    0    0    0    0 -0.00000000000E+00 -0.00000000000E+00 -0.45593999997E+02  0.45594000000E+02  0.51100000000E-03 0.  1.
    9900012    2    1    2    0    0 -0.12303888580E+02  0.29279312474E+02 -0.25387036286E+02  0.50528862964E+02  0.30000009465E+02 0.  0.
         12    1    1    2    0    0  0.12303888580E+02 -0.29279312474E+02  0.25387036286E+02  0.40659137036E+02  0.00000000000E+00 0. -1.
         11    1    3    3    0    0 -0.30575214387E+01 -0.54573033638E+01 -0.54685930905E+01  0.83087970250E+01  0.51100000000E-03 0. -1.
        -11    1    3    3    0    0 -0.85169632996E+01  0.34654570622E+02 -0.20611489059E+02  0.41210574012E+02  0.51100000000E-03 0.  1.
        -12    1    3    3    0    0 -0.72940384146E+00  0.82045215596E-01  0.69304586382E+00  0.10094919270E+01  0.00000000000E+00 0.  1.
</event>
<event>
 7    1  0.2966651E-011  0.5052886E+02  0.7816164E-02  0.1300439E+00
        -11   -1    0    0    0    0  0.00000000000E+00  0.00000000000E+00  0.45593999997E+02  0.45594000000E+02  0.51100000000E-03 0.  1.
         11   -1    0    0    0    0 -0.00000000000E+00 -0.00000000000E+00 -0.45593999997E+02  0.45594000000E+02  0.51100000000E-03 0. -1.
    9900012    2    1    2    0    0  0.20693047896E+02 -0.90353823242E+01  0.33813092407E+02  0.50528861014E+02  0.30000003537E+02 0.  0.
         12    1    1    2    0    0 -0.20693047896E+02  0.90353823242E+01 -0.33813092407E+02  0.40659138986E+02  0.00000000000E+00 0. -1.
         11    1    3    3    0    0 -0.99993710324E+00 -0.43679308032E+01  0.23707323985E+02  0.24127078242E+02  0.51100000000E-03 0. -1.
        -11    1    3    3    0    0  0.69037341282E+01  0.23822580098E+01  0.61493156804E+01  0.95472918536E+01  0.51100000000E-03 0.  1.
         12    1    3    3    0    0  0.14789250871E+02 -0.70497095308E+01  0.39564527417E+01  0.16854490918E+02  0.00000000000E+00 0. -1.
</event>
<event>
 7    1  0.2966651E-011  0.5052886E+02  0.7816164E-02  0.1300439E+00
        -11   -1    0    0    0    0  0.00000000000E+00  0.00000000000E+00  0.45593999997E+02  0.45594000000E+02  0.51100000000E-03 0. -1.
         11   -1    0    0    0    0 -0.00000000000E+00 -0.00000000000E+00 -0.45593999997E+02  0.45594000000E+02  0.51100000000E-03 0.  1.
    9900012    2    1    2    0    0 -0.88159836917E+01 -0.31472456422E+02 -0.24185290409E+02  0.50528863833E+02  0.30000012107E+02 0.  0.
         12    1    1    2    0    0  0.88159836917E+01  0.31472456422E+02  0.24185290409E+02  0.40659136167E+02  0.00000000000E+00 0. -1.
         11    1    3    3    0    0 -0.14570902316E+00 -0.36139536790E+01  0.33865798810E-01  0.36170484469E+01  0.51100000000E-03 0. -1.
        -11    1    3    3    0    0  0.71706354285E+01 -0.20193751198E+02 -0.76857913518E+01  0.22765697636E+02  0.51100000000E-03 0.  1.
        -12    1    3    3    0    0 -0.15840910097E+02 -0.76647515452E+01 -0.16533364856E+02  0.24146117750E+02  0.00000000000E+00 0.  1.
</event>
<event>
 7    1  0.2966651E-011  0.5052886E+02  0.7816164E-02  0.1300439E+00
        -11   -1    0    0    0    0  0.00000000000E+00  0.00000000000E+00  0.45593999997E+02  0.45594000000E+02  0.51100000000E-03 0. -1.
         11   -1    0    0    0    0 -0.00000000000E+00 -0.00000000000E+00 -0.45593999997E+02  0.45594000000E+02  0.51100000000E-03 0.  1.
    9900012    2    1    2    0    0 -0.21323834310E+02 -0.24356636162E+02 -0.24601103131E+02  0.50528856993E+02  0.29999991315E+02 0.  0.
         12    1    1    2    0    0  0.21323834310E+02  0.24356636162E+02  0.24601103131E+02  0.40659143007E+02  0.00000000000E+00 0. -1.
         11    1    3    3    0    0 -0.12692173819E+02 -0.50744565962E+01 -0.18872620578E+02  0.23302729319E+02  0.51100000000E-03 0. -1.
        -11    1    3    3    0    0 -0.82683147029E+01 -0.19789958769E+02 -0.94609605223E+01  0.23441784709E+02  0.51100000000E-03 0.  1.
        -12    1    3    3    0    0 -0.36334578818E+00  0.50777920258E+00  0.37324779692E+01  0.37843429642E+01  0.00000000000E+00 0.  1.
</event>
<event>
 7    1  0.2966651E-011  0.5052885E+02  0.7816164E-02  0.1300439E+00
        -11   -1    0    0    0    0  0.00000000000E+00  0.00000000000E+00  0.45593999997E+02  0.45594000000E+02  0.51100000000E-03 0.  1.
         11   -1    0    0    0    0 -0.00000000000E+00 -0.00000000000E+00 -0.45593999997E+02  0.45594000000E+02  0.51100000000E-03 0. -1.
    9900012    2    1    2    0    0  0.29406848549E+01 -0.31295557879E+02  0.25789662191E+02  0.50528852858E+02  0.29999978747E+02 0.  0.
         12    1    1    2    0    0 -0.29406848549E+01  0.31295557879E+02 -0.25789662191E+02  0.40659147142E+02  0.00000000000E+00 0. -1.
         11    1    3    3    0    0  0.10034908069E+02 -0.99446902234E+01  0.10203849106E+02  0.17427414623E+02  0.51100000000E-03 0. -1.
        -11    1    3    3    0    0 -0.95125970265E+01 -0.20889833739E+01  0.61306361627E+01  0.11508173345E+02  0.51100000000E-03 0.  1.
        -12    1    3    3    0    0  0.24183738128E+01 -0.19261884282E+02  0.94551769224E+01  0.21593264890E+02  0.00000000000E+00 0.  1.
</event>
<event>
 7    1  0.2966651E-011  0.5052887E+02  0.7816164E-02  0.1300439E+00
        -11   -1    0    0    0    0  0.00000000000E+00  0.00000000000E+00  0.45593999997E+02  0.45594000000E+02  0.51100000000E-03 0. -1.
         11   -1    0    0    0    0 -0.00000000000E+00 -0.00000000000E+00 -0.45593999997E+02  0.45594000000E+02  0.51100000000E-03 0.  1.
    9900012    2    1    2    0    0 -0.21803168642E+01  0.27412827843E+02 -0.29949092897E+02  0.50528867233E+02  0.30000022441E+02 0.  0.
         12    1    1    2    0    0  0.21803168642E+01 -0.27412827843E+02  0.29949092897E+02  0.40659132767E+02  0.00000000000E+00 0. -1.
         11    1    3    3    0    0  0.65898203931E-01 -0.48230449972E+01 -0.10338388926E+02  0.11408259791E+02  0.51100000000E-03 0. -1.
        -11    1    3    3    0    0 -0.27156500772E+01  0.14916157415E+01 -0.19731217960E+01  0.36732659508E+01  0.51100000000E-03 0.  1.
         12    1    3    3    0    0  0.46943500903E+00  0.30744257099E+02 -0.17637582176E+02  0.35447341491E+02  0.00000000000E+00 0. -1.
</event>
<event>
 7    1  0.2966651E-011  0.5052885E+02  0.7816164E-02  0.1300439E+00
        -11   -1    0    0    0    0  0.00000000000E+00  0.00000000000E+00  0.45593999997E+02  0.45594000000E+02  0.51100000000E-03 0.  1.
         11   -1    0    0    0    0 -0.00000000000E+00 -0.00000000000E+00 -0.45593999997E+02  0.45594000000E+02  0.51100000000E-03 0. -1.
    9900012    2    1    2    0    0 -0.33729207313E+02 -0.10445493250E+02 -0.20159334616E+02  0.50528849402E+02  0.29999968242E+02 0.  0.
         12    1    1    2    0    0  0.33729207313E+02  0.10445493250E+02  0.20159334616E+02  0.40659150598E+02  0.00000000000E+00 0. -1.
         11    1    3    3    0    0 -0.16747222343E+02 -0.14126392995E+02 -0.99693800789E+00  0.21932129876E+02  0.51100000000E-03 0.  1.
        -11    1    3    3    0    0 -0.34797404974E+01  0.59731923133E+01 -0.33622453414E+01  0.76871525507E+01  0.51100000000E-03 0. -1.
         12    1    3    3    0    0 -0.13502244473E+02 -0.22922925677E+01 -0.15800151267E+02  0.20909566975E+02  0.00000000000E+00 0. -1.
</event>
<event>
 7    1  0.2966651E-011  0.5052886E+02  0.7816164E-02  0.1300439E+00
        -11   -1    0    0    0    0  0.00000000000E+00  0.00000000000E+00  0.45593999997E+02  0.45594000000E+02  0.51100000000E-03 0. -1.
         11   -1    0    0    0    0 -0.00000000000E+00 -0.00000000000E+00 -0.45593999997E+02  0.45594000000E+02  0.51100000000E-03 0.  1.
    9900012    2    1    2    0    0  0.13211331523E+02 -0.28458336354E+02 -0.25860195054E+02  0.50528857402E+02  0.29999992558E+02 0.  0.
         12    1    1    2    0    0 -0.13211331523E+02  0.28458336354E+02  0.25860195054E+02  0.40659142598E+02  0.00000000000E+00 0. -1.
         11    1    3    3    0    0  0.11166781027E+02 -0.24851743109E+02 -0.42069288806E+01  0.27568177034E+02  0.51100000000E-03 0. -1.
        -11    1    3    3    0    0 -0.11411529996E+01 -0.37872140982E+01 -0.78107997895E+01  0.87552164112E+01  0.51100000000E-03 0.  1.
         12    1    3    3    0    0  0.31857034955E+01  0.18062085382E+00 -0.13842466383E+02  0.14205463957E+02  0.00000000000E+00 0. -1.
</event>
<event>
 7    1  0.2966651E-011  0.5052886E+02  0.7816164E-02  0.1300439E+00
        -11   -1    0    0    0    0  0.00000000000E+00  0.00000000000E+00  0.45593999997E+02  0.45594000000E+02  0.51100000000E-03 0.  1.
         11   -1    0    0    0    0 -0.00000000000E+00 -0.00000000000E+00 -0.45593999997E+02  0.45594000000E+02  0.51100000000E-03 0. -1.
    9900012    2    1    2    0    0 -0.94349584232E+01 -0.37847652281E+02 -0.11476168642E+02  0.50528859941E+02  0.30000000276E+02 0.  0.
         12    1    1    2    0    0  0.94349584232E+01  0.37847652281E+02  0.11476168642E+02  0.40659140059E+02  0.00000000000E+00 0. -1.
         11    1    3    3    0    0  0.47719704685E+01 -0.88648661185E+01 -0.11793158895E+02  0.15506003690E+02  0.51100000000E-03 0. -1.
        -11    1    3    3    0    0 -0.10012250392E+02 -0.14852154541E+02  0.64777073844E+01  0.19047108590E+02  0.51100000000E-03 0.  1.
        -12    1    3    3    0    0 -0.41946785001E+01 -0.14130631622E+02 -0.61607171319E+01  0.15975747661E+02  0.00000000000E+00 0.  1.
</event>
<event>
 7    1  0.2966651E-011  0.5052886E+02  0.7816164E-02  0.1300439E+00
        -11   -1    0    0    0    0  0.00000000000E+00  0.00000000000E+00  0.45593999997E+02  0.45594000000E+02  0.51100000000E-03 0.  1.
         11   -1    0    0    0    0 -0.00000000000E+00 -0.00000000000E+00 -0.45593999997E+02  0.45594000000E+02  0.51100000000E-03 0. -1.
    9900012    2    1    2    0    0 -0.38164892259E+01 -0.96786576697E+01  0.39305512654E+02  0.50528864135E+02  0.30000013024E+02 0.  0.
         12    1    1    2    0    0  0.38164892259E+01  0.96786576697E+01 -0.39305512654E+02  0.40659135865E+02  0.00000000000E+00 0. -1.
         11    1    3    3    0    0  0.20964401849E+01 -0.12857654172E+02  0.24495442052E+02  0.27744206852E+02  0.51100000000E-03 0. -1.
        -11    1    3    3    0    0 -0.67577536432E+01  0.59147303405E+01  0.16968870863E+02  0.19198798086E+02  0.51100000000E-03 0.  1.
         12    1    3    3    0    0  0.84482423233E+00 -0.27357338378E+01 -0.21588002608E+01  0.35858591970E+01  0.00000000000E+00 0. -1.
</event>
<event>
 7    1  0.2966651E-011  0.5052886E+02  0.7816164E-02  0.1300439E+00
        -11   -1    0    0    0    0  0.00000000000E+00  0.00000000000E+00  0.45593999997E+02  0.45594000000E+02  0.51100000000E-03 0. -1.
         11   -1    0    0    0    0 -0.00000000000E+00 -0.00000000000E+00 -0.45593999997E+02  0.45594000000E+02  0.51100000000E-03 0.  1.
    9900012    2    1    2    0    0  0.26415680008E+02 -0.29651816393E+02 -0.87262232219E+01  0.50528864034E+02  0.30000012719E+02 0.  0.
         12    1    1    2    0    0 -0.26415680008E+02  0.29651816393E+02  0.87262232219E+01  0.40659135966E+02  0.00000000000E+00 0. -1.
         11    1    3    3    0    0  0.29214509211E+01  0.29799048427E+00 -0.10292848778E+02  0.10703569967E+02  0.51100000000E-03 0. -1.
        -11    1    3    3    0    0  0.19693970677E+02 -0.17985074616E+02 -0.20832045132E+01  0.26751731369E+02  0.51100000000E-03 0.  1.
         12    1    3    3    0    0  0.38002584108E+01 -0.11964732262E+02  0.36498300693E+01  0.13073562698E+02  0.00000000000E+00 0. -1.
</event>
<event>
 7    1  0.2966651E-011  0.5052886E+02  0.7816164E-02  0.1300439E+00
        -11   -1    0    0    0    0  0.00000000000E+00  0.00000000000E+00  0.45593999997E+02  0.45594000000E+02  0.51100000000E-03 0. -1.
         11   -1    0    0    0    0 -0.00000000000E+00 -0.00000000000E+00 -0.45593999997E+02  0.45594000000E+02  0.51100000000E-03 0.  1.
    9900012    2    1    2    0    0  0.17668709031E+02  0.11682727274E+02 -0.34705851816E+02  0.50528861474E+02  0.30000004938E+02 0.  0.
         12    1    1    2    0    0 -0.17668709031E+02 -0.11682727274E+02  0.34705851816E+02  0.40659138526E+02  0.00000000000E+00 0. -1.
         11    1    3    3    0    0  0.14844098775E+02 -0.41567365171E+01 -0.73240515329E+01  0.17066559643E+02  0.51100000000E-03 0. -1.
        -11    1    3    3    0    0  0.58324739090E+01  0.11169945678E+02 -0.23566093447E+02  0.26723513971E+02  0.51100000000E-03 0.  1.
         12    1    3    3    0    0 -0.30078636537E+01  0.46695181133E+01 -0.38157068358E+01  0.67387878603E+01  0.00000000000E+00 0. -1.
</event>
<event>
 7    1  0.2966651E-011  0.5052886E+02  0.7816164E-02  0.1300439E+00
        -11   -1    0    0    0    0  0.00000000000E+00  0.00000000000E+00  0.45593999997E+02  0.45594000000E+02  0.51100000000E-03 0.  1.
         11   -1    0    0    0    0 -0.00000000000E+00 -0.00000000000E+00 -0.45593999997E+02  0.45594000000E+02  0.51100000000E-03 0. -1.
    9900012    2    1    2    0    0  0.18295858034E+02 -0.17841407002E+02  0.31624535531E+02  0.50528862373E+02  0.30000007669E+02 0.  0.
         12    1    1    2    0    0 -0.18295858034E+02  0.17841407002E+02 -0.31624535531E+02  0.40659137627E+02  0.00000000000E+00 0. -1.
         11    1    3    3    0    0  0.74039194398E+01  0.69973334580E+00 -0.54690378542E+00  0.74569936193E+01  0.51100000000E-03 0. -1.
        -11    1    3    3    0    0  0.42567353186E+01 -0.20439010870E+02  0.28271999973E+02  0.35145112657E+02  0.51100000000E-03 0.  1.
        -12    1    3    3    0    0  0.66352032756E+01  0.18978705220E+01  0.38994393434E+01  0.79267560969E+01  0.00000000000E+00 0.  1.
</event>
<event>
 7    1  0.2966651E-011  0.5052886E+02  0.7816164E-02  0.1300439E+00
        -11   -1    0    0    0    0  0.00000000000E+00  0.00000000000E+00  0.45593999997E+02  0.45594000000E+02  0.51100000000E-03 0.  1.
         11   -1    0    0    0    0 -0.00000000000E+00 -0.00000000000E+00 -0.45593999997E+02  0.45594000000E+02  0.51100000000E-03 0. -1.
    9900012    2    1    2    0    0  0.52551171660E+01 -0.30046648762E+01  0.40205991696E+02  0.50528855448E+02  0.29999986620E+02 0.  0.
         12    1    1    2    0    0 -0.52551171660E+01  0.30046648762E+01 -0.40205991696E+02  0.40659144552E+02  0.00000000000E+00 0. -1.
         11    1    3    3    0    0  0.96565769094E+01 -0.68191257112E+01  0.74725074933E+01  0.13985289470E+02  0.51100000000E-03 0. -1.
        -11    1    3    3    0    0 -0.28881639321E+00  0.70206281658E+00  0.31134548019E+02  0.31143801754E+02  0.51100000000E-03 0.  1.
         12    1    3    3    0    0 -0.41126433501E+01  0.31123980184E+01  0.15989361836E+01  0.53997642235E+01  0.00000000000E+00 0. -1.
</event>
<event>
 7    1  0.2966651E-011  0.5052886E+02  0.7816164E-02  0.1300439E+00
        -11   -1    0    0    0    0  0.00000000000E+00  0.00000000000E+00  0.45593999997E+02  0.45594000000E+02  0.51100000000E-03 0. -1.
         11   -1    0    0    0    0 -0.00000000000E+00 -0.00000000000E+00 -0.45593999997E+02  0.45594000000E+02  0.51100000000E-03 0.  1.
    9900012    2    1    2    0    0  0.23307000538E+02  0.23656178525E+02 -0.23459207982E+02  0.50528862090E+02  0.30000006807E+02 0.  0.
         12    1    1    2    0    0 -0.23307000538E+02 -0.23656178525E+02  0.23459207982E+02  0.40659137910E+02  0.00000000000E+00 0. -1.
         11    1    3    3    0    0  0.16663159880E+01  0.99947151416E+01  0.51024430636E+01  0.11344860740E+02  0.51100000000E-03 0. -1.
        -11    1    3    3    0    0  0.97332775990E+01  0.16258967745E+01 -0.11373896525E+02  0.15058079412E+02  0.51100000000E-03 0.  1.
         12    1    3    3    0    0  0.11907406951E+02  0.12035566609E+02 -0.17187754521E+02  0.24125921938E+02  0.00000000000E+00 0. -1.
</event>
<event>
 7    1  0.2966651E-011  0.5052886E+02  0.7816164E-02  0.1300439E+00
        -11   -1    0    0    0    0  0.00000000000E+00  0.00000000000E+00  0.45593999997E+02  0.45594000000E+02  0.51100000000E-03 0.  1.
         11   -1    0    0    0    0 -0.00000000000E+00 -0.00000000000E+00 -0.45593999997E+02  0.45594000000E+02  0.51100000000E-03 0. -1.
    9900012    2    1    2    0    0 -0.22897859495E+02  0.34518292686E+01  0.33420635197E+02  0.50528856480E+02  0.29999989757E+02 0.  0.
         12    1    1    2    0    0  0.22897859495E+02 -0.34518292686E+01 -0.33420635197E+02  0.40659143520E+02  0.00000000000E+00 0. -1.
         11    1    3    3    0    0 -0.27680591482E+00  0.23975575339E+01 -0.12675910542E+01  0.27261127975E+01  0.51100000000E-03 0. -1.
        -11    1    3    3    0    0 -0.25887834183E+02  0.38662011044E+01  0.34733888027E+02  0.43492188349E+02  0.51100000000E-03 0.  1.
        -12    1    3    3    0    0  0.32667806024E+01 -0.28119293697E+01 -0.45661775377E-01  0.43105553334E+01  0.00000000000E+00 0.  1.
</event>
<event>
 7    1  0.2966651E-011  0.5052886E+02  0.7816164E-02  0.1300439E+00
        -11   -1    0    0    0    0  0.00000000000E+00  0.00000000000E+00  0.45593999997E+02  0.45594000000E+02  0.51100000000E-03 0.  1.
         11   -1    0    0    0    0 -0.00000000000E+00 -0.00000000000E+00 -0.45593999997E+02  0.45594000000E+02  0.51100000000E-03 0. -1.
    9900012    2    1    2    0    0 -0.46050730234E+01 -0.26728125593E+02  0.30291362956E+02  0.50528855088E+02  0.29999985524E+02 0.  0.
         12    1    1    2    0    0  0.46050730234E+01  0.26728125593E+02 -0.30291362956E+02  0.40659144912E+02  0.00000000000E+00 0. -1.
         11    1    3    3    0    0  0.80178156985E+01  0.60075322757E+00  0.25800093308E+01  0.84440938782E+01  0.51100000000E-03 0. -1.
        -11    1    3    3    0    0 -0.85350689699E+01 -0.22960312641E+02  0.17002338265E+02  0.29817827983E+02  0.51100000000E-03 0.  1.
         12    1    3    3    0    0 -0.40878197520E+01 -0.43685661795E+01  0.10709015360E+02  0.12266933226E+02  0.00000000000E+00 0. -1.
</event>
<event>
 7    1  0.2966651E-011  0.5052886E+02  0.7816164E-02  0.1300439E+00
        -11   -1    0    0    0    0  0.00000000000E+00  0.00000000000E+00  0.45593999997E+02  0.45594000000E+02  0.51100000000E-03 0. -1.
         11   -1    0    0    0    0 -0.00000000000E+00 -0.00000000000E+00 -0.45593999997E+02  0.45594000000E+02  0.51100000000E-03 0.  1.
    9900012    2    1    2    0    0  0.25039110437E+02  0.23954038942E+02 -0.21269993095E+02  0.50528860322E+02  0.30000001435E+02 0.  0.
         12    1    1    2    0    0 -0.25039110437E+02 -0.23954038942E+02  0.21269993095E+02  0.40659139678E+02  0.00000000000E+00 0. -1.
         11    1    3    3    0    0 -0.12067363525E-01 -0.16420947976E+01  0.36386175706E+01  0.39920119027E+01  0.51100000000E-03 0. -1.
        -11    1    3    3    0    0  0.20952095317E+02  0.14462419742E+02 -0.96912772500E+01  0.27241012059E+02  0.51100000000E-03 0.  1.
         12    1    3    3    0    0  0.40990824830E+01  0.11133713998E+02 -0.15217333415E+02  0.19295836361E+02  0.00000000000E+00 0. -1.
</event>
<event>
 7    1  0.2966651E-011  0.5052884E+02  0.7816164E-02  0.1300439E+00
        -11   -1    0    0    0    0  0.00000000000E+00  0.00000000000E+00  0.45593999997E+02  0.45594000000E+02  0.51100000000E-03 0. -1.
         11   -1    0    0    0    0 -0.00000000000E+00 -0.00000000000E+00 -0.45593999997E+02  0.45594000000E+02  0.51100000000E-03 0.  1.
    9900012    2    1    2    0    0 -0.23099040583E+02 -0.28036569960E+02 -0.18263406829E+02  0.50528844082E+02  0.29999952071E+02 0.  0.
         12    1    1    2    0    0  0.23099040583E+02  0.28036569960E+02  0.18263406829E+02  0.40659155918E+02  0.00000000000E+00 0. -1.
         11    1    3    3    0    0  0.45912788248E+01 -0.15154296713E+02 -0.70064373261E+01  0.17315389524E+02  0.51100000000E-03 0. -1.
        -11    1    3    3    0    0 -0.19594947057E+02 -0.57473372441E+01 -0.81228496793E+01  0.21976681340E+02  0.51100000000E-03 0.  1.
         12    1    3    3    0    0 -0.80953723515E+01 -0.71349360030E+01 -0.31341198236E+01  0.11236773218E+02  0.00000000000E+00 0. -1.
</event>
<event>
 7    1  0.2966651E-011  0.5052886E+02  0.7816164E-02  0.1300439E+00
        -11   -1    0    0    0    0  0.00000000000E+00  0.00000000000E+00  0.45593999997E+02  0.45594000000E+02  0.51100000000E-03 0.  1.
         11   -1    0    0    0    0 -0.00000000000E+00 -0.00000000000E+00 -0.45593999997E+02  0.45594000000E+02  0.51100000000E-03 0. -1.
    9900012    2    1    2    0    0 -0.64457271928E+01 -0.28926145069E+02  0.27836954419E+02  0.50528864509E+02  0.30000014161E+02 0.  0.
         12    1    1    2    0    0  0.64457271928E+01  0.28926145069E+02 -0.27836954419E+02  0.40659135491E+02  0.00000000000E+00 0. -1.
         11    1    3    3    0    0 -0.10493410507E+02 -0.16399142522E+00  0.37029175222E+01  0.11128798484E+02  0.51100000000E-03 0. -1.
        -11    1    3    3    0    0 -0.29121754772E+01 -0.13264151762E+02  0.14513717614E+02  0.19876279511E+02  0.51100000000E-03 0.  1.
         12    1    3    3    0    0  0.69598587918E+01 -0.15498001881E+02  0.96203192824E+01  0.19523786513E+02  0.00000000000E+00 0. -1.
</event>
<event>
 7    1  0.2966651E-011  0.5052886E+02  0.7816164E-02  0.1300439E+00
        -11   -1    0    0    0    0  0.00000000000E+00  0.00000000000E+00  0.45593999997E+02  0.45594000000E+02  0.51100000000E-03 0.  1.
         11   -1    0    0    0    0 -0.00000000000E+00 -0.00000000000E+00 -0.45593999997E+02  0.45594000000E+02  0.51100000000E-03 0. -1.
    9900012    2    1    2    0    0 -0.15596990452E+02  0.36003582573E+02  0.10660295006E+02  0.50528856392E+02  0.29999989491E+02 0.  0.
         12    1    1    2    0    0  0.15596990452E+02 -0.36003582573E+02 -0.10660295006E+02  0.40659143608E+02  0.00000000000E+00 0. -1.
         11    1    3    3    0    0 -0.71186056173E+01  0.28470149646E+01  0.93521166206E+00  0.77236430043E+01  0.51100000000E-03 0. -1.
        -11    1    3    3    0    0 -0.67850641598E+01  0.29606748819E+02  0.16799873802E+02  0.34710696209E+02  0.51100000000E-03 0.  1.
        -12    1    3    3    0    0 -0.16933206747E+01  0.35498187896E+01 -0.70747904576E+01  0.80945171793E+01  0.00000000000E+00 0.  1.
</event>
<event>
 7    1  0.2966651E-011  0.5052887E+02  0.7816164E-02  0.1300439E+00
        -11   -1    0    0    0    0  0.00000000000E+00  0.00000000000E+00  0.45593999997E+02  0.45594000000E+02  0.51100000000E-03 0. -1.
         11   -1    0    0    0    0 -0.00000000000E+00 -0.00000000000E+00 -0.45593999997E+02  0.45594000000E+02  0.51100000000E-03 0.  1.
    9900012    2    1    2    0    0  0.11044515063E+02 -0.33441100979E+02 -0.20319353267E+02  0.50528872306E+02  0.30000037860E+02 0.  0.
         12    1    1    2    0    0 -0.11044515063E+02  0.33441100979E+02  0.20319353267E+02  0.40659127694E+02  0.00000000000E+00 0. -1.
         11    1    3    3    0    0  0.15617442740E+02 -0.34217134513E+02 -0.13405789577E+02  0.39930339423E+02  0.51100000000E-03 0. -1.
        -11    1    3    3    0    0 -0.21350714224E+01 -0.10292279474E+01 -0.71725236589E+01  0.75540013268E+01  0.51100000000E-03 0.  1.
         12    1    3    3    0    0 -0.24378562540E+01  0.18052614809E+01  0.25895996914E+00  0.30445315560E+01  0.00000000000E+00 0. -1.
</event>
<event>
 7    1  0.2966651E-011  0.5052886E+02  0.7816164E-02  0.1300439E+00
        -11   -1    0    0    0    0  0.00000000000E+00  0.00000000000E+00  0.45593999997E+02  0.45594000000E+02  0.51100000000E-03 0.  1.
         11   -1    0    0    0    0 -0.00000000000E+00 -0.00000000000E+00 -0.45593999997E+02  0.45594000000E+02  0.51100000000E-03 0. -1.
    9900012    2    1    2    0    0  0.25719232139E+02 -0.26988178306E+02  0.16227299143E+02  0.50528857023E+02  0.29999991408E+02 0.  0.
         12    1    1    2    0    0 -0.25719232139E+02  0.26988178306E+02 -0.16227299143E+02  0.40659142977E+02  0.00000000000E+00 0. -1.
         11    1    3    3    0    0  0.24846122357E+02 -0.11142740557E+02  0.76069550419E+01  0.28272888579E+02  0.51100000000E-03 0. -1.
        -11    1    3    3    0    0  0.22445976521E+01 -0.16991772557E+02  0.44334839129E+01  0.17703511887E+02  0.51100000000E-03 0.  1.
         12    1    3    3    0    0 -0.13714878700E+01  0.11463348085E+01  0.41868601881E+01  0.45524565573E+01  0.00000000000E+00 0. -1.
</event>
<event>
 7    1  0.2966651E-011  0.5052886E+02  0.7816164E-02  0.1300439E+00
        -11   -1    0    0    0    0  0.00000000000E+00  0.00000000000E+00  0.45593999997E+02  0.45594000000E+02  0.51100000000E-03 0.  1.
         11   -1    0    0    0    0 -0.00000000000E+00 -0.00000000000E+00 -0.45593999997E+02  0.45594000000E+02  0.51100000000E-03 0. -1.
    9900012    2    1    2    0    0  0.85025843764E+01  0.39233404298E+02 -0.64507125972E+01  0.50528860229E+02  0.30000001152E+02 0.  0.
         12    1    1    2    0    0 -0.85025843764E+01 -0.39233404298E+02  0.64507125972E+01  0.40659139771E+02  0.00000000000E+00 0. -1.
         11    1    3    3    0    0 -0.29678776460E+01 -0.93652708129E+00 -0.19530295696E+01  0.36741945316E+01  0.51100000000E-03 0. -1.
        -11    1    3    3    0    0  0.65275585469E+01  0.31195112051E+02  0.57253254484E+01  0.32380910861E+02  0.51100000000E-03 0.  1.
        -12    1    3    3    0    0  0.49429034755E+01  0.89748193288E+01 -0.10223008476E+02  0.14473754836E+02  0.00000000000E+00 0.  1.
</event>
<event>
 7    1  0.2966651E-011  0.5052886E+02  0.7816164E-02  0.1300439E+00
        -11   -1    0    0    0    0  0.00000000000E+00  0.00000000000E+00  0.45593999997E+02  0.45594000000E+02  0.51100000000E-03 0. -1.
         11   -1    0    0    0    0 -0.00000000000E+00 -0.00000000000E+00 -0.45593999997E+02  0.45594000000E+02  0.51100000000E-03 0.  1.
    9900012    2    1    2    0    0 -0.16194541052E+01  0.19708668989E+02 -0.35526209717E+02  0.50528857833E+02  0.29999993869E+02 0.  0.
         12    1    1    2    0    0  0.16194541052E+01 -0.19708668989E+02  0.35526209717E+02  0.40659142167E+02  0.00000000000E+00 0. -1.
         11    1    3    3    0    0 -0.40299240247E+00  0.23994994330E+02 -0.16061742098E+02  0.28877356446E+02  0.51100000000E-03 0. -1.
        -11    1    3    3    0    0 -0.29844587489E+01 -0.33863872370E+00 -0.18813911300E+01  0.35441928636E+01  0.51100000000E-03 0.  1.
         12    1    3    3    0    0  0.17679970461E+01 -0.39476866178E+01 -0.17583076488E+02  0.18107308524E+02  0.00000000000E+00 0. -1.
</event>
<event>
 7    1  0.2966651E-011  0.5052886E+02  0.7816164E-02  0.1300439E+00
        -11   -1    0    0    0    0  0.00000000000E+00  0.00000000000E+00  0.45593999997E+02  0.45594000000E+02  0.51100000000E-03 0.  1.
         11   -1    0    0    0    0 -0.00000000000E+00 -0.00000000000E+00 -0.45593999997E+02  0.45594000000E+02  0.51100000000E-03 0. -1.
    9900012    2    1    2    0    0 -0.38551491965E+02 -0.87061697182E+01 -0.95472974019E+01  0.50528858204E+02  0.29999994997E+02 0.  0.
         12    1    1    2    0    0  0.38551491965E+02  0.87061697182E+01  0.95472974019E+01  0.40659141796E+02  0.00000000000E+00 0. -1.
         11    1    3    3    0    0  0.12701252607E+01 -0.55955001874E+00  0.74964953124E-01  0.13899404328E+01  0.51100000000E-03 0. -1.
        -11    1    3    3    0    0 -0.24053349385E+02  0.81014331665E+01 -0.30550705685E+01  0.25564238545E+02  0.51100000000E-03 0.  1.
        -12    1    3    3    0    0 -0.15768267841E+02 -0.16248052866E+02 -0.65671917866E+01  0.23574679226E+02  0.00000000000E+00 0.  1.
</event>
<event>
 7    1  0.2966651E-011  0.5052882E+02  0.7816164E-02  0.1300439E+00
        -11   -1    0    0    0    0  0.00000000000E+00  0.00000000000E+00  0.45593999997E+02  0.45594000000E+02  0.51100000000E-03 0.  1.
         11   -1    0    0    0    0 -0.00000000000E+00 -0.00000000000E+00 -0.45593999997E+02  0.45594000000E+02  0.51100000000E-03 0. -1.
    9900012    2    1    2    0    0 -0.36869628317E+02  0.90263900681E+01  0.14571340666E+02  0.50528816798E+02  0.29999869138E+02 0.  0.
         12    1    1    2    0    0  0.36869628317E+02 -0.90263900681E+01 -0.14571340666E+02  0.40659183202E+02  0.00000000000E+00 0. -1.
         11    1    3    3    0    0 -0.21026422356E+02 -0.59170031724E+01  0.27445111161E+01  0.22014851922E+02  0.51100000000E-03 0. -1.
        -11    1    3    3    0    0  0.30641606743E+00  0.84968033742E+01  0.47598961252E+01  0.97440325210E+01  0.51100000000E-03 0.  1.
        -12    1    3    3    0    0 -0.16149622029E+02  0.64465898663E+01  0.70669334242E+01  0.18769932355E+02  0.00000000000E+00 0.  1.
</event>
<event>
 7    1  0.2966651E-011  0.5052885E+02  0.7816164E-02  0.1300439E+00
        -11   -1    0    0    0    0  0.00000000000E+00  0.00000000000E+00  0.45593999997E+02  0.45594000000E+02  0.51100000000E-03 0.  1.
         11   -1    0    0    0    0 -0.00000000000E+00 -0.00000000000E+00 -0.45593999997E+02  0.45594000000E+02  0.51100000000E-03 0. -1.
    9900012    2    1    2    0    0 -0.39065036105E+02 -0.26704973862E+01  0.10952532882E+02  0.50528848770E+02  0.29999966323E+02 0.  0.
         12    1    1    2    0    0  0.39065036105E+02  0.26704973862E+01 -0.10952532882E+02  0.40659151230E+02  0.00000000000E+00 0. -1.
         11    1    3    3    0    0  0.34243516852E+01 -0.27805112866E+01  0.42427357111E+01  0.61203132317E+01  0.51100000000E-03 0. -1.
        -11    1    3    3    0    0 -0.10879953090E+02 -0.47999250038E+01  0.23928487382E+01  0.12130061196E+02  0.51100000000E-03 0.  1.
         12    1    3    3    0    0 -0.31609434700E+02  0.49099389043E+01  0.43169484331E+01  0.32278474343E+02  0.00000000000E+00 0. -1.
</event>
<event>
 7    1  0.2966651E-011  0.5052885E+02  0.7816164E-02  0.1300439E+00
        -11   -1    0    0    0    0  0.00000000000E+00  0.00000000000E+00  0.45593999997E+02  0.45594000000E+02  0.51100000000E-03 0.  1.
         11   -1    0    0    0    0 -0.00000000000E+00 -0.00000000000E+00 -0.45593999997E+02  0.45594000000E+02  0.51100000000E-03 0. -1.
    9900012    2    1    2    0    0  0.19758777425E+02  0.18133562049E+01  0.35488992035E+02  0.50528854636E+02  0.29999984151E+02 0.  0.
         12    1    1    2    0    0 -0.19758777425E+02 -0.18133562049E+01 -0.35488992035E+02  0.40659145364E+02  0.00000000000E+00 0. -1.
         11    1    3    3    0    0 -0.62425986961E+00  0.46153402243E+01 -0.28279041438E+01  0.54486794619E+01  0.51100000000E-03 0. -1.
        -11    1    3    3    0    0  0.54385119941E+01  0.12572060684E+01  0.21527593337E+02  0.22239497633E+02  0.51100000000E-03 0.  1.
         12    1    3    3    0    0  0.14944525300E+02 -0.40591900878E+01  0.16789302842E+02  0.22840677541E+02  0.00000000000E+00 0. -1.
</event>
<event>
 7    1  0.2966651E-011  0.5052886E+02  0.7816164E-02  0.1300439E+00
        -11   -1    0    0    0    0  0.00000000000E+00  0.00000000000E+00  0.45593999997E+02  0.45594000000E+02  0.51100000000E-03 0.  1.
         11   -1    0    0    0    0 -0.00000000000E+00 -0.00000000000E+00 -0.45593999997E+02  0.45594000000E+02  0.51100000000E-03 0. -1.
    9900012    2    1    2    0    0  0.99231130022E+01 -0.34922480042E+02  0.18306220180E+02  0.50528862267E+02  0.30000007346E+02 0.  0.
         12    1    1    2    0    0 -0.99231130022E+01  0.34922480042E+02 -0.18306220180E+02  0.40659137733E+02  0.00000000000E+00 0. -1.
         11    1    3    3    0    0 -0.11712865291E+01  0.45834269513E+01  0.52055422496E+00  0.47592742843E+01  0.51100000000E-03 0. -1.
        -11    1    3    3    0    0 -0.15936285872E+01 -0.18795362168E+01  0.10800139588E+01  0.26904904528E+01  0.51100000000E-03 0.  1.
         12    1    3    3    0    0  0.12688028118E+02 -0.37626370776E+02  0.16705651996E+02  0.43079097530E+02  0.00000000000E+00 0. -1.
</event>
<event>
 7    1  0.2966651E-011  0.5052890E+02  0.7816164E-02  0.1300439E+00
        -11   -1    0    0    0    0  0.00000000000E+00  0.00000000000E+00  0.45593999997E+02  0.45594000000E+02  0.51100000000E-03 0.  1.
         11   -1    0    0    0    0 -0.00000000000E+00 -0.00000000000E+00 -0.45593999997E+02  0.45594000000E+02  0.51100000000E-03 0. -1.
    9900012    2    1    2    0    0  0.31479398049E+02 -0.23593466643E+02  0.10274169105E+02  0.50528896216E+02  0.30000110537E+02 0.  0.
         12    1    1    2    0    0 -0.31479398049E+02  0.23593466643E+02 -0.10274169105E+02  0.40659103784E+02  0.00000000000E+00 0. -1.
         11    1    3    3    0    0  0.10045631588E+02 -0.19960551918E+02  0.54073463202E+01  0.22990818631E+02  0.51100000000E-03 0. -1.
        -11    1    3    3    0    0  0.23421892996E+02 -0.24188233817E+01  0.68024078612E+01  0.24509355990E+02  0.51100000000E-03 0.  1.
        -12    1    3    3    0    0 -0.19881265350E+01 -0.12140913435E+01 -0.19355850761E+01  0.30287215944E+01  0.00000000000E+00 0.  1.
</event>
<event>
 7    1  0.2966651E-011  0.5052886E+02  0.7816164E-02  0.1300439E+00
        -11   -1    0    0    0    0  0.00000000000E+00  0.00000000000E+00  0.45593999997E+02  0.45594000000E+02  0.51100000000E-03 0.  1.
         11   -1    0    0    0    0 -0.00000000000E+00 -0.00000000000E+00 -0.45593999997E+02  0.45594000000E+02  0.51100000000E-03 0. -1.
    9900012    2    1    2    0    0  0.16128071333E+02  0.37272477434E+02  0.19528026122E+01  0.50528859612E+02  0.29999999277E+02 0.  0.
         12    1    1    2    0    0 -0.16128071333E+02 -0.37272477434E+02 -0.19528026122E+01  0.40659140388E+02  0.00000000000E+00 0. -1.
         11    1    3    3    0    0  0.24362558167E+01 -0.46333290872E+01  0.17289830601E+01  0.55129360161E+01  0.51100000000E-03 0. -1.
        -11    1    3    3    0    0  0.11239605568E+02  0.20301436012E+02  0.13439676476E+01  0.23243994639E+02  0.51100000000E-03 0.  1.
         12    1    3    3    0    0  0.24522099483E+01  0.21604370510E+02 -0.11201480955E+01  0.21771928957E+02  0.00000000000E+00 0. -1.
</event>
<event>
 7    1  0.2966651E-011  0.5052886E+02  0.7816164E-02  0.1300439E+00
        -11   -1    0    0    0    0  0.00000000000E+00  0.00000000000E+00  0.45593999997E+02  0.45594000000E+02  0.51100000000E-03 0.  1.
         11   -1    0    0    0    0 -0.00000000000E+00 -0.00000000000E+00 -0.45593999997E+02  0.45594000000E+02  0.51100000000E-03 0. -1.
    9900012    2    1    2    0    0  0.38505976640E+02 -0.29505160367E+01  0.12718103252E+02  0.50528856720E+02  0.29999990487E+02 0.  0.
         12    1    1    2    0    0 -0.38505976640E+02  0.29505160367E+01 -0.12718103252E+02  0.40659143280E+02  0.00000000000E+00 0. -1.
         11    1    3    3    0    0  0.17318013590E+02 -0.84437235511E+01 -0.49078177645E+01  0.19882070757E+02  0.51100000000E-03 0. -1.
        -11    1    3    3    0    0  0.69643163889E+01  0.41914615229E+01  0.13537092968E+02  0.15789963228E+02  0.51100000000E-03 0.  1.
        -12    1    3    3    0    0  0.14223646661E+02  0.13017459915E+01  0.40888280482E+01  0.14856822735E+02  0.00000000000E+00 0.  1.
</event>
<event>
 7    1  0.2966651E-011  0.5052892E+02  0.7816164E-02  0.1300439E+00
        -11   -1    0    0    0    0  0.00000000000E+00  0.00000000000E+00  0.45593999997E+02  0.45594000000E+02  0.51100000000E-03 0.  1.
         11   -1    0    0    0    0 -0.00000000000E+00 -0.00000000000E+00 -0.45593999997E+02  0.45594000000E+02  0.51100000000E-03 0. -1.
    9900012    2    1    2    0    0 -0.13508704080E+01 -0.32153788310E+02  0.24848944212E+02  0.50528917595E+02  0.30000175523E+02 0.  0.
         12    1    1    2    0    0  0.13508704080E+01  0.32153788310E+02 -0.24848944212E+02  0.40659082405E+02  0.00000000000E+00 0. -1.
         11    1    3    3    0    0 -0.10125973520E+02 -0.47571587711E+01  0.17229344878E+02  0.20543033478E+02  0.51100000000E-03 0. -1.
        -11    1    3    3    0    0  0.27736463994E+01 -0.10934227315E+02  0.12837102446E+01  0.11353341075E+02  0.51100000000E-03 0.  1.
         12    1    3    3    0    0  0.60014567127E+01 -0.16462402224E+02  0.63358890894E+01  0.18632543042E+02  0.00000000000E+00 0. -1.
</event>
<event>
 7    1  0.2966651E-011  0.5052887E+02  0.7816164E-02  0.1300439E+00
        -11   -1    0    0    0    0  0.00000000000E+00  0.00000000000E+00  0.45593999997E+02  0.45594000000E+02  0.51100000000E-03 0.  1.
         11   -1    0    0    0    0 -0.00000000000E+00 -0.00000000000E+00 -0.45593999997E+02  0.45594000000E+02  0.51100000000E-03 0. -1.
    9900012    2    1    2    0    0  0.35031074049E+01 -0.27375216151E+02  0.29857844230E+02  0.50528867165E+02  0.30000022235E+02 0.  0.
         12    1    1    2    0    0 -0.35031074049E+01  0.27375216151E+02 -0.29857844230E+02  0.40659132835E+02  0.00000000000E+00 0. -1.
         11    1    3    3    0    0 -0.10331536624E+02 -0.19326018961E+02  0.18817681272E+02  0.28884957792E+02  0.51100000000E-03 0. -1.
        -11    1    3    3    0    0  0.10343391120E+02 -0.43985757395E+01  0.21863315685E+01  0.11450469614E+02  0.51100000000E-03 0.  1.
        -12    1    3    3    0    0  0.34912529096E+01 -0.36506214505E+01  0.88538313894E+01  0.10193439759E+02  0.00000000000E+00 0.  1.
</event>
<event>
 7    1  0.2966651E-011  0.5052886E+02  0.7816164E-02  0.1300439E+00
        -11   -1    0    0    0    0  0.00000000000E+00  0.00000000000E+00  0.45593999997E+02  0.45594000000E+02  0.51100000000E-03 0. -1.
         11   -1    0    0    0    0 -0.00000000000E+00 -0.00000000000E+00 -0.45593999997E+02  0.45594000000E+02  0.51100000000E-03 0.  1.
    9900012    2    1    2    0    0  0.34619133251E+02 -0.14737001503E+02 -0.15411102568E+02  0.50528859789E+02  0.29999999815E+02 0.  0.
         12    1    1    2    0    0 -0.34619133251E+02  0.14737001503E+02  0.15411102568E+02  0.40659140211E+02  0.00000000000E+00 0. -1.
         11    1    3    3    0    0 -0.61387278946E+00  0.17233740669E+01 -0.88226414819E+00  0.20310707187E+01  0.51100000000E-03 0. -1.
        -11    1    3    3    0    0  0.37125278703E+02 -0.19826726648E+02 -0.14830442306E+02  0.44624291901E+02  0.51100000000E-03 0.  1.
        -12    1    3    3    0    0 -0.18922726630E+01  0.33663510786E+01  0.30160388669E+00  0.38734971693E+01  0.00000000000E+00 0.  1.
</event>
<event>
 7    1  0.2966651E-011  0.5052887E+02  0.7816164E-02  0.1300439E+00
        -11   -1    0    0    0    0  0.00000000000E+00  0.00000000000E+00  0.45593999997E+02  0.45594000000E+02  0.51100000000E-03 0.  1.
         11   -1    0    0    0    0 -0.00000000000E+00 -0.00000000000E+00 -0.45593999997E+02  0.45594000000E+02  0.51100000000E-03 0. -1.
    9900012    2    1    2    0    0  0.35214714986E+02 -0.19493876227E+02  0.57513314264E+01  0.50528866031E+02  0.30000018789E+02 0.  0.
         12    1    1    2    0    0 -0.35214714986E+02  0.19493876227E+02 -0.57513314264E+01  0.40659133969E+02  0.00000000000E+00 0. -1.
         11    1    3    3    0    0  0.10265436761E+02  0.48083230343E+01 -0.54488238672E+01  0.12577314661E+02  0.51100000000E-03 0. -1.
        -11    1    3    3    0    0  0.21641211037E+02 -0.19980207954E+02  0.13032569131E+02  0.32208672488E+02  0.51100000000E-03 0.  1.
        -12    1    3    3    0    0  0.33080671889E+01 -0.43219913066E+01 -0.18324138374E+01  0.57428788819E+01  0.00000000000E+00 0.  1.
</event>
<event>
 7    1  0.2966651E-011  0.5052886E+02  0.7816164E-02  0.1300439E+00
        -11   -1    0    0    0    0  0.00000000000E+00  0.00000000000E+00  0.45593999997E+02  0.45594000000E+02  0.51100000000E-03 0. -1.
         11   -1    0    0    0    0 -0.00000000000E+00 -0.00000000000E+00 -0.45593999997E+02  0.45594000000E+02  0.51100000000E-03 0.  1.
    9900012    2    1    2    0    0  0.21107944516E+02 -0.13249668381E+02 -0.32125799741E+02  0.50528855359E+02  0.29999986350E+02 0.  0.
         12    1    1    2    0    0 -0.21107944516E+02  0.13249668381E+02  0.32125799741E+02  0.40659144641E+02  0.00000000000E+00 0. -1.
         11    1    3    3    0    0  0.10511612959E+02 -0.11338377854E+02  0.16910811808E+00  0.15462257829E+02  0.51100000000E-03 0. -1.
        -11    1    3    3    0    0  0.51765599446E+01  0.32438854886E+01 -0.16362420392E+02  0.17465633892E+02  0.51100000000E-03 0.  1.
        -12    1    3    3    0    0  0.54197716122E+01 -0.51551760155E+01 -0.15932487468E+02  0.17600963638E+02  0.00000000000E+00 0.  1.
</event>
<event>
 7    1  0.2966651E-011  0.5052885E+02  0.7816164E-02  0.1300439E+00
        -11   -1    0    0    0    0  0.00000000000E+00  0.00000000000E+00  0.45593999997E+02  0.45594000000E+02  0.51100000000E-03 0.  1.
         11   -1    0    0    0    0 -0.00000000000E+00 -0.00000000000E+00 -0.45593999997E+02  0.45594000000E+02  0.51100000000E-03 0. -1.
    9900012    2    1    2    0    0  0.36646651209E+02 -0.11201333398E+02  0.13591143916E+02  0.50528854563E+02  0.29999983930E+02 0.  0.
         12    1    1    2    0    0 -0.36646651209E+02  0.11201333398E+02 -0.13591143916E+02  0.40659145437E+02  0.00000000000E+00 0. -1.
         11    1    3    3    0    0  0.66806045717E+01  0.85215052774E+01  0.93948885196E+01  0.14335636023E+02  0.51100000000E-03 0. -1.
        -11    1    3    3    0    0  0.79953271798E+01 -0.64743714741E+01  0.92660930330E+00  0.10329634445E+02  0.51100000000E-03 0.  1.
         12    1    3    3    0    0  0.21970719457E+02 -0.13248467202E+02  0.32696460933E+01  0.25863584095E+02  0.00000000000E+00 0. -1.
</event>
<event>
 7    1  0.2966651E-011  0.5052887E+02  0.7816164E-02  0.1300439E+00
        -11   -1    0    0    0    0  0.00000000000E+00  0.00000000000E+00  0.45593999997E+02  0.45594000000E+02  0.51100000000E-03 0.  1.
         11   -1    0    0    0    0 -0.00000000000E+00 -0.00000000000E+00 -0.45593999997E+02  0.45594000000E+02  0.51100000000E-03 0. -1.
    9900012    2    1    2    0    0  0.31309966480E+02 -0.64425942191E+01  0.25126557815E+02  0.50528869059E+02  0.30000027990E+02 0.  0.
         12    1    1    2    0    0 -0.31309966480E+02  0.64425942191E+01 -0.25126557815E+02  0.40659130941E+02  0.00000000000E+00 0. -1.
         11    1    3    3    0    0  0.40539907022E+00  0.15639638360E+00  0.62732905533E+01  0.62883211481E+01  0.51100000000E-03 0. -1.
        -11    1    3    3    0    0  0.26364295057E+02 -0.13141851527E+02  0.20776381353E+02  0.36047778542E+02  0.51100000000E-03 0.  1.
        -12    1    3    3    0    0  0.45402723531E+01  0.65428609244E+01 -0.19231140913E+01  0.81927693684E+01  0.00000000000E+00 0.  1.
</event>
<event>
 7    1  0.2966651E-011  0.5052886E+02  0.7816164E-02  0.1300439E+00
        -11   -1    0    0    0    0  0.00000000000E+00  0.00000000000E+00  0.45593999997E+02  0.45594000000E+02  0.51100000000E-03 0.  1.
         11   -1    0    0    0    0 -0.00000000000E+00 -0.00000000000E+00 -0.45593999997E+02  0.45594000000E+02  0.51100000000E-03 0. -1.
    9900012    2    1    2    0    0 -0.17743536986E+02  0.34014730331E+02  0.13465893259E+02  0.50528864920E+02  0.30000015410E+02 0.  0.
         12    1    1    2    0    0  0.17743536986E+02 -0.34014730331E+02 -0.13465893259E+02  0.40659135080E+02  0.00000000000E+00 0. -1.
         11    1    3    3    0    0 -0.72039958308E+01  0.19728200690E+01  0.69581108916E+01  0.10208079271E+02  0.51100000000E-03 0. -1.
        -11    1    3    3    0    0  0.32136068781E+01  0.17306257331E+02  0.94048094063E+01  0.19957060210E+02  0.51100000000E-03 0.  1.
        -12    1    3    3    0    0 -0.13753148033E+02  0.14735652930E+02 -0.28970270392E+01  0.20363725439E+02  0.00000000000E+00 0.  1.
</event>
<event>
 7    1  0.2966651E-011  0.5052886E+02  0.7816164E-02  0.1300439E+00
        -11   -1    0    0    0    0  0.00000000000E+00  0.00000000000E+00  0.45593999997E+02  0.45594000000E+02  0.51100000000E-03 0.  1.
         11   -1    0    0    0    0 -0.00000000000E+00 -0.00000000000E+00 -0.45593999997E+02  0.45594000000E+02  0.51100000000E-03 0. -1.
    9900012    2    1    2    0    0 -0.31789321149E+01  0.20632503045E+02  0.34890683531E+02  0.50528860946E+02  0.30000003333E+02 0.  0.
         12    1    1    2    0    0  0.31789321149E+01 -0.20632503045E+02 -0.34890683531E+02  0.40659139054E+02  0.00000000000E+00 0. -1.
         11    1    3    3    0    0 -0.69863520915E+00  0.14628323398E+02  0.13185991791E+02  0.19706504418E+02  0.51100000000E-03 0. -1.
        -11    1    3    3    0    0 -0.35357019356E+01  0.11894607154E+00 -0.34651847498E+01  0.49520543168E+01  0.51100000000E-03 0.  1.
        -12    1    3    3    0    0  0.10554050299E+01  0.58852335760E+01  0.25169876490E+02  0.25870302212E+02  0.00000000000E+00 0.  1.
</event>
<event>
 7    1  0.2966651E-011  0.5052887E+02  0.7816164E-02  0.1300439E+00
        -11   -1    0    0    0    0  0.00000000000E+00  0.00000000000E+00  0.45593999997E+02  0.45594000000E+02  0.51100000000E-03 0.  1.
         11   -1    0    0    0    0 -0.00000000000E+00 -0.00000000000E+00 -0.45593999997E+02  0.45594000000E+02  0.51100000000E-03 0. -1.
    9900012    2    1    2    0    0  0.18725926039E+02  0.14721113406E+02  0.32951375315E+02  0.50528872844E+02  0.30000039497E+02 0.  0.
         12    1    1    2    0    0 -0.18725926039E+02 -0.14721113406E+02 -0.32951375315E+02  0.40659127156E+02  0.00000000000E+00 0. -1.
         11    1    3    3    0    0  0.78042591328E+00  0.47250987107E+01  0.11583258861E+02  0.12534253410E+02  0.51100000000E-03 0. -1.
        -11    1    3    3    0    0  0.95023862305E+01 -0.27612871058E+01 -0.19697387059E+01  0.10089594709E+02  0.51100000000E-03 0.  1.
        -12    1    3    3    0    0  0.84431138952E+01  0.12757301801E+02  0.23337855160E+02  0.27905024726E+02  0.00000000000E+00 0.  1.
</event>
<event>
 7    1  0.2966651E-011  0.5052886E+02  0.7816164E-02  0.1300439E+00
        -11   -1    0    0    0    0  0.00000000000E+00  0.00000000000E+00  0.45593999997E+02  0.45594000000E+02  0.51100000000E-03 0.  1.
         11   -1    0    0    0    0 -0.00000000000E+00 -0.00000000000E+00 -0.45593999997E+02  0.45594000000E+02  0.51100000000E-03 0. -1.
    9900012    2    1    2    0    0 -0.12462093060E+02 -0.89915991300E+00  0.38691773522E+02  0.50528860926E+02  0.30000003271E+02 0.  0.
         12    1    1    2    0    0  0.12462093060E+02  0.89915991300E+00 -0.38691773522E+02  0.40659139074E+02  0.00000000000E+00 0. -1.
         11    1    3    3    0    0 -0.12284273425E+02 -0.12413192457E+02  0.15369605727E+02  0.23264038794E+02  0.51100000000E-03 0. -1.
        -11    1    3    3    0    0 -0.33035343491E+01  0.10090321361E+02  0.16390466905E+02  0.19528833298E+02  0.51100000000E-03 0.  1.
        -12    1    3    3    0    0  0.31257147139E+01  0.14237111833E+01  0.69317008900E+01  0.77359888337E+01  0.00000000000E+00 0.  1.
</event>
<event>
 7    1  0.2966651E-011  0.5052886E+02  0.7816164E-02  0.1300439E+00
        -11   -1    0    0    0    0  0.00000000000E+00  0.00000000000E+00  0.45593999997E+02  0.45594000000E+02  0.51100000000E-03 0. -1.
         11   -1    0    0    0    0 -0.00000000000E+00 -0.00000000000E+00 -0.45593999997E+02  0.45594000000E+02  0.51100000000E-03 0.  1.
    9900012    2    1    2    0    0 -0.37525342757E+01  0.40256163303E+02 -0.43041000969E+01  0.50528862343E+02  0.30000007577E+02 0.  0.
         12    1    1    2    0    0  0.37525342757E+01 -0.40256163303E+02  0.43041000969E+01  0.40659137657E+02  0.00000000000E+00 0. -1.
         11    1    3    3    0    0  0.50014041019E+01  0.12118330123E+02  0.83883963229E+01  0.15563841463E+02  0.51100000000E-03 0. -1.
        -11    1    3    3    0    0 -0.70840007810E+00  0.21252016749E+02 -0.11847266454E+02  0.24341482479E+02  0.51100000000E-03 0.  1.
         12    1    3    3    0    0 -0.80455382995E+01  0.68858164308E+01 -0.84522996576E+00  0.10623538400E+02  0.00000000000E+00 0. -1.
</event>
<event>
 7    1  0.2966651E-011  0.5052886E+02  0.7816164E-02  0.1300439E+00
        -11   -1    0    0    0    0  0.00000000000E+00  0.00000000000E+00  0.45593999997E+02  0.45594000000E+02  0.51100000000E-03 0.  1.
         11   -1    0    0    0    0 -0.00000000000E+00 -0.00000000000E+00 -0.45593999997E+02  0.45594000000E+02  0.51100000000E-03 0. -1.
    9900012    2    1    2    0    0  0.12825554680E+02  0.37328358917E+02  0.97603462784E+01  0.50528860907E+02  0.30000003213E+02 0.  0.
         12    1    1    2    0    0 -0.12825554680E+02 -0.37328358917E+02 -0.97603462784E+01  0.40659139093E+02  0.00000000000E+00 0. -1.
         11    1    3    3    0    0  0.34835035830E+01  0.28062774638E+01  0.16273776944E+01  0.47600786588E+01  0.51100000000E-03 0.  1.
        -11    1    3    3    0    0 -0.27403026043E+01 -0.22976674361E+01  0.59673305256E+01  0.69568360533E+01  0.51100000000E-03 0. -1.
        -12    1    3    3    0    0  0.12082353701E+02  0.36819748890E+02  0.21656380584E+01  0.38811946195E+02  0.00000000000E+00 0.  1.
</event>
<event>
 7    1  0.2966651E-011  0.5052885E+02  0.7816164E-02  0.1300439E+00
        -11   -1    0    0    0    0  0.00000000000E+00  0.00000000000E+00  0.45593999997E+02  0.45594000000E+02  0.51100000000E-03 0.  1.
         11   -1    0    0    0    0 -0.00000000000E+00 -0.00000000000E+00 -0.45593999997E+02  0.45594000000E+02  0.51100000000E-03 0. -1.
    9900012    2    1    2    0    0 -0.18262269784E+02  0.32412507037E+02  0.16403814014E+02  0.50528853129E+02  0.29999979572E+02 0.  0.
         12    1    1    2    0    0  0.18262269784E+02 -0.32412507037E+02 -0.16403814014E+02  0.40659146871E+02  0.00000000000E+00 0. -1.
         11    1    3    3    0    0  0.42900743851E+01  0.20680709209E+01  0.57684536755E-01  0.47628755317E+01  0.51100000000E-03 0. -1.
        -11    1    3    3    0    0 -0.19667525053E+02  0.30974866448E+02  0.19411427101E+02  0.41509726517E+02  0.51100000000E-03 0.  1.
        -12    1    3    3    0    0 -0.28848191164E+01 -0.63043033190E+00 -0.30652976240E+01  0.42562510806E+01  0.00000000000E+00 0.  1.
</event>
<event>
 7    1  0.2966651E-011  0.5052886E+02  0.7816164E-02  0.1300439E+00
        -11   -1    0    0    0    0  0.00000000000E+00  0.00000000000E+00  0.45593999997E+02  0.45594000000E+02  0.51100000000E-03 0.  1.
         11   -1    0    0    0    0 -0.00000000000E+00 -0.00000000000E+00 -0.45593999997E+02  0.45594000000E+02  0.51100000000E-03 0. -1.
    9900012    2    1    2    0    0  0.31835508696E+02 -0.67203066879E+01  0.24382439849E+02  0.50528861926E+02  0.30000006312E+02 0.  0.
         12    1    1    2    0    0 -0.31835508696E+02  0.67203066879E+01 -0.24382439849E+02  0.40659138074E+02  0.00000000000E+00 0. -1.
         11    1    3    3    0    0  0.22508849553E+02  0.74834954781E+01  0.23080716520E+02  0.33096381798E+02  0.51100000000E-03 0. -1.
        -11    1    3    3    0    0  0.54393803991E+01 -0.50793253516E+01  0.10076120033E+01  0.75101056826E+01  0.51100000000E-03 0.  1.
         12    1    3    3    0    0  0.38872787438E+01 -0.91244768145E+01  0.29411132512E+00  0.99223744457E+01  0.00000000000E+00 0. -1.
</event>
<event>
 7    1  0.2966651E-011  0.5052886E+02  0.7816164E-02  0.1300439E+00
        -11   -1    0    0    0    0  0.00000000000E+00  0.00000000000E+00  0.45593999997E+02  0.45594000000E+02  0.51100000000E-03 0. -1.
         11   -1    0    0    0    0 -0.00000000000E+00 -0.00000000000E+00 -0.45593999997E+02  0.45594000000E+02  0.51100000000E-03 0.  1.
    9900012    2    1    2    0    0  0.13982758960E+02 -0.30147499774E+02 -0.23425976154E+02  0.50528860197E+02  0.30000001055E+02 0.  0.
         12    1    1    2    0    0 -0.13982758960E+02  0.30147499774E+02  0.23425976154E+02  0.40659139803E+02  0.00000000000E+00 0. -1.
         11    1    3    3    0    0 -0.74229807740E+00  0.10533519397E+01  0.14383836686E+01  0.19311925289E+01  0.51100000000E-03 0. -1.
        -11    1    3    3    0    0 -0.16187759876E+01 -0.23379299492E+02 -0.16369059959E+02  0.28585979162E+02  0.51100000000E-03 0.  1.
        -12    1    3    3    0    0  0.16343833025E+02 -0.78215522208E+01 -0.84952998640E+01  0.20011688506E+02  0.00000000000E+00 0.  1.
</event>
<event>
 7    1  0.2966651E-011  0.5052887E+02  0.7816164E-02  0.1300439E+00
        -11   -1    0    0    0    0  0.00000000000E+00  0.00000000000E+00  0.45593999997E+02  0.45594000000E+02  0.51100000000E-03 0. -1.
         11   -1    0    0    0    0 -0.00000000000E+00 -0.00000000000E+00 -0.45593999997E+02  0.45594000000E+02  0.51100000000E-03 0.  1.
    9900012    2    1    2    0    0 -0.69000716894E+01  0.26037328909E+02 -0.30456719278E+02  0.50528865292E+02  0.30000016542E+02 0.  0.
         12    1    1    2    0    0  0.69000716894E+01 -0.26037328909E+02  0.30456719278E+02  0.40659134708E+02  0.00000000000E+00 0. -1.
         11    1    3    3    0    0 -0.67769107652E+01  0.15626040754E+01 -0.15700665339E+02  0.17172045405E+02  0.51100000000E-03 0.  1.
        -11    1    3    3    0    0  0.82208933670E+01  0.81384979821E+01 -0.54520508609E+01  0.12788396929E+02  0.51100000000E-03 0. -1.
        -12    1    3    3    0    0 -0.83440542912E+01  0.16336226851E+02 -0.93040030774E+01  0.20568422959E+02  0.00000000000E+00 0.  1.
</event>
<event>
 7    1  0.2966651E-011  0.5052882E+02  0.7816164E-02  0.1300439E+00
        -11   -1    0    0    0    0  0.00000000000E+00  0.00000000000E+00  0.45593999997E+02  0.45594000000E+02  0.51100000000E-03 0.  1.
         11   -1    0    0    0    0 -0.00000000000E+00 -0.00000000000E+00 -0.45593999997E+02  0.45594000000E+02  0.51100000000E-03 0. -1.
    9900012    2    1    2    0    0 -0.55813720284E+01  0.19372434202E+02  0.35309010002E+02  0.50528817667E+02  0.29999871781E+02 0.  0.
         12    1    1    2    0    0  0.55813720284E+01 -0.19372434202E+02 -0.35309010002E+02  0.40659182333E+02  0.00000000000E+00 0. -1.
         11    1    3    3    0    0  0.51397590979E+01  0.15699798973E+02  0.90349387077E+01  0.18828991717E+02  0.51100000000E-03 0. -1.
        -11    1    3    3    0    0 -0.72898388251E+01 -0.29392179928E+01  0.53996830926E+01  0.95361066619E+01  0.51100000000E-03 0.  1.
         12    1    3    3    0    0 -0.34312923012E+01  0.66118532223E+01  0.20874388202E+02  0.22163719288E+02  0.00000000000E+00 0. -1.
</event>
<event>
 7    1  0.2966651E-011  0.5052887E+02  0.7816164E-02  0.1300439E+00
        -11   -1    0    0    0    0  0.00000000000E+00  0.00000000000E+00  0.45593999997E+02  0.45594000000E+02  0.51100000000E-03 0.  1.
         11   -1    0    0    0    0 -0.00000000000E+00 -0.00000000000E+00 -0.45593999997E+02  0.45594000000E+02  0.51100000000E-03 0. -1.
    9900012    2    1    2    0    0  0.21635578079E+02  0.19670125585E+02  0.28251601535E+02  0.50528867340E+02  0.30000022768E+02 0.  0.
         12    1    1    2    0    0 -0.21635578079E+02 -0.19670125585E+02 -0.28251601535E+02  0.40659132660E+02  0.00000000000E+00 0. -1.
         11    1    3    3    0    0 -0.35457043158E+01 -0.28833240417E+01  0.13065843456E+01  0.47531820434E+01  0.51100000000E-03 0. -1.
        -11    1    3    3    0    0  0.18289198142E+02  0.18557161768E+02  0.27381381707E+02  0.37796866087E+02  0.51100000000E-03 0.  1.
         12    1    3    3    0    0  0.68920842523E+01  0.39962878584E+01 -0.43636451757E+00  0.79788192097E+01  0.00000000000E+00 0. -1.
</event>
<event>
 7    1  0.3172967E-011  0.5052886E+02  0.7816164E-02  0.1300439E+00
        -11   -1    0    0    0    0  0.00000000000E+00  0.00000000000E+00  0.45593999997E+02  0.45594000000E+02  0.51100000000E-03 0.  1.
         11   -1    0    0    0    0 -0.00000000000E+00 -0.00000000000E+00 -0.45593999997E+02  0.45594000000E+02  0.51100000000E-03 0. -1.
    9900012    2    1    2    0    0 -0.15593855401E+02 -0.14949074037E+02  0.34445932648E+02  0.50528863059E+02  0.30000009753E+02 0.  0.
         12    1    1    2    0    0  0.15593855401E+02  0.14949074037E+02 -0.34445932648E+02  0.40659136941E+02  0.00000000000E+00 0. -1.
         11    1    3    3    0    0 -0.60140475432E+00 -0.18083672507E+01 -0.39176000494E+01  0.43565433775E+01  0.51100000000E-03 0. -1.
        -11    1    3    3    0    0 -0.18209198794E+02 -0.92277173630E+01  0.28163411369E+02  0.34783666119E+02  0.51100000000E-03 0.  1.
        -12    1    3    3    0    0  0.32167481467E+01 -0.39129894237E+01  0.10200121328E+02  0.11388653563E+02  0.00000000000E+00 0.  1.
</event>
<event>
 7    1  0.2966651E-011  0.5052885E+02  0.7816164E-02  0.1300439E+00
        -11   -1    0    0    0    0  0.00000000000E+00  0.00000000000E+00  0.45593999997E+02  0.45594000000E+02  0.51100000000E-03 0. -1.
         11   -1    0    0    0    0 -0.00000000000E+00 -0.00000000000E+00 -0.45593999997E+02  0.45594000000E+02  0.51100000000E-03 0.  1.
    9900012    2    1    2    0    0  0.18764293582E+02 -0.29057066436E+02 -0.21371813520E+02  0.50528852977E+02  0.29999979110E+02 0.  0.
         12    1    1    2    0    0 -0.18764293582E+02  0.29057066436E+02  0.21371813520E+02  0.40659147023E+02  0.00000000000E+00 0. -1.
         11    1    3    3    0    0  0.85945411297E+01  0.19034039755E+01 -0.64184926190E+01  0.10894316485E+02  0.51100000000E-03 0. -1.
        -11    1    3    3    0    0  0.10455165248E+01 -0.24543126854E+02 -0.14380120621E+02  0.28464821270E+02  0.51100000000E-03 0.  1.
         12    1    3    3    0    0  0.91242359271E+01 -0.64173435567E+01 -0.57320028021E+00  0.11169715222E+02  0.00000000000E+00 0. -1.
</event>
<event>
 7    1  0.2966651E-011  0.5052886E+02  0.7816164E-02  0.1300439E+00
        -11   -1    0    0    0    0  0.00000000000E+00  0.00000000000E+00  0.45593999997E+02  0.45594000000E+02  0.51100000000E-03 0.  1.
         11   -1    0    0    0    0 -0.00000000000E+00 -0.00000000000E+00 -0.45593999997E+02  0.45594000000E+02  0.51100000000E-03 0. -1.
    9900012    2    1    2    0    0 -0.35830071055E+02 -0.53015953679E+01  0.18473343810E+02  0.50528864043E+02  0.30000012744E+02 0.  0.
         12    1    1    2    0    0  0.35830071055E+02  0.53015953679E+01 -0.18473343810E+02  0.40659135957E+02  0.00000000000E+00 0. -1.
         11    1    3    3    0    0 -0.55261232955E+01  0.31425026171E+01  0.13519264980E+01  0.64993128016E+01  0.51100000000E-03 0. -1.
        -11    1    3    3    0    0 -0.12058968565E+02 -0.10912022872E+02  0.19581935481E+02  0.25454727723E+02  0.51100000000E-03 0.  1.
        -12    1    3    3    0    0 -0.18244979195E+02  0.24679248870E+01 -0.24605181686E+01  0.18574823518E+02  0.00000000000E+00 0.  1.
</event>
<event>
 7    1  0.2966651E-011  0.5052888E+02  0.7816164E-02  0.1300439E+00
        -11   -1    0    0    0    0  0.00000000000E+00  0.00000000000E+00  0.45593999997E+02  0.45594000000E+02  0.51100000000E-03 0.  1.
         11   -1    0    0    0    0 -0.00000000000E+00 -0.00000000000E+00 -0.45593999997E+02  0.45594000000E+02  0.51100000000E-03 0. -1.
    9900012    2    1    2    0    0  0.91698278435E+01 -0.15950992414E+02  0.36258025952E+02  0.50528876207E+02  0.30000049718E+02 0.  0.
         12    1    1    2    0    0 -0.91698278435E+01  0.15950992414E+02 -0.36258025952E+02  0.40659123793E+02  0.00000000000E+00 0. -1.
         11    1    3    3    0    0 -0.88876769621E+01  0.45193971979E+00  0.32365093556E+01  0.94694268234E+01  0.51100000000E-03 0. -1.
        -11    1    3    3    0    0  0.83192125266E+01 -0.79014686075E+01  0.15309813556E+02  0.19131986164E+02  0.51100000000E-03 0.  1.
         12    1    3    3    0    0  0.97382922790E+01 -0.85014635267E+01  0.17711703041E+02  0.21927463219E+02  0.00000000000E+00 0. -1.
</event>
<event>
 7    1  0.2966651E-011  0.5052884E+02  0.7816164E-02  0.1300439E+00
        -11   -1    0    0    0    0  0.00000000000E+00  0.00000000000E+00  0.45593999997E+02  0.45594000000E+02  0.51100000000E-03 0. -1.
         11   -1    0    0    0    0 -0.00000000000E+00 -0.00000000000E+00 -0.45593999997E+02  0.45594000000E+02  0.51100000000E-03 0.  1.
    9900012    2    1    2    0    0  0.34940326929E+02 -0.94552750459E+01  0.18518599891E+02  0.50528840957E+02  0.29999942574E+02 0.  0.
         12    1    1    2    0    0 -0.34940326929E+02  0.94552750459E+01 -0.18518599891E+02  0.40659159043E+02  0.00000000000E+00 0. -1.
         11    1    3    3    0    0  0.88403920709E+01  0.74440794871E+01  0.37165954967E+01  0.12140013745E+02  0.51100000000E-03 0. -1.
        -11    1    3    3    0    0  0.18976544966E+02 -0.10138118256E+02  0.11163679683E+01  0.21543838523E+02  0.51100000000E-03 0.  1.
        -12    1    3    3    0    0  0.71233898922E+01 -0.67612362775E+01  0.13685636426E+02  0.16844988689E+02  0.00000000000E+00 0.  1.
</event>
<event>
 7    1  0.2966651E-011  0.5052886E+02  0.7816164E-02  0.1300439E+00
        -11   -1    0    0    0    0  0.00000000000E+00  0.00000000000E+00  0.45593999997E+02  0.45594000000E+02  0.51100000000E-03 0.  1.
         11   -1    0    0    0    0 -0.00000000000E+00 -0.00000000000E+00 -0.45593999997E+02  0.45594000000E+02  0.51100000000E-03 0. -1.
    9900012    2    1    2    0    0  0.31785312173E+02  0.10056637422E+02  0.23274957360E+02  0.50528859991E+02  0.30000000429E+02 0.  0.
         12    1    1    2    0    0 -0.31785312173E+02 -0.10056637422E+02 -0.23274957360E+02  0.40659140009E+02  0.00000000000E+00 0. -1.
         11    1    3    3    0    0  0.57258578135E+01  0.88636399527E+01  0.30296438369E+01  0.10978538288E+02  0.51100000000E-03 0. -1.
        -11    1    3    3    0    0  0.92462321084E+01  0.70534646210E+00  0.20744336773E+02  0.22722628154E+02  0.51100000000E-03 0.  1.
        -12    1    3    3    0    0  0.16813222251E+02  0.48765100728E+00 -0.49902324958E+00  0.16827693549E+02  0.00000000000E+00 0.  1.
</event>
<event>
 7    1  0.2966651E-011  0.5052886E+02  0.7816164E-02  0.1300439E+00
        -11   -1    0    0    0    0  0.00000000000E+00  0.00000000000E+00  0.45593999997E+02  0.45594000000E+02  0.51100000000E-03 0. -1.
         11   -1    0    0    0    0 -0.00000000000E+00 -0.00000000000E+00 -0.45593999997E+02  0.45594000000E+02  0.51100000000E-03 0.  1.
    9900012    2    1    2    0    0 -0.20709686390E+00  0.30528450390E+02 -0.26853984658E+02  0.50528860015E+02  0.30000000501E+02 0.  0.
         12    1    1    2    0    0  0.20709686390E+00 -0.30528450390E+02  0.26853984658E+02  0.40659139985E+02  0.00000000000E+00 0. -1.
         11    1    3    3    0    0 -0.62314049637E+01  0.84333810068E+01 -0.13766434292E+01  0.10575796444E+02  0.51100000000E-03 0. -1.
        -11    1    3    3    0    0  0.12023174654E+02  0.21575329457E+02 -0.19504716536E+02  0.31471980194E+02  0.51100000000E-03 0.  1.
        -12    1    3    3    0    0 -0.59988665540E+01  0.51973992599E+00 -0.59726246929E+01  0.84810833769E+01  0.00000000000E+00 0.  1.
</event>
<event>
 7    1  0.2966651E-011  0.5052885E+02  0.7816164E-02  0.1300439E+00
        -11   -1    0    0    0    0  0.00000000000E+00  0.00000000000E+00  0.45593999997E+02  0.45594000000E+02  0.51100000000E-03 0.  1.
         11   -1    0    0    0    0 -0.00000000000E+00 -0.00000000000E+00 -0.45593999997E+02  0.45594000000E+02  0.51100000000E-03 0. -1.
    9900012    2    1    2    0    0  0.10285439809E+02  0.19143359698E+01  0.39290094326E+02  0.50528850151E+02  0.29999970520E+02 0.  0.
         12    1    1    2    0    0 -0.10285439809E+02 -0.19143359698E+01 -0.39290094326E+02  0.40659149849E+02  0.00000000000E+00 0. -1.
         11    1    3    3    0    0 -0.45831417314E+01  0.89313920795E+01  0.16093124323E+02  0.18967435339E+02  0.51100000000E-03 0. -1.
        -11    1    3    3    0    0  0.10673732972E+02 -0.90285951066E+01  0.22987097690E+02  0.26904474826E+02  0.51100000000E-03 0.  1.
         12    1    3    3    0    0  0.41948485684E+01  0.20115389969E+01  0.20987231218E+00  0.46569399862E+01  0.00000000000E+00 0. -1.
</event>
<event>
 7    1  0.2966651E-011  0.5052886E+02  0.7816164E-02  0.1300439E+00
        -11   -1    0    0    0    0  0.00000000000E+00  0.00000000000E+00  0.45593999997E+02  0.45594000000E+02  0.51100000000E-03 0.  1.
         11   -1    0    0    0    0 -0.00000000000E+00 -0.00000000000E+00 -0.45593999997E+02  0.45594000000E+02  0.51100000000E-03 0. -1.
    9900012    2    1    2    0    0 -0.30068805367E+02 -0.22444323530E+02  0.15661569846E+02  0.50528862221E+02  0.30000007206E+02 0.  0.
         12    1    1    2    0    0  0.30068805367E+02  0.22444323530E+02 -0.15661569846E+02  0.40659137779E+02  0.00000000000E+00 0. -1.
         11    1    3    3    0    0 -0.35692779815E+01  0.53908664801E+01  0.82053898132E+01  0.10446511808E+02  0.51100000000E-03 0.  1.
        -11    1    3    3    0    0 -0.12517090368E+02 -0.15137612621E+02 -0.34936509152E+00  0.19645531893E+02  0.51100000000E-03 0. -1.
         12    1    3    3    0    0 -0.13982437017E+02 -0.12697577390E+02  0.78055451241E+01  0.20436818520E+02  0.00000000000E+00 0. -1.
</event>
<event>
 7    1  0.2966651E-011  0.5052886E+02  0.7816164E-02  0.1300439E+00
        -11   -1    0    0    0    0  0.00000000000E+00  0.00000000000E+00  0.45593999997E+02  0.45594000000E+02  0.51100000000E-03 0.  1.
         11   -1    0    0    0    0 -0.00000000000E+00 -0.00000000000E+00 -0.45593999997E+02  0.45594000000E+02  0.51100000000E-03 0. -1.
    9900012    2    1    2    0    0 -0.31562172875E+02 -0.24695177064E+02  0.68660616501E+01  0.50528864133E+02  0.30000013019E+02 0.  0.
         12    1    1    2    0    0  0.31562172875E+02  0.24695177064E+02 -0.68660616501E+01  0.40659135867E+02  0.00000000000E+00 0. -1.
         11    1    3    3    0    0  0.16927784994E+01 -0.12550991368E+02  0.26369654953E+00  0.12667376189E+02  0.51100000000E-03 0. -1.
        -11    1    3    3    0    0 -0.15885989372E+02  0.32885415507E-01  0.97745186119E+00  0.15916065851E+02  0.51100000000E-03 0.  1.
        -12    1    3    3    0    0 -0.17368962003E+02 -0.12177071111E+02  0.56249132394E+01  0.21945422094E+02  0.00000000000E+00 0.  1.
</event>
<event>
 7    1  0.2966651E-011  0.5052887E+02  0.7816164E-02  0.1300439E+00
        -11   -1    0    0    0    0  0.00000000000E+00  0.00000000000E+00  0.45593999997E+02  0.45594000000E+02  0.51100000000E-03 0.  1.
         11   -1    0    0    0    0 -0.00000000000E+00 -0.00000000000E+00 -0.45593999997E+02  0.45594000000E+02  0.51100000000E-03 0. -1.
    9900012    2    1    2    0    0  0.31620014198E+02 -0.18791815422E+02  0.17326479777E+02  0.50528874011E+02  0.30000043044E+02 0.  0.
         12    1    1    2    0    0 -0.31620014198E+02  0.18791815422E+02 -0.17326479777E+02  0.40659125989E+02  0.00000000000E+00 0. -1.
         11    1    3    3    0    0  0.22242728452E+02 -0.21913393971E+02  0.48992506525E+01  0.31605987748E+02  0.51100000000E-03 0. -1.
        -11    1    3    3    0    0  0.82547878055E+01 -0.38256822433E+00  0.29802728156E+01  0.87846403726E+01  0.51100000000E-03 0.  1.
         12    1    3    3    0    0  0.11224979405E+01  0.35041467732E+01  0.94469563084E+01  0.10138245890E+02  0.00000000000E+00 0. -1.
</event>
<event>
 7    1  0.2966651E-011  0.5052885E+02  0.7816164E-02  0.1300439E+00
        -11   -1    0    0    0    0  0.00000000000E+00  0.00000000000E+00  0.45593999997E+02  0.45594000000E+02  0.51100000000E-03 0.  1.
         11   -1    0    0    0    0 -0.00000000000E+00 -0.00000000000E+00 -0.45593999997E+02  0.45594000000E+02  0.51100000000E-03 0. -1.
    9900012    2    1    2    0    0 -0.64845497768E+01 -0.19579662184E+02  0.35039318331E+02  0.50528851139E+02  0.29999973521E+02 0.  0.
         12    1    1    2    0    0  0.64845497768E+01  0.19579662184E+02 -0.35039318331E+02  0.40659148861E+02  0.00000000000E+00 0. -1.
         11    1    3    3    0    0 -0.59727685470E+00  0.18446615599E+01 -0.36069991489E+01  0.40951140440E+01  0.51100000000E-03 0. -1.
        -11    1    3    3    0    0  0.32030342454E+01 -0.12633525987E+02  0.18012817801E+02  0.22233466051E+02  0.51100000000E-03 0.  1.
        -12    1    3    3    0    0 -0.90903071674E+01 -0.87907977572E+01  0.20633499679E+02  0.24200271044E+02  0.00000000000E+00 0.  1.
</event>
<event>
 7    1  0.2966651E-011  0.5052887E+02  0.7816164E-02  0.1300439E+00
        -11   -1    0    0    0    0  0.00000000000E+00  0.00000000000E+00  0.45593999997E+02  0.45594000000E+02  0.51100000000E-03 0.  1.
         11   -1    0    0    0    0 -0.00000000000E+00 -0.00000000000E+00 -0.45593999997E+02  0.45594000000E+02  0.51100000000E-03 0. -1.
    9900012    2    1    2    0    0 -0.26515103120E+02 -0.29672988521E+02  0.83443417515E+01  0.50528868424E+02  0.30000026062E+02 0.  0.
         12    1    1    2    0    0  0.26515103120E+02  0.29672988521E+02 -0.83443417515E+01  0.40659131576E+02  0.00000000000E+00 0. -1.
         11    1    3    3    0    0  0.80172378735E+00 -0.80365128500E+01 -0.38572106045E+01  0.89502164068E+01  0.51100000000E-03 0. -1.
        -11    1    3    3    0    0 -0.21490665439E+02 -0.21281531548E+02  0.16384393807E+02  0.34397683741E+02  0.51100000000E-03 0.  1.
        -12    1    3    3    0    0 -0.58261614683E+01 -0.35494412335E+00 -0.41828414512E+01  0.71809682767E+01  0.00000000000E+00 0.  1.
</event>
<event>
 7    1  0.2966651E-011  0.5052886E+02  0.7816164E-02  0.1300439E+00
        -11   -1    0    0    0    0  0.00000000000E+00  0.00000000000E+00  0.45593999997E+02  0.45594000000E+02  0.51100000000E-03 0.  1.
         11   -1    0    0    0    0 -0.00000000000E+00 -0.00000000000E+00 -0.45593999997E+02  0.45594000000E+02  0.51100000000E-03 0. -1.
    9900012    2    1    2    0    0  0.37295189248E+02  0.15133518021E+02 -0.57629156979E+01  0.50528859501E+02  0.29999998940E+02 0.  0.
         12    1    1    2    0    0 -0.37295189248E+02 -0.15133518021E+02  0.57629156979E+01  0.40659140499E+02  0.00000000000E+00 0. -1.
         11    1    3    3    0    0  0.14774257127E+02 -0.60754593894E+01  0.52536336966E+01  0.16816377366E+02  0.51100000000E-03 0. -1.
        -11    1    3    3    0    0  0.13794457176E+02  0.95450059807E+01 -0.28586315984E+01  0.17016637824E+02  0.51100000000E-03 0.  1.
         12    1    3    3    0    0  0.87264749453E+01  0.11663971430E+02 -0.81579177961E+01  0.16695844311E+02  0.00000000000E+00 0. -1.
</event>
<event>
 7    1  0.2966651E-011  0.5052886E+02  0.7816164E-02  0.1300439E+00
        -11   -1    0    0    0    0  0.00000000000E+00  0.00000000000E+00  0.45593999997E+02  0.45594000000E+02  0.51100000000E-03 0.  1.
         11   -1    0    0    0    0 -0.00000000000E+00 -0.00000000000E+00 -0.45593999997E+02  0.45594000000E+02  0.51100000000E-03 0. -1.
    9900012    2    1    2    0    0  0.32758432079E+02  0.10271177674E+02  0.21784255812E+02  0.50528858785E+02  0.29999996762E+02 0.  0.
         12    1    1    2    0    0 -0.32758432079E+02 -0.10271177674E+02 -0.21784255812E+02  0.40659141215E+02  0.00000000000E+00 0. -1.
         11    1    3    3    0    0  0.17388446029E+02 -0.25030101923E-01  0.14243695432E+02  0.22477578643E+02  0.51100000000E-03 0. -1.
        -11    1    3    3    0    0  0.80631892033E+01 -0.10105844314E+01 -0.50922422987E+01  0.95899547919E+01  0.51100000000E-03 0.  1.
        -12    1    3    3    0    0  0.73067968465E+01  0.11306792207E+02  0.12632802678E+02  0.18461325350E+02  0.00000000000E+00 0.  1.
</event>
<event>
 7    1  0.2966651E-011  0.5052886E+02  0.7816164E-02  0.1300439E+00
        -11   -1    0    0    0    0  0.00000000000E+00  0.00000000000E+00  0.45593999997E+02  0.45594000000E+02  0.51100000000E-03 0. -1.
         11   -1    0    0    0    0 -0.00000000000E+00 -0.00000000000E+00 -0.45593999997E+02  0.45594000000E+02  0.51100000000E-03 0.  1.
    9900012    2    1    2    0    0  0.92930411139E+01  0.32164659553E+02 -0.23070319108E+02  0.50528861285E+02  0.30000004362E+02 0.  0.
         12    1    1    2    0    0 -0.92930411139E+01 -0.32164659553E+02  0.23070319108E+02  0.40659138715E+02  0.00000000000E+00 0. -1.
         11    1    3    3    0    0  0.35428437027E+01  0.38887336284E+01 -0.96573839750E+01  0.10997229480E+02  0.51100000000E-03 0. -1.
        -11    1    3    3    0    0  0.44459498990E+01  0.31637050752E+02 -0.78427375508E+01  0.32896473722E+02  0.51100000000E-03 0.  1.
        -12    1    3    3    0    0  0.13042475121E+01 -0.33611248278E+01 -0.55701975821E+01  0.66351580829E+01  0.00000000000E+00 0.  1.
</event>
<event>
 7    1  0.2966651E-011  0.5052886E+02  0.7816164E-02  0.1300439E+00
        -11   -1    0    0    0    0  0.00000000000E+00  0.00000000000E+00  0.45593999997E+02  0.45594000000E+02  0.51100000000E-03 0. -1.
         11   -1    0    0    0    0 -0.00000000000E+00 -0.00000000000E+00 -0.45593999997E+02  0.45594000000E+02  0.51100000000E-03 0.  1.
    9900012    2    1    2    0    0  0.24638937272E+02  0.12127202856E+02 -0.29983652934E+02  0.50528859302E+02  0.29999998334E+02 0.  0.
         12    1    1    2    0    0 -0.24638937272E+02 -0.12127202856E+02  0.29983652934E+02  0.40659140698E+02  0.00000000000E+00 0. -1.
         11    1    3    3    0    0 -0.16543052800E+01 -0.29550003526E+01 -0.14899388255E+01  0.36998204022E+01  0.51100000000E-03 0. -1.
        -11    1    3    3    0    0  0.13248639604E+02  0.17656123321E+02 -0.24430580616E+02  0.32925953465E+02  0.51100000000E-03 0.  1.
        -12    1    3    3    0    0  0.13044602949E+02 -0.25739201125E+01 -0.40631334930E+01  0.13903085435E+02  0.00000000000E+00 0.  1.
</event>
<event>
 7    1  0.2966651E-011  0.5052886E+02  0.7816164E-02  0.1300439E+00
        -11   -1    0    0    0    0  0.00000000000E+00  0.00000000000E+00  0.45593999997E+02  0.45594000000E+02  0.51100000000E-03 0.  1.
         11   -1    0    0    0    0 -0.00000000000E+00 -0.00000000000E+00 -0.45593999997E+02  0.45594000000E+02  0.51100000000E-03 0. -1.
    9900012    2    1    2    0    0 -0.16154099045E+01  0.19104556997E+02  0.35854871187E+02  0.50528862834E+02  0.30000009071E+02 0.  0.
         12    1    1    2    0    0  0.16154099045E+01 -0.19104556997E+02 -0.35854871187E+02  0.40659137166E+02  0.00000000000E+00 0. -1.
         11    1    3    3    0    0 -0.47884018479E+01 -0.26780118225E+01  0.97571207467E+01  0.11193835138E+02  0.51100000000E-03 0. -1.
        -11    1    3    3    0    0  0.91808208772E+01  0.19440711769E+02  0.14089110272E+02  0.25704703355E+02  0.51100000000E-03 0.  1.
        -12    1    3    3    0    0 -0.60078289338E+01  0.23418570510E+01  0.12008640169E+02  0.13630324341E+02  0.00000000000E+00 0.  1.
</event>
<event>
 7    1  0.2966651E-011  0.5052886E+02  0.7816164E-02  0.1300439E+00
        -11   -1    0    0    0    0  0.00000000000E+00  0.00000000000E+00  0.45593999997E+02  0.45594000000E+02  0.51100000000E-03 0. -1.
         11   -1    0    0    0    0 -0.00000000000E+00 -0.00000000000E+00 -0.45593999997E+02  0.45594000000E+02  0.51100000000E-03 0.  1.
    9900012    2    1    2    0    0  0.38444324789E+02 -0.15882161936E+01 -0.13140667898E+02  0.50528859675E+02  0.29999999468E+02 0.  0.
         12    1    1    2    0    0 -0.38444324789E+02  0.15882161936E+01  0.13140667898E+02  0.40659140325E+02  0.00000000000E+00 0. -1.
         11    1    3    3    0    0  0.10132051299E+02 -0.56897348635E+00  0.87121876364E+01  0.13374767588E+02  0.51100000000E-03 0. -1.
        -11    1    3    3    0    0  0.23898395311E+02  0.29360082704E+01 -0.16724419467E+02  0.29316542255E+02  0.51100000000E-03 0.  1.
         12    1    3    3    0    0  0.44138781785E+01 -0.39552509776E+01 -0.51284360675E+01  0.78375498320E+01  0.00000000000E+00 0. -1.
</event>
<event>
 7    1  0.2966651E-011  0.5052886E+02  0.7816164E-02  0.1300439E+00
        -11   -1    0    0    0    0  0.00000000000E+00  0.00000000000E+00  0.45593999997E+02  0.45594000000E+02  0.51100000000E-03 0. -1.
         11   -1    0    0    0    0 -0.00000000000E+00 -0.00000000000E+00 -0.45593999997E+02  0.45594000000E+02  0.51100000000E-03 0.  1.
    9900012    2    1    2    0    0 -0.26781418275E+02 -0.12133988119E+02 -0.28083583530E+02  0.50528859621E+02  0.29999999303E+02 0.  0.
         12    1    1    2    0    0  0.26781418275E+02  0.12133988119E+02  0.28083583530E+02  0.40659140379E+02  0.00000000000E+00 0. -1.
         11    1    3    3    0    0 -0.13996056761E+02 -0.15379010670E+02 -0.17519551957E+01  0.20867987956E+02  0.51100000000E-03 0. -1.
        -11    1    3    3    0    0 -0.34564158606E+01  0.68497057887E+00 -0.10825948535E+02  0.11384953107E+02  0.51100000000E-03 0.  1.
         12    1    3    3    0    0 -0.93289456532E+01  0.25600519725E+01 -0.15505679800E+02  0.18275918558E+02  0.00000000000E+00 0. -1.
</event>
<event>
 7    1  0.2966651E-011  0.5052896E+02  0.7816164E-02  0.1300438E+00
        -11   -1    0    0    0    0  0.00000000000E+00  0.00000000000E+00  0.45593999997E+02  0.45594000000E+02  0.51100000000E-03 0.  1.
         11   -1    0    0    0    0 -0.00000000000E+00 -0.00000000000E+00 -0.45593999997E+02  0.45594000000E+02  0.51100000000E-03 0. -1.
    9900012    2    1    2    0    0 -0.37498060790E+02 -0.30028923444E+01  0.15428391234E+02  0.50528964331E+02  0.30000317579E+02 0.  0.
         12    1    1    2    0    0  0.37498060790E+02  0.30028923444E+01 -0.15428391234E+02  0.40659035669E+02  0.00000000000E+00 0. -1.
         11    1    3    3    0    0 -0.13210536796E+02 -0.49647218392E+01 -0.12136013140E+01  0.14164729923E+02  0.51100000000E-03 0. -1.
        -11    1    3    3    0    0 -0.66020233737E+01 -0.53931770113E+01  0.14854785113E+02  0.17127104599E+02  0.51100000000E-03 0.  1.
        -12    1    3    3    0    0 -0.17685500620E+02  0.73550065061E+01  0.17872074344E+01  0.19237129810E+02  0.00000000000E+00 0.  1.
</event>
<event>
 7    1  0.2966651E-011  0.5052885E+02  0.7816164E-02  0.1300439E+00
        -11   -1    0    0    0    0  0.00000000000E+00  0.00000000000E+00  0.45593999997E+02  0.45594000000E+02  0.51100000000E-03 0.  1.
         11   -1    0    0    0    0 -0.00000000000E+00 -0.00000000000E+00 -0.45593999997E+02  0.45594000000E+02  0.51100000000E-03 0. -1.
    9900012    2    1    2    0    0 -0.62906553700E+01 -0.29541364780E+02  0.27219514662E+02  0.50528849044E+02  0.29999967154E+02 0.  0.
         12    1    1    2    0    0  0.62906553700E+01  0.29541364780E+02 -0.27219514662E+02  0.40659150956E+02  0.00000000000E+00 0. -1.
         11    1    3    3    0    0 -0.63318006266E+01 -0.20439073962E+02  0.42134194978E+01  0.21808263290E+02  0.51100000000E-03 0. -1.
        -11    1    3    3    0    0 -0.50815974898E+01  0.77398031429E+00  0.12074381233E+02  0.13122970738E+02  0.51100000000E-03 0.  1.
        -12    1    3    3    0    0  0.51227427463E+01 -0.98762711321E+01  0.10931713931E+02  0.15597615016E+02  0.00000000000E+00 0.  1.
</event>
<event>
 7    1  0.2966651E-011  0.5052886E+02  0.7816164E-02  0.1300439E+00
        -11   -1    0    0    0    0  0.00000000000E+00  0.00000000000E+00  0.45593999997E+02  0.45594000000E+02  0.51100000000E-03 0.  1.
         11   -1    0    0    0    0 -0.00000000000E+00 -0.00000000000E+00 -0.45593999997E+02  0.45594000000E+02  0.51100000000E-03 0. -1.
    9900012    2    1    2    0    0 -0.15115988070E+02 -0.25038550775E+02  0.28244354298E+02  0.50528859946E+02  0.30000000292E+02 0.  0.
         12    1    1    2    0    0  0.15115988070E+02  0.25038550775E+02 -0.28244354298E+02  0.40659140054E+02  0.00000000000E+00 0. -1.
         11    1    3    3    0    0  0.80589962895E+01 -0.18340672416E+01  0.97741542565E+01  0.12800207636E+02  0.51100000000E-03 0. -1.
        -11    1    3    3    0    0 -0.11110469178E+02 -0.94479502242E+01  0.75993757226E+01  0.16445570845E+02  0.51100000000E-03 0.  1.
         12    1    3    3    0    0 -0.12064515182E+02 -0.13756533309E+02  0.10870824319E+02  0.21283081465E+02  0.00000000000E+00 0. -1.
</event>
<event>
 7    1  0.2966651E-011  0.5052886E+02  0.7816164E-02  0.1300439E+00
        -11   -1    0    0    0    0  0.00000000000E+00  0.00000000000E+00  0.45593999997E+02  0.45594000000E+02  0.51100000000E-03 0.  1.
         11   -1    0    0    0    0 -0.00000000000E+00 -0.00000000000E+00 -0.45593999997E+02  0.45594000000E+02  0.51100000000E-03 0. -1.
    9900012    2    1    2    0    0 -0.19959328399E+02 -0.32078959923E+02  0.15024353642E+02  0.50528860041E+02  0.30000000580E+02 0.  0.
         12    1    1    2    0    0  0.19959328399E+02  0.32078959923E+02 -0.15024353642E+02  0.40659139959E+02  0.00000000000E+00 0. -1.
         11    1    3    3    0    0 -0.43036047417E+01 -0.72197811456E+01 -0.29309690019E+01  0.89015073508E+01  0.51100000000E-03 0. -1.
        -11    1    3    3    0    0 -0.44706643310E+01 -0.15327936068E+02  0.21237553068E+02  0.26570023038E+02  0.51100000000E-03 0.  1.
        -12    1    3    3    0    0 -0.11185059326E+02 -0.95312427090E+01 -0.32822304233E+01  0.15057329652E+02  0.00000000000E+00 0.  1.
</event>
<event>
 7    1  0.2966651E-011  0.5052886E+02  0.7816164E-02  0.1300439E+00
        -11   -1    0    0    0    0  0.00000000000E+00  0.00000000000E+00  0.45593999997E+02  0.45594000000E+02  0.51100000000E-03 0. -1.
         11   -1    0    0    0    0 -0.00000000000E+00 -0.00000000000E+00 -0.45593999997E+02  0.45594000000E+02  0.51100000000E-03 0.  1.
    9900012    2    1    2    0    0  0.19428227867E+02  0.11087713047E+02 -0.33952497937E+02  0.50528861607E+02  0.30000005341E+02 0.  0.
         12    1    1    2    0    0 -0.19428227867E+02 -0.11087713047E+02  0.33952497937E+02  0.40659138393E+02  0.00000000000E+00 0. -1.
         11    1    3    3    0    0  0.14634991016E+01  0.15677331547E+01  0.14500341850E+01  0.25888638943E+01  0.51100000000E-03 0. -1.
        -11    1    3    3    0    0  0.12510529615E+02  0.12317028921E+02 -0.37544859293E+02  0.41446821498E+02  0.51100000000E-03 0.  1.
        -12    1    3    3    0    0  0.54541991514E+01 -0.27970490279E+01  0.21423271715E+01  0.64931762149E+01  0.00000000000E+00 0.  1.
</event>
<event>
 7    1  0.2966651E-011  0.5052884E+02  0.7816164E-02  0.1300439E+00
        -11   -1    0    0    0    0  0.00000000000E+00  0.00000000000E+00  0.45593999997E+02  0.45594000000E+02  0.51100000000E-03 0.  1.
         11   -1    0    0    0    0 -0.00000000000E+00 -0.00000000000E+00 -0.45593999997E+02  0.45594000000E+02  0.51100000000E-03 0. -1.
    9900012    2    1    2    0    0 -0.39298955806E+02  0.10234061497E+02 -0.20057385887E+01  0.50528844457E+02  0.29999953211E+02 0.  0.
         12    1    1    2    0    0  0.39298955806E+02 -0.10234061497E+02  0.20057385887E+01  0.40659155543E+02  0.00000000000E+00 0. -1.
         11    1    3    3    0    0 -0.15892332428E+01 -0.40561286380E+01 -0.12883114770E+01  0.45428612735E+01  0.51100000000E-03 0. -1.
        -11    1    3    3    0    0 -0.21031593235E+02  0.12336484153E+02 -0.10505182601E+02  0.26549493724E+02  0.51100000000E-03 0.  1.
        -12    1    3    3    0    0 -0.16678129328E+02  0.19537059819E+01  0.97877554897E+01  0.19436489459E+02  0.00000000000E+00 0.  1.
</event>
<event>
 7    1  0.2966651E-011  0.5052886E+02  0.7816164E-02  0.1300439E+00
        -11   -1    0    0    0    0  0.00000000000E+00  0.00000000000E+00  0.45593999997E+02  0.45594000000E+02  0.51100000000E-03 0. -1.
         11   -1    0    0    0    0 -0.00000000000E+00 -0.00000000000E+00 -0.45593999997E+02  0.45594000000E+02  0.51100000000E-03 0.  1.
    9900012    2    1    2    0    0 -0.34510174203E+01  0.22513348926E+02 -0.33680933642E+02  0.50528859673E+02  0.29999999463E+02 0.  0.
         12    1    1    2    0    0  0.34510174203E+01 -0.22513348926E+02  0.33680933642E+02  0.40659140327E+02  0.00000000000E+00 0. -1.
         11    1    3    3    0    0  0.21325620328E+01  0.11455175701E+02 -0.38008789778E+01  0.12256245446E+02  0.51100000000E-03 0. -1.
        -11    1    3    3    0    0  0.45441492748E+00 -0.53001313307E+01 -0.12811760966E+02  0.13872242225E+02  0.51100000000E-03 0.  1.
        -12    1    3    3    0    0 -0.60379943806E+01  0.16358304555E+02 -0.17068293699E+02  0.24400372003E+02  0.00000000000E+00 0.  1.
</event>
<event>
 7    1  0.2966651E-011  0.5052885E+02  0.7816164E-02  0.1300439E+00
        -11   -1    0    0    0    0  0.00000000000E+00  0.00000000000E+00  0.45593999997E+02  0.45594000000E+02  0.51100000000E-03 0.  1.
         11   -1    0    0    0    0 -0.00000000000E+00 -0.00000000000E+00 -0.45593999997E+02  0.45594000000E+02  0.51100000000E-03 0. -1.
    9900012    2    1    2    0    0 -0.33020559292E+02  0.23689659907E+02 -0.12683721461E+01  0.50528854776E+02  0.29999984577E+02 0.  0.
         12    1    1    2    0    0  0.33020559292E+02 -0.23689659907E+02  0.12683721461E+01  0.40659145224E+02  0.00000000000E+00 0. -1.
         11    1    3    3    0    0  0.54182222455E+01  0.35309411717E+01 -0.13267289885E+01  0.66018851800E+01  0.51100000000E-03 0. -1.
        -11    1    3    3    0    0 -0.30168274712E+02  0.17984800758E+02 -0.18282833215E+01  0.35169880261E+02  0.51100000000E-03 0.  1.
         12    1    3    3    0    0 -0.82705068250E+01  0.21739179772E+01  0.18866401638E+01  0.87570893351E+01  0.00000000000E+00 0. -1.
</event>
<event>
 7    1  0.2966651E-011  0.5052885E+02  0.7816164E-02  0.1300439E+00
        -11   -1    0    0    0    0  0.00000000000E+00  0.00000000000E+00  0.45593999997E+02  0.45594000000E+02  0.51100000000E-03 0.  1.
         11   -1    0    0    0    0 -0.00000000000E+00 -0.00000000000E+00 -0.45593999997E+02  0.45594000000E+02  0.51100000000E-03 0. -1.
    9900012    2    1    2    0    0 -0.29525763116E+02 -0.27615153709E+02 -0.43358040924E+01  0.50528848520E+02  0.29999965562E+02 0.  0.
         12    1    1    2    0    0  0.29525763116E+02  0.27615153709E+02  0.43358040924E+01  0.40659151480E+02  0.00000000000E+00 0. -1.
         11    1    3    3    0    0 -0.71388470497E+01 -0.26662897527E+01 -0.81434314497E+01  0.11152924024E+02  0.51100000000E-03 0. -1.
        -11    1    3    3    0    0 -0.12554964555E+02 -0.36130691055E+01  0.82722681350E+01  0.15463241048E+02  0.51100000000E-03 0.  1.
        -12    1    3    3    0    0 -0.98319515106E+01 -0.21335794851E+02 -0.44646407777E+01  0.23912683448E+02  0.00000000000E+00 0.  1.
</event>
<event>
 7    1  0.2966651E-011  0.5052887E+02  0.7816164E-02  0.1300439E+00
        -11   -1    0    0    0    0  0.00000000000E+00  0.00000000000E+00  0.45593999997E+02  0.45594000000E+02  0.51100000000E-03 0.  1.
         11   -1    0    0    0    0 -0.00000000000E+00 -0.00000000000E+00 -0.45593999997E+02  0.45594000000E+02  0.51100000000E-03 0. -1.
    9900012    2    1    2    0    0 -0.55926590218E+00 -0.33183905620E+02  0.23487878210E+02  0.50528870726E+02  0.30000033058E+02 0.  0.
         12    1    1    2    0    0  0.55926590218E+00  0.33183905620E+02 -0.23487878210E+02  0.40659129274E+02  0.00000000000E+00 0. -1.
         11    1    3    3    0    0  0.11290024644E+02 -0.58465598347E+01  0.34538230134E+01  0.13174817344E+02  0.51100000000E-03 0. -1.
        -11    1    3    3    0    0 -0.73409398135E+01 -0.22145214584E+02  0.10463138307E+02  0.25569067050E+02  0.51100000000E-03 0.  1.
         12    1    3    3    0    0 -0.45083507329E+01 -0.51921312004E+01  0.95709168900E+01  0.11784986332E+02  0.00000000000E+00 0. -1.
</event>
<event>
 7    1  0.2966651E-011  0.5052885E+02  0.7816164E-02  0.1300439E+00
        -11   -1    0    0    0    0  0.00000000000E+00  0.00000000000E+00  0.45593999997E+02  0.45594000000E+02  0.51100000000E-03 0. -1.
         11   -1    0    0    0    0 -0.00000000000E+00 -0.00000000000E+00 -0.45593999997E+02  0.45594000000E+02  0.51100000000E-03 0.  1.
    9900012    2    1    2    0    0 -0.31981677834E+02  0.23540536695E+02 -0.87282168955E+01  0.50528851520E+02  0.29999974680E+02 0.  0.
         12    1    1    2    0    0  0.31981677834E+02 -0.23540536695E+02  0.87282168955E+01  0.40659148480E+02  0.00000000000E+00 0. -1.
         11    1    3    3    0    0  0.14247132200E+00 -0.52536008307E+01 -0.23539095688E+01  0.57586031540E+01  0.51100000000E-03 0. -1.
        -11    1    3    3    0    0 -0.90432281607E+01  0.12912638294E+02 -0.56423118386E+01  0.16743711848E+02  0.51100000000E-03 0.  1.
         12    1    3    3    0    0 -0.23080920995E+02  0.15881499231E+02 -0.73199548810E+00  0.28026536518E+02  0.00000000000E+00 0. -1.
</event>
<event>
 7    1  0.2966651E-011  0.5052887E+02  0.7816164E-02  0.1300439E+00
        -11   -1    0    0    0    0  0.00000000000E+00  0.00000000000E+00  0.45593999997E+02  0.45594000000E+02  0.51100000000E-03 0.  1.
         11   -1    0    0    0    0 -0.00000000000E+00 -0.00000000000E+00 -0.45593999997E+02  0.45594000000E+02  0.51100000000E-03 0. -1.
    9900012    2    1    2    0    0  0.40022848157E+02  0.28904692911E+01 -0.65560442093E+01  0.50528869378E+02  0.30000028960E+02 0.  0.
         12    1    1    2    0    0 -0.40022848157E+02 -0.28904692911E+01  0.65560442093E+01  0.40659130622E+02  0.00000000000E+00 0. -1.
         11    1    3    3    0    0  0.16837496666E+01  0.46070634914E+01  0.10000153416E+01  0.50060041848E+01  0.51100000000E-03 0. -1.
        -11    1    3    3    0    0  0.29937053859E+02 -0.11411415095E+02 -0.60684604914E+01  0.32607879435E+02  0.51100000000E-03 0.  1.
        -12    1    3    3    0    0  0.84020446308E+01  0.96948208951E+01 -0.14875990596E+01  0.12914985758E+02  0.00000000000E+00 0.  1.
</event>
<event>
 7    1  0.2966651E-011  0.5052886E+02  0.7816164E-02  0.1300439E+00
        -11   -1    0    0    0    0  0.00000000000E+00  0.00000000000E+00  0.45593999997E+02  0.45594000000E+02  0.51100000000E-03 0. -1.
         11   -1    0    0    0    0 -0.00000000000E+00 -0.00000000000E+00 -0.45593999997E+02  0.45594000000E+02  0.51100000000E-03 0.  1.
    9900012    2    1    2    0    0  0.20605051865E+02  0.54414567275E+01 -0.34626407674E+02  0.50528859305E+02  0.29999998343E+02 0.  0.
         12    1    1    2    0    0 -0.20605051865E+02 -0.54414567275E+01  0.34626407674E+02  0.40659140695E+02  0.00000000000E+00 0. -1.
         11    1    3    3    0    0  0.81358287121E+01  0.32532489253E+01  0.35039769471E+01  0.94367998871E+01  0.51100000000E-03 0. -1.
        -11    1    3    3    0    0  0.10258685835E+02  0.40634582221E+01 -0.21042406726E+02  0.23759949682E+02  0.51100000000E-03 0.  1.
         12    1    3    3    0    0  0.22105373172E+01 -0.18752504198E+01 -0.17087977895E+02  0.17332109736E+02  0.00000000000E+00 0. -1.
</event>
<event>
 7    1  0.2966651E-011  0.5052884E+02  0.7816164E-02  0.1300439E+00
        -11   -1    0    0    0    0  0.00000000000E+00  0.00000000000E+00  0.45593999997E+02  0.45594000000E+02  0.51100000000E-03 0. -1.
         11   -1    0    0    0    0 -0.00000000000E+00 -0.00000000000E+00 -0.45593999997E+02  0.45594000000E+02  0.51100000000E-03 0.  1.
    9900012    2    1    2    0    0  0.11304269483E+02  0.28473622240E+02 -0.26732626544E+02  0.50528843664E+02  0.29999950801E+02 0.  0.
         12    1    1    2    0    0 -0.11304269483E+02 -0.28473622240E+02  0.26732626544E+02  0.40659156336E+02  0.00000000000E+00 0. -1.
         11    1    3    3    0    0 -0.48621413252E+01  0.17725339594E+02 -0.18118109780E+02  0.25808796645E+02  0.51100000000E-03 0.  1.
        -11    1    3    3    0    0  0.51179985409E+01  0.97106364877E+01 -0.52853931651E+00  0.10989527930E+02  0.51100000000E-03 0. -1.
         12    1    3    3    0    0  0.11048412267E+02  0.10376461589E+01 -0.80859774471E+01  0.13730519089E+02  0.00000000000E+00 0. -1.
</event>
<event>
 7    1  0.2966651E-011  0.5052886E+02  0.7816164E-02  0.1300439E+00
        -11   -1    0    0    0    0  0.00000000000E+00  0.00000000000E+00  0.45593999997E+02  0.45594000000E+02  0.51100000000E-03 0. -1.
         11   -1    0    0    0    0 -0.00000000000E+00 -0.00000000000E+00 -0.45593999997E+02  0.45594000000E+02  0.51100000000E-03 0.  1.
    9900012    2    1    2    0    0 -0.31474310306E+02  0.15390829346E+02 -0.20631436387E+02  0.50528855831E+02  0.29999987783E+02 0.  0.
         12    1    1    2    0    0  0.31474310306E+02 -0.15390829346E+02  0.20631436387E+02  0.40659144169E+02  0.00000000000E+00 0. -1.
         11    1    3    3    0    0 -0.21356265330E+02 -0.45237656825E+01 -0.11536675386E+02  0.24691079442E+02  0.51100000000E-03 0. -1.
        -11    1    3    3    0    0 -0.11599865987E+02  0.17439747933E+02 -0.64279897465E+01  0.21909375877E+02  0.51100000000E-03 0.  1.
         12    1    3    3    0    0  0.14818210110E+01  0.24748470961E+01 -0.26667712542E+01  0.39284005116E+01  0.00000000000E+00 0. -1.
</event>
<event>
 7    1  0.2966651E-011  0.5052886E+02  0.7816164E-02  0.1300439E+00
        -11   -1    0    0    0    0  0.00000000000E+00  0.00000000000E+00  0.45593999997E+02  0.45594000000E+02  0.51100000000E-03 0. -1.
         11   -1    0    0    0    0 -0.00000000000E+00 -0.00000000000E+00 -0.45593999997E+02  0.45594000000E+02  0.51100000000E-03 0.  1.
    9900012    2    1    2    0    0  0.12942783981E+02  0.25634556075E+01 -0.38458793916E+02  0.50528858453E+02  0.29999995755E+02 0.  0.
         12    1    1    2    0    0 -0.12942783981E+02 -0.25634556075E+01  0.38458793916E+02  0.40659141547E+02  0.00000000000E+00 0. -1.
         11    1    3    3    0    0  0.11652603287E+02 -0.46451139141E+01 -0.71568860240E+01  0.14442342762E+02  0.51100000000E-03 0. -1.
        -11    1    3    3    0    0  0.11606097515E+01  0.58392659594E+01 -0.33207188933E+02  0.33736648308E+02  0.51100000000E-03 0.  1.
        -12    1    3    3    0    0  0.12957094236E+00  0.13693035621E+01  0.19052810409E+01  0.23498673833E+01  0.00000000000E+00 0.  1.
</event>
<event>
 7    1  0.2966651E-011  0.5052887E+02  0.7816164E-02  0.1300439E+00
        -11   -1    0    0    0    0  0.00000000000E+00  0.00000000000E+00  0.45593999997E+02  0.45594000000E+02  0.51100000000E-03 0.  1.
         11   -1    0    0    0    0 -0.00000000000E+00 -0.00000000000E+00 -0.45593999997E+02  0.45594000000E+02  0.51100000000E-03 0. -1.
    9900012    2    1    2    0    0 -0.12200100591E+02  0.69039347747E+00  0.38779453461E+02  0.50528866853E+02  0.30000021286E+02 0.  0.
         12    1    1    2    0    0  0.12200100591E+02 -0.69039347747E+00 -0.38779453461E+02  0.40659133147E+02  0.00000000000E+00 0. -1.
         11    1    3    3    0    0  0.60524381314E+01 -0.33184115603E+00  0.18171512736E+02  0.19155834653E+02  0.51100000000E-03 0. -1.
        -11    1    3    3    0    0 -0.11059647728E+02 -0.12318312581E+01  0.20133515643E+01  0.11308704652E+02  0.51100000000E-03 0.  1.
         12    1    3    3    0    0 -0.71928909939E+01  0.22540658916E+01  0.18594589161E+02  0.20064327548E+02  0.00000000000E+00 0. -1.
</event>
<event>
 7    1  0.2966651E-011  0.5052886E+02  0.7816164E-02  0.1300439E+00
        -11   -1    0    0    0    0  0.00000000000E+00  0.00000000000E+00  0.45593999997E+02  0.45594000000E+02  0.51100000000E-03 0.  1.
         11   -1    0    0    0    0 -0.00000000000E+00 -0.00000000000E+00 -0.45593999997E+02  0.45594000000E+02  0.51100000000E-03 0. -1.
    9900012    2    1    2    0    0 -0.34729466079E+02  0.16075907115E+02  0.13732991053E+02  0.50528860228E+02  0.30000001149E+02 0.  0.
         12    1    1    2    0    0  0.34729466079E+02 -0.16075907115E+02 -0.13732991053E+02  0.40659139772E+02  0.00000000000E+00 0. -1.
         11    1    3    3    0    0 -0.28203236755E+02  0.91220781211E+00 -0.59606484144E+00  0.28224279975E+02  0.51100000000E-03 0. -1.
        -11    1    3    3    0    0 -0.66544029686E+01  0.15376397588E+02  0.14343783795E+02  0.22055811376E+02  0.51100000000E-03 0.  1.
         12    1    3    3    0    0  0.12817364389E+00 -0.21269828456E+00 -0.14727900069E-01  0.24876887724E+00  0.00000000000E+00 0. -1.
</event>
<event>
 7    1  0.2966651E-011  0.5052884E+02  0.7816164E-02  0.1300439E+00
        -11   -1    0    0    0    0  0.00000000000E+00  0.00000000000E+00  0.45593999997E+02  0.45594000000E+02  0.51100000000E-03 0.  1.
         11   -1    0    0    0    0 -0.00000000000E+00 -0.00000000000E+00 -0.45593999997E+02  0.45594000000E+02  0.51100000000E-03 0. -1.
    9900012    2    1    2    0    0  0.58704469307E+01  0.14408230736E+01  0.40207326027E+02  0.50528841321E+02  0.29999943679E+02 0.  0.
         12    1    1    2    0    0 -0.58704469307E+01 -0.14408230736E+01 -0.40207326027E+02  0.40659158679E+02  0.00000000000E+00 0. -1.
         11    1    3    3    0    0 -0.25157342578E+00  0.11545663730E+02  0.10881662138E+02  0.15867457619E+02  0.51100000000E-03 0. -1.
        -11    1    3    3    0    0  0.97581957818E+01 -0.72377951403E+01  0.26709565810E+02  0.29342954340E+02  0.51100000000E-03 0.  1.
         12    1    3    3    0    0 -0.36361754254E+01 -0.28670455159E+01  0.26160980788E+01  0.53184293614E+01  0.00000000000E+00 0. -1.
</event>
<event>
 7    1  0.2966651E-011  0.5052886E+02  0.7816164E-02  0.1300439E+00
        -11   -1    0    0    0    0  0.00000000000E+00  0.00000000000E+00  0.45593999997E+02  0.45594000000E+02  0.51100000000E-03 0.  1.
         11   -1    0    0    0    0 -0.00000000000E+00 -0.00000000000E+00 -0.45593999997E+02  0.45594000000E+02  0.51100000000E-03 0. -1.
    9900012    2    1    2    0    0 -0.71501724660E+01 -0.26349843313E+02  0.30128493140E+02  0.50528864399E+02  0.30000013828E+02 0.  0.
         12    1    1    2    0    0  0.71501724660E+01  0.26349843313E+02 -0.30128493140E+02  0.40659135601E+02  0.00000000000E+00 0. -1.
         11    1    3    3    0    0  0.72478747885E+00 -0.28291053416E+01 -0.21117110234E+01  0.36039530561E+01  0.51100000000E-03 0. -1.
        -11    1    3    3    0    0 -0.12163559911E+02 -0.76760866973E+01  0.25301247589E+02  0.29103739047E+02  0.51100000000E-03 0.  1.
        -12    1    3    3    0    0  0.42885999660E+01 -0.15844651274E+02  0.69389565749E+01  0.17821172296E+02  0.00000000000E+00 0.  1.
</event>
<event>
 7    1  0.2966651E-011  0.5052878E+02  0.7816164E-02  0.1300439E+00
        -11   -1    0    0    0    0  0.00000000000E+00  0.00000000000E+00  0.45593999997E+02  0.45594000000E+02  0.51100000000E-03 0. -1.
         11   -1    0    0    0    0 -0.00000000000E+00 -0.00000000000E+00 -0.45593999997E+02  0.45594000000E+02  0.51100000000E-03 0.  1.
    9900012    2    1    2    0    0  0.26335988394E+02 -0.23054379585E+02 -0.20690181154E+02  0.50528778427E+02  0.29999752505E+02 0.  0.
         12    1    1    2    0    0 -0.26335988394E+02  0.23054379585E+02  0.20690181154E+02  0.40659221573E+02  0.00000000000E+00 0. -1.
         11    1    3    3    0    0  0.13735533514E+01 -0.19336401490E+02 -0.11811280504E+02  0.22699987199E+02  0.51100000000E-03 0. -1.
        -11    1    3    3    0    0  0.86884206615E+01 -0.42248999854E+01 -0.57689911960E+01  0.11252541631E+02  0.51100000000E-03 0.  1.
         12    1    3    3    0    0  0.16274014382E+02  0.50692189071E+00 -0.31099094538E+01  0.16576249597E+02  0.00000000000E+00 0. -1.
</event>
<event>
 7    1  0.2966651E-011  0.5052886E+02  0.7816164E-02  0.1300439E+00
        -11   -1    0    0    0    0  0.00000000000E+00  0.00000000000E+00  0.45593999997E+02  0.45594000000E+02  0.51100000000E-03 0. -1.
         11   -1    0    0    0    0 -0.00000000000E+00 -0.00000000000E+00 -0.45593999997E+02  0.45594000000E+02  0.51100000000E-03 0.  1.
    9900012    2    1    2    0    0 -0.29912948688E+02 -0.26491955504E+02  0.75204479270E+01  0.50528863971E+02  0.30000012526E+02 0.  0.
         12    1    1    2    0    0  0.29912948688E+02  0.26491955504E+02 -0.75204479270E+01  0.40659136029E+02  0.00000000000E+00 0. -1.
         11    1    3    3    0    0 -0.84664487569E+00 -0.41969493726E+01 -0.25880215449E+01  0.50029038927E+01  0.51100000000E-03 0. -1.
        -11    1    3    3    0    0 -0.21569385958E+02 -0.18772336103E+01  0.26725607781E+00  0.21652571272E+02  0.51100000000E-03 0.  1.
        -12    1    3    3    0    0 -0.74969178545E+01 -0.20417772521E+02  0.98412133940E+01  0.23873388806E+02  0.00000000000E+00 0.  1.
</event>
<event>
 7    1  0.3058870E-011  0.5052889E+02  0.7816164E-02  0.1300439E+00
        -11   -1    0    0    0    0  0.00000000000E+00  0.00000000000E+00  0.45593999997E+02  0.45594000000E+02  0.51100000000E-03 0. -1.
         11   -1    0    0    0    0 -0.00000000000E+00 -0.00000000000E+00 -0.45593999997E+02  0.45594000000E+02  0.51100000000E-03 0.  1.
    9900012    2    1    2    0    0 -0.25985374024E+02  0.31227441880E+02 -0.16645520630E+01  0.50528886346E+02  0.30000080537E+02 0.  0.
         12    1    1    2    0    0  0.25985374024E+02 -0.31227441880E+02  0.16645520630E+01  0.40659113654E+02  0.00000000000E+00 0. -1.
         11    1    3    3    0    0  0.55493358612E+00  0.95906387977E+00 -0.48090217794E+01  0.49350223451E+01  0.51100000000E-03 0. -1.
        -11    1    3    3    0    0 -0.17893481419E+02  0.16025229846E+02  0.11860937651E+02  0.26789298444E+02  0.51100000000E-03 0.  1.
        -12    1    3    3    0    0 -0.86468261912E+01  0.14243148154E+02 -0.87164679344E+01  0.18804565557E+02  0.00000000000E+00 0.  1.
</event>
<event>
 7    1  0.2966651E-011  0.5052887E+02  0.7816164E-02  0.1300439E+00
        -11   -1    0    0    0    0  0.00000000000E+00  0.00000000000E+00  0.45593999997E+02  0.45594000000E+02  0.51100000000E-03 0. -1.
         11   -1    0    0    0    0 -0.00000000000E+00 -0.00000000000E+00 -0.45593999997E+02  0.45594000000E+02  0.51100000000E-03 0.  1.
    9900012    2    1    2    0    0  0.51171994815E+01 -0.29787892451E+02 -0.27196709011E+02  0.50528865132E+02  0.30000016055E+02 0.  0.
         12    1    1    2    0    0 -0.51171994815E+01  0.29787892451E+02  0.27196709011E+02  0.40659134868E+02  0.00000000000E+00 0. -1.
         11    1    3    3    0    0 -0.47676942152E+01  0.23057982398E+01 -0.95266926424E+01  0.10899792962E+02  0.51100000000E-03 0. -1.
        -11    1    3    3    0    0  0.10965325069E+02 -0.21381675553E+02 -0.85054427431E+01  0.25490330713E+02  0.51100000000E-03 0.  1.
        -12    1    3    3    0    0 -0.10804313728E+01 -0.10712015137E+02 -0.91645736253E+01  0.14138741457E+02  0.00000000000E+00 0.  1.
</event>
<event>
 7    1  0.2966651E-011  0.5052886E+02  0.7816164E-02  0.1300439E+00
        -11   -1    0    0    0    0  0.00000000000E+00  0.00000000000E+00  0.45593999997E+02  0.45594000000E+02  0.51100000000E-03 0.  1.
         11   -1    0    0    0    0 -0.00000000000E+00 -0.00000000000E+00 -0.45593999997E+02  0.45594000000E+02  0.51100000000E-03 0. -1.
    9900012    2    1    2    0    0  0.27702613724E+02  0.35178716036E+01  0.29552588988E+02  0.50528859040E+02  0.29999997537E+02 0.  0.
         12    1    1    2    0    0 -0.27702613724E+02 -0.35178716036E+01 -0.29552588988E+02  0.40659140960E+02  0.00000000000E+00 0. -1.
         11    1    3    3    0    0  0.30682889904E+01  0.50113739262E+01 -0.40639711444E+01  0.71445173161E+01  0.51100000000E-03 0. -1.
        -11    1    3    3    0    0  0.17806563323E+02 -0.17806374149E+01  0.14339325081E+02  0.22931650857E+02  0.51100000000E-03 0.  1.
        -12    1    3    3    0    0  0.68277614096E+01  0.28713509234E+00  0.19277235052E+02  0.20452690866E+02  0.00000000000E+00 0.  1.
</event>
<event>
 7    1  0.2966651E-011  0.5052885E+02  0.7816164E-02  0.1300439E+00
        -11   -1    0    0    0    0  0.00000000000E+00  0.00000000000E+00  0.45593999997E+02  0.45594000000E+02  0.51100000000E-03 0. -1.
         11   -1    0    0    0    0 -0.00000000000E+00 -0.00000000000E+00 -0.45593999997E+02  0.45594000000E+02  0.51100000000E-03 0.  1.
    9900012    2    1    2    0    0 -0.20799712838E+02  0.22999324377E+02 -0.26297703595E+02  0.50528853547E+02  0.29999980841E+02 0.  0.
         12    1    1    2    0    0  0.20799712838E+02 -0.22999324377E+02  0.26297703595E+02  0.40659146453E+02  0.00000000000E+00 0. -1.
         11    1    3    3    0    0 -0.61268522569E+00  0.22839207346E+01  0.59821936827E+01  0.64325981241E+01  0.51100000000E-03 0. -1.
        -11    1    3    3    0    0 -0.14997478830E+02  0.15583965663E+02 -0.28783471461E+02  0.36003785727E+02  0.51100000000E-03 0.  1.
        -12    1    3    3    0    0 -0.51895487815E+01  0.51314379795E+01 -0.34964258163E+01  0.80924696960E+01  0.00000000000E+00 0.  1.
</event>
<event>
 7    1  0.2966651E-011  0.5052885E+02  0.7816164E-02  0.1300439E+00
        -11   -1    0    0    0    0  0.00000000000E+00  0.00000000000E+00  0.45593999997E+02  0.45594000000E+02  0.51100000000E-03 0. -1.
         11   -1    0    0    0    0 -0.00000000000E+00 -0.00000000000E+00 -0.45593999997E+02  0.45594000000E+02  0.51100000000E-03 0.  1.
    9900012    2    1    2    0    0  0.28877592628E+02  0.24287914436E+02 -0.15144261905E+02  0.50528845899E+02  0.29999957593E+02 0.  0.
         12    1    1    2    0    0 -0.28877592628E+02 -0.24287914436E+02  0.15144261905E+02  0.40659154101E+02  0.00000000000E+00 0. -1.
         11    1    3    3    0    0  0.77922240445E+01  0.29140793480E+01 -0.11592850225E+02  0.14269015054E+02  0.51100000000E-03 0. -1.
        -11    1    3    3    0    0  0.18204561233E+02  0.17993124148E+02  0.54973339122E+01  0.26179748790E+02  0.51100000000E-03 0.  1.
        -12    1    3    3    0    0  0.28808073499E+01  0.33807109399E+01 -0.90487455920E+01  0.10080082055E+02  0.00000000000E+00 0.  1.
</event>
<event>
 7    1  0.2966651E-011  0.5052886E+02  0.7816164E-02  0.1300439E+00
        -11   -1    0    0    0    0  0.00000000000E+00  0.00000000000E+00  0.45593999997E+02  0.45594000000E+02  0.51100000000E-03 0. -1.
         11   -1    0    0    0    0 -0.00000000000E+00 -0.00000000000E+00 -0.45593999997E+02  0.45594000000E+02  0.51100000000E-03 0.  1.
    9900012    2    1    2    0    0  0.17249236425E+02  0.15718879505E+02 -0.33294838149E+02  0.50528861083E+02  0.30000003748E+02 0.  0.
         12    1    1    2    0    0 -0.17249236425E+02 -0.15718879505E+02  0.33294838149E+02  0.40659138917E+02  0.00000000000E+00 0. -1.
         11    1    3    3    0    0  0.23021204437E+02  0.16838977404E+02 -0.17065910063E+02  0.33238115174E+02  0.51100000000E-03 0. -1.
        -11    1    3    3    0    0 -0.40314581677E+01 -0.31949160105E+00 -0.10645030351E+02  0.11387335126E+02  0.51100000000E-03 0.  1.
         12    1    3    3    0    0 -0.17405098451E+01 -0.80060629827E+00 -0.55838977341E+01  0.59034107828E+01  0.00000000000E+00 0. -1.
</event>
<event>
 7    1  0.2966651E-011  0.5052886E+02  0.7816164E-02  0.1300439E+00
        -11   -1    0    0    0    0  0.00000000000E+00  0.00000000000E+00  0.45593999997E+02  0.45594000000E+02  0.51100000000E-03 0.  1.
         11   -1    0    0    0    0 -0.00000000000E+00 -0.00000000000E+00 -0.45593999997E+02  0.45594000000E+02  0.51100000000E-03 0. -1.
    9900012    2    1    2    0    0 -0.77071828188E+01  0.26844970644E+01  0.39831624310E+02  0.50528862199E+02  0.30000007141E+02 0.  0.
         12    1    1    2    0    0  0.77071828188E+01 -0.26844970644E+01 -0.39831624310E+02  0.40659137801E+02  0.00000000000E+00 0. -1.
         11    1    3    3    0    0 -0.50190317114E+01 -0.34973416554E+01  0.17754062784E+01  0.63697838024E+01  0.51100000000E-03 0. -1.
        -11    1    3    3    0    0 -0.16514539466E+01  0.39197348799E+01  0.40469672362E+02  0.40692579213E+02  0.51100000000E-03 0.  1.
        -12    1    3    3    0    0 -0.10366971607E+01  0.22621038399E+01 -0.24134543303E+01  0.34664991836E+01  0.00000000000E+00 0.  1.
</event>
<event>
 7    1  0.2966651E-011  0.5052886E+02  0.7816164E-02  0.1300439E+00
        -11   -1    0    0    0    0  0.00000000000E+00  0.00000000000E+00  0.45593999997E+02  0.45594000000E+02  0.51100000000E-03 0.  1.
         11   -1    0    0    0    0 -0.00000000000E+00 -0.00000000000E+00 -0.45593999997E+02  0.45594000000E+02  0.51100000000E-03 0. -1.
    9900012    2    1    2    0    0 -0.15902522219E+02  0.34711983639E+02  0.13976903335E+02  0.50528857757E+02  0.29999993639E+02 0.  0.
         12    1    1    2    0    0  0.15902522219E+02 -0.34711983639E+02 -0.13976903335E+02  0.40659142243E+02  0.00000000000E+00 0. -1.
         11    1    3    3    0    0  0.55586675410E+01  0.45681225009E+01 -0.33690046229E+01  0.79446032264E+01  0.51100000000E-03 0. -1.
        -11    1    3    3    0    0 -0.11393221246E+02  0.16991463390E+02  0.15990140421E+02  0.25965359798E+02  0.51100000000E-03 0.  1.
         12    1    3    3    0    0 -0.10067968514E+02  0.13152397748E+02  0.13557675365E+01  0.16618894733E+02  0.00000000000E+00 0. -1.
</event>
<event>
 7    1  0.2966651E-011  0.5052886E+02  0.7816164E-02  0.1300439E+00
        -11   -1    0    0    0    0  0.00000000000E+00  0.00000000000E+00  0.45593999997E+02  0.45594000000E+02  0.51100000000E-03 0.  1.
         11   -1    0    0    0    0 -0.00000000000E+00 -0.00000000000E+00 -0.45593999997E+02  0.45594000000E+02  0.51100000000E-03 0. -1.
    9900012    2    1    2    0    0 -0.20264269910E+02 -0.34329592508E+02  0.80002753198E+01  0.50528856355E+02  0.29999989377E+02 0.  0.
         12    1    1    2    0    0  0.20264269910E+02  0.34329592508E+02 -0.80002753198E+01  0.40659143645E+02  0.00000000000E+00 0. -1.
         11    1    3    3    0    0  0.53358623809E+01 -0.32187771502E+01 -0.16787218768E+01  0.64536858532E+01  0.51100000000E-03 0. -1.
        -11    1    3    3    0    0 -0.12235224803E+02 -0.54210133316E+01 -0.46786632922E+00  0.13390556773E+02  0.51100000000E-03 0.  1.
         12    1    3    3    0    0 -0.13364907489E+02 -0.25689802026E+02  0.10146863526E+02  0.30684613729E+02  0.00000000000E+00 0. -1.
</event>
<event>
 7    1  0.2966651E-011  0.5052885E+02  0.7816164E-02  0.1300439E+00
        -11   -1    0    0    0    0  0.00000000000E+00  0.00000000000E+00  0.45593999997E+02  0.45594000000E+02  0.51100000000E-03 0. -1.
         11   -1    0    0    0    0 -0.00000000000E+00 -0.00000000000E+00 -0.45593999997E+02  0.45594000000E+02  0.51100000000E-03 0.  1.
    9900012    2    1    2    0    0 -0.43208289380E+00 -0.39642560592E+02 -0.90248186158E+01  0.50528847808E+02  0.29999963397E+02 0.  0.
         12    1    1    2    0    0  0.43208289380E+00  0.39642560592E+02  0.90248186158E+01  0.40659152192E+02  0.00000000000E+00 0. -1.
         11    1    3    3    0    0 -0.98295793098E+01 -0.80206830390E+01  0.51815542021E+01  0.13704031890E+02  0.51100000000E-03 0. -1.
        -11    1    3    3    0    0  0.58490671027E+01 -0.95873560924E+01 -0.20695194435E+01  0.11419802704E+02  0.51100000000E-03 0.  1.
         12    1    3    3    0    0  0.35484293133E+01 -0.22034521461E+02 -0.12136853374E+02  0.25405013214E+02  0.00000000000E+00 0. -1.
</event>
<event>
 7    1  0.2966651E-011  0.5052887E+02  0.7816164E-02  0.1300439E+00
        -11   -1    0    0    0    0  0.00000000000E+00  0.00000000000E+00  0.45593999997E+02  0.45594000000E+02  0.51100000000E-03 0.  1.
         11   -1    0    0    0    0 -0.00000000000E+00 -0.00000000000E+00 -0.45593999997E+02  0.45594000000E+02  0.51100000000E-03 0. -1.
    9900012    2    1    2    0    0  0.15808277505E+02 -0.18119714604E+02  0.32786268255E+02  0.50528867187E+02  0.30000022303E+02 0.  0.
         12    1    1    2    0    0 -0.15808277505E+02  0.18119714604E+02 -0.32786268255E+02  0.40659132813E+02  0.00000000000E+00 0. -1.
         11    1    3    3    0    0  0.61726897547E+00  0.42242787872E+01  0.41555765461E+01  0.59577150781E+01  0.51100000000E-03 0. -1.
        -11    1    3    3    0    0  0.10384833266E+02 -0.23814559614E+02  0.14900667461E+02  0.29950090194E+02  0.51100000000E-03 0.  1.
        -12    1    3    3    0    0  0.48061752637E+01  0.14705662236E+01  0.13730024248E+02  0.14621061915E+02  0.00000000000E+00 0.  1.
</event>
<event>
 7    1  0.2966651E-011  0.5052886E+02  0.7816164E-02  0.1300439E+00
        -11   -1    0    0    0    0  0.00000000000E+00  0.00000000000E+00  0.45593999997E+02  0.45594000000E+02  0.51100000000E-03 0.  1.
         11   -1    0    0    0    0 -0.00000000000E+00 -0.00000000000E+00 -0.45593999997E+02  0.45594000000E+02  0.51100000000E-03 0. -1.
    9900012    2    1    2    0    0  0.84899265754E+01 -0.20348250868E+02  0.34161901200E+02  0.50528860065E+02  0.30000000654E+02 0.  0.
         12    1    1    2    0    0 -0.84899265754E+01  0.20348250868E+02 -0.34161901200E+02  0.40659139935E+02  0.00000000000E+00 0. -1.
         11    1    3    3    0    0 -0.75116606780E+01 -0.97548294120E+01  0.35431958317E+01  0.12811556500E+02  0.51100000000E-03 0. -1.
        -11    1    3    3    0    0  0.13659419395E+02 -0.12138797861E+02  0.29489902213E+02  0.34692715151E+02  0.51100000000E-03 0.  1.
         12    1    3    3    0    0  0.23421678588E+01  0.15453764054E+01  0.11288031550E+01  0.30245884143E+01  0.00000000000E+00 0. -1.
</event>
<event>
 7    1  0.2966651E-011  0.5052884E+02  0.7816164E-02  0.1300439E+00
        -11   -1    0    0    0    0  0.00000000000E+00  0.00000000000E+00  0.45593999997E+02  0.45594000000E+02  0.51100000000E-03 0.  1.
         11   -1    0    0    0    0 -0.00000000000E+00 -0.00000000000E+00 -0.45593999997E+02  0.45594000000E+02  0.51100000000E-03 0. -1.
    9900012    2    1    2    0    0  0.28476431323E+01  0.34849205854E+02 -0.20750690031E+02  0.50528839201E+02  0.29999937237E+02 0.  0.
         12    1    1    2    0    0 -0.28476431323E+01 -0.34849205854E+02  0.20750690031E+02  0.40659160799E+02  0.00000000000E+00 0. -1.
         11    1    3    3    0    0 -0.10182252571E+02  0.12233282099E+02 -0.12635985286E+02  0.20322391167E+02  0.51100000000E-03 0. -1.
        -11    1    3    3    0    0  0.72940961021E+01  0.14370360983E+02  0.16476739824E+01  0.16199566122E+02  0.51100000000E-03 0.  1.
         12    1    3    3    0    0  0.57357996009E+01  0.82455627716E+01 -0.97623787279E+01  0.14006881912E+02  0.00000000000E+00 0. -1.
</event>
<event>
 7    1  0.2966651E-011  0.5052884E+02  0.7816164E-02  0.1300439E+00
        -11   -1    0    0    0    0  0.00000000000E+00  0.00000000000E+00  0.45593999997E+02  0.45594000000E+02  0.51100000000E-03 0.  1.
         11   -1    0    0    0    0 -0.00000000000E+00 -0.00000000000E+00 -0.45593999997E+02  0.45594000000E+02  0.51100000000E-03 0. -1.
    9900012    2    1    2    0    0  0.18249682587E+02 -0.54596893609E+01  0.35920855526E+02  0.50528843784E+02  0.29999951167E+02 0.  0.
         12    1    1    2    0    0 -0.18249682587E+02  0.54596893609E+01 -0.35920855526E+02  0.40659156216E+02  0.00000000000E+00 0. -1.
         11    1    3    3    0    0 -0.13267491967E+01 -0.25971554492E+01  0.38819293633E+01  0.48553944949E+01  0.51100000000E-03 0. -1.
        -11    1    3    3    0    0  0.17797467359E+02  0.42221718838E+01  0.69905943679E+01  0.19581751446E+02  0.51100000000E-03 0.  1.
        -12    1    3    3    0    0  0.17789644246E+01 -0.70847057955E+01  0.25048331795E+02  0.26091697843E+02  0.00000000000E+00 0.  1.
</event>
<event>
 7    1  0.2966651E-011  0.5052887E+02  0.7816164E-02  0.1300439E+00
        -11   -1    0    0    0    0  0.00000000000E+00  0.00000000000E+00  0.45593999997E+02  0.45594000000E+02  0.51100000000E-03 0. -1.
         11   -1    0    0    0    0 -0.00000000000E+00 -0.00000000000E+00 -0.45593999997E+02  0.45594000000E+02  0.51100000000E-03 0.  1.
    9900012    2    1    2    0    0 -0.69127328341E+01 -0.29426573628E+02  0.27192942923E+02  0.50528865042E+02  0.30000015782E+02 0.  0.
         12    1    1    2    0    0  0.69127328341E+01  0.29426573628E+02 -0.27192942923E+02  0.40659134958E+02  0.00000000000E+00 0. -1.
         11    1    3    3    0    0 -0.76255651716E+01 -0.24416084357E+02  0.20270262238E+02  0.32637064068E+02  0.51100000000E-03 0. -1.
        -11    1    3    3    0    0  0.80849008151E+01 -0.17833589351E+01  0.47960668018E+01  0.95680848298E+01  0.51100000000E-03 0.  1.
        -12    1    3    3    0    0 -0.73720684776E+01 -0.32271303365E+01  0.21266138826E+01  0.83237161444E+01  0.00000000000E+00 0.  1.
</event>
<event>
 7    1  0.2966651E-011  0.5052881E+02  0.7816164E-02  0.1300439E+00
        -11   -1    0    0    0    0  0.00000000000E+00  0.00000000000E+00  0.45593999997E+02  0.45594000000E+02  0.51100000000E-03 0.  1.
         11   -1    0    0    0    0 -0.00000000000E+00 -0.00000000000E+00 -0.45593999997E+02  0.45594000000E+02  0.51100000000E-03 0. -1.
    9900012    2    1    2    0    0 -0.68961951473E+00 -0.33432798111E+02  0.23128808329E+02  0.50528814823E+02  0.29999863135E+02 0.  0.
         12    1    1    2    0    0  0.68961951473E+00  0.33432798111E+02 -0.23128808329E+02  0.40659185177E+02  0.00000000000E+00 0. -1.
         11    1    3    3    0    0 -0.59380192948E+01 -0.12216624860E+02  0.14325108172E+01  0.13658626711E+02  0.51100000000E-03 0. -1.
        -11    1    3    3    0    0  0.68567457732E+01 -0.22329750847E+02  0.24238720804E+02  0.33662268521E+02  0.51100000000E-03 0.  1.
        -12    1    3    3    0    0 -0.16083459931E+01  0.11135775970E+01 -0.25424232931E+01  0.32079195905E+01  0.00000000000E+00 0.  1.
</event>
<event>
 7    1  0.2966651E-011  0.5052889E+02  0.7816164E-02  0.1300439E+00
        -11   -1    0    0    0    0  0.00000000000E+00  0.00000000000E+00  0.45593999997E+02  0.45594000000E+02  0.51100000000E-03 0.  1.
         11   -1    0    0    0    0 -0.00000000000E+00 -0.00000000000E+00 -0.45593999997E+02  0.45594000000E+02  0.51100000000E-03 0. -1.
    9900012    2    1    2    0    0 -0.31723340503E+02 -0.13771742217E+02  0.21380645019E+02  0.50528890347E+02  0.30000092698E+02 0.  0.
         12    1    1    2    0    0  0.31723340503E+02  0.13771742217E+02 -0.21380645019E+02  0.40659109653E+02  0.00000000000E+00 0. -1.
         11    1    3    3    0    0 -0.15714610500E+02 -0.13469008878E+02  0.14483219330E+02  0.25261172295E+02  0.51100000000E-03 0. -1.
        -11    1    3    3    0    0 -0.18573083009E+02  0.42761651750E+01  0.55038364459E+01  0.19837772479E+02  0.51100000000E-03 0.  1.
        -12    1    3    3    0    0  0.25643530054E+01 -0.45788985140E+01  0.13935892431E+01  0.54299455721E+01  0.00000000000E+00 0.  1.
</event>
<event>
 7    1  0.2966651E-011  0.5052886E+02  0.7816164E-02  0.1300439E+00
        -11   -1    0    0    0    0  0.00000000000E+00  0.00000000000E+00  0.45593999997E+02  0.45594000000E+02  0.51100000000E-03 0.  1.
         11   -1    0    0    0    0 -0.00000000000E+00 -0.00000000000E+00 -0.45593999997E+02  0.45594000000E+02  0.51100000000E-03 0. -1.
    9900012    2    1    2    0    0 -0.10576009214E+02 -0.11010523799E+02  0.37683975956E+02  0.50528860203E+02  0.30000001072E+02 0.  0.
         12    1    1    2    0    0  0.10576009214E+02  0.11010523799E+02 -0.37683975956E+02  0.40659139797E+02  0.00000000000E+00 0. -1.
         11    1    3    3    0    0 -0.62791303610E+00  0.13513541527E+01 -0.16393679333E+01  0.22153916829E+01  0.51100000000E-03 0. -1.
        -11    1    3    3    0    0 -0.98022225088E+01 -0.18241178671E+01  0.35859862810E+02  0.37220165679E+02  0.51100000000E-03 0.  1.
        -12    1    3    3    0    0 -0.14587366864E+00 -0.10537760085E+02  0.34634810788E+01  0.11093302841E+02  0.00000000000E+00 0.  1.
</event>
<event>
 7    1  0.2966651E-011  0.5052887E+02  0.7816164E-02  0.1300439E+00
        -11   -1    0    0    0    0  0.00000000000E+00  0.00000000000E+00  0.45593999997E+02  0.45594000000E+02  0.51100000000E-03 0. -1.
         11   -1    0    0    0    0 -0.00000000000E+00 -0.00000000000E+00 -0.45593999997E+02  0.45594000000E+02  0.51100000000E-03 0.  1.
    9900012    2    1    2    0    0  0.14062995049E+02 -0.34496554208E+01 -0.37993382261E+02  0.50528867595E+02  0.30000023541E+02 0.  0.
         12    1    1    2    0    0 -0.14062995049E+02  0.34496554208E+01  0.37993382261E+02  0.40659132405E+02  0.00000000000E+00 0. -1.
         11    1    3    3    0    0  0.42094483958E+01 -0.76689311716E+01  0.51192260434E+00  0.87632200774E+01  0.51100000000E-03 0. -1.
        -11    1    3    3    0    0  0.10510151364E+02 -0.12436740133E+01 -0.23157121056E+02  0.25460994926E+02  0.51100000000E-03 0.  1.
         12    1    3    3    0    0 -0.65660471108E+00  0.54629497641E+01 -0.15348183810E+02  0.16304652591E+02  0.00000000000E+00 0. -1.
</event>
<event>
 7    1  0.2966651E-011  0.5052886E+02  0.7816164E-02  0.1300439E+00
        -11   -1    0    0    0    0  0.00000000000E+00  0.00000000000E+00  0.45593999997E+02  0.45594000000E+02  0.51100000000E-03 0. -1.
         11   -1    0    0    0    0 -0.00000000000E+00 -0.00000000000E+00 -0.45593999997E+02  0.45594000000E+02  0.51100000000E-03 0.  1.
    9900012    2    1    2    0    0  0.47391403211E+01 -0.32437759028E+02 -0.24051981140E+02  0.50528862546E+02  0.30000008195E+02 0.  0.
         12    1    1    2    0    0 -0.47391403211E+01  0.32437759028E+02  0.24051981140E+02  0.40659137454E+02  0.00000000000E+00 0. -1.
         11    1    3    3    0    0 -0.11887129052E+02 -0.94875386820E+01 -0.79876092626E+01  0.17179031677E+02  0.51100000000E-03 0. -1.
        -11    1    3    3    0    0  0.76715873978E+01 -0.15511313138E+02 -0.73163633939E+01  0.18787848787E+02  0.51100000000E-03 0.  1.
         12    1    3    3    0    0  0.89546819757E+01 -0.74389072076E+01 -0.87480084837E+01  0.14561982082E+02  0.00000000000E+00 0. -1.
</event>
<event>
 7    1  0.2966651E-011  0.5052886E+02  0.7816164E-02  0.1300439E+00
        -11   -1    0    0    0    0  0.00000000000E+00  0.00000000000E+00  0.45593999997E+02  0.45594000000E+02  0.51100000000E-03 0.  1.
         11   -1    0    0    0    0 -0.00000000000E+00 -0.00000000000E+00 -0.45593999997E+02  0.45594000000E+02  0.51100000000E-03 0. -1.
    9900012    2    1    2    0    0 -0.13145595970E+02 -0.15111202745E+02  0.35383760053E+02  0.50528860593E+02  0.30000002259E+02 0.  0.
         12    1    1    2    0    0  0.13145595970E+02  0.15111202745E+02 -0.35383760053E+02  0.40659139407E+02  0.00000000000E+00 0. -1.
         11    1    3    3    0    0  0.13788102341E+00  0.57011216340E+01  0.10603555357E+02  0.12039816674E+02  0.51100000000E-03 0. -1.
        -11    1    3    3    0    0 -0.14652481680E+02 -0.15839430336E+02  0.11960342257E+02  0.24670479524E+02  0.51100000000E-03 0.  1.
        -12    1    3    3    0    0  0.13690046875E+01 -0.49728940436E+01  0.12819862439E+02  0.13818564396E+02  0.00000000000E+00 0.  1.
</event>
<event>
 7    1  0.2966651E-011  0.5052884E+02  0.7816164E-02  0.1300439E+00
        -11   -1    0    0    0    0  0.00000000000E+00  0.00000000000E+00  0.45593999997E+02  0.45594000000E+02  0.51100000000E-03 0.  1.
         11   -1    0    0    0    0 -0.00000000000E+00 -0.00000000000E+00 -0.45593999997E+02  0.45594000000E+02  0.51100000000E-03 0. -1.
    9900012    2    1    2    0    0 -0.47662263460E+01 -0.70560880090E+01  0.39757536659E+02  0.50528843433E+02  0.29999950099E+02 0.  0.
         12    1    1    2    0    0  0.47662263460E+01  0.70560880090E+01 -0.39757536659E+02  0.40659156567E+02  0.00000000000E+00 0. -1.
         11    1    3    3    0    0 -0.87710913716E+01  0.34710340704E+01  0.36119506237E+02  0.37330936935E+02  0.51100000000E-03 0. -1.
        -11    1    3    3    0    0  0.57995396967E+00 -0.46219488939E+01 -0.12247559701E+01  0.48165117702E+01  0.51100000000E-03 0.  1.
         12    1    3    3    0    0  0.34249110560E+01 -0.59051731855E+01  0.48627863914E+01  0.83813947276E+01  0.00000000000E+00 0. -1.
</event>
<event>
 7    1  0.2966651E-011  0.5052885E+02  0.7816164E-02  0.1300439E+00
        -11   -1    0    0    0    0  0.00000000000E+00  0.00000000000E+00  0.45593999997E+02  0.45594000000E+02  0.51100000000E-03 0.  1.
         11   -1    0    0    0    0 -0.00000000000E+00 -0.00000000000E+00 -0.45593999997E+02  0.45594000000E+02  0.51100000000E-03 0. -1.
    9900012    2    1    2    0    0  0.23498139115E+01  0.34197265457E+02  0.21867601698E+02  0.50528848581E+02  0.29999965746E+02 0.  0.
         12    1    1    2    0    0 -0.23498139115E+01 -0.34197265457E+02 -0.21867601698E+02  0.40659151419E+02  0.00000000000E+00 0. -1.
         11    1    3    3    0    0 -0.95254978234E+01  0.37206182229E+01 -0.37628542648E+00  0.10233264373E+02  0.51100000000E-03 0. -1.
        -11    1    3    3    0    0  0.65673830837E+01  0.25470156434E+02  0.17433989286E+02  0.31556352325E+02  0.51100000000E-03 0.  1.
         12    1    3    3    0    0  0.53079286512E+01  0.50064907997E+01  0.48098978377E+01  0.87392318829E+01  0.00000000000E+00 0. -1.
</event>
<event>
 7    1  0.2966651E-011  0.5052886E+02  0.7816164E-02  0.1300439E+00
        -11   -1    0    0    0    0  0.00000000000E+00  0.00000000000E+00  0.45593999997E+02  0.45594000000E+02  0.51100000000E-03 0.  1.
         11   -1    0    0    0    0 -0.00000000000E+00 -0.00000000000E+00 -0.45593999997E+02  0.45594000000E+02  0.51100000000E-03 0. -1.
    9900012    2    1    2    0    0 -0.24481205164E+02 -0.27657360921E+02  0.16997251073E+02  0.50528861256E+02  0.30000004272E+02 0.  0.
         12    1    1    2    0    0  0.24481205164E+02  0.27657360921E+02 -0.16997251073E+02  0.40659138744E+02  0.00000000000E+00 0. -1.
         11    1    3    3    0    0  0.12163073385E+01 -0.34461809090E+01 -0.70860334700E+00  0.37225912164E+01  0.51100000000E-03 0. -1.
        -11    1    3    3    0    0 -0.12258564169E+02  0.33083990179E+01  0.48564247004E+01  0.13594217914E+02  0.51100000000E-03 0.  1.
        -12    1    3    3    0    0 -0.13438948334E+02 -0.27519579029E+02  0.12849429720E+02  0.33212052126E+02  0.00000000000E+00 0.  1.
</event>
<event>
 7    1  0.2966651E-011  0.5052885E+02  0.7816164E-02  0.1300439E+00
        -11   -1    0    0    0    0  0.00000000000E+00  0.00000000000E+00  0.45593999997E+02  0.45594000000E+02  0.51100000000E-03 0.  1.
         11   -1    0    0    0    0 -0.00000000000E+00 -0.00000000000E+00 -0.45593999997E+02  0.45594000000E+02  0.51100000000E-03 0. -1.
    9900012    2    1    2    0    0  0.34526145481E+02 -0.94444525479E+01  0.19285074046E+02  0.50528849902E+02  0.29999969762E+02 0.  0.
         12    1    1    2    0    0 -0.34526145481E+02  0.94444525479E+01 -0.19285074046E+02  0.40659150098E+02  0.00000000000E+00 0. -1.
         11    1    3    3    0    0  0.24583561456E+02 -0.56595379240E+01  0.23890837787E+02  0.34744121716E+02  0.51100000000E-03 0. -1.
        -11    1    3    3    0    0  0.11516012623E+02 -0.44909268801E+01 -0.58331922985E+01  0.13667959015E+02  0.51100000000E-03 0.  1.
         12    1    3    3    0    0 -0.15734285981E+01  0.70601225621E+00  0.12274285571E+01  0.21167691707E+01  0.00000000000E+00 0. -1.
</event>
<event>
 7    1  0.2966651E-011  0.5052885E+02  0.7816164E-02  0.1300439E+00
        -11   -1    0    0    0    0  0.00000000000E+00  0.00000000000E+00  0.45593999997E+02  0.45594000000E+02  0.51100000000E-03 0.  1.
         11   -1    0    0    0    0 -0.00000000000E+00 -0.00000000000E+00 -0.45593999997E+02  0.45594000000E+02  0.51100000000E-03 0. -1.
    9900012    2    1    2    0    0 -0.23631187134E+02 -0.93322922906E+01  0.31743373448E+02  0.50528850444E+02  0.29999971409E+02 0.  0.
         12    1    1    2    0    0  0.23631187134E+02  0.93322922906E+01 -0.31743373448E+02  0.40659149556E+02  0.00000000000E+00 0. -1.
         11    1    3    3    0    0  0.32545935252E+00 -0.61427699165E+01  0.14511360131E+01  0.63202327510E+01  0.51100000000E-03 0. -1.
        -11    1    3    3    0    0 -0.16316434464E+02  0.51855800686E+01  0.73765363941E+01  0.18642144825E+02  0.51100000000E-03 0.  1.
        -12    1    3    3    0    0 -0.76402120227E+01 -0.83751024427E+01  0.22915701041E+02  0.25566472867E+02  0.00000000000E+00 0.  1.
</event>
<event>
 7    1  0.2966651E-011  0.5052886E+02  0.7816164E-02  0.1300439E+00
        -11   -1    0    0    0    0  0.00000000000E+00  0.00000000000E+00  0.45593999997E+02  0.45594000000E+02  0.51100000000E-03 0. -1.
         11   -1    0    0    0    0 -0.00000000000E+00 -0.00000000000E+00 -0.45593999997E+02  0.45594000000E+02  0.51100000000E-03 0.  1.
    9900012    2    1    2    0    0  0.13047429520E+02  0.38062393469E+02 -0.58467551364E+01  0.50528858847E+02  0.29999996952E+02 0.  0.
         12    1    1    2    0    0 -0.13047429520E+02 -0.38062393469E+02  0.58467551364E+01  0.40659141153E+02  0.00000000000E+00 0. -1.
         11    1    3    3    0    0  0.48004486862E+00  0.34637624684E+02 -0.90199218612E+01  0.35796012033E+02  0.51100000000E-03 0. -1.
        -11    1    3    3    0    0  0.28279662152E+01  0.21753306241E+01  0.33754495487E+01  0.49115289020E+01  0.51100000000E-03 0.  1.
         12    1    3    3    0    0  0.97394184359E+01  0.12494381608E+01 -0.20228282389E+00  0.98213179120E+01  0.00000000000E+00 0. -1.
</event>
<event>
 7    1  0.2966651E-011  0.5052886E+02  0.7816164E-02  0.1300439E+00
        -11   -1    0    0    0    0  0.00000000000E+00  0.00000000000E+00  0.45593999997E+02  0.45594000000E+02  0.51100000000E-03 0.  1.
         11   -1    0    0    0    0 -0.00000000000E+00 -0.00000000000E+00 -0.45593999997E+02  0.45594000000E+02  0.51100000000E-03 0. -1.
    9900012    2    1    2    0    0  0.37930002789E+02  0.58439961935E+01  0.13428621299E+02  0.50528864827E+02  0.30000015127E+02 0.  0.
         12    1    1    2    0    0 -0.37930002789E+02 -0.58439961935E+01 -0.13428621299E+02  0.40659135173E+02  0.00000000000E+00 0. -1.
         11    1    3    3    0    0 -0.20692367316E+01 -0.52132680509E+01  0.45653614444E+01  0.72320418832E+01  0.51100000000E-03 0. -1.
        -11    1    3    3    0    0  0.12447806346E+02  0.76674906530E+01  0.31953553893E+01  0.14964912030E+02  0.51100000000E-03 0.  1.
         12    1    3    3    0    0  0.27551433175E+02  0.33897735914E+01  0.56679044652E+01  0.28331910914E+02  0.00000000000E+00 0. -1.
</event>
<event>
 7    1  0.2966651E-011  0.5052886E+02  0.7816164E-02  0.1300439E+00
        -11   -1    0    0    0    0  0.00000000000E+00  0.00000000000E+00  0.45593999997E+02  0.45594000000E+02  0.51100000000E-03 0.  1.
         11   -1    0    0    0    0 -0.00000000000E+00 -0.00000000000E+00 -0.45593999997E+02  0.45594000000E+02  0.51100000000E-03 0. -1.
    9900012    2    1    2    0    0 -0.30985908835E+02 -0.23428888966E+02  0.12005257372E+02  0.50528860940E+02  0.30000003313E+02 0.  0.
         12    1    1    2    0    0  0.30985908835E+02  0.23428888966E+02 -0.12005257372E+02  0.40659139060E+02  0.00000000000E+00 0. -1.
         11    1    3    3    0    0 -0.11981311344E+02  0.41085389834E+01  0.98725921503E+01  0.16059264931E+02  0.51100000000E-03 0. -1.
        -11    1    3    3    0    0 -0.18349150434E+02 -0.24733382054E+02  0.39734385678E+01  0.31051887604E+02  0.51100000000E-03 0.  1.
        -12    1    3    3    0    0 -0.65544705740E+00 -0.28040458952E+01 -0.18407733461E+01  0.34177084046E+01  0.00000000000E+00 0.  1.
</event>
<event>
 7    1  0.2966651E-011  0.5052888E+02  0.7816164E-02  0.1300439E+00
        -11   -1    0    0    0    0  0.00000000000E+00  0.00000000000E+00  0.45593999997E+02  0.45594000000E+02  0.51100000000E-03 0.  1.
         11   -1    0    0    0    0 -0.00000000000E+00 -0.00000000000E+00 -0.45593999997E+02  0.45594000000E+02  0.51100000000E-03 0. -1.
    9900012    2    1    2    0    0 -0.22019438846E+02  0.24631157593E+02  0.23698413975E+02  0.50528875114E+02  0.30000046398E+02 0.  0.
         12    1    1    2    0    0  0.22019438846E+02 -0.24631157593E+02 -0.23698413975E+02  0.40659124886E+02  0.00000000000E+00 0. -1.
         11    1    3    3    0    0 -0.21584437423E+01  0.47584810737E+01 -0.55985473503E+01  0.76580515937E+01  0.51100000000E-03 0. -1.
        -11    1    3    3    0    0 -0.17867539832E+02  0.21984034238E+02  0.27331633985E+02  0.39364513938E+02  0.51100000000E-03 0.  1.
        -12    1    3    3    0    0 -0.19934552719E+01 -0.21113577179E+01  0.19653273406E+01  0.35063095827E+01  0.00000000000E+00 0.  1.
</event>
<event>
 7    1  0.2966651E-011  0.5052887E+02  0.7816164E-02  0.1300439E+00
        -11   -1    0    0    0    0  0.00000000000E+00  0.00000000000E+00  0.45593999997E+02  0.45594000000E+02  0.51100000000E-03 0.  1.
         11   -1    0    0    0    0 -0.00000000000E+00 -0.00000000000E+00 -0.45593999997E+02  0.45594000000E+02  0.51100000000E-03 0. -1.
    9900012    2    1    2    0    0  0.22759821386E+02 -0.26363467510E+02 -0.20979105024E+02  0.50528871428E+02  0.30000035191E+02 0.  0.
         12    1    1    2    0    0 -0.22759821386E+02  0.26363467510E+02  0.20979105024E+02  0.40659128572E+02  0.00000000000E+00 0. -1.
         11    1    3    3    0    0  0.27640797374E+01  0.33487776729E+00 -0.30649407851E+01  0.41407900443E+01  0.51100000000E-03 0.  1.
        -11    1    3    3    0    0 -0.52669048794E+01 -0.12617989532E+02 -0.37143510020E+01  0.14168639683E+02  0.51100000000E-03 0. -1.
        -12    1    3    3    0    0  0.25262646528E+02 -0.14080355745E+02 -0.14199813237E+02  0.32219441700E+02  0.00000000000E+00 0.  1.
</event>
<event>
 7    1  0.2966651E-011  0.5052884E+02  0.7816164E-02  0.1300439E+00
        -11   -1    0    0    0    0  0.00000000000E+00  0.00000000000E+00  0.45593999997E+02  0.45594000000E+02  0.51100000000E-03 0.  1.
         11   -1    0    0    0    0 -0.00000000000E+00 -0.00000000000E+00 -0.45593999997E+02  0.45594000000E+02  0.51100000000E-03 0. -1.
    9900012    2    1    2    0    0  0.25193558148E+02  0.31094161188E+02 -0.71836703671E+01  0.50528839260E+02  0.29999937414E+02 0.  0.
         12    1    1    2    0    0 -0.25193558148E+02 -0.31094161188E+02  0.71836703671E+01  0.40659160740E+02  0.00000000000E+00 0. -1.
         11    1    3    3    0    0  0.97880622954E+01  0.11367244720E+02  0.59398237129E+01  0.16133874985E+02  0.51100000000E-03 0. -1.
        -11    1    3    3    0    0 -0.39382363632E+01  0.52535729453E+01 -0.67343685805E+01  0.94053949828E+01  0.51100000000E-03 0.  1.
        -12    1    3    3    0    0  0.19343732216E+02  0.14473343523E+02 -0.63891254995E+01  0.24989569292E+02  0.00000000000E+00 0.  1.
</event>
<event>
 7    1  0.2966651E-011  0.5052886E+02  0.7816164E-02  0.1300439E+00
        -11   -1    0    0    0    0  0.00000000000E+00  0.00000000000E+00  0.45593999997E+02  0.45594000000E+02  0.51100000000E-03 0. -1.
         11   -1    0    0    0    0 -0.00000000000E+00 -0.00000000000E+00 -0.45593999997E+02  0.45594000000E+02  0.51100000000E-03 0.  1.
    9900012    2    1    2    0    0  0.30411640590E+02 -0.18451173866E+02  0.19693955960E+02  0.50528860784E+02  0.30000002840E+02 0.  0.
         12    1    1    2    0    0 -0.30411640590E+02  0.18451173866E+02 -0.19693955960E+02  0.40659139216E+02  0.00000000000E+00 0. -1.
         11    1    3    3    0    0  0.12946046361E+02 -0.12273843507E+01  0.20048391735E+02  0.23896539501E+02  0.51100000000E-03 0. -1.
        -11    1    3    3    0    0  0.79046972201E+01 -0.17924843290E+01  0.19412658506E+01  0.83346116631E+01  0.51100000000E-03 0.  1.
         12    1    3    3    0    0  0.95608970095E+01 -0.15431305186E+02 -0.22957016258E+01  0.18297709620E+02  0.00000000000E+00 0. -1.
</event>
<event>
 7    1  0.2966651E-011  0.5052887E+02  0.7816164E-02  0.1300439E+00
        -11   -1    0    0    0    0  0.00000000000E+00  0.00000000000E+00  0.45593999997E+02  0.45594000000E+02  0.51100000000E-03 0. -1.
         11   -1    0    0    0    0 -0.00000000000E+00 -0.00000000000E+00 -0.45593999997E+02  0.45594000000E+02  0.51100000000E-03 0.  1.
    9900012    2    1    2    0    0  0.15106023065E+02  0.48761843913E+01 -0.37432552598E+02  0.50528866942E+02  0.30000021556E+02 0.  0.
         12    1    1    2    0    0 -0.15106023065E+02 -0.48761843913E+01  0.37432552598E+02  0.40659133058E+02  0.00000000000E+00 0. -1.
         11    1    3    3    0    0 -0.64535978093E+01  0.13516022445E+01 -0.13835625920E+02  0.15326457457E+02  0.51100000000E-03 0. -1.
        -11    1    3    3    0    0  0.75490568102E+01  0.79552584014E+01 -0.68852877958E+01  0.12949192378E+02  0.51100000000E-03 0.  1.
         12    1    3    3    0    0  0.14010564064E+02 -0.44306762546E+01 -0.16711638882E+02  0.22253217106E+02  0.00000000000E+00 0. -1.
</event>
<event>
 7    1  0.2966651E-011  0.5052883E+02  0.7816164E-02  0.1300439E+00
        -11   -1    0    0    0    0  0.00000000000E+00  0.00000000000E+00  0.45593999997E+02  0.45594000000E+02  0.51100000000E-03 0.  1.
         11   -1    0    0    0    0 -0.00000000000E+00 -0.00000000000E+00 -0.45593999997E+02  0.45594000000E+02  0.51100000000E-03 0. -1.
    9900012    2    1    2    0    0  0.21705751848E+02  0.17332263726E+01  0.34336918736E+02  0.50528834671E+02  0.29999923467E+02 0.  0.
         12    1    1    2    0    0 -0.21705751848E+02 -0.17332263726E+01 -0.34336918736E+02  0.40659165329E+02  0.00000000000E+00 0. -1.
         11    1    3    3    0    0 -0.72500883727E+01 -0.56132381294E+00  0.84104766678E+01  0.11118227551E+02  0.51100000000E-03 0. -1.
        -11    1    3    3    0    0  0.10226229888E+02 -0.21078357202E+01  0.92457790545E+01  0.13946439680E+02  0.51100000000E-03 0.  1.
         12    1    3    3    0    0  0.18729610333E+02  0.44023859057E+01  0.16680663013E+02  0.25464167441E+02  0.00000000000E+00 0. -1.
</event>
<event>
 7    1  0.2966651E-011  0.5052886E+02  0.7816164E-02  0.1300439E+00
        -11   -1    0    0    0    0  0.00000000000E+00  0.00000000000E+00  0.45593999997E+02  0.45594000000E+02  0.51100000000E-03 0. -1.
         11   -1    0    0    0    0 -0.00000000000E+00 -0.00000000000E+00 -0.45593999997E+02  0.45594000000E+02  0.51100000000E-03 0.  1.
    9900012    2    1    2    0    0  0.27050285393E+02 -0.27308475571E+02 -0.13254991381E+02  0.50528861121E+02  0.30000003863E+02 0.  0.
         12    1    1    2    0    0 -0.27050285393E+02  0.27308475571E+02  0.13254991381E+02  0.40659138879E+02  0.00000000000E+00 0. -1.
         11    1    3    3    0    0  0.46415520957E+01 -0.77419482108E+00  0.27101163996E+01  0.54302959992E+01  0.51100000000E-03 0. -1.
        -11    1    3    3    0    0  0.17445754503E+02 -0.23332678775E+02 -0.22111581972E+02  0.36574448821E+02  0.51100000000E-03 0.  1.
        -12    1    3    3    0    0  0.49629787949E+01 -0.32016019750E+01  0.61464741913E+01  0.85241163007E+01  0.00000000000E+00 0.  1.
</event>
<event>
 7    1  0.2966651E-011  0.5052886E+02  0.7816164E-02  0.1300439E+00
        -11   -1    0    0    0    0  0.00000000000E+00  0.00000000000E+00  0.45593999997E+02  0.45594000000E+02  0.51100000000E-03 0.  1.
         11   -1    0    0    0    0 -0.00000000000E+00 -0.00000000000E+00 -0.45593999997E+02  0.45594000000E+02  0.51100000000E-03 0. -1.
    9900012    2    1    2    0    0 -0.34920211153E+02  0.19465005546E+02 -0.74066061307E+01  0.50528863238E+02  0.30000010297E+02 0.  0.
         12    1    1    2    0    0  0.34920211153E+02 -0.19465005546E+02  0.74066061307E+01  0.40659136762E+02  0.00000000000E+00 0. -1.
         11    1    3    3    0    0 -0.11268788506E+02 -0.37049948228E+01 -0.80989547932E+01  0.14363343971E+02  0.51100000000E-03 0. -1.
        -11    1    3    3    0    0 -0.80403392395E+01  0.65810664024E+01  0.70008850192E+01  0.12528762165E+02  0.51100000000E-03 0.  1.
        -12    1    3    3    0    0 -0.15611083408E+02  0.16588933966E+02 -0.63085363567E+01  0.23636757101E+02  0.00000000000E+00 0.  1.
</event>
<event>
 7    1  0.2966651E-011  0.5052886E+02  0.7816164E-02  0.1300439E+00
        -11   -1    0    0    0    0  0.00000000000E+00  0.00000000000E+00  0.45593999997E+02  0.45594000000E+02  0.51100000000E-03 0.  1.
         11   -1    0    0    0    0 -0.00000000000E+00 -0.00000000000E+00 -0.45593999997E+02  0.45594000000E+02  0.51100000000E-03 0. -1.
    9900012    2    1    2    0    0  0.65695889330E+01 -0.67886599320E+01  0.39546430886E+02  0.50528860828E+02  0.30000002973E+02 0.  0.
         12    1    1    2    0    0 -0.65695889330E+01  0.67886599320E+01 -0.39546430886E+02  0.40659139172E+02  0.00000000000E+00 0. -1.
         11    1    3    3    0    0  0.10076687630E+02  0.50281172822E+01  0.90820635488E+01  0.14467393530E+02  0.51100000000E-03 0. -1.
        -11    1    3    3    0    0 -0.79452374751E+01 -0.15496354142E+01  0.13522901780E+02  0.15760616780E+02  0.51100000000E-03 0.  1.
        -12    1    3    3    0    0  0.44381387778E+01 -0.10267141800E+02  0.16941465556E+02  0.20300850518E+02  0.00000000000E+00 0.  1.
</event>
<event>
 7    1  0.2966651E-011  0.5052886E+02  0.7816164E-02  0.1300439E+00
        -11   -1    0    0    0    0  0.00000000000E+00  0.00000000000E+00  0.45593999997E+02  0.45594000000E+02  0.51100000000E-03 0.  1.
         11   -1    0    0    0    0 -0.00000000000E+00 -0.00000000000E+00 -0.45593999997E+02  0.45594000000E+02  0.51100000000E-03 0. -1.
    9900012    2    1    2    0    0  0.36510737036E+02 -0.16707821158E+02 -0.64016101679E+01  0.50528858107E+02  0.29999994703E+02 0.  0.
         12    1    1    2    0    0 -0.36510737036E+02  0.16707821158E+02  0.64016101679E+01  0.40659141893E+02  0.00000000000E+00 0. -1.
         11    1    3    3    0    0 -0.58225578307E+00 -0.85192235688E+01 -0.55800464338E+01  0.10200642650E+02  0.51100000000E-03 0. -1.
        -11    1    3    3    0    0  0.33738312614E+02 -0.26593047886E+01 -0.36803706177E+00  0.33844956663E+02  0.51100000000E-03 0.  1.
        -12    1    3    3    0    0  0.33546802047E+01 -0.55292928001E+01 -0.45352667228E+00  0.64832587938E+01  0.00000000000E+00 0.  1.
</event>
<event>
 7    1  0.2966651E-011  0.5052886E+02  0.7816164E-02  0.1300439E+00
        -11   -1    0    0    0    0  0.00000000000E+00  0.00000000000E+00  0.45593999997E+02  0.45594000000E+02  0.51100000000E-03 0. -1.
         11   -1    0    0    0    0 -0.00000000000E+00 -0.00000000000E+00 -0.45593999997E+02  0.45594000000E+02  0.51100000000E-03 0.  1.
    9900012    2    1    2    0    0  0.78415440384E+01 -0.39192672019E+02  0.74572113389E+01  0.50528863833E+02  0.30000012106E+02 0.  0.
         12    1    1    2    0    0 -0.78415440384E+01  0.39192672019E+02 -0.74572113389E+01  0.40659136167E+02  0.00000000000E+00 0. -1.
         11    1    3    3    0    0  0.90059795868E+00 -0.93521438023E+01  0.15647787804E+02  0.18251765224E+02  0.51100000000E-03 0. -1.
        -11    1    3    3    0    0  0.30037010376E+01 -0.20910227025E+02 -0.77693891622E+01  0.22508292302E+02  0.51100000000E-03 0.  1.
         12    1    3    3    0    0  0.39372450421E+01 -0.89303011923E+01 -0.42118730283E+00  0.97688063064E+01  0.00000000000E+00 0. -1.
</event>
<event>
 7    1  0.2966651E-011  0.5052885E+02  0.7816164E-02  0.1300439E+00
        -11   -1    0    0    0    0  0.00000000000E+00  0.00000000000E+00  0.45593999997E+02  0.45594000000E+02  0.51100000000E-03 0. -1.
         11   -1    0    0    0    0 -0.00000000000E+00 -0.00000000000E+00 -0.45593999997E+02  0.45594000000E+02  0.51100000000E-03 0.  1.
    9900012    2    1    2    0    0  0.28515686195E+02 -0.28599239760E+02 -0.47016218297E+01  0.50528854389E+02  0.29999983400E+02 0.  0.
         12    1    1    2    0    0 -0.28515686195E+02  0.28599239760E+02  0.47016218297E+01  0.40659145611E+02  0.00000000000E+00 0. -1.
         11    1    3    3    0    0  0.21195493715E+01 -0.13604958907E+01  0.34229808474E+01  0.42497337269E+01  0.51100000000E-03 0. -1.
        -11    1    3    3    0    0  0.31078729525E+02 -0.26240611127E+02 -0.63228033425E+01  0.41163514713E+02  0.51100000000E-03 0.  1.
        -12    1    3    3    0    0 -0.46825927013E+01 -0.99813274220E+00 -0.18017993346E+01  0.51156059484E+01  0.00000000000E+00 0.  1.
</event>
<event>
 7    1  0.2966651E-011  0.5052886E+02  0.7816164E-02  0.1300439E+00
        -11   -1    0    0    0    0  0.00000000000E+00  0.00000000000E+00  0.45593999997E+02  0.45594000000E+02  0.51100000000E-03 0.  1.
         11   -1    0    0    0    0 -0.00000000000E+00 -0.00000000000E+00 -0.45593999997E+02  0.45594000000E+02  0.51100000000E-03 0. -1.
    9900012    2    1    2    0    0 -0.20943141445E+01 -0.77740502951E+00  0.40597727062E+02  0.50528856466E+02  0.29999989714E+02 0.  0.
         12    1    1    2    0    0  0.20943141445E+01  0.77740502951E+00 -0.40597727062E+02  0.40659143534E+02  0.00000000000E+00 0. -1.
         11    1    3    3    0    0  0.26252229395E+01 -0.14872999758E+01 -0.16838879631E+00  0.30219549546E+01  0.51100000000E-03 0. -1.
        -11    1    3    3    0    0 -0.13659700209E+02 -0.26762534660E+01  0.30226554128E+02  0.33277534721E+02  0.51100000000E-03 0.  1.
        -12    1    3    3    0    0  0.89401631252E+01  0.33861484123E+01  0.10539561731E+02  0.14229366790E+02  0.00000000000E+00 0.  1.
</event>
<event>
 7    1  0.2966651E-011  0.5052886E+02  0.7816164E-02  0.1300439E+00
        -11   -1    0    0    0    0  0.00000000000E+00  0.00000000000E+00  0.45593999997E+02  0.45594000000E+02  0.51100000000E-03 0. -1.
         11   -1    0    0    0    0 -0.00000000000E+00 -0.00000000000E+00 -0.45593999997E+02  0.45594000000E+02  0.51100000000E-03 0.  1.
    9900012    2    1    2    0    0 -0.34837545528E+02  0.18334650557E+02  0.10166185472E+02  0.50528864293E+02  0.30000013504E+02 0.  0.
         12    1    1    2    0    0  0.34837545528E+02 -0.18334650557E+02 -0.10166185472E+02  0.40659135707E+02  0.00000000000E+00 0. -1.
         11    1    3    3    0    0 -0.16084378655E+02  0.64334842530E+01  0.13562695480E+02  0.22000992371E+02  0.51100000000E-03 0. -1.
        -11    1    3    3    0    0 -0.14919096094E+02  0.16543678877E+02 -0.31793289590E+01  0.22502908077E+02  0.51100000000E-03 0.  1.
         12    1    3    3    0    0 -0.38340707787E+01 -0.46425125727E+01 -0.21718104925E+00  0.60249638449E+01  0.00000000000E+00 0. -1.
</event>
<event>
 7    1  0.2966651E-011  0.5052886E+02  0.7816164E-02  0.1300439E+00
        -11   -1    0    0    0    0  0.00000000000E+00  0.00000000000E+00  0.45593999997E+02  0.45594000000E+02  0.51100000000E-03 0.  1.
         11   -1    0    0    0    0 -0.00000000000E+00 -0.00000000000E+00 -0.45593999997E+02  0.45594000000E+02  0.51100000000E-03 0. -1.
    9900012    2    1    2    0    0  0.89674638427E+01 -0.28355863121E+02  0.27725347677E+02  0.50528864681E+02  0.30000014684E+02 0.  0.
         12    1    1    2    0    0 -0.89674638427E+01  0.28355863121E+02 -0.27725347677E+02  0.40659135319E+02  0.00000000000E+00 0. -1.
         11    1    3    3    0    0 -0.83599168082E+01 -0.19115699375E+02  0.96887146782E+01  0.23003681532E+02  0.51100000000E-03 0. -1.
        -11    1    3    3    0    0  0.91854629381E+01 -0.59872208658E+01  0.56085486018E+01  0.12315655109E+02  0.51100000000E-03 0.  1.
         12    1    3    3    0    0  0.81419177128E+01 -0.32529428798E+01  0.12428084397E+02  0.15209528040E+02  0.00000000000E+00 0. -1.
</event>
<event>
 7    1  0.2966651E-011  0.5052886E+02  0.7816164E-02  0.1300439E+00
        -11   -1    0    0    0    0  0.00000000000E+00  0.00000000000E+00  0.45593999997E+02  0.45594000000E+02  0.51100000000E-03 0. -1.
         11   -1    0    0    0    0 -0.00000000000E+00 -0.00000000000E+00 -0.45593999997E+02  0.45594000000E+02  0.51100000000E-03 0.  1.
    9900012    2    1    2    0    0  0.15955497309E+02  0.37048368100E+02 -0.50996432054E+01  0.50528857928E+02  0.29999994157E+02 0.  0.
         12    1    1    2    0    0 -0.15955497309E+02 -0.37048368100E+02  0.50996432054E+01  0.40659142072E+02  0.00000000000E+00 0. -1.
         11    1    3    3    0    0  0.59710644473E+01  0.32690054784E+02  0.61416173574E+01  0.33793679238E+02  0.51100000000E-03 0. -1.
        -11    1    3    3    0    0  0.38874860343E+01 -0.10299913262E+01 -0.22478612696E+01  0.46072020086E+01  0.51100000000E-03 0.  1.
         12    1    3    3    0    0  0.60969468276E+01  0.53883046422E+01 -0.89933992932E+01  0.12127976681E+02  0.00000000000E+00 0. -1.
</event>
<event>
 7    1  0.2966651E-011  0.5052886E+02  0.7816164E-02  0.1300439E+00
        -11   -1    0    0    0    0  0.00000000000E+00  0.00000000000E+00  0.45593999997E+02  0.45594000000E+02  0.51100000000E-03 0. -1.
         11   -1    0    0    0    0 -0.00000000000E+00 -0.00000000000E+00 -0.45593999997E+02  0.45594000000E+02  0.51100000000E-03 0.  1.
    9900012    2    1    2    0    0  0.40372772691E+02  0.19686388967E+01 -0.43965331420E+01  0.50528858131E+02  0.29999994774E+02 0.  0.
         12    1    1    2    0    0 -0.40372772691E+02 -0.19686388967E+01  0.43965331420E+01  0.40659141869E+02  0.00000000000E+00 0. -1.
         11    1    3    3    0    0  0.36162524084E+01  0.83665365580E+01 -0.26675378187E+01  0.94969454949E+01  0.51100000000E-03 0.  1.
        -11    1    3    3    0    0  0.25112964480E+02 -0.60790837133E+01  0.66536378406E+01  0.26681213251E+02  0.51100000000E-03 0. -1.
        -12    1    3    3    0    0  0.11643555803E+02 -0.31881394803E+00 -0.83826331639E+01  0.14350699385E+02  0.00000000000E+00 0.  1.
</event>
<event>
 7    1  0.2966651E-011  0.5052886E+02  0.7816164E-02  0.1300439E+00
        -11   -1    0    0    0    0  0.00000000000E+00  0.00000000000E+00  0.45593999997E+02  0.45594000000E+02  0.51100000000E-03 0.  1.
         11   -1    0    0    0    0 -0.00000000000E+00 -0.00000000000E+00 -0.45593999997E+02  0.45594000000E+02  0.51100000000E-03 0. -1.
    9900012    2    1    2    0    0 -0.17025518568E+01  0.95821632249E+01  0.39477202750E+02  0.50528855003E+02  0.29999985267E+02 0.  0.
         12    1    1    2    0    0  0.17025518568E+01 -0.95821632249E+01 -0.39477202750E+02  0.40659144997E+02  0.00000000000E+00 0. -1.
         11    1    3    3    0    0 -0.12773406640E+02 -0.59726408867E+00  0.16294485632E+02  0.20712964632E+02  0.51100000000E-03 0. -1.
        -11    1    3    3    0    0  0.87434096234E+01  0.32650204946E+01  0.58619521666E+01  0.11021345387E+02  0.51100000000E-03 0.  1.
         12    1    3    3    0    0  0.23274451598E+01  0.69144068190E+01  0.17320764952E+02  0.18794544984E+02  0.00000000000E+00 0. -1.
</event>
<event>
 7    1  0.2966651E-011  0.5052886E+02  0.7816164E-02  0.1300439E+00
        -11   -1    0    0    0    0  0.00000000000E+00  0.00000000000E+00  0.45593999997E+02  0.45594000000E+02  0.51100000000E-03 0.  1.
         11   -1    0    0    0    0 -0.00000000000E+00 -0.00000000000E+00 -0.45593999997E+02  0.45594000000E+02  0.51100000000E-03 0. -1.
    9900012    2    1    2    0    0 -0.23786936383E+02 -0.27480136667E+02 -0.18226057360E+02  0.50528863012E+02  0.30000009611E+02 0.  0.
         12    1    1    2    0    0  0.23786936383E+02  0.27480136667E+02  0.18226057360E+02  0.40659136988E+02  0.00000000000E+00 0. -1.
         11    1    3    3    0    0 -0.58800787268E+01 -0.41820780841E+01 -0.11285674913E+02  0.13395206659E+02  0.51100000000E-03 0. -1.
        -11    1    3    3    0    0 -0.69520829562E+01 -0.22909345505E+02  0.39468565276E+00  0.23944213203E+02  0.51100000000E-03 0.  1.
        -12    1    3    3    0    0 -0.10954774700E+02 -0.38871307810E+00 -0.73350680998E+01  0.13189443150E+02  0.00000000000E+00 0.  1.
</event>
<event>
 7    1  0.2966651E-011  0.5052887E+02  0.7816164E-02  0.1300439E+00
        -11   -1    0    0    0    0  0.00000000000E+00  0.00000000000E+00  0.45593999997E+02  0.45594000000E+02  0.51100000000E-03 0.  1.
         11   -1    0    0    0    0 -0.00000000000E+00 -0.00000000000E+00 -0.45593999997E+02  0.45594000000E+02  0.51100000000E-03 0. -1.
    9900012    2    1    2    0    0  0.14871868762E+02  0.30864065972E+02  0.21895249902E+02  0.50528867975E+02  0.30000024696E+02 0.  0.
         12    1    1    2    0    0 -0.14871868762E+02 -0.30864065972E+02 -0.21895249902E+02  0.40659132025E+02  0.00000000000E+00 0. -1.
         11    1    3    3    0    0  0.38405984456E+01 -0.19335710465E+01  0.31627126973E+01  0.53377565773E+01  0.51100000000E-03 0. -1.
        -11    1    3    3    0    0  0.72217232538E+01  0.26057660278E+02  0.24364471646E+01  0.27149423952E+02  0.51100000000E-03 0.  1.
        -12    1    3    3    0    0  0.38095470622E+01  0.67399767409E+01  0.16296090040E+02  0.18041687445E+02  0.00000000000E+00 0.  1.
</event>
<event>
 7    1  0.2966651E-011  0.5052886E+02  0.7816164E-02  0.1300439E+00
        -11   -1    0    0    0    0  0.00000000000E+00  0.00000000000E+00  0.45593999997E+02  0.45594000000E+02  0.51100000000E-03 0. -1.
         11   -1    0    0    0    0 -0.00000000000E+00 -0.00000000000E+00 -0.45593999997E+02  0.45594000000E+02  0.51100000000E-03 0.  1.
    9900012    2    1    2    0    0 -0.31705367050E+02 -0.10473661802E+02 -0.23199948259E+02  0.50528862153E+02  0.30000006999E+02 0.  0.
         12    1    1    2    0    0  0.31705367050E+02  0.10473661802E+02  0.23199948259E+02  0.40659137847E+02  0.00000000000E+00 0. -1.
         11    1    3    3    0    0 -0.17487932260E+02 -0.17237384114E+02 -0.72400401494E+01  0.25600261081E+02  0.51100000000E-03 0. -1.
        -11    1    3    3    0    0 -0.14895192011E+02  0.53070929753E+01 -0.98920698244E+01  0.18651676240E+02  0.51100000000E-03 0.  1.
         12    1    3    3    0    0  0.67775722180E+00  0.14566293368E+01 -0.60678382851E+01  0.62769248307E+01  0.00000000000E+00 0. -1.
</event>
<event>
 7    1  0.2966651E-011  0.5052887E+02  0.7816164E-02  0.1300439E+00
        -11   -1    0    0    0    0  0.00000000000E+00  0.00000000000E+00  0.45593999997E+02  0.45594000000E+02  0.51100000000E-03 0.  1.
         11   -1    0    0    0    0 -0.00000000000E+00 -0.00000000000E+00 -0.45593999997E+02  0.45594000000E+02  0.51100000000E-03 0. -1.
    9900012    2    1    2    0    0  0.12858415465E+02 -0.23733511631E+02  0.30406359701E+02  0.50528866550E+02  0.30000020366E+02 0.  0.
         12    1    1    2    0    0 -0.12858415465E+02  0.23733511631E+02 -0.30406359701E+02  0.40659133450E+02  0.00000000000E+00 0. -1.
         11    1    3    3    0    0 -0.14271468569E+01  0.13575350843E+01 -0.35202048187E+01  0.40337937333E+01  0.51100000000E-03 0. -1.
        -11    1    3    3    0    0  0.11427777594E+02 -0.86210555693E+01  0.20756870341E+02  0.25214368254E+02  0.51100000000E-03 0.  1.
        -12    1    3    3    0    0  0.28577847281E+01 -0.16469991146E+02  0.13169694179E+02  0.21280704562E+02  0.00000000000E+00 0.  1.
</event>
<event>
 7    1  0.2966651E-011  0.5052886E+02  0.7816164E-02  0.1300439E+00
        -11   -1    0    0    0    0  0.00000000000E+00  0.00000000000E+00  0.45593999997E+02  0.45594000000E+02  0.51100000000E-03 0. -1.
         11   -1    0    0    0    0 -0.00000000000E+00 -0.00000000000E+00 -0.45593999997E+02  0.45594000000E+02  0.51100000000E-03 0.  1.
    9900012    2    1    2    0    0 -0.47631215471E+01  0.40221951063E+02 -0.35599686758E+01  0.50528855258E+02  0.29999986043E+02 0.  0.
         12    1    1    2    0    0  0.47631215471E+01 -0.40221951063E+02  0.35599686758E+01  0.40659144742E+02  0.00000000000E+00 0. -1.
         11    1    3    3    0    0 -0.94548300867E+00  0.28417440082E+01 -0.88652164919E+01  0.93574307818E+01  0.51100000000E-03 0. -1.
        -11    1    3    3    0    0 -0.36470059649E+01  0.27144268524E+02 -0.35733503938E+01  0.27620296876E+02  0.51100000000E-03 0.  1.
         12    1    3    3    0    0 -0.17063257357E+00  0.10235938531E+02  0.88785982098E+01  0.13551127601E+02  0.00000000000E+00 0. -1.
</event>
<event>
 7    1  0.2966651E-011  0.5052884E+02  0.7816164E-02  0.1300439E+00
        -11   -1    0    0    0    0  0.00000000000E+00  0.00000000000E+00  0.45593999997E+02  0.45594000000E+02  0.51100000000E-03 0.  1.
         11   -1    0    0    0    0 -0.00000000000E+00 -0.00000000000E+00 -0.45593999997E+02  0.45594000000E+02  0.51100000000E-03 0. -1.
    9900012    2    1    2    0    0  0.24429269057E+01  0.40585370161E+02 -0.16480860168E+00  0.50528839595E+02  0.29999938433E+02 0.  0.
         12    1    1    2    0    0 -0.24429269057E+01 -0.40585370161E+02  0.16480860168E+00  0.40659160405E+02  0.00000000000E+00 0. -1.
         11    1    3    3    0    0 -0.79195842273E+01  0.18832248418E+02 -0.64657408872E+00  0.20439947484E+02  0.51100000000E-03 0. -1.
        -11    1    3    3    0    0  0.79778490025E+01  0.46163591995E+00  0.29592262548E+01  0.85215141094E+01  0.51100000000E-03 0.  1.
        -12    1    3    3    0    0  0.23846621305E+01  0.21291485823E+02 -0.24774607677E+01  0.21567378002E+02  0.00000000000E+00 0.  1.
</event>
<event>
 7    1  0.2966651E-011  0.5052886E+02  0.7816164E-02  0.1300439E+00
        -11   -1    0    0    0    0  0.00000000000E+00  0.00000000000E+00  0.45593999997E+02  0.45594000000E+02  0.51100000000E-03 0.  1.
         11   -1    0    0    0    0 -0.00000000000E+00 -0.00000000000E+00 -0.45593999997E+02  0.45594000000E+02  0.51100000000E-03 0. -1.
    9900012    2    1    2    0    0  0.32884615037E+02 -0.87308325097E+01  0.22260731495E+02  0.50528861924E+02  0.30000006303E+02 0.  0.
         12    1    1    2    0    0 -0.32884615037E+02  0.87308325097E+01 -0.22260731495E+02  0.40659138076E+02  0.00000000000E+00 0. -1.
         11    1    3    3    0    0  0.20201170960E+02 -0.64271987724E+01  0.19038937791E+02  0.28493461438E+02  0.51100000000E-03 0.  1.
        -11    1    3    3    0    0  0.11009510130E+02  0.61223002127E+01 -0.64684857140E+00  0.12613892601E+02  0.51100000000E-03 0. -1.
        -12    1    3    3    0    0  0.16739339461E+01 -0.84259339499E+01  0.38686422750E+01  0.94215078855E+01  0.00000000000E+00 0.  1.
</event>
<event>
 7    1  0.2966651E-011  0.5052883E+02  0.7816164E-02  0.1300439E+00
        -11   -1    0    0    0    0  0.00000000000E+00  0.00000000000E+00  0.45593999997E+02  0.45594000000E+02  0.51100000000E-03 0. -1.
         11   -1    0    0    0    0 -0.00000000000E+00 -0.00000000000E+00 -0.45593999997E+02  0.45594000000E+02  0.51100000000E-03 0.  1.
    9900012    2    1    2    0    0 -0.57586025918E+01 -0.25421588173E+02 -0.31204963690E+02  0.50528826276E+02  0.29999897949E+02 0.  0.
         12    1    1    2    0    0  0.57586025918E+01  0.25421588173E+02  0.31204963690E+02  0.40659173724E+02  0.00000000000E+00 0. -1.
         11    1    3    3    0    0 -0.90376278727E+01 -0.35455743929E+01 -0.56380986276E+01  0.11226663429E+02  0.51100000000E-03 0. -1.
        -11    1    3    3    0    0  0.10390918189E+02 -0.12222176492E+02 -0.77245458294E+01  0.17805094426E+02  0.51100000000E-03 0.  1.
        -12    1    3    3    0    0 -0.71118929078E+01 -0.96538372878E+01 -0.17842319233E+02  0.21497068421E+02  0.00000000000E+00 0.  1.
</event>
<event>
 7    1  0.2966651E-011  0.5052889E+02  0.7816164E-02  0.1300439E+00
        -11   -1    0    0    0    0  0.00000000000E+00  0.00000000000E+00  0.45593999997E+02  0.45594000000E+02  0.51100000000E-03 0. -1.
         11   -1    0    0    0    0 -0.00000000000E+00 -0.00000000000E+00 -0.45593999997E+02  0.45594000000E+02  0.51100000000E-03 0.  1.
    9900012    2    1    2    0    0  0.81312408846E+01 -0.20306594033E+02 -0.34273733193E+02  0.50528885074E+02  0.30000076672E+02 0.  0.
         12    1    1    2    0    0 -0.81312408846E+01  0.20306594033E+02  0.34273733193E+02  0.40659114926E+02  0.00000000000E+00 0. -1.
         11    1    3    3    0    0 -0.34428429161E+01 -0.14929703231E+02 -0.93178357370E+01  0.17932408343E+02  0.51100000000E-03 0. -1.
        -11    1    3    3    0    0  0.47443869650E+01 -0.45576908172E+00 -0.23592114170E+02  0.24068751202E+02  0.51100000000E-03 0.  1.
         12    1    3    3    0    0  0.68296968358E+01 -0.49211217202E+01 -0.13637832859E+01  0.85277255294E+01  0.00000000000E+00 0. -1.
</event>
<event>
 7    1  0.2966651E-011  0.5052886E+02  0.7816164E-02  0.1300439E+00
        -11   -1    0    0    0    0  0.00000000000E+00  0.00000000000E+00  0.45593999997E+02  0.45594000000E+02  0.51100000000E-03 0.  1.
         11   -1    0    0    0    0 -0.00000000000E+00 -0.00000000000E+00 -0.45593999997E+02  0.45594000000E+02  0.51100000000E-03 0. -1.
    9900012    2    1    2    0    0 -0.17802028780E+00 -0.18841152556E+02  0.36029779232E+02  0.50528859424E+02  0.29999998705E+02 0.  0.
         12    1    1    2    0    0  0.17802028780E+00  0.18841152556E+02 -0.36029779232E+02  0.40659140576E+02  0.00000000000E+00 0. -1.
         11    1    3    3    0    0  0.29855635100E+01 -0.14744569042E+02  0.80428814875E+01  0.17058834913E+02  0.51100000000E-03 0.  1.
        -11    1    3    3    0    0 -0.96907469952E+01 -0.13922044366E+00  0.20971806332E+02  0.23102956970E+02  0.51100000000E-03 0. -1.
        -12    1    3    3    0    0  0.65271631974E+01 -0.39573630698E+01  0.70150914128E+01  0.10367067541E+02  0.00000000000E+00 0.  1.
</event>
<event>
 7    1  0.2966651E-011  0.5052886E+02  0.7816164E-02  0.1300439E+00
        -11   -1    0    0    0    0  0.00000000000E+00  0.00000000000E+00  0.45593999997E+02  0.45594000000E+02  0.51100000000E-03 0. -1.
         11   -1    0    0    0    0 -0.00000000000E+00 -0.00000000000E+00 -0.45593999997E+02  0.45594000000E+02  0.51100000000E-03 0.  1.
    9900012    2    1    2    0    0 -0.46684113083E+01 -0.37898993260E+02 -0.13965607381E+02  0.50528856579E+02  0.29999990056E+02 0.  0.
         12    1    1    2    0    0  0.46684113083E+01  0.37898993260E+02  0.13965607381E+02  0.40659143421E+02  0.00000000000E+00 0. -1.
         11    1    3    3    0    0 -0.68767410504E+00 -0.39935392368E+02 -0.94915080498E+01  0.41053589181E+02  0.51100000000E-03 0. -1.
        -11    1    3    3    0    0 -0.32693854809E+01 -0.19401836198E+01 -0.38082117106E+01  0.53810473512E+01  0.51100000000E-03 0.  1.
         12    1    3    3    0    0 -0.71135172239E+00  0.39765827284E+01 -0.66588762086E+00  0.40942200469E+01  0.00000000000E+00 0. -1.
</event>
<event>
 7    1  0.2966651E-011  0.5052888E+02  0.7816164E-02  0.1300439E+00
        -11   -1    0    0    0    0  0.00000000000E+00  0.00000000000E+00  0.45593999997E+02  0.45594000000E+02  0.51100000000E-03 0.  1.
         11   -1    0    0    0    0 -0.00000000000E+00 -0.00000000000E+00 -0.45593999997E+02  0.45594000000E+02  0.51100000000E-03 0. -1.
    9900012    2    1    2    0    0  0.29273708946E+02  0.24881709417E+02  0.13308440912E+02  0.50528879271E+02  0.30000059032E+02 0.  0.
         12    1    1    2    0    0 -0.29273708946E+02 -0.24881709417E+02 -0.13308440912E+02  0.40659120729E+02  0.00000000000E+00 0. -1.
         11    1    3    3    0    0 -0.23719075796E+01  0.17691105022E+01 -0.26660164113E+01  0.39828810303E+01  0.51100000000E-03 0. -1.
        -11    1    3    3    0    0  0.16876486754E+02  0.47296764901E+01  0.14793710802E+02  0.22935551540E+02  0.51100000000E-03 0.  1.
        -12    1    3    3    0    0  0.14769129772E+02  0.18382922425E+02  0.11807465204E+01  0.23610446701E+02  0.00000000000E+00 0.  1.
</event>
<event>
 7    1  0.2966651E-011  0.5052886E+02  0.7816164E-02  0.1300439E+00
        -11   -1    0    0    0    0  0.00000000000E+00  0.00000000000E+00  0.45593999997E+02  0.45594000000E+02  0.51100000000E-03 0.  1.
         11   -1    0    0    0    0 -0.00000000000E+00 -0.00000000000E+00 -0.45593999997E+02  0.45594000000E+02  0.51100000000E-03 0. -1.
    9900012    2    1    2    0    0 -0.19543334610E+02  0.27647065429E+02  0.22513625608E+02  0.50528862127E+02  0.30000006922E+02 0.  0.
         12    1    1    2    0    0  0.19543334610E+02 -0.27647065429E+02 -0.22513625608E+02  0.40659137873E+02  0.00000000000E+00 0. -1.
         11    1    3    3    0    0 -0.12090913735E+02 -0.17738446644E+01  0.12391386169E+02  0.17403539045E+02  0.51100000000E-03 0.  1.
        -11    1    3    3    0    0 -0.20568616073E+01  0.22676911786E+02  0.86833757471E+01  0.24369530616E+02  0.51100000000E-03 0. -1.
        -12    1    3    3    0    0 -0.53955592678E+01  0.67439983075E+01  0.14388636923E+01  0.87557924660E+01  0.00000000000E+00 0.  1.
</event>
<event>
 7    1  0.2966651E-011  0.5052888E+02  0.7816164E-02  0.1300439E+00
        -11   -1    0    0    0    0  0.00000000000E+00  0.00000000000E+00  0.45593999997E+02  0.45594000000E+02  0.51100000000E-03 0.  1.
         11   -1    0    0    0    0 -0.00000000000E+00 -0.00000000000E+00 -0.45593999997E+02  0.45594000000E+02  0.51100000000E-03 0. -1.
    9900012    2    1    2    0    0 -0.29399743441E+02 -0.50835596309E+01  0.27622035203E+02  0.50528876526E+02  0.30000050688E+02 0.  0.
         12    1    1    2    0    0  0.29399743441E+02  0.50835596309E+01 -0.27622035203E+02  0.40659123474E+02  0.00000000000E+00 0. -1.
         11    1    3    3    0    0 -0.28289644596E+02 -0.92710655941E+00  0.16054069629E+02  0.32540692522E+02  0.51100000000E-03 0. -1.
        -11    1    3    3    0    0 -0.52591410338E+01 -0.59642271062E+01  0.10778179421E+02  0.13394018115E+02  0.51100000000E-03 0.  1.
         12    1    3    3    0    0  0.41490421884E+01  0.18077740347E+01  0.78978615353E+00  0.45941658884E+01  0.00000000000E+00 0. -1.
</event>
<event>
 7    1  0.2966651E-011  0.5052886E+02  0.7816164E-02  0.1300439E+00
        -11   -1    0    0    0    0  0.00000000000E+00  0.00000000000E+00  0.45593999997E+02  0.45594000000E+02  0.51100000000E-03 0.  1.
         11   -1    0    0    0    0 -0.00000000000E+00 -0.00000000000E+00 -0.45593999997E+02  0.45594000000E+02  0.51100000000E-03 0. -1.
    9900012    2    1    2    0    0  0.13069536560E+02  0.25946420673E+02  0.28445316916E+02  0.50528860977E+02  0.30000003427E+02 0.  0.
         12    1    1    2    0    0 -0.13069536560E+02 -0.25946420673E+02 -0.28445316916E+02  0.40659139023E+02  0.00000000000E+00 0. -1.
         11    1    3    3    0    0  0.44657317030E+01  0.24606450016E+02  0.19075484522E+02  0.31453048375E+02  0.51100000000E-03 0. -1.
        -11    1    3    3    0    0  0.57836251172E+01 -0.62483124677E+01  0.45375573707E+01  0.96478575520E+01  0.51100000000E-03 0.  1.
        -12    1    3    3    0    0  0.28201797397E+01  0.75882831240E+01  0.48322750231E+01  0.94279550504E+01  0.00000000000E+00 0.  1.
</event>
<event>
 7    1  0.2966651E-011  0.5052886E+02  0.7816164E-02  0.1300439E+00
        -11   -1    0    0    0    0  0.00000000000E+00  0.00000000000E+00  0.45593999997E+02  0.45594000000E+02  0.51100000000E-03 0. -1.
         11   -1    0    0    0    0 -0.00000000000E+00 -0.00000000000E+00 -0.45593999997E+02  0.45594000000E+02  0.51100000000E-03 0.  1.
    9900012    2    1    2    0    0 -0.35322429838E+02  0.28526299119E+01 -0.19933745549E+02  0.50528858855E+02  0.29999996975E+02 0.  0.
         12    1    1    2    0    0  0.35322429838E+02 -0.28526299119E+01  0.19933745549E+02  0.40659141145E+02  0.00000000000E+00 0. -1.
         11    1    3    3    0    0  0.25915873391E+01 -0.31613798284E+01  0.20618050791E+00  0.40930621811E+01  0.51100000000E-03 0. -1.
        -11    1    3    3    0    0 -0.31501426886E+02 -0.39121078872E+00 -0.20104371078E+02  0.37372164487E+02  0.51100000000E-03 0.  1.
         12    1    3    3    0    0 -0.64125902903E+01  0.64052205290E+01 -0.35554979302E-01  0.90636321865E+01  0.00000000000E+00 0. -1.
</event>
<event>
 7    1  0.2966651E-011  0.5052886E+02  0.7816164E-02  0.1300439E+00
        -11   -1    0    0    0    0  0.00000000000E+00  0.00000000000E+00  0.45593999997E+02  0.45594000000E+02  0.51100000000E-03 0.  1.
         11   -1    0    0    0    0 -0.00000000000E+00 -0.00000000000E+00 -0.45593999997E+02  0.45594000000E+02  0.51100000000E-03 0. -1.
    9900012    2    1    2    0    0  0.20467817961E+02  0.33951321372E+02  0.90300719323E+01  0.50528855960E+02  0.29999988175E+02 0.  0.
         12    1    1    2    0    0 -0.20467817961E+02 -0.33951321372E+02 -0.90300719323E+01  0.40659144040E+02  0.00000000000E+00 0. -1.
         11    1    3    3    0    0  0.11731323584E+02  0.11053381922E+02 -0.91285303138E+01  0.18523802820E+02  0.51100000000E-03 0. -1.
        -11    1    3    3    0    0  0.54960706984E+01  0.18809465851E+02  0.92228097984E+01  0.21657862765E+02  0.51100000000E-03 0.  1.
         12    1    3    3    0    0  0.32404236780E+01  0.40884735993E+01  0.89357924477E+01  0.10347190375E+02  0.00000000000E+00 0. -1.
</event>
<event>
 7    1  0.2966651E-011  0.5052888E+02  0.7816164E-02  0.1300439E+00
        -11   -1    0    0    0    0  0.00000000000E+00  0.00000000000E+00  0.45593999997E+02  0.45594000000E+02  0.51100000000E-03 0. -1.
         11   -1    0    0    0    0 -0.00000000000E+00 -0.00000000000E+00 -0.45593999997E+02  0.45594000000E+02  0.51100000000E-03 0.  1.
    9900012    2    1    2    0    0 -0.14607637437E+02 -0.58593245326E+01 -0.37489323897E+02  0.50528878493E+02  0.30000056667E+02 0.  0.
         12    1    1    2    0    0  0.14607637437E+02  0.58593245326E+01  0.37489323897E+02  0.40659121507E+02  0.00000000000E+00 0. -1.
         11    1    3    3    0    0  0.11689433120E+01 -0.84404781747E+01 -0.74389892361E+01  0.11311350998E+02  0.51100000000E-03 0. -1.
        -11    1    3    3    0    0 -0.12461621689E+01  0.81907456887E+01 -0.48730843738E+01  0.96118773745E+01  0.51100000000E-03 0.  1.
        -12    1    3    3    0    0 -0.14530418580E+02 -0.56095920465E+01 -0.25177250287E+02  0.29605650120E+02  0.00000000000E+00 0.  1.
</event>
<event>
 7    1  0.2966651E-011  0.5052886E+02  0.7816164E-02  0.1300439E+00
        -11   -1    0    0    0    0  0.00000000000E+00  0.00000000000E+00  0.45593999997E+02  0.45594000000E+02  0.51100000000E-03 0.  1.
         11   -1    0    0    0    0 -0.00000000000E+00 -0.00000000000E+00 -0.45593999997E+02  0.45594000000E+02  0.51100000000E-03 0. -1.
    9900012    2    1    2    0    0  0.35555369473E+02 -0.13051378459E+02 -0.14786575978E+02  0.50528860717E+02  0.30000002636E+02 0.  0.
         12    1    1    2    0    0 -0.35555369473E+02  0.13051378459E+02  0.14786575978E+02  0.40659139283E+02  0.00000000000E+00 0. -1.
         11    1    3    3    0    0  0.42612163773E+01  0.32425161067E+01  0.30711419309E+01  0.61728266408E+01  0.51100000000E-03 0. -1.
        -11    1    3    3    0    0  0.27384277803E+02 -0.61284846204E+01 -0.18221369005E+02  0.33458560686E+02  0.51100000000E-03 0.  1.
        -12    1    3    3    0    0  0.39098752933E+01 -0.10165409946E+02  0.36365109606E+00  0.10897473390E+02  0.00000000000E+00 0.  1.
</event>
<event>
 7    1  0.2966651E-011  0.5052886E+02  0.7816164E-02  0.1300439E+00
        -11   -1    0    0    0    0  0.00000000000E+00  0.00000000000E+00  0.45593999997E+02  0.45594000000E+02  0.51100000000E-03 0.  1.
         11   -1    0    0    0    0 -0.00000000000E+00 -0.00000000000E+00 -0.45593999997E+02  0.45594000000E+02  0.51100000000E-03 0. -1.
    9900012    2    1    2    0    0  0.91380973204E+01 -0.77069362794E+01  0.38862116300E+02  0.50528858681E+02  0.29999996447E+02 0.  0.
         12    1    1    2    0    0 -0.91380973204E+01  0.77069362794E+01 -0.38862116300E+02  0.40659141319E+02  0.00000000000E+00 0. -1.
         11    1    3    3    0    0  0.13508206644E+01 -0.15544500060E+02  0.85015922259E+01  0.17768884861E+02  0.51100000000E-03 0. -1.
        -11    1    3    3    0    0  0.41565836387E+01  0.35610455382E+01  0.79092286913E+01  0.96184266709E+01  0.51100000000E-03 0.  1.
         12    1    3    3    0    0  0.36306930173E+01  0.42765182419E+01  0.22451295383E+02  0.23141547149E+02  0.00000000000E+00 0. -1.
</event>
<event>
 7    1  0.2966651E-011  0.5052886E+02  0.7816164E-02  0.1300439E+00
        -11   -1    0    0    0    0  0.00000000000E+00  0.00000000000E+00  0.45593999997E+02  0.45594000000E+02  0.51100000000E-03 0. -1.
         11   -1    0    0    0    0 -0.00000000000E+00 -0.00000000000E+00 -0.45593999997E+02  0.45594000000E+02  0.51100000000E-03 0.  1.
    9900012    2    1    2    0    0 -0.92145944188E+01 -0.37486569158E+02 -0.12767703989E+02  0.50528857330E+02  0.29999992340E+02 0.  0.
         12    1    1    2    0    0  0.92145944188E+01  0.37486569158E+02  0.12767703989E+02  0.40659142670E+02  0.00000000000E+00 0. -1.
         11    1    3    3    0    0  0.33779327027E+01 -0.19387762929E+02 -0.48416059778E+01  0.20266645738E+02  0.51100000000E-03 0. -1.
        -11    1    3    3    0    0 -0.14075333156E+02 -0.12219592316E+02 -0.12691694001E+02  0.22550222542E+02  0.51100000000E-03 0.  1.
        -12    1    3    3    0    0  0.14828060345E+01 -0.58792139124E+01  0.47655959904E+01  0.77119890500E+01  0.00000000000E+00 0.  1.
</event>
<event>
 7    1  0.2966651E-011  0.5052898E+02  0.7816164E-02  0.1300438E+00
        -11   -1    0    0    0    0  0.00000000000E+00  0.00000000000E+00  0.45593999997E+02  0.45594000000E+02  0.51100000000E-03 0.  1.
         11   -1    0    0    0    0 -0.00000000000E+00 -0.00000000000E+00 -0.45593999997E+02  0.45594000000E+02  0.51100000000E-03 0. -1.
    9900012    2    1    2    0    0  0.28115002077E+02 -0.28146359927E+02  0.83955133185E+01  0.50528984237E+02  0.30000378084E+02 0.  0.
         12    1    1    2    0    0 -0.28115002077E+02  0.28146359927E+02 -0.83955133185E+01  0.40659015763E+02  0.00000000000E+00 0. -1.
         11    1    3    3    0    0  0.35096394522E+01  0.22810291699E+01 -0.29584363950E+01  0.51257203711E+01  0.51100000000E-03 0. -1.
        -11    1    3    3    0    0  0.25343696578E+02 -0.17039529348E+02  0.84011446762E+01  0.31673770675E+02  0.51100000000E-03 0.  1.
        -12    1    3    3    0    0 -0.73833395278E+00 -0.13387859749E+02  0.29528050373E+01  0.13729493191E+02  0.00000000000E+00 0.  1.
</event>
<event>
 7    1  0.2966651E-011  0.5052885E+02  0.7816164E-02  0.1300439E+00
        -11   -1    0    0    0    0  0.00000000000E+00  0.00000000000E+00  0.45593999997E+02  0.45594000000E+02  0.51100000000E-03 0.  1.
         11   -1    0    0    0    0 -0.00000000000E+00 -0.00000000000E+00 -0.45593999997E+02  0.45594000000E+02  0.51100000000E-03 0. -1.
    9900012    2    1    2    0    0 -0.10323207885E+02  0.39240693212E+02  0.26011319870E+01  0.50528849585E+02  0.29999968800E+02 0.  0.
         12    1    1    2    0    0  0.10323207885E+02 -0.39240693212E+02 -0.26011319870E+01  0.40659150415E+02  0.00000000000E+00 0. -1.
         11    1    3    3    0    0 -0.44498490628E+01  0.13686421117E+02 -0.80965864907E+01  0.16512843267E+02  0.51100000000E-03 0. -1.
        -11    1    3    3    0    0  0.16503695575E+01 -0.25061678464E+01  0.22824068329E+01  0.37701429897E+01  0.51100000000E-03 0.  1.
        -12    1    3    3    0    0 -0.75237283797E+01  0.28060439941E+02  0.84153116448E+01  0.30245863329E+02  0.00000000000E+00 0.  1.
</event>
<event>
 7    1  0.2966651E-011  0.5052886E+02  0.7816164E-02  0.1300439E+00
        -11   -1    0    0    0    0  0.00000000000E+00  0.00000000000E+00  0.45593999997E+02  0.45594000000E+02  0.51100000000E-03 0. -1.
         11   -1    0    0    0    0 -0.00000000000E+00 -0.00000000000E+00 -0.45593999997E+02  0.45594000000E+02  0.51100000000E-03 0.  1.
    9900012    2    1    2    0    0  0.33184055532E+02  0.98752105826E+01 -0.21318175417E+02  0.50528856764E+02  0.29999990620E+02 0.  0.
         12    1    1    2    0    0 -0.33184055532E+02 -0.98752105826E+01  0.21318175417E+02  0.40659143236E+02  0.00000000000E+00 0. -1.
         11    1    3    3    0    0  0.56212207041E+01 -0.27855047132E+01 -0.76688048731E+01  0.99079628156E+01  0.51100000000E-03 0. -1.
        -11    1    3    3    0    0  0.21231726774E+02  0.12440230437E+02  0.10336802940E+01  0.24629536137E+02  0.51100000000E-03 0.  1.
        -12    1    3    3    0    0  0.63311080537E+01  0.22048485922E+00 -0.14683050837E+02  0.15991357811E+02  0.00000000000E+00 0.  1.
</event>
<event>
 7    1  0.2966651E-011  0.5052887E+02  0.7816164E-02  0.1300439E+00
        -11   -1    0    0    0    0  0.00000000000E+00  0.00000000000E+00  0.45593999997E+02  0.45594000000E+02  0.51100000000E-03 0.  1.
         11   -1    0    0    0    0 -0.00000000000E+00 -0.00000000000E+00 -0.45593999997E+02  0.45594000000E+02  0.51100000000E-03 0. -1.
    9900012    2    1    2    0    0 -0.21325298231E+02 -0.26398626357E+02  0.22394403371E+02  0.50528866702E+02  0.30000020828E+02 0.  0.
         12    1    1    2    0    0  0.21325298231E+02  0.26398626357E+02 -0.22394403371E+02  0.40659133298E+02  0.00000000000E+00 0. -1.
         11    1    3    3    0    0 -0.99978557343E+01 -0.12317622242E+01  0.10294193080E+02  0.14402943063E+02  0.51100000000E-03 0. -1.
        -11    1    3    3    0    0 -0.15586747861E+02 -0.24568448760E+02  0.12766937299E+02  0.31773417689E+02  0.51100000000E-03 0.  1.
        -12    1    3    3    0    0  0.42593053642E+01 -0.59841537290E+00 -0.66672700810E+00  0.43525059503E+01  0.00000000000E+00 0.  1.
</event>
<event>
 7    1  0.2966651E-011  0.5052886E+02  0.7816164E-02  0.1300439E+00
        -11   -1    0    0    0    0  0.00000000000E+00  0.00000000000E+00  0.45593999997E+02  0.45594000000E+02  0.51100000000E-03 0. -1.
         11   -1    0    0    0    0 -0.00000000000E+00 -0.00000000000E+00 -0.45593999997E+02  0.45594000000E+02  0.51100000000E-03 0.  1.
    9900012    2    1    2    0    0  0.27468295517E+01 -0.26578513349E+02 -0.30646427690E+02  0.50528856199E+02  0.29999988904E+02 0.  0.
         12    1    1    2    0    0 -0.27468295517E+01  0.26578513349E+02  0.30646427690E+02  0.40659143801E+02  0.00000000000E+00 0. -1.
         11    1    3    3    0    0 -0.84686424440E+01 -0.87128962737E+01 -0.45309504641E+01  0.12967728355E+02  0.51100000000E-03 0. -1.
        -11    1    3    3    0    0  0.15153112583E+02 -0.11212839069E+02 -0.21343765083E+02  0.28476321552E+02  0.51100000000E-03 0.  1.
        -12    1    3    3    0    0 -0.39376405875E+01 -0.66527780063E+01 -0.47717121425E+01  0.90848062923E+01  0.00000000000E+00 0.  1.
</event>
<event>
 7    1  0.2966651E-011  0.5052886E+02  0.7816164E-02  0.1300439E+00
        -11   -1    0    0    0    0  0.00000000000E+00  0.00000000000E+00  0.45593999997E+02  0.45594000000E+02  0.51100000000E-03 0. -1.
         11   -1    0    0    0    0 -0.00000000000E+00 -0.00000000000E+00 -0.45593999997E+02  0.45594000000E+02  0.51100000000E-03 0.  1.
    9900012    2    1    2    0    0 -0.20482513778E+02  0.19876946233E+02 -0.28957545694E+02  0.50528858164E+02  0.29999994876E+02 0.  0.
         12    1    1    2    0    0  0.20482513778E+02 -0.19876946233E+02  0.28957545694E+02  0.40659141836E+02  0.00000000000E+00 0. -1.
         11    1    3    3    0    0 -0.11754243752E+02  0.19638169484E+02 -0.11006671997E+02  0.25396196085E+02  0.51100000000E-03 0.  1.
        -11    1    3    3    0    0  0.57668853526E+00 -0.18629912089E+01  0.21380324427E+01  0.28938709194E+01  0.51100000000E-03 0. -1.
         12    1    3    3    0    0 -0.93049585612E+01  0.21017679576E+01 -0.20088906139E+02  0.22238791160E+02  0.00000000000E+00 0. -1.
</event>
<event>
 7    1  0.2966651E-011  0.5052886E+02  0.7816164E-02  0.1300439E+00
        -11   -1    0    0    0    0  0.00000000000E+00  0.00000000000E+00  0.45593999997E+02  0.45594000000E+02  0.51100000000E-03 0.  1.
         11   -1    0    0    0    0 -0.00000000000E+00 -0.00000000000E+00 -0.45593999997E+02  0.45594000000E+02  0.51100000000E-03 0. -1.
    9900012    2    1    2    0    0 -0.30644034761E+02  0.23032594197E+02  0.13550203990E+02  0.50528864617E+02  0.30000014490E+02 0.  0.
         12    1    1    2    0    0  0.30644034761E+02 -0.23032594197E+02 -0.13550203990E+02  0.40659135383E+02  0.00000000000E+00 0. -1.
         11    1    3    3    0    0 -0.17586394765E+02  0.12274949429E+01  0.56067520085E+00  0.17638094614E+02  0.51100000000E-03 0. -1.
        -11    1    3    3    0    0  0.63929554860E+00  0.14364846726E+02  0.41245729564E+01  0.14958931199E+02  0.51100000000E-03 0.  1.
        -12    1    3    3    0    0 -0.13696935545E+02  0.74402525278E+01  0.88649558330E+01  0.17931838805E+02  0.00000000000E+00 0.  1.
</event>
<event>
 7    1  0.2966651E-011  0.5052886E+02  0.7816164E-02  0.1300439E+00
        -11   -1    0    0    0    0  0.00000000000E+00  0.00000000000E+00  0.45593999997E+02  0.45594000000E+02  0.51100000000E-03 0.  1.
         11   -1    0    0    0    0 -0.00000000000E+00 -0.00000000000E+00 -0.45593999997E+02  0.45594000000E+02  0.51100000000E-03 0. -1.
    9900012    2    1    2    0    0  0.36001571651E+02  0.13950603112E+02  0.12744913951E+02  0.50528864247E+02  0.30000013366E+02 0.  0.
         12    1    1    2    0    0 -0.36001571651E+02 -0.13950603112E+02 -0.12744913951E+02  0.40659135753E+02  0.00000000000E+00 0. -1.
         11    1    3    3    0    0  0.18895306651E+02 -0.27538104887E+01 -0.10416351069E+01  0.19123312726E+02  0.51100000000E-03 0. -1.
        -11    1    3    3    0    0  0.19386529168E+02  0.13223472352E+02  0.91822981853E+01  0.25199451075E+02  0.51100000000E-03 0.  1.
        -12    1    3    3    0    0 -0.22802641684E+01  0.34809412479E+01  0.46042508728E+01  0.62061004463E+01  0.00000000000E+00 0.  1.
</event>
<event>
 7    1  0.2966651E-011  0.5052886E+02  0.7816164E-02  0.1300439E+00
        -11   -1    0    0    0    0  0.00000000000E+00  0.00000000000E+00  0.45593999997E+02  0.45594000000E+02  0.51100000000E-03 0.  1.
         11   -1    0    0    0    0 -0.00000000000E+00 -0.00000000000E+00 -0.45593999997E+02  0.45594000000E+02  0.51100000000E-03 0. -1.
    9900012    2    1    2    0    0  0.26954508538E+01 -0.53349449786E+01  0.40217387914E+02  0.50528863464E+02  0.30000010986E+02 0.  0.
         12    1    1    2    0    0 -0.26954508538E+01  0.53349449786E+01 -0.40217387914E+02  0.40659136536E+02  0.00000000000E+00 0. -1.
         11    1    3    3    0    0 -0.10694916010E+02  0.28895889109E+01  0.13442445170E+02  0.17419250412E+02  0.51100000000E-03 0. -1.
        -11    1    3    3    0    0  0.38021349255E+01 -0.90474964086E+01  0.14571287045E+02  0.17568034257E+02  0.51100000000E-03 0.  1.
         12    1    3    3    0    0  0.95882319379E+01  0.82296251910E+00  0.12203655699E+02  0.15541578795E+02  0.00000000000E+00 0. -1.
</event>
<event>
 7    1  0.2966651E-011  0.5052887E+02  0.7816164E-02  0.1300439E+00
        -11   -1    0    0    0    0  0.00000000000E+00  0.00000000000E+00  0.45593999997E+02  0.45594000000E+02  0.51100000000E-03 0. -1.
         11   -1    0    0    0    0 -0.00000000000E+00 -0.00000000000E+00 -0.45593999997E+02  0.45594000000E+02  0.51100000000E-03 0.  1.
    9900012    2    1    2    0    0  0.33752618602E+02 -0.45522960273E+01 -0.22208164594E+02  0.50528865279E+02  0.30000016502E+02 0.  0.
         12    1    1    2    0    0 -0.33752618602E+02  0.45522960273E+01  0.22208164594E+02  0.40659134721E+02  0.00000000000E+00 0. -1.
         11    1    3    3    0    0  0.29369951302E+02 -0.27670694594E+01 -0.10201505789E+02  0.31214122341E+02  0.51100000000E-03 0. -1.
        -11    1    3    3    0    0  0.46577330251E+01  0.56466198467E+01 -0.80883618780E+01  0.10908730025E+02  0.51100000000E-03 0.  1.
         12    1    3    3    0    0 -0.27506572538E+00 -0.74318464146E+01 -0.39182969271E+01  0.84060129130E+01  0.00000000000E+00 0. -1.
</event>
<event>
 7    1  0.2966651E-011  0.5052891E+02  0.7816164E-02  0.1300439E+00
        -11   -1    0    0    0    0  0.00000000000E+00  0.00000000000E+00  0.45593999997E+02  0.45594000000E+02  0.51100000000E-03 0. -1.
         11   -1    0    0    0    0 -0.00000000000E+00 -0.00000000000E+00 -0.45593999997E+02  0.45594000000E+02  0.51100000000E-03 0.  1.
    9900012    2    1    2    0    0  0.33828540760E+02 -0.10454391668E+02 -0.19987418398E+02  0.50528912832E+02  0.30000161045E+02 0.  0.
         12    1    1    2    0    0 -0.33828540760E+02  0.10454391668E+02  0.19987418398E+02  0.40659087168E+02  0.00000000000E+00 0. -1.
         11    1    3    3    0    0  0.46067085560E+01 -0.90045662012E+01  0.46848882456E+01  0.11146845039E+02  0.51100000000E-03 0. -1.
        -11    1    3    3    0    0  0.21274776187E+02 -0.49430649052E+01 -0.15707787900E+02  0.26903245035E+02  0.51100000000E-03 0.  1.
        -12    1    3    3    0    0  0.79470560165E+01  0.34932394389E+01 -0.89645187444E+01  0.12478822758E+02  0.00000000000E+00 0.  1.
</event>
<event>
 7    1  0.2966651E-011  0.5052883E+02  0.7816164E-02  0.1300439E+00
        -11   -1    0    0    0    0  0.00000000000E+00  0.00000000000E+00  0.45593999997E+02  0.45594000000E+02  0.51100000000E-03 0.  1.
         11   -1    0    0    0    0 -0.00000000000E+00 -0.00000000000E+00 -0.45593999997E+02  0.45594000000E+02  0.51100000000E-03 0. -1.
    9900012    2    1    2    0    0 -0.64395923588E+01 -0.23599050987E+02  0.32477441777E+02  0.50528833978E+02  0.29999921360E+02 0.  0.
         12    1    1    2    0    0  0.64395923588E+01  0.23599050987E+02 -0.32477441777E+02  0.40659166022E+02  0.00000000000E+00 0. -1.
         11    1    3    3    0    0  0.40237524895E+01  0.24934464963E+01  0.13306703815E+01  0.49171682351E+01  0.51100000000E-03 0. -1.
        -11    1    3    3    0    0 -0.71674286043E+01 -0.97244233060E+01  0.25096476423E+02  0.27852640280E+02  0.51100000000E-03 0.  1.
        -12    1    3    3    0    0 -0.32959162440E+01 -0.16368074177E+02  0.60502949723E+01  0.17759025463E+02  0.00000000000E+00 0.  1.
</event>
<event>
 7    1  0.2966651E-011  0.5052886E+02  0.7816164E-02  0.1300439E+00
        -11   -1    0    0    0    0  0.00000000000E+00  0.00000000000E+00  0.45593999997E+02  0.45594000000E+02  0.51100000000E-03 0.  1.
         11   -1    0    0    0    0 -0.00000000000E+00 -0.00000000000E+00 -0.45593999997E+02  0.45594000000E+02  0.51100000000E-03 0. -1.
    9900012    2    1    2    0    0 -0.19363431198E+02 -0.97185695469E+01  0.34405998141E+02  0.50528858717E+02  0.29999996558E+02 0.  0.
         12    1    1    2    0    0  0.19363431198E+02  0.97185695469E+01 -0.34405998141E+02  0.40659141283E+02  0.00000000000E+00 0. -1.
         11    1    3    3    0    0 -0.15816470214E+02  0.13318123322E+01  0.12907868943E+02  0.20458434325E+02  0.51100000000E-03 0. -1.
        -11    1    3    3    0    0  0.55247033949E+01 -0.82381393596E+01  0.16714609059E+02  0.19436240479E+02  0.51100000000E-03 0.  1.
        -12    1    3    3    0    0 -0.90716643783E+01 -0.28122425194E+01  0.47835201383E+01  0.10634183913E+02  0.00000000000E+00 0.  1.
</event>
<event>
 7    1  0.2966651E-011  0.5052886E+02  0.7816164E-02  0.1300439E+00
        -11   -1    0    0    0    0  0.00000000000E+00  0.00000000000E+00  0.45593999997E+02  0.45594000000E+02  0.51100000000E-03 0. -1.
         11   -1    0    0    0    0 -0.00000000000E+00 -0.00000000000E+00 -0.45593999997E+02  0.45594000000E+02  0.51100000000E-03 0.  1.
    9900012    2    1    2    0    0 -0.35871702963E+01  0.83676840048E+01 -0.39626753157E+02  0.50528862133E+02  0.30000006939E+02 0.  0.
         12    1    1    2    0    0  0.35871702963E+01 -0.83676840048E+01  0.39626753157E+02  0.40659137867E+02  0.00000000000E+00 0. -1.
         11    1    3    3    0    0  0.36545876723E+00  0.58070170040E+01 -0.22705557988E+01  0.62458330503E+01  0.51100000000E-03 0. -1.
        -11    1    3    3    0    0  0.88638841167E+01 -0.27956870627E+01 -0.19988067451E+02  0.22043301669E+02  0.51100000000E-03 0.  1.
        -12    1    3    3    0    0 -0.12816513180E+02  0.53563540635E+01 -0.17368129908E+02  0.22239727414E+02  0.00000000000E+00 0.  1.
</event>
<event>
 7    1  0.2966651E-011  0.5052887E+02  0.7816164E-02  0.1300439E+00
        -11   -1    0    0    0    0  0.00000000000E+00  0.00000000000E+00  0.45593999997E+02  0.45594000000E+02  0.51100000000E-03 0.  1.
         11   -1    0    0    0    0 -0.00000000000E+00 -0.00000000000E+00 -0.45593999997E+02  0.45594000000E+02  0.51100000000E-03 0. -1.
    9900012    2    1    2    0    0  0.10697138051E+02  0.19363013161E+02  0.34114657529E+02  0.50528869420E+02  0.30000029090E+02 0.  0.
         12    1    1    2    0    0 -0.10697138051E+02 -0.19363013161E+02 -0.34114657529E+02  0.40659130580E+02  0.00000000000E+00 0. -1.
         11    1    3    3    0    0  0.81595781765E+01  0.79454233912E+01 -0.17681149030E+01  0.11525393679E+02  0.51100000000E-03 0. -1.
        -11    1    3    3    0    0 -0.10606073547E+01  0.10286625520E+01  0.17654630698E+02  0.17716348945E+02  0.51100000000E-03 0.  1.
        -12    1    3    3    0    0  0.35981672293E+01  0.10388927217E+02  0.18228141735E+02  0.21287126796E+02  0.00000000000E+00 0.  1.
</event>
<event>
 7    1  0.2966651E-011  0.5052886E+02  0.7816164E-02  0.1300439E+00
        -11   -1    0    0    0    0  0.00000000000E+00  0.00000000000E+00  0.45593999997E+02  0.45594000000E+02  0.51100000000E-03 0.  1.
         11   -1    0    0    0    0 -0.00000000000E+00 -0.00000000000E+00 -0.45593999997E+02  0.45594000000E+02  0.51100000000E-03 0. -1.
    9900012    2    1    2    0    0  0.15566934200E+02  0.91286528101E-01  0.37560991276E+02  0.50528857864E+02  0.29999993964E+02 0.  0.
         12    1    1    2    0    0 -0.15566934200E+02 -0.91286528101E-01 -0.37560991276E+02  0.40659142136E+02  0.00000000000E+00 0. -1.
         11    1    3    3    0    0  0.71839646751E+01  0.10362123277E+01 -0.67167182377E+00  0.72893228589E+01  0.51100000000E-03 0. -1.
        -11    1    3    3    0    0  0.11180285813E+02  0.28100383272E+00  0.38577546226E+02  0.40165966029E+02  0.51100000000E-03 0.  1.
        -12    1    3    3    0    0 -0.27973162880E+01 -0.12259296323E+01 -0.34488312622E+00  0.30735689759E+01  0.00000000000E+00 0.  1.
</event>
<event>
 7    1  0.2966651E-011  0.5052886E+02  0.7816164E-02  0.1300439E+00
        -11   -1    0    0    0    0  0.00000000000E+00  0.00000000000E+00  0.45593999997E+02  0.45594000000E+02  0.51100000000E-03 0.  1.
         11   -1    0    0    0    0 -0.00000000000E+00 -0.00000000000E+00 -0.45593999997E+02  0.45594000000E+02  0.51100000000E-03 0. -1.
    9900012    2    1    2    0    0  0.27265984488E+02  0.27599113521E+02  0.12166378162E+02  0.50528859148E+02  0.29999997867E+02 0.  0.
         12    1    1    2    0    0 -0.27265984488E+02 -0.27599113521E+02 -0.12166378162E+02  0.40659140852E+02  0.00000000000E+00 0. -1.
         11    1    3    3    0    0 -0.16088344805E+01  0.14536816858E+02  0.82878975597E+01  0.16810610904E+02  0.51100000000E-03 0. -1.
        -11    1    3    3    0    0  0.13808208884E+02  0.61865272702E+01  0.73116717091E+01  0.16804770028E+02  0.51100000000E-03 0.  1.
         12    1    3    3    0    0  0.15066610085E+02  0.68757693925E+01 -0.34331911071E+01  0.16913478216E+02  0.00000000000E+00 0. -1.
</event>
<event>
 7    1  0.2966651E-011  0.5052885E+02  0.7816164E-02  0.1300439E+00
        -11   -1    0    0    0    0  0.00000000000E+00  0.00000000000E+00  0.45593999997E+02  0.45594000000E+02  0.51100000000E-03 0.  1.
         11   -1    0    0    0    0 -0.00000000000E+00 -0.00000000000E+00 -0.45593999997E+02  0.45594000000E+02  0.51100000000E-03 0. -1.
    9900012    2    1    2    0    0  0.47094852562E+01  0.36999379495E+02  0.16187429033E+02  0.50528853513E+02  0.29999980737E+02 0.  0.
         12    1    1    2    0    0 -0.47094852562E+01 -0.36999379495E+02 -0.16187429033E+02  0.40659146487E+02  0.00000000000E+00 0. -1.
         11    1    3    3    0    0  0.65877478780E+01  0.29414277917E+01  0.23012464587E+01  0.75727244161E+01  0.51100000000E-03 0. -1.
        -11    1    3    3    0    0 -0.50740138133E+00  0.30017406867E+02  0.19578963217E+02  0.35841846662E+02  0.51100000000E-03 0.  1.
        -12    1    3    3    0    0 -0.13708612405E+01  0.40405448359E+01 -0.56927806433E+01  0.71142824350E+01  0.00000000000E+00 0.  1.
</event>
<event>
 7    1  0.2966651E-011  0.5052886E+02  0.7816164E-02  0.1300439E+00
        -11   -1    0    0    0    0  0.00000000000E+00  0.00000000000E+00  0.45593999997E+02  0.45594000000E+02  0.51100000000E-03 0.  1.
         11   -1    0    0    0    0 -0.00000000000E+00 -0.00000000000E+00 -0.45593999997E+02  0.45594000000E+02  0.51100000000E-03 0. -1.
    9900012    2    1    2    0    0  0.20845248296E+02 -0.24902355246E+02  0.24464545999E+02  0.50528859770E+02  0.29999999756E+02 0.  0.
         12    1    1    2    0    0 -0.20845248296E+02  0.24902355246E+02 -0.24464545999E+02  0.40659140230E+02  0.00000000000E+00 0. -1.
         11    1    3    3    0    0  0.21936253201E+02 -0.15802688627E+02  0.10710349234E+02  0.29079816941E+02  0.51100000000E-03 0. -1.
        -11    1    3    3    0    0  0.91395481038E+00 -0.12297992027E+02  0.12260265756E+02  0.17389365658E+02  0.51100000000E-03 0.  1.
         12    1    3    3    0    0 -0.20049597152E+01  0.31983254081E+01  0.14939310084E+01  0.40596771711E+01  0.00000000000E+00 0. -1.
</event>
<event>
 7    1  0.2966651E-011  0.5052886E+02  0.7816164E-02  0.1300439E+00
        -11   -1    0    0    0    0  0.00000000000E+00  0.00000000000E+00  0.45593999997E+02  0.45594000000E+02  0.51100000000E-03 0.  1.
         11   -1    0    0    0    0 -0.00000000000E+00 -0.00000000000E+00 -0.45593999997E+02  0.45594000000E+02  0.51100000000E-03 0. -1.
    9900012    2    1    2    0    0  0.15416733734E+02  0.35342434906E+02  0.12899696548E+02  0.50528861358E+02  0.30000004583E+02 0.  0.
         12    1    1    2    0    0 -0.15416733734E+02 -0.35342434906E+02 -0.12899696548E+02  0.40659138642E+02  0.00000000000E+00 0. -1.
         11    1    3    3    0    0 -0.33271258767E+00  0.85795562861E+00 -0.36524271995E+01  0.37665647791E+01  0.51100000000E-03 0. -1.
        -11    1    3    3    0    0  0.46954094539E+01  0.18100586877E+02  0.19223594199E+02  0.26818364778E+02  0.51100000000E-03 0.  1.
        -12    1    3    3    0    0  0.11054036868E+02  0.16383892401E+02 -0.26714704511E+01  0.19943931800E+02  0.00000000000E+00 0.  1.
</event>
<event>
 7    1  0.2966651E-011  0.5052886E+02  0.7816164E-02  0.1300439E+00
        -11   -1    0    0    0    0  0.00000000000E+00  0.00000000000E+00  0.45593999997E+02  0.45594000000E+02  0.51100000000E-03 0.  1.
         11   -1    0    0    0    0 -0.00000000000E+00 -0.00000000000E+00 -0.45593999997E+02  0.45594000000E+02  0.51100000000E-03 0. -1.
    9900012    2    1    2    0    0  0.50626850016E+00 -0.54561794396E+00  0.40652329840E+02  0.50528856770E+02  0.29999990639E+02 0.  0.
         12    1    1    2    0    0 -0.50626850016E+00  0.54561794396E+00 -0.40652329840E+02  0.40659143230E+02  0.00000000000E+00 0. -1.
         11    1    3    3    0    0  0.27312447427E+01  0.90511598124E+01  0.10858757837E+01  0.95164236072E+01  0.51100000000E-03 0. -1.
        -11    1    3    3    0    0 -0.18679315228E+01 -0.87618534216E+00  0.79593453083E+01  0.82224112598E+01  0.51100000000E-03 0.  1.
         12    1    3    3    0    0 -0.35704471978E+00 -0.87205924142E+01  0.31607108748E+02  0.32790021903E+02  0.00000000000E+00 0. -1.
</event>
<event>
 7    1  0.2966651E-011  0.5052888E+02  0.7816164E-02  0.1300439E+00
        -11   -1    0    0    0    0  0.00000000000E+00  0.00000000000E+00  0.45593999997E+02  0.45594000000E+02  0.51100000000E-03 0. -1.
         11   -1    0    0    0    0 -0.00000000000E+00 -0.00000000000E+00 -0.45593999997E+02  0.45594000000E+02  0.51100000000E-03 0.  1.
    9900012    2    1    2    0    0  0.34706685728E+02 -0.10948183126E+02 -0.18131392328E+02  0.50528878812E+02  0.30000057637E+02 0.  0.
         12    1    1    2    0    0 -0.34706685728E+02  0.10948183126E+02  0.18131392328E+02  0.40659121188E+02  0.00000000000E+00 0. -1.
         11    1    3    3    0    0 -0.15238828422E+01  0.23235086093E+01  0.27210084905E+01  0.38890614087E+01  0.51100000000E-03 0. -1.
        -11    1    3    3    0    0  0.22876613816E+02 -0.99795674477E+01 -0.21397451819E+02  0.32875251645E+02  0.51100000000E-03 0.  1.
         12    1    3    3    0    0  0.13353954755E+02 -0.32921242878E+01  0.54505100069E+00  0.13764565758E+02  0.00000000000E+00 0. -1.
</event>
<event>
 7    1  0.2966651E-011  0.5052890E+02  0.7816164E-02  0.1300439E+00
        -11   -1    0    0    0    0  0.00000000000E+00  0.00000000000E+00  0.45593999997E+02  0.45594000000E+02  0.51100000000E-03 0.  1.
         11   -1    0    0    0    0 -0.00000000000E+00 -0.00000000000E+00 -0.45593999997E+02  0.45594000000E+02  0.51100000000E-03 0. -1.
    9900012    2    1    2    0    0  0.15230766517E+02  0.24584254092E+02  0.28579723288E+02  0.50528900389E+02  0.30000123222E+02 0.  0.
         12    1    1    2    0    0 -0.15230766517E+02 -0.24584254092E+02 -0.28579723288E+02  0.40659099611E+02  0.00000000000E+00 0. -1.
         11    1    3    3    0    0 -0.42422117114E+01  0.12281551747E+02  0.23940843136E+01  0.13212286459E+02  0.51100000000E-03 0. -1.
        -11    1    3    3    0    0  0.13174840297E+02  0.10838489669E+02  0.25680534758E+02  0.30830814794E+02  0.51100000000E-03 0.  1.
        -12    1    3    3    0    0  0.62981379310E+01  0.14642126762E+01  0.50510421674E+00  0.64857991357E+01  0.00000000000E+00 0.  1.
</event>
<event>
 7    1  0.2966651E-011  0.5052886E+02  0.7816164E-02  0.1300439E+00
        -11   -1    0    0    0    0  0.00000000000E+00  0.00000000000E+00  0.45593999997E+02  0.45594000000E+02  0.51100000000E-03 0. -1.
         11   -1    0    0    0    0 -0.00000000000E+00 -0.00000000000E+00 -0.45593999997E+02  0.45594000000E+02  0.51100000000E-03 0.  1.
    9900012    2    1    2    0    0 -0.33807993945E+02  0.49663230021E+01  0.22034546326E+02  0.50528855265E+02  0.29999986065E+02 0.  0.
         12    1    1    2    0    0  0.33807993945E+02 -0.49663230021E+01 -0.22034546326E+02  0.40659144735E+02  0.00000000000E+00 0. -1.
         11    1    3    3    0    0 -0.21036132622E+02 -0.10137291269E+02  0.12498346913E+02  0.26485698514E+02  0.51100000000E-03 0. -1.
        -11    1    3    3    0    0 -0.26571665039E+01  0.39906065012E+01 -0.19024795571E+01  0.51579940677E+01  0.51100000000E-03 0.  1.
         12    1    3    3    0    0 -0.10114694819E+02  0.11113007770E+02  0.11438678971E+02  0.18885162683E+02  0.00000000000E+00 0. -1.
</event>
<event>
 7    1  0.2966651E-011  0.5052887E+02  0.7816164E-02  0.1300439E+00
        -11   -1    0    0    0    0  0.00000000000E+00  0.00000000000E+00  0.45593999997E+02  0.45594000000E+02  0.51100000000E-03 0.  1.
         11   -1    0    0    0    0 -0.00000000000E+00 -0.00000000000E+00 -0.45593999997E+02  0.45594000000E+02  0.51100000000E-03 0. -1.
    9900012    2    1    2    0    0 -0.32217780161E+02 -0.24197560532E+02  0.54459053449E+01  0.50528865981E+02  0.30000018635E+02 0.  0.
         12    1    1    2    0    0  0.32217780161E+02  0.24197560532E+02 -0.54459053449E+01  0.40659134019E+02  0.00000000000E+00 0. -1.
         11    1    3    3    0    0 -0.35399058840E+01 -0.48204255140E+01  0.51619506591E+01  0.79002006729E+01  0.51100000000E-03 0. -1.
        -11    1    3    3    0    0 -0.30953428639E+02 -0.20893101435E+02 -0.39873997760E+01  0.37557100385E+02  0.51100000000E-03 0.  1.
        -12    1    3    3    0    0  0.22755543620E+01  0.15159664173E+01  0.42713544618E+01  0.50715649232E+01  0.00000000000E+00 0.  1.
</event>
<event>
 7    1  0.2966651E-011  0.5052886E+02  0.7816164E-02  0.1300439E+00
        -11   -1    0    0    0    0  0.00000000000E+00  0.00000000000E+00  0.45593999997E+02  0.45594000000E+02  0.51100000000E-03 0.  1.
         11   -1    0    0    0    0 -0.00000000000E+00 -0.00000000000E+00 -0.45593999997E+02  0.45594000000E+02  0.51100000000E-03 0. -1.
    9900012    2    1    2    0    0  0.25805705511E+02 -0.63760558446E+01  0.30766491776E+02  0.50528861529E+02  0.30000005103E+02 0.  0.
         12    1    1    2    0    0 -0.25805705511E+02  0.63760558446E+01 -0.30766491776E+02  0.40659138471E+02  0.00000000000E+00 0. -1.
         11    1    3    3    0    0 -0.47323739444E+01  0.16356528914E+01  0.91340879419E+01  0.10416443074E+02  0.51100000000E-03 0. -1.
        -11    1    3    3    0    0  0.27030712844E+02 -0.69665791491E+01  0.13113850830E+02  0.30840975110E+02  0.51100000000E-03 0.  1.
        -12    1    3    3    0    0  0.35073666106E+01 -0.10451295870E+01  0.85185530043E+01  0.92714433440E+01  0.00000000000E+00 0.  1.
</event>
<event>
 7    1  0.2966651E-011  0.5052886E+02  0.7816164E-02  0.1300439E+00
        -11   -1    0    0    0    0  0.00000000000E+00  0.00000000000E+00  0.45593999997E+02  0.45594000000E+02  0.51100000000E-03 0. -1.
         11   -1    0    0    0    0 -0.00000000000E+00 -0.00000000000E+00 -0.45593999997E+02  0.45594000000E+02  0.51100000000E-03 0.  1.
    9900012    2    1    2    0    0 -0.46968386603E+01  0.40332649472E+02  0.20935522288E+01  0.50528857513E+02  0.29999992898E+02 0.  0.
         12    1    1    2    0    0  0.46968386603E+01 -0.40332649472E+02 -0.20935522288E+01  0.40659142487E+02  0.00000000000E+00 0. -1.
         11    1    3    3    0    0 -0.12461847179E+02  0.59509922667E+01  0.26641400039E+01  0.14064479596E+02  0.51100000000E-03 0.  1.
        -11    1    3    3    0    0 -0.86732035168E+00 -0.75258345518E-01  0.33044203255E+00  0.93118237151E+00  0.51100000000E-03 0. -1.
         12    1    3    3    0    0  0.86323288708E+01  0.34456915551E+02 -0.90102980762E+00  0.35533195546E+02  0.00000000000E+00 0. -1.
</event>
<event>
 7    1  0.3144256E-011  0.5052887E+02  0.7816164E-02  0.1300439E+00
        -11   -1    0    0    0    0  0.00000000000E+00  0.00000000000E+00  0.45593999997E+02  0.45594000000E+02  0.51100000000E-03 0. -1.
         11   -1    0    0    0    0 -0.00000000000E+00 -0.00000000000E+00 -0.45593999997E+02  0.45594000000E+02  0.51100000000E-03 0.  1.
    9900012    2    1    2    0    0 -0.77935638707E+01 -0.39169950551E+02 -0.76249656764E+01  0.50528871068E+02  0.30000034097E+02 0.  0.
         12    1    1    2    0    0  0.77935638707E+01  0.39169950551E+02  0.76249656764E+01  0.40659128932E+02  0.00000000000E+00 0. -1.
         11    1    3    3    0    0  0.36044731469E+01 -0.57765917932E+01 -0.90687162493E+01  0.11340319840E+02  0.51100000000E-03 0. -1.
        -11    1    3    3    0    0 -0.14285934397E+02 -0.20965621767E+02 -0.32842100543E+01  0.25581853991E+02  0.51100000000E-03 0.  1.
        -12    1    3    3    0    0  0.28878973796E+01 -0.12427736991E+02  0.47279606271E+01  0.13606697236E+02  0.00000000000E+00 0.  1.
</event>
<event>
 7    1  0.2966651E-011  0.5052886E+02  0.7816164E-02  0.1300439E+00
        -11   -1    0    0    0    0  0.00000000000E+00  0.00000000000E+00  0.45593999997E+02  0.45594000000E+02  0.51100000000E-03 0. -1.
         11   -1    0    0    0    0 -0.00000000000E+00 -0.00000000000E+00 -0.45593999997E+02  0.45594000000E+02  0.51100000000E-03 0.  1.
    9900012    2    1    2    0    0 -0.40565342655E+02  0.34275206782E+00 -0.27388368190E+01  0.50528859198E+02  0.29999998017E+02 0.  0.
         12    1    1    2    0    0  0.40565342655E+02 -0.34275206782E+00  0.27388368190E+01  0.40659140802E+02  0.00000000000E+00 0. -1.
         11    1    3    3    0    0 -0.69813727281E+01  0.99553804093E+01  0.49969080125E+01  0.13146035684E+02  0.51100000000E-03 0. -1.
        -11    1    3    3    0    0 -0.17636442612E+02 -0.10625248558E+02 -0.40734387671E+01  0.20988876067E+02  0.51100000000E-03 0.  1.
         12    1    3    3    0    0 -0.15947527315E+02  0.10126202165E+01 -0.36623060644E+01  0.16393947446E+02  0.00000000000E+00 0. -1.
</event>
<event>
 7    1  0.2966651E-011  0.5052885E+02  0.7816164E-02  0.1300439E+00
        -11   -1    0    0    0    0  0.00000000000E+00  0.00000000000E+00  0.45593999997E+02  0.45594000000E+02  0.51100000000E-03 0. -1.
         11   -1    0    0    0    0 -0.00000000000E+00 -0.00000000000E+00 -0.45593999997E+02  0.45594000000E+02  0.51100000000E-03 0.  1.
    9900012    2    1    2    0    0 -0.29657654812E+02  0.11702798945E+02 -0.25231613054E+02  0.50528852328E+02  0.29999977137E+02 0.  0.
         12    1    1    2    0    0  0.29657654812E+02 -0.11702798945E+02  0.25231613054E+02  0.40659147672E+02  0.00000000000E+00 0. -1.
         11    1    3    3    0    0 -0.58992168629E+01 -0.36949315000E+01 -0.96805874688E+01  0.11923382590E+02  0.51100000000E-03 0. -1.
        -11    1    3    3    0    0 -0.17773668239E+02  0.18784953151E+02 -0.55195904444E+01  0.26443215132E+02  0.51100000000E-03 0.  1.
        -12    1    3    3    0    0 -0.59847697099E+01 -0.33872227062E+01 -0.10031435141E+02  0.12162254607E+02  0.00000000000E+00 0.  1.
</event>
<event>
 7    1  0.2966651E-011  0.5052883E+02  0.7816164E-02  0.1300439E+00
        -11   -1    0    0    0    0  0.00000000000E+00  0.00000000000E+00  0.45593999997E+02  0.45594000000E+02  0.51100000000E-03 0. -1.
         11   -1    0    0    0    0 -0.00000000000E+00 -0.00000000000E+00 -0.45593999997E+02  0.45594000000E+02  0.51100000000E-03 0.  1.
    9900012    2    1    2    0    0 -0.24370280200E+02 -0.24412666584E+02  0.21523932366E+02  0.50528825005E+02  0.29999894086E+02 0.  0.
         12    1    1    2    0    0  0.24370280200E+02  0.24412666584E+02 -0.21523932366E+02  0.40659174995E+02  0.00000000000E+00 0. -1.
         11    1    3    3    0    0  0.21048172104E+01 -0.21193968208E+01  0.53892645440E+01  0.61616776092E+01  0.51100000000E-03 0. -1.
        -11    1    3    3    0    0 -0.18414819233E+02 -0.26055773830E+02  0.95657820308E+01  0.33309354593E+02  0.51100000000E-03 0.  1.
        -12    1    3    3    0    0 -0.80602781774E+01  0.37625040667E+01  0.65688857908E+01  0.11057792803E+02  0.00000000000E+00 0.  1.
</event>
<event>
 7    1  0.2966651E-011  0.5052886E+02  0.7816164E-02  0.1300439E+00
        -11   -1    0    0    0    0  0.00000000000E+00  0.00000000000E+00  0.45593999997E+02  0.45594000000E+02  0.51100000000E-03 0.  1.
         11   -1    0    0    0    0 -0.00000000000E+00 -0.00000000000E+00 -0.45593999997E+02  0.45594000000E+02  0.51100000000E-03 0. -1.
    9900012    2    1    2    0    0  0.34546154244E+02  0.15191173799E+02  0.15131320893E+02  0.50528863187E+02  0.30000010142E+02 0.  0.
         12    1    1    2    0    0 -0.34546154244E+02 -0.15191173799E+02 -0.15131320893E+02  0.40659136813E+02  0.00000000000E+00 0. -1.
         11    1    3    3    0    0  0.23929053914E+02 -0.35990654703E+01  0.52347082613E+01  0.24757929322E+02  0.51100000000E-03 0. -1.
        -11    1    3    3    0    0  0.79062284316E+01  0.11434500727E+02  0.11164348480E+02  0.17829720473E+02  0.51100000000E-03 0.  1.
         12    1    3    3    0    0  0.27108718988E+01  0.73557385423E+01 -0.12677358485E+01  0.79412133919E+01  0.00000000000E+00 0. -1.
</event>
<event>
 7    1  0.2966651E-011  0.5052885E+02  0.7816164E-02  0.1300439E+00
        -11   -1    0    0    0    0  0.00000000000E+00  0.00000000000E+00  0.45593999997E+02  0.45594000000E+02  0.51100000000E-03 0.  1.
         11   -1    0    0    0    0 -0.00000000000E+00 -0.00000000000E+00 -0.45593999997E+02  0.45594000000E+02  0.51100000000E-03 0. -1.
    9900012    2    1    2    0    0  0.66698731625E+01  0.26398747057E+01  0.40021370232E+02  0.50528853160E+02  0.29999979665E+02 0.  0.
         12    1    1    2    0    0 -0.66698731625E+01 -0.26398747057E+01 -0.40021370232E+02  0.40659146840E+02  0.00000000000E+00 0. -1.
         11    1    3    3    0    0 -0.97158122505E+01  0.14594917439E+01  0.19484377248E+02  0.21821275876E+02  0.51100000000E-03 0. -1.
        -11    1    3    3    0    0  0.34767004448E+01  0.37527601187E+01  0.10994357027E+01  0.52325341487E+01  0.51100000000E-03 0.  1.
         12    1    3    3    0    0  0.12908984968E+02 -0.25723771570E+01  0.19437557282E+02  0.23475043136E+02  0.00000000000E+00 0. -1.
</event>
<event>
 7    1  0.2966651E-011  0.5052885E+02  0.7816164E-02  0.1300439E+00
        -11   -1    0    0    0    0  0.00000000000E+00  0.00000000000E+00  0.45593999997E+02  0.45594000000E+02  0.51100000000E-03 0.  1.
         11   -1    0    0    0    0 -0.00000000000E+00 -0.00000000000E+00 -0.45593999997E+02  0.45594000000E+02  0.51100000000E-03 0. -1.
    9900012    2    1    2    0    0  0.34315931039E+02  0.11267460572E+02  0.18671567433E+02  0.50528853166E+02  0.29999979684E+02 0.  0.
         12    1    1    2    0    0 -0.34315931039E+02 -0.11267460572E+02 -0.18671567433E+02  0.40659146834E+02  0.00000000000E+00 0. -1.
         11    1    3    3    0    0  0.25004677084E+02  0.12952515897E+02  0.41970755895E+01  0.28471336250E+02  0.51100000000E-03 0. -1.
        -11    1    3    3    0    0  0.12216146145E+02 -0.39463865833E+01  0.12315175869E+02  0.17789652910E+02  0.51100000000E-03 0.  1.
         12    1    3    3    0    0 -0.29048921899E+01  0.22613312584E+01  0.21593159754E+01  0.42678640064E+01  0.00000000000E+00 0. -1.
</event>
<event>
 7    1  0.2966651E-011  0.5052885E+02  0.7816164E-02  0.1300439E+00
        -11   -1    0    0    0    0  0.00000000000E+00  0.00000000000E+00  0.45593999997E+02  0.45594000000E+02  0.51100000000E-03 0. -1.
         11   -1    0    0    0    0 -0.00000000000E+00 -0.00000000000E+00 -0.45593999997E+02  0.45594000000E+02  0.51100000000E-03 0.  1.
    9900012    2    1    2    0    0 -0.12230250171E+02 -0.13275635484E+02 -0.36432746643E+02  0.50528849189E+02  0.29999967594E+02 0.  0.
         12    1    1    2    0    0  0.12230250171E+02  0.13275635484E+02  0.36432746643E+02  0.40659150811E+02  0.00000000000E+00 0. -1.
         11    1    3    3    0    0 -0.14841008291E+02 -0.86971618333E+01 -0.10157166992E+02  0.19976591116E+02  0.51100000000E-03 0. -1.
        -11    1    3    3    0    0  0.64482364235E+01  0.24481804620E+01 -0.16714622866E+02  0.18081812917E+02  0.51100000000E-03 0.  1.
        -12    1    3    3    0    0 -0.38374783033E+01 -0.70266541122E+01 -0.95609567853E+01  0.12470445156E+02  0.00000000000E+00 0.  1.
</event>
<event>
 7    1  0.2966651E-011  0.5052881E+02  0.7816164E-02  0.1300439E+00
        -11   -1    0    0    0    0  0.00000000000E+00  0.00000000000E+00  0.45593999997E+02  0.45594000000E+02  0.51100000000E-03 0.  1.
         11   -1    0    0    0    0 -0.00000000000E+00 -0.00000000000E+00 -0.45593999997E+02  0.45594000000E+02  0.51100000000E-03 0. -1.
    9900012    2    1    2    0    0  0.39913611755E+02  0.21791074063E+01  0.74380428179E+01  0.50528814158E+02  0.29999861114E+02 0.  0.
         12    1    1    2    0    0 -0.39913611755E+02 -0.21791074063E+01 -0.74380428179E+01  0.40659185842E+02  0.00000000000E+00 0. -1.
         11    1    3    3    0    0  0.14932763872E+02 -0.12226580018E+02 -0.31898369075E+01  0.19561486537E+02  0.51100000000E-03 0. -1.
        -11    1    3    3    0    0  0.21338775770E+02  0.13745557019E+02  0.94052302397E+01  0.27069208434E+02  0.51100000000E-03 0.  1.
         12    1    3    3    0    0  0.36420721129E+01  0.66013040481E+00  0.12226494857E+01  0.38981191865E+01  0.00000000000E+00 0. -1.
</event>
<event>
 7    1  0.2966651E-011  0.5052886E+02  0.7816164E-02  0.1300439E+00
        -11   -1    0    0    0    0  0.00000000000E+00  0.00000000000E+00  0.45593999997E+02  0.45594000000E+02  0.51100000000E-03 0.  1.
         11   -1    0    0    0    0 -0.00000000000E+00 -0.00000000000E+00 -0.45593999997E+02  0.45594000000E+02  0.51100000000E-03 0. -1.
    9900012    2    1    2    0    0  0.75807310622E+00 -0.40097119867E+02 -0.66941698843E+01  0.50528860721E+02  0.30000002649E+02 0.  0.
         12    1    1    2    0    0 -0.75807310622E+00  0.40097119867E+02  0.66941698843E+01  0.40659139279E+02  0.00000000000E+00 0. -1.
         11    1    3    3    0    0 -0.28246681687E+01 -0.46997977706E+00 -0.41060353329E+01  0.50059122715E+01  0.51100000000E-03 0. -1.
        -11    1    3    3    0    0  0.97209786224E+01 -0.32537841264E+02  0.38081796471E+01  0.34171783272E+02  0.51100000000E-03 0.  1.
        -12    1    3    3    0    0 -0.61382373474E+01 -0.70892988251E+01 -0.63963141985E+01  0.11351165178E+02  0.00000000000E+00 0.  1.
</event>
<event>
 7    1  0.2966651E-011  0.5052887E+02  0.7816164E-02  0.1300439E+00
        -11   -1    0    0    0    0  0.00000000000E+00  0.00000000000E+00  0.45593999997E+02  0.45594000000E+02  0.51100000000E-03 0.  1.
         11   -1    0    0    0    0 -0.00000000000E+00 -0.00000000000E+00 -0.45593999997E+02  0.45594000000E+02  0.51100000000E-03 0. -1.
    9900012    2    1    2    0    0  0.29813821737E+02  0.44755036606E+01  0.27281330110E+02  0.50528867298E+02  0.30000022638E+02 0.  0.
         12    1    1    2    0    0 -0.29813821737E+02 -0.44755036606E+01 -0.27281330110E+02  0.40659132702E+02  0.00000000000E+00 0. -1.
         11    1    3    3    0    0 -0.52807789632E+00 -0.36916034878E+01 -0.11452579634E+01  0.39010791634E+01  0.51100000000E-03 0. -1.
        -11    1    3    3    0    0  0.26702874665E+02  0.65816183176E+01  0.31345907850E+02  0.41700445492E+02  0.51100000000E-03 0.  1.
        -12    1    3    3    0    0  0.36390249679E+01  0.15854888307E+01 -0.29193197769E+01  0.49273426417E+01  0.00000000000E+00 0.  1.
</event>
<event>
 7    1  0.2966651E-011  0.5052882E+02  0.7816164E-02  0.1300439E+00
        -11   -1    0    0    0    0  0.00000000000E+00  0.00000000000E+00  0.45593999997E+02  0.45594000000E+02  0.51100000000E-03 0.  1.
         11   -1    0    0    0    0 -0.00000000000E+00 -0.00000000000E+00 -0.45593999997E+02  0.45594000000E+02  0.51100000000E-03 0. -1.
    9900012    2    1    2    0    0  0.32212205695E+02 -0.13601726295E+01  0.24772816081E+02  0.50528822907E+02  0.29999887707E+02 0.  0.
         12    1    1    2    0    0 -0.32212205695E+02  0.13601726295E+01 -0.24772816081E+02  0.40659177093E+02  0.00000000000E+00 0. -1.
         11    1    3    3    0    0  0.36953195434E+01 -0.77737529025E+01  0.25255189154E+00  0.86110628518E+01  0.51100000000E-03 0. -1.
        -11    1    3    3    0    0  0.15698226500E+02  0.11632975774E+02  0.18201409133E+02  0.26703028579E+02  0.51100000000E-03 0.  1.
        -12    1    3    3    0    0  0.12818659651E+02 -0.52193955010E+01  0.63188550569E+01  0.15214731476E+02  0.00000000000E+00 0.  1.
</event>
<event>
 7    1  0.2966651E-011  0.5052886E+02  0.7816164E-02  0.1300439E+00
        -11   -1    0    0    0    0  0.00000000000E+00  0.00000000000E+00  0.45593999997E+02  0.45594000000E+02  0.51100000000E-03 0. -1.
         11   -1    0    0    0    0 -0.00000000000E+00 -0.00000000000E+00 -0.45593999997E+02  0.45594000000E+02  0.51100000000E-03 0.  1.
    9900012    2    1    2    0    0  0.24369896993E+02 -0.62068130039E+01 -0.31949164149E+02  0.50528862073E+02  0.30000006758E+02 0.  0.
         12    1    1    2    0    0 -0.24369896993E+02  0.62068130039E+01  0.31949164149E+02  0.40659137927E+02  0.00000000000E+00 0. -1.
         11    1    3    3    0    0  0.73235032964E+01 -0.43235142292E+01 -0.28340619596E+02  0.29589139818E+02  0.51100000000E-03 0. -1.
        -11    1    3    3    0    0  0.13571368325E+02 -0.60762945824E+01 -0.42275368723E+01  0.15458831209E+02  0.51100000000E-03 0.  1.
         12    1    3    3    0    0  0.34750253713E+01  0.41929958077E+01  0.61899231923E+00  0.54808910467E+01  0.00000000000E+00 0. -1.
</event>
<event>
 7    1  0.2966651E-011  0.5052886E+02  0.7816164E-02  0.1300439E+00
        -11   -1    0    0    0    0  0.00000000000E+00  0.00000000000E+00  0.45593999997E+02  0.45594000000E+02  0.51100000000E-03 0.  1.
         11   -1    0    0    0    0 -0.00000000000E+00 -0.00000000000E+00 -0.45593999997E+02  0.45594000000E+02  0.51100000000E-03 0. -1.
    9900012    2    1    2    0    0  0.27722102453E+01 -0.34452068166E+02  0.21413440885E+02  0.50528860793E+02  0.30000002865E+02 0.  0.
         12    1    1    2    0    0 -0.27722102453E+01  0.34452068166E+02 -0.21413440885E+02  0.40659139207E+02  0.00000000000E+00 0. -1.
         11    1    3    3    0    0  0.70198453676E+01 -0.36432581134E+01 -0.40137706017E+01  0.88691551667E+01  0.51100000000E-03 0. -1.
        -11    1    3    3    0    0  0.23693411409E+01 -0.19610097516E+02  0.17745967957E+02  0.26553513535E+02  0.51100000000E-03 0.  1.
         12    1    3    3    0    0 -0.66169762632E+01 -0.11198712537E+02  0.76812435289E+01  0.15106192091E+02  0.00000000000E+00 0. -1.
</event>
<event>
 7    1  0.2966651E-011  0.5052886E+02  0.7816164E-02  0.1300439E+00
        -11   -1    0    0    0    0  0.00000000000E+00  0.00000000000E+00  0.45593999997E+02  0.45594000000E+02  0.51100000000E-03 0.  1.
         11   -1    0    0    0    0 -0.00000000000E+00 -0.00000000000E+00 -0.45593999997E+02  0.45594000000E+02  0.51100000000E-03 0. -1.
    9900012    2    1    2    0    0  0.44018017757E+01 -0.89571097562E+01  0.39415220865E+02  0.50528864373E+02  0.30000013749E+02 0.  0.
         12    1    1    2    0    0 -0.44018017757E+01  0.89571097562E+01 -0.39415220865E+02  0.40659135627E+02  0.00000000000E+00 0. -1.
         11    1    3    3    0    0  0.56671669016E+01  0.39914627013E+01  0.78180995390E+01  0.10448504001E+02  0.51100000000E-03 0. -1.
        -11    1    3    3    0    0 -0.76322450734E+01 -0.97507547850E+01  0.64868070970E+01  0.13978807185E+02  0.51100000000E-03 0.  1.
        -12    1    3    3    0    0  0.63668799476E+01 -0.31978176726E+01  0.25110314229E+02  0.26101553188E+02  0.00000000000E+00 0.  1.
</event>
<event>
 7    1  0.2966651E-011  0.5052887E+02  0.7816164E-02  0.1300439E+00
        -11   -1    0    0    0    0  0.00000000000E+00  0.00000000000E+00  0.45593999997E+02  0.45594000000E+02  0.51100000000E-03 0.  1.
         11   -1    0    0    0    0 -0.00000000000E+00 -0.00000000000E+00 -0.45593999997E+02  0.45594000000E+02  0.51100000000E-03 0. -1.
    9900012    2    1    2    0    0 -0.28060655167E+01 -0.92932313086E+01  0.39483250716E+02  0.50528865246E+02  0.30000016402E+02 0.  0.
         12    1    1    2    0    0  0.28060655167E+01  0.92932313086E+01 -0.39483250716E+02  0.40659134754E+02  0.00000000000E+00 0. -1.
         11    1    3    3    0    0  0.33810956806E+01 -0.97001319526E+01  0.24670405638E+02  0.26723646505E+02  0.51100000000E-03 0.  1.
        -11    1    3    3    0    0 -0.10059628324E+02  0.32780025791E+01  0.29249903480E+01  0.10977112176E+02  0.51100000000E-03 0. -1.
         12    1    3    3    0    0  0.38724671272E+01 -0.28711019351E+01  0.11887854730E+02  0.12828106565E+02  0.00000000000E+00 0. -1.
</event>
<event>
 7    1  0.2966651E-011  0.5052887E+02  0.7816164E-02  0.1300439E+00
        -11   -1    0    0    0    0  0.00000000000E+00  0.00000000000E+00  0.45593999997E+02  0.45594000000E+02  0.51100000000E-03 0. -1.
         11   -1    0    0    0    0 -0.00000000000E+00 -0.00000000000E+00 -0.45593999997E+02  0.45594000000E+02  0.51100000000E-03 0.  1.
    9900012    2    1    2    0    0  0.30000540860E+02 -0.22717602489E+02 -0.15396202911E+02  0.50528868445E+02  0.30000026124E+02 0.  0.
         12    1    1    2    0    0 -0.30000540860E+02  0.22717602489E+02  0.15396202911E+02  0.40659131555E+02  0.00000000000E+00 0. -1.
         11    1    3    3    0    0  0.10150374417E+02 -0.27803546105E+01 -0.11053497592E+02  0.15262381264E+02  0.51100000000E-03 0.  1.
        -11    1    3    3    0    0  0.85717002589E+01 -0.19123782191E+02  0.38436237397E+01  0.21306490428E+02  0.51100000000E-03 0. -1.
         12    1    3    3    0    0  0.11278466184E+02 -0.81346568767E+00 -0.81863290585E+01  0.13959996753E+02  0.00000000000E+00 0. -1.
</event>
<event>
 7    1  0.2966651E-011  0.5052886E+02  0.7816164E-02  0.1300439E+00
        -11   -1    0    0    0    0  0.00000000000E+00  0.00000000000E+00  0.45593999997E+02  0.45594000000E+02  0.51100000000E-03 0.  1.
         11   -1    0    0    0    0 -0.00000000000E+00 -0.00000000000E+00 -0.45593999997E+02  0.45594000000E+02  0.51100000000E-03 0. -1.
    9900012    2    1    2    0    0  0.21877698075E+02 -0.15432685549E+02  0.30600063570E+02  0.50528863920E+02  0.30000012372E+02 0.  0.
         12    1    1    2    0    0 -0.21877698075E+02  0.15432685549E+02 -0.30600063570E+02  0.40659136080E+02  0.00000000000E+00 0. -1.
         11    1    3    3    0    0 -0.39673284856E+01  0.46633458694E+01  0.19175953959E+01  0.64158913935E+01  0.51100000000E-03 0. -1.
        -11    1    3    3    0    0  0.13387616299E+02 -0.14730004363E+02  0.15910870634E+02  0.25482486207E+02  0.51100000000E-03 0.  1.
        -12    1    3    3    0    0  0.12457410262E+02 -0.53660270548E+01  0.12771597540E+02  0.18630486320E+02  0.00000000000E+00 0.  1.
</event>
<event>
 7    1  0.2966651E-011  0.5052886E+02  0.7816164E-02  0.1300439E+00
        -11   -1    0    0    0    0  0.00000000000E+00  0.00000000000E+00  0.45593999997E+02  0.45594000000E+02  0.51100000000E-03 0.  1.
         11   -1    0    0    0    0 -0.00000000000E+00 -0.00000000000E+00 -0.45593999997E+02  0.45594000000E+02  0.51100000000E-03 0. -1.
    9900012    2    1    2    0    0  0.10334494979E+02 -0.37680670488E+02  0.11248598812E+02  0.50528859697E+02  0.29999999536E+02 0.  0.
         12    1    1    2    0    0 -0.10334494979E+02  0.37680670488E+02 -0.11248598812E+02  0.40659140303E+02  0.00000000000E+00 0. -1.
         11    1    3    3    0    0  0.10902336666E+02 -0.30772226826E+02 -0.19991993778E+01  0.32707609008E+02  0.51100000000E-03 0. -1.
        -11    1    3    3    0    0  0.36518095423E+01 -0.54494765223E+01  0.11036532902E+02  0.12838908289E+02  0.51100000000E-03 0.  1.
         12    1    3    3    0    0 -0.42196512297E+01 -0.14589671397E+01  0.22112652880E+01  0.49823423998E+01  0.00000000000E+00 0. -1.
</event>
<event>
 7    1  0.2966651E-011  0.5052886E+02  0.7816164E-02  0.1300439E+00
        -11   -1    0    0    0    0  0.00000000000E+00  0.00000000000E+00  0.45593999997E+02  0.45594000000E+02  0.51100000000E-03 0. -1.
         11   -1    0    0    0    0 -0.00000000000E+00 -0.00000000000E+00 -0.45593999997E+02  0.45594000000E+02  0.51100000000E-03 0.  1.
    9900012    2    1    2    0    0  0.14695034457E+02  0.23889321417E+02 -0.29436749344E+02  0.50528856780E+02  0.29999990667E+02 0.  0.
         12    1    1    2    0    0 -0.14695034457E+02 -0.23889321417E+02  0.29436749344E+02  0.40659143220E+02  0.00000000000E+00 0. -1.
         11    1    3    3    0    0 -0.61060692828E+01  0.11057375507E+02 -0.18404135896E+02  0.22321779802E+02  0.51100000000E-03 0. -1.
        -11    1    3    3    0    0  0.13446933262E+02  0.33021038938E+01 -0.48235853793E+01  0.14662567321E+02  0.51100000000E-03 0.  1.
         12    1    3    3    0    0  0.73541704778E+01  0.95298420165E+01 -0.62090280689E+01  0.13544509657E+02  0.00000000000E+00 0. -1.
</event>
<event>
 7    1  0.2966651E-011  0.5052886E+02  0.7816164E-02  0.1300439E+00
        -11   -1    0    0    0    0  0.00000000000E+00  0.00000000000E+00  0.45593999997E+02  0.45594000000E+02  0.51100000000E-03 0.  1.
         11   -1    0    0    0    0 -0.00000000000E+00 -0.00000000000E+00 -0.45593999997E+02  0.45594000000E+02  0.51100000000E-03 0. -1.
    9900012    2    1    2    0    0 -0.39915280218E+02  0.74713965047E+01  0.20283090004E+01  0.50528863290E+02  0.30000010456E+02 0.  0.
         12    1    1    2    0    0  0.39915280218E+02 -0.74713965047E+01 -0.20283090004E+01  0.40659136710E+02  0.00000000000E+00 0. -1.
         11    1    3    3    0    0 -0.52909237106E+01  0.11505047624E+02  0.68040886345E+01  0.14375521449E+02  0.51100000000E-03 0. -1.
        -11    1    3    3    0    0 -0.31992023990E+02 -0.57718910033E+01 -0.53535722204E+01  0.32946396775E+02  0.51100000000E-03 0.  1.
         12    1    3    3    0    0 -0.26323325177E+01  0.17382398842E+01  0.57779258627E+00  0.32069450653E+01  0.00000000000E+00 0. -1.
</event>
<event>
 7    1  0.2966651E-011  0.5052885E+02  0.7816164E-02  0.1300439E+00
        -11   -1    0    0    0    0  0.00000000000E+00  0.00000000000E+00  0.45593999997E+02  0.45594000000E+02  0.51100000000E-03 0.  1.
         11   -1    0    0    0    0 -0.00000000000E+00 -0.00000000000E+00 -0.45593999997E+02  0.45594000000E+02  0.51100000000E-03 0. -1.
    9900012    2    1    2    0    0  0.10618911606E+02  0.12011111152E+01  0.39229610367E+02  0.50528852429E+02  0.29999977444E+02 0.  0.
         12    1    1    2    0    0 -0.10618911606E+02 -0.12011111152E+01 -0.39229610367E+02  0.40659147571E+02  0.00000000000E+00 0. -1.
         11    1    3    3    0    0  0.10846560022E+02  0.25655928825E+01  0.12111471511E+02  0.16459583031E+02  0.51100000000E-03 0. -1.
        -11    1    3    3    0    0 -0.17622274149E+01 -0.10681433207E+02  0.11312844343E+02  0.15658189813E+02  0.51100000000E-03 0.  1.
        -12    1    3    3    0    0  0.15345789997E+01  0.93169514398E+01  0.15805294514E+02  0.18411079585E+02  0.00000000000E+00 0.  1.
</event>
<event>
 7    1  0.2966651E-011  0.5052886E+02  0.7816164E-02  0.1300439E+00
        -11   -1    0    0    0    0  0.00000000000E+00  0.00000000000E+00  0.45593999997E+02  0.45594000000E+02  0.51100000000E-03 0. -1.
         11   -1    0    0    0    0 -0.00000000000E+00 -0.00000000000E+00 -0.45593999997E+02  0.45594000000E+02  0.51100000000E-03 0.  1.
    9900012    2    1    2    0    0 -0.23929039405E+02  0.32580466349E+02  0.43680238297E+01  0.50528863923E+02  0.30000012380E+02 0.  0.
         12    1    1    2    0    0  0.23929039405E+02 -0.32580466349E+02 -0.43680238297E+01  0.40659136077E+02  0.00000000000E+00 0. -1.
         11    1    3    3    0    0 -0.13711132755E+02  0.98677184001E+01  0.14820954922E+02  0.22472822095E+02  0.51100000000E-03 0. -1.
        -11    1    3    3    0    0 -0.10763097868E+02  0.16735454252E+02 -0.92133165313E+01  0.21927263999E+02  0.51100000000E-03 0.  1.
         12    1    3    3    0    0  0.54519121828E+00  0.59772936969E+01 -0.12396145613E+01  0.61287778279E+01  0.00000000000E+00 0. -1.
</event>
<event>
 7    1  0.2966651E-011  0.5052886E+02  0.7816164E-02  0.1300439E+00
        -11   -1    0    0    0    0  0.00000000000E+00  0.00000000000E+00  0.45593999997E+02  0.45594000000E+02  0.51100000000E-03 0.  1.
         11   -1    0    0    0    0 -0.00000000000E+00 -0.00000000000E+00 -0.45593999997E+02  0.45594000000E+02  0.51100000000E-03 0. -1.
    9900012    2    1    2    0    0 -0.37172490701E+02 -0.10508843243E+02  0.12686061392E+02  0.50528855827E+02  0.29999987772E+02 0.  0.
         12    1    1    2    0    0  0.37172490701E+02  0.10508843243E+02 -0.12686061392E+02  0.40659144173E+02  0.00000000000E+00 0. -1.
         11    1    3    3    0    0 -0.32586688987E+01 -0.39422285014E+01 -0.22090804804E+01  0.55713665629E+01  0.51100000000E-03 0. -1.
        -11    1    3    3    0    0 -0.84774462478E+01  0.29330025269E+00  0.16511339933E+02  0.18562797918E+02  0.51100000000E-03 0.  1.
        -12    1    3    3    0    0 -0.25436375554E+02 -0.68599149948E+01 -0.16161980601E+01  0.26394691346E+02  0.00000000000E+00 0.  1.
</event>
<event>
 7    1  0.2966651E-011  0.5052885E+02  0.7816164E-02  0.1300439E+00
        -11   -1    0    0    0    0  0.00000000000E+00  0.00000000000E+00  0.45593999997E+02  0.45594000000E+02  0.51100000000E-03 0.  1.
         11   -1    0    0    0    0 -0.00000000000E+00 -0.00000000000E+00 -0.45593999997E+02  0.45594000000E+02  0.51100000000E-03 0. -1.
    9900012    2    1    2    0    0 -0.14275863751E+01 -0.22371575866E+02  0.33921105019E+02  0.50528846353E+02  0.29999958975E+02 0.  0.
         12    1    1    2    0    0  0.14275863751E+01  0.22371575866E+02 -0.33921105019E+02  0.40659153647E+02  0.00000000000E+00 0. -1.
         11    1    3    3    0    0  0.63680167821E+01 -0.23649972327E+02  0.19171917989E+02  0.31103621468E+02  0.51100000000E-03 0. -1.
        -11    1    3    3    0    0 -0.59404077384E+01 -0.36336785607E+01  0.10819728145E+02  0.12866956959E+02  0.51100000000E-03 0.  1.
         12    1    3    3    0    0 -0.18551954188E+01  0.49120750218E+01  0.39294588853E+01  0.65582679263E+01  0.00000000000E+00 0. -1.
</event>
<event>
 7    1  0.2966651E-011  0.5052886E+02  0.7816164E-02  0.1300439E+00
        -11   -1    0    0    0    0  0.00000000000E+00  0.00000000000E+00  0.45593999997E+02  0.45594000000E+02  0.51100000000E-03 0.  1.
         11   -1    0    0    0    0 -0.00000000000E+00 -0.00000000000E+00 -0.45593999997E+02  0.45594000000E+02  0.51100000000E-03 0. -1.
    9900012    2    1    2    0    0 -0.35625232265E+02 -0.30955233267E+01  0.19350088207E+02  0.50528863853E+02  0.30000012169E+02 0.  0.
         12    1    1    2    0    0  0.35625232265E+02  0.30955233267E+01 -0.19350088207E+02  0.40659136147E+02  0.00000000000E+00 0. -1.
         11    1    3    3    0    0 -0.10130562787E+02 -0.63544423888E+01 -0.41172281556E+01  0.12647482295E+02  0.51100000000E-03 0. -1.
        -11    1    3    3    0    0 -0.23193555723E+02  0.60195850046E+01  0.13993484747E+02  0.27748766574E+02  0.51100000000E-03 0.  1.
        -12    1    3    3    0    0 -0.23011137545E+01 -0.27606659425E+01  0.94738316156E+01  0.10132614985E+02  0.00000000000E+00 0.  1.
</event>
<event>
 7    1  0.2966651E-011  0.5052886E+02  0.7816164E-02  0.1300439E+00
        -11   -1    0    0    0    0  0.00000000000E+00  0.00000000000E+00  0.45593999997E+02  0.45594000000E+02  0.51100000000E-03 0.  1.
         11   -1    0    0    0    0 -0.00000000000E+00 -0.00000000000E+00 -0.45593999997E+02  0.45594000000E+02  0.51100000000E-03 0. -1.
    9900012    2    1    2    0    0 -0.35033609963E+02  0.10455491962E+02  0.17790291119E+02  0.50528860839E+02  0.30000003005E+02 0.  0.
         12    1    1    2    0    0  0.35033609963E+02 -0.10455491962E+02 -0.17790291119E+02  0.40659139161E+02  0.00000000000E+00 0. -1.
         11    1    3    3    0    0  0.44046584125E+01 -0.44924025764E+00  0.25525294408E+01  0.51106006836E+01  0.51100000000E-03 0. -1.
        -11    1    3    3    0    0 -0.30457804509E+02  0.31059074175E+01  0.13246602363E+02  0.33358611944E+02  0.51100000000E-03 0.  1.
        -12    1    3    3    0    0 -0.89804638668E+01  0.77988248018E+01  0.19911593156E+01  0.12059648211E+02  0.00000000000E+00 0.  1.
</event>
<event>
 7    1  0.2966651E-011  0.5052884E+02  0.7816164E-02  0.1300439E+00
        -11   -1    0    0    0    0  0.00000000000E+00  0.00000000000E+00  0.45593999997E+02  0.45594000000E+02  0.51100000000E-03 0. -1.
         11   -1    0    0    0    0 -0.00000000000E+00 -0.00000000000E+00 -0.45593999997E+02  0.45594000000E+02  0.51100000000E-03 0.  1.
    9900012    2    1    2    0    0  0.10700365651E+02 -0.34817820213E+02 -0.18066235964E+02  0.50528839760E+02  0.29999938935E+02 0.  0.
         12    1    1    2    0    0 -0.10700365651E+02  0.34817820213E+02  0.18066235964E+02  0.40659160240E+02  0.00000000000E+00 0. -1.
         11    1    3    3    0    0  0.62138168188E+01 -0.20298784959E+02  0.19277187070E+01  0.21315916352E+02  0.51100000000E-03 0. -1.
        -11    1    3    3    0    0  0.68551365178E+01 -0.22459092300E+01 -0.13057637900E+02  0.14917738191E+02  0.51100000000E-03 0.  1.
        -12    1    3    3    0    0 -0.23685876852E+01 -0.12273126024E+02 -0.69363167715E+01  0.14295185217E+02  0.00000000000E+00 0.  1.
</event>
<event>
 7    1  0.2966651E-011  0.5052885E+02  0.7816164E-02  0.1300439E+00
        -11   -1    0    0    0    0  0.00000000000E+00  0.00000000000E+00  0.45593999997E+02  0.45594000000E+02  0.51100000000E-03 0.  1.
         11   -1    0    0    0    0 -0.00000000000E+00 -0.00000000000E+00 -0.45593999997E+02  0.45594000000E+02  0.51100000000E-03 0. -1.
    9900012    2    1    2    0    0  0.40612233398E+02 -0.12010149496E+01  0.15396564823E+01  0.50528849977E+02  0.29999969990E+02 0.  0.
         12    1    1    2    0    0 -0.40612233398E+02  0.12010149496E+01 -0.15396564823E+01  0.40659150023E+02  0.00000000000E+00 0. -1.
         11    1    3    3    0    0  0.55556135693E+01  0.47758830070E+01 -0.48339764614E+00  0.73421777542E+01  0.51100000000E-03 0. -1.
        -11    1    3    3    0    0  0.28848924060E+02 -0.67480597267E+01  0.11541874061E+02  0.31796408392E+02  0.51100000000E-03 0.  1.
        -12    1    3    3    0    0  0.62076957684E+01  0.77116177005E+00 -0.95188199327E+01  0.11390263831E+02  0.00000000000E+00 0.  1.
</event>
<event>
 7    1  0.2966651E-011  0.5052885E+02  0.7816164E-02  0.1300439E+00
        -11   -1    0    0    0    0  0.00000000000E+00  0.00000000000E+00  0.45593999997E+02  0.45594000000E+02  0.51100000000E-03 0.  1.
         11   -1    0    0    0    0 -0.00000000000E+00 -0.00000000000E+00 -0.45593999997E+02  0.45594000000E+02  0.51100000000E-03 0. -1.
    9900012    2    1    2    0    0  0.22610463694E+02  0.84428424749E+01  0.32720810246E+02  0.50528854895E+02  0.29999984938E+02 0.  0.
         12    1    1    2    0    0 -0.22610463694E+02 -0.84428424749E+01 -0.32720810246E+02  0.40659145105E+02  0.00000000000E+00 0. -1.
         11    1    3    3    0    0  0.71151037626E+01  0.33501712512E+01 -0.32239602724E+01  0.84995452268E+01  0.51100000000E-03 0. -1.
        -11    1    3    3    0    0  0.12216232712E+02 -0.32598662383E+01  0.18435573804E+02  0.22354718770E+02  0.51100000000E-03 0.  1.
        -12    1    3    3    0    0  0.32791272193E+01  0.83525374620E+01  0.17509196715E+02  0.19674590897E+02  0.00000000000E+00 0.  1.
</event>
<event>
 7    1  0.2966651E-011  0.5052888E+02  0.7816164E-02  0.1300439E+00
        -11   -1    0    0    0    0  0.00000000000E+00  0.00000000000E+00  0.45593999997E+02  0.45594000000E+02  0.51100000000E-03 0.  1.
         11   -1    0    0    0    0 -0.00000000000E+00 -0.00000000000E+00 -0.45593999997E+02  0.45594000000E+02  0.51100000000E-03 0. -1.
    9900012    2    1    2    0    0  0.10718281724E+02  0.25109534977E+02  0.30129620655E+02  0.50528876169E+02  0.30000049604E+02 0.  0.
         12    1    1    2    0    0 -0.10718281724E+02 -0.25109534977E+02 -0.30129620655E+02  0.40659123831E+02  0.00000000000E+00 0. -1.
         11    1    3    3    0    0  0.13132450573E+02  0.93798052039E+01  0.34926302433E+01  0.16511828185E+02  0.51100000000E-03 0. -1.
        -11    1    3    3    0    0 -0.67208408833E+01  0.25395659977E+01  0.10670839522E+02  0.12864132851E+02  0.51100000000E-03 0.  1.
        -12    1    3    3    0    0  0.43066720338E+01  0.13190163775E+02  0.15966150889E+02  0.21152915133E+02  0.00000000000E+00 0.  1.
</event>
<event>
 7    1  0.2966651E-011  0.5052881E+02  0.7816164E-02  0.1300439E+00
        -11   -1    0    0    0    0  0.00000000000E+00  0.00000000000E+00  0.45593999997E+02  0.45594000000E+02  0.51100000000E-03 0.  1.
         11   -1    0    0    0    0 -0.00000000000E+00 -0.00000000000E+00 -0.45593999997E+02  0.45594000000E+02  0.51100000000E-03 0. -1.
    9900012    2    1    2    0    0 -0.20922927198E+02  0.29111914160E+02  0.19180642249E+02  0.50528813268E+02  0.29999858408E+02 0.  0.
         12    1    1    2    0    0  0.20922927198E+02 -0.29111914160E+02 -0.19180642249E+02  0.40659186732E+02  0.00000000000E+00 0. -1.
         11    1    3    3    0    0 -0.69447759711E+01  0.26367761592E+02  0.15087133230E+02  0.31162643566E+02  0.51100000000E-03 0. -1.
        -11    1    3    3    0    0 -0.15331776959E+02  0.43156448111E+01  0.55108951021E+01  0.16854024443E+02  0.51100000000E-03 0.  1.
         12    1    3    3    0    0  0.13536257314E+01 -0.15714922430E+01 -0.14173860830E+01  0.25121452583E+01  0.00000000000E+00 0. -1.
</event>
<event>
 7    1  0.2966651E-011  0.5052889E+02  0.7816164E-02  0.1300439E+00
        -11   -1    0    0    0    0  0.00000000000E+00  0.00000000000E+00  0.45593999997E+02  0.45594000000E+02  0.51100000000E-03 0.  1.
         11   -1    0    0    0    0 -0.00000000000E+00 -0.00000000000E+00 -0.45593999997E+02  0.45594000000E+02  0.51100000000E-03 0. -1.
    9900012    2    1    2    0    0  0.37024885425E+02  0.84382174195E+01  0.14529898377E+02  0.50528885391E+02  0.30000077635E+02 0.  0.
         12    1    1    2    0    0 -0.37024885425E+02 -0.84382174195E+01 -0.14529898377E+02  0.40659114609E+02  0.00000000000E+00 0. -1.
         11    1    3    3    0    0  0.24114562422E+02  0.85432790925E+01 -0.38457415971E+01  0.25870629431E+02  0.51100000000E-03 0. -1.
        -11    1    3    3    0    0  0.34661201881E+01 -0.36981736044E+01  0.11113314849E+02  0.12214591453E+02  0.51100000000E-03 0.  1.
         12    1    3    3    0    0  0.94442028143E+01  0.35931119314E+01  0.72623251255E+01  0.12443664508E+02  0.00000000000E+00 0. -1.
</event>
<event>
 7    1  0.2966651E-011  0.5052887E+02  0.7816164E-02  0.1300439E+00
        -11   -1    0    0    0    0  0.00000000000E+00  0.00000000000E+00  0.45593999997E+02  0.45594000000E+02  0.51100000000E-03 0.  1.
         11   -1    0    0    0    0 -0.00000000000E+00 -0.00000000000E+00 -0.45593999997E+02  0.45594000000E+02  0.51100000000E-03 0. -1.
    9900012    2    1    2    0    0 -0.24266929819E+02 -0.31807737264E+02  0.72490771881E+01  0.50528866306E+02  0.30000019624E+02 0.  0.
         12    1    1    2    0    0  0.24266929819E+02  0.31807737264E+02 -0.72490771881E+01  0.40659133694E+02  0.00000000000E+00 0. -1.
         11    1    3    3    0    0 -0.17561257465E+02 -0.13006674722E+02 -0.99775990160E+01  0.24023401788E+02  0.51100000000E-03 0. -1.
        -11    1    3    3    0    0 -0.49937437599E+01 -0.10137135036E+02  0.10125630643E+02  0.15173245521E+02  0.51100000000E-03 0.  1.
         12    1    3    3    0    0 -0.17119285938E+01 -0.86639275059E+01  0.71010455614E+01  0.11332218997E+02  0.00000000000E+00 0. -1.
</event>
<event>
 7    1  0.2966651E-011  0.5052889E+02  0.7816164E-02  0.1300439E+00
        -11   -1    0    0    0    0  0.00000000000E+00  0.00000000000E+00  0.45593999997E+02  0.45594000000E+02  0.51100000000E-03 0. -1.
         11   -1    0    0    0    0 -0.00000000000E+00 -0.00000000000E+00 -0.45593999997E+02  0.45594000000E+02  0.51100000000E-03 0.  1.
    9900012    2    1    2    0    0 -0.94612573385E+01  0.62274973867E+01 -0.39049537595E+02  0.50528886624E+02  0.30000081383E+02 0.  0.
         12    1    1    2    0    0  0.94612573385E+01 -0.62274973867E+01  0.39049537595E+02  0.40659113376E+02  0.00000000000E+00 0. -1.
         11    1    3    3    0    0 -0.87415813350E+01  0.80947503953E+01 -0.17597625860E+01  0.12043130524E+02  0.51100000000E-03 0. -1.
        -11    1    3    3    0    0 -0.32041937237E+01 -0.32962896585E+01 -0.95554811738E+01  0.10603754225E+02  0.51100000000E-03 0.  1.
         12    1    3    3    0    0  0.24845177202E+01  0.14290366499E+01 -0.27734293835E+02  0.27882001876E+02  0.00000000000E+00 0. -1.
</event>
<event>
 7    1  0.2966651E-011  0.5052886E+02  0.7816164E-02  0.1300439E+00
        -11   -1    0    0    0    0  0.00000000000E+00  0.00000000000E+00  0.45593999997E+02  0.45594000000E+02  0.51100000000E-03 0. -1.
         11   -1    0    0    0    0 -0.00000000000E+00 -0.00000000000E+00 -0.45593999997E+02  0.45594000000E+02  0.51100000000E-03 0.  1.
    9900012    2    1    2    0    0 -0.92043049474E+01  0.34985346122E+02 -0.18559963530E+02  0.50528856882E+02  0.29999990980E+02 0.  0.
         12    1    1    2    0    0  0.92043049474E+01 -0.34985346122E+02  0.18559963530E+02  0.40659143118E+02  0.00000000000E+00 0. -1.
         11    1    3    3    0    0 -0.54016919931E+01  0.15958039455E+02  0.11697904961E+01  0.16888034513E+02  0.51100000000E-03 0. -1.
        -11    1    3    3    0    0 -0.68031145498E+01  0.40804165747E+01 -0.16131906218E+02  0.17976945388E+02  0.51100000000E-03 0.  1.
         12    1    3    3    0    0  0.30005015954E+01  0.14946890092E+02 -0.35978478084E+01  0.15663876981E+02  0.00000000000E+00 0. -1.
</event>
<event>
 7    1  0.2966651E-011  0.5052887E+02  0.7816164E-02  0.1300439E+00
        -11   -1    0    0    0    0  0.00000000000E+00  0.00000000000E+00  0.45593999997E+02  0.45594000000E+02  0.51100000000E-03 0.  1.
         11   -1    0    0    0    0 -0.00000000000E+00 -0.00000000000E+00 -0.45593999997E+02  0.45594000000E+02  0.51100000000E-03 0. -1.
    9900012    2    1    2    0    0  0.11165486888E+02 -0.51701298662E+01  0.38752633554E+02  0.50528868828E+02  0.30000027289E+02 0.  0.
         12    1    1    2    0    0 -0.11165486888E+02  0.51701298662E+01 -0.38752633554E+02  0.40659131172E+02  0.00000000000E+00 0. -1.
         11    1    3    3    0    0  0.12908598490E+02 -0.13681345201E+02  0.24546241374E+02  0.30924570932E+02  0.51100000000E-03 0. -1.
        -11    1    3    3    0    0  0.36291121380E+01  0.55644722285E+01  0.10554590254E+02  0.12471294311E+02  0.51100000000E-03 0.  1.
         12    1    3    3    0    0 -0.53722237395E+01  0.29467431059E+01  0.36518019262E+01  0.71330035853E+01  0.00000000000E+00 0. -1.
</event>
<event>
 7    1  0.2966651E-011  0.5052886E+02  0.7816164E-02  0.1300439E+00
        -11   -1    0    0    0    0  0.00000000000E+00  0.00000000000E+00  0.45593999997E+02  0.45594000000E+02  0.51100000000E-03 0.  1.
         11   -1    0    0    0    0 -0.00000000000E+00 -0.00000000000E+00 -0.45593999997E+02  0.45594000000E+02  0.51100000000E-03 0. -1.
    9900012    2    1    2    0    0 -0.74876044051E+01 -0.36351056604E+02  0.16604292665E+02  0.50528855015E+02  0.29999985305E+02 0.  0.
         12    1    1    2    0    0  0.74876044051E+01  0.36351056604E+02 -0.16604292665E+02  0.40659144985E+02  0.00000000000E+00 0. -1.
         11    1    3    3    0    0 -0.51253870240E+01  0.29153905483E+00 -0.14626116877E+01  0.53379603198E+01  0.51100000000E-03 0. -1.
        -11    1    3    3    0    0  0.43461760566E+01 -0.97071585737E+01  0.13294581499E+02  0.17025394897E+02  0.51100000000E-03 0.  1.
         12    1    3    3    0    0 -0.67083934378E+01 -0.26935437085E+02  0.47723228533E+01  0.28165499799E+02  0.00000000000E+00 0. -1.
</event>
<event>
 7    1  0.2966651E-011  0.5052886E+02  0.7816164E-02  0.1300439E+00
        -11   -1    0    0    0    0  0.00000000000E+00  0.00000000000E+00  0.45593999997E+02  0.45594000000E+02  0.51100000000E-03 0.  1.
         11   -1    0    0    0    0 -0.00000000000E+00 -0.00000000000E+00 -0.45593999997E+02  0.45594000000E+02  0.51100000000E-03 0. -1.
    9900012    2    1    2    0    0 -0.11811820684E+02  0.14587511984E+02  0.36067316709E+02  0.50528856522E+02  0.29999989884E+02 0.  0.
         12    1    1    2    0    0  0.11811820684E+02 -0.14587511984E+02 -0.36067316709E+02  0.40659143478E+02  0.00000000000E+00 0. -1.
         11    1    3    3    0    0  0.50431331094E+01 -0.45307336867E+01  0.77712454195E+01  0.10312758842E+02  0.51100000000E-03 0. -1.
        -11    1    3    3    0    0 -0.13935122946E+02  0.10226635469E+02  0.10821044455E+02  0.20392810691E+02  0.51100000000E-03 0.  1.
        -12    1    3    3    0    0 -0.29198308476E+01  0.88916102019E+01  0.17475026835E+02  0.19823286989E+02  0.00000000000E+00 0.  1.
</event>
<event>
 7    1  0.2966651E-011  0.5052886E+02  0.7816164E-02  0.1300439E+00
        -11   -1    0    0    0    0  0.00000000000E+00  0.00000000000E+00  0.45593999997E+02  0.45594000000E+02  0.51100000000E-03 0.  1.
         11   -1    0    0    0    0 -0.00000000000E+00 -0.00000000000E+00 -0.45593999997E+02  0.45594000000E+02  0.51100000000E-03 0. -1.
    9900012    2    1    2    0    0  0.66994050413E+01 -0.32138997646E+02  0.23986844086E+02  0.50528857279E+02  0.29999992185E+02 0.  0.
         12    1    1    2    0    0 -0.66994050413E+01  0.32138997646E+02 -0.23986844086E+02  0.40659142721E+02  0.00000000000E+00 0. -1.
         11    1    3    3    0    0  0.33121571590E+01 -0.97443812838E-01 -0.23744354693E+01  0.40764965843E+01  0.51100000000E-03 0. -1.
        -11    1    3    3    0    0 -0.26892958464E+01 -0.31810918451E+02  0.20104553360E+02  0.37727442411E+02  0.51100000000E-03 0.  1.
         12    1    3    3    0    0  0.60765437286E+01 -0.23063538254E+00  0.62567261961E+01  0.87249182837E+01  0.00000000000E+00 0. -1.
</event>
<event>
 7    1  0.2966651E-011  0.5052887E+02  0.7816164E-02  0.1300439E+00
        -11   -1    0    0    0    0  0.00000000000E+00  0.00000000000E+00  0.45593999997E+02  0.45594000000E+02  0.51100000000E-03 0. -1.
         11   -1    0    0    0    0 -0.00000000000E+00 -0.00000000000E+00 -0.45593999997E+02  0.45594000000E+02  0.51100000000E-03 0.  1.
    9900012    2    1    2    0    0  0.55827314043E+01  0.39235672953E+02 -0.90862672725E+01  0.50528866033E+02  0.30000018795E+02 0.  0.
         12    1    1    2    0    0 -0.55827314043E+01 -0.39235672953E+02  0.90862672725E+01  0.40659133967E+02  0.00000000000E+00 0. -1.
         11    1    3    3    0    0  0.91142030474E+01  0.22654802573E+01 -0.14713076422E+01  0.95060951197E+01  0.51100000000E-03 0. -1.
        -11    1    3    3    0    0 -0.90573046415E+01  0.19556291249E+02 -0.72861678948E+01  0.22750198629E+02  0.51100000000E-03 0.  1.
        -12    1    3    3    0    0  0.55258329985E+01  0.17413901446E+02 -0.32879173546E+00  0.18272572285E+02  0.00000000000E+00 0.  1.
</event>
<event>
 7    1  0.2966651E-011  0.5052885E+02  0.7816164E-02  0.1300439E+00
        -11   -1    0    0    0    0  0.00000000000E+00  0.00000000000E+00  0.45593999997E+02  0.45594000000E+02  0.51100000000E-03 0. -1.
         11   -1    0    0    0    0 -0.00000000000E+00 -0.00000000000E+00 -0.45593999997E+02  0.45594000000E+02  0.51100000000E-03 0.  1.
    9900012    2    1    2    0    0 -0.34843924441E+02  0.14686475829E+02 -0.14945722772E+02  0.50528852543E+02  0.29999977790E+02 0.  0.
         12    1    1    2    0    0  0.34843924441E+02 -0.14686475829E+02  0.14945722772E+02  0.40659147457E+02  0.00000000000E+00 0. -1.
         11    1    3    3    0    0 -0.84701701791E+01 -0.92925891388E+00  0.46092091121E+01  0.96877300692E+01  0.51100000000E-03 0. -1.
        -11    1    3    3    0    0 -0.16658460037E+02  0.19220859764E+02 -0.12831703823E+02  0.28488565498E+02  0.51100000000E-03 0.  1.
        -12    1    3    3    0    0 -0.97152942252E+01 -0.36051250208E+01 -0.67232280606E+01  0.12352556976E+02  0.00000000000E+00 0.  1.
</event>
<event>
 7    1  0.2966651E-011  0.5052886E+02  0.7816164E-02  0.1300439E+00
        -11   -1    0    0    0    0  0.00000000000E+00  0.00000000000E+00  0.45593999997E+02  0.45594000000E+02  0.51100000000E-03 0.  1.
         11   -1    0    0    0    0 -0.00000000000E+00 -0.00000000000E+00 -0.45593999997E+02  0.45594000000E+02  0.51100000000E-03 0. -1.
    9900012    2    1    2    0    0  0.23102451274E+02  0.16890487707E+02  0.28881720956E+02  0.50528860373E+02  0.30000001589E+02 0.  0.
         12    1    1    2    0    0 -0.23102451274E+02 -0.16890487707E+02 -0.28881720956E+02  0.40659139627E+02  0.00000000000E+00 0. -1.
         11    1    3    3    0    0 -0.84396527685E+00  0.48003968722E+01  0.20740083103E+02  0.21305096454E+02  0.51100000000E-03 0. -1.
        -11    1    3    3    0    0  0.16891798955E+02  0.86762947060E+01  0.16757031966E+01  0.19063550121E+02  0.51100000000E-03 0.  1.
        -12    1    3    3    0    0  0.70546175955E+01  0.34137961291E+01  0.64659346566E+01  0.10160213798E+02  0.00000000000E+00 0.  1.
</event>
<event>
 7    1  0.2966651E-011  0.5052885E+02  0.7816164E-02  0.1300439E+00
        -11   -1    0    0    0    0  0.00000000000E+00  0.00000000000E+00  0.45593999997E+02  0.45594000000E+02  0.51100000000E-03 0. -1.
         11   -1    0    0    0    0 -0.00000000000E+00 -0.00000000000E+00 -0.45593999997E+02  0.45594000000E+02  0.51100000000E-03 0.  1.
    9900012    2    1    2    0    0 -0.38626552948E+01  0.39759366796E+02 -0.75788527925E+01  0.50528851415E+02  0.29999974362E+02 0.  0.
         12    1    1    2    0    0  0.38626552948E+01 -0.39759366796E+02  0.75788527925E+01  0.40659148585E+02  0.00000000000E+00 0. -1.
         11    1    3    3    0    0  0.29263362461E+01 -0.39360308315E+00 -0.60636764439E+01  0.67443709484E+01  0.51100000000E-03 0. -1.
        -11    1    3    3    0    0 -0.10496359632E+02  0.19031109558E+02 -0.43142226398E+01  0.22157825114E+02  0.51100000000E-03 0.  1.
        -12    1    3    3    0    0  0.37073680914E+01  0.21121860322E+02  0.27990462912E+01  0.21626655353E+02  0.00000000000E+00 0.  1.
</event>
<event>
 7    1  0.2966651E-011  0.5052886E+02  0.7816164E-02  0.1300439E+00
        -11   -1    0    0    0    0  0.00000000000E+00  0.00000000000E+00  0.45593999997E+02  0.45594000000E+02  0.51100000000E-03 0. -1.
         11   -1    0    0    0    0 -0.00000000000E+00 -0.00000000000E+00 -0.45593999997E+02  0.45594000000E+02  0.51100000000E-03 0.  1.
    9900012    2    1    2    0    0 -0.19971820625E+02  0.32854950770E+02 -0.13222854506E+02  0.50528864612E+02  0.30000014475E+02 0.  0.
         12    1    1    2    0    0  0.19971820625E+02 -0.32854950770E+02  0.13222854506E+02  0.40659135388E+02  0.00000000000E+00 0. -1.
         11    1    3    3    0    0 -0.13255533024E+02  0.11104066550E+02 -0.38798573361E+01  0.17721815452E+02  0.51100000000E-03 0. -1.
        -11    1    3    3    0    0  0.67960435075E+01  0.13154016359E+02 -0.12376926409E+01  0.14857531325E+02  0.51100000000E-03 0.  1.
        -12    1    3    3    0    0 -0.13512331109E+02  0.85968678608E+01 -0.81053045294E+01  0.17949517836E+02  0.00000000000E+00 0.  1.
</event>
<event>
 7    1  0.2966651E-011  0.5052886E+02  0.7816164E-02  0.1300439E+00
        -11   -1    0    0    0    0  0.00000000000E+00  0.00000000000E+00  0.45593999997E+02  0.45594000000E+02  0.51100000000E-03 0. -1.
         11   -1    0    0    0    0 -0.00000000000E+00 -0.00000000000E+00 -0.45593999997E+02  0.45594000000E+02  0.51100000000E-03 0.  1.
    9900012    2    1    2    0    0 -0.39185805543E+02  0.10688179992E+02  0.18441473858E+01  0.50528862931E+02  0.30000009365E+02 0.  0.
         12    1    1    2    0    0  0.39185805543E+02 -0.10688179992E+02 -0.18441473858E+01  0.40659137069E+02  0.00000000000E+00 0. -1.
         11    1    3    3    0    0 -0.26566716543E+02 -0.29602626690E+01  0.59168063772E+01  0.27378133262E+02  0.51100000000E-03 0.  1.
        -11    1    3    3    0    0 -0.59101745528E+01  0.11800930363E+02  0.26651745265E+01  0.13464593429E+02  0.51100000000E-03 0. -1.
         12    1    3    3    0    0 -0.67089144471E+01  0.18475122979E+01 -0.67378335179E+01  0.96861362402E+01  0.00000000000E+00 0. -1.
</event>
<event>
 7    1  0.2966651E-011  0.5052886E+02  0.7816164E-02  0.1300439E+00
        -11   -1    0    0    0    0  0.00000000000E+00  0.00000000000E+00  0.45593999997E+02  0.45594000000E+02  0.51100000000E-03 0.  1.
         11   -1    0    0    0    0 -0.00000000000E+00 -0.00000000000E+00 -0.45593999997E+02  0.45594000000E+02  0.51100000000E-03 0. -1.
    9900012    2    1    2    0    0  0.13481786520E+02  0.28984243739E+02  0.25126100964E+02  0.50528857085E+02  0.29999991597E+02 0.  0.
         12    1    1    2    0    0 -0.13481786520E+02 -0.28984243739E+02 -0.25126100964E+02  0.40659142915E+02  0.00000000000E+00 0. -1.
         11    1    3    3    0    0  0.32531274806E+01  0.27388589867E+02  0.23115626333E+02  0.35986801391E+02  0.51100000000E-03 0. -1.
        -11    1    3    3    0    0  0.44387279151E+01 -0.42554700255E+01  0.46500131914E+00  0.61666487763E+01  0.51100000000E-03 0.  1.
         12    1    3    3    0    0  0.57899311242E+01  0.58511238975E+01  0.15454733119E+01  0.83754069182E+01  0.00000000000E+00 0. -1.
</event>
<event>
 7    1  0.2966651E-011  0.5052886E+02  0.7816164E-02  0.1300439E+00
        -11   -1    0    0    0    0  0.00000000000E+00  0.00000000000E+00  0.45593999997E+02  0.45594000000E+02  0.51100000000E-03 0.  1.
         11   -1    0    0    0    0 -0.00000000000E+00 -0.00000000000E+00 -0.45593999997E+02  0.45594000000E+02  0.51100000000E-03 0. -1.
    9900012    2    1    2    0    0 -0.99170586111E+01  0.22240022879E+02  0.32560696885E+02  0.50528860181E+02  0.30000001007E+02 0.  0.
         12    1    1    2    0    0  0.99170586111E+01 -0.22240022879E+02 -0.32560696885E+02  0.40659139819E+02  0.00000000000E+00 0. -1.
         11    1    3    3    0    0  0.87563722407E+01  0.41408000607E+01  0.10192457230E+02  0.14060813085E+02  0.51100000000E-03 0. -1.
        -11    1    3    3    0    0 -0.12425386498E+02  0.17834964493E+02  0.13400878935E+02  0.25535460532E+02  0.51100000000E-03 0.  1.
        -12    1    3    3    0    0 -0.62480443533E+01  0.26425832551E+00  0.89673607203E+01  0.10932586565E+02  0.00000000000E+00 0.  1.
</event>
<event>
 7    1  0.2966651E-011  0.5052887E+02  0.7816164E-02  0.1300439E+00
        -11   -1    0    0    0    0  0.00000000000E+00  0.00000000000E+00  0.45593999997E+02  0.45594000000E+02  0.51100000000E-03 0.  1.
         11   -1    0    0    0    0 -0.00000000000E+00 -0.00000000000E+00 -0.45593999997E+02  0.45594000000E+02  0.51100000000E-03 0. -1.
    9900012    2    1    2    0    0 -0.29406609463E+02  0.15042093329E+02  0.23709729440E+02  0.50528874063E+02  0.30000043203E+02 0.  0.
         12    1    1    2    0    0  0.29406609463E+02 -0.15042093329E+02 -0.23709729440E+02  0.40659125937E+02  0.00000000000E+00 0. -1.
         11    1    3    3    0    0 -0.14012386570E+01  0.10729337215E+01  0.57737178212E+01  0.60374228181E+01  0.51100000000E-03 0. -1.
        -11    1    3    3    0    0 -0.24067761497E+02  0.97184783060E+01  0.33154925742E+00  0.25957963888E+02  0.51100000000E-03 0.  1.
        -12    1    3    3    0    0 -0.39376093098E+01  0.42506813010E+01  0.17604462361E+02  0.18533487357E+02  0.00000000000E+00 0.  1.
</event>
<event>
 7    1  0.2966651E-011  0.5052887E+02  0.7816164E-02  0.1300439E+00
        -11   -1    0    0    0    0  0.00000000000E+00  0.00000000000E+00  0.45593999997E+02  0.45594000000E+02  0.51100000000E-03 0.  1.
         11   -1    0    0    0    0 -0.00000000000E+00 -0.00000000000E+00 -0.45593999997E+02  0.45594000000E+02  0.51100000000E-03 0. -1.
    9900012    2    1    2    0    0 -0.19356574587E+02 -0.13613430935E+02  0.33063007234E+02  0.50528869059E+02  0.30000027991E+02 0.  0.
         12    1    1    2    0    0  0.19356574587E+02  0.13613430935E+02 -0.33063007234E+02  0.40659130941E+02  0.00000000000E+00 0. -1.
         11    1    3    3    0    0 -0.10244933821E+02  0.48158651869E+01  0.12364262268E+02  0.16763836320E+02  0.51100000000E-03 0.  1.
        -11    1    3    3    0    0  0.32821039853E+01 -0.69009521355E+01  0.86509072458E+00  0.76904960288E+01  0.51100000000E-03 0. -1.
        -12    1    3    3    0    0 -0.12393744751E+02 -0.11528343987E+02  0.19833654242E+02  0.26074536709E+02  0.00000000000E+00 0.  1.
</event>
<event>
 7    1  0.2966651E-011  0.5052886E+02  0.7816164E-02  0.1300439E+00
        -11   -1    0    0    0    0  0.00000000000E+00  0.00000000000E+00  0.45593999997E+02  0.45594000000E+02  0.51100000000E-03 0. -1.
         11   -1    0    0    0    0 -0.00000000000E+00 -0.00000000000E+00 -0.45593999997E+02  0.45594000000E+02  0.51100000000E-03 0.  1.
    9900012    2    1    2    0    0 -0.13432413908E+02  0.17050433566E+02 -0.34380495074E+02  0.50528862408E+02  0.30000007776E+02 0.  0.
         12    1    1    2    0    0  0.13432413908E+02 -0.17050433566E+02  0.34380495074E+02  0.40659137592E+02  0.00000000000E+00 0. -1.
         11    1    3    3    0    0 -0.35625257736E+01  0.39983665537E+00  0.18846345400E+00  0.35898437255E+01  0.51100000000E-03 0. -1.
        -11    1    3    3    0    0 -0.16129615819E+02  0.16329597267E+02 -0.33456871592E+02  0.40573174763E+02  0.51100000000E-03 0.  1.
        -12    1    3    3    0    0  0.62597276846E+01  0.32099964390E+00 -0.11120869360E+01  0.63658439197E+01  0.00000000000E+00 0.  1.
</event>
<event>
 7    1  0.2966651E-011  0.5052879E+02  0.7816164E-02  0.1300439E+00
        -11   -1    0    0    0    0  0.00000000000E+00  0.00000000000E+00  0.45593999997E+02  0.45594000000E+02  0.51100000000E-03 0.  1.
         11   -1    0    0    0    0 -0.00000000000E+00 -0.00000000000E+00 -0.45593999997E+02  0.45594000000E+02  0.51100000000E-03 0. -1.
    9900012    2    1    2    0    0 -0.21109954542E+01 -0.60210701370E+01  0.40155474710E+02  0.50528785342E+02  0.29999773525E+02 0.  0.
         12    1    1    2    0    0  0.21109954542E+01  0.60210701370E+01 -0.40155474710E+02  0.40659214658E+02  0.00000000000E+00 0. -1.
         11    1    3    3    0    0 -0.28799778858E+01  0.61422464813E+01  0.90864485184E+01  0.11339533121E+02  0.51100000000E-03 0. -1.
        -11    1    3    3    0    0 -0.66495649631E+01 -0.14245040921E+02  0.17043320841E+02  0.23186476459E+02  0.51100000000E-03 0.  1.
        -12    1    3    3    0    0  0.74185473946E+01  0.20817243025E+01  0.14025705351E+02  0.16002775763E+02  0.00000000000E+00 0.  1.
</event>
<event>
 7    1  0.2966651E-011  0.5052887E+02  0.7816164E-02  0.1300439E+00
        -11   -1    0    0    0    0  0.00000000000E+00  0.00000000000E+00  0.45593999997E+02  0.45594000000E+02  0.51100000000E-03 0.  1.
         11   -1    0    0    0    0 -0.00000000000E+00 -0.00000000000E+00 -0.45593999997E+02  0.45594000000E+02  0.51100000000E-03 0. -1.
    9900012    2    1    2    0    0  0.92381288924E+01  0.23743450459E+02  0.31687076083E+02  0.50528865038E+02  0.30000015771E+02 0.  0.
         12    1    1    2    0    0 -0.92381288924E+01 -0.23743450459E+02 -0.31687076083E+02  0.40659134962E+02  0.00000000000E+00 0. -1.
         11    1    3    3    0    0  0.20547234725E+01  0.14290035665E+01 -0.54892988398E+01  0.60329380699E+01  0.51100000000E-03 0. -1.
        -11    1    3    3    0    0  0.58229114901E+01  0.10153923702E+02  0.13679522791E+02  0.18003827616E+02  0.51100000000E-03 0.  1.
         12    1    3    3    0    0  0.13604939298E+01  0.12160523190E+02  0.23496852132E+02  0.26492099352E+02  0.00000000000E+00 0. -1.
</event>
<event>
 7    1  0.2966651E-011  0.5052886E+02  0.7816164E-02  0.1300439E+00
        -11   -1    0    0    0    0  0.00000000000E+00  0.00000000000E+00  0.45593999997E+02  0.45594000000E+02  0.51100000000E-03 0.  1.
         11   -1    0    0    0    0 -0.00000000000E+00 -0.00000000000E+00 -0.45593999997E+02  0.45594000000E+02  0.51100000000E-03 0. -1.
    9900012    2    1    2    0    0  0.38089993172E+02 -0.16420690618E+01 -0.14128755859E+02  0.50528859419E+02  0.29999998691E+02 0.  0.
         12    1    1    2    0    0 -0.38089993172E+02  0.16420690618E+01  0.14128755859E+02  0.40659140581E+02  0.00000000000E+00 0. -1.
         11    1    3    3    0    0  0.62837194676E+01 -0.43011997057E+01  0.69083933107E+01  0.10281602387E+02  0.51100000000E-03 0. -1.
        -11    1    3    3    0    0  0.27335064868E+02 -0.25317914529E+01 -0.17187846848E+02  0.32388853311E+02  0.51100000000E-03 0.  1.
        -12    1    3    3    0    0  0.44712088367E+01  0.51909220968E+01 -0.38493023215E+01  0.78584037207E+01  0.00000000000E+00 0.  1.
</event>
<event>
 7    1  0.2966651E-011  0.5052886E+02  0.7816164E-02  0.1300439E+00
        -11   -1    0    0    0    0  0.00000000000E+00  0.00000000000E+00  0.45593999997E+02  0.45594000000E+02  0.51100000000E-03 0.  1.
         11   -1    0    0    0    0 -0.00000000000E+00 -0.00000000000E+00 -0.45593999997E+02  0.45594000000E+02  0.51100000000E-03 0. -1.
    9900012    2    1    2    0    0 -0.23271300025E+02  0.21304476319E+01  0.33272718097E+02  0.50528856114E+02  0.29999988645E+02 0.  0.
         12    1    1    2    0    0  0.23271300025E+02 -0.21304476319E+01 -0.33272718097E+02  0.40659143886E+02  0.00000000000E+00 0. -1.
         11    1    3    3    0    0  0.35613369815E+01 -0.76091081169E+01  0.68496219722E+01  0.10839694131E+02  0.51100000000E-03 0. -1.
        -11    1    3    3    0    0 -0.19653722852E+02  0.35105106864E+01  0.19693817492E+02  0.28043518947E+02  0.51100000000E-03 0.  1.
         12    1    3    3    0    0 -0.71789141543E+01  0.62290450623E+01  0.67292786326E+01  0.11645643037E+02  0.00000000000E+00 0. -1.
</event>
<event>
 7    1  0.2966651E-011  0.5052874E+02  0.7816164E-02  0.1300439E+00
        -11   -1    0    0    0    0  0.00000000000E+00  0.00000000000E+00  0.45593999997E+02  0.45594000000E+02  0.51100000000E-03 0.  1.
         11   -1    0    0    0    0 -0.00000000000E+00 -0.00000000000E+00 -0.45593999997E+02  0.45594000000E+02  0.51100000000E-03 0. -1.
    9900012    2    1    2    0    0 -0.67493544949E+01 -0.21559232853E+02  0.33805641880E+02  0.50528736232E+02  0.29999624247E+02 0.  0.
         12    1    1    2    0    0  0.67493544949E+01  0.21559232853E+02 -0.33805641880E+02  0.40659263768E+02  0.00000000000E+00 0. -1.
         11    1    3    3    0    0  0.54197551124E+01 -0.10756340329E+02  0.12484011223E+02  0.17347136341E+02  0.51100000000E-03 0. -1.
        -11    1    3    3    0    0 -0.50218222580E+01 -0.11090520981E+01  0.20471700780E+02  0.21107800180E+02  0.51100000000E-03 0.  1.
        -12    1    3    3    0    0 -0.71472873493E+01 -0.96938404253E+01  0.84992987605E+00  0.12073799710E+02  0.00000000000E+00 0.  1.
</event>
<event>
 7    1  0.2966651E-011  0.5052886E+02  0.7816164E-02  0.1300439E+00
        -11   -1    0    0    0    0  0.00000000000E+00  0.00000000000E+00  0.45593999997E+02  0.45594000000E+02  0.51100000000E-03 0.  1.
         11   -1    0    0    0    0 -0.00000000000E+00 -0.00000000000E+00 -0.45593999997E+02  0.45594000000E+02  0.51100000000E-03 0. -1.
    9900012    2    1    2    0    0  0.34326294420E+02  0.17583668623E+02  0.12871900760E+02  0.50528859330E+02  0.29999998421E+02 0.  0.
         12    1    1    2    0    0 -0.34326294420E+02 -0.17583668623E+02 -0.12871900760E+02  0.40659140670E+02  0.00000000000E+00 0. -1.
         11    1    3    3    0    0  0.13238249553E+02 -0.17835045019E+01  0.45768264434E+01  0.14120179889E+02  0.51100000000E-03 0. -1.
        -11    1    3    3    0    0  0.20194815176E+02  0.22303804553E+02  0.29335846382E+01  0.30230715780E+02  0.51100000000E-03 0.  1.
        -12    1    3    3    0    0  0.89322969124E+00 -0.29366314283E+01  0.53614896787E+01  0.61779636614E+01  0.00000000000E+00 0.  1.
</event>
<event>
 7    1  0.2966651E-011  0.5052886E+02  0.7816164E-02  0.1300439E+00
        -11   -1    0    0    0    0  0.00000000000E+00  0.00000000000E+00  0.45593999997E+02  0.45594000000E+02  0.51100000000E-03 0. -1.
         11   -1    0    0    0    0 -0.00000000000E+00 -0.00000000000E+00 -0.45593999997E+02  0.45594000000E+02  0.51100000000E-03 0.  1.
    9900012    2    1    2    0    0 -0.10792265346E+02  0.20867309334E+02  0.33185060009E+02  0.50528858372E+02  0.29999995507E+02 0.  0.
         12    1    1    2    0    0  0.10792265346E+02 -0.20867309334E+02 -0.33185060009E+02  0.40659141628E+02  0.00000000000E+00 0. -1.
         11    1    3    3    0    0  0.15177719363E+00  0.10227965006E+02  0.28942380465E+02  0.30696835207E+02  0.51100000000E-03 0. -1.
        -11    1    3    3    0    0 -0.10833470840E+02  0.12959394356E+02  0.28675682962E+01  0.17132803061E+02  0.51100000000E-03 0.  1.
        -12    1    3    3    0    0 -0.11057169974E+00 -0.23200500272E+01  0.13751112472E+01  0.26992201044E+01  0.00000000000E+00 0.  1.
</event>
<event>
 7    1  0.2966651E-011  0.5052886E+02  0.7816164E-02  0.1300439E+00
        -11   -1    0    0    0    0  0.00000000000E+00  0.00000000000E+00  0.45593999997E+02  0.45594000000E+02  0.51100000000E-03 0. -1.
         11   -1    0    0    0    0 -0.00000000000E+00 -0.00000000000E+00 -0.45593999997E+02  0.45594000000E+02  0.51100000000E-03 0.  1.
    9900012    2    1    2    0    0  0.26547486788E+02 -0.23840751738E+02 -0.19493967533E+02  0.50528864884E+02  0.30000015301E+02 0.  0.
         12    1    1    2    0    0 -0.26547486788E+02  0.23840751738E+02  0.19493967533E+02  0.40659135116E+02  0.00000000000E+00 0. -1.
         11    1    3    3    0    0  0.11786800015E+02 -0.93373142255E+00 -0.12642688616E+01  0.11891126312E+02  0.51100000000E-03 0. -1.
        -11    1    3    3    0    0 -0.16978181669E+01 -0.13725725454E+02 -0.24242818830E+01  0.14041198976E+02  0.51100000000E-03 0.  1.
        -12    1    3    3    0    0  0.16458504940E+02 -0.91812948612E+01 -0.15805416789E+02  0.24596539595E+02  0.00000000000E+00 0.  1.
</event>
<event>
 7    1  0.2966651E-011  0.5052880E+02  0.7816164E-02  0.1300439E+00
        -11   -1    0    0    0    0  0.00000000000E+00  0.00000000000E+00  0.45593999997E+02  0.45594000000E+02  0.51100000000E-03 0.  1.
         11   -1    0    0    0    0 -0.00000000000E+00 -0.00000000000E+00 -0.45593999997E+02  0.45594000000E+02  0.51100000000E-03 0. -1.
    9900012    2    1    2    0    0 -0.86964890899E+01  0.99555003239E+01  0.38450348983E+02  0.50528803671E+02  0.29999829239E+02 0.  0.
         12    1    1    2    0    0  0.86964890899E+01 -0.99555003239E+01 -0.38450348983E+02  0.40659196329E+02  0.00000000000E+00 0. -1.
         11    1    3    3    0    0 -0.70504557997E+01 -0.18819759363E+01  0.49430600021E+01  0.88138869322E+01  0.51100000000E-03 0. -1.
        -11    1    3    3    0    0  0.39014566679E+01 -0.14463669369E+01  0.24239331948E+02  0.24593872306E+02  0.51100000000E-03 0.  1.
        -12    1    3    3    0    0 -0.55474899581E+01  0.13283843197E+02  0.92679570327E+01  0.17121044433E+02  0.00000000000E+00 0.  1.
</event>
<event>
 7    1  0.2966651E-011  0.5052885E+02  0.7816164E-02  0.1300439E+00
        -11   -1    0    0    0    0  0.00000000000E+00  0.00000000000E+00  0.45593999997E+02  0.45594000000E+02  0.51100000000E-03 0. -1.
         11   -1    0    0    0    0 -0.00000000000E+00 -0.00000000000E+00 -0.45593999997E+02  0.45594000000E+02  0.51100000000E-03 0.  1.
    9900012    2    1    2    0    0 -0.12143646775E+01  0.33496623596E+02 -0.23014514733E+02  0.50528851431E+02  0.29999974411E+02 0.  0.
         12    1    1    2    0    0  0.12143646775E+01 -0.33496623596E+02  0.23014514733E+02  0.40659148569E+02  0.00000000000E+00 0. -1.
         11    1    3    3    0    0  0.50794285262E+01  0.65299619128E+01  0.31597539805E+01  0.88557914505E+01  0.51100000000E-03 0. -1.
        -11    1    3    3    0    0 -0.97345619600E+01  0.27268100240E+02 -0.22918886561E+02  0.36926770083E+02  0.51100000000E-03 0.  1.
        -12    1    3    3    0    0  0.34407687563E+01 -0.30143855718E+00 -0.32553821527E+01  0.47462898982E+01  0.00000000000E+00 0.  1.
</event>
<event>
 7    1  0.2966651E-011  0.5052885E+02  0.7816164E-02  0.1300439E+00
        -11   -1    0    0    0    0  0.00000000000E+00  0.00000000000E+00  0.45593999997E+02  0.45594000000E+02  0.51100000000E-03 0. -1.
         11   -1    0    0    0    0 -0.00000000000E+00 -0.00000000000E+00 -0.45593999997E+02  0.45594000000E+02  0.51100000000E-03 0.  1.
    9900012    2    1    2    0    0  0.18971960844E+02 -0.34852836700E+02 -0.88606438442E+01  0.50528849324E+02  0.29999968006E+02 0.  0.
         12    1    1    2    0    0 -0.18971960844E+02  0.34852836700E+02  0.88606438442E+01  0.40659150676E+02  0.00000000000E+00 0. -1.
         11    1    3    3    0    0  0.13508761065E+02 -0.25815434534E+02  0.54286906364E+01  0.29637711922E+02  0.51100000000E-03 0. -1.
        -11    1    3    3    0    0  0.53872579459E+01 -0.19663269790E+01 -0.12258757903E+02  0.13533888412E+02  0.51100000000E-03 0.  1.
         12    1    3    3    0    0  0.75941833737E-01 -0.70710751874E+01 -0.20305765773E+01  0.73572489902E+01  0.00000000000E+00 0. -1.
</event>
<event>
 7    1  0.2966651E-011  0.5052888E+02  0.7816164E-02  0.1300439E+00
        -11   -1    0    0    0    0  0.00000000000E+00  0.00000000000E+00  0.45593999997E+02  0.45594000000E+02  0.51100000000E-03 0. -1.
         11   -1    0    0    0    0 -0.00000000000E+00 -0.00000000000E+00 -0.45593999997E+02  0.45594000000E+02  0.51100000000E-03 0.  1.
    9900012    2    1    2    0    0 -0.55609554904E+01 -0.79714254123E+01 -0.39480331178E+02  0.50528875575E+02  0.30000047799E+02 0.  0.
         12    1    1    2    0    0  0.55609554904E+01  0.79714254123E+01  0.39480331178E+02  0.40659124425E+02  0.00000000000E+00 0. -1.
         11    1    3    3    0    0 -0.68882274339E+01 -0.13170987416E+02 -0.13844466427E+02  0.20312356771E+02  0.51100000000E-03 0. -1.
        -11    1    3    3    0    0  0.61870063441E+01  0.85097967637E+00 -0.21741971275E+02  0.22621152250E+02  0.51100000000E-03 0.  1.
        -12    1    3    3    0    0 -0.48597344006E+01  0.43485823270E+01 -0.38938934757E+01  0.75953665546E+01  0.00000000000E+00 0.  1.
</event>
<event>
 7    1  0.2966651E-011  0.5052885E+02  0.7816164E-02  0.1300439E+00
        -11   -1    0    0    0    0  0.00000000000E+00  0.00000000000E+00  0.45593999997E+02  0.45594000000E+02  0.51100000000E-03 0.  1.
         11   -1    0    0    0    0 -0.00000000000E+00 -0.00000000000E+00 -0.45593999997E+02  0.45594000000E+02  0.51100000000E-03 0. -1.
    9900012    2    1    2    0    0  0.14544361182E+02 -0.23845401227E+02  0.29546992503E+02  0.50528851364E+02  0.29999974205E+02 0.  0.
         12    1    1    2    0    0 -0.14544361182E+02  0.23845401227E+02 -0.29546992503E+02  0.40659148636E+02  0.00000000000E+00 0. -1.
         11    1    3    3    0    0  0.13900700839E+01  0.16018011059E+01 -0.15837632666E+01  0.26469544701E+01  0.51100000000E-03 0. -1.
        -11    1    3    3    0    0  0.60947879012E+01 -0.19433835108E+02  0.32653055391E+02  0.38484313859E+02  0.51100000000E-03 0.  1.
        -12    1    3    3    0    0  0.70595031967E+01 -0.60133672244E+01 -0.15222996212E+01  0.93975830348E+01  0.00000000000E+00 0.  1.
</event>
<event>
 7    1  0.2966651E-011  0.5052886E+02  0.7816164E-02  0.1300439E+00
        -11   -1    0    0    0    0  0.00000000000E+00  0.00000000000E+00  0.45593999997E+02  0.45594000000E+02  0.51100000000E-03 0.  1.
         11   -1    0    0    0    0 -0.00000000000E+00 -0.00000000000E+00 -0.45593999997E+02  0.45594000000E+02  0.51100000000E-03 0. -1.
    9900012    2    1    2    0    0 -0.36551654643E+01 -0.22340162318E+02  0.33774582704E+02  0.50528861743E+02  0.30000005753E+02 0.  0.
         12    1    1    2    0    0  0.36551654643E+01  0.22340162318E+02 -0.33774582704E+02  0.40659138257E+02  0.00000000000E+00 0. -1.
         11    1    3    3    0    0 -0.36771807205E+01 -0.46226399769E+01 -0.17486417761E+01  0.61602115815E+01  0.51100000000E-03 0. -1.
        -11    1    3    3    0    0 -0.30881357759E+01 -0.94555437397E+01  0.33981017524E+02  0.35406968837E+02  0.51100000000E-03 0.  1.
        -12    1    3    3    0    0  0.31101510321E+01 -0.82619786017E+01  0.15422069565E+01  0.89616813241E+01  0.00000000000E+00 0.  1.
</event>
<event>
 7    1  0.2966651E-011  0.5052887E+02  0.7816164E-02  0.1300439E+00
        -11   -1    0    0    0    0  0.00000000000E+00  0.00000000000E+00  0.45593999997E+02  0.45594000000E+02  0.51100000000E-03 0. -1.
         11   -1    0    0    0    0 -0.00000000000E+00 -0.00000000000E+00 -0.45593999997E+02  0.45594000000E+02  0.51100000000E-03 0.  1.
    9900012    2    1    2    0    0  0.15305740330E+02  0.37660397480E+02 -0.77057973123E+00  0.50528867956E+02  0.30000024640E+02 0.  0.
         12    1    1    2    0    0 -0.15305740330E+02 -0.37660397480E+02  0.77057973123E+00  0.40659132044E+02  0.00000000000E+00 0. -1.
         11    1    3    3    0    0  0.83660105035E+00 -0.27667012283E+01 -0.11950798807E+01  0.31277393093E+01  0.51100000000E-03 0. -1.
        -11    1    3    3    0    0  0.20861745041E+01  0.27749755636E+02  0.66611662457E+01  0.28614195741E+02  0.51100000000E-03 0.  1.
        -12    1    3    3    0    0  0.12382964776E+02  0.12677343073E+02 -0.62366660962E+01  0.18786932906E+02  0.00000000000E+00 0.  1.
</event>
<event>
 7    1  0.2966651E-011  0.5052886E+02  0.7816164E-02  0.1300439E+00
        -11   -1    0    0    0    0  0.00000000000E+00  0.00000000000E+00  0.45593999997E+02  0.45594000000E+02  0.51100000000E-03 0.  1.
         11   -1    0    0    0    0 -0.00000000000E+00 -0.00000000000E+00 -0.45593999997E+02  0.45594000000E+02  0.51100000000E-03 0. -1.
    9900012    2    1    2    0    0 -0.26412400293E+00 -0.21915218113E+00  0.40657690129E+02  0.50528861350E+02  0.30000004558E+02 0.  0.
         12    1    1    2    0    0  0.26412400293E+00  0.21915218113E+00 -0.40657690129E+02  0.40659138650E+02  0.00000000000E+00 0. -1.
         11    1    3    3    0    0  0.45222666249E+01 -0.74311156177E+00  0.82855714631E+01  0.94685693191E+01  0.51100000000E-03 0. -1.
        -11    1    3    3    0    0 -0.74772946972E+01  0.78497214523E+01  0.31371760054E+02  0.33192098337E+02  0.51100000000E-03 0.  1.
        -12    1    3    3    0    0  0.26909040694E+01 -0.73257620716E+01  0.10003586114E+01  0.78681936931E+01  0.00000000000E+00 0.  1.
</event>
<event>
 7    1  0.2966651E-011  0.5052887E+02  0.7816164E-02  0.1300439E+00
        -11   -1    0    0    0    0  0.00000000000E+00  0.00000000000E+00  0.45593999997E+02  0.45594000000E+02  0.51100000000E-03 0.  1.
         11   -1    0    0    0    0 -0.00000000000E+00 -0.00000000000E+00 -0.45593999997E+02  0.45594000000E+02  0.51100000000E-03 0. -1.
    9900012    2    1    2    0    0 -0.56600467669E+01 -0.16799359162E+02  0.36591126820E+02  0.50528866221E+02  0.30000019366E+02 0.  0.
         12    1    1    2    0    0  0.56600467669E+01  0.16799359162E+02 -0.36591126820E+02  0.40659133779E+02  0.00000000000E+00 0. -1.
         11    1    3    3    0    0 -0.55888191402E+01  0.53953921219E+01  0.12648718335E+02  0.14843693318E+02  0.51100000000E-03 0. -1.
        -11    1    3    3    0    0 -0.26336332407E+01 -0.17212694325E+02  0.24497199593E+02  0.30055376526E+02  0.51100000000E-03 0.  1.
        -12    1    3    3    0    0  0.25624056140E+01 -0.49820569590E+01 -0.55479110800E+00  0.56297963770E+01  0.00000000000E+00 0.  1.
</event>
<event>
 7    1  0.2966651E-011  0.5052886E+02  0.7816164E-02  0.1300439E+00
        -11   -1    0    0    0    0  0.00000000000E+00  0.00000000000E+00  0.45593999997E+02  0.45594000000E+02  0.51100000000E-03 0.  1.
         11   -1    0    0    0    0 -0.00000000000E+00 -0.00000000000E+00 -0.45593999997E+02  0.45594000000E+02  0.51100000000E-03 0. -1.
    9900012    2    1    2    0    0 -0.22372020522E+02  0.16325013253E+02  0.29768305888E+02  0.50528863322E+02  0.30000010555E+02 0.  0.
         12    1    1    2    0    0  0.22372020522E+02 -0.16325013253E+02 -0.29768305888E+02  0.40659136678E+02  0.00000000000E+00 0. -1.
         11    1    3    3    0    0  0.40523367483E+01 -0.13765538421E+01 -0.11301621429E+01  0.44264658965E+01  0.51100000000E-03 0. -1.
        -11    1    3    3    0    0 -0.80374641966E+01  0.92760586227E+01  0.19051098587E+02  0.22662534102E+02  0.51100000000E-03 0.  1.
        -12    1    3    3    0    0 -0.18386893073E+02  0.84255084729E+01  0.11847369444E+02  0.23439863324E+02  0.00000000000E+00 0.  1.
</event>
<event>
 7    1  0.2966651E-011  0.5052886E+02  0.7816164E-02  0.1300439E+00
        -11   -1    0    0    0    0  0.00000000000E+00  0.00000000000E+00  0.45593999997E+02  0.45594000000E+02  0.51100000000E-03 0.  1.
         11   -1    0    0    0    0 -0.00000000000E+00 -0.00000000000E+00 -0.45593999997E+02  0.45594000000E+02  0.51100000000E-03 0. -1.
    9900012    2    1    2    0    0  0.18491678843E+02  0.33040577231E+02  0.14817013662E+02  0.50528858051E+02  0.29999994531E+02 0.  0.
         12    1    1    2    0    0 -0.18491678843E+02 -0.33040577231E+02 -0.14817013662E+02  0.40659141949E+02  0.00000000000E+00 0. -1.
         11    1    3    3    0    0  0.73235801105E+00  0.68208464717E+01 -0.68109484176E+01  0.96669185088E+01  0.51100000000E-03 0. -1.
        -11    1    3    3    0    0  0.60225584809E+01  0.35982499489E+01  0.11432086615E+02  0.13413098746E+02  0.51100000000E-03 0.  1.
         12    1    3    3    0    0  0.11736762351E+02  0.22621480810E+02  0.10195875464E+02  0.27448840796E+02  0.00000000000E+00 0. -1.
</event>
<event>
 7    1  0.2966651E-011  0.5052886E+02  0.7816164E-02  0.1300439E+00
        -11   -1    0    0    0    0  0.00000000000E+00  0.00000000000E+00  0.45593999997E+02  0.45594000000E+02  0.51100000000E-03 0.  1.
         11   -1    0    0    0    0 -0.00000000000E+00 -0.00000000000E+00 -0.45593999997E+02  0.45594000000E+02  0.51100000000E-03 0. -1.
    9900012    2    1    2    0    0 -0.36086629276E+02  0.15174410232E+02  0.10984444038E+02  0.50528861430E+02  0.30000004803E+02 0.  0.
         12    1    1    2    0    0  0.36086629276E+02 -0.15174410232E+02 -0.10984444038E+02  0.40659138570E+02  0.00000000000E+00 0. -1.
         11    1    3    3    0    0 -0.83228745932E+01 -0.76164082958E+01  0.30943864617E+00  0.11286082995E+02  0.51100000000E-03 0. -1.
        -11    1    3    3    0    0 -0.11036168061E+02  0.70125900224E+01  0.96025550228E+01  0.16222900096E+02  0.51100000000E-03 0.  1.
        -12    1    3    3    0    0 -0.16727586622E+02  0.15778228506E+02  0.10724503694E+01  0.23019878339E+02  0.00000000000E+00 0.  1.
</event>
<event>
 7    1  0.2966651E-011  0.5052886E+02  0.7816164E-02  0.1300439E+00
        -11   -1    0    0    0    0  0.00000000000E+00  0.00000000000E+00  0.45593999997E+02  0.45594000000E+02  0.51100000000E-03 0. -1.
         11   -1    0    0    0    0 -0.00000000000E+00 -0.00000000000E+00 -0.45593999997E+02  0.45594000000E+02  0.51100000000E-03 0.  1.
    9900012    2    1    2    0    0  0.17730187091E+02 -0.25281140709E+02 -0.26451271941E+02  0.50528863301E+02  0.30000010489E+02 0.  0.
         12    1    1    2    0    0 -0.17730187091E+02  0.25281140709E+02  0.26451271941E+02  0.40659136699E+02  0.00000000000E+00 0. -1.
         11    1    3    3    0    0  0.85438417141E+01 -0.20212451793E+02 -0.14387471049E+02  0.26240041199E+02  0.51100000000E-03 0.  1.
        -11    1    3    3    0    0  0.68228373239E-02  0.35788015507E+01 -0.11075028100E+02  0.11638905222E+02  0.51100000000E-03 0. -1.
         12    1    3    3    0    0  0.91795225397E+01 -0.86474904670E+01 -0.98877279243E+00  0.12649916880E+02  0.00000000000E+00 0. -1.
</event>
<event>
 7    1  0.2966651E-011  0.5052878E+02  0.7816164E-02  0.1300439E+00
        -11   -1    0    0    0    0  0.00000000000E+00  0.00000000000E+00  0.45593999997E+02  0.45594000000E+02  0.51100000000E-03 0.  1.
         11   -1    0    0    0    0 -0.00000000000E+00 -0.00000000000E+00 -0.45593999997E+02  0.45594000000E+02  0.51100000000E-03 0. -1.
    9900012    2    1    2    0    0  0.30202040633E+02 -0.27210947063E+02 -0.75732189058E+00  0.50528776755E+02  0.29999747424E+02 0.  0.
         12    1    1    2    0    0 -0.30202040633E+02  0.27210947063E+02  0.75732189058E+00  0.40659223245E+02  0.00000000000E+00 0. -1.
         11    1    3    3    0    0  0.91904977328E+01 -0.91324236827E+00  0.53544021267E+01  0.10675620947E+02  0.51100000000E-03 0. -1.
        -11    1    3    3    0    0  0.18069278152E+02 -0.29616392875E+02 -0.68326506245E+01  0.35359788668E+02  0.51100000000E-03 0.  1.
        -12    1    3    3    0    0  0.29422647477E+01  0.33186881801E+01  0.72092660729E+00  0.44933671400E+01  0.00000000000E+00 0.  1.
</event>
<event>
 7    1  0.2966651E-011  0.5052881E+02  0.7816164E-02  0.1300439E+00
        -11   -1    0    0    0    0  0.00000000000E+00  0.00000000000E+00  0.45593999997E+02  0.45594000000E+02  0.51100000000E-03 0. -1.
         11   -1    0    0    0    0 -0.00000000000E+00 -0.00000000000E+00 -0.45593999997E+02  0.45594000000E+02  0.51100000000E-03 0.  1.
    9900012    2    1    2    0    0  0.17957812472E+02  0.35567323652E+02 -0.81026009533E+01  0.50528810599E+02  0.29999850297E+02 0.  0.
         12    1    1    2    0    0 -0.17957812472E+02 -0.35567323652E+02  0.81026009533E+01  0.40659189401E+02  0.00000000000E+00 0. -1.
         11    1    3    3    0    0  0.12272461802E+01 -0.18070059791E+01 -0.89423657873E+01  0.92052870640E+01  0.51100000000E-03 0. -1.
        -11    1    3    3    0    0  0.47959119031E+00  0.43274003689E+00 -0.67858702326E+00  0.93688433577E+00  0.51100000000E-03 0.  1.
         12    1    3    3    0    0  0.16250975101E+02  0.36941589594E+02  0.15183518573E+01  0.40386639200E+02  0.00000000000E+00 0. -1.
</event>
<event>
 7    1  0.2966651E-011  0.5052886E+02  0.7816164E-02  0.1300439E+00
        -11   -1    0    0    0    0  0.00000000000E+00  0.00000000000E+00  0.45593999997E+02  0.45594000000E+02  0.51100000000E-03 0. -1.
         11   -1    0    0    0    0 -0.00000000000E+00 -0.00000000000E+00 -0.45593999997E+02  0.45594000000E+02  0.51100000000E-03 0.  1.
    9900012    2    1    2    0    0 -0.10956495250E+02 -0.38744007066E+02  0.56588458938E+01  0.50528863160E+02  0.30000010061E+02 0.  0.
         12    1    1    2    0    0  0.10956495250E+02  0.38744007066E+02 -0.56588458938E+01  0.40659136840E+02  0.00000000000E+00 0. -1.
         11    1    3    3    0    0 -0.14689354937E+02 -0.10743322933E+02  0.23917745596E+01  0.18355291387E+02  0.51100000000E-03 0. -1.
        -11    1    3    3    0    0  0.65850928699E+01 -0.17113287983E+02 -0.40116128475E+01  0.18770218741E+02  0.51100000000E-03 0.  1.
        -12    1    3    3    0    0 -0.28522331821E+01 -0.10887396151E+02  0.72786841817E+01  0.13403353031E+02  0.00000000000E+00 0.  1.
</event>
<event>
 7    1  0.2966651E-011  0.5052887E+02  0.7816164E-02  0.1300439E+00
        -11   -1    0    0    0    0  0.00000000000E+00  0.00000000000E+00  0.45593999997E+02  0.45594000000E+02  0.51100000000E-03 0.  1.
         11   -1    0    0    0    0 -0.00000000000E+00 -0.00000000000E+00 -0.45593999997E+02  0.45594000000E+02  0.51100000000E-03 0. -1.
    9900012    2    1    2    0    0  0.14388285585E+02  0.17593292265E+02  0.33713770338E+02  0.50528868120E+02  0.30000025139E+02 0.  0.
         12    1    1    2    0    0 -0.14388285585E+02 -0.17593292265E+02 -0.33713770338E+02  0.40659131880E+02  0.00000000000E+00 0. -1.
         11    1    3    3    0    0 -0.71037285579E+01  0.40171807792E+01  0.64136089234E+01  0.10379551075E+02  0.51100000000E-03 0. -1.
        -11    1    3    3    0    0  0.19764996739E+02  0.12894178199E+02  0.15568831075E+02  0.28271954811E+02  0.51100000000E-03 0.  1.
        -12    1    3    3    0    0  0.17270174036E+01  0.68193328724E+00  0.11731330339E+02  0.11877362234E+02  0.00000000000E+00 0.  1.
</event>
<event>
 7    1  0.2966651E-011  0.5052886E+02  0.7816164E-02  0.1300439E+00
        -11   -1    0    0    0    0  0.00000000000E+00  0.00000000000E+00  0.45593999997E+02  0.45594000000E+02  0.51100000000E-03 0.  1.
         11   -1    0    0    0    0 -0.00000000000E+00 -0.00000000000E+00 -0.45593999997E+02  0.45594000000E+02  0.51100000000E-03 0. -1.
    9900012    2    1    2    0    0 -0.24877672292E+02 -0.31437740924E+02 -0.67775875620E+01  0.50528858024E+02  0.29999994449E+02 0.  0.
         12    1    1    2    0    0  0.24877672292E+02  0.31437740924E+02  0.67775875620E+01  0.40659141976E+02  0.00000000000E+00 0. -1.
         11    1    3    3    0    0 -0.24250254927E+02 -0.19428085946E+02 -0.19509976489E+01  0.31134093525E+02  0.51100000000E-03 0.  1.
        -11    1    3    3    0    0 -0.20497511580E+01  0.25728171641E+01 -0.33070790292E+01  0.46645085418E+01  0.51100000000E-03 0. -1.
        -12    1    3    3    0    0  0.14223337934E+01 -0.14582472143E+02 -0.15195108839E+01  0.14730255957E+02  0.00000000000E+00 0.  1.
</event>
<event>
 7    1  0.2966651E-011  0.5052886E+02  0.7816164E-02  0.1300439E+00
        -11   -1    0    0    0    0  0.00000000000E+00  0.00000000000E+00  0.45593999997E+02  0.45594000000E+02  0.51100000000E-03 0.  1.
         11   -1    0    0    0    0 -0.00000000000E+00 -0.00000000000E+00 -0.45593999997E+02  0.45594000000E+02  0.51100000000E-03 0. -1.
    9900012    2    1    2    0    0 -0.13667054864E+02  0.21177748365E+02  0.31904236562E+02  0.50528859268E+02  0.29999998230E+02 0.  0.
         12    1    1    2    0    0  0.13667054864E+02 -0.21177748365E+02 -0.31904236562E+02  0.40659140732E+02  0.00000000000E+00 0. -1.
         11    1    3    3    0    0 -0.33815424969E+00  0.99803412329E+01 -0.34330763911E+00  0.99919677651E+01  0.51100000000E-03 0. -1.
        -11    1    3    3    0    0 -0.14391404764E+02  0.14897254998E+02  0.27253278782E+02  0.34231300620E+02  0.51100000000E-03 0.  1.
        -12    1    3    3    0    0  0.10625041494E+01 -0.36998478655E+01  0.49942654193E+01  0.63055908822E+01  0.00000000000E+00 0.  1.
</event>
<event>
 7    1  0.2966651E-011  0.5052886E+02  0.7816164E-02  0.1300439E+00
        -11   -1    0    0    0    0  0.00000000000E+00  0.00000000000E+00  0.45593999997E+02  0.45594000000E+02  0.51100000000E-03 0.  1.
         11   -1    0    0    0    0 -0.00000000000E+00 -0.00000000000E+00 -0.45593999997E+02  0.45594000000E+02  0.51100000000E-03 0. -1.
    9900012    2    1    2    0    0 -0.14952057134E+02  0.10238789021E+02  0.36397370026E+02  0.50528863782E+02  0.30000011953E+02 0.  0.
         12    1    1    2    0    0  0.14952057134E+02 -0.10238789021E+02 -0.36397370026E+02  0.40659136218E+02  0.00000000000E+00 0. -1.
         11    1    3    3    0    0  0.54604370110E-01  0.85170800026E+01  0.94633262972E+01  0.12731778284E+02  0.51100000000E-03 0.  1.
        -11    1    3    3    0    0  0.30297476997E+01 -0.58570056038E+01  0.96737819609E+01  0.11707516537E+02  0.51100000000E-03 0. -1.
        -12    1    3    3    0    0 -0.18036409204E+02  0.75787146222E+01  0.17260261768E+02  0.26089568962E+02  0.00000000000E+00 0.  1.
</event>
<event>
 7    1  0.2966651E-011  0.5052887E+02  0.7816164E-02  0.1300439E+00
        -11   -1    0    0    0    0  0.00000000000E+00  0.00000000000E+00  0.45593999997E+02  0.45594000000E+02  0.51100000000E-03 0.  1.
         11   -1    0    0    0    0 -0.00000000000E+00 -0.00000000000E+00 -0.45593999997E+02  0.45594000000E+02  0.51100000000E-03 0. -1.
    9900012    2    1    2    0    0 -0.19416681690E+02 -0.27359611617E+02  0.22969739161E+02  0.50528870733E+02  0.30000033079E+02 0.  0.
         12    1    1    2    0    0  0.19416681690E+02  0.27359611617E+02 -0.22969739161E+02  0.40659129267E+02  0.00000000000E+00 0. -1.
         11    1    3    3    0    0  0.15741267313E+01  0.49319001372E+01  0.51800761532E+01  0.73235717477E+01  0.51100000000E-03 0. -1.
        -11    1    3    3    0    0 -0.75672778015E+01 -0.17309360426E+02  0.11556495514E+02  0.22145659631E+02  0.51100000000E-03 0.  1.
         12    1    3    3    0    0 -0.13423530620E+02 -0.14982151328E+02  0.62331674938E+01  0.21059639354E+02  0.00000000000E+00 0. -1.
</event>
<event>
 7    1  0.2966651E-011  0.5052886E+02  0.7816164E-02  0.1300439E+00
        -11   -1    0    0    0    0  0.00000000000E+00  0.00000000000E+00  0.45593999997E+02  0.45594000000E+02  0.51100000000E-03 0.  1.
         11   -1    0    0    0    0 -0.00000000000E+00 -0.00000000000E+00 -0.45593999997E+02  0.45594000000E+02  0.51100000000E-03 0. -1.
    9900012    2    1    2    0    0 -0.32130234202E+02  0.23764963848E+02 -0.74860105781E+01  0.50528858212E+02  0.29999995021E+02 0.  0.
         12    1    1    2    0    0  0.32130234202E+02 -0.23764963848E+02  0.74860105781E+01  0.40659141788E+02  0.00000000000E+00 0. -1.
         11    1    3    3    0    0 -0.55075432001E+01  0.15946855347E+02 -0.37241636625E+01  0.17277286326E+02  0.51100000000E-03 0.  1.
        -11    1    3    3    0    0 -0.27007189820E+02  0.80280637719E+01 -0.77641739194E+01  0.29225340148E+02  0.51100000000E-03 0. -1.
         12    1    3    3    0    0  0.38449881753E+00 -0.20995527073E+00  0.40023270038E+01  0.40262317372E+01  0.00000000000E+00 0. -1.
</event>
<event>
 7    1  0.2966651E-011  0.5052882E+02  0.7816164E-02  0.1300439E+00
        -11   -1    0    0    0    0  0.00000000000E+00  0.00000000000E+00  0.45593999997E+02  0.45594000000E+02  0.51100000000E-03 0. -1.
         11   -1    0    0    0    0 -0.00000000000E+00 -0.00000000000E+00 -0.45593999997E+02  0.45594000000E+02  0.51100000000E-03 0.  1.
    9900012    2    1    2    0    0 -0.13235726193E+02 -0.30024301831E+02 -0.24010958043E+02  0.50528815866E+02  0.29999866306E+02 0.  0.
         12    1    1    2    0    0  0.13235726193E+02  0.30024301831E+02  0.24010958043E+02  0.40659184134E+02  0.00000000000E+00 0. -1.
         11    1    3    3    0    0  0.52957022240E+01 -0.68349208814E+01 -0.38245558654E+01  0.94545139129E+01  0.51100000000E-03 0. -1.
        -11    1    3    3    0    0 -0.11761967786E+02 -0.19546128185E+02 -0.23456549176E+02  0.32720096465E+02  0.51100000000E-03 0.  1.
        -12    1    3    3    0    0 -0.67694606312E+01 -0.36432527648E+01  0.32701469977E+01  0.83542054878E+01  0.00000000000E+00 0.  1.
</event>
<event>
 7    1  0.2966651E-011  0.5052886E+02  0.7816164E-02  0.1300439E+00
        -11   -1    0    0    0    0  0.00000000000E+00  0.00000000000E+00  0.45593999997E+02  0.45594000000E+02  0.51100000000E-03 0.  1.
         11   -1    0    0    0    0 -0.00000000000E+00 -0.00000000000E+00 -0.45593999997E+02  0.45594000000E+02  0.51100000000E-03 0. -1.
    9900012    2    1    2    0    0 -0.30524540059E+02  0.28653279439E+01  0.26705951629E+02  0.50528862005E+02  0.30000006551E+02 0.  0.
         12    1    1    2    0    0  0.30524540059E+02 -0.28653279439E+01 -0.26705951629E+02  0.40659137995E+02  0.00000000000E+00 0. -1.
         11    1    3    3    0    0 -0.21254265227E+02 -0.77719649894E+01  0.15864922676E+02  0.27637709781E+02  0.51100000000E-03 0. -1.
        -11    1    3    3    0    0 -0.66359845425E+01  0.61373087127E+01  0.14095356787E+02  0.16744609052E+02  0.51100000000E-03 0.  1.
         12    1    3    3    0    0 -0.26342902896E+01  0.44999842206E+01 -0.32543278344E+01  0.61465431723E+01  0.00000000000E+00 0. -1.
</event>
<event>
 7    1  0.2966651E-011  0.5052889E+02  0.7816164E-02  0.1300439E+00
        -11   -1    0    0    0    0  0.00000000000E+00  0.00000000000E+00  0.45593999997E+02  0.45594000000E+02  0.51100000000E-03 0.  1.
         11   -1    0    0    0    0 -0.00000000000E+00 -0.00000000000E+00 -0.45593999997E+02  0.45594000000E+02  0.51100000000E-03 0. -1.
    9900012    2    1    2    0    0  0.24522373402E+02  0.32359160331E+02 -0.21682805825E+01  0.50528886689E+02  0.30000081579E+02 0.  0.
         12    1    1    2    0    0 -0.24522373402E+02 -0.32359160331E+02  0.21682805825E+01  0.40659113311E+02  0.00000000000E+00 0. -1.
         11    1    3    3    0    0  0.10939696206E+01  0.20736623207E+02  0.34827850722E+01  0.21055500556E+02  0.51100000000E-03 0. -1.
        -11    1    3    3    0    0  0.14450129941E+02  0.12585699067E+02 -0.70018302133E+00  0.19175409587E+02  0.51100000000E-03 0.  1.
         12    1    3    3    0    0  0.89782738400E+01 -0.96316194276E+00 -0.49508826334E+01  0.10297976545E+02  0.00000000000E+00 0. -1.
</event>
<event>
 7    1  0.2966651E-011  0.5052886E+02  0.7816164E-02  0.1300439E+00
        -11   -1    0    0    0    0  0.00000000000E+00  0.00000000000E+00  0.45593999997E+02  0.45594000000E+02  0.51100000000E-03 0. -1.
         11   -1    0    0    0    0 -0.00000000000E+00 -0.00000000000E+00 -0.45593999997E+02  0.45594000000E+02  0.51100000000E-03 0.  1.
    9900012    2    1    2    0    0  0.27713296814E+02 -0.29677007231E+02  0.21009251669E+01  0.50528862465E+02  0.30000007949E+02 0.  0.
         12    1    1    2    0    0 -0.27713296814E+02  0.29677007231E+02 -0.21009251669E+01  0.40659137535E+02  0.00000000000E+00 0. -1.
         11    1    3    3    0    0  0.46272492152E+01  0.85721449775E+00  0.61351416865E+01  0.77321546653E+01  0.51100000000E-03 0. -1.
        -11    1    3    3    0    0  0.25175201951E+02 -0.28279951656E+02 -0.17428465817E+00  0.37862604695E+02  0.51100000000E-03 0.  1.
        -12    1    3    3    0    0 -0.20891543520E+01 -0.22542700733E+01 -0.38599318615E+01  0.49341031044E+01  0.00000000000E+00 0.  1.
</event>
<event>
 7    1  0.2966651E-011  0.5052877E+02  0.7816164E-02  0.1300439E+00
        -11   -1    0    0    0    0  0.00000000000E+00  0.00000000000E+00  0.45593999997E+02  0.45594000000E+02  0.51100000000E-03 0.  1.
         11   -1    0    0    0    0 -0.00000000000E+00 -0.00000000000E+00 -0.45593999997E+02  0.45594000000E+02  0.51100000000E-03 0. -1.
    9900012    2    1    2    0    0 -0.27590979330E+02  0.17387300782E+02  0.24281530832E+02  0.50528768473E+02  0.29999722248E+02 0.  0.
         12    1    1    2    0    0  0.27590979330E+02 -0.17387300782E+02 -0.24281530832E+02  0.40659231527E+02  0.00000000000E+00 0. -1.
         11    1    3    3    0    0 -0.19658253211E+02  0.86994113565E+01  0.32654597488E+01  0.21743732542E+02  0.51100000000E-03 0. -1.
        -11    1    3    3    0    0 -0.86012352880E+01 -0.17531249772E+01  0.12607698653E+02  0.15362576648E+02  0.51100000000E-03 0.  1.
         12    1    3    3    0    0  0.66850916887E+00  0.10441014403E+02  0.84083724297E+01  0.13422459283E+02  0.00000000000E+00 0. -1.
</event>
<event>
 7    1  0.2966651E-011  0.5052885E+02  0.7816164E-02  0.1300439E+00
        -11   -1    0    0    0    0  0.00000000000E+00  0.00000000000E+00  0.45593999997E+02  0.45594000000E+02  0.51100000000E-03 0. -1.
         11   -1    0    0    0    0 -0.00000000000E+00 -0.00000000000E+00 -0.45593999997E+02  0.45594000000E+02  0.51100000000E-03 0.  1.
    9900012    2    1    2    0    0 -0.34287654859E+02  0.61026715025E+01  0.20982861648E+02  0.50528851483E+02  0.29999974567E+02 0.  0.
         12    1    1    2    0    0  0.34287654859E+02 -0.61026715025E+01 -0.20982861648E+02  0.40659148517E+02  0.00000000000E+00 0. -1.
         11    1    3    3    0    0 -0.19456676817E+02  0.16086519862E+02  0.18243742730E+02  0.31147592894E+02  0.51100000000E-03 0. -1.
        -11    1    3    3    0    0 -0.16351033106E+01  0.10949607266E+00  0.22204671517E+01  0.27597149960E+01  0.51100000000E-03 0.  1.
         12    1    3    3    0    0 -0.13195874732E+02 -0.10093344432E+02  0.51865176652E+00  0.16621543593E+02  0.00000000000E+00 0. -1.
</event>
<event>
 7    1  0.2966651E-011  0.5052885E+02  0.7816164E-02  0.1300439E+00
        -11   -1    0    0    0    0  0.00000000000E+00  0.00000000000E+00  0.45593999997E+02  0.45594000000E+02  0.51100000000E-03 0. -1.
         11   -1    0    0    0    0 -0.00000000000E+00 -0.00000000000E+00 -0.45593999997E+02  0.45594000000E+02  0.51100000000E-03 0.  1.
    9900012    2    1    2    0    0  0.37160873241E+02 -0.16063634236E+02  0.37677044900E+01  0.50528850451E+02  0.29999971431E+02 0.  0.
         12    1    1    2    0    0 -0.37160873241E+02  0.16063634236E+02 -0.37677044900E+01  0.40659149549E+02  0.00000000000E+00 0. -1.
         11    1    3    3    0    0  0.32185574591E+00  0.63632131634E+01  0.62087769427E+00  0.64015281189E+01  0.51100000000E-03 0. -1.
        -11    1    3    3    0    0  0.13865699127E+02 -0.11490560315E+02  0.47791123422E+01  0.18631438582E+02  0.51100000000E-03 0.  1.
         12    1    3    3    0    0  0.22973318369E+02 -0.10936287085E+02 -0.16322855465E+01  0.25495883750E+02  0.00000000000E+00 0. -1.
</event>
<event>
 7    1  0.2966651E-011  0.5052884E+02  0.7816164E-02  0.1300439E+00
        -11   -1    0    0    0    0  0.00000000000E+00  0.00000000000E+00  0.45593999997E+02  0.45594000000E+02  0.51100000000E-03 0. -1.
         11   -1    0    0    0    0 -0.00000000000E+00 -0.00000000000E+00 -0.45593999997E+02  0.45594000000E+02  0.51100000000E-03 0.  1.
    9900012    2    1    2    0    0  0.35447094973E+01  0.14534950730E+02 -0.37806585609E+02  0.50528835307E+02  0.29999925399E+02 0.  0.
         12    1    1    2    0    0 -0.35447094973E+01 -0.14534950730E+02  0.37806585609E+02  0.40659164693E+02  0.00000000000E+00 0. -1.
         11    1    3    3    0    0 -0.95441446533E+01  0.15350707854E+02 -0.22776368161E+02  0.29077446168E+02  0.51100000000E-03 0. -1.
        -11    1    3    3    0    0  0.13117595803E+01  0.18515532427E+01 -0.58743187975E+01  0.62973473941E+01  0.51100000000E-03 0.  1.
         12    1    3    3    0    0  0.11777094570E+02 -0.26673103668E+01 -0.91558986503E+01  0.15154041745E+02  0.00000000000E+00 0. -1.
</event>
<event>
 7    1  0.2966651E-011  0.5052886E+02  0.7816164E-02  0.1300439E+00
        -11   -1    0    0    0    0  0.00000000000E+00  0.00000000000E+00  0.45593999997E+02  0.45594000000E+02  0.51100000000E-03 0.  1.
         11   -1    0    0    0    0 -0.00000000000E+00 -0.00000000000E+00 -0.45593999997E+02  0.45594000000E+02  0.51100000000E-03 0. -1.
    9900012    2    1    2    0    0  0.34560504458E+02  0.14361651106E+02 -0.15889634184E+02  0.50528856313E+02  0.29999989249E+02 0.  0.
         12    1    1    2    0    0 -0.34560504458E+02 -0.14361651106E+02  0.15889634184E+02  0.40659143687E+02  0.00000000000E+00 0. -1.
         11    1    3    3    0    0  0.25393490572E+02  0.74424958693E+01 -0.12201109416E+02  0.29139100525E+02  0.51100000000E-03 0. -1.
        -11    1    3    3    0    0  0.84885874120E+01  0.34856169846E+01  0.60835833891E+01  0.11009796961E+02  0.51100000000E-03 0.  1.
        -12    1    3    3    0    0  0.67842647386E+00  0.34335382523E+01 -0.97721081571E+01  0.10379958827E+02  0.00000000000E+00 0.  1.
</event>
<event>
 7    1  0.2966651E-011  0.5052886E+02  0.7816164E-02  0.1300439E+00
        -11   -1    0    0    0    0  0.00000000000E+00  0.00000000000E+00  0.45593999997E+02  0.45594000000E+02  0.51100000000E-03 0. -1.
         11   -1    0    0    0    0 -0.00000000000E+00 -0.00000000000E+00 -0.45593999997E+02  0.45594000000E+02  0.51100000000E-03 0.  1.
    9900012    2    1    2    0    0  0.38660310313E+02 -0.45561479143E+01 -0.11738301060E+02  0.50528858481E+02  0.29999995838E+02 0.  0.
         12    1    1    2    0    0 -0.38660310313E+02  0.45561479143E+01  0.11738301060E+02  0.40659141519E+02  0.00000000000E+00 0. -1.
         11    1    3    3    0    0  0.56963760121E+00 -0.59924111063E+01  0.25347849009E+01  0.65313561087E+01  0.51100000000E-03 0. -1.
        -11    1    3    3    0    0  0.11393891961E+02 -0.44878862942E+01 -0.10991291035E+02  0.16455101832E+02  0.51100000000E-03 0.  1.
         12    1    3    3    0    0  0.26696780751E+02  0.59241494862E+01 -0.32817949258E+01  0.27542400540E+02  0.00000000000E+00 0. -1.
</event>
<event>
 7    1  0.2966651E-011  0.5052887E+02  0.7816164E-02  0.1300439E+00
        -11   -1    0    0    0    0  0.00000000000E+00  0.00000000000E+00  0.45593999997E+02  0.45594000000E+02  0.51100000000E-03 0.  1.
         11   -1    0    0    0    0 -0.00000000000E+00 -0.00000000000E+00 -0.45593999997E+02  0.45594000000E+02  0.51100000000E-03 0. -1.
    9900012    2    1    2    0    0 -0.61474302262E+01 -0.32247422024E+02  0.23989117148E+02  0.50528869818E+02  0.30000030300E+02 0.  0.
         12    1    1    2    0    0  0.61474302262E+01  0.32247422024E+02 -0.23989117148E+02  0.40659130182E+02  0.00000000000E+00 0. -1.
         11    1    3    3    0    0 -0.90395498852E+01 -0.25832646583E+01  0.10711345462E+02  0.14252004781E+02  0.51100000000E-03 0. -1.
        -11    1    3    3    0    0  0.59419301636E+01 -0.55479087736E+01  0.79931865397E+01  0.11400739325E+02  0.51100000000E-03 0.  1.
        -12    1    3    3    0    0 -0.30498105046E+01 -0.24116248592E+02  0.52845851463E+01  0.24876125712E+02  0.00000000000E+00 0.  1.
</event>
<event>
 7    1  0.2966651E-011  0.5052884E+02  0.7816164E-02  0.1300439E+00
        -11   -1    0    0    0    0  0.00000000000E+00  0.00000000000E+00  0.45593999997E+02  0.45594000000E+02  0.51100000000E-03 0. -1.
         11   -1    0    0    0    0 -0.00000000000E+00 -0.00000000000E+00 -0.45593999997E+02  0.45594000000E+02  0.51100000000E-03 0.  1.
    9900012    2    1    2    0    0  0.15155433298E+02 -0.42608011105E+01 -0.37487676963E+02  0.50528837335E+02  0.29999931564E+02 0.  0.
         12    1    1    2    0    0 -0.15155433298E+02  0.42608011105E+01  0.37487676963E+02  0.40659162665E+02  0.00000000000E+00 0. -1.
         11    1    3    3    0    0  0.89541624516E+01  0.11228249026E+02 -0.11836996103E+02  0.18610886019E+02  0.51100000000E-03 0. -1.
        -11    1    3    3    0    0  0.28489301520E+01 -0.13626504764E+02 -0.23994779225E+02  0.27740718545E+02  0.51100000000E-03 0.  1.
         12    1    3    3    0    0  0.33523406947E+01 -0.18625453726E+01 -0.16559016349E+01  0.41772327710E+01  0.00000000000E+00 0. -1.
</event>
<event>
 7    1  0.2966651E-011  0.5052886E+02  0.7816164E-02  0.1300439E+00
        -11   -1    0    0    0    0  0.00000000000E+00  0.00000000000E+00  0.45593999997E+02  0.45594000000E+02  0.51100000000E-03 0. -1.
         11   -1    0    0    0    0 -0.00000000000E+00 -0.00000000000E+00 -0.45593999997E+02  0.45594000000E+02  0.51100000000E-03 0.  1.
    9900012    2    1    2    0    0 -0.26683155593E+02  0.45603408817E+01 -0.30337731193E+02  0.50528862832E+02  0.30000009063E+02 0.  0.
         12    1    1    2    0    0  0.26683155593E+02 -0.45603408817E+01  0.30337731193E+02  0.40659137168E+02  0.00000000000E+00 0. -1.
         11    1    3    3    0    0  0.43720459856E+01  0.95429566461E+00  0.12474669271E-01  0.44749996865E+01  0.51100000000E-03 0. -1.
        -11    1    3    3    0    0 -0.24987258053E+02 -0.24351613641E+01 -0.17464597807E+02  0.30582760711E+02  0.51100000000E-03 0.  1.
        -12    1    3    3    0    0 -0.60679435251E+01  0.60412065812E+01 -0.12885608055E+02  0.15471102434E+02  0.00000000000E+00 0.  1.
</event>
<event>
 7    1  0.3038432E-011  0.5052886E+02  0.7816164E-02  0.1300439E+00
        -11   -1    0    0    0    0  0.00000000000E+00  0.00000000000E+00  0.45593999997E+02  0.45594000000E+02  0.51100000000E-03 0. -1.
         11   -1    0    0    0    0 -0.00000000000E+00 -0.00000000000E+00 -0.45593999997E+02  0.45594000000E+02  0.51100000000E-03 0.  1.
    9900012    2    1    2    0    0 -0.98713518106E+01 -0.11115979748E+02 -0.37843853542E+02  0.50528857815E+02  0.29999993814E+02 0.  0.
         12    1    1    2    0    0  0.98713518106E+01  0.11115979748E+02  0.37843853542E+02  0.40659142185E+02  0.00000000000E+00 0. -1.
         11    1    3    3    0    0 -0.51741415604E+01 -0.11904316488E+01  0.13377477341E+01  0.54752568578E+01  0.51100000000E-03 0. -1.
        -11    1    3    3    0    0  0.57352433607E+01  0.77201900047E+00 -0.19511735368E+02  0.20351826628E+02  0.51100000000E-03 0.  1.
        -12    1    3    3    0    0 -0.10432453611E+02 -0.10697567100E+02 -0.19669865908E+02  0.24701774330E+02  0.00000000000E+00 0.  1.
</event>
<event>
 7    1  0.2966651E-011  0.5052887E+02  0.7816164E-02  0.1300439E+00
        -11   -1    0    0    0    0  0.00000000000E+00  0.00000000000E+00  0.45593999997E+02  0.45594000000E+02  0.51100000000E-03 0.  1.
         11   -1    0    0    0    0 -0.00000000000E+00 -0.00000000000E+00 -0.45593999997E+02  0.45594000000E+02  0.51100000000E-03 0. -1.
    9900012    2    1    2    0    0 -0.30879469626E+02  0.25656301224E+02  0.64325549337E+01  0.50528865727E+02  0.30000017864E+02 0.  0.
         12    1    1    2    0    0  0.30879469626E+02 -0.25656301224E+02 -0.64325549337E+01  0.40659134273E+02  0.00000000000E+00 0. -1.
         11    1    3    3    0    0 -0.27407763071E+02  0.13369319843E+02 -0.38626816048E+01  0.30738322971E+02  0.51100000000E-03 0. -1.
        -11    1    3    3    0    0 -0.26283523767E+01  0.92463280123E+01  0.12625157776E+02  0.15868126135E+02  0.51100000000E-03 0.  1.
        -12    1    3    3    0    0 -0.84335417793E+00  0.30406533682E+01 -0.23299212371E+01  0.39224166207E+01  0.00000000000E+00 0.  1.
</event>
<event>
 7    1  0.2966651E-011  0.5052885E+02  0.7816164E-02  0.1300439E+00
        -11   -1    0    0    0    0  0.00000000000E+00  0.00000000000E+00  0.45593999997E+02  0.45594000000E+02  0.51100000000E-03 0.  1.
         11   -1    0    0    0    0 -0.00000000000E+00 -0.00000000000E+00 -0.45593999997E+02  0.45594000000E+02  0.51100000000E-03 0. -1.
    9900012    2    1    2    0    0 -0.35934925797E+02  0.14239153056E+02  0.12613238384E+02  0.50528853989E+02  0.29999982184E+02 0.  0.
         12    1    1    2    0    0  0.35934925797E+02 -0.14239153056E+02 -0.12613238384E+02  0.40659146011E+02  0.00000000000E+00 0. -1.
         11    1    3    3    0    0 -0.10926122334E+02  0.18877470438E+02  0.49376355054E+01  0.22363346888E+02  0.51100000000E-03 0. -1.
        -11    1    3    3    0    0 -0.13944190318E+02  0.17203334903E+01  0.19730737190E+01  0.14187776821E+02  0.51100000000E-03 0.  1.
         12    1    3    3    0    0 -0.11064613145E+02 -0.63586508719E+01  0.57025291598E+01  0.13977730280E+02  0.00000000000E+00 0. -1.
</event>
<event>
 7    1  0.2966651E-011  0.5052886E+02  0.7816164E-02  0.1300439E+00
        -11   -1    0    0    0    0  0.00000000000E+00  0.00000000000E+00  0.45593999997E+02  0.45594000000E+02  0.51100000000E-03 0.  1.
         11   -1    0    0    0    0 -0.00000000000E+00 -0.00000000000E+00 -0.45593999997E+02  0.45594000000E+02  0.51100000000E-03 0. -1.
    9900012    2    1    2    0    0 -0.77859108812E+01 -0.24000905424E+02  0.31882628347E+02  0.50528857612E+02  0.29999993197E+02 0.  0.
         12    1    1    2    0    0  0.77859108812E+01  0.24000905424E+02 -0.31882628347E+02  0.40659142388E+02  0.00000000000E+00 0. -1.
         11    1    3    3    0    0 -0.11462114694E+02 -0.11501481519E+02  0.27611572916E+01  0.16470826945E+02  0.51100000000E-03 0. -1.
        -11    1    3    3    0    0  0.48300561757E+01 -0.14435880134E+02  0.26804810468E+02  0.30825670186E+02  0.51100000000E-03 0.  1.
        -12    1    3    3    0    0 -0.11538523625E+01  0.19364562290E+01  0.23166605876E+01  0.32323604811E+01  0.00000000000E+00 0.  1.
</event>
<event>
 7    1  0.2966651E-011  0.5052879E+02  0.7816164E-02  0.1300439E+00
        -11   -1    0    0    0    0  0.00000000000E+00  0.00000000000E+00  0.45593999997E+02  0.45594000000E+02  0.51100000000E-03 0.  1.
         11   -1    0    0    0    0 -0.00000000000E+00 -0.00000000000E+00 -0.45593999997E+02  0.45594000000E+02  0.51100000000E-03 0. -1.
    9900012    2    1    2    0    0  0.39257256852E+01  0.22877358092E+02  0.33382433477E+02  0.50528785788E+02  0.29999774882E+02 0.  0.
         12    1    1    2    0    0 -0.39257256852E+01 -0.22877358092E+02 -0.33382433477E+02  0.40659214212E+02  0.00000000000E+00 0. -1.
         11    1    3    3    0    0  0.93702440967E+01  0.12128224671E+02  0.46917925649E+01  0.16028356928E+02  0.51100000000E-03 0.  1.
        -11    1    3    3    0    0  0.17355210177E+01  0.84158890177E+01  0.24282479839E+02  0.25758067640E+02  0.51100000000E-03 0. -1.
         12    1    3    3    0    0 -0.71800394292E+01  0.23332444036E+01  0.44081610738E+01  0.87423612202E+01  0.00000000000E+00 0. -1.
</event>
<event>
 7    1  0.2966651E-011  0.5052886E+02  0.7816164E-02  0.1300439E+00
        -11   -1    0    0    0    0  0.00000000000E+00  0.00000000000E+00  0.45593999997E+02  0.45594000000E+02  0.51100000000E-03 0.  1.
         11   -1    0    0    0    0 -0.00000000000E+00 -0.00000000000E+00 -0.45593999997E+02  0.45594000000E+02  0.51100000000E-03 0. -1.
    9900012    2    1    2    0    0  0.36416139090E+01  0.36194839012E+02  0.18161445215E+02  0.50528858158E+02  0.29999994858E+02 0.  0.
         12    1    1    2    0    0 -0.36416139090E+01 -0.36194839012E+02 -0.18161445215E+02  0.40659141842E+02  0.00000000000E+00 0. -1.
         11    1    3    3    0    0 -0.41480841824E+01 -0.21823482079E+01  0.55092255848E+01  0.72333127190E+01  0.51100000000E-03 0. -1.
        -11    1    3    3    0    0  0.99636326207E+01  0.30106799315E+02  0.55826161149E+01  0.32200294143E+02  0.51100000000E-03 0.  1.
        -12    1    3    3    0    0 -0.21739345293E+01  0.82703879056E+01  0.70696035158E+01  0.11095251296E+02  0.00000000000E+00 0.  1.
</event>
<event>
 7    1  0.2966651E-011  0.5052886E+02  0.7816164E-02  0.1300439E+00
        -11   -1    0    0    0    0  0.00000000000E+00  0.00000000000E+00  0.45593999997E+02  0.45594000000E+02  0.51100000000E-03 0. -1.
         11   -1    0    0    0    0 -0.00000000000E+00 -0.00000000000E+00 -0.45593999997E+02  0.45594000000E+02  0.51100000000E-03 0.  1.
    9900012    2    1    2    0    0 -0.13602382343E+02 -0.15212359231E+02 -0.35167102719E+02  0.50528858440E+02  0.29999995715E+02 0.  0.
         12    1    1    2    0    0  0.13602382343E+02  0.15212359231E+02  0.35167102719E+02  0.40659141560E+02  0.00000000000E+00 0. -1.
         11    1    3    3    0    0 -0.65804088821E-01 -0.15983962268E+02 -0.68207573946E+01  0.17378553210E+02  0.51100000000E-03 0. -1.
        -11    1    3    3    0    0 -0.40366627148E+01  0.49005592215E+01 -0.14744172365E+02  0.16053060317E+02  0.51100000000E-03 0.  1.
         12    1    3    3    0    0 -0.94999155390E+01 -0.41289561844E+01 -0.13602172959E+02  0.17097244913E+02  0.00000000000E+00 0. -1.
</event>
<event>
 7    1  0.2966651E-011  0.5052886E+02  0.7816164E-02  0.1300439E+00
        -11   -1    0    0    0    0  0.00000000000E+00  0.00000000000E+00  0.45593999997E+02  0.45594000000E+02  0.51100000000E-03 0.  1.
         11   -1    0    0    0    0 -0.00000000000E+00 -0.00000000000E+00 -0.45593999997E+02  0.45594000000E+02  0.51100000000E-03 0. -1.
    9900012    2    1    2    0    0 -0.71590584064E+01 -0.22932458105E+02  0.32802680272E+02  0.50528860990E+02  0.30000003466E+02 0.  0.
         12    1    1    2    0    0  0.71590584064E+01  0.22932458105E+02 -0.32802680272E+02  0.40659139010E+02  0.00000000000E+00 0. -1.
         11    1    3    3    0    0 -0.78017602205E+00  0.51770353468E+01  0.59752261527E+01  0.79444129704E+01  0.51100000000E-03 0. -1.
        -11    1    3    3    0    0 -0.11276238596E+02 -0.21700902083E+02  0.23310075078E+02  0.33785238026E+02  0.51100000000E-03 0.  1.
        -12    1    3    3    0    0  0.48973562115E+01 -0.64085913687E+01  0.35173790417E+01  0.87992099939E+01  0.00000000000E+00 0.  1.
</event>
<event>
 7    1  0.2966651E-011  0.5052884E+02  0.7816164E-02  0.1300439E+00
        -11   -1    0    0    0    0  0.00000000000E+00  0.00000000000E+00  0.45593999997E+02  0.45594000000E+02  0.51100000000E-03 0.  1.
         11   -1    0    0    0    0 -0.00000000000E+00 -0.00000000000E+00 -0.45593999997E+02  0.45594000000E+02  0.51100000000E-03 0. -1.
    9900012    2    1    2    0    0  0.10484651618E+02 -0.36991980718E+02  0.13222422498E+02  0.50528843421E+02  0.29999950063E+02 0.  0.
         12    1    1    2    0    0 -0.10484651618E+02  0.36991980718E+02 -0.13222422498E+02  0.40659156579E+02  0.00000000000E+00 0. -1.
         11    1    3    3    0    0  0.56604521722E+01 -0.11130661632E-01  0.91797103353E+01  0.10784615190E+02  0.51100000000E-03 0. -1.
        -11    1    3    3    0    0 -0.39475309455E+01 -0.14537296093E+02 -0.11032328932E+01  0.15104075653E+02  0.51100000000E-03 0.  1.
        -12    1    3    3    0    0  0.87717303911E+01 -0.22443553964E+02  0.51459450557E+01  0.24640152578E+02  0.00000000000E+00 0.  1.
</event>
<event>
 7    1  0.2966651E-011  0.5052884E+02  0.7816164E-02  0.1300439E+00
        -11   -1    0    0    0    0  0.00000000000E+00  0.00000000000E+00  0.45593999997E+02  0.45594000000E+02  0.51100000000E-03 0. -1.
         11   -1    0    0    0    0 -0.00000000000E+00 -0.00000000000E+00 -0.45593999997E+02  0.45594000000E+02  0.51100000000E-03 0.  1.
    9900012    2    1    2    0    0 -0.15845307073E+02 -0.92316792845E+01 -0.36288699721E+02  0.50528838842E+02  0.29999936143E+02 0.  0.
         12    1    1    2    0    0  0.15845307073E+02  0.92316792845E+01  0.36288699721E+02  0.40659161158E+02  0.00000000000E+00 0. -1.
         11    1    3    3    0    0 -0.13098302358E+02 -0.99907194154E+00 -0.12171947796E+02  0.17908656645E+02  0.51100000000E-03 0. -1.
        -11    1    3    3    0    0  0.31923588691E+00  0.47836542828E+01 -0.16602901325E+02  0.17281249738E+02  0.51100000000E-03 0.  1.
        -12    1    3    3    0    0 -0.30662406015E+01 -0.13016261626E+02 -0.75138506003E+01  0.15338932459E+02  0.00000000000E+00 0.  1.
</event>
<event>
 7    1  0.2966651E-011  0.5052885E+02  0.7816164E-02  0.1300439E+00
        -11   -1    0    0    0    0  0.00000000000E+00  0.00000000000E+00  0.45593999997E+02  0.45594000000E+02  0.51100000000E-03 0. -1.
         11   -1    0    0    0    0 -0.00000000000E+00 -0.00000000000E+00 -0.45593999997E+02  0.45594000000E+02  0.51100000000E-03 0.  1.
    9900012    2    1    2    0    0  0.12306919318E+02 -0.18471417998E+02 -0.34066299129E+02  0.50528852416E+02  0.29999977403E+02 0.  0.
         12    1    1    2    0    0 -0.12306919318E+02  0.18471417998E+02  0.34066299129E+02  0.40659147584E+02  0.00000000000E+00 0. -1.
         11    1    3    3    0    0  0.10538024999E+02  0.42745135612E+01 -0.53261377619E+01  0.12557435279E+02  0.51100000000E-03 0. -1.
        -11    1    3    3    0    0 -0.26766708191E+00 -0.66156358019E+01 -0.16000564912E+02  0.17316361064E+02  0.51100000000E-03 0.  1.
         12    1    3    3    0    0  0.20365614014E+01 -0.16130295757E+02 -0.12739596455E+02  0.20655056073E+02  0.00000000000E+00 0. -1.
</event>
<event>
 7    1  0.2966651E-011  0.5052886E+02  0.7816164E-02  0.1300439E+00
        -11   -1    0    0    0    0  0.00000000000E+00  0.00000000000E+00  0.45593999997E+02  0.45594000000E+02  0.51100000000E-03 0.  1.
         11   -1    0    0    0    0 -0.00000000000E+00 -0.00000000000E+00 -0.45593999997E+02  0.45594000000E+02  0.51100000000E-03 0. -1.
    9900012    2    1    2    0    0  0.17055855590E+02  0.80730017287E+01  0.36015136009E+02  0.50528860947E+02  0.30000003334E+02 0.  0.
         12    1    1    2    0    0 -0.17055855590E+02 -0.80730017287E+01 -0.36015136009E+02  0.40659139053E+02  0.00000000000E+00 0. -1.
         11    1    3    3    0    0 -0.88720781712E-01  0.43784770753E+01  0.70825911787E+01  0.83271862560E+01  0.51100000000E-03 0. -1.
        -11    1    3    3    0    0  0.97865767667E+01 -0.25361239593E+01 -0.15524152579E+01  0.10228343118E+02  0.51100000000E-03 0.  1.
        -12    1    3    3    0    0  0.73579996051E+01  0.62306486127E+01  0.30484960088E+02  0.31973331573E+02  0.00000000000E+00 0.  1.
</event>
<event>
 7    1  0.2966651E-011  0.5052886E+02  0.7816164E-02  0.1300439E+00
        -11   -1    0    0    0    0  0.00000000000E+00  0.00000000000E+00  0.45593999997E+02  0.45594000000E+02  0.51100000000E-03 0.  1.
         11   -1    0    0    0    0 -0.00000000000E+00 -0.00000000000E+00 -0.45593999997E+02  0.45594000000E+02  0.51100000000E-03 0. -1.
    9900012    2    1    2    0    0  0.11922583402E+02  0.11672955178E+02  0.37077753365E+02  0.50528859919E+02  0.30000000209E+02 0.  0.
         12    1    1    2    0    0 -0.11922583402E+02 -0.11672955178E+02 -0.37077753365E+02  0.40659140081E+02  0.00000000000E+00 0. -1.
         11    1    3    3    0    0 -0.26467966736E+01 -0.13809134494E+01  0.59546119776E+01  0.66610703833E+01  0.51100000000E-03 0. -1.
        -11    1    3    3    0    0  0.16099076620E+02  0.68759162542E+01  0.32893369863E+02  0.37261672984E+02  0.51100000000E-03 0.  1.
        -12    1    3    3    0    0 -0.15296965446E+01  0.61779523727E+01 -0.17702284753E+01  0.66061165516E+01  0.00000000000E+00 0.  1.
</event>
<event>
 7    1  0.2966651E-011  0.5052887E+02  0.7816164E-02  0.1300439E+00
        -11   -1    0    0    0    0  0.00000000000E+00  0.00000000000E+00  0.45593999997E+02  0.45594000000E+02  0.51100000000E-03 0.  1.
         11   -1    0    0    0    0 -0.00000000000E+00 -0.00000000000E+00 -0.45593999997E+02  0.45594000000E+02  0.51100000000E-03 0. -1.
    9900012    2    1    2    0    0 -0.58185947965E+01  0.30749284892E+02  0.25957477238E+02  0.50528865831E+02  0.30000018180E+02 0.  0.
         12    1    1    2    0    0  0.58185947965E+01 -0.30749284892E+02 -0.25957477238E+02  0.40659134169E+02  0.00000000000E+00 0. -1.
         11    1    3    3    0    0 -0.61803494577E+01 -0.27783390406E+01  0.11863002271E+02  0.13661870677E+02  0.51100000000E-03 0. -1.
        -11    1    3    3    0    0 -0.21854499637E+01  0.15902353972E+02  0.87085536753E+01  0.18261981294E+02  0.51100000000E-03 0.  1.
         12    1    3    3    0    0  0.25472046248E+01  0.17625269961E+02  0.53859212917E+01  0.18605013861E+02  0.00000000000E+00 0. -1.
</event>
<event>
 7    1  0.2966651E-011  0.5052886E+02  0.7816164E-02  0.1300439E+00
        -11   -1    0    0    0    0  0.00000000000E+00  0.00000000000E+00  0.45593999997E+02  0.45594000000E+02  0.51100000000E-03 0. -1.
         11   -1    0    0    0    0 -0.00000000000E+00 -0.00000000000E+00 -0.45593999997E+02  0.45594000000E+02  0.51100000000E-03 0.  1.
    9900012    2    1    2    0    0 -0.10751845439E+01  0.39104541395E+02  0.11083533294E+02  0.50528857242E+02  0.29999992072E+02 0.  0.
         12    1    1    2    0    0  0.10751845439E+01 -0.39104541395E+02 -0.11083533294E+02  0.40659142758E+02  0.00000000000E+00 0. -1.
         11    1    3    3    0    0 -0.29853109665E+01 -0.18102119165E+01  0.69334020823E+01  0.77627967541E+01  0.51100000000E-03 0. -1.
        -11    1    3    3    0    0 -0.18573961923E+01  0.21678620674E+02  0.72217860240E+01  0.22925241734E+02  0.51100000000E-03 0.  1.
        -12    1    3    3    0    0  0.37675226149E+01  0.19236132638E+02 -0.30716548123E+01  0.19840818754E+02  0.00000000000E+00 0.  1.
</event>
<event>
 7    1  0.2966651E-011  0.5052886E+02  0.7816164E-02  0.1300439E+00
        -11   -1    0    0    0    0  0.00000000000E+00  0.00000000000E+00  0.45593999997E+02  0.45594000000E+02  0.51100000000E-03 0. -1.
         11   -1    0    0    0    0 -0.00000000000E+00 -0.00000000000E+00 -0.45593999997E+02  0.45594000000E+02  0.51100000000E-03 0.  1.
    9900012    2    1    2    0    0 -0.29413284401E+02  0.57954949400E+01 -0.27467008513E+02  0.50528860591E+02  0.30000002251E+02 0.  0.
         12    1    1    2    0    0  0.29413284401E+02 -0.57954949400E+01  0.27467008513E+02  0.40659139409E+02  0.00000000000E+00 0. -1.
         11    1    3    3    0    0 -0.23635679600E+01  0.28025983209E+01  0.22512378409E+01  0.43022183728E+01  0.51100000000E-03 0. -1.
        -11    1    3    3    0    0 -0.16217308034E+02  0.11873908956E+02 -0.23436664214E+02  0.30875038842E+02  0.51100000000E-03 0.  1.
        -12    1    3    3    0    0 -0.10832408407E+02 -0.88810123368E+01 -0.62815821403E+01  0.15351603376E+02  0.00000000000E+00 0.  1.
</event>
<event>
 7    1  0.2966651E-011  0.5052886E+02  0.7816164E-02  0.1300439E+00
        -11   -1    0    0    0    0  0.00000000000E+00  0.00000000000E+00  0.45593999997E+02  0.45594000000E+02  0.51100000000E-03 0.  1.
         11   -1    0    0    0    0 -0.00000000000E+00 -0.00000000000E+00 -0.45593999997E+02  0.45594000000E+02  0.51100000000E-03 0. -1.
    9900012    2    1    2    0    0 -0.11724302408E+02 -0.83656328202E+01  0.38022659425E+02  0.50528859463E+02  0.29999998824E+02 0.  0.
         12    1    1    2    0    0  0.11724302408E+02  0.83656328202E+01 -0.38022659425E+02  0.40659140537E+02  0.00000000000E+00 0. -1.
         11    1    3    3    0    0 -0.46856221047E+01 -0.92579775893E+01  0.42022416688E+01  0.11194821966E+02  0.51100000000E-03 0. -1.
        -11    1    3    3    0    0 -0.97244481111E+00  0.83052350301E+01  0.24818340872E+02  0.26189169931E+02  0.51100000000E-03 0.  1.
        -12    1    3    3    0    0 -0.60662354924E+01 -0.74128902611E+01  0.90020768847E+01  0.13144867565E+02  0.00000000000E+00 0.  1.
</event>
<event>
 7    1  0.2966651E-011  0.5052885E+02  0.7816164E-02  0.1300439E+00
        -11   -1    0    0    0    0  0.00000000000E+00  0.00000000000E+00  0.45593999997E+02  0.45594000000E+02  0.51100000000E-03 0.  1.
         11   -1    0    0    0    0 -0.00000000000E+00 -0.00000000000E+00 -0.45593999997E+02  0.45594000000E+02  0.51100000000E-03 0. -1.
    9900012    2    1    2    0    0 -0.28594196400E+02 -0.25384707346E+02  0.13825894858E+02  0.50528846007E+02  0.29999957924E+02 0.  0.
         12    1    1    2    0    0  0.28594196400E+02  0.25384707346E+02 -0.13825894858E+02  0.40659153993E+02  0.00000000000E+00 0. -1.
         11    1    3    3    0    0 -0.61560209986E+01 -0.52669029565E+01 -0.40728914507E+01  0.90678170647E+01  0.51100000000E-03 0. -1.
        -11    1    3    3    0    0 -0.23541161605E+02 -0.20333206868E+02  0.21417735244E+02  0.37766982597E+02  0.51100000000E-03 0.  1.
        -12    1    3    3    0    0  0.11029862040E+01  0.21540247830E+00 -0.35189489354E+01  0.36940463456E+01  0.00000000000E+00 0.  1.
</event>
<event>
 7    1  0.2966651E-011  0.5052886E+02  0.7816164E-02  0.1300439E+00
        -11   -1    0    0    0    0  0.00000000000E+00  0.00000000000E+00  0.45593999997E+02  0.45594000000E+02  0.51100000000E-03 0.  1.
         11   -1    0    0    0    0 -0.00000000000E+00 -0.00000000000E+00 -0.45593999997E+02  0.45594000000E+02  0.51100000000E-03 0. -1.
    9900012    2    1    2    0    0  0.11323815014E+02 -0.36188260039E+02  0.14674696262E+02  0.50528860049E+02  0.30000000605E+02 0.  0.
         12    1    1    2    0    0 -0.11323815014E+02  0.36188260039E+02 -0.14674696262E+02  0.40659139951E+02  0.00000000000E+00 0. -1.
         11    1    3    3    0    0 -0.88128864116E+01 -0.78689644014E+01  0.58159031327E+01  0.13168610297E+02  0.51100000000E-03 0. -1.
        -11    1    3    3    0    0  0.10187205824E+02 -0.18926606244E+02  0.98462643699E+01  0.23642007290E+02  0.51100000000E-03 0.  1.
        -12    1    3    3    0    0  0.99494956014E+01 -0.93926893945E+01 -0.98747124008E+00  0.13718242462E+02  0.00000000000E+00 0.  1.
</event>
<event>
 7    1  0.2966651E-011  0.5052887E+02  0.7816164E-02  0.1300439E+00
        -11   -1    0    0    0    0  0.00000000000E+00  0.00000000000E+00  0.45593999997E+02  0.45594000000E+02  0.51100000000E-03 0.  1.
         11   -1    0    0    0    0 -0.00000000000E+00 -0.00000000000E+00 -0.45593999997E+02  0.45594000000E+02  0.51100000000E-03 0. -1.
    9900012    2    1    2    0    0 -0.18681521637E+02 -0.64522086657E+01  0.35532160012E+02  0.50528872581E+02  0.30000038698E+02 0.  0.
         12    1    1    2    0    0  0.18681521637E+02  0.64522086657E+01 -0.35532160012E+02  0.40659127419E+02  0.00000000000E+00 0. -1.
         11    1    3    3    0    0 -0.58629048708E+01 -0.11116747893E+02  0.16623682443E+01  0.12677507866E+02  0.51100000000E-03 0. -1.
        -11    1    3    3    0    0 -0.37790563298E+01  0.56748412534E+01  0.21093384459E+02  0.22167903784E+02  0.51100000000E-03 0.  1.
        -12    1    3    3    0    0 -0.90395604366E+01 -0.10103020261E+01  0.12776407309E+02  0.15683460931E+02  0.00000000000E+00 0.  1.
</event>
<event>
 7    1  0.2966651E-011  0.5052886E+02  0.7816164E-02  0.1300439E+00
        -11   -1    0    0    0    0  0.00000000000E+00  0.00000000000E+00  0.45593999997E+02  0.45594000000E+02  0.51100000000E-03 0. -1.
         11   -1    0    0    0    0 -0.00000000000E+00 -0.00000000000E+00 -0.45593999997E+02  0.45594000000E+02  0.51100000000E-03 0.  1.
    9900012    2    1    2    0    0 -0.32765440539E+02  0.36298215316E+01 -0.23799502674E+02  0.50528855572E+02  0.29999986997E+02 0.  0.
         12    1    1    2    0    0  0.32765440539E+02 -0.36298215316E+01  0.23799502674E+02  0.40659144428E+02  0.00000000000E+00 0. -1.
         11    1    3    3    0    0 -0.22722615975E+01  0.11364799362E+02 -0.10801060597E+02  0.15842498149E+02  0.51100000000E-03 0. -1.
        -11    1    3    3    0    0 -0.21174903147E+02 -0.30482551090E+01 -0.63443304245E+01  0.22314096695E+02  0.51100000000E-03 0.  1.
         12    1    3    3    0    0 -0.93182757947E+01 -0.46867227218E+01 -0.66541116521E+01  0.12372260729E+02  0.00000000000E+00 0. -1.
</event>
<event>
 7    1  0.2966651E-011  0.5052887E+02  0.7816164E-02  0.1300439E+00
        -11   -1    0    0    0    0  0.00000000000E+00  0.00000000000E+00  0.45593999997E+02  0.45594000000E+02  0.51100000000E-03 0. -1.
         11   -1    0    0    0    0 -0.00000000000E+00 -0.00000000000E+00 -0.45593999997E+02  0.45594000000E+02  0.51100000000E-03 0.  1.
    9900012    2    1    2    0    0 -0.24850685115E+02 -0.31108028484E+02 -0.82401013832E+01  0.50528865016E+02  0.30000015702E+02 0.  0.
         12    1    1    2    0    0  0.24850685115E+02  0.31108028484E+02  0.82401013832E+01  0.40659134984E+02  0.00000000000E+00 0. -1.
         11    1    3    3    0    0 -0.14740347829E+02 -0.33624166226E+02 -0.36447455573E+01  0.36893720047E+02  0.51100000000E-03 0. -1.
        -11    1    3    3    0    0 -0.87431056031E+01  0.27733770290E+01 -0.65248272612E+01  0.11256415361E+02  0.51100000000E-03 0.  1.
         12    1    3    3    0    0 -0.13672316827E+01 -0.25723928732E+00  0.19294714353E+01  0.23787296073E+01  0.00000000000E+00 0. -1.
</event>
<event>
 7    1  0.2966651E-011  0.5052892E+02  0.7816164E-02  0.1300439E+00
        -11   -1    0    0    0    0  0.00000000000E+00  0.00000000000E+00  0.45593999997E+02  0.45594000000E+02  0.51100000000E-03 0.  1.
         11   -1    0    0    0    0 -0.00000000000E+00 -0.00000000000E+00 -0.45593999997E+02  0.45594000000E+02  0.51100000000E-03 0. -1.
    9900012    2    1    2    0    0  0.37843607861E+02  0.14864612903E+02 -0.25553734620E+00  0.50528921407E+02  0.30000187109E+02 0.  0.
         12    1    1    2    0    0 -0.37843607861E+02 -0.14864612903E+02  0.25553734620E+00  0.40659078593E+02  0.00000000000E+00 0. -1.
         11    1    3    3    0    0  0.95883757702E+01 -0.57649466852E+01 -0.50175175698E+01  0.12261608500E+02  0.51100000000E-03 0. -1.
        -11    1    3    3    0    0  0.81419355180E+01  0.14258098238E+02  0.50137179466E+01  0.17167464788E+02  0.51100000000E-03 0.  1.
        -12    1    3    3    0    0  0.20113296573E+02  0.63714613502E+01 -0.25173772306E+00  0.21099848119E+02  0.00000000000E+00 0.  1.
</event>
<event>
 7    1  0.2966651E-011  0.5052886E+02  0.7816164E-02  0.1300439E+00
        -11   -1    0    0    0    0  0.00000000000E+00  0.00000000000E+00  0.45593999997E+02  0.45594000000E+02  0.51100000000E-03 0.  1.
         11   -1    0    0    0    0 -0.00000000000E+00 -0.00000000000E+00 -0.45593999997E+02  0.45594000000E+02  0.51100000000E-03 0. -1.
    9900012    2    1    2    0    0  0.68920480074E+00  0.23171988857E+02  0.33402842409E+02  0.50528856479E+02  0.29999989755E+02 0.  0.
         12    1    1    2    0    0 -0.68920480074E+00 -0.23171988857E+02 -0.33402842409E+02  0.40659143521E+02  0.00000000000E+00 0. -1.
         11    1    3    3    0    0 -0.35136943172E+01  0.21627773043E+02  0.18171604602E+02  0.28466011815E+02  0.51100000000E-03 0. -1.
        -11    1    3    3    0    0  0.69793827365E+01  0.19576459352E+01  0.72205173355E+00  0.72846084285E+01  0.51100000000E-03 0.  1.
         12    1    3    3    0    0 -0.27764836185E+01 -0.41343012122E+00  0.14509186073E+02  0.14778236236E+02  0.00000000000E+00 0. -1.
</event>
<event>
 7    1  0.2966651E-011  0.5052886E+02  0.7816164E-02  0.1300439E+00
        -11   -1    0    0    0    0  0.00000000000E+00  0.00000000000E+00  0.45593999997E+02  0.45594000000E+02  0.51100000000E-03 0.  1.
         11   -1    0    0    0    0 -0.00000000000E+00 -0.00000000000E+00 -0.45593999997E+02  0.45594000000E+02  0.51100000000E-03 0. -1.
    9900012    2    1    2    0    0 -0.18453401282E+01  0.19763403183E+02  0.35484760969E+02  0.50528860233E+02  0.30000001165E+02 0.  0.
         12    1    1    2    0    0  0.18453401282E+01 -0.19763403183E+02 -0.35484760969E+02  0.40659139767E+02  0.00000000000E+00 0. -1.
         11    1    3    3    0    0 -0.76023681010E+01  0.15737229936E+02  0.22512913811E+02  0.28500661314E+02  0.51100000000E-03 0. -1.
        -11    1    3    3    0    0  0.36225942077E+01 -0.45427202249E+01  0.11756915529E+02  0.13114288347E+02  0.51100000000E-03 0.  1.
        -12    1    3    3    0    0  0.21344337651E+01  0.85688934718E+01  0.12149316284E+01  0.89139105723E+01  0.00000000000E+00 0.  1.
</event>
<event>
 7    1  0.2966651E-011  0.5052887E+02  0.7816164E-02  0.1300439E+00
        -11   -1    0    0    0    0  0.00000000000E+00  0.00000000000E+00  0.45593999997E+02  0.45594000000E+02  0.51100000000E-03 0. -1.
         11   -1    0    0    0    0 -0.00000000000E+00 -0.00000000000E+00 -0.45593999997E+02  0.45594000000E+02  0.51100000000E-03 0.  1.
    9900012    2    1    2    0    0 -0.31388171402E+02  0.16719952889E+02 -0.19707637707E+02  0.50528866800E+02  0.30000021125E+02 0.  0.
         12    1    1    2    0    0  0.31388171402E+02 -0.16719952889E+02  0.19707637707E+02  0.40659133200E+02  0.00000000000E+00 0. -1.
         11    1    3    3    0    0 -0.21365526653E+01  0.17800121001E+01 -0.82272203745E+01  0.86844951333E+01  0.51100000000E-03 0. -1.
        -11    1    3    3    0    0 -0.55151510090E+01  0.18214200725E+01  0.69475686295E+01  0.90555602728E+01  0.51100000000E-03 0.  1.
        -12    1    3    3    0    0 -0.23736467728E+02  0.13118520717E+02 -0.18427985962E+02  0.32788811394E+02  0.00000000000E+00 0.  1.
</event>
<event>
 7    1  0.2966651E-011  0.5052884E+02  0.7816164E-02  0.1300439E+00
        -11   -1    0    0    0    0  0.00000000000E+00  0.00000000000E+00  0.45593999997E+02  0.45594000000E+02  0.51100000000E-03 0.  1.
         11   -1    0    0    0    0 -0.00000000000E+00 -0.00000000000E+00 -0.45593999997E+02  0.45594000000E+02  0.51100000000E-03 0. -1.
    9900012    2    1    2    0    0  0.26655894575E+02 -0.30562846687E+02  0.29227700173E+01  0.50528844847E+02  0.29999954398E+02 0.  0.
         12    1    1    2    0    0 -0.26655894575E+02  0.30562846687E+02 -0.29227700173E+01  0.40659155153E+02  0.00000000000E+00 0. -1.
         11    1    3    3    0    0  0.12101182607E+02 -0.20005905092E+02 -0.12366256699E+02  0.26449936938E+02  0.51100000000E-03 0. -1.
        -11    1    3    3    0    0  0.12517830061E+02 -0.68268459186E+01  0.12754240096E+02  0.19130408655E+02  0.51100000000E-03 0.  1.
         12    1    3    3    0    0  0.20368819065E+01 -0.37300956760E+01  0.25347866208E+01  0.49484992539E+01  0.00000000000E+00 0. -1.
</event>
<event>
 7    1  0.2966651E-011  0.5052885E+02  0.7816164E-02  0.1300439E+00
        -11   -1    0    0    0    0  0.00000000000E+00  0.00000000000E+00  0.45593999997E+02  0.45594000000E+02  0.51100000000E-03 0. -1.
         11   -1    0    0    0    0 -0.00000000000E+00 -0.00000000000E+00 -0.45593999997E+02  0.45594000000E+02  0.51100000000E-03 0.  1.
    9900012    2    1    2    0    0  0.16664468044E+01 -0.11639061138E+02 -0.38921990866E+02  0.50528853894E+02  0.29999981896E+02 0.  0.
         12    1    1    2    0    0 -0.16664468044E+01  0.11639061138E+02  0.38921990866E+02  0.40659146106E+02  0.00000000000E+00 0. -1.
         11    1    3    3    0    0 -0.10917477820E+02 -0.97185814558E+01 -0.12646458175E+02  0.19328089717E+02  0.51100000000E-03 0. -1.
        -11    1    3    3    0    0  0.18530075897E+01  0.14193718629E+01 -0.15351046491E+02  0.15527487957E+02  0.51100000000E-03 0.  1.
         12    1    3    3    0    0  0.10730917035E+02 -0.33398515451E+01 -0.10924486200E+02  0.15673276220E+02  0.00000000000E+00 0. -1.
</event>
<event>
 7    1  0.2966651E-011  0.5052886E+02  0.7816164E-02  0.1300439E+00
        -11   -1    0    0    0    0  0.00000000000E+00  0.00000000000E+00  0.45593999997E+02  0.45594000000E+02  0.51100000000E-03 0.  1.
         11   -1    0    0    0    0 -0.00000000000E+00 -0.00000000000E+00 -0.45593999997E+02  0.45594000000E+02  0.51100000000E-03 0. -1.
    9900012    2    1    2    0    0  0.40656920866E+02 -0.27030095999E+00 -0.32722516004E+00  0.50528863840E+02  0.30000012129E+02 0.  0.
         12    1    1    2    0    0 -0.40656920866E+02  0.27030095999E+00  0.32722516004E+00  0.40659136160E+02  0.00000000000E+00 0. -1.
         11    1    3    3    0    0 -0.34845961892E+01 -0.38499117963E+01 -0.21818231865E+01  0.56324580885E+01  0.51100000000E-03 0. -1.
        -11    1    3    3    0    0  0.29954953886E+02  0.39518634063E+01  0.42246067228E+01  0.30508421607E+02  0.51100000000E-03 0.  1.
         12    1    3    3    0    0  0.14186563169E+02 -0.37225256998E+00 -0.23700086964E+01  0.14387984145E+02  0.00000000000E+00 0. -1.
</event>
<event>
 7    1  0.2966651E-011  0.5052891E+02  0.7816164E-02  0.1300439E+00
        -11   -1    0    0    0    0  0.00000000000E+00  0.00000000000E+00  0.45593999997E+02  0.45594000000E+02  0.51100000000E-03 0. -1.
         11   -1    0    0    0    0 -0.00000000000E+00 -0.00000000000E+00 -0.45593999997E+02  0.45594000000E+02  0.51100000000E-03 0.  1.
    9900012    2    1    2    0    0  0.19863381441E+02  0.27064326007E+02 -0.22937528702E+02  0.50528906461E+02  0.30000141678E+02 0.  0.
         12    1    1    2    0    0 -0.19863381441E+02 -0.27064326007E+02  0.22937528702E+02  0.40659093539E+02  0.00000000000E+00 0. -1.
         11    1    3    3    0    0  0.13096963117E+02 -0.24360669733E+00 -0.85407217021E+01  0.15637573807E+02  0.51100000000E-03 0. -1.
        -11    1    3    3    0    0  0.32253045115E+00  0.22020117868E+02 -0.54985025037E+01  0.22698527416E+02  0.51100000000E-03 0.  1.
        -12    1    3    3    0    0  0.64438878727E+01  0.52878148365E+01 -0.88983044960E+01  0.12192805238E+02  0.00000000000E+00 0.  1.
</event>
<event>
 7    1  0.2966651E-011  0.5052885E+02  0.7816164E-02  0.1300439E+00
        -11   -1    0    0    0    0  0.00000000000E+00  0.00000000000E+00  0.45593999997E+02  0.45594000000E+02  0.51100000000E-03 0.  1.
         11   -1    0    0    0    0 -0.00000000000E+00 -0.00000000000E+00 -0.45593999997E+02  0.45594000000E+02  0.51100000000E-03 0. -1.
    9900012    2    1    2    0    0 -0.31386044911E+02 -0.56176386006E+01  0.25229440790E+02  0.50528851445E+02  0.29999974452E+02 0.  0.
         12    1    1    2    0    0  0.31386044911E+02  0.56176386006E+01 -0.25229440790E+02  0.40659148555E+02  0.00000000000E+00 0. -1.
         11    1    3    3    0    0  0.18008720502E+01 -0.34740116906E+01 -0.92604942706E+00  0.40211273507E+01  0.51100000000E-03 0. -1.
        -11    1    3    3    0    0 -0.21005689025E+02 -0.96869761936E+01  0.21113749134E+02  0.31318794389E+02  0.51100000000E-03 0.  1.
        -12    1    3    3    0    0 -0.12181227936E+02  0.75433492836E+01  0.50417410837E+01  0.15188929706E+02  0.00000000000E+00 0.  1.
</event>
<event>
 7    1  0.2966651E-011  0.5052890E+02  0.7816164E-02  0.1300439E+00
        -11   -1    0    0    0    0  0.00000000000E+00  0.00000000000E+00  0.45593999997E+02  0.45594000000E+02  0.51100000000E-03 0.  1.
         11   -1    0    0    0    0 -0.00000000000E+00 -0.00000000000E+00 -0.45593999997E+02  0.45594000000E+02  0.51100000000E-03 0. -1.
    9900012    2    1    2    0    0  0.32618993047E+02 -0.16344515962E+02  0.17944934363E+02  0.50528897960E+02  0.30000115838E+02 0.  0.
         12    1    1    2    0    0 -0.32618993047E+02  0.16344515962E+02 -0.17944934363E+02  0.40659102040E+02  0.00000000000E+00 0. -1.
         11    1    3    3    0    0 -0.31492050526E+01 -0.57248235021E+01  0.91900629908E+01  0.11276007921E+02  0.51100000000E-03 0. -1.
        -11    1    3    3    0    0  0.26595940280E+02 -0.63058903425E+01  0.98588081255E+01  0.29056916394E+02  0.51100000000E-03 0.  1.
         12    1    3    3    0    0  0.91722578192E+01 -0.43138021178E+01 -0.11039367538E+01  0.10195973645E+02  0.00000000000E+00 0. -1.
</event>
<event>
 7    1  0.2966651E-011  0.5052886E+02  0.7816164E-02  0.1300439E+00
        -11   -1    0    0    0    0  0.00000000000E+00  0.00000000000E+00  0.45593999997E+02  0.45594000000E+02  0.51100000000E-03 0.  1.
         11   -1    0    0    0    0 -0.00000000000E+00 -0.00000000000E+00 -0.45593999997E+02  0.45594000000E+02  0.51100000000E-03 0. -1.
    9900012    2    1    2    0    0 -0.14331911451E+02 -0.33491783718E+02 -0.18057206853E+02  0.50528856111E+02  0.29999988635E+02 0.  0.
         12    1    1    2    0    0  0.14331911451E+02  0.33491783718E+02  0.18057206853E+02  0.40659143889E+02  0.00000000000E+00 0. -1.
         11    1    3    3    0    0  0.57436097398E+01 -0.28523805851E+00  0.66223444266E+00  0.57886931436E+01  0.51100000000E-03 0. -1.
        -11    1    3    3    0    0 -0.67607169140E+01 -0.15943296191E+02 -0.14383298165E+02  0.22511669263E+02  0.51100000000E-03 0.  1.
         12    1    3    3    0    0 -0.13314804277E+02 -0.17263249469E+02 -0.43361431303E+01  0.22228493705E+02  0.00000000000E+00 0. -1.
</event>
<event>
 7    1  0.2966651E-011  0.5052892E+02  0.7816164E-02  0.1300439E+00
        -11   -1    0    0    0    0  0.00000000000E+00  0.00000000000E+00  0.45593999997E+02  0.45594000000E+02  0.51100000000E-03 0. -1.
         11   -1    0    0    0    0 -0.00000000000E+00 -0.00000000000E+00 -0.45593999997E+02  0.45594000000E+02  0.51100000000E-03 0.  1.
    9900012    2    1    2    0    0 -0.21902840776E+02 -0.28398987687E+02 -0.19155247522E+02  0.50528924219E+02  0.30000195657E+02 0.  0.
         12    1    1    2    0    0  0.21902840776E+02  0.28398987687E+02  0.19155247522E+02  0.40659075781E+02  0.00000000000E+00 0. -1.
         11    1    3    3    0    0 -0.23817521799E+02 -0.18863861627E+02 -0.55165215000E+01  0.30879631310E+02  0.51100000000E-03 0. -1.
        -11    1    3    3    0    0 -0.29451907308E+01 -0.37981259980E+01 -0.10411297971E+02  0.11467128465E+02  0.51100000000E-03 0.  1.
         12    1    3    3    0    0  0.48598717534E+01 -0.57370000616E+01 -0.32274280508E+01  0.81821644440E+01  0.00000000000E+00 0. -1.
</event>
<event>
 7    1  0.2966651E-011  0.5052886E+02  0.7816164E-02  0.1300439E+00
        -11   -1    0    0    0    0  0.00000000000E+00  0.00000000000E+00  0.45593999997E+02  0.45594000000E+02  0.51100000000E-03 0. -1.
         11   -1    0    0    0    0 -0.00000000000E+00 -0.00000000000E+00 -0.45593999997E+02  0.45594000000E+02  0.51100000000E-03 0.  1.
    9900012    2    1    2    0    0 -0.29002235454E+02  0.26981318016E+02 -0.91675886914E+01  0.50528857539E+02  0.29999992976E+02 0.  0.
         12    1    1    2    0    0  0.29002235454E+02 -0.26981318016E+02  0.91675886914E+01  0.40659142461E+02  0.00000000000E+00 0. -1.
         11    1    3    3    0    0 -0.20863204589E+02  0.59475068486E+01 -0.81750339812E+00  0.21709777878E+02  0.51100000000E-03 0. -1.
        -11    1    3    3    0    0 -0.61760080794E-01  0.19288963924E+02 -0.64603657948E+01  0.20342179579E+02  0.51100000000E-03 0.  1.
        -12    1    3    3    0    0 -0.80772707841E+01  0.17448472441E+01 -0.18897194985E+01  0.84769000824E+01  0.00000000000E+00 0.  1.
</event>
<event>
 7    1  0.2966651E-011  0.5052886E+02  0.7816164E-02  0.1300439E+00
        -11   -1    0    0    0    0  0.00000000000E+00  0.00000000000E+00  0.45593999997E+02  0.45594000000E+02  0.51100000000E-03 0.  1.
         11   -1    0    0    0    0 -0.00000000000E+00 -0.00000000000E+00 -0.45593999997E+02  0.45594000000E+02  0.51100000000E-03 0. -1.
    9900012    2    1    2    0    0  0.11101337463E+02 -0.15539350433E+02  0.35895047330E+02  0.50528861690E+02  0.30000005592E+02 0.  0.
         12    1    1    2    0    0 -0.11101337463E+02  0.15539350433E+02 -0.35895047330E+02  0.40659138310E+02  0.00000000000E+00 0. -1.
         11    1    3    3    0    0 -0.28645088407E+01  0.48137486778E+01 -0.13320531992E+01  0.57577732864E+01  0.51100000000E-03 0. -1.
        -11    1    3    3    0    0  0.84468463127E+01 -0.14524659361E+02  0.26393302790E+02  0.31287719230E+02  0.51100000000E-03 0.  1.
         12    1    3    3    0    0  0.55189999913E+01 -0.58284397495E+01  0.10833797739E+02  0.13483369173E+02  0.00000000000E+00 0. -1.
</event>
<event>
 7    1  0.2966651E-011  0.5052886E+02  0.7816164E-02  0.1300439E+00
        -11   -1    0    0    0    0  0.00000000000E+00  0.00000000000E+00  0.45593999997E+02  0.45594000000E+02  0.51100000000E-03 0.  1.
         11   -1    0    0    0    0 -0.00000000000E+00 -0.00000000000E+00 -0.45593999997E+02  0.45594000000E+02  0.51100000000E-03 0. -1.
    9900012    2    1    2    0    0 -0.63394143626E+00 -0.31741377622E+02  0.25401753295E+02  0.50528855819E+02  0.29999987747E+02 0.  0.
         12    1    1    2    0    0  0.63394143626E+00  0.31741377622E+02 -0.25401753295E+02  0.40659144181E+02  0.00000000000E+00 0. -1.
         11    1    3    3    0    0  0.43202329827E+01 -0.36985565205E+01 -0.39836319167E+00  0.57010899707E+01  0.51100000000E-03 0. -1.
        -11    1    3    3    0    0 -0.45454391412E+01 -0.31333704988E+02  0.18162309868E+02  0.36501117589E+02  0.51100000000E-03 0.  1.
        -12    1    3    3    0    0 -0.40873527781E+00  0.32908838864E+01  0.76378066191E+01  0.83266482591E+01  0.00000000000E+00 0.  1.
</event>
<event>
 7    1  0.2966651E-011  0.5052886E+02  0.7816164E-02  0.1300439E+00
        -11   -1    0    0    0    0  0.00000000000E+00  0.00000000000E+00  0.45593999997E+02  0.45594000000E+02  0.51100000000E-03 0. -1.
         11   -1    0    0    0    0 -0.00000000000E+00 -0.00000000000E+00 -0.45593999997E+02  0.45594000000E+02  0.51100000000E-03 0.  1.
    9900012    2    1    2    0    0 -0.32014062891E+02  0.25042036485E+02  0.10779041216E+01  0.50528859682E+02  0.29999999488E+02 0.  0.
         12    1    1    2    0    0  0.32014062891E+02 -0.25042036485E+02 -0.10779041216E+01  0.40659140318E+02  0.00000000000E+00 0. -1.
         11    1    3    3    0    0 -0.74458906048E+01 -0.21652464155E+01 -0.32782789999E+01  0.84188296337E+01  0.51100000000E-03 0.  1.
        -11    1    3    3    0    0 -0.11674929076E+02  0.26426717822E+02  0.41831494640E+01  0.29192021572E+02  0.51100000000E-03 0. -1.
         12    1    3    3    0    0 -0.12893243211E+02  0.78056507879E+00  0.17303365750E+00  0.12918008476E+02  0.00000000000E+00 0. -1.
</event>
<event>
 7    1  0.2966651E-011  0.5052886E+02  0.7816164E-02  0.1300439E+00
        -11   -1    0    0    0    0  0.00000000000E+00  0.00000000000E+00  0.45593999997E+02  0.45594000000E+02  0.51100000000E-03 0.  1.
         11   -1    0    0    0    0 -0.00000000000E+00 -0.00000000000E+00 -0.45593999997E+02  0.45594000000E+02  0.51100000000E-03 0. -1.
    9900012    2    1    2    0    0 -0.25378236615E+02  0.28659071617E+02 -0.13702845727E+02  0.50528864979E+02  0.30000015589E+02 0.  0.
         12    1    1    2    0    0  0.25378236615E+02 -0.28659071617E+02  0.13702845727E+02  0.40659135021E+02  0.00000000000E+00 0. -1.
         11    1    3    3    0    0 -0.19251186177E+02  0.12356586729E+02 -0.13088823440E+02  0.26355468201E+02  0.51100000000E-03 0. -1.
        -11    1    3    3    0    0  0.29666954568E+01  0.12875587066E+02 -0.41229832059E+01  0.13841279384E+02  0.51100000000E-03 0.  1.
        -12    1    3    3    0    0 -0.90937458953E+01  0.34268978231E+01  0.35089609188E+01  0.10332117393E+02  0.00000000000E+00 0.  1.
</event>
<event>
 7    1  0.2966651E-011  0.5052887E+02  0.7816164E-02  0.1300439E+00
        -11   -1    0    0    0    0  0.00000000000E+00  0.00000000000E+00  0.45593999997E+02  0.45594000000E+02  0.51100000000E-03 0.  1.
         11   -1    0    0    0    0 -0.00000000000E+00 -0.00000000000E+00 -0.45593999997E+02  0.45594000000E+02  0.51100000000E-03 0. -1.
    9900012    2    1    2    0    0 -0.26274623794E+02  0.79713363618E+01  0.29987782703E+02  0.50528866090E+02  0.30000018967E+02 0.  0.
         12    1    1    2    0    0  0.26274623794E+02 -0.79713363618E+01 -0.29987782703E+02  0.40659133910E+02  0.00000000000E+00 0. -1.
         11    1    3    3    0    0 -0.14047656924E+02 -0.70838863060E+01  0.24885383391E+02  0.29441474437E+02  0.51100000000E-03 0.  1.
        -11    1    3    3    0    0 -0.85507153258E+01  0.76958990712E+01  0.18941730029E+00  0.11505541025E+02  0.51100000000E-03 0. -1.
        -12    1    3    3    0    0 -0.36762515439E+01  0.73593235966E+01  0.49129820115E+01  0.95818506281E+01  0.00000000000E+00 0.  1.
</event>
<event>
 7    1  0.2966651E-011  0.5052885E+02  0.7816164E-02  0.1300439E+00
        -11   -1    0    0    0    0  0.00000000000E+00  0.00000000000E+00  0.45593999997E+02  0.45594000000E+02  0.51100000000E-03 0.  1.
         11   -1    0    0    0    0 -0.00000000000E+00 -0.00000000000E+00 -0.45593999997E+02  0.45594000000E+02  0.51100000000E-03 0. -1.
    9900012    2    1    2    0    0 -0.18376501062E+00  0.10873336117E+02  0.39177836809E+02  0.50528854597E+02  0.29999984033E+02 0.  0.
         12    1    1    2    0    0  0.18376501062E+00 -0.10873336117E+02 -0.39177836809E+02  0.40659145403E+02  0.00000000000E+00 0. -1.
         11    1    3    3    0    0 -0.25130957873E+01 -0.61110000926E+00 -0.16399541870E+01  0.30624408001E+01  0.51100000000E-03 0. -1.
        -11    1    3    3    0    0 -0.17583709540E+01  0.15514421549E+02  0.37977573476E+02  0.41061968192E+02  0.51100000000E-03 0.  1.
         12    1    3    3    0    0  0.40877017307E+01 -0.40299854231E+01  0.28402175200E+01  0.64044456052E+01  0.00000000000E+00 0. -1.
</event>
<event>
 7    1  0.2966651E-011  0.5052886E+02  0.7816164E-02  0.1300439E+00
        -11   -1    0    0    0    0  0.00000000000E+00  0.00000000000E+00  0.45593999997E+02  0.45594000000E+02  0.51100000000E-03 0. -1.
         11   -1    0    0    0    0 -0.00000000000E+00 -0.00000000000E+00 -0.45593999997E+02  0.45594000000E+02  0.51100000000E-03 0.  1.
    9900012    2    1    2    0    0  0.39833721731E+02  0.41872866588E+01 -0.69933590607E+01  0.50528858009E+02  0.29999994403E+02 0.  0.
         12    1    1    2    0    0 -0.39833721731E+02 -0.41872866588E+01  0.69933590607E+01  0.40659141991E+02  0.00000000000E+00 0. -1.
         11    1    3    3    0    0 -0.16844183633E+01  0.23960284007E+01 -0.33653211806E+01  0.44613455626E+01  0.51100000000E-03 0. -1.
        -11    1    3    3    0    0  0.36808718213E+02  0.65482012043E+01 -0.77841527147E+01  0.38188397573E+02  0.51100000000E-03 0.  1.
        -12    1    3    3    0    0  0.47094218819E+01 -0.47569429462E+01  0.41561148346E+01  0.78791148725E+01  0.00000000000E+00 0.  1.
</event>
<event>
 7    1  0.2966651E-011  0.5052886E+02  0.7816164E-02  0.1300439E+00
        -11   -1    0    0    0    0  0.00000000000E+00  0.00000000000E+00  0.45593999997E+02  0.45594000000E+02  0.51100000000E-03 0. -1.
         11   -1    0    0    0    0 -0.00000000000E+00 -0.00000000000E+00 -0.45593999997E+02  0.45594000000E+02  0.51100000000E-03 0.  1.
    9900012    2    1    2    0    0 -0.40071377335E+02  0.28096979204E+00 -0.68826802839E+01  0.50528861871E+02  0.30000006142E+02 0.  0.
         12    1    1    2    0    0  0.40071377335E+02 -0.28096979204E+00  0.68826802839E+01  0.40659138129E+02  0.00000000000E+00 0. -1.
         11    1    3    3    0    0 -0.61282707890E+00 -0.33795072190E+01  0.26618930287E+00  0.34449213457E+01  0.51100000000E-03 0. -1.
        -11    1    3    3    0    0 -0.31278543129E+02  0.12040985576E+02 -0.30030180793E+00  0.33517499539E+02  0.51100000000E-03 0.  1.
        -12    1    3    3    0    0 -0.81800071272E+01 -0.83805085650E+01 -0.68485677788E+01  0.13566440986E+02  0.00000000000E+00 0.  1.
</event>
<event>
 7    1  0.2966651E-011  0.5052886E+02  0.7816164E-02  0.1300439E+00
        -11   -1    0    0    0    0  0.00000000000E+00  0.00000000000E+00  0.45593999997E+02  0.45594000000E+02  0.51100000000E-03 0. -1.
         11   -1    0    0    0    0 -0.00000000000E+00 -0.00000000000E+00 -0.45593999997E+02  0.45594000000E+02  0.51100000000E-03 0.  1.
    9900012    2    1    2    0    0  0.10335703377E+02 -0.36258555372E+02 -0.15220239352E+02  0.50528864644E+02  0.30000014573E+02 0.  0.
         12    1    1    2    0    0 -0.10335703377E+02  0.36258555372E+02  0.15220239352E+02  0.40659135356E+02  0.00000000000E+00 0. -1.
         11    1    3    3    0    0 -0.48899423921E+01 -0.10822165710E+02 -0.12114027265E+02  0.16964093376E+02  0.51100000000E-03 0. -1.
        -11    1    3    3    0    0  0.29819293152E+01 -0.10799685871E+02  0.56746516007E+01  0.12558932614E+02  0.51100000000E-03 0.  1.
         12    1    3    3    0    0  0.12243716454E+02 -0.14636703792E+02 -0.87808636875E+01  0.21005838655E+02  0.00000000000E+00 0. -1.
</event>
<event>
 7    1  0.2966651E-011  0.5052886E+02  0.7816164E-02  0.1300439E+00
        -11   -1    0    0    0    0  0.00000000000E+00  0.00000000000E+00  0.45593999997E+02  0.45594000000E+02  0.51100000000E-03 0.  1.
         11   -1    0    0    0    0 -0.00000000000E+00 -0.00000000000E+00 -0.45593999997E+02  0.45594000000E+02  0.51100000000E-03 0. -1.
    9900012    2    1    2    0    0 -0.15491297574E+02 -0.90828010967E+01  0.36478593636E+02  0.50528863635E+02  0.30000011503E+02 0.  0.
         12    1    1    2    0    0  0.15491297574E+02  0.90828010967E+01 -0.36478593636E+02  0.40659136365E+02  0.00000000000E+00 0. -1.
         11    1    3    3    0    0 -0.51630783990E+01  0.22334350582E+01  0.18847960289E+00  0.56285997846E+01  0.51100000000E-03 0. -1.
        -11    1    3    3    0    0 -0.15203521342E+02 -0.68990611372E+01  0.34097819565E+02  0.37965845245E+02  0.51100000000E-03 0.  1.
        -12    1    3    3    0    0  0.48753021669E+01 -0.44171750178E+01  0.21922944682E+01  0.69344186052E+01  0.00000000000E+00 0.  1.
</event>
<event>
 7    1  0.2966651E-011  0.5052886E+02  0.7816164E-02  0.1300439E+00
        -11   -1    0    0    0    0  0.00000000000E+00  0.00000000000E+00  0.45593999997E+02  0.45594000000E+02  0.51100000000E-03 0. -1.
         11   -1    0    0    0    0 -0.00000000000E+00 -0.00000000000E+00 -0.45593999997E+02  0.45594000000E+02  0.51100000000E-03 0.  1.
    9900012    2    1    2    0    0  0.26736280715E+02 -0.96172640426E+01 -0.29083415886E+02  0.50528861375E+02  0.30000004635E+02 0.  0.
         12    1    1    2    0    0 -0.26736280715E+02  0.96172640426E+01  0.29083415886E+02  0.40659138625E+02  0.00000000000E+00 0. -1.
         11    1    3    3    0    0  0.15335543713E+01  0.26321008076E+01  0.15036542519E+01  0.33971635288E+01  0.51100000000E-03 0. -1.
        -11    1    3    3    0    0  0.23778181094E+02 -0.17560555929E+02 -0.28996436959E+02  0.41407346900E+02  0.51100000000E-03 0.  1.
        -12    1    3    3    0    0  0.14245452497E+01  0.53111910792E+01 -0.15906331790E+01  0.57243509465E+01  0.00000000000E+00 0.  1.
</event>
<event>
 7    1  0.2966651E-011  0.5052885E+02  0.7816164E-02  0.1300439E+00
        -11   -1    0    0    0    0  0.00000000000E+00  0.00000000000E+00  0.45593999997E+02  0.45594000000E+02  0.51100000000E-03 0.  1.
         11   -1    0    0    0    0 -0.00000000000E+00 -0.00000000000E+00 -0.45593999997E+02  0.45594000000E+02  0.51100000000E-03 0. -1.
    9900012    2    1    2    0    0 -0.21629909814E+02  0.16715232464E+02  0.30098415936E+02  0.50528848056E+02  0.29999964152E+02 0.  0.
         12    1    1    2    0    0  0.21629909814E+02 -0.16715232464E+02 -0.30098415936E+02  0.40659151944E+02  0.00000000000E+00 0. -1.
         11    1    3    3    0    0  0.46398902400E+01 -0.33688802387E+01  0.31811493991E+01  0.65572591273E+01  0.51100000000E-03 0. -1.
        -11    1    3    3    0    0 -0.19258032948E+02  0.14507250481E+02  0.25148839245E+02  0.34839579004E+02  0.51100000000E-03 0.  1.
         12    1    3    3    0    0 -0.70117671057E+01  0.55768622217E+01  0.17684272924E+01  0.91320099251E+01  0.00000000000E+00 0. -1.
</event>
<event>
 7    1  0.2966651E-011  0.5052886E+02  0.7816164E-02  0.1300439E+00
        -11   -1    0    0    0    0  0.00000000000E+00  0.00000000000E+00  0.45593999997E+02  0.45594000000E+02  0.51100000000E-03 0.  1.
         11   -1    0    0    0    0 -0.00000000000E+00 -0.00000000000E+00 -0.45593999997E+02  0.45594000000E+02  0.51100000000E-03 0. -1.
    9900012    2    1    2    0    0 -0.52103016204E+01 -0.34167084151E+02  0.21415621980E+02  0.50528858996E+02  0.29999997405E+02 0.  0.
         12    1    1    2    0    0  0.52103016204E+01  0.34167084151E+02 -0.21415621980E+02  0.40659141004E+02  0.00000000000E+00 0. -1.
         11    1    3    3    0    0 -0.75156007933E+01  0.20626613284E+00  0.59878305818E+00  0.75422372286E+01  0.51100000000E-03 0. -1.
        -11    1    3    3    0    0  0.27831961091E+01 -0.35775174919E+02  0.18875863481E+02  0.40545129713E+02  0.51100000000E-03 0.  1.
        -12    1    3    3    0    0 -0.47789693618E+00  0.14018246347E+01  0.19409754409E+01  0.24414920541E+01  0.00000000000E+00 0.  1.
</event>
<event>
 7    1  0.2966651E-011  0.5052885E+02  0.7816164E-02  0.1300439E+00
        -11   -1    0    0    0    0  0.00000000000E+00  0.00000000000E+00  0.45593999997E+02  0.45594000000E+02  0.51100000000E-03 0. -1.
         11   -1    0    0    0    0 -0.00000000000E+00 -0.00000000000E+00 -0.45593999997E+02  0.45594000000E+02  0.51100000000E-03 0.  1.
    9900012    2    1    2    0    0 -0.16758765916E+02 -0.32008298515E+02  0.18648825195E+02  0.50528854780E+02  0.29999984591E+02 0.  0.
         12    1    1    2    0    0  0.16758765916E+02  0.32008298515E+02 -0.18648825195E+02  0.40659145220E+02  0.00000000000E+00 0. -1.
         11    1    3    3    0    0 -0.20552143991E+02 -0.23393307923E+02  0.24181650721E+02  0.39425749328E+02  0.51100000000E-03 0. -1.
        -11    1    3    3    0    0  0.37891675592E+01 -0.73619319627E+01 -0.42387269947E+01  0.93017546631E+01  0.51100000000E-03 0.  1.
         12    1    3    3    0    0  0.42105162483E-02 -0.12530586294E+01 -0.12940985316E+01  0.18013507895E+01  0.00000000000E+00 0. -1.
</event>
<event>
 7    1  0.2966651E-011  0.5052886E+02  0.7816164E-02  0.1300439E+00
        -11   -1    0    0    0    0  0.00000000000E+00  0.00000000000E+00  0.45593999997E+02  0.45594000000E+02  0.51100000000E-03 0. -1.
         11   -1    0    0    0    0 -0.00000000000E+00 -0.00000000000E+00 -0.45593999997E+02  0.45594000000E+02  0.51100000000E-03 0.  1.
    9900012    2    1    2    0    0  0.27304160770E+02 -0.26937798778E+02  0.13490874762E+02  0.50528857114E+02  0.29999991684E+02 0.  0.
         12    1    1    2    0    0 -0.27304160770E+02  0.26937798778E+02 -0.13490874762E+02  0.40659142886E+02  0.00000000000E+00 0. -1.
         11    1    3    3    0    0  0.20653189759E+02 -0.28762923816E+02  0.19598923822E+02  0.40471939030E+02  0.51100000000E-03 0. -1.
        -11    1    3    3    0    0  0.43810293475E+01  0.27547416834E+01 -0.26414959515E+01  0.58102943995E+01  0.51100000000E-03 0.  1.
         12    1    3    3    0    0  0.22699416640E+01 -0.92961664569E+00 -0.34665531079E+01  0.42466236842E+01  0.00000000000E+00 0. -1.
</event>
<event>
 7    1  0.2966651E-011  0.5052886E+02  0.7816164E-02  0.1300439E+00
        -11   -1    0    0    0    0  0.00000000000E+00  0.00000000000E+00  0.45593999997E+02  0.45594000000E+02  0.51100000000E-03 0.  1.
         11   -1    0    0    0    0 -0.00000000000E+00 -0.00000000000E+00 -0.45593999997E+02  0.45594000000E+02  0.51100000000E-03 0. -1.
    9900012    2    1    2    0    0 -0.22664819387E+02  0.33318441453E+02 -0.54178465996E+01  0.50528860308E+02  0.30000001392E+02 0.  0.
         12    1    1    2    0    0  0.22664819387E+02 -0.33318441453E+02  0.54178465996E+01  0.40659139692E+02  0.00000000000E+00 0. -1.
         11    1    3    3    0    0 -0.17501952889E+02  0.29155541710E+02 -0.10993716500E+02  0.35738295567E+02  0.51100000000E-03 0. -1.
        -11    1    3    3    0    0 -0.74784548024E+01 -0.14576786338E+01  0.31989672470E+01  0.82635043982E+01  0.51100000000E-03 0.  1.
         12    1    3    3    0    0  0.23155883038E+01  0.56205783775E+01  0.23769026537E+01  0.65270603425E+01  0.00000000000E+00 0. -1.
</event>
<event>
 7    1  0.2966651E-011  0.5052884E+02  0.7816164E-02  0.1300439E+00
        -11   -1    0    0    0    0  0.00000000000E+00  0.00000000000E+00  0.45593999997E+02  0.45594000000E+02  0.51100000000E-03 0. -1.
         11   -1    0    0    0    0 -0.00000000000E+00 -0.00000000000E+00 -0.45593999997E+02  0.45594000000E+02  0.51100000000E-03 0.  1.
    9900012    2    1    2    0    0 -0.12465190416E+02 -0.29594411751E+02 -0.24939069256E+02  0.50528839232E+02  0.29999937330E+02 0.  0.
         12    1    1    2    0    0  0.12465190416E+02  0.29594411751E+02  0.24939069256E+02  0.40659160768E+02  0.00000000000E+00 0. -1.
         11    1    3    3    0    0 -0.10004195944E+01  0.19010842578E+01  0.44370814017E+01  0.49297720380E+01  0.51100000000E-03 0. -1.
        -11    1    3    3    0    0 -0.12972038294E+02 -0.25170320799E+02 -0.24877186464E+02  0.37692084491E+02  0.51100000000E-03 0.  1.
         12    1    3    3    0    0  0.15072674717E+01 -0.63251752089E+01 -0.44989641942E+01  0.79069827036E+01  0.00000000000E+00 0. -1.
</event>
<event>
 7    1  0.2966651E-011  0.5052886E+02  0.7816164E-02  0.1300439E+00
        -11   -1    0    0    0    0  0.00000000000E+00  0.00000000000E+00  0.45593999997E+02  0.45594000000E+02  0.51100000000E-03 0. -1.
         11   -1    0    0    0    0 -0.00000000000E+00 -0.00000000000E+00 -0.45593999997E+02  0.45594000000E+02  0.51100000000E-03 0.  1.
    9900012    2    1    2    0    0  0.17221012890E+02 -0.34502813965E+02 -0.12890227660E+02  0.50528862951E+02  0.30000009426E+02 0.  0.
         12    1    1    2    0    0 -0.17221012890E+02  0.34502813965E+02  0.12890227660E+02  0.40659137049E+02  0.00000000000E+00 0. -1.
         11    1    3    3    0    0  0.11602918656E+02 -0.12638650870E+02 -0.26127640277E-01  0.17157036459E+02  0.51100000000E-03 0. -1.
        -11    1    3    3    0    0  0.38668820826E+01 -0.19433377797E+02 -0.18423784083E+02  0.27056325875E+02  0.51100000000E-03 0.  1.
        -12    1    3    3    0    0  0.17512121509E+01 -0.24307852974E+01  0.55596840627E+01  0.63155006165E+01  0.00000000000E+00 0.  1.
</event>
<event>
 7    1  0.2966651E-011  0.5052885E+02  0.7816164E-02  0.1300439E+00
        -11   -1    0    0    0    0  0.00000000000E+00  0.00000000000E+00  0.45593999997E+02  0.45594000000E+02  0.51100000000E-03 0.  1.
         11   -1    0    0    0    0 -0.00000000000E+00 -0.00000000000E+00 -0.45593999997E+02  0.45594000000E+02  0.51100000000E-03 0. -1.
    9900012    2    1    2    0    0  0.26904650676E+02 -0.29772894847E+02 -0.65483332821E+01  0.50528853866E+02  0.29999981813E+02 0.  0.
         12    1    1    2    0    0 -0.26904650676E+02  0.29772894847E+02  0.65483332821E+01  0.40659146134E+02  0.00000000000E+00 0. -1.
         11    1    3    3    0    0  0.28739737827E+00 -0.10434307663E+02 -0.74154671729E+01  0.12804160547E+02  0.51100000000E-03 0. -1.
        -11    1    3    3    0    0  0.20139258870E+02 -0.55651506414E+01 -0.48777453772E+01  0.21455839525E+02  0.51100000000E-03 0.  1.
        -12    1    3    3    0    0  0.64779944275E+01 -0.13773436542E+02  0.57448792681E+01  0.16268853794E+02  0.00000000000E+00 0.  1.
</event>
<event>
 7    1  0.2966651E-011  0.5052887E+02  0.7816164E-02  0.1300439E+00
        -11   -1    0    0    0    0  0.00000000000E+00  0.00000000000E+00  0.45593999997E+02  0.45594000000E+02  0.51100000000E-03 0.  1.
         11   -1    0    0    0    0 -0.00000000000E+00 -0.00000000000E+00 -0.45593999997E+02  0.45594000000E+02  0.51100000000E-03 0. -1.
    9900012    2    1    2    0    0 -0.13336427095E+01  0.40156164939E+02  0.62344481047E+01  0.50528873981E+02  0.30000042952E+02 0.  0.
         12    1    1    2    0    0  0.13336427095E+01 -0.40156164939E+02 -0.62344481047E+01  0.40659126019E+02  0.00000000000E+00 0. -1.
         11    1    3    3    0    0 -0.10407885384E+02  0.23494725380E+02  0.17547219432E+01  0.25756654445E+02  0.51100000000E-03 0. -1.
        -11    1    3    3    0    0  0.91399020426E+01  0.18411957534E+02  0.69895217037E+01  0.21711550002E+02  0.51100000000E-03 0.  1.
         12    1    3    3    0    0 -0.65659368459E-01 -0.17505179750E+01 -0.25097955421E+01  0.30606695340E+01  0.00000000000E+00 0. -1.
</event>
<event>
 7    1  0.2966651E-011  0.5052886E+02  0.7816164E-02  0.1300439E+00
        -11   -1    0    0    0    0  0.00000000000E+00  0.00000000000E+00  0.45593999997E+02  0.45594000000E+02  0.51100000000E-03 0.  1.
         11   -1    0    0    0    0 -0.00000000000E+00 -0.00000000000E+00 -0.45593999997E+02  0.45594000000E+02  0.51100000000E-03 0. -1.
    9900012    2    1    2    0    0 -0.25315435578E+02  0.18272161709E+02  0.26046541173E+02  0.50528862293E+02  0.30000007424E+02 0.  0.
         12    1    1    2    0    0  0.25315435578E+02 -0.18272161709E+02 -0.26046541173E+02  0.40659137707E+02  0.00000000000E+00 0. -1.
         11    1    3    3    0    0  0.22777160408E+01  0.33757941171E+01  0.10582824614E+02  0.11339318910E+02  0.51100000000E-03 0. -1.
        -11    1    3    3    0    0 -0.21587024334E+02  0.13451427259E+02  0.19290509486E+02  0.31922786084E+02  0.51100000000E-03 0.  1.
        -12    1    3    3    0    0 -0.60061272849E+01  0.14449403335E+01 -0.38267929263E+01  0.72667572982E+01  0.00000000000E+00 0.  1.
</event>
<event>
 7    1  0.2966651E-011  0.5052886E+02  0.7816164E-02  0.1300439E+00
        -11   -1    0    0    0    0  0.00000000000E+00  0.00000000000E+00  0.45593999997E+02  0.45594000000E+02  0.51100000000E-03 0.  1.
         11   -1    0    0    0    0 -0.00000000000E+00 -0.00000000000E+00 -0.45593999997E+02  0.45594000000E+02  0.51100000000E-03 0. -1.
    9900012    2    1    2    0    0  0.32470092928E+02 -0.24120434292E+02 -0.41308279719E+01  0.50528855581E+02  0.29999987023E+02 0.  0.
         12    1    1    2    0    0 -0.32470092928E+02  0.24120434292E+02  0.41308279719E+01  0.40659144419E+02  0.00000000000E+00 0. -1.
         11    1    3    3    0    0  0.43581071919E+01 -0.16154874633E+02 -0.68085620871E+01  0.18064594949E+02  0.51100000000E-03 0. -1.
        -11    1    3    3    0    0  0.28207588021E+02 -0.10178623895E+02  0.16802553750E+01  0.30034907436E+02  0.51100000000E-03 0.  1.
         12    1    3    3    0    0 -0.95602284809E-01  0.22130642362E+01  0.99747874021E+00  0.24293531953E+01  0.00000000000E+00 0. -1.
</event>
<event>
 7    1  0.2966651E-011  0.5052886E+02  0.7816164E-02  0.1300439E+00
        -11   -1    0    0    0    0  0.00000000000E+00  0.00000000000E+00  0.45593999997E+02  0.45594000000E+02  0.51100000000E-03 0.  1.
         11   -1    0    0    0    0 -0.00000000000E+00 -0.00000000000E+00 -0.45593999997E+02  0.45594000000E+02  0.51100000000E-03 0. -1.
    9900012    2    1    2    0    0 -0.12451971434E+01  0.40558852895E+02  0.25679506918E+01  0.50528862837E+02  0.30000009080E+02 0.  0.
         12    1    1    2    0    0  0.12451971434E+01 -0.40558852895E+02 -0.25679506918E+01  0.40659137163E+02  0.00000000000E+00 0. -1.
         11    1    3    3    0    0  0.91496995986E+01  0.13260797058E+02  0.88198338298E+01  0.18367231975E+02  0.51100000000E-03 0. -1.
        -11    1    3    3    0    0 -0.85503795038E+01  0.17992389348E+02  0.14053130729E+01  0.19970227069E+02  0.51100000000E-03 0.  1.
         12    1    3    3    0    0 -0.18445172382E+01  0.93056664888E+01 -0.76571962110E+01  0.12191403793E+02  0.00000000000E+00 0. -1.
</event>
<event>
 7    1  0.2966651E-011  0.5052882E+02  0.7816164E-02  0.1300439E+00
        -11   -1    0    0    0    0  0.00000000000E+00  0.00000000000E+00  0.45593999997E+02  0.45594000000E+02  0.51100000000E-03 0. -1.
         11   -1    0    0    0    0 -0.00000000000E+00 -0.00000000000E+00 -0.45593999997E+02  0.45594000000E+02  0.51100000000E-03 0.  1.
    9900012    2    1    2    0    0 -0.40840755402E+00 -0.19822088340E+02 -0.35497707044E+02  0.50528816679E+02  0.29999868778E+02 0.  0.
         12    1    1    2    0    0  0.40840755402E+00  0.19822088340E+02  0.35497707044E+02  0.40659183321E+02  0.00000000000E+00 0. -1.
         11    1    3    3    0    0 -0.21476361755E+01 -0.23397610412E+02 -0.15481763936E+02  0.28137973079E+02  0.51100000000E-03 0. -1.
        -11    1    3    3    0    0  0.28084737416E+01  0.54096170048E+01 -0.19152436004E+02  0.20098937436E+02  0.51100000000E-03 0.  1.
        -12    1    3    3    0    0 -0.10692451201E+01 -0.18340949327E+01 -0.86350710400E+00  0.22919061647E+01  0.00000000000E+00 0.  1.
</event>
<event>
 7    1  0.2966651E-011  0.5052883E+02  0.7816164E-02  0.1300439E+00
        -11   -1    0    0    0    0  0.00000000000E+00  0.00000000000E+00  0.45593999997E+02  0.45594000000E+02  0.51100000000E-03 0.  1.
         11   -1    0    0    0    0 -0.00000000000E+00 -0.00000000000E+00 -0.45593999997E+02  0.45594000000E+02  0.51100000000E-03 0. -1.
    9900012    2    1    2    0    0  0.10367016553E+02  0.39223537018E+02 -0.26845879988E+01  0.50528832508E+02  0.29999916892E+02 0.  0.
         12    1    1    2    0    0 -0.10367016553E+02 -0.39223537018E+02  0.26845879988E+01  0.40659167492E+02  0.00000000000E+00 0. -1.
         11    1    3    3    0    0  0.19456681671E+01  0.41235793057E+01 -0.66177714243E+01  0.80364438524E+01  0.51100000000E-03 0. -1.
        -11    1    3    3    0    0  0.22920247454E+01  0.27107472694E+02  0.11858073596E+02  0.29676292945E+02  0.51100000000E-03 0.  1.
        -12    1    3    3    0    0  0.61293236405E+01  0.79924850182E+01 -0.79248901704E+01  0.12816095711E+02  0.00000000000E+00 0.  1.
</event>
<event>
 7    1  0.2966651E-011  0.5052899E+02  0.7816164E-02  0.1300438E+00
        -11   -1    0    0    0    0  0.00000000000E+00  0.00000000000E+00  0.45593999997E+02  0.45594000000E+02  0.51100000000E-03 0.  1.
         11   -1    0    0    0    0 -0.00000000000E+00 -0.00000000000E+00 -0.45593999997E+02  0.45594000000E+02  0.51100000000E-03 0. -1.
    9900012    2    1    2    0    0  0.38352775826E+02  0.67864134086E+01 -0.11668937505E+02  0.50528992105E+02  0.30000402000E+02 0.  0.
         12    1    1    2    0    0 -0.38352775826E+02 -0.67864134086E+01  0.11668937505E+02  0.40659007895E+02  0.00000000000E+00 0. -1.
         11    1    3    3    0    0  0.19690652254E+02  0.12138983099E+02  0.28862677438E+01  0.23311096899E+02  0.51100000000E-03 0. -1.
        -11    1    3    3    0    0  0.12824736038E+02 -0.44057337958E+01 -0.24980368263E+01  0.13788565298E+02  0.51100000000E-03 0.  1.
         12    1    3    3    0    0  0.58373875338E+01 -0.94683589445E+00 -0.12057168423E+02  0.13429329909E+02  0.00000000000E+00 0. -1.
</event>
<event>
 7    1  0.2966651E-011  0.5052886E+02  0.7816164E-02  0.1300439E+00
        -11   -1    0    0    0    0  0.00000000000E+00  0.00000000000E+00  0.45593999997E+02  0.45594000000E+02  0.51100000000E-03 0.  1.
         11   -1    0    0    0    0 -0.00000000000E+00 -0.00000000000E+00 -0.45593999997E+02  0.45594000000E+02  0.51100000000E-03 0. -1.
    9900012    2    1    2    0    0 -0.26233790432E+02  0.42805316139E+01  0.30767372207E+02  0.50528857069E+02  0.29999991547E+02 0.  0.
         12    1    1    2    0    0  0.26233790432E+02 -0.42805316139E+01 -0.30767372207E+02  0.40659142931E+02  0.00000000000E+00 0. -1.
         11    1    3    3    0    0  0.44010636211E+01  0.16102743869E+01  0.11487972395E+02  0.12407088886E+02  0.51100000000E-03 0. -1.
        -11    1    3    3    0    0 -0.81748136252E+01  0.49880261450E+01  0.95853486701E+01  0.13549424047E+02  0.51100000000E-03 0.  1.
         12    1    3    3    0    0 -0.22460040428E+02 -0.23177689180E+01  0.96940511419E+01  0.24572344136E+02  0.00000000000E+00 0. -1.
</event>
<event>
 7    1  0.2966651E-011  0.5052884E+02  0.7816164E-02  0.1300439E+00
        -11   -1    0    0    0    0  0.00000000000E+00  0.00000000000E+00  0.45593999997E+02  0.45594000000E+02  0.51100000000E-03 0.  1.
         11   -1    0    0    0    0 -0.00000000000E+00 -0.00000000000E+00 -0.45593999997E+02  0.45594000000E+02  0.51100000000E-03 0. -1.
    9900012    2    1    2    0    0 -0.19152562725E+02  0.27954614497E+02  0.22469663694E+02  0.50528844609E+02  0.29999953673E+02 0.  0.
         12    1    1    2    0    0  0.19152562725E+02 -0.27954614497E+02 -0.22469663694E+02  0.40659155391E+02  0.00000000000E+00 0. -1.
         11    1    3    3    0    0  0.19246352597E+01  0.12769705396E+02 -0.11257141435E+01  0.12962902043E+02  0.51100000000E-03 0. -1.
        -11    1    3    3    0    0 -0.17488855599E+02  0.10639136261E+02  0.99880670905E+01  0.22777461997E+02  0.51100000000E-03 0.  1.
         12    1    3    3    0    0 -0.35883423860E+01  0.45457728398E+01  0.13607310747E+02  0.14788480569E+02  0.00000000000E+00 0. -1.
</event>
<event>
 7    1  0.2966651E-011  0.5052886E+02  0.7816164E-02  0.1300439E+00
        -11   -1    0    0    0    0  0.00000000000E+00  0.00000000000E+00  0.45593999997E+02  0.45594000000E+02  0.51100000000E-03 0.  1.
         11   -1    0    0    0    0 -0.00000000000E+00 -0.00000000000E+00 -0.45593999997E+02  0.45594000000E+02  0.51100000000E-03 0. -1.
    9900012    2    1    2    0    0  0.35800808423E+02  0.52257588058E+01  0.18551530125E+02  0.50528859468E+02  0.29999998839E+02 0.  0.
         12    1    1    2    0    0 -0.35800808423E+02 -0.52257588058E+01 -0.18551530125E+02  0.40659140532E+02  0.00000000000E+00 0. -1.
         11    1    3    3    0    0 -0.88358527157E+00 -0.30892746384E+01  0.27660683248E+01  0.42397493984E+01  0.51100000000E-03 0. -1.
        -11    1    3    3    0    0  0.31570555669E+02  0.12710867999E+02  0.62379854070E+01  0.34600268969E+02  0.51100000000E-03 0.  1.
        -12    1    3    3    0    0  0.51138380250E+01 -0.43958345548E+01  0.95474763934E+01  0.11688841100E+02  0.00000000000E+00 0.  1.
</event>
<event>
 7    1  0.2966651E-011  0.5052885E+02  0.7816164E-02  0.1300439E+00
        -11   -1    0    0    0    0  0.00000000000E+00  0.00000000000E+00  0.45593999997E+02  0.45594000000E+02  0.51100000000E-03 0.  1.
         11   -1    0    0    0    0 -0.00000000000E+00 -0.00000000000E+00 -0.45593999997E+02  0.45594000000E+02  0.51100000000E-03 0. -1.
    9900012    2    1    2    0    0  0.27083448795E+02 -0.30155283845E+02  0.32112931173E+01  0.50528846714E+02  0.29999960073E+02 0.  0.
         12    1    1    2    0    0 -0.27083448795E+02  0.30155283845E+02 -0.32112931173E+01  0.40659153286E+02  0.00000000000E+00 0. -1.
         11    1    3    3    0    0 -0.90811448623E+00 -0.15388949005E+02 -0.55651134248E+01  0.16389475620E+02  0.51100000000E-03 0. -1.
        -11    1    3    3    0    0  0.40233921236E+01 -0.56302514324E+01  0.41679140381E+01  0.80782995155E+01  0.51100000000E-03 0.  1.
         12    1    3    3    0    0  0.23968171158E+02 -0.91360834076E+01  0.46084925040E+01  0.26061071579E+02  0.00000000000E+00 0. -1.
</event>
<event>
 7    1  0.2966651E-011  0.5052886E+02  0.7816164E-02  0.1300439E+00
        -11   -1    0    0    0    0  0.00000000000E+00  0.00000000000E+00  0.45593999997E+02  0.45594000000E+02  0.51100000000E-03 0.  1.
         11   -1    0    0    0    0 -0.00000000000E+00 -0.00000000000E+00 -0.45593999997E+02  0.45594000000E+02  0.51100000000E-03 0. -1.
    9900012    2    1    2    0    0 -0.55957167696E+00 -0.19667018651E+02  0.35581747153E+02  0.50528862361E+02  0.30000007633E+02 0.  0.
         12    1    1    2    0    0  0.55957167696E+00  0.19667018651E+02 -0.35581747153E+02  0.40659137639E+02  0.00000000000E+00 0. -1.
         11    1    3    3    0    0  0.13970564273E+01 -0.81694612185E+01 -0.15309376420E+01  0.84282639723E+01  0.51100000000E-03 0. -1.
        -11    1    3    3    0    0 -0.63636507826E+01 -0.95859779094E+01  0.35018333519E+02  0.36860150657E+02  0.51100000000E-03 0.  1.
        -12    1    3    3    0    0  0.44070226783E+01 -0.19115795229E+01  0.20943512761E+01  0.52404477316E+01  0.00000000000E+00 0.  1.
</event>
<event>
 7    1  0.2966651E-011  0.5052888E+02  0.7816164E-02  0.1300439E+00
        -11   -1    0    0    0    0  0.00000000000E+00  0.00000000000E+00  0.45593999997E+02  0.45594000000E+02  0.51100000000E-03 0.  1.
         11   -1    0    0    0    0 -0.00000000000E+00 -0.00000000000E+00 -0.45593999997E+02  0.45594000000E+02  0.51100000000E-03 0. -1.
    9900012    2    1    2    0    0  0.39771671818E+02 -0.83665660232E+01  0.11742629394E+01  0.50528878026E+02  0.30000055248E+02 0.  0.
         12    1    1    2    0    0 -0.39771671818E+02  0.83665660232E+01 -0.11742629394E+01  0.40659121974E+02  0.00000000000E+00 0. -1.
         11    1    3    3    0    0  0.11805682037E+02  0.38708814861E+01 -0.49475707662E+01  0.13372969325E+02  0.51100000000E-03 0. -1.
        -11    1    3    3    0    0  0.26104499911E+02 -0.46654439444E+01  0.10131821067E+02  0.28387762878E+02  0.51100000000E-03 0.  1.
        -12    1    3    3    0    0  0.18614898705E+01 -0.75720035648E+01 -0.40099873618E+01  0.87681458226E+01  0.00000000000E+00 0.  1.
</event>
<event>
 7    1  0.2966651E-011  0.5052886E+02  0.7816164E-02  0.1300439E+00
        -11   -1    0    0    0    0  0.00000000000E+00  0.00000000000E+00  0.45593999997E+02  0.45594000000E+02  0.51100000000E-03 0.  1.
         11   -1    0    0    0    0 -0.00000000000E+00 -0.00000000000E+00 -0.45593999997E+02  0.45594000000E+02  0.51100000000E-03 0. -1.
    9900012    2    1    2    0    0  0.19196919253E+02 -0.29448658111E+01  0.35720742228E+02  0.50528863649E+02  0.30000011548E+02 0.  0.
         12    1    1    2    0    0 -0.19196919253E+02  0.29448658111E+01 -0.35720742228E+02  0.40659136351E+02  0.00000000000E+00 0. -1.
         11    1    3    3    0    0  0.73040871815E+01  0.45529069399E+01  0.19040473209E+02  0.20895412689E+02  0.51100000000E-03 0. -1.
        -11    1    3    3    0    0  0.13076160099E+02 -0.12331273172E+02  0.80995315199E+01  0.19714174395E+02  0.51100000000E-03 0.  1.
        -12    1    3    3    0    0 -0.11833280268E+01  0.48335004214E+01  0.85807374989E+01  0.99192765648E+01  0.00000000000E+00 0.  1.
</event>
<event>
 7    1  0.2966651E-011  0.5052886E+02  0.7816164E-02  0.1300439E+00
        -11   -1    0    0    0    0  0.00000000000E+00  0.00000000000E+00  0.45593999997E+02  0.45594000000E+02  0.51100000000E-03 0.  1.
         11   -1    0    0    0    0 -0.00000000000E+00 -0.00000000000E+00 -0.45593999997E+02  0.45594000000E+02  0.51100000000E-03 0. -1.
    9900012    2    1    2    0    0  0.31239995305E+02  0.23512628168E+02 -0.11152784337E+02  0.50528860948E+02  0.30000003336E+02 0.  0.
         12    1    1    2    0    0 -0.31239995305E+02 -0.23512628168E+02  0.11152784337E+02  0.40659139052E+02  0.00000000000E+00 0. -1.
         11    1    3    3    0    0  0.15326793706E+02  0.14974092455E+02 -0.15134150012E+02  0.26233119277E+02  0.51100000000E-03 0. -1.
        -11    1    3    3    0    0  0.16521494562E+02  0.12077882444E+01  0.34470317190E+01  0.16920418521E+02  0.51100000000E-03 0.  1.
        -12    1    3    3    0    0 -0.60829296348E+00  0.73307474688E+01  0.53433395597E+00  0.73753231494E+01  0.00000000000E+00 0.  1.
</event>
<event>
 7    1  0.2966651E-011  0.5052883E+02  0.7816164E-02  0.1300439E+00
        -11   -1    0    0    0    0  0.00000000000E+00  0.00000000000E+00  0.45593999997E+02  0.45594000000E+02  0.51100000000E-03 0. -1.
         11   -1    0    0    0    0 -0.00000000000E+00 -0.00000000000E+00 -0.45593999997E+02  0.45594000000E+02  0.51100000000E-03 0.  1.
    9900012    2    1    2    0    0  0.11968959237E+02  0.38827012880E+02 -0.15412316269E+01  0.50528827488E+02  0.29999901634E+02 0.  0.
         12    1    1    2    0    0 -0.11968959237E+02 -0.38827012880E+02  0.15412316269E+01  0.40659172512E+02  0.00000000000E+00 0. -1.
         11    1    3    3    0    0  0.19811097048E+01 -0.38169793770E+01 -0.10206278524E+01  0.44199331105E+01  0.51100000000E-03 0. -1.
        -11    1    3    3    0    0  0.84870435139E+01  0.36278155598E+02 -0.57964361690E+01  0.37705876913E+02  0.51100000000E-03 0.  1.
        -12    1    3    3    0    0  0.15008060183E+01  0.63658366586E+01  0.52758323945E+01  0.84030174654E+01  0.00000000000E+00 0.  1.
</event>
<event>
 7    1  0.2966651E-011  0.5052887E+02  0.7816164E-02  0.1300439E+00
        -11   -1    0    0    0    0  0.00000000000E+00  0.00000000000E+00  0.45593999997E+02  0.45594000000E+02  0.51100000000E-03 0.  1.
         11   -1    0    0    0    0 -0.00000000000E+00 -0.00000000000E+00 -0.45593999997E+02  0.45594000000E+02  0.51100000000E-03 0. -1.
    9900012    2    1    2    0    0 -0.14085290994E+02 -0.29518606396E+02  0.24154115561E+02  0.50528870097E+02  0.30000031146E+02 0.  0.
         12    1    1    2    0    0  0.14085290994E+02  0.29518606396E+02 -0.24154115561E+02  0.40659129903E+02  0.00000000000E+00 0. -1.
         11    1    3    3    0    0  0.20039666731E+01 -0.85956071509E+01  0.22318477663E+02  0.24000308126E+02  0.51100000000E-03 0.  1.
        -11    1    3    3    0    0 -0.79765051995E+01 -0.11547037023E+02  0.16270854943E+01  0.14128202528E+02  0.51100000000E-03 0. -1.
        -12    1    3    3    0    0 -0.81127524676E+01 -0.93759622218E+01  0.20855240406E+00  0.12400359442E+02  0.00000000000E+00 0.  1.
</event>
<event>
 7    1  0.2966651E-011  0.5052885E+02  0.7816164E-02  0.1300439E+00
        -11   -1    0    0    0    0  0.00000000000E+00  0.00000000000E+00  0.45593999997E+02  0.45594000000E+02  0.51100000000E-03 0.  1.
         11   -1    0    0    0    0 -0.00000000000E+00 -0.00000000000E+00 -0.45593999997E+02  0.45594000000E+02  0.51100000000E-03 0. -1.
    9900012    2    1    2    0    0 -0.26130599005E+02  0.84554087713E+01  0.29981060306E+02  0.50528854425E+02  0.29999983510E+02 0.  0.
         12    1    1    2    0    0  0.26130599005E+02 -0.84554087713E+01 -0.29981060306E+02  0.40659145575E+02  0.00000000000E+00 0. -1.
         11    1    3    3    0    0 -0.25399502438E+02  0.13069087074E+02  0.28395473282E+02  0.40277024024E+02  0.51100000000E-03 0.  1.
        -11    1    3    3    0    0  0.30700160470E+01 -0.52407754179E+01  0.19575137774E+01  0.63814250728E+01  0.51100000000E-03 0. -1.
         12    1    3    3    0    0 -0.38011126134E+01  0.62709711507E+00 -0.37192675387E+00  0.38704053278E+01  0.00000000000E+00 0. -1.
</event>
<event>
 7    1  0.2966651E-011  0.5052886E+02  0.7816164E-02  0.1300439E+00
        -11   -1    0    0    0    0  0.00000000000E+00  0.00000000000E+00  0.45593999997E+02  0.45594000000E+02  0.51100000000E-03 0.  1.
         11   -1    0    0    0    0 -0.00000000000E+00 -0.00000000000E+00 -0.45593999997E+02  0.45594000000E+02  0.51100000000E-03 0. -1.
    9900012    2    1    2    0    0  0.18419287486E+02 -0.96712675662E+00  0.36234790325E+02  0.50528861845E+02  0.30000006063E+02 0.  0.
         12    1    1    2    0    0 -0.18419287486E+02  0.96712675662E+00 -0.36234790325E+02  0.40659138155E+02  0.00000000000E+00 0. -1.
         11    1    3    3    0    0  0.13203156108E+02 -0.29530352931E+01  0.10897238738E+01  0.13573181168E+02  0.51100000000E-03 0. -1.
        -11    1    3    3    0    0  0.79923709034E+01  0.29001129099E+01  0.26309820487E+02  0.27649508166E+02  0.51100000000E-03 0.  1.
        -12    1    3    3    0    0 -0.27762395247E+01 -0.91420437341E+00  0.88352459644E+01  0.93061725100E+01  0.00000000000E+00 0.  1.
</event>
<event>
 7    1  0.2966651E-011  0.5052884E+02  0.7816164E-02  0.1300439E+00
        -11   -1    0    0    0    0  0.00000000000E+00  0.00000000000E+00  0.45593999997E+02  0.45594000000E+02  0.51100000000E-03 0.  1.
         11   -1    0    0    0    0 -0.00000000000E+00 -0.00000000000E+00 -0.45593999997E+02  0.45594000000E+02  0.51100000000E-03 0. -1.
    9900012    2    1    2    0    0  0.76474616382E+01 -0.19751774068E+02  0.34706638321E+02  0.50528843689E+02  0.29999950877E+02 0.  0.
         12    1    1    2    0    0 -0.76474616382E+01  0.19751774068E+02 -0.34706638321E+02  0.40659156311E+02  0.00000000000E+00 0. -1.
         11    1    3    3    0    0 -0.33898568819E+01 -0.54620496584E+01  0.26913960503E+02  0.27671038766E+02  0.51100000000E-03 0. -1.
        -11    1    3    3    0    0  0.43193140212E+01 -0.13446703054E+02  0.77009690974E+01  0.16086491909E+02  0.51100000000E-03 0.  1.
        -12    1    3    3    0    0  0.67180044989E+01 -0.84302135574E+00  0.91708721089E-01  0.67713130147E+01  0.00000000000E+00 0.  1.
</event>
<event>
 7    1  0.2966651E-011  0.5052881E+02  0.7816164E-02  0.1300439E+00
        -11   -1    0    0    0    0  0.00000000000E+00  0.00000000000E+00  0.45593999997E+02  0.45594000000E+02  0.51100000000E-03 0. -1.
         11   -1    0    0    0    0 -0.00000000000E+00 -0.00000000000E+00 -0.45593999997E+02  0.45594000000E+02  0.51100000000E-03 0.  1.
    9900012    2    1    2    0    0 -0.36423336579E+02  0.84872070510E+01  0.15952354809E+02  0.50528809711E+02  0.29999847596E+02 0.  0.
         12    1    1    2    0    0  0.36423336579E+02 -0.84872070510E+01 -0.15952354809E+02  0.40659190289E+02  0.00000000000E+00 0. -1.
         11    1    3    3    0    0 -0.79736976995E+01  0.10838125635E+02  0.93172682030E+01  0.16366316303E+02  0.51100000000E-03 0. -1.
        -11    1    3    3    0    0 -0.21222762426E+02 -0.22470457784E+01 -0.35896356922E+01  0.21641172436E+02  0.51100000000E-03 0.  1.
        -12    1    3    3    0    0 -0.72268764527E+01 -0.10387280576E+00  0.10224722298E+02  0.12521320972E+02  0.00000000000E+00 0.  1.
</event>
<event>
 7    1  0.2966651E-011  0.5052885E+02  0.7816164E-02  0.1300439E+00
        -11   -1    0    0    0    0  0.00000000000E+00  0.00000000000E+00  0.45593999997E+02  0.45594000000E+02  0.51100000000E-03 0. -1.
         11   -1    0    0    0    0 -0.00000000000E+00 -0.00000000000E+00 -0.45593999997E+02  0.45594000000E+02  0.51100000000E-03 0.  1.
    9900012    2    1    2    0    0 -0.29582844950E+02 -0.27732950739E+02  0.29841307156E+01  0.50528852097E+02  0.29999976435E+02 0.  0.
         12    1    1    2    0    0  0.29582844950E+02  0.27732950739E+02 -0.29841307156E+01  0.40659147903E+02  0.00000000000E+00 0. -1.
         11    1    3    3    0    0 -0.49373590439E+01 -0.20973632707E+02  0.37763875677E+01  0.21875371690E+02  0.51100000000E-03 0. -1.
        -11    1    3    3    0    0 -0.21149607558E+02 -0.98153321020E+01 -0.30064408302E+01  0.23509260534E+02  0.51100000000E-03 0.  1.
        -12    1    3    3    0    0 -0.34958783478E+01  0.30560140696E+01  0.22141839781E+01  0.51442198734E+01  0.00000000000E+00 0.  1.
</event>
<event>
 7    1  0.2966651E-011  0.5052885E+02  0.7816164E-02  0.1300439E+00
        -11   -1    0    0    0    0  0.00000000000E+00  0.00000000000E+00  0.45593999997E+02  0.45594000000E+02  0.51100000000E-03 0.  1.
         11   -1    0    0    0    0 -0.00000000000E+00 -0.00000000000E+00 -0.45593999997E+02  0.45594000000E+02  0.51100000000E-03 0. -1.
    9900012    2    1    2    0    0  0.30639181009E+02 -0.19011282519E+02  0.18787714051E+02  0.50528850044E+02  0.29999970193E+02 0.  0.
         12    1    1    2    0    0 -0.30639181009E+02  0.19011282519E+02 -0.18787714051E+02  0.40659149956E+02  0.00000000000E+00 0. -1.
         11    1    3    3    0    0  0.10123333213E+02 -0.24294553487E+01  0.51323335437E+01  0.11607108878E+02  0.51100000000E-03 0. -1.
        -11    1    3    3    0    0  0.29742223587E+01 -0.99102693197E+01 -0.58231815534E+01  0.11873031639E+02  0.51100000000E-03 0.  1.
        -12    1    3    3    0    0  0.17541625437E+02 -0.66715578502E+01  0.19478562061E+02  0.27048709527E+02  0.00000000000E+00 0.  1.
</event>
<event>
 7    1  0.2966651E-011  0.5052884E+02  0.7816164E-02  0.1300439E+00
        -11   -1    0    0    0    0  0.00000000000E+00  0.00000000000E+00  0.45593999997E+02  0.45594000000E+02  0.51100000000E-03 0.  1.
         11   -1    0    0    0    0 -0.00000000000E+00 -0.00000000000E+00 -0.45593999997E+02  0.45594000000E+02  0.51100000000E-03 0. -1.
    9900012    2    1    2    0    0  0.16195675649E+02 -0.20920127646E+02  0.30874195487E+02  0.50528836243E+02  0.29999928244E+02 0.  0.
         12    1    1    2    0    0 -0.16195675649E+02  0.20920127646E+02 -0.30874195487E+02  0.40659163757E+02  0.00000000000E+00 0. -1.
         11    1    3    3    0    0  0.34455442579E+01  0.31462864489E+01  0.10127114031E+02  0.11150306386E+02  0.51100000000E-03 0. -1.
        -11    1    3    3    0    0  0.92742388714E+01 -0.22562149534E+02  0.73808473956E+01  0.25486055144E+02  0.51100000000E-03 0.  1.
         12    1    3    3    0    0  0.34758925195E+01 -0.15042645600E+01  0.13366234061E+02  0.13892474713E+02  0.00000000000E+00 0. -1.
</event>
<event>
 7    1  0.2966651E-011  0.5052886E+02  0.7816164E-02  0.1300439E+00
        -11   -1    0    0    0    0  0.00000000000E+00  0.00000000000E+00  0.45593999997E+02  0.45594000000E+02  0.51100000000E-03 0.  1.
         11   -1    0    0    0    0 -0.00000000000E+00 -0.00000000000E+00 -0.45593999997E+02  0.45594000000E+02  0.51100000000E-03 0. -1.
    9900012    2    1    2    0    0 -0.26122672104E+02 -0.31011151029E+02  0.30133712284E+01  0.50528857213E+02  0.29999991986E+02 0.  0.
         12    1    1    2    0    0  0.26122672104E+02  0.31011151029E+02 -0.30133712284E+01  0.40659142787E+02  0.00000000000E+00 0. -1.
         11    1    3    3    0    0 -0.97994955186E+01 -0.23054277524E+02 -0.11877471113E+01  0.25078687526E+02  0.51100000000E-03 0.  1.
        -11    1    3    3    0    0 -0.14704895914E+02 -0.38180142654E+01  0.99672630563E+01  0.18170237474E+02  0.51100000000E-03 0. -1.
         12    1    3    3    0    0 -0.16182806712E+01 -0.41388592397E+01 -0.57661447166E+01  0.72799322133E+01  0.00000000000E+00 0. -1.
</event>
<event>
 7    1  0.2966651E-011  0.5052885E+02  0.7816164E-02  0.1300439E+00
        -11   -1    0    0    0    0  0.00000000000E+00  0.00000000000E+00  0.45593999997E+02  0.45594000000E+02  0.51100000000E-03 0. -1.
         11   -1    0    0    0    0 -0.00000000000E+00 -0.00000000000E+00 -0.45593999997E+02  0.45594000000E+02  0.51100000000E-03 0.  1.
    9900012    2    1    2    0    0  0.18851717430E+02 -0.21432055791E+02 -0.28955939362E+02  0.50528847404E+02  0.29999962168E+02 0.  0.
         12    1    1    2    0    0 -0.18851717430E+02  0.21432055791E+02  0.28955939362E+02  0.40659152596E+02  0.00000000000E+00 0. -1.
         11    1    3    3    0    0  0.13790809512E+02 -0.56874009233E+01  0.26560333800E+00  0.14919902870E+02  0.51100000000E-03 0. -1.
        -11    1    3    3    0    0  0.55233933327E+01 -0.17227983655E+02 -0.28779224732E+02  0.33993456299E+02  0.51100000000E-03 0.  1.
         12    1    3    3    0    0 -0.46248541466E+00  0.14833287872E+01 -0.44231796794E+00  0.16154882341E+01  0.00000000000E+00 0. -1.
</event>
<event>
 7    1  0.2966651E-011  0.5052891E+02  0.7816164E-02  0.1300439E+00
        -11   -1    0    0    0    0  0.00000000000E+00  0.00000000000E+00  0.45593999997E+02  0.45594000000E+02  0.51100000000E-03 0.  1.
         11   -1    0    0    0    0 -0.00000000000E+00 -0.00000000000E+00 -0.45593999997E+02  0.45594000000E+02  0.51100000000E-03 0. -1.
    9900012    2    1    2    0    0  0.13246537203E+02  0.36112338500E+02 -0.13175356721E+02  0.50528907972E+02  0.30000146270E+02 0.  0.
         12    1    1    2    0    0 -0.13246537203E+02 -0.36112338500E+02  0.13175356721E+02  0.40659092028E+02  0.00000000000E+00 0. -1.
         11    1    3    3    0    0  0.11916109514E+02  0.10829125574E+02 -0.14702976164E+02  0.21804612700E+02  0.51100000000E-03 0.  1.
        -11    1    3    3    0    0  0.53955866561E+01  0.13642012641E+02  0.56532545761E+01  0.15721836783E+02  0.51100000000E-03 0. -1.
        -12    1    3    3    0    0 -0.40651589669E+01  0.11641200286E+02 -0.41256351335E+01  0.13002458489E+02  0.00000000000E+00 0.  1.
</event>
<event>
 7    1  0.2966651E-011  0.5052873E+02  0.7816164E-02  0.1300439E+00
        -11   -1    0    0    0    0  0.00000000000E+00  0.00000000000E+00  0.45593999997E+02  0.45594000000E+02  0.51100000000E-03 0. -1.
         11   -1    0    0    0    0 -0.00000000000E+00 -0.00000000000E+00 -0.45593999997E+02  0.45594000000E+02  0.51100000000E-03 0.  1.
    9900012    2    1    2    0    0  0.35385839177E+01 -0.33985493934E+02 -0.22037267229E+02  0.50528726507E+02  0.29999594687E+02 0.  0.
         12    1    1    2    0    0 -0.35385839177E+01  0.33985493934E+02  0.22037267229E+02  0.40659273493E+02  0.00000000000E+00 0. -1.
         11    1    3    3    0    0 -0.12169357591E+01  0.24423050441E+01  0.28469066448E+01  0.39434330571E+01  0.51100000000E-03 0. -1.
        -11    1    3    3    0    0  0.95302138536E+01 -0.19820104692E+02 -0.15650559788E+02  0.26992620251E+02  0.51100000000E-03 0.  1.
        -12    1    3    3    0    0 -0.47746941768E+01 -0.16607694286E+02 -0.92336140861E+01  0.19592673199E+02  0.00000000000E+00 0.  1.
</event>
<event>
 7    1  0.2966651E-011  0.5052899E+02  0.7816164E-02  0.1300438E+00
        -11   -1    0    0    0    0  0.00000000000E+00  0.00000000000E+00  0.45593999997E+02  0.45594000000E+02  0.51100000000E-03 0.  1.
         11   -1    0    0    0    0 -0.00000000000E+00 -0.00000000000E+00 -0.45593999997E+02  0.45594000000E+02  0.51100000000E-03 0. -1.
    9900012    2    1    2    0    0 -0.15151976532E+02 -0.17402900584E+02  0.33477029820E+02  0.50528992792E+02  0.30000404087E+02 0.  0.
         12    1    1    2    0    0  0.15151976532E+02  0.17402900584E+02 -0.33477029820E+02  0.40659007208E+02  0.00000000000E+00 0. -1.
         11    1    3    3    0    0 -0.29634453366E+01 -0.10598653192E+02  0.51715784108E+01  0.12159715509E+02  0.51100000000E-03 0. -1.
        -11    1    3    3    0    0 -0.11003628229E+02  0.57684333775E+01  0.91667609463E+01  0.15439694438E+02  0.51100000000E-03 0.  1.
        -12    1    3    3    0    0 -0.11849029663E+01 -0.12572680770E+02  0.19138690463E+02  0.22929582845E+02  0.00000000000E+00 0.  1.
</event>
<event>
 7    1  0.2966651E-011  0.5052885E+02  0.7816164E-02  0.1300439E+00
        -11   -1    0    0    0    0  0.00000000000E+00  0.00000000000E+00  0.45593999997E+02  0.45594000000E+02  0.51100000000E-03 0. -1.
         11   -1    0    0    0    0 -0.00000000000E+00 -0.00000000000E+00 -0.45593999997E+02  0.45594000000E+02  0.51100000000E-03 0.  1.
    9900012    2    1    2    0    0 -0.43401749285E+01 -0.40426473908E+02  0.17188449721E+00  0.50528850288E+02  0.29999970936E+02 0.  0.
         12    1    1    2    0    0  0.43401749285E+01  0.40426473908E+02 -0.17188449721E+00  0.40659149712E+02  0.00000000000E+00 0. -1.
         11    1    3    3    0    0 -0.86010320239E+01 -0.15788535520E+01  0.12652718144E+01  0.88358046289E+01  0.51100000000E-03 0. -1.
        -11    1    3    3    0    0  0.22046848890E+01 -0.31215535977E+02  0.50292903288E+01  0.31694858941E+02  0.51100000000E-03 0.  1.
         12    1    3    3    0    0  0.20561722064E+01 -0.76320843782E+01 -0.61226776459E+01  0.99981867183E+01  0.00000000000E+00 0. -1.
</event>
<event>
 7    1  0.2966651E-011  0.5052886E+02  0.7816164E-02  0.1300439E+00
        -11   -1    0    0    0    0  0.00000000000E+00  0.00000000000E+00  0.45593999997E+02  0.45594000000E+02  0.51100000000E-03 0.  1.
         11   -1    0    0    0    0 -0.00000000000E+00 -0.00000000000E+00 -0.45593999997E+02  0.45594000000E+02  0.51100000000E-03 0. -1.
    9900012    2    1    2    0    0 -0.32281742168E+01 -0.19612192846E+02  0.35469796012E+02  0.50528860238E+02  0.30000001181E+02 0.  0.
         12    1    1    2    0    0  0.32281742168E+01  0.19612192846E+02 -0.35469796012E+02  0.40659139762E+02  0.00000000000E+00 0. -1.
         11    1    3    3    0    0 -0.18896770633E+01 -0.15230127714E+01  0.10943057313E+02  0.11208967434E+02  0.51100000000E-03 0. -1.
        -11    1    3    3    0    0 -0.60614762071E+01 -0.30021010874E+01 -0.31380492194E+01  0.74566385129E+01  0.51100000000E-03 0.  1.
        -12    1    3    3    0    0  0.47229790537E+01 -0.15087078987E+02  0.27664787918E+02  0.31863254292E+02  0.00000000000E+00 0.  1.
</event>
<event>
 7    1  0.2966651E-011  0.5052886E+02  0.7816164E-02  0.1300439E+00
        -11   -1    0    0    0    0  0.00000000000E+00  0.00000000000E+00  0.45593999997E+02  0.45594000000E+02  0.51100000000E-03 0.  1.
         11   -1    0    0    0    0 -0.00000000000E+00 -0.00000000000E+00 -0.45593999997E+02  0.45594000000E+02  0.51100000000E-03 0. -1.
    9900012    2    1    2    0    0 -0.31854029543E+02 -0.15701130001E+02  0.19798009932E+02  0.50528857378E+02  0.29999992487E+02 0.  0.
         12    1    1    2    0    0  0.31854029543E+02  0.15701130001E+02 -0.19798009932E+02  0.40659142622E+02  0.00000000000E+00 0. -1.
         11    1    3    3    0    0 -0.54225207496E+00  0.38818706177E+01  0.25498743704E+01  0.46759829310E+01  0.51100000000E-03 0. -1.
        -11    1    3    3    0    0 -0.29851449710E+02 -0.21681576777E+02  0.20106840080E+02  0.42017672943E+02  0.51100000000E-03 0.  1.
        -12    1    3    3    0    0 -0.14603277583E+01  0.20985761586E+01 -0.28587045179E+01  0.38352015039E+01  0.00000000000E+00 0.  1.
</event>
<event>
 7    1  0.2966651E-011  0.5052886E+02  0.7816164E-02  0.1300439E+00
        -11   -1    0    0    0    0  0.00000000000E+00  0.00000000000E+00  0.45593999997E+02  0.45594000000E+02  0.51100000000E-03 0.  1.
         11   -1    0    0    0    0 -0.00000000000E+00 -0.00000000000E+00 -0.45593999997E+02  0.45594000000E+02  0.51100000000E-03 0. -1.
    9900012    2    1    2    0    0 -0.39646503916E+01  0.14321989428E+02  0.37846106092E+02  0.50528861049E+02  0.30000003644E+02 0.  0.
         12    1    1    2    0    0  0.39646503916E+01 -0.14321989428E+02 -0.37846106092E+02  0.40659138951E+02  0.00000000000E+00 0. -1.
         11    1    3    3    0    0 -0.87913975298E+01 -0.19247445182E+01  0.17280226841E+01  0.91640261154E+01  0.51100000000E-03 0. -1.
        -11    1    3    3    0    0  0.63742341753E+01  0.36965885000E+01  0.15789570272E+02  0.17424297905E+02  0.51100000000E-03 0.  1.
         12    1    3    3    0    0 -0.15474870372E+01  0.12550145446E+02  0.20328513137E+02  0.23940537028E+02  0.00000000000E+00 0. -1.
</event>
<event>
 7    1  0.2966651E-011  0.5052886E+02  0.7816164E-02  0.1300439E+00
        -11   -1    0    0    0    0  0.00000000000E+00  0.00000000000E+00  0.45593999997E+02  0.45594000000E+02  0.51100000000E-03 0.  1.
         11   -1    0    0    0    0 -0.00000000000E+00 -0.00000000000E+00 -0.45593999997E+02  0.45594000000E+02  0.51100000000E-03 0. -1.
    9900012    2    1    2    0    0  0.19476156629E+02 -0.33587218569E+02 -0.12072445120E+02  0.50528857616E+02  0.29999993209E+02 0.  0.
         12    1    1    2    0    0 -0.19476156629E+02  0.33587218569E+02  0.12072445120E+02  0.40659142384E+02  0.00000000000E+00 0. -1.
         11    1    3    3    0    0 -0.69683218353E+00  0.13790211298E+01  0.55631385779E+01  0.57737150489E+01  0.51100000000E-03 0. -1.
        -11    1    3    3    0    0  0.15660348450E+02 -0.22942218357E+02 -0.15263792220E+02  0.31695035099E+02  0.51100000000E-03 0.  1.
         12    1    3    3    0    0  0.45126403630E+01 -0.12024021342E+02 -0.23717914773E+01  0.13060107468E+02  0.00000000000E+00 0. -1.
</event>
<event>
 7    1  0.2966651E-011  0.5052886E+02  0.7816164E-02  0.1300439E+00
        -11   -1    0    0    0    0  0.00000000000E+00  0.00000000000E+00  0.45593999997E+02  0.45594000000E+02  0.51100000000E-03 0.  1.
         11   -1    0    0    0    0 -0.00000000000E+00 -0.00000000000E+00 -0.45593999997E+02  0.45594000000E+02  0.51100000000E-03 0. -1.
    9900012    2    1    2    0    0 -0.18160279518E+02 -0.35884317442E+02  0.59737742053E+01  0.50528856272E+02  0.29999989124E+02 0.  0.
         12    1    1    2    0    0  0.18160279518E+02  0.35884317442E+02 -0.59737742053E+01  0.40659143728E+02  0.00000000000E+00 0. -1.
         11    1    3    3    0    0  0.44410903928E+01 -0.32838864227E+00 -0.45285866580E+01  0.63513164271E+01  0.51100000000E-03 0. -1.
        -11    1    3    3    0    0 -0.59190023442E+01 -0.61856704608E+01  0.51156080759E+01  0.99732920366E+01  0.51100000000E-03 0.  1.
         12    1    3    3    0    0 -0.16682367566E+02 -0.29370258339E+02  0.53867527873E+01  0.34204247808E+02  0.00000000000E+00 0. -1.
</event>
<event>
 7    1  0.2966651E-011  0.5052885E+02  0.7816164E-02  0.1300439E+00
        -11   -1    0    0    0    0  0.00000000000E+00  0.00000000000E+00  0.45593999997E+02  0.45594000000E+02  0.51100000000E-03 0.  1.
         11   -1    0    0    0    0 -0.00000000000E+00 -0.00000000000E+00 -0.45593999997E+02  0.45594000000E+02  0.51100000000E-03 0. -1.
    9900012    2    1    2    0    0 -0.10978652162E+02  0.99550462922E+01  0.37862021426E+02  0.50528850766E+02  0.29999972389E+02 0.  0.
         12    1    1    2    0    0  0.10978652162E+02 -0.99550462922E+01 -0.37862021426E+02  0.40659149234E+02  0.00000000000E+00 0. -1.
         11    1    3    3    0    0 -0.74501517808E+01  0.85962498364E+01  0.30437995275E+02  0.32494181471E+02  0.51100000000E-03 0. -1.
        -11    1    3    3    0    0  0.48065279016E+01 -0.40227630524E+01  0.44162923879E+01  0.76673966744E+01  0.51100000000E-03 0.  1.
         12    1    3    3    0    0 -0.83350282828E+01  0.53815595082E+01  0.30077337624E+01  0.10367272621E+02  0.00000000000E+00 0. -1.
</event>
<event>
 7    1  0.2966651E-011  0.5052886E+02  0.7816164E-02  0.1300439E+00
        -11   -1    0    0    0    0  0.00000000000E+00  0.00000000000E+00  0.45593999997E+02  0.45594000000E+02  0.51100000000E-03 0.  1.
         11   -1    0    0    0    0 -0.00000000000E+00 -0.00000000000E+00 -0.45593999997E+02  0.45594000000E+02  0.51100000000E-03 0. -1.
    9900012    2    1    2    0    0 -0.11047453981E+02 -0.18685525233E+02  0.34379799006E+02  0.50528859916E+02  0.30000000201E+02 0.  0.
         12    1    1    2    0    0  0.11047453981E+02  0.18685525233E+02 -0.34379799006E+02  0.40659140084E+02  0.00000000000E+00 0. -1.
         11    1    3    3    0    0 -0.97362998304E+01 -0.77349769103E+01  0.21799851239E+01  0.12624489597E+02  0.51100000000E-03 0. -1.
        -11    1    3    3    0    0  0.22019633149E+01 -0.12342704896E+02  0.31704065178E+02  0.34093089559E+02  0.51100000000E-03 0.  1.
        -12    1    3    3    0    0 -0.35131174659E+01  0.13921565734E+01  0.49574870321E+00  0.38112807599E+01  0.00000000000E+00 0.  1.
</event>
<event>
 7    1  0.2966651E-011  0.5052886E+02  0.7816164E-02  0.1300439E+00
        -11   -1    0    0    0    0  0.00000000000E+00  0.00000000000E+00  0.45593999997E+02  0.45594000000E+02  0.51100000000E-03 0.  1.
         11   -1    0    0    0    0 -0.00000000000E+00 -0.00000000000E+00 -0.45593999997E+02  0.45594000000E+02  0.51100000000E-03 0. -1.
    9900012    2    1    2    0    0 -0.29972663909E+02  0.27333998748E+02  0.27672213155E+01  0.50528861013E+02  0.30000003535E+02 0.  0.
         12    1    1    2    0    0  0.29972663909E+02 -0.27333998748E+02 -0.27672213155E+01  0.40659138987E+02  0.00000000000E+00 0. -1.
         11    1    3    3    0    0 -0.16978987524E+02  0.23344702888E+02  0.12455576422E+02  0.31438870122E+02  0.51100000000E-03 0. -1.
        -11    1    3    3    0    0 -0.53450387630E+01  0.38499513013E+01  0.19720175387E+00  0.65901785403E+01  0.51100000000E-03 0.  1.
         12    1    3    3    0    0 -0.76486376215E+01  0.13934455892E+00 -0.98855568600E+01  0.12499812351E+02  0.00000000000E+00 0. -1.
</event>
<event>
 7    1  0.2966651E-011  0.5052886E+02  0.7816164E-02  0.1300439E+00
        -11   -1    0    0    0    0  0.00000000000E+00  0.00000000000E+00  0.45593999997E+02  0.45594000000E+02  0.51100000000E-03 0.  1.
         11   -1    0    0    0    0 -0.00000000000E+00 -0.00000000000E+00 -0.45593999997E+02  0.45594000000E+02  0.51100000000E-03 0. -1.
    9900012    2    1    2    0    0  0.13625249265E+02  0.30068154634E+02  0.23736561792E+02  0.50528859498E+02  0.29999998932E+02 0.  0.
         12    1    1    2    0    0 -0.13625249265E+02 -0.30068154634E+02 -0.23736561792E+02  0.40659140502E+02  0.00000000000E+00 0. -1.
         11    1    3    3    0    0  0.29198257695E+01  0.50022382981E+01 -0.51089205183E+01  0.77232661251E+01  0.51100000000E-03 0. -1.
        -11    1    3    3    0    0  0.35519714599E+01  0.17966246740E+01  0.13391565232E+02  0.13970625651E+02  0.51100000000E-03 0.  1.
        -12    1    3    3    0    0  0.71534520358E+01  0.23269291661E+02  0.15453917079E+02  0.28834967722E+02  0.00000000000E+00 0.  1.
</event>
<event>
 7    1  0.2966651E-011  0.5052886E+02  0.7816164E-02  0.1300439E+00
        -11   -1    0    0    0    0  0.00000000000E+00  0.00000000000E+00  0.45593999997E+02  0.45594000000E+02  0.51100000000E-03 0.  1.
         11   -1    0    0    0    0 -0.00000000000E+00 -0.00000000000E+00 -0.45593999997E+02  0.45594000000E+02  0.51100000000E-03 0. -1.
    9900012    2    1    2    0    0  0.78110133010E+01 -0.39165362270E+02  0.76307501731E+01  0.50528857378E+02  0.29999992486E+02 0.  0.
         12    1    1    2    0    0 -0.78110133010E+01  0.39165362270E+02 -0.76307501731E+01  0.40659142622E+02  0.00000000000E+00 0. -1.
         11    1    3    3    0    0  0.74548844985E+01 -0.23255309040E+01 -0.73132279663E+01  0.10698911179E+02  0.51100000000E-03 0. -1.
        -11    1    3    3    0    0  0.11746522960E+01 -0.30737080174E+02  0.12649030651E+02  0.33258771510E+02  0.51100000000E-03 0.  1.
         12    1    3    3    0    0 -0.81852349345E+00 -0.61027511919E+01  0.22949474881E+01  0.65711746889E+01  0.00000000000E+00 0. -1.
</event>
<event>
 7    1  0.2966651E-011  0.5052885E+02  0.7816164E-02  0.1300439E+00
        -11   -1    0    0    0    0  0.00000000000E+00  0.00000000000E+00  0.45593999997E+02  0.45594000000E+02  0.51100000000E-03 0.  1.
         11   -1    0    0    0    0 -0.00000000000E+00 -0.00000000000E+00 -0.45593999997E+02  0.45594000000E+02  0.51100000000E-03 0. -1.
    9900012    2    1    2    0    0 -0.11105478786E+01 -0.13487777995E+02  0.38340752670E+02  0.50528846208E+02  0.29999958533E+02 0.  0.
         12    1    1    2    0    0  0.11105478786E+01  0.13487777995E+02 -0.38340752670E+02  0.40659153792E+02  0.00000000000E+00 0. -1.
         11    1    3    3    0    0 -0.71824811815E+01 -0.66442652860E+01  0.69169493295E+01  0.11982424020E+02  0.51100000000E-03 0. -1.
        -11    1    3    3    0    0  0.93360479599E+01 -0.57335084446E+01  0.32988514972E+02  0.34760279500E+02  0.51100000000E-03 0.  1.
        -12    1    3    3    0    0 -0.32641146569E+01 -0.11100042643E+01 -0.15647116319E+01  0.37861426876E+01  0.00000000000E+00 0.  1.
</event>
<event>
 7    1  0.2966651E-011  0.5052886E+02  0.7816164E-02  0.1300439E+00
        -11   -1    0    0    0    0  0.00000000000E+00  0.00000000000E+00  0.45593999997E+02  0.45594000000E+02  0.51100000000E-03 0. -1.
         11   -1    0    0    0    0 -0.00000000000E+00 -0.00000000000E+00 -0.45593999997E+02  0.45594000000E+02  0.51100000000E-03 0.  1.
    9900012    2    1    2    0    0 -0.58056839621E+01 -0.35374800550E+02 -0.19185488882E+02  0.50528862480E+02  0.30000007995E+02 0.  0.
         12    1    1    2    0    0  0.58056839621E+01  0.35374800550E+02  0.19185488882E+02  0.40659137520E+02  0.00000000000E+00 0. -1.
         11    1    3    3    0    0 -0.91219194746E+01 -0.13873367449E+02  0.51303127168E+01  0.17378142827E+02  0.51100000000E-03 0. -1.
        -11    1    3    3    0    0  0.18483210854E+01 -0.14713537294E+02 -0.12274040907E+02  0.19249845479E+02  0.51100000000E-03 0.  1.
         12    1    3    3    0    0  0.14679144271E+01 -0.67878958067E+01 -0.12041760692E+02  0.13900874174E+02  0.00000000000E+00 0. -1.
</event>
<event>
 7    1  0.2966651E-011  0.5052885E+02  0.7816164E-02  0.1300439E+00
        -11   -1    0    0    0    0  0.00000000000E+00  0.00000000000E+00  0.45593999997E+02  0.45594000000E+02  0.51100000000E-03 0.  1.
         11   -1    0    0    0    0 -0.00000000000E+00 -0.00000000000E+00 -0.45593999997E+02  0.45594000000E+02  0.51100000000E-03 0. -1.
    9900012    2    1    2    0    0  0.19935215427E+02 -0.18784352763E+02  0.30048328942E+02  0.50528846110E+02  0.29999958235E+02 0.  0.
         12    1    1    2    0    0 -0.19935215427E+02  0.18784352763E+02 -0.30048328942E+02  0.40659153890E+02  0.00000000000E+00 0. -1.
         11    1    3    3    0    0  0.40131178447E+01 -0.12014687283E+02  0.19219049748E+02  0.23018029864E+02  0.51100000000E-03 0. -1.
        -11    1    3    3    0    0  0.62036060400E+01  0.38291766833E+01 -0.26928896632E+01  0.77716778735E+01  0.51100000000E-03 0.  1.
        -12    1    3    3    0    0  0.97184915420E+01 -0.10598842164E+02  0.13522168857E+02  0.19739138372E+02  0.00000000000E+00 0.  1.
</event>
<event>
 7    1  0.2966651E-011  0.5052889E+02  0.7816164E-02  0.1300439E+00
        -11   -1    0    0    0    0  0.00000000000E+00  0.00000000000E+00  0.45593999997E+02  0.45594000000E+02  0.51100000000E-03 0. -1.
         11   -1    0    0    0    0 -0.00000000000E+00 -0.00000000000E+00 -0.45593999997E+02  0.45594000000E+02  0.51100000000E-03 0.  1.
    9900012    2    1    2    0    0 -0.30443602986E+01  0.10644950571E+01 -0.40531003504E+02  0.50528886330E+02  0.30000080488E+02 0.  0.
         12    1    1    2    0    0  0.30443602986E+01 -0.10644950571E+01  0.40531003504E+02  0.40659113670E+02  0.00000000000E+00 0. -1.
         11    1    3    3    0    0 -0.69580200894E+01 -0.75310499296E+01 -0.17591165148E+02  0.20361233954E+02  0.51100000000E-03 0.  1.
        -11    1    3    3    0    0  0.10126303473E+02  0.54926747056E+01 -0.90904197007E+01  0.14674713900E+02  0.51100000000E-03 0. -1.
        -12    1    3    3    0    0 -0.62126436826E+01  0.31028702811E+01 -0.13849418656E+02  0.15492938476E+02  0.00000000000E+00 0.  1.
</event>
<event>
 7    1  0.2966651E-011  0.5052885E+02  0.7816164E-02  0.1300439E+00
        -11   -1    0    0    0    0  0.00000000000E+00  0.00000000000E+00  0.45593999997E+02  0.45594000000E+02  0.51100000000E-03 0.  1.
         11   -1    0    0    0    0 -0.00000000000E+00 -0.00000000000E+00 -0.45593999997E+02  0.45594000000E+02  0.51100000000E-03 0. -1.
    9900012    2    1    2    0    0 -0.19970662326E+02 -0.13859553356E+02  0.32592210970E+02  0.50528846185E+02  0.29999958465E+02 0.  0.
         12    1    1    2    0    0  0.19970662326E+02  0.13859553356E+02 -0.32592210970E+02  0.40659153815E+02  0.00000000000E+00 0. -1.
         11    1    3    3    0    0  0.36325559855E+01 -0.23176307195E+01  0.17817845526E+01  0.46627922528E+01  0.51100000000E-03 0. -1.
        -11    1    3    3    0    0 -0.22920679029E+02 -0.83439346726E+01  0.12772071482E+02  0.27533699046E+02  0.51100000000E-03 0.  1.
        -12    1    3    3    0    0 -0.68253928284E+00 -0.31979879640E+01  0.18038354936E+02  0.18332354886E+02  0.00000000000E+00 0.  1.
</event>
<event>
 7    1  0.2966651E-011  0.5052886E+02  0.7816164E-02  0.1300439E+00
        -11   -1    0    0    0    0  0.00000000000E+00  0.00000000000E+00  0.45593999997E+02  0.45594000000E+02  0.51100000000E-03 0. -1.
         11   -1    0    0    0    0 -0.00000000000E+00 -0.00000000000E+00 -0.45593999997E+02  0.45594000000E+02  0.51100000000E-03 0.  1.
    9900012    2    1    2    0    0 -0.12154279591E+02 -0.52735320970E+01 -0.38439935204E+02  0.50528864844E+02  0.30000015181E+02 0.  0.
         12    1    1    2    0    0  0.12154279591E+02  0.52735320970E+01  0.38439935204E+02  0.40659135156E+02  0.00000000000E+00 0. -1.
         11    1    3    3    0    0 -0.35853224735E+00 -0.12147828787E+02 -0.27891526440E+02  0.30424259022E+02  0.51100000000E-03 0. -1.
        -11    1    3    3    0    0 -0.12497233244E+02  0.83810443309E+01 -0.10657135417E+02  0.18439015114E+02  0.51100000000E-03 0.  1.
         12    1    3    3    0    0  0.70148590079E+00 -0.15067476407E+01  0.10872665300E+00  0.16655907081E+01  0.00000000000E+00 0. -1.
</event>
<event>
 7    1  0.2966651E-011  0.5052886E+02  0.7816164E-02  0.1300439E+00
        -11   -1    0    0    0    0  0.00000000000E+00  0.00000000000E+00  0.45593999997E+02  0.45594000000E+02  0.51100000000E-03 0.  1.
         11   -1    0    0    0    0 -0.00000000000E+00 -0.00000000000E+00 -0.45593999997E+02  0.45594000000E+02  0.51100000000E-03 0. -1.
    9900012    2    1    2    0    0 -0.22934664769E+02 -0.28078976868E+02  0.18404828855E+02  0.50528861849E+02  0.30000006076E+02 0.  0.
         12    1    1    2    0    0  0.22934664769E+02  0.28078976868E+02 -0.18404828855E+02  0.40659138151E+02  0.00000000000E+00 0. -1.
         11    1    3    3    0    0  0.78241201624E+00 -0.79258529090E+01 -0.48977372211E+01  0.93498204820E+01  0.51100000000E-03 0. -1.
        -11    1    3    3    0    0 -0.75400897692E+01 -0.47864450122E+01  0.14831673548E+02  0.17313045662E+02  0.51100000000E-03 0.  1.
        -12    1    3    3    0    0 -0.16176987016E+02 -0.15366678947E+02  0.84708925274E+01  0.23865995705E+02  0.00000000000E+00 0.  1.
</event>
<event>
 7    1  0.2966651E-011  0.5052887E+02  0.7816164E-02  0.1300439E+00
        -11   -1    0    0    0    0  0.00000000000E+00  0.00000000000E+00  0.45593999997E+02  0.45594000000E+02  0.51100000000E-03 0.  1.
         11   -1    0    0    0    0 -0.00000000000E+00 -0.00000000000E+00 -0.45593999997E+02  0.45594000000E+02  0.51100000000E-03 0. -1.
    9900012    2    1    2    0    0 -0.10546137220E+02 -0.16273238006E+02  0.35736889328E+02  0.50528873788E+02  0.30000042365E+02 0.  0.
         12    1    1    2    0    0  0.10546137220E+02  0.16273238006E+02 -0.35736889328E+02  0.40659126212E+02  0.00000000000E+00 0. -1.
         11    1    3    3    0    0 -0.54512634949E+01  0.64149071428E+01  0.21114172378E+01  0.86790201264E+01  0.51100000000E-03 0. -1.
        -11    1    3    3    0    0 -0.66897823349E+01 -0.94428946111E+01  0.15827550003E+02  0.19606957583E+02  0.51100000000E-03 0.  1.
         12    1    3    3    0    0  0.15949086097E+01 -0.13245250538E+02  0.17797922088E+02  0.22242896078E+02  0.00000000000E+00 0. -1.
</event>
<event>
 7    1  0.2966651E-011  0.5052885E+02  0.7816164E-02  0.1300439E+00
        -11   -1    0    0    0    0  0.00000000000E+00  0.00000000000E+00  0.45593999997E+02  0.45594000000E+02  0.51100000000E-03 0.  1.
         11   -1    0    0    0    0 -0.00000000000E+00 -0.00000000000E+00 -0.45593999997E+02  0.45594000000E+02  0.51100000000E-03 0. -1.
    9900012    2    1    2    0    0 -0.20985899390E+02  0.87513643713E+01  0.33707147806E+02  0.50528853860E+02  0.29999981794E+02 0.  0.
         12    1    1    2    0    0  0.20985899390E+02 -0.87513643713E+01 -0.33707147806E+02  0.40659146140E+02  0.00000000000E+00 0. -1.
         11    1    3    3    0    0 -0.27612835272E+01 -0.57080164110E+01  0.12018287447E+02  0.13588427852E+02  0.51100000000E-03 0. -1.
        -11    1    3    3    0    0 -0.15388238003E+02  0.16875310164E+02  0.10478507505E+02  0.25127138352E+02  0.51100000000E-03 0.  1.
        -12    1    3    3    0    0 -0.28363778599E+01 -0.24159293814E+01  0.11210352854E+02  0.11813287657E+02  0.00000000000E+00 0.  1.
</event>
<event>
 7    1  0.2966651E-011  0.5052880E+02  0.7816164E-02  0.1300439E+00
        -11   -1    0    0    0    0  0.00000000000E+00  0.00000000000E+00  0.45593999997E+02  0.45594000000E+02  0.51100000000E-03 0.  1.
         11   -1    0    0    0    0 -0.00000000000E+00 -0.00000000000E+00 -0.45593999997E+02  0.45594000000E+02  0.51100000000E-03 0. -1.
    9900012    2    1    2    0    0  0.12344265068E+02  0.80299900108E+01  0.37898666821E+02  0.50528799732E+02  0.29999817265E+02 0.  0.
         12    1    1    2    0    0 -0.12344265068E+02 -0.80299900108E+01 -0.37898666821E+02  0.40659200268E+02  0.00000000000E+00 0. -1.
         11    1    3    3    0    0  0.48425916698E+01  0.84741424493E+01 -0.13921128029E+00  0.97612071165E+01  0.51100000000E-03 0. -1.
        -11    1    3    3    0    0  0.87900592743E+01  0.18670792231E+01  0.36735024830E+02  0.37818159347E+02  0.51100000000E-03 0.  1.
         12    1    3    3    0    0 -0.12883858763E+01 -0.23112316615E+01  0.13028532705E+01  0.29494332683E+01  0.00000000000E+00 0. -1.
</event>
<event>
 7    1  0.2966651E-011  0.5052886E+02  0.7816164E-02  0.1300439E+00
        -11   -1    0    0    0    0  0.00000000000E+00  0.00000000000E+00  0.45593999997E+02  0.45594000000E+02  0.51100000000E-03 0.  1.
         11   -1    0    0    0    0 -0.00000000000E+00 -0.00000000000E+00 -0.45593999997E+02  0.45594000000E+02  0.51100000000E-03 0. -1.
    9900012    2    1    2    0    0 -0.26340016640E+02  0.18406299611E+02  0.24911397547E+02  0.50528855030E+02  0.29999985350E+02 0.  0.
         12    1    1    2    0    0  0.26340016640E+02 -0.18406299611E+02 -0.24911397547E+02  0.40659144970E+02  0.00000000000E+00 0. -1.
         11    1    3    3    0    0 -0.10274145905E+02  0.44225777377E+01 -0.13311371498E+01  0.11264510389E+02  0.51100000000E-03 0. -1.
        -11    1    3    3    0    0  0.18848689098E+01  0.10651941048E+02  0.79928331286E+01  0.13449979947E+02  0.51100000000E-03 0.  1.
        -12    1    3    3    0    0 -0.17950739644E+02  0.33317808247E+01  0.18249701568E+02  0.25814364694E+02  0.00000000000E+00 0.  1.
</event>
<event>
 7    1  0.2966651E-011  0.5052879E+02  0.7816164E-02  0.1300439E+00
        -11   -1    0    0    0    0  0.00000000000E+00  0.00000000000E+00  0.45593999997E+02  0.45594000000E+02  0.51100000000E-03 0. -1.
         11   -1    0    0    0    0 -0.00000000000E+00 -0.00000000000E+00 -0.45593999997E+02  0.45594000000E+02  0.51100000000E-03 0.  1.
    9900012    2    1    2    0    0  0.32960758229E+02 -0.22838716005E+02 -0.67195728006E+01  0.50528792059E+02  0.29999793941E+02 0.  0.
         12    1    1    2    0    0 -0.32960758229E+02  0.22838716005E+02  0.67195728006E+01  0.40659207941E+02  0.00000000000E+00 0. -1.
         11    1    3    3    0    0  0.14978206371E+02 -0.79994992945E+01  0.61832644529E+01  0.18071287022E+02  0.51100000000E-03 0. -1.
        -11    1    3    3    0    0  0.79167998766E+01 -0.22797199236E+01 -0.14086411278E+02  0.16318695603E+02  0.51100000000E-03 0.  1.
        -12    1    3    3    0    0  0.10065751981E+02 -0.12559496787E+02  0.11835740248E+01  0.16138809434E+02  0.00000000000E+00 0.  1.
</event>
<event>
 7    1  0.2966651E-011  0.5052899E+02  0.7816164E-02  0.1300438E+00
        -11   -1    0    0    0    0  0.00000000000E+00  0.00000000000E+00  0.45593999997E+02  0.45594000000E+02  0.51100000000E-03 0.  1.
         11   -1    0    0    0    0 -0.00000000000E+00 -0.00000000000E+00 -0.45593999997E+02  0.45594000000E+02  0.51100000000E-03 0. -1.
    9900012    2    1    2    0    0 -0.26183322906E+02  0.24982430156E+02  0.18532858384E+02  0.50528990484E+02  0.30000397073E+02 0.  0.
         12    1    1    2    0    0  0.26183322906E+02 -0.24982430156E+02 -0.18532858384E+02  0.40659009516E+02  0.00000000000E+00 0. -1.
         11    1    3    3    0    0 -0.92958672852E+00 -0.10986962436E+01  0.12053899973E+02  0.12139512747E+02  0.51100000000E-03 0. -1.
        -11    1    3    3    0    0 -0.17582147094E+02  0.19536753304E+02 -0.21830194323E+00  0.26284297253E+02  0.51100000000E-03 0.  1.
        -12    1    3    3    0    0 -0.76715890832E+01  0.65443730962E+01  0.66972603544E+01  0.12105180484E+02  0.00000000000E+00 0.  1.
</event>
<event>
 7    1  0.2966651E-011  0.5052886E+02  0.7816164E-02  0.1300439E+00
        -11   -1    0    0    0    0  0.00000000000E+00  0.00000000000E+00  0.45593999997E+02  0.45594000000E+02  0.51100000000E-03 0.  1.
         11   -1    0    0    0    0 -0.00000000000E+00 -0.00000000000E+00 -0.45593999997E+02  0.45594000000E+02  0.51100000000E-03 0. -1.
    9900012    2    1    2    0    0 -0.39280643057E+01  0.15205867350E+02  0.37503566237E+02  0.50528861156E+02  0.30000003969E+02 0.  0.
         12    1    1    2    0    0  0.39280643057E+01 -0.15205867350E+02 -0.37503566237E+02  0.40659138844E+02  0.00000000000E+00 0. -1.
         11    1    3    3    0    0 -0.55881291518E+01 -0.43631960319E+01  0.14977376128E+02  0.16570650650E+02  0.51100000000E-03 0. -1.
        -11    1    3    3    0    0  0.37425789516E+01  0.21886551970E+02  0.18744175728E+02  0.29058082840E+02  0.51100000000E-03 0.  1.
        -12    1    3    3    0    0 -0.20825141055E+01 -0.23174885886E+01  0.37820143807E+01  0.49001276651E+01  0.00000000000E+00 0.  1.
</event>
<event>
 7    1  0.2966651E-011  0.5052886E+02  0.7816164E-02  0.1300439E+00
        -11   -1    0    0    0    0  0.00000000000E+00  0.00000000000E+00  0.45593999997E+02  0.45594000000E+02  0.51100000000E-03 0.  1.
         11   -1    0    0    0    0 -0.00000000000E+00 -0.00000000000E+00 -0.45593999997E+02  0.45594000000E+02  0.51100000000E-03 0. -1.
    9900012    2    1    2    0    0  0.10636899861E+02  0.67202224569E+01  0.38663424935E+02  0.50528862574E+02  0.30000008280E+02 0.  0.
         12    1    1    2    0    0 -0.10636899861E+02 -0.67202224569E+01 -0.38663424935E+02  0.40659137426E+02  0.00000000000E+00 0. -1.
         11    1    3    3    0    0 -0.87092587858E+01  0.44460416597E+01  0.44167982283E+01  0.10729705583E+02  0.51100000000E-03 0. -1.
        -11    1    3    3    0    0  0.80187143294E+01  0.31722066244E+01  0.18167117052E+02  0.20109868637E+02  0.51100000000E-03 0.  1.
         12    1    3    3    0    0  0.11327444318E+02 -0.89802582721E+00  0.16079509655E+02  0.19689288354E+02  0.00000000000E+00 0. -1.
</event>
<event>
 7    1  0.2966651E-011  0.5052887E+02  0.7816164E-02  0.1300439E+00
        -11   -1    0    0    0    0  0.00000000000E+00  0.00000000000E+00  0.45593999997E+02  0.45594000000E+02  0.51100000000E-03 0.  1.
         11   -1    0    0    0    0 -0.00000000000E+00 -0.00000000000E+00 -0.45593999997E+02  0.45594000000E+02  0.51100000000E-03 0. -1.
    9900012    2    1    2    0    0  0.84727574629E+01  0.32756645960E+01  0.39631397419E+02  0.50528865000E+02  0.30000015655E+02 0.  0.
         12    1    1    2    0    0 -0.84727574629E+01 -0.32756645960E+01 -0.39631397419E+02  0.40659135000E+02  0.00000000000E+00 0. -1.
         11    1    3    3    0    0  0.61500755822E+01 -0.10072610704E+02  0.82449111916E+01  0.14396509191E+02  0.51100000000E-03 0. -1.
        -11    1    3    3    0    0 -0.24644551579E+01  0.62029583564E+01  0.23616660961E+02  0.24541738055E+02  0.51100000000E-03 0.  1.
         12    1    3    3    0    0  0.47871370385E+01  0.71453169435E+01  0.77698252665E+01  0.11590617754E+02  0.00000000000E+00 0. -1.
</event>
<event>
 7    1  0.2966651E-011  0.5052887E+02  0.7816164E-02  0.1300439E+00
        -11   -1    0    0    0    0  0.00000000000E+00  0.00000000000E+00  0.45593999997E+02  0.45594000000E+02  0.51100000000E-03 0. -1.
         11   -1    0    0    0    0 -0.00000000000E+00 -0.00000000000E+00 -0.45593999997E+02  0.45594000000E+02  0.51100000000E-03 0.  1.
    9900012    2    1    2    0    0 -0.18369231394E+02 -0.20036456183E+02 -0.30237008814E+02  0.50528868918E+02  0.30000027562E+02 0.  0.
         12    1    1    2    0    0  0.18369231394E+02  0.20036456183E+02  0.30237008814E+02  0.40659131082E+02  0.00000000000E+00 0. -1.
         11    1    3    3    0    0 -0.19326048929E+01  0.67655188168E+00 -0.16822182223E+02  0.16946341762E+02  0.51100000000E-03 0.  1.
        -11    1    3    3    0    0 -0.38925951569E+01 -0.84052461519E+01  0.27941498799E+01  0.96751089783E+01  0.51100000000E-03 0. -1.
        -12    1    3    3    0    0 -0.12544031344E+02 -0.12307761913E+02 -0.16208976471E+02  0.23907418177E+02  0.00000000000E+00 0.  1.
</event>
<event>
 7    1  0.2966651E-011  0.5052887E+02  0.7816164E-02  0.1300439E+00
        -11   -1    0    0    0    0  0.00000000000E+00  0.00000000000E+00  0.45593999997E+02  0.45594000000E+02  0.51100000000E-03 0.  1.
         11   -1    0    0    0    0 -0.00000000000E+00 -0.00000000000E+00 -0.45593999997E+02  0.45594000000E+02  0.51100000000E-03 0. -1.
    9900012    2    1    2    0    0 -0.36762056398E+02  0.12137291730E+02  0.12425869828E+02  0.50528869634E+02  0.30000029740E+02 0.  0.
         12    1    1    2    0    0  0.36762056398E+02 -0.12137291730E+02 -0.12425869828E+02  0.40659130366E+02  0.00000000000E+00 0. -1.
         11    1    3    3    0    0 -0.94945684623E+01  0.53034209187E+01 -0.78776780600E+01  0.13428734698E+02  0.51100000000E-03 0. -1.
        -11    1    3    3    0    0 -0.20377190118E+02  0.68386336431E+01  0.21153784195E+02  0.30157575719E+02  0.51100000000E-03 0.  1.
        -12    1    3    3    0    0 -0.68902978179E+01 -0.47628314960E-02 -0.85023630731E+00  0.69425592171E+01  0.00000000000E+00 0.  1.
</event>
<event>
 7    1  0.2966651E-011  0.5052886E+02  0.7816164E-02  0.1300439E+00
        -11   -1    0    0    0    0  0.00000000000E+00  0.00000000000E+00  0.45593999997E+02  0.45594000000E+02  0.51100000000E-03 0.  1.
         11   -1    0    0    0    0 -0.00000000000E+00 -0.00000000000E+00 -0.45593999997E+02  0.45594000000E+02  0.51100000000E-03 0. -1.
    9900012    2    1    2    0    0  0.13421658802E+02  0.25645199225E+02  0.28554311398E+02  0.50528857514E+02  0.29999992899E+02 0.  0.
         12    1    1    2    0    0 -0.13421658802E+02 -0.25645199225E+02 -0.28554311398E+02  0.40659142486E+02  0.00000000000E+00 0. -1.
         11    1    3    3    0    0  0.79767969485E+00 -0.43696705647E+01  0.49312882537E+01  0.66368605411E+01  0.51100000000E-03 0. -1.
        -11    1    3    3    0    0  0.12014645455E+02  0.21838454183E+02  0.78789560317E+01  0.26140920698E+02  0.51100000000E-03 0.  1.
        -12    1    3    3    0    0  0.60933365183E+00  0.81764156070E+01  0.15744067112E+02  0.17751076275E+02  0.00000000000E+00 0.  1.
</event>
<event>
 7    1  0.2966651E-011  0.5052888E+02  0.7816164E-02  0.1300439E+00
        -11   -1    0    0    0    0  0.00000000000E+00  0.00000000000E+00  0.45593999997E+02  0.45594000000E+02  0.51100000000E-03 0.  1.
         11   -1    0    0    0    0 -0.00000000000E+00 -0.00000000000E+00 -0.45593999997E+02  0.45594000000E+02  0.51100000000E-03 0. -1.
    9900012    2    1    2    0    0 -0.24134156130E+02  0.30741748340E+02  0.11209444583E+02  0.50528877641E+02  0.30000054078E+02 0.  0.
         12    1    1    2    0    0  0.24134156130E+02 -0.30741748340E+02 -0.11209444583E+02  0.40659122359E+02  0.00000000000E+00 0. -1.
         11    1    3    3    0    0 -0.10711860307E+02  0.10458144020E+01 -0.68223897744E+01  0.12742946343E+02  0.51100000000E-03 0. -1.
        -11    1    3    3    0    0 -0.10025544815E+02  0.27131408253E+02  0.15215447363E+02  0.32682330109E+02  0.51100000000E-03 0.  1.
        -12    1    3    3    0    0 -0.33967510076E+01  0.25645256853E+01  0.28163869946E+01  0.51036011895E+01  0.00000000000E+00 0.  1.
</event>
<event>
 7    1  0.2966651E-011  0.5052887E+02  0.7816164E-02  0.1300439E+00
        -11   -1    0    0    0    0  0.00000000000E+00  0.00000000000E+00  0.45593999997E+02  0.45594000000E+02  0.51100000000E-03 0.  1.
         11   -1    0    0    0    0 -0.00000000000E+00 -0.00000000000E+00 -0.45593999997E+02  0.45594000000E+02  0.51100000000E-03 0. -1.
    9900012    2    1    2    0    0  0.29165914874E+02  0.16559365718E+02 -0.22984821756E+02  0.50528865545E+02  0.30000017312E+02 0.  0.
         12    1    1    2    0    0 -0.29165914874E+02 -0.16559365718E+02  0.22984821756E+02  0.40659134455E+02  0.00000000000E+00 0. -1.
         11    1    3    3    0    0 -0.26466060587E+01 -0.54933976216E+01 -0.21412907244E+01  0.64627445630E+01  0.51100000000E-03 0. -1.
        -11    1    3    3    0    0  0.13658778652E+02  0.10255044745E+02 -0.10721982385E+02  0.20166533751E+02  0.51100000000E-03 0.  1.
         12    1    3    3    0    0  0.18153742281E+02  0.11797718594E+02 -0.10121548647E+02  0.23899587232E+02  0.00000000000E+00 0. -1.
</event>
<event>
 7    1  0.2966651E-011  0.5052886E+02  0.7816164E-02  0.1300439E+00
        -11   -1    0    0    0    0  0.00000000000E+00  0.00000000000E+00  0.45593999997E+02  0.45594000000E+02  0.51100000000E-03 0.  1.
         11   -1    0    0    0    0 -0.00000000000E+00 -0.00000000000E+00 -0.45593999997E+02  0.45594000000E+02  0.51100000000E-03 0. -1.
    9900012    2    1    2    0    0  0.72105320018E+01  0.15399250039E+02  0.36932873712E+02  0.50528857927E+02  0.29999994155E+02 0.  0.
         12    1    1    2    0    0 -0.72105320018E+01 -0.15399250039E+02 -0.36932873712E+02  0.40659142073E+02  0.00000000000E+00 0. -1.
         11    1    3    3    0    0  0.10471939081E+02  0.18336140810E+01  0.44521232373E+00  0.10640576253E+02  0.51100000000E-03 0. -1.
        -11    1    3    3    0    0  0.19319451629E+01  0.44958348849E+00  0.52827297661E+01  0.56428513597E+01  0.51100000000E-03 0.  1.
         12    1    3    3    0    0 -0.51933522421E+01  0.13116052470E+02  0.31204931622E+02  0.34245430315E+02  0.00000000000E+00 0. -1.
</event>
<event>
 7    1  0.2966651E-011  0.5052887E+02  0.7816164E-02  0.1300439E+00
        -11   -1    0    0    0    0  0.00000000000E+00  0.00000000000E+00  0.45593999997E+02  0.45594000000E+02  0.51100000000E-03 0. -1.
         11   -1    0    0    0    0 -0.00000000000E+00 -0.00000000000E+00 -0.45593999997E+02  0.45594000000E+02  0.51100000000E-03 0.  1.
    9900012    2    1    2    0    0 -0.20379686674E+02 -0.34259368139E+02 -0.80080422391E+01  0.50528872185E+02  0.30000037492E+02 0.  0.
         12    1    1    2    0    0  0.20379686674E+02  0.34259368139E+02  0.80080422391E+01  0.40659127815E+02  0.00000000000E+00 0. -1.
         11    1    3    3    0    0 -0.42977020703E+00  0.31308848061E+01  0.43361276087E+01  0.53655516958E+01  0.51100000000E-03 0. -1.
        -11    1    3    3    0    0 -0.17460802583E+02 -0.30521878449E+02 -0.63911747302E+01  0.35739499236E+02  0.51100000000E-03 0.  1.
         12    1    3    3    0    0 -0.24891138842E+01 -0.68683744957E+01 -0.59529951176E+01  0.94238212532E+01  0.00000000000E+00 0. -1.
</event>
<event>
 7    1  0.2966651E-011  0.5052886E+02  0.7816164E-02  0.1300439E+00
        -11   -1    0    0    0    0  0.00000000000E+00  0.00000000000E+00  0.45593999997E+02  0.45594000000E+02  0.51100000000E-03 0.  1.
         11   -1    0    0    0    0 -0.00000000000E+00 -0.00000000000E+00 -0.45593999997E+02  0.45594000000E+02  0.51100000000E-03 0. -1.
    9900012    2    1    2    0    0 -0.75671259037E+00  0.13201747817E+02  0.38448755395E+02  0.50528861411E+02  0.30000004745E+02 0.  0.
         12    1    1    2    0    0  0.75671259037E+00 -0.13201747817E+02 -0.38448755395E+02  0.40659138589E+02  0.00000000000E+00 0. -1.
         11    1    3    3    0    0 -0.37306452184E+01 -0.39010503138E+01  0.14655535178E+01  0.55931882385E+01  0.51100000000E-03 0. -1.
        -11    1    3    3    0    0 -0.36408425865E+01  0.88321423515E+01  0.31684939355E+02  0.33093773666E+02  0.51100000000E-03 0.  1.
         12    1    3    3    0    0  0.66147752145E+01  0.82706557798E+01  0.52982625219E+01  0.11841899506E+02  0.00000000000E+00 0. -1.
</event>
<event>
 7    1  0.2966651E-011  0.5052887E+02  0.7816164E-02  0.1300439E+00
        -11   -1    0    0    0    0  0.00000000000E+00  0.00000000000E+00  0.45593999997E+02  0.45594000000E+02  0.51100000000E-03 0.  1.
         11   -1    0    0    0    0 -0.00000000000E+00 -0.00000000000E+00 -0.45593999997E+02  0.45594000000E+02  0.51100000000E-03 0. -1.
    9900012    2    1    2    0    0 -0.13013138993E+02 -0.54651468039E+01  0.38130764379E+02  0.50528870544E+02  0.30000032505E+02 0.  0.
         12    1    1    2    0    0  0.13013138993E+02  0.54651468039E+01 -0.38130764379E+02  0.40659129456E+02  0.00000000000E+00 0. -1.
         11    1    3    3    0    0 -0.17559597911E+01  0.88755806733E+01  0.44693577856E+01  0.10091307465E+02  0.51100000000E-03 0. -1.
        -11    1    3    3    0    0  0.25694163067E+01 -0.48361344990E+01  0.10436901473E+02  0.11786390867E+02  0.51100000000E-03 0.  1.
         12    1    3    3    0    0 -0.13826595508E+02 -0.95045929783E+01  0.23224505120E+02  0.28651172212E+02  0.00000000000E+00 0. -1.
</event>
<event>
 7    1  0.2966651E-011  0.5052881E+02  0.7816164E-02  0.1300439E+00
        -11   -1    0    0    0    0  0.00000000000E+00  0.00000000000E+00  0.45593999997E+02  0.45594000000E+02  0.51100000000E-03 0. -1.
         11   -1    0    0    0    0 -0.00000000000E+00 -0.00000000000E+00 -0.45593999997E+02  0.45594000000E+02  0.51100000000E-03 0.  1.
    9900012    2    1    2    0    0 -0.67959597099E+01 -0.38447972205E+02 -0.11346263966E+02  0.50528814801E+02  0.29999863067E+02 0.  0.
         12    1    1    2    0    0  0.67959597099E+01  0.38447972205E+02  0.11346263966E+02  0.40659185199E+02  0.00000000000E+00 0. -1.
         11    1    3    3    0    0 -0.92338085640E+01 -0.12299189063E+02  0.25911453915E+01  0.15596387624E+02  0.51100000000E-03 0. -1.
        -11    1    3    3    0    0  0.10346103686E+02 -0.14777180465E+02 -0.62503794025E+01  0.19091206534E+02  0.51100000000E-03 0.  1.
         12    1    3    3    0    0 -0.79082548316E+01 -0.11371602677E+02 -0.76870299555E+01  0.15841220643E+02  0.00000000000E+00 0. -1.
</event>
<event>
 7    1  0.2966651E-011  0.5052887E+02  0.7816164E-02  0.1300439E+00
        -11   -1    0    0    0    0  0.00000000000E+00  0.00000000000E+00  0.45593999997E+02  0.45594000000E+02  0.51100000000E-03 0. -1.
         11   -1    0    0    0    0 -0.00000000000E+00 -0.00000000000E+00 -0.45593999997E+02  0.45594000000E+02  0.51100000000E-03 0.  1.
    9900012    2    1    2    0    0 -0.24481874170E+02  0.32440562107E+02 -0.11886577618E+01  0.50528866463E+02  0.30000020101E+02 0.  0.
         12    1    1    2    0    0  0.24481874170E+02 -0.32440562107E+02  0.11886577618E+01  0.40659133537E+02  0.00000000000E+00 0. -1.
         11    1    3    3    0    0 -0.20445222043E+01  0.21826767615E+02  0.19063340624E+01  0.22005044090E+02  0.51100000000E-03 0. -1.
        -11    1    3    3    0    0 -0.14698863043E+02  0.96816597668E+01 -0.79796764234E+01  0.19325277403E+02  0.51100000000E-03 0.  1.
         12    1    3    3    0    0 -0.77384889221E+01  0.93213472517E+00  0.48846845992E+01  0.91985449706E+01  0.00000000000E+00 0. -1.
</event>
<event>
 7    1  0.2966651E-011  0.5052886E+02  0.7816164E-02  0.1300439E+00
        -11   -1    0    0    0    0  0.00000000000E+00  0.00000000000E+00  0.45593999997E+02  0.45594000000E+02  0.51100000000E-03 0.  1.
         11   -1    0    0    0    0 -0.00000000000E+00 -0.00000000000E+00 -0.45593999997E+02  0.45594000000E+02  0.51100000000E-03 0. -1.
    9900012    2    1    2    0    0 -0.23841792964E+02  0.32708783738E+02  0.38561266244E+01  0.50528864029E+02  0.30000012701E+02 0.  0.
         12    1    1    2    0    0  0.23841792964E+02 -0.32708783738E+02 -0.38561266244E+01  0.40659135971E+02  0.00000000000E+00 0. -1.
         11    1    3    3    0    0 -0.26270817524E+01  0.90357539437E+01 -0.40076557611E+01  0.10227791200E+02  0.51100000000E-03 0. -1.
        -11    1    3    3    0    0 -0.10810788517E+02  0.64145937025E+01  0.14400793740E+02  0.19115517815E+02  0.51100000000E-03 0.  1.
        -12    1    3    3    0    0 -0.10403922695E+02  0.17258436092E+02 -0.65370113548E+01  0.21185555014E+02  0.00000000000E+00 0.  1.
</event>
<event>
 7    1  0.2966651E-011  0.5052886E+02  0.7816164E-02  0.1300439E+00
        -11   -1    0    0    0    0  0.00000000000E+00  0.00000000000E+00  0.45593999997E+02  0.45594000000E+02  0.51100000000E-03 0. -1.
         11   -1    0    0    0    0 -0.00000000000E+00 -0.00000000000E+00 -0.45593999997E+02  0.45594000000E+02  0.51100000000E-03 0.  1.
    9900012    2    1    2    0    0  0.18277375437E+02 -0.67875244181E+01 -0.35679585862E+02  0.50528858496E+02  0.29999995884E+02 0.  0.
         12    1    1    2    0    0 -0.18277375437E+02  0.67875244181E+01  0.35679585862E+02  0.40659141504E+02  0.00000000000E+00 0. -1.
         11    1    3    3    0    0  0.13114132581E+02 -0.82262124126E+01 -0.62945498842E+01  0.16711445255E+02  0.51100000000E-03 0. -1.
        -11    1    3    3    0    0  0.69825195166E+01  0.65612726249E+01 -0.25190525824E+02  0.26951223883E+02  0.51100000000E-03 0.  1.
        -12    1    3    3    0    0 -0.18192766611E+01 -0.51225846304E+01 -0.41945101536E+01  0.68661893576E+01  0.00000000000E+00 0.  1.
</event>
<event>
 7    1  0.2966651E-011  0.5052885E+02  0.7816164E-02  0.1300439E+00
        -11   -1    0    0    0    0  0.00000000000E+00  0.00000000000E+00  0.45593999997E+02  0.45594000000E+02  0.51100000000E-03 0. -1.
         11   -1    0    0    0    0 -0.00000000000E+00 -0.00000000000E+00 -0.45593999997E+02  0.45594000000E+02  0.51100000000E-03 0.  1.
    9900012    2    1    2    0    0  0.91387902440E+01 -0.24340016582E+02 -0.31260400853E+02  0.50528849052E+02  0.29999967179E+02 0.  0.
         12    1    1    2    0    0 -0.91387902440E+01  0.24340016582E+02  0.31260400853E+02  0.40659150948E+02  0.00000000000E+00 0. -1.
         11    1    3    3    0    0  0.12411247510E+02 -0.18950439690E+01 -0.10605453434E+02  0.16434898819E+02  0.51100000000E-03 0. -1.
        -11    1    3    3    0    0 -0.66765383942E+01 -0.49448953513E+01 -0.11105497832E+02  0.13869399314E+02  0.51100000000E-03 0.  1.
         12    1    3    3    0    0  0.34040811285E+01 -0.17500077261E+02 -0.95494495870E+01  0.20224550920E+02  0.00000000000E+00 0. -1.
</event>
<event>
 7    1  0.2966651E-011  0.5052886E+02  0.7816164E-02  0.1300439E+00
        -11   -1    0    0    0    0  0.00000000000E+00  0.00000000000E+00  0.45593999997E+02  0.45594000000E+02  0.51100000000E-03 0.  1.
         11   -1    0    0    0    0 -0.00000000000E+00 -0.00000000000E+00 -0.45593999997E+02  0.45594000000E+02  0.51100000000E-03 0. -1.
    9900012    2    1    2    0    0  0.24977899096E+02  0.21082903682E+01  0.32012889623E+02  0.50528862853E+02  0.30000009127E+02 0.  0.
         12    1    1    2    0    0 -0.24977899096E+02 -0.21082903682E+01 -0.32012889623E+02  0.40659137147E+02  0.00000000000E+00 0. -1.
         11    1    3    3    0    0  0.16567019326E+02 -0.12526803093E+02  0.20174671446E+02  0.28955211850E+02  0.51100000000E-03 0.  1.
        -11    1    3    3    0    0  0.50341132447E+01  0.13560590954E+02  0.99679013905E+01  0.17566757856E+02  0.51100000000E-03 0. -1.
         12    1    3    3    0    0  0.33767665254E+01  0.10745025063E+01  0.18703167862E+01  0.40068931461E+01  0.00000000000E+00 0. -1.
</event>
<event>
 7    1  0.2966651E-011  0.5052886E+02  0.7816164E-02  0.1300439E+00
        -11   -1    0    0    0    0  0.00000000000E+00  0.00000000000E+00  0.45593999997E+02  0.45594000000E+02  0.51100000000E-03 0.  1.
         11   -1    0    0    0    0 -0.00000000000E+00 -0.00000000000E+00 -0.45593999997E+02  0.45594000000E+02  0.51100000000E-03 0. -1.
    9900012    2    1    2    0    0 -0.64360247546E+01 -0.77467193315E+00  0.40139047153E+02  0.50528860343E+02  0.30000001499E+02 0.  0.
         12    1    1    2    0    0  0.64360247546E+01  0.77467193315E+00 -0.40139047153E+02  0.40659139657E+02  0.00000000000E+00 0. -1.
         11    1    3    3    0    0 -0.46683525790E+01  0.72236799205E+01  0.14034216012E+02  0.16460081614E+02  0.51100000000E-03 0. -1.
        -11    1    3    3    0    0 -0.17976343207E+01 -0.13667553276E+02  0.24606495444E+02  0.28204842137E+02  0.51100000000E-03 0.  1.
        -12    1    3    3    0    0  0.29962145145E-01  0.56692014224E+01  0.14983356978E+01  0.58639365925E+01  0.00000000000E+00 0.  1.
</event>
<event>
 7    1  0.2966651E-011  0.5052885E+02  0.7816164E-02  0.1300439E+00
        -11   -1    0    0    0    0  0.00000000000E+00  0.00000000000E+00  0.45593999997E+02  0.45594000000E+02  0.51100000000E-03 0. -1.
         11   -1    0    0    0    0 -0.00000000000E+00 -0.00000000000E+00 -0.45593999997E+02  0.45594000000E+02  0.51100000000E-03 0.  1.
    9900012    2    1    2    0    0  0.32813081737E+02  0.19634411371E+02  0.13818743500E+02  0.50528854474E+02  0.29999983659E+02 0.  0.
         12    1    1    2    0    0 -0.32813081737E+02 -0.19634411371E+02 -0.13818743500E+02  0.40659145526E+02  0.00000000000E+00 0. -1.
         11    1    3    3    0    0 -0.11771105035E+01 -0.29366418593E+01 -0.44290463999E+01  0.54429685670E+01  0.51100000000E-03 0. -1.
        -11    1    3    3    0    0  0.87495752970E+01  0.57735395019E+01  0.19450802822E+01  0.10661714863E+02  0.51100000000E-03 0.  1.
         12    1    3    3    0    0  0.25240616944E+02  0.16797513729E+02  0.16302709618E+02  0.34424171044E+02  0.00000000000E+00 0. -1.
</event>
<event>
 7    1  0.2966651E-011  0.5052886E+02  0.7816164E-02  0.1300439E+00
        -11   -1    0    0    0    0  0.00000000000E+00  0.00000000000E+00  0.45593999997E+02  0.45594000000E+02  0.51100000000E-03 0.  1.
         11   -1    0    0    0    0 -0.00000000000E+00 -0.00000000000E+00 -0.45593999997E+02  0.45594000000E+02  0.51100000000E-03 0. -1.
    9900012    2    1    2    0    0  0.20569172568E+02 -0.26850428134E+02  0.22563890208E+02  0.50528862129E+02  0.30000006928E+02 0.  0.
         12    1    1    2    0    0 -0.20569172568E+02  0.26850428134E+02 -0.22563890208E+02  0.40659137871E+02  0.00000000000E+00 0. -1.
         11    1    3    3    0    0  0.16594735137E+02 -0.80904179858E+01 -0.65164096528E-01  0.18461970211E+02  0.51100000000E-03 0. -1.
        -11    1    3    3    0    0  0.33086646607E+01 -0.13238536968E+02  0.22722020589E+02  0.26504647570E+02  0.51100000000E-03 0.  1.
         12    1    3    3    0    0  0.66577276969E+00 -0.55214731794E+01 -0.92966284738E-01  0.55622443476E+01  0.00000000000E+00 0. -1.
</event>
<event>
 7    1  0.2966651E-011  0.5052887E+02  0.7816164E-02  0.1300439E+00
        -11   -1    0    0    0    0  0.00000000000E+00  0.00000000000E+00  0.45593999997E+02  0.45594000000E+02  0.51100000000E-03 0.  1.
         11   -1    0    0    0    0 -0.00000000000E+00 -0.00000000000E+00 -0.45593999997E+02  0.45594000000E+02  0.51100000000E-03 0. -1.
    9900012    2    1    2    0    0  0.34328539285E+02  0.15581838348E+02  0.15229000134E+02  0.50528871371E+02  0.30000035020E+02 0.  0.
         12    1    1    2    0    0 -0.34328539285E+02 -0.15581838348E+02 -0.15229000134E+02  0.40659128629E+02  0.00000000000E+00 0. -1.
         11    1    3    3    0    0  0.11172059826E+02  0.11790888113E+02  0.13055037397E+02  0.20839240987E+02  0.51100000000E-03 0. -1.
        -11    1    3    3    0    0  0.22268432581E+02  0.44482902256E+01 -0.43086647319E+01  0.23113523478E+02  0.51100000000E-03 0.  1.
         12    1    3    3    0    0  0.88804687855E+00 -0.65733999091E+00  0.64826274699E+01  0.65761069057E+01  0.00000000000E+00 0. -1.
</event>
<event>
 7    1  0.2966651E-011  0.5052886E+02  0.7816164E-02  0.1300439E+00
        -11   -1    0    0    0    0  0.00000000000E+00  0.00000000000E+00  0.45593999997E+02  0.45594000000E+02  0.51100000000E-03 0. -1.
         11   -1    0    0    0    0 -0.00000000000E+00 -0.00000000000E+00 -0.45593999997E+02  0.45594000000E+02  0.51100000000E-03 0.  1.
    9900012    2    1    2    0    0 -0.24349186314E+02  0.27914975545E+02  0.16764154254E+02  0.50528860785E+02  0.30000002842E+02 0.  0.
         12    1    1    2    0    0  0.24349186314E+02 -0.27914975545E+02 -0.16764154254E+02  0.40659139215E+02  0.00000000000E+00 0. -1.
         11    1    3    3    0    0 -0.10889988039E+01 -0.18513676683E+01  0.16844384835E+01  0.27296179044E+01  0.51100000000E-03 0. -1.
        -11    1    3    3    0    0 -0.69281788757E+01  0.24322590998E+02  0.17006520604E+02  0.30476381654E+02  0.51100000000E-03 0.  1.
        -12    1    3    3    0    0 -0.16332008634E+02  0.54437522152E+01 -0.19268048335E+01  0.17322861227E+02  0.00000000000E+00 0.  1.
</event>
<event>
 7    1  0.2966651E-011  0.5052887E+02  0.7816164E-02  0.1300439E+00
        -11   -1    0    0    0    0  0.00000000000E+00  0.00000000000E+00  0.45593999997E+02  0.45594000000E+02  0.51100000000E-03 0.  1.
         11   -1    0    0    0    0 -0.00000000000E+00 -0.00000000000E+00 -0.45593999997E+02  0.45594000000E+02  0.51100000000E-03 0. -1.
    9900012    2    1    2    0    0 -0.93613660260E+01 -0.41711225678E+01  0.39346305583E+02  0.50528865720E+02  0.30000017843E+02 0.  0.
         12    1    1    2    0    0  0.93613660260E+01  0.41711225678E+01 -0.39346305583E+02  0.40659134280E+02  0.00000000000E+00 0. -1.
         11    1    3    3    0    0  0.35087158781E+01  0.76407020308E+01  0.14909426100E+01  0.85389885094E+01  0.51100000000E-03 0. -1.
        -11    1    3    3    0    0 -0.38421197867E+01 -0.65006428168E+01  0.18507308411E+02  0.19988514361E+02  0.51100000000E-03 0.  1.
         12    1    3    3    0    0 -0.90279621174E+01 -0.53111817818E+01  0.19348054562E+02  0.22001362850E+02  0.00000000000E+00 0. -1.
</event>
<event>
 7    1  0.2966651E-011  0.5052886E+02  0.7816164E-02  0.1300439E+00
        -11   -1    0    0    0    0  0.00000000000E+00  0.00000000000E+00  0.45593999997E+02  0.45594000000E+02  0.51100000000E-03 0.  1.
         11   -1    0    0    0    0 -0.00000000000E+00 -0.00000000000E+00 -0.45593999997E+02  0.45594000000E+02  0.51100000000E-03 0. -1.
    9900012    2    1    2    0    0  0.17555871009E+02 -0.12501929915E+02  0.34476927649E+02  0.50528863283E+02  0.30000010434E+02 0.  0.
         12    1    1    2    0    0 -0.17555871009E+02  0.12501929915E+02 -0.34476927649E+02  0.40659136717E+02  0.00000000000E+00 0. -1.
         11    1    3    3    0    0  0.17610250032E+01  0.47199123593E+01  0.52174784014E+01  0.72526452327E+01  0.51100000000E-03 0. -1.
        -11    1    3    3    0    0  0.13921788399E+02 -0.78876108798E+01  0.43087925228E+01  0.16570947193E+02  0.51100000000E-03 0.  1.
        -12    1    3    3    0    0  0.18730576063E+01 -0.93342313949E+01  0.24950656725E+02  0.26705270857E+02  0.00000000000E+00 0.  1.
</event>
<event>
 7    1  0.2966651E-011  0.5052885E+02  0.7816164E-02  0.1300439E+00
        -11   -1    0    0    0    0  0.00000000000E+00  0.00000000000E+00  0.45593999997E+02  0.45594000000E+02  0.51100000000E-03 0. -1.
         11   -1    0    0    0    0 -0.00000000000E+00 -0.00000000000E+00 -0.45593999997E+02  0.45594000000E+02  0.51100000000E-03 0.  1.
    9900012    2    1    2    0    0  0.25874358547E+02  0.14120695438E+02 -0.28005172285E+02  0.50528854109E+02  0.29999982550E+02 0.  0.
         12    1    1    2    0    0 -0.25874358547E+02 -0.14120695438E+02  0.28005172285E+02  0.40659145891E+02  0.00000000000E+00 0. -1.
         11    1    3    3    0    0  0.59578204386E+00  0.12519534270E+02 -0.14164433529E+02  0.18913616049E+02  0.51100000000E-03 0. -1.
        -11    1    3    3    0    0  0.23664764702E+02  0.52930765023E+01 -0.12942143424E+02  0.27487030104E+02  0.51100000000E-03 0.  1.
         12    1    3    3    0    0  0.16138118012E+01 -0.36919153341E+01 -0.89859533180E+00  0.41282079568E+01  0.00000000000E+00 0. -1.
</event>
<event>
 7    1  0.2966651E-011  0.5052887E+02  0.7816164E-02  0.1300439E+00
        -11   -1    0    0    0    0  0.00000000000E+00  0.00000000000E+00  0.45593999997E+02  0.45594000000E+02  0.51100000000E-03 0.  1.
         11   -1    0    0    0    0 -0.00000000000E+00 -0.00000000000E+00 -0.45593999997E+02  0.45594000000E+02  0.51100000000E-03 0. -1.
    9900012    2    1    2    0    0  0.26976851813E+02  0.30044188258E+02 -0.47708302679E+01  0.50528873063E+02  0.30000040163E+02 0.  0.
         12    1    1    2    0    0 -0.26976851813E+02 -0.30044188258E+02  0.47708302679E+01  0.40659126937E+02  0.00000000000E+00 0. -1.
         11    1    3    3    0    0  0.28701129012E+01  0.16653509850E+01  0.64426800167E+01  0.72470040726E+01  0.51100000000E-03 0. -1.
        -11    1    3    3    0    0  0.12038153960E+02  0.15183853732E+02 -0.15592719240E+02  0.24871659745E+02  0.51100000000E-03 0.  1.
        -12    1    3    3    0    0  0.12068584952E+02  0.13194983542E+02  0.43792089551E+01  0.18410209246E+02  0.00000000000E+00 0.  1.
</event>
<event>
 7    1  0.2966651E-011  0.5052886E+02  0.7816164E-02  0.1300439E+00
        -11   -1    0    0    0    0  0.00000000000E+00  0.00000000000E+00  0.45593999997E+02  0.45594000000E+02  0.51100000000E-03 0.  1.
         11   -1    0    0    0    0 -0.00000000000E+00 -0.00000000000E+00 -0.45593999997E+02  0.45594000000E+02  0.51100000000E-03 0. -1.
    9900012    2    1    2    0    0 -0.98325419742E+00 -0.25038157617E+02  0.32020139968E+02  0.50528862168E+02  0.30000007045E+02 0.  0.
         12    1    1    2    0    0  0.98325419742E+00  0.25038157617E+02 -0.32020139968E+02  0.40659137832E+02  0.00000000000E+00 0. -1.
         11    1    3    3    0    0  0.47627642007E+01 -0.22186775602E+02  0.15198303411E+02  0.27311634174E+02  0.51100000000E-03 0.  1.
        -11    1    3    3    0    0 -0.15054967504E+01  0.56098872458E+01  0.32039699677E+01  0.66334590668E+01  0.51100000000E-03 0. -1.
         12    1    3    3    0    0 -0.42405216477E+01 -0.84612692609E+01  0.13617866590E+02  0.16583768927E+02  0.00000000000E+00 0. -1.
</event>
<event>
 7    1  0.2966651E-011  0.5052886E+02  0.7816164E-02  0.1300439E+00
        -11   -1    0    0    0    0  0.00000000000E+00  0.00000000000E+00  0.45593999997E+02  0.45594000000E+02  0.51100000000E-03 0.  1.
         11   -1    0    0    0    0 -0.00000000000E+00 -0.00000000000E+00 -0.45593999997E+02  0.45594000000E+02  0.51100000000E-03 0. -1.
    9900012    2    1    2    0    0 -0.76375104201E+01  0.35887390070E+02  0.17519407008E+02  0.50528856460E+02  0.29999989697E+02 0.  0.
         12    1    1    2    0    0  0.76375104201E+01 -0.35887390070E+02 -0.17519407008E+02  0.40659143540E+02  0.00000000000E+00 0. -1.
         11    1    3    3    0    0  0.35533445029E+01 -0.37857894301E+00 -0.10486248001E+01  0.37241365986E+01  0.51100000000E-03 0. -1.
        -11    1    3    3    0    0 -0.14368080903E+02  0.26404718241E+02  0.62405004461E+01  0.30701705821E+02  0.51100000000E-03 0.  1.
        -12    1    3    3    0    0  0.31772259800E+01  0.98612507719E+01  0.12327531362E+02  0.16103014041E+02  0.00000000000E+00 0.  1.
</event>
<event>
 7    1  0.2966651E-011  0.5052887E+02  0.7816164E-02  0.1300439E+00
        -11   -1    0    0    0    0  0.00000000000E+00  0.00000000000E+00  0.45593999997E+02  0.45594000000E+02  0.51100000000E-03 0. -1.
         11   -1    0    0    0    0 -0.00000000000E+00 -0.00000000000E+00 -0.45593999997E+02  0.45594000000E+02  0.51100000000E-03 0.  1.
    9900012    2    1    2    0    0 -0.29417621359E+02 -0.22749624943E+02 -0.16438454249E+02  0.50528872371E+02  0.30000038058E+02 0.  0.
         12    1    1    2    0    0  0.29417621359E+02  0.22749624943E+02  0.16438454249E+02  0.40659127629E+02  0.00000000000E+00 0. -1.
         11    1    3    3    0    0 -0.10977908859E+02  0.11323178869E+01 -0.12241369152E+02  0.16481739765E+02  0.51100000000E-03 0. -1.
        -11    1    3    3    0    0 -0.14554169072E+02 -0.14791886845E+02  0.40860931780E+01  0.21149938807E+02  0.51100000000E-03 0.  1.
        -12    1    3    3    0    0 -0.38855434274E+01 -0.90900559846E+01 -0.82831782758E+01  0.12897193799E+02  0.00000000000E+00 0.  1.
</event>
<event>
 7    1  0.2966651E-011  0.5052888E+02  0.7816164E-02  0.1300439E+00
        -11   -1    0    0    0    0  0.00000000000E+00  0.00000000000E+00  0.45593999997E+02  0.45594000000E+02  0.51100000000E-03 0.  1.
         11   -1    0    0    0    0 -0.00000000000E+00 -0.00000000000E+00 -0.45593999997E+02  0.45594000000E+02  0.51100000000E-03 0. -1.
    9900012    2    1    2    0    0 -0.13830696933E+02  0.36284119967E+02  0.12055632989E+02  0.50528882619E+02  0.30000069209E+02 0.  0.
         12    1    1    2    0    0  0.13830696933E+02 -0.36284119967E+02 -0.12055632989E+02  0.40659117381E+02  0.00000000000E+00 0. -1.
         11    1    3    3    0    0 -0.33160401234E+01  0.21904838792E+02  0.11819868912E+02  0.25110304378E+02  0.51100000000E-03 0. -1.
        -11    1    3    3    0    0 -0.14184255873E+02  0.11631157328E+02  0.47879515742E+01  0.18957885324E+02  0.51100000000E-03 0.  1.
         12    1    3    3    0    0  0.36695990627E+01  0.27481238477E+01 -0.45521874967E+01  0.64606929170E+01  0.00000000000E+00 0. -1.
</event>
<event>
 7    1  0.2966651E-011  0.5052886E+02  0.7816164E-02  0.1300439E+00
        -11   -1    0    0    0    0  0.00000000000E+00  0.00000000000E+00  0.45593999997E+02  0.45594000000E+02  0.51100000000E-03 0. -1.
         11   -1    0    0    0    0 -0.00000000000E+00 -0.00000000000E+00 -0.45593999997E+02  0.45594000000E+02  0.51100000000E-03 0.  1.
    9900012    2    1    2    0    0  0.36730397094E+02  0.65024099934E+01  0.16179057675E+02  0.50528864327E+02  0.30000013609E+02 0.  0.
         12    1    1    2    0    0 -0.36730397094E+02 -0.65024099934E+01 -0.16179057675E+02  0.40659135673E+02  0.00000000000E+00 0. -1.
         11    1    3    3    0    0  0.99206651610E+01  0.90238680768E+01  0.16337963488E+02  0.21137143693E+02  0.51100000000E-03 0. -1.
        -11    1    3    3    0    0  0.20984978662E+02 -0.63867212978E+01  0.21237295386E+01  0.22037916549E+02  0.51100000000E-03 0.  1.
        -12    1    3    3    0    0  0.58247532705E+01  0.38652632144E+01 -0.22826353514E+01  0.73538040854E+01  0.00000000000E+00 0.  1.
</event>
<event>
 7    1  0.2966651E-011  0.5052887E+02  0.7816164E-02  0.1300439E+00
        -11   -1    0    0    0    0  0.00000000000E+00  0.00000000000E+00  0.45593999997E+02  0.45594000000E+02  0.51100000000E-03 0.  1.
         11   -1    0    0    0    0 -0.00000000000E+00 -0.00000000000E+00 -0.45593999997E+02  0.45594000000E+02  0.51100000000E-03 0. -1.
    9900012    2    1    2    0    0 -0.35701951406E+02 -0.13455357436E+01  0.19409416740E+02  0.50528865001E+02  0.30000015658E+02 0.  0.
         12    1    1    2    0    0  0.35701951406E+02  0.13455357436E+01 -0.19409416740E+02  0.40659134999E+02  0.00000000000E+00 0. -1.
         11    1    3    3    0    0 -0.19904245757E+00  0.38770800680E+01  0.12824465238E+01  0.40885250520E+01  0.51100000000E-03 0. -1.
        -11    1    3    3    0    0 -0.10788041275E+02 -0.12838061778E+02  0.88823076596E+01  0.18976118001E+02  0.51100000000E-03 0.  1.
        -12    1    3    3    0    0 -0.24714867674E+02  0.76154459669E+01  0.92446625567E+01  0.27464221948E+02  0.00000000000E+00 0.  1.
</event>
<event>
 7    1  0.2966651E-011  0.5052886E+02  0.7816164E-02  0.1300439E+00
        -11   -1    0    0    0    0  0.00000000000E+00  0.00000000000E+00  0.45593999997E+02  0.45594000000E+02  0.51100000000E-03 0. -1.
         11   -1    0    0    0    0 -0.00000000000E+00 -0.00000000000E+00 -0.45593999997E+02  0.45594000000E+02  0.51100000000E-03 0.  1.
    9900012    2    1    2    0    0 -0.10261142325E+02  0.39263086878E+02  0.25068982645E+01  0.50528861151E+02  0.30000003956E+02 0.  0.
         12    1    1    2    0    0  0.10261142325E+02 -0.39263086878E+02 -0.25068982645E+01  0.40659138849E+02  0.00000000000E+00 0. -1.
         11    1    3    3    0    0  0.35029016358E+01  0.89042382031E+01  0.76620998581E+01  0.12258203471E+02  0.51100000000E-03 0. -1.
        -11    1    3    3    0    0 -0.80529286566E+01  0.20407127778E+02 -0.11902913169E+02  0.24959564625E+02  0.51100000000E-03 0.  1.
        -12    1    3    3    0    0 -0.57111153040E+01  0.99517208964E+01  0.67477115751E+01  0.13311093055E+02  0.00000000000E+00 0.  1.
</event>
<event>
 7    1  0.2966651E-011  0.5052886E+02  0.7816164E-02  0.1300439E+00
        -11   -1    0    0    0    0  0.00000000000E+00  0.00000000000E+00  0.45593999997E+02  0.45594000000E+02  0.51100000000E-03 0. -1.
         11   -1    0    0    0    0 -0.00000000000E+00 -0.00000000000E+00 -0.45593999997E+02  0.45594000000E+02  0.51100000000E-03 0.  1.
    9900012    2    1    2    0    0  0.40434309936E+02 -0.19707514569E+01 -0.37879394645E+01  0.50528858756E+02  0.29999996675E+02 0.  0.
         12    1    1    2    0    0 -0.40434309936E+02  0.19707514569E+01  0.37879394645E+01  0.40659141244E+02  0.00000000000E+00 0. -1.
         11    1    3    3    0    0 -0.41275344485E+01  0.16189379802E+01 -0.16994190580E+01  0.47482129483E+01  0.51100000000E-03 0. -1.
        -11    1    3    3    0    0  0.11725103860E+02  0.14547135143E+01 -0.40785509898E+01  0.12499153186E+02  0.51100000000E-03 0.  1.
         12    1    3    3    0    0  0.32836740525E+02 -0.50444029514E+01  0.19900305833E+01  0.33281492622E+02  0.00000000000E+00 0. -1.
</event>
<event>
 7    1  0.2966651E-011  0.5052886E+02  0.7816164E-02  0.1300439E+00
        -11   -1    0    0    0    0  0.00000000000E+00  0.00000000000E+00  0.45593999997E+02  0.45594000000E+02  0.51100000000E-03 0.  1.
         11   -1    0    0    0    0 -0.00000000000E+00 -0.00000000000E+00 -0.45593999997E+02  0.45594000000E+02  0.51100000000E-03 0. -1.
    9900012    2    1    2    0    0 -0.22869997762E+02  0.26924044827E+02 -0.20130194753E+02  0.50528859228E+02  0.29999998110E+02 0.  0.
         12    1    1    2    0    0  0.22869997762E+02 -0.26924044827E+02  0.20130194753E+02  0.40659140772E+02  0.00000000000E+00 0. -1.
         11    1    3    3    0    0  0.20537408859E+01  0.12744902529E+02  0.26022116159E+01  0.13168974814E+02  0.51100000000E-03 0. -1.
        -11    1    3    3    0    0 -0.17682332979E+02  0.13490527815E+02 -0.15553279560E+02  0.27139707914E+02  0.51100000000E-03 0.  1.
         12    1    3    3    0    0 -0.72414056690E+01  0.68861448359E+00 -0.71791268088E+01  0.10220176501E+02  0.00000000000E+00 0. -1.
</event>
<event>
 7    1  0.2966651E-011  0.5052886E+02  0.7816164E-02  0.1300439E+00
        -11   -1    0    0    0    0  0.00000000000E+00  0.00000000000E+00  0.45593999997E+02  0.45594000000E+02  0.51100000000E-03 0. -1.
         11   -1    0    0    0    0 -0.00000000000E+00 -0.00000000000E+00 -0.45593999997E+02  0.45594000000E+02  0.51100000000E-03 0.  1.
    9900012    2    1    2    0    0 -0.39741326826E+02 -0.79684795281E+01 -0.32087170003E+01  0.50528860945E+02  0.30000003330E+02 0.  0.
         12    1    1    2    0    0  0.39741326826E+02  0.79684795281E+01  0.32087170003E+01  0.40659139055E+02  0.00000000000E+00 0. -1.
         11    1    3    3    0    0 -0.21492083090E+02  0.26741991986E+01 -0.98438845217E+01  0.23789977714E+02  0.51100000000E-03 0. -1.
        -11    1    3    3    0    0 -0.18479874921E+02 -0.12005736926E+02  0.22628153552E+01  0.22153190060E+02  0.51100000000E-03 0.  1.
         12    1    3    3    0    0  0.23063118517E+00  0.13630581991E+01  0.43723521662E+01  0.45856931715E+01  0.00000000000E+00 0. -1.
</event>
<event>
 7    1  0.2966651E-011  0.5052887E+02  0.7816164E-02  0.1300439E+00
        -11   -1    0    0    0    0  0.00000000000E+00  0.00000000000E+00  0.45593999997E+02  0.45594000000E+02  0.51100000000E-03 0.  1.
         11   -1    0    0    0    0 -0.00000000000E+00 -0.00000000000E+00 -0.45593999997E+02  0.45594000000E+02  0.51100000000E-03 0. -1.
    9900012    2    1    2    0    0  0.34681531661E+02 -0.13681439870E+02  0.16222662637E+02  0.50528865500E+02  0.30000017172E+02 0.  0.
         12    1    1    2    0    0 -0.34681531661E+02  0.13681439870E+02 -0.16222662637E+02  0.40659134500E+02  0.00000000000E+00 0. -1.
         11    1    3    3    0    0  0.35190578402E+01 -0.69836934163E+01 -0.52725768146E+01  0.94316386880E+01  0.51100000000E-03 0. -1.
        -11    1    3    3    0    0  0.60895152135E+01  0.27648782623E+01  0.97830492288E+01  0.11850518968E+02  0.51100000000E-03 0.  1.
         12    1    3    3    0    0  0.25072958608E+02 -0.94626247164E+01  0.11712190222E+02  0.29246707843E+02  0.00000000000E+00 0. -1.
</event>
<event>
 7    1  0.2966651E-011  0.5052886E+02  0.7816164E-02  0.1300439E+00
        -11   -1    0    0    0    0  0.00000000000E+00  0.00000000000E+00  0.45593999997E+02  0.45594000000E+02  0.51100000000E-03 0. -1.
         11   -1    0    0    0    0 -0.00000000000E+00 -0.00000000000E+00 -0.45593999997E+02  0.45594000000E+02  0.51100000000E-03 0.  1.
    9900012    2    1    2    0    0 -0.14054389294E+02 -0.24217971631E+02 -0.29481000653E+02  0.50528863169E+02  0.30000010088E+02 0.  0.
         12    1    1    2    0    0  0.14054389294E+02  0.24217971631E+02  0.29481000653E+02  0.40659136831E+02  0.00000000000E+00 0. -1.
         11    1    3    3    0    0 -0.76224343453E+01 -0.53332428510E+01 -0.28109498476E+02  0.29608932596E+02  0.51100000000E-03 0. -1.
        -11    1    3    3    0    0 -0.32612155404E+01 -0.16629203406E+02 -0.62278551831E+00  0.16957411205E+02  0.51100000000E-03 0.  1.
         12    1    3    3    0    0 -0.31707394078E+01 -0.22555253737E+01 -0.74871665935E+00  0.39625193677E+01  0.00000000000E+00 0. -1.
</event>
<event>
 7    1  0.2966651E-011  0.5052886E+02  0.7816164E-02  0.1300439E+00
        -11   -1    0    0    0    0  0.00000000000E+00  0.00000000000E+00  0.45593999997E+02  0.45594000000E+02  0.51100000000E-03 0.  1.
         11   -1    0    0    0    0 -0.00000000000E+00 -0.00000000000E+00 -0.45593999997E+02  0.45594000000E+02  0.51100000000E-03 0. -1.
    9900012    2    1    2    0    0  0.14470086903E+02 -0.16988976916E+02  0.33987600624E+02  0.50528858988E+02  0.29999997381E+02 0.  0.
         12    1    1    2    0    0 -0.14470086903E+02  0.16988976916E+02 -0.33987600624E+02  0.40659141012E+02  0.00000000000E+00 0. -1.
         11    1    3    3    0    0  0.26903168582E+01  0.49156868021E+01  0.14843866889E+02  0.15866384781E+02  0.51100000000E-03 0. -1.
        -11    1    3    3    0    0  0.57889919763E+01 -0.20443578072E+02  0.18985785042E+02  0.28494075637E+02  0.51100000000E-03 0.  1.
        -12    1    3    3    0    0  0.59907780688E+01 -0.14610856459E+01  0.15794869287E+00  0.61683985704E+01  0.00000000000E+00 0.  1.
</event>
<event>
 7    1  0.2966651E-011  0.5052886E+02  0.7816164E-02  0.1300439E+00
        -11   -1    0    0    0    0  0.00000000000E+00  0.00000000000E+00  0.45593999997E+02  0.45594000000E+02  0.51100000000E-03 0.  1.
         11   -1    0    0    0    0 -0.00000000000E+00 -0.00000000000E+00 -0.45593999997E+02  0.45594000000E+02  0.51100000000E-03 0. -1.
    9900012    2    1    2    0    0  0.34315013125E+02 -0.17531297335E+02 -0.12973015836E+02  0.50528860168E+02  0.30000000967E+02 0.  0.
         12    1    1    2    0    0 -0.34315013125E+02  0.17531297335E+02  0.12973015836E+02  0.40659139832E+02  0.00000000000E+00 0. -1.
         11    1    3    3    0    0  0.95292553102E+01 -0.17619972290E+02 -0.37640339056E+01  0.20382298246E+02  0.51100000000E-03 0. -1.
        -11    1    3    3    0    0  0.83917174919E+01  0.30037268205E+01  0.31031619155E+01  0.94378446380E+01  0.51100000000E-03 0.  1.
         12    1    3    3    0    0  0.16394040323E+02 -0.29150518650E+01 -0.12312143846E+02  0.20708717284E+02  0.00000000000E+00 0. -1.
</event>
<event>
 7    1  0.2966651E-011  0.5052886E+02  0.7816164E-02  0.1300439E+00
        -11   -1    0    0    0    0  0.00000000000E+00  0.00000000000E+00  0.45593999997E+02  0.45594000000E+02  0.51100000000E-03 0. -1.
         11   -1    0    0    0    0 -0.00000000000E+00 -0.00000000000E+00 -0.45593999997E+02  0.45594000000E+02  0.51100000000E-03 0.  1.
    9900012    2    1    2    0    0 -0.34654285418E+02 -0.20896566345E+02  0.39471437773E+01  0.50528856787E+02  0.29999990690E+02 0.  0.
         12    1    1    2    0    0  0.34654285418E+02  0.20896566345E+02 -0.39471437773E+01  0.40659143213E+02  0.00000000000E+00 0. -1.
         11    1    3    3    0    0 -0.11561696759E+02 -0.21383894722E+02 -0.59443545797E+01  0.25025569665E+02  0.51100000000E-03 0. -1.
        -11    1    3    3    0    0 -0.18005990739E+02 -0.11441130475E+01  0.65085162114E+01  0.19180340995E+02  0.51100000000E-03 0.  1.
         12    1    3    3    0    0 -0.50865979198E+01  0.16314414251E+01  0.33829821457E+01  0.63229461265E+01  0.00000000000E+00 0. -1.
</event>
<event>
 7    1  0.2966651E-011  0.5052883E+02  0.7816164E-02  0.1300439E+00
        -11   -1    0    0    0    0  0.00000000000E+00  0.00000000000E+00  0.45593999997E+02  0.45594000000E+02  0.51100000000E-03 0. -1.
         11   -1    0    0    0    0 -0.00000000000E+00 -0.00000000000E+00 -0.45593999997E+02  0.45594000000E+02  0.51100000000E-03 0.  1.
    9900012    2    1    2    0    0  0.21382560534E+02  0.17505394781E+02  0.29824750036E+02  0.50528825683E+02  0.29999896146E+02 0.  0.
         12    1    1    2    0    0 -0.21382560534E+02 -0.17505394781E+02 -0.29824750036E+02  0.40659174317E+02  0.00000000000E+00 0. -1.
         11    1    3    3    0    0  0.80168890908E+01 -0.84883450810E+00  0.17353912314E+02  0.19135028183E+02  0.51100000000E-03 0.  1.
        -11    1    3    3    0    0  0.37007618404E+01  0.20988135768E+01 -0.43494637148E+01  0.60842823321E+01  0.51100000000E-03 0. -1.
        -12    1    3    3    0    0  0.96649096032E+01  0.16255415712E+02  0.16820301436E+02  0.25309515168E+02  0.00000000000E+00 0.  1.
</event>
<event>
 7    1  0.2966651E-011  0.5052885E+02  0.7816164E-02  0.1300439E+00
        -11   -1    0    0    0    0  0.00000000000E+00  0.00000000000E+00  0.45593999997E+02  0.45594000000E+02  0.51100000000E-03 0.  1.
         11   -1    0    0    0    0 -0.00000000000E+00 -0.00000000000E+00 -0.45593999997E+02  0.45594000000E+02  0.51100000000E-03 0. -1.
    9900012    2    1    2    0    0 -0.12222929287E+02 -0.32456999257E+02  0.21220506038E+02  0.50528847554E+02  0.29999962624E+02 0.  0.
         12    1    1    2    0    0  0.12222929287E+02  0.32456999257E+02 -0.21220506038E+02  0.40659152446E+02  0.00000000000E+00 0. -1.
         11    1    3    3    0    0 -0.38236472884E+01  0.51619159089E+01  0.24952902217E+01  0.68914532567E+01  0.51100000000E-03 0. -1.
        -11    1    3    3    0    0 -0.40061527962E+01 -0.30733710598E+02  0.16767839397E+02  0.35238766517E+02  0.51100000000E-03 0.  1.
        -12    1    3    3    0    0 -0.43931292024E+01 -0.68852045683E+01  0.19573764193E+01  0.83986277798E+01  0.00000000000E+00 0.  1.
</event>
<event>
 7    1  0.2966651E-011  0.5052887E+02  0.7816164E-02  0.1300439E+00
        -11   -1    0    0    0    0  0.00000000000E+00  0.00000000000E+00  0.45593999997E+02  0.45594000000E+02  0.51100000000E-03 0.  1.
         11   -1    0    0    0    0 -0.00000000000E+00 -0.00000000000E+00 -0.45593999997E+02  0.45594000000E+02  0.51100000000E-03 0. -1.
    9900012    2    1    2    0    0  0.13625809068E+02  0.33922774761E+02  0.17797393426E+02  0.50528873927E+02  0.30000042789E+02 0.  0.
         12    1    1    2    0    0 -0.13625809068E+02 -0.33922774761E+02 -0.17797393426E+02  0.40659126073E+02  0.00000000000E+00 0. -1.
         11    1    3    3    0    0  0.91685167965E+01  0.15356204527E+02 -0.58134565643E+01  0.18806142486E+02  0.51100000000E-03 0. -1.
        -11    1    3    3    0    0 -0.22606679087E-01  0.15716928441E+02  0.15866534871E+02  0.22333143078E+02  0.51100000000E-03 0.  1.
        -12    1    3    3    0    0  0.44798989508E+01  0.28496417932E+01  0.77443151191E+01  0.93895883628E+01  0.00000000000E+00 0.  1.
</event>
<event>
 7    1  0.2966651E-011  0.5052885E+02  0.7816164E-02  0.1300439E+00
        -11   -1    0    0    0    0  0.00000000000E+00  0.00000000000E+00  0.45593999997E+02  0.45594000000E+02  0.51100000000E-03 0. -1.
         11   -1    0    0    0    0 -0.00000000000E+00 -0.00000000000E+00 -0.45593999997E+02  0.45594000000E+02  0.51100000000E-03 0.  1.
    9900012    2    1    2    0    0  0.23296274239E+02  0.95705557639E+01 -0.31919496529E+02  0.50528853554E+02  0.29999980862E+02 0.  0.
         12    1    1    2    0    0 -0.23296274239E+02 -0.95705557639E+01  0.31919496529E+02  0.40659146446E+02  0.00000000000E+00 0. -1.
         11    1    3    3    0    0 -0.49830770422E+01  0.27054196571E+01 -0.37315221065E+01  0.67878280636E+01  0.51100000000E-03 0. -1.
        -11    1    3    3    0    0  0.25869362528E+02  0.78989582353E+01 -0.30120976404E+02  0.40483214776E+02  0.51100000000E-03 0.  1.
        -12    1    3    3    0    0  0.24099887537E+01 -0.10338221285E+01  0.19330019818E+01  0.32578107140E+01  0.00000000000E+00 0.  1.
</event>
<event>
 7    1  0.2966651E-011  0.5052886E+02  0.7816164E-02  0.1300439E+00
        -11   -1    0    0    0    0  0.00000000000E+00  0.00000000000E+00  0.45593999997E+02  0.45594000000E+02  0.51100000000E-03 0.  1.
         11   -1    0    0    0    0 -0.00000000000E+00 -0.00000000000E+00 -0.45593999997E+02  0.45594000000E+02  0.51100000000E-03 0. -1.
    9900012    2    1    2    0    0  0.13771393464E+02  0.29772413362E+02  0.24023270784E+02  0.50528863087E+02  0.30000009839E+02 0.  0.
         12    1    1    2    0    0 -0.13771393464E+02 -0.29772413362E+02 -0.24023270784E+02  0.40659136913E+02  0.00000000000E+00 0. -1.
         11    1    3    3    0    0  0.40725344553E+01 -0.12457733748E+01 -0.29133813626E+01  0.51599689356E+01  0.51100000000E-03 0. -1.
        -11    1    3    3    0    0  0.37184879119E+01  0.22694551860E+02  0.26532192091E+02  0.35111637015E+02  0.51100000000E-03 0.  1.
        -12    1    3    3    0    0  0.59803710973E+01  0.83236348764E+01  0.40446005570E+00  0.10257257136E+02  0.00000000000E+00 0.  1.
</event>
<event>
 7    1  0.2966651E-011  0.5052887E+02  0.7816164E-02  0.1300439E+00
        -11   -1    0    0    0    0  0.00000000000E+00  0.00000000000E+00  0.45593999997E+02  0.45594000000E+02  0.51100000000E-03 0. -1.
         11   -1    0    0    0    0 -0.00000000000E+00 -0.00000000000E+00 -0.45593999997E+02  0.45594000000E+02  0.51100000000E-03 0.  1.
    9900012    2    1    2    0    0  0.25604011353E+02  0.17707633709E+02 -0.26154146724E+02  0.50528867203E+02  0.30000022351E+02 0.  0.
         12    1    1    2    0    0 -0.25604011353E+02 -0.17707633709E+02  0.26154146724E+02  0.40659132797E+02  0.00000000000E+00 0. -1.
         11    1    3    3    0    0  0.16356157689E+02 -0.50586980188E+01 -0.14413173891E+02  0.22379765456E+02  0.51100000000E-03 0. -1.
        -11    1    3    3    0    0  0.69829291770E+01  0.78927137131E+01 -0.48933958141E+01  0.11619016848E+02  0.51100000000E-03 0.  1.
         12    1    3    3    0    0  0.22649244869E+01  0.14873618014E+02 -0.68475770197E+01  0.16530084900E+02  0.00000000000E+00 0. -1.
</event>
<event>
 7    1  0.2966651E-011  0.5052886E+02  0.7816164E-02  0.1300439E+00
        -11   -1    0    0    0    0  0.00000000000E+00  0.00000000000E+00  0.45593999997E+02  0.45594000000E+02  0.51100000000E-03 0.  1.
         11   -1    0    0    0    0 -0.00000000000E+00 -0.00000000000E+00 -0.45593999997E+02  0.45594000000E+02  0.51100000000E-03 0. -1.
    9900012    2    1    2    0    0 -0.14843256795E+02  0.24225356182E+02  0.29085663718E+02  0.50528856031E+02  0.29999988390E+02 0.  0.
         12    1    1    2    0    0  0.14843256795E+02 -0.24225356182E+02 -0.29085663718E+02  0.40659143969E+02  0.00000000000E+00 0. -1.
         11    1    3    3    0    0 -0.65219772181E+01 -0.34159192833E+01  0.89907176861E+01  0.11620572110E+02  0.51100000000E-03 0.  1.
        -11    1    3    3    0    0  0.17853374430E+01  0.13943926415E+02  0.16194303688E+02  0.21444719300E+02  0.51100000000E-03 0. -1.
         12    1    3    3    0    0 -0.10106617020E+02  0.13697349050E+02  0.39006423443E+01  0.17463564621E+02  0.00000000000E+00 0. -1.
</event>
<event>
 7    1  0.2966651E-011  0.5052885E+02  0.7816164E-02  0.1300439E+00
        -11   -1    0    0    0    0  0.00000000000E+00  0.00000000000E+00  0.45593999997E+02  0.45594000000E+02  0.51100000000E-03 0.  1.
         11   -1    0    0    0    0 -0.00000000000E+00 -0.00000000000E+00 -0.45593999997E+02  0.45594000000E+02  0.51100000000E-03 0. -1.
    9900012    2    1    2    0    0  0.24014972995E+02 -0.12241101010E+01  0.32786415582E+02  0.50528850720E+02  0.29999972248E+02 0.  0.
         12    1    1    2    0    0 -0.24014972995E+02  0.12241101010E+01 -0.32786415582E+02  0.40659149280E+02  0.00000000000E+00 0. -1.
         11    1    3    3    0    0 -0.55332411588E+01  0.47827956014E+01  0.87809708045E+01  0.11427919321E+02  0.51100000000E-03 0. -1.
        -11    1    3    3    0    0  0.21345577334E+02 -0.71938719555E+01  0.18529579089E+02  0.29167289330E+02  0.51100000000E-03 0.  1.
        -12    1    3    3    0    0  0.82026368206E+01  0.11869662531E+01  0.54758656885E+01  0.99336420680E+01  0.00000000000E+00 0.  1.
</event>
<event>
 7    1  0.2966651E-011  0.5052884E+02  0.7816164E-02  0.1300439E+00
        -11   -1    0    0    0    0  0.00000000000E+00  0.00000000000E+00  0.45593999997E+02  0.45594000000E+02  0.51100000000E-03 0. -1.
         11   -1    0    0    0    0 -0.00000000000E+00 -0.00000000000E+00 -0.45593999997E+02  0.45594000000E+02  0.51100000000E-03 0.  1.
    9900012    2    1    2    0    0 -0.27179342555E+02 -0.30196484909E+02  0.16196205220E+01  0.50528837032E+02  0.29999930643E+02 0.  0.
         12    1    1    2    0    0  0.27179342555E+02  0.30196484909E+02 -0.16196205220E+01  0.40659162968E+02  0.00000000000E+00 0. -1.
         11    1    3    3    0    0 -0.11293906756E+01 -0.99835324538E+01 -0.84590003944E+01  0.13133968611E+02  0.51100000000E-03 0. -1.
        -11    1    3    3    0    0 -0.20640916412E+02 -0.94700192641E+01  0.11187998030E+02  0.25316002752E+02  0.51100000000E-03 0.  1.
        -12    1    3    3    0    0 -0.54090354677E+01 -0.10742933192E+02 -0.11093771137E+01  0.12078865668E+02  0.00000000000E+00 0.  1.
</event>
<event>
 7    1  0.2966651E-011  0.5052886E+02  0.7816164E-02  0.1300439E+00
        -11   -1    0    0    0    0  0.00000000000E+00  0.00000000000E+00  0.45593999997E+02  0.45594000000E+02  0.51100000000E-03 0. -1.
         11   -1    0    0    0    0 -0.00000000000E+00 -0.00000000000E+00 -0.45593999997E+02  0.45594000000E+02  0.51100000000E-03 0.  1.
    9900012    2    1    2    0    0 -0.69033803441E+00  0.39413274535E+02  0.99640624917E+01  0.50528864280E+02  0.30000013465E+02 0.  0.
         12    1    1    2    0    0  0.69033803441E+00 -0.39413274535E+02 -0.99640624917E+01  0.40659135720E+02  0.00000000000E+00 0. -1.
         11    1    3    3    0    0  0.11386470144E+02  0.18594128021E+02  0.63272531638E+01  0.22703026936E+02  0.51100000000E-03 0. -1.
        -11    1    3    3    0    0 -0.13033590120E+02  0.92788780415E+01  0.17756052459E+01  0.16097354546E+02  0.51100000000E-03 0.  1.
        -12    1    3    3    0    0  0.95678194175E+00  0.11540268473E+02  0.18612040819E+01  0.11728482798E+02  0.00000000000E+00 0.  1.
</event>
<event>
 7    1  0.2966651E-011  0.5052883E+02  0.7816164E-02  0.1300439E+00
        -11   -1    0    0    0    0  0.00000000000E+00  0.00000000000E+00  0.45593999997E+02  0.45594000000E+02  0.51100000000E-03 0. -1.
         11   -1    0    0    0    0 -0.00000000000E+00 -0.00000000000E+00 -0.45593999997E+02  0.45594000000E+02  0.51100000000E-03 0.  1.
    9900012    2    1    2    0    0  0.27340983896E+02 -0.10009741621E+02 -0.28380338281E+02  0.50528832170E+02  0.29999915864E+02 0.  0.
         12    1    1    2    0    0 -0.27340983896E+02  0.10009741621E+02  0.28380338281E+02  0.40659167830E+02  0.00000000000E+00 0. -1.
         11    1    3    3    0    0  0.92593702705E+01  0.18884915163E+01 -0.14414033972E+02  0.17235623389E+02  0.51100000000E-03 0. -1.
        -11    1    3    3    0    0  0.16710900581E+02 -0.14609967650E+02 -0.35952870921E+01  0.22486250077E+02  0.51100000000E-03 0.  1.
        -12    1    3    3    0    0  0.13707130438E+01  0.27117345131E+01 -0.10371017217E+02  0.10806958704E+02  0.00000000000E+00 0.  1.
</event>
<event>
 7    1  0.3170769E-011  0.5052886E+02  0.7816164E-02  0.1300439E+00
        -11   -1    0    0    0    0  0.00000000000E+00  0.00000000000E+00  0.45593999997E+02  0.45594000000E+02  0.51100000000E-03 0.  1.
         11   -1    0    0    0    0 -0.00000000000E+00 -0.00000000000E+00 -0.45593999997E+02  0.45594000000E+02  0.51100000000E-03 0. -1.
    9900012    2    1    2    0    0 -0.44466390639E+01  0.39164282471E+02  0.99775877162E+01  0.50528857399E+02  0.29999992549E+02 0.  0.
         12    1    1    2    0    0  0.44466390639E+01 -0.39164282471E+02 -0.99775877162E+01  0.40659142601E+02  0.00000000000E+00 0. -1.
         11    1    3    3    0    0 -0.13823664547E+01 -0.92708781968E+00 -0.51049308287E+01  0.53694271451E+01  0.51100000000E-03 0. -1.
        -11    1    3    3    0    0 -0.33922581108E+01  0.17335269517E+02  0.13708761138E+02  0.22359541957E+02  0.51100000000E-03 0.  1.
        -12    1    3    3    0    0  0.32798550156E+00  0.22756100774E+02  0.13737574066E+01  0.22799888296E+02  0.00000000000E+00 0.  1.
</event>
<event>
 7    1  0.2966651E-011  0.5052886E+02  0.7816164E-02  0.1300439E+00
        -11   -1    0    0    0    0  0.00000000000E+00  0.00000000000E+00  0.45593999997E+02  0.45594000000E+02  0.51100000000E-03 0.  1.
         11   -1    0    0    0    0 -0.00000000000E+00 -0.00000000000E+00 -0.45593999997E+02  0.45594000000E+02  0.51100000000E-03 0. -1.
    9900012    2    1    2    0    0  0.10713163852E+02  0.17052681901E+02  0.35321381067E+02  0.50528858344E+02  0.29999995421E+02 0.  0.
         12    1    1    2    0    0 -0.10713163852E+02 -0.17052681901E+02 -0.35321381067E+02  0.40659141656E+02  0.00000000000E+00 0. -1.
         11    1    3    3    0    0  0.85145793282E+01  0.17942627563E+01  0.13881801062E+01  0.88116107633E+01  0.51100000000E-03 0. -1.
        -11    1    3    3    0    0 -0.58815463268E+01  0.14225179893E+02  0.17043892316E+02  0.22966118430E+02  0.51100000000E-03 0.  1.
        -12    1    3    3    0    0  0.80801308501E+01  0.10332392513E+01  0.16889308645E+02  0.18751129151E+02  0.00000000000E+00 0.  1.
</event>
<event>
 7    1  0.2966651E-011  0.5052886E+02  0.7816164E-02  0.1300439E+00
        -11   -1    0    0    0    0  0.00000000000E+00  0.00000000000E+00  0.45593999997E+02  0.45594000000E+02  0.51100000000E-03 0. -1.
         11   -1    0    0    0    0 -0.00000000000E+00 -0.00000000000E+00 -0.45593999997E+02  0.45594000000E+02  0.51100000000E-03 0.  1.
    9900012    2    1    2    0    0  0.43001339076E+01  0.37047869274E+02 -0.16190428535E+02  0.50528859016E+02  0.29999997466E+02 0.  0.
         12    1    1    2    0    0 -0.43001339076E+01 -0.37047869274E+02  0.16190428535E+02  0.40659140984E+02  0.00000000000E+00 0. -1.
         11    1    3    3    0    0  0.46921174759E+01 -0.13202107034E+01  0.37086302659E+01  0.61247743974E+01  0.51100000000E-03 0. -1.
        -11    1    3    3    0    0  0.39367293862E+01  0.26229411294E+02 -0.15837369183E+02  0.30891780752E+02  0.51100000000E-03 0.  1.
         12    1    3    3    0    0 -0.43287129545E+01  0.12138668683E+02 -0.40616896180E+01  0.13512303867E+02  0.00000000000E+00 0. -1.
</event>
<event>
 7    1  0.2966651E-011  0.5052885E+02  0.7816164E-02  0.1300439E+00
        -11   -1    0    0    0    0  0.00000000000E+00  0.00000000000E+00  0.45593999997E+02  0.45594000000E+02  0.51100000000E-03 0. -1.
         11   -1    0    0    0    0 -0.00000000000E+00 -0.00000000000E+00 -0.45593999997E+02  0.45594000000E+02  0.51100000000E-03 0.  1.
    9900012    2    1    2    0    0 -0.23936568507E+02 -0.31760841503E+02  0.84531567925E+01  0.50528853125E+02  0.29999979557E+02 0.  0.
         12    1    1    2    0    0  0.23936568507E+02  0.31760841503E+02 -0.84531567925E+01  0.40659146875E+02  0.00000000000E+00 0. -1.
         11    1    3    3    0    0 -0.76658266974E+01 -0.29400211762E+02  0.13082809161E+02  0.33080163941E+02  0.51100000000E-03 0. -1.
        -11    1    3    3    0    0 -0.93585583027E+01  0.43143573202E+00 -0.25756018936E+01  0.97160936425E+01  0.51100000000E-03 0.  1.
         12    1    3    3    0    0 -0.69121835070E+01 -0.27920654737E+01 -0.20540504748E+01  0.77325955408E+01  0.00000000000E+00 0. -1.
</event>
<event>
 7    1  0.2966651E-011  0.5052887E+02  0.7816164E-02  0.1300439E+00
        -11   -1    0    0    0    0  0.00000000000E+00  0.00000000000E+00  0.45593999997E+02  0.45594000000E+02  0.51100000000E-03 0.  1.
         11   -1    0    0    0    0 -0.00000000000E+00 -0.00000000000E+00 -0.45593999997E+02  0.45594000000E+02  0.51100000000E-03 0. -1.
    9900012    2    1    2    0    0  0.37345317362E+02 -0.11698078548E+02  0.11029362787E+02  0.50528872930E+02  0.30000039759E+02 0.  0.
         12    1    1    2    0    0 -0.37345317362E+02  0.11698078548E+02 -0.11029362787E+02  0.40659127070E+02  0.00000000000E+00 0. -1.
         11    1    3    3    0    0  0.99053754395E+01  0.40493356023E+01  0.25107974568E+01  0.10991709855E+02  0.51100000000E-03 0. -1.
        -11    1    3    3    0    0  0.67010883833E+01 -0.12709141746E+02  0.11451266567E+02  0.18372761787E+02  0.51100000000E-03 0.  1.
        -12    1    3    3    0    0  0.20738853539E+02 -0.30382724037E+01 -0.29327012367E+01  0.21164401288E+02  0.00000000000E+00 0.  1.
</event>
<event>
 7    1  0.2966651E-011  0.5052881E+02  0.7816164E-02  0.1300439E+00
        -11   -1    0    0    0    0  0.00000000000E+00  0.00000000000E+00  0.45593999997E+02  0.45594000000E+02  0.51100000000E-03 0. -1.
         11   -1    0    0    0    0 -0.00000000000E+00 -0.00000000000E+00 -0.45593999997E+02  0.45594000000E+02  0.51100000000E-03 0.  1.
    9900012    2    1    2    0    0  0.15077065169E+02 -0.37279917967E+02 -0.60049671812E+01  0.50528809052E+02  0.29999845594E+02 0.  0.
         12    1    1    2    0    0 -0.15077065169E+02  0.37279917967E+02  0.60049671812E+01  0.40659190948E+02  0.00000000000E+00 0. -1.
         11    1    3    3    0    0  0.13153305820E+02 -0.17782960963E+01 -0.61771502468E+01  0.14639978703E+02  0.51100000000E-03 0. -1.
        -11    1    3    3    0    0 -0.99142348032E+00 -0.23532666363E+02  0.62220691767E+00  0.23561758177E+02  0.51100000000E-03 0.  1.
         12    1    3    3    0    0  0.29151828296E+01 -0.11968955507E+02 -0.45002385204E+00  0.12327072172E+02  0.00000000000E+00 0. -1.
</event>
<event>
 7    1  0.2966651E-011  0.5052887E+02  0.7816164E-02  0.1300439E+00
        -11   -1    0    0    0    0  0.00000000000E+00  0.00000000000E+00  0.45593999997E+02  0.45594000000E+02  0.51100000000E-03 0. -1.
         11   -1    0    0    0    0 -0.00000000000E+00 -0.00000000000E+00 -0.45593999997E+02  0.45594000000E+02  0.51100000000E-03 0.  1.
    9900012    2    1    2    0    0  0.65108534045E+01  0.19107403177E+02 -0.35294199992E+02  0.50528872842E+02  0.30000039489E+02 0.  0.
         12    1    1    2    0    0 -0.65108534045E+01 -0.19107403177E+02  0.35294199992E+02  0.40659127158E+02  0.00000000000E+00 0. -1.
         11    1    3    3    0    0  0.16222654764E+02  0.75113103090E+01 -0.15467578470E+02  0.23639803175E+02  0.51100000000E-03 0. -1.
        -11    1    3    3    0    0 -0.41952389001E+01  0.83502429668E+01 -0.17920476410E+02  0.20210642297E+02  0.51100000000E-03 0.  1.
         12    1    3    3    0    0 -0.55165624594E+01  0.32458499011E+01 -0.19061451119E+01  0.66784273700E+01  0.00000000000E+00 0. -1.
</event>
<event>
 7    1  0.2966651E-011  0.5052885E+02  0.7816164E-02  0.1300439E+00
        -11   -1    0    0    0    0  0.00000000000E+00  0.00000000000E+00  0.45593999997E+02  0.45594000000E+02  0.51100000000E-03 0.  1.
         11   -1    0    0    0    0 -0.00000000000E+00 -0.00000000000E+00 -0.45593999997E+02  0.45594000000E+02  0.51100000000E-03 0. -1.
    9900012    2    1    2    0    0 -0.26537884579E+02 -0.30796848098E+02 -0.67896938139E+00  0.50528853795E+02  0.29999981596E+02 0.  0.
         12    1    1    2    0    0  0.26537884579E+02  0.30796848098E+02  0.67896938139E+00  0.40659146205E+02  0.00000000000E+00 0. -1.
         11    1    3    3    0    0 -0.72208181642E+01 -0.17433296256E+01 -0.83152924465E+00  0.74746808822E+01  0.51100000000E-03 0. -1.
        -11    1    3    3    0    0 -0.22358361898E+02 -0.19856869337E+02 -0.73604459884E+01  0.30795580397E+02  0.51100000000E-03 0.  1.
         12    1    3    3    0    0  0.30412954835E+01 -0.91966491356E+01  0.75130058517E+01  0.12258592516E+02  0.00000000000E+00 0. -1.
</event>
<event>
 7    1  0.2966651E-011  0.5052886E+02  0.7816164E-02  0.1300439E+00
        -11   -1    0    0    0    0  0.00000000000E+00  0.00000000000E+00  0.45593999997E+02  0.45594000000E+02  0.51100000000E-03 0. -1.
         11   -1    0    0    0    0 -0.00000000000E+00 -0.00000000000E+00 -0.45593999997E+02  0.45594000000E+02  0.51100000000E-03 0.  1.
    9900012    2    1    2    0    0 -0.26530228595E+02  0.20307198095E+02 -0.23171755187E+02  0.50528861270E+02  0.30000004317E+02 0.  0.
         12    1    1    2    0    0  0.26530228595E+02 -0.20307198095E+02  0.23171755187E+02  0.40659138730E+02  0.00000000000E+00 0. -1.
         11    1    3    3    0    0 -0.38553451909E+01  0.54895347630E+01 -0.38452724553E+00  0.67191174955E+01  0.51100000000E-03 0. -1.
        -11    1    3    3    0    0  0.23974204021E+01 -0.48427089844E+01 -0.47644525747E+01  0.72041282255E+01  0.51100000000E-03 0.  1.
        -12    1    3    3    0    0 -0.25072303807E+02  0.19660372317E+02 -0.18022775367E+02  0.36605615549E+02  0.00000000000E+00 0.  1.
</event>
<event>
 7    1  0.2966651E-011  0.5052886E+02  0.7816164E-02  0.1300439E+00
        -11   -1    0    0    0    0  0.00000000000E+00  0.00000000000E+00  0.45593999997E+02  0.45594000000E+02  0.51100000000E-03 0.  1.
         11   -1    0    0    0    0 -0.00000000000E+00 -0.00000000000E+00 -0.45593999997E+02  0.45594000000E+02  0.51100000000E-03 0. -1.
    9900012    2    1    2    0    0  0.50519118980E+01 -0.13915136175E+02  0.37868359895E+02  0.50528861916E+02  0.30000006281E+02 0.  0.
         12    1    1    2    0    0 -0.50519118980E+01  0.13915136175E+02 -0.37868359895E+02  0.40659138084E+02  0.00000000000E+00 0. -1.
         11    1    3    3    0    0  0.10272648743E+02 -0.38132896374E+01  0.24067673335E+01  0.11218779761E+02  0.51100000000E-03 0. -1.
        -11    1    3    3    0    0 -0.85404065177E+01 -0.50685149013E+01  0.28047021483E+02  0.29753383020E+02  0.51100000000E-03 0.  1.
         12    1    3    3    0    0  0.33196696723E+01 -0.50333316363E+01  0.74145710778E+01  0.95566991353E+01  0.00000000000E+00 0. -1.
</event>
<event>
 7    1  0.2966651E-011  0.5052886E+02  0.7816164E-02  0.1300439E+00
        -11   -1    0    0    0    0  0.00000000000E+00  0.00000000000E+00  0.45593999997E+02  0.45594000000E+02  0.51100000000E-03 0.  1.
         11   -1    0    0    0    0 -0.00000000000E+00 -0.00000000000E+00 -0.45593999997E+02  0.45594000000E+02  0.51100000000E-03 0. -1.
    9900012    2    1    2    0    0 -0.34415131696E+02  0.52745350427E+01  0.20998657930E+02  0.50528860260E+02  0.30000001245E+02 0.  0.
         12    1    1    2    0    0  0.34415131696E+02 -0.52745350427E+01 -0.20998657930E+02  0.40659139740E+02  0.00000000000E+00 0. -1.
         11    1    3    3    0    0 -0.18392354961E+02  0.13997701486E+01  0.87796586482E+01  0.20428423427E+02  0.51100000000E-03 0. -1.
        -11    1    3    3    0    0 -0.46674747639E+01 -0.70933596674E+01 -0.21433059565E+01  0.87575586054E+01  0.51100000000E-03 0.  1.
        -12    1    3    3    0    0 -0.11355301971E+02  0.10968124562E+02  0.14362305238E+02  0.21342878227E+02  0.00000000000E+00 0.  1.
</event>
<event>
 7    1  0.2966651E-011  0.5052886E+02  0.7816164E-02  0.1300439E+00
        -11   -1    0    0    0    0  0.00000000000E+00  0.00000000000E+00  0.45593999997E+02  0.45594000000E+02  0.51100000000E-03 0. -1.
         11   -1    0    0    0    0 -0.00000000000E+00 -0.00000000000E+00 -0.45593999997E+02  0.45594000000E+02  0.51100000000E-03 0.  1.
    9900012    2    1    2    0    0 -0.32606077250E+02 -0.73154610661E+01  0.23162331965E+02  0.50528857531E+02  0.29999992952E+02 0.  0.
         12    1    1    2    0    0  0.32606077250E+02  0.73154610661E+01 -0.23162331965E+02  0.40659142469E+02  0.00000000000E+00 0. -1.
         11    1    3    3    0    0  0.99730467624E+00 -0.47307745373E+01 -0.12036219030E+01  0.49823237838E+01  0.51100000000E-03 0. -1.
        -11    1    3    3    0    0 -0.33675811609E+02 -0.32082836739E+01  0.16468189410E+02  0.37623857250E+02  0.51100000000E-03 0.  1.
        -12    1    3    3    0    0  0.72429682492E-01  0.62359714504E+00  0.78977644578E+01  0.79226764978E+01  0.00000000000E+00 0.  1.
</event>
<event>
 7    1  0.2966651E-011  0.5052885E+02  0.7816164E-02  0.1300439E+00
        -11   -1    0    0    0    0  0.00000000000E+00  0.00000000000E+00  0.45593999997E+02  0.45594000000E+02  0.51100000000E-03 0.  1.
         11   -1    0    0    0    0 -0.00000000000E+00 -0.00000000000E+00 -0.45593999997E+02  0.45594000000E+02  0.51100000000E-03 0. -1.
    9900012    2    1    2    0    0 -0.19771436057E+02 -0.34686847026E+02  0.76862890666E+01  0.50528854904E+02  0.29999984965E+02 0.  0.
         12    1    1    2    0    0  0.19771436057E+02  0.34686847026E+02 -0.76862890666E+01  0.40659145096E+02  0.00000000000E+00 0. -1.
         11    1    3    3    0    0 -0.40854124252E+01 -0.26016042536E+02  0.35346946028E+01  0.26571020495E+02  0.51100000000E-03 0. -1.
        -11    1    3    3    0    0 -0.13016399042E+02  0.14556617842E+01  0.28586158116E+01  0.13405867367E+02  0.51100000000E-03 0.  1.
        -12    1    3    3    0    0 -0.26696245894E+01 -0.10126466274E+02  0.12929786522E+01  0.10551967042E+02  0.00000000000E+00 0.  1.
</event>
<event>
 7    1  0.2966651E-011  0.5052886E+02  0.7816164E-02  0.1300439E+00
        -11   -1    0    0    0    0  0.00000000000E+00  0.00000000000E+00  0.45593999997E+02  0.45594000000E+02  0.51100000000E-03 0.  1.
         11   -1    0    0    0    0 -0.00000000000E+00 -0.00000000000E+00 -0.45593999997E+02  0.45594000000E+02  0.51100000000E-03 0. -1.
    9900012    2    1    2    0    0  0.62546514079E+01  0.40175135033E+02  0.60229153751E-01  0.50528858756E+02  0.29999996675E+02 0.  0.
         12    1    1    2    0    0 -0.62546514079E+01 -0.40175135033E+02 -0.60229153751E-01  0.40659141244E+02  0.00000000000E+00 0. -1.
         11    1    3    3    0    0  0.10099464516E+02  0.15072027243E+02 -0.96607545838E+01  0.20554692119E+02  0.51100000000E-03 0. -1.
        -11    1    3    3    0    0  0.52702203222E+00  0.21042868122E+02  0.34713697422E+01  0.21333786799E+02  0.51100000000E-03 0.  1.
         12    1    3    3    0    0 -0.43718351403E+01  0.40602396674E+01  0.62496139953E+01  0.86403798378E+01  0.00000000000E+00 0. -1.
</event>
<event>
 7    1  0.2966651E-011  0.5052885E+02  0.7816164E-02  0.1300439E+00
        -11   -1    0    0    0    0  0.00000000000E+00  0.00000000000E+00  0.45593999997E+02  0.45594000000E+02  0.51100000000E-03 0. -1.
         11   -1    0    0    0    0 -0.00000000000E+00 -0.00000000000E+00 -0.45593999997E+02  0.45594000000E+02  0.51100000000E-03 0.  1.
    9900012    2    1    2    0    0 -0.31426230045E+02  0.51633029155E+01  0.25276446126E+02  0.50528851452E+02  0.29999974475E+02 0.  0.
         12    1    1    2    0    0  0.31426230045E+02 -0.51633029155E+01 -0.25276446126E+02  0.40659148548E+02  0.00000000000E+00 0. -1.
         11    1    3    3    0    0 -0.26804260681E+02  0.23036883419E+01  0.29678756698E+02  0.40057508285E+02  0.51100000000E-03 0.  1.
        -11    1    3    3    0    0  0.11387178015E+00 -0.23602206721E+01 -0.50063794497E+00  0.24154186006E+01  0.51100000000E-03 0. -1.
         12    1    3    3    0    0 -0.47358411442E+01  0.52198352457E+01 -0.39016726268E+01  0.80559245666E+01  0.00000000000E+00 0. -1.
</event>
<event>
 7    1  0.2966651E-011  0.5052886E+02  0.7816164E-02  0.1300439E+00
        -11   -1    0    0    0    0  0.00000000000E+00  0.00000000000E+00  0.45593999997E+02  0.45594000000E+02  0.51100000000E-03 0.  1.
         11   -1    0    0    0    0 -0.00000000000E+00 -0.00000000000E+00 -0.45593999997E+02  0.45594000000E+02  0.51100000000E-03 0. -1.
    9900012    2    1    2    0    0  0.45770479432E+00 -0.40451988719E+02  0.40734402688E+01  0.50528858339E+02  0.29999995408E+02 0.  0.
         12    1    1    2    0    0 -0.45770479432E+00  0.40451988719E+02 -0.40734402688E+01  0.40659141661E+02  0.00000000000E+00 0. -1.
         11    1    3    3    0    0  0.89728034190E+00  0.10705882958E+01 -0.63640125672E+01  0.65155143717E+01  0.51100000000E-03 0. -1.
        -11    1    3    3    0    0 -0.10876250004E+01 -0.39806808610E+02  0.12014340852E+02  0.41594582895E+02  0.51100000000E-03 0.  1.
        -12    1    3    3    0    0  0.64804945280E+00 -0.17157684042E+01 -0.15768880158E+01  0.24187610723E+01  0.00000000000E+00 0.  1.
</event>
<event>
 7    1  0.2966651E-011  0.5052886E+02  0.7816164E-02  0.1300439E+00
        -11   -1    0    0    0    0  0.00000000000E+00  0.00000000000E+00  0.45593999997E+02  0.45594000000E+02  0.51100000000E-03 0.  1.
         11   -1    0    0    0    0 -0.00000000000E+00 -0.00000000000E+00 -0.45593999997E+02  0.45594000000E+02  0.51100000000E-03 0. -1.
    9900012    2    1    2    0    0 -0.21527840185E+02  0.24349659282E+02 -0.24429731228E+02  0.50528861076E+02  0.30000003728E+02 0.  0.
         12    1    1    2    0    0  0.21527840185E+02 -0.24349659282E+02  0.24429731228E+02  0.40659138924E+02  0.00000000000E+00 0. -1.
         11    1    3    3    0    0  0.78146107579E+00 -0.39378743082E+01 -0.51891235770E+01  0.65608337304E+01  0.51100000000E-03 0. -1.
        -11    1    3    3    0    0 -0.17812255549E+02  0.14945924083E+02 -0.18767357072E+02  0.29880943528E+02  0.51100000000E-03 0.  1.
         12    1    3    3    0    0 -0.44970457122E+01  0.13341609507E+02 -0.47325057848E+00  0.14087083818E+02  0.00000000000E+00 0. -1.
</event>
<event>
 7    1  0.2966651E-011  0.5052883E+02  0.7816164E-02  0.1300439E+00
        -11   -1    0    0    0    0  0.00000000000E+00  0.00000000000E+00  0.45593999997E+02  0.45594000000E+02  0.51100000000E-03 0.  1.
         11   -1    0    0    0    0 -0.00000000000E+00 -0.00000000000E+00 -0.45593999997E+02  0.45594000000E+02  0.51100000000E-03 0. -1.
    9900012    2    1    2    0    0 -0.51047706478E+01 -0.21512140847E+02  0.34122381605E+02  0.50528833585E+02  0.29999920163E+02 0.  0.
         12    1    1    2    0    0  0.51047706478E+01  0.21512140847E+02 -0.34122381605E+02  0.40659166415E+02  0.00000000000E+00 0. -1.
         11    1    3    3    0    0 -0.19499777227E+00  0.22501384638E+01 -0.17641964580E+01  0.28659268380E+01  0.51100000000E-03 0. -1.
        -11    1    3    3    0    0 -0.11420024527E+02 -0.19898455614E+02  0.21682617888E+02  0.31567410644E+02  0.51100000000E-03 0.  1.
        -12    1    3    3    0    0  0.65102516519E+01 -0.38638236971E+01  0.14203960175E+02  0.16095496103E+02  0.00000000000E+00 0.  1.
</event>
<event>
 7    1  0.2966651E-011  0.5052886E+02  0.7816164E-02  0.1300439E+00
        -11   -1    0    0    0    0  0.00000000000E+00  0.00000000000E+00  0.45593999997E+02  0.45594000000E+02  0.51100000000E-03 0.  1.
         11   -1    0    0    0    0 -0.00000000000E+00 -0.00000000000E+00 -0.45593999997E+02  0.45594000000E+02  0.51100000000E-03 0. -1.
    9900012    2    1    2    0    0 -0.71443933775E+01  0.10232120009E+01  0.40013450432E+02  0.50528861605E+02  0.30000005336E+02 0.  0.
         12    1    1    2    0    0  0.71443933775E+01 -0.10232120009E+01 -0.40013450432E+02  0.40659138395E+02  0.00000000000E+00 0. -1.
         11    1    3    3    0    0  0.76001369994E+01  0.40008546546E-01  0.50108378142E+01  0.91034157850E+01  0.51100000000E-03 0. -1.
        -11    1    3    3    0    0 -0.49239982661E+01 -0.66387862146E+01  0.21687751259E+02  0.23209433346E+02  0.51100000000E-03 0.  1.
         12    1    3    3    0    0 -0.98205321108E+01  0.76219896689E+01  0.13314861359E+02  0.18216012474E+02  0.00000000000E+00 0. -1.
</event>
<event>
 7    1  0.2966651E-011  0.5052886E+02  0.7816164E-02  0.1300439E+00
        -11   -1    0    0    0    0  0.00000000000E+00  0.00000000000E+00  0.45593999997E+02  0.45594000000E+02  0.51100000000E-03 0.  1.
         11   -1    0    0    0    0 -0.00000000000E+00 -0.00000000000E+00 -0.45593999997E+02  0.45594000000E+02  0.51100000000E-03 0. -1.
    9900012    2    1    2    0    0 -0.34114228327E+02  0.18418810418E+02 -0.12252867358E+02  0.50528856993E+02  0.29999991317E+02 0.  0.
         12    1    1    2    0    0  0.34114228327E+02 -0.18418810418E+02  0.12252867358E+02  0.40659143007E+02  0.00000000000E+00 0. -1.
         11    1    3    3    0    0 -0.26234494458E+02  0.16050915039E+02 -0.98309096096E+01  0.32288192224E+02  0.51100000000E-03 0. -1.
        -11    1    3    3    0    0  0.23783419075E+01  0.47201466049E+01  0.33300582999E+01  0.62470459213E+01  0.51100000000E-03 0.  1.
         12    1    3    3    0    0 -0.10258075776E+02 -0.23522512259E+01 -0.57520160480E+01  0.11993618848E+02  0.00000000000E+00 0. -1.
</event>
<event>
 7    1  0.2966651E-011  0.5052887E+02  0.7816164E-02  0.1300439E+00
        -11   -1    0    0    0    0  0.00000000000E+00  0.00000000000E+00  0.45593999997E+02  0.45594000000E+02  0.51100000000E-03 0.  1.
         11   -1    0    0    0    0 -0.00000000000E+00 -0.00000000000E+00 -0.45593999997E+02  0.45594000000E+02  0.51100000000E-03 0. -1.
    9900012    2    1    2    0    0 -0.39575138820E+02 -0.51368033520E+01  0.77837262798E+01  0.50528871183E+02  0.30000034449E+02 0.  0.
         12    1    1    2    0    0  0.39575138820E+02  0.51368033520E+01 -0.77837262798E+01  0.40659128817E+02  0.00000000000E+00 0. -1.
         11    1    3    3    0    0 -0.80089237628E+01 -0.11818843527E+02 -0.46922261131E+01  0.15028137220E+02  0.51100000000E-03 0. -1.
        -11    1    3    3    0    0 -0.25715844183E+02  0.21504234250E+01  0.10322858499E+02  0.27793710994E+02  0.51100000000E-03 0.  1.
         12    1    3    3    0    0 -0.58503708742E+01  0.45316167498E+01  0.21530938944E+01  0.77070229694E+01  0.00000000000E+00 0. -1.
</event>
<event>
 7    1  0.2966651E-011  0.5052886E+02  0.7816164E-02  0.1300439E+00
        -11   -1    0    0    0    0  0.00000000000E+00  0.00000000000E+00  0.45593999997E+02  0.45594000000E+02  0.51100000000E-03 0.  1.
         11   -1    0    0    0    0 -0.00000000000E+00 -0.00000000000E+00 -0.45593999997E+02  0.45594000000E+02  0.51100000000E-03 0. -1.
    9900012    2    1    2    0    0  0.72646429541E+01  0.39171280099E+02 -0.81241393749E+01  0.50528857579E+02  0.29999993097E+02 0.  0.
         12    1    1    2    0    0 -0.72646429541E+01 -0.39171280099E+02  0.81241393749E+01  0.40659142421E+02  0.00000000000E+00 0. -1.
         11    1    3    3    0    0  0.93119990113E+01  0.16378675089E+02  0.74844783983E+01  0.20272931224E+02  0.51100000000E-03 0. -1.
        -11    1    3    3    0    0  0.18122973340E+00  0.13875746333E+02 -0.22761570243E+01  0.14062363655E+02  0.51100000000E-03 0.  1.
         12    1    3    3    0    0 -0.22285857907E+01  0.89168586771E+01 -0.13332460749E+02  0.16193562700E+02  0.00000000000E+00 0. -1.
</event>
<event>
 7    1  0.2966651E-011  0.5052886E+02  0.7816164E-02  0.1300439E+00
        -11   -1    0    0    0    0  0.00000000000E+00  0.00000000000E+00  0.45593999997E+02  0.45594000000E+02  0.51100000000E-03 0. -1.
         11   -1    0    0    0    0 -0.00000000000E+00 -0.00000000000E+00 -0.45593999997E+02  0.45594000000E+02  0.51100000000E-03 0.  1.
    9900012    2    1    2    0    0 -0.25839042098E+02  0.25340116954E+02 -0.18530734857E+02  0.50528858861E+02  0.29999996994E+02 0.  0.
         12    1    1    2    0    0  0.25839042098E+02 -0.25340116954E+02  0.18530734857E+02  0.40659141139E+02  0.00000000000E+00 0. -1.
         11    1    3    3    0    0  0.58143759578E+01 -0.20562512177E-01 -0.26531646706E+01  0.63911402446E+01  0.51100000000E-03 0. -1.
        -11    1    3    3    0    0 -0.15914773293E+02  0.85579244349E+01 -0.84390986687E+01  0.19943331372E+02  0.51100000000E-03 0.  1.
         12    1    3    3    0    0 -0.15738644763E+02  0.16802755032E+02 -0.74384715180E+01  0.24194387245E+02  0.00000000000E+00 0. -1.
</event>
<event>
 7    1  0.2966651E-011  0.5052880E+02  0.7816164E-02  0.1300439E+00
        -11   -1    0    0    0    0  0.00000000000E+00  0.00000000000E+00  0.45593999997E+02  0.45594000000E+02  0.51100000000E-03 0. -1.
         11   -1    0    0    0    0 -0.00000000000E+00 -0.00000000000E+00 -0.45593999997E+02  0.45594000000E+02  0.51100000000E-03 0.  1.
    9900012    2    1    2    0    0  0.31572431642E+02  0.25031584772E+02  0.54563529186E+01  0.50528801002E+02  0.29999821125E+02 0.  0.
         12    1    1    2    0    0 -0.31572431642E+02 -0.25031584772E+02 -0.54563529186E+01  0.40659198998E+02  0.00000000000E+00 0. -1.
         11    1    3    3    0    0  0.19285663315E+02  0.18396477855E+02  0.95903850262E+01  0.28325654312E+02  0.51100000000E-03 0. -1.
        -11    1    3    3    0    0 -0.37131971349E+01 -0.13237170977E+01 -0.61385586795E+00  0.39895963712E+01  0.51100000000E-03 0.  1.
        -12    1    3    3    0    0  0.15999965461E+02  0.79588240153E+01 -0.35201762397E+01  0.18213550319E+02  0.00000000000E+00 0.  1.
</event>
<event>
 7    1  0.2966651E-011  0.5052887E+02  0.7816164E-02  0.1300439E+00
        -11   -1    0    0    0    0  0.00000000000E+00  0.00000000000E+00  0.45593999997E+02  0.45594000000E+02  0.51100000000E-03 0.  1.
         11   -1    0    0    0    0 -0.00000000000E+00 -0.00000000000E+00 -0.45593999997E+02  0.45594000000E+02  0.51100000000E-03 0. -1.
    9900012    2    1    2    0    0  0.19641878113E+02  0.23738914173E+02  0.26529706978E+02  0.50528870961E+02  0.30000033773E+02 0.  0.
         12    1    1    2    0    0 -0.19641878113E+02 -0.23738914173E+02 -0.26529706978E+02  0.40659129039E+02  0.00000000000E+00 0. -1.
         11    1    3    3    0    0  0.52129750600E+01 -0.98665731094E+00 -0.34645988935E+01  0.63365643198E+01  0.51100000000E-03 0. -1.
        -11    1    3    3    0    0  0.16673584899E+02  0.15081051204E+02  0.22136460776E+02  0.31551060755E+02  0.51100000000E-03 0.  1.
         12    1    3    3    0    0 -0.22446818463E+01  0.96445202796E+01  0.78578450953E+01  0.12641245886E+02  0.00000000000E+00 0. -1.
</event>
<event>
 7    1  0.2966651E-011  0.5052886E+02  0.7816164E-02  0.1300439E+00
        -11   -1    0    0    0    0  0.00000000000E+00  0.00000000000E+00  0.45593999997E+02  0.45594000000E+02  0.51100000000E-03 0.  1.
         11   -1    0    0    0    0 -0.00000000000E+00 -0.00000000000E+00 -0.45593999997E+02  0.45594000000E+02  0.51100000000E-03 0. -1.
    9900012    2    1    2    0    0 -0.27205298165E+02 -0.22470629011E+02  0.20201688549E+02  0.50528860356E+02  0.30000001537E+02 0.  0.
         12    1    1    2    0    0  0.27205298165E+02  0.22470629011E+02 -0.20201688549E+02  0.40659139644E+02  0.00000000000E+00 0. -1.
         11    1    3    3    0    0 -0.16954839009E+02 -0.87452332186E+01 -0.36022453356E+01  0.19414475053E+02  0.51100000000E-03 0. -1.
        -11    1    3    3    0    0 -0.31710305959E+00 -0.86309042136E+01  0.12783441383E+02  0.15427554432E+02  0.51100000000E-03 0.  1.
        -12    1    3    3    0    0 -0.99333560965E+01 -0.50944915790E+01  0.11020492502E+02  0.15686830871E+02  0.00000000000E+00 0.  1.
</event>
<event>
 7    1  0.2966651E-011  0.5052886E+02  0.7816164E-02  0.1300439E+00
        -11   -1    0    0    0    0  0.00000000000E+00  0.00000000000E+00  0.45593999997E+02  0.45594000000E+02  0.51100000000E-03 0. -1.
         11   -1    0    0    0    0 -0.00000000000E+00 -0.00000000000E+00 -0.45593999997E+02  0.45594000000E+02  0.51100000000E-03 0.  1.
    9900012    2    1    2    0    0  0.20713342150E+02 -0.21345949490E+02 -0.27721357128E+02  0.50528859039E+02  0.29999997536E+02 0.  0.
         12    1    1    2    0    0 -0.20713342150E+02  0.21345949490E+02  0.27721357128E+02  0.40659140961E+02  0.00000000000E+00 0. -1.
         11    1    3    3    0    0  0.11272751186E+02 -0.62712787968E+00 -0.20248391616E+02  0.23183303733E+02  0.51100000000E-03 0. -1.
        -11    1    3    3    0    0  0.99907972261E+01 -0.13412183601E+02 -0.10128093888E+02  0.19552007166E+02  0.51100000000E-03 0.  1.
         12    1    3    3    0    0 -0.55020626207E+00 -0.73066380093E+01  0.26551283760E+01  0.77935481408E+01  0.00000000000E+00 0. -1.
</event>
<event>
 7    1  0.2966651E-011  0.5052887E+02  0.7816164E-02  0.1300439E+00
        -11   -1    0    0    0    0  0.00000000000E+00  0.00000000000E+00  0.45593999997E+02  0.45594000000E+02  0.51100000000E-03 0.  1.
         11   -1    0    0    0    0 -0.00000000000E+00 -0.00000000000E+00 -0.45593999997E+02  0.45594000000E+02  0.51100000000E-03 0. -1.
    9900012    2    1    2    0    0 -0.21326217705E+02 -0.21326750647E+02  0.27267698419E+02  0.50528865334E+02  0.30000016669E+02 0.  0.
         12    1    1    2    0    0  0.21326217705E+02  0.21326750647E+02 -0.27267698419E+02  0.40659134666E+02  0.00000000000E+00 0. -1.
         11    1    3    3    0    0 -0.29816272468E+01 -0.55140157992E+01 -0.35270551695E+01  0.71926761155E+01  0.51100000000E-03 0. -1.
        -11    1    3    3    0    0 -0.21400899006E+02 -0.13711650060E+02  0.30371167005E+02  0.39603227282E+02  0.51100000000E-03 0.  1.
        -12    1    3    3    0    0  0.30563085480E+01 -0.21010847877E+01  0.42358658297E+00  0.37329619365E+01  0.00000000000E+00 0.  1.
</event>
<event>
 7    1  0.2966651E-011  0.5052886E+02  0.7816164E-02  0.1300439E+00
        -11   -1    0    0    0    0  0.00000000000E+00  0.00000000000E+00  0.45593999997E+02  0.45594000000E+02  0.51100000000E-03 0. -1.
         11   -1    0    0    0    0 -0.00000000000E+00 -0.00000000000E+00 -0.45593999997E+02  0.45594000000E+02  0.51100000000E-03 0.  1.
    9900012    2    1    2    0    0 -0.12003631257E+02  0.89019489602E+01 -0.37813142221E+02  0.50528861012E+02  0.30000003532E+02 0.  0.
         12    1    1    2    0    0  0.12003631257E+02 -0.89019489602E+01  0.37813142221E+02  0.40659138988E+02  0.00000000000E+00 0. -1.
         11    1    3    3    0    0 -0.47904763098E+01  0.66918444574E+01  0.20326088171E+01  0.84770834832E+01  0.51100000000E-03 0. -1.
        -11    1    3    3    0    0 -0.60106628911E+01 -0.52377864262E+00 -0.38136079424E+02  0.38610399720E+02  0.51100000000E-03 0.  1.
        -12    1    3    3    0    0 -0.12024920559E+01  0.27338831454E+01 -0.17096716142E+01  0.34413778092E+01  0.00000000000E+00 0.  1.
</event>
<event>
 7    1  0.2966651E-011  0.5052886E+02  0.7816164E-02  0.1300439E+00
        -11   -1    0    0    0    0  0.00000000000E+00  0.00000000000E+00  0.45593999997E+02  0.45594000000E+02  0.51100000000E-03 0.  1.
         11   -1    0    0    0    0 -0.00000000000E+00 -0.00000000000E+00 -0.45593999997E+02  0.45594000000E+02  0.51100000000E-03 0. -1.
    9900012    2    1    2    0    0 -0.30716652122E+02 -0.12636847806E+02  0.23451286625E+02  0.50528862227E+02  0.30000007227E+02 0.  0.
         12    1    1    2    0    0  0.30716652122E+02  0.12636847806E+02 -0.23451286625E+02  0.40659137773E+02  0.00000000000E+00 0. -1.
         11    1    3    3    0    0  0.21589335659E+01  0.30633862051E+00  0.26220010950E+01  0.34102386274E+01  0.51100000000E-03 0. -1.
        -11    1    3    3    0    0 -0.34755896386E+02 -0.95586374485E+01  0.22922276143E+02  0.42717334038E+02  0.51100000000E-03 0.  1.
        -12    1    3    3    0    0  0.18803106984E+01 -0.33845489777E+01 -0.20929906128E+01  0.44012895622E+01  0.00000000000E+00 0.  1.
</event>
<event>
 7    1  0.2966651E-011  0.5052886E+02  0.7816164E-02  0.1300439E+00
        -11   -1    0    0    0    0  0.00000000000E+00  0.00000000000E+00  0.45593999997E+02  0.45594000000E+02  0.51100000000E-03 0.  1.
         11   -1    0    0    0    0 -0.00000000000E+00 -0.00000000000E+00 -0.45593999997E+02  0.45594000000E+02  0.51100000000E-03 0. -1.
    9900012    2    1    2    0    0  0.11453917298E+01  0.95213678753E+01  0.39511992216E+02  0.50528857149E+02  0.29999991792E+02 0.  0.
         12    1    1    2    0    0 -0.11453917298E+01 -0.95213678753E+01 -0.39511992216E+02  0.40659142851E+02  0.00000000000E+00 0. -1.
         11    1    3    3    0    0 -0.53529479868E+00  0.61328223418E+01 -0.48883613642E+00  0.61755170980E+01  0.51100000000E-03 0. -1.
        -11    1    3    3    0    0  0.42246662562E+01 -0.74828215905E+00  0.39196635549E+02  0.39430749039E+02  0.51100000000E-03 0.  1.
        -12    1    3    3    0    0 -0.25439797277E+01  0.41368276925E+01  0.80419280424E+00  0.49225910128E+01  0.00000000000E+00 0.  1.
</event>
<event>
 7    1  0.2966651E-011  0.5052888E+02  0.7816164E-02  0.1300439E+00
        -11   -1    0    0    0    0  0.00000000000E+00  0.00000000000E+00  0.45593999997E+02  0.45594000000E+02  0.51100000000E-03 0.  1.
         11   -1    0    0    0    0 -0.00000000000E+00 -0.00000000000E+00 -0.45593999997E+02  0.45594000000E+02  0.51100000000E-03 0. -1.
    9900012    2    1    2    0    0 -0.16400138445E+02  0.13083526202E+02  0.34828444551E+02  0.50528883572E+02  0.30000072106E+02 0.  0.
         12    1    1    2    0    0  0.16400138445E+02 -0.13083526202E+02 -0.34828444551E+02  0.40659116428E+02  0.00000000000E+00 0. -1.
         11    1    3    3    0    0 -0.98671590750E+01  0.51382455419E+01  0.83567934464E+01  0.13913963937E+02  0.51100000000E-03 0. -1.
        -11    1    3    3    0    0  0.45381547302E+01  0.71405577741E+01  0.23712680195E+02  0.25176846823E+02  0.51100000000E-03 0.  1.
        -12    1    3    3    0    0 -0.11071134100E+02  0.80472288586E+00  0.27589709094E+01  0.11438072812E+02  0.00000000000E+00 0.  1.
</event>
<event>
 7    1  0.2966651E-011  0.5052886E+02  0.7816164E-02  0.1300439E+00
        -11   -1    0    0    0    0  0.00000000000E+00  0.00000000000E+00  0.45593999997E+02  0.45594000000E+02  0.51100000000E-03 0. -1.
         11   -1    0    0    0    0 -0.00000000000E+00 -0.00000000000E+00 -0.45593999997E+02  0.45594000000E+02  0.51100000000E-03 0.  1.
    9900012    2    1    2    0    0  0.30979875429E+02 -0.14288186153E+02  0.22119239925E+02  0.50528859330E+02  0.29999998421E+02 0.  0.
         12    1    1    2    0    0 -0.30979875429E+02  0.14288186153E+02 -0.22119239925E+02  0.40659140670E+02  0.00000000000E+00 0. -1.
         11    1    3    3    0    0 -0.14256582490E+01 -0.36618928066E+01  0.72840001971E+01  0.82763892793E+01  0.51100000000E-03 0. -1.
        -11    1    3    3    0    0  0.19070820156E+02  0.42899428121E+01  0.69240251723E+01  0.20737452004E+02  0.51100000000E-03 0.  1.
        -12    1    3    3    0    0  0.13334713522E+02 -0.14916236158E+02  0.79112145560E+01  0.21515018047E+02  0.00000000000E+00 0.  1.
</event>
<event>
 7    1  0.2966651E-011  0.5052896E+02  0.7816164E-02  0.1300438E+00
        -11   -1    0    0    0    0  0.00000000000E+00  0.00000000000E+00  0.45593999997E+02  0.45594000000E+02  0.51100000000E-03 0.  1.
         11   -1    0    0    0    0 -0.00000000000E+00 -0.00000000000E+00 -0.45593999997E+02  0.45594000000E+02  0.51100000000E-03 0. -1.
    9900012    2    1    2    0    0 -0.17716783836E+02  0.18955246959E+02  0.31304504142E+02  0.50528956771E+02  0.30000294598E+02 0.  0.
         12    1    1    2    0    0  0.17716783836E+02 -0.18955246959E+02 -0.31304504142E+02  0.40659043229E+02  0.00000000000E+00 0. -1.
         11    1    3    3    0    0 -0.21992201227E+01 -0.59757327414E+01  0.14264679867E+02  0.15621364951E+02  0.51100000000E-03 0. -1.
        -11    1    3    3    0    0 -0.70160132147E+01  0.18163294204E+02  0.12452287807E+02  0.23112532740E+02  0.51100000000E-03 0.  1.
         12    1    3    3    0    0 -0.85015504984E+01  0.67676854963E+01  0.45875364673E+01  0.11795059080E+02  0.00000000000E+00 0. -1.
</event>
<event>
 7    1  0.2966651E-011  0.5052886E+02  0.7816164E-02  0.1300439E+00
        -11   -1    0    0    0    0  0.00000000000E+00  0.00000000000E+00  0.45593999997E+02  0.45594000000E+02  0.51100000000E-03 0.  1.
         11   -1    0    0    0    0 -0.00000000000E+00 -0.00000000000E+00 -0.45593999997E+02  0.45594000000E+02  0.51100000000E-03 0. -1.
    9900012    2    1    2    0    0 -0.15926826687E+02  0.35927070914E+02 -0.10428201516E+02  0.50528860564E+02  0.30000002171E+02 0.  0.
         12    1    1    2    0    0  0.15926826687E+02 -0.35927070914E+02  0.10428201516E+02  0.40659139436E+02  0.00000000000E+00 0. -1.
         11    1    3    3    0    0 -0.15027392455E+02  0.24789207543E+01 -0.72002760550E+00  0.15247491995E+02  0.51100000000E-03 0. -1.
        -11    1    3    3    0    0  0.10669035863E+01  0.25816556133E+02 -0.90314719087E+01  0.27371524235E+02  0.51100000000E-03 0.  1.
         12    1    3    3    0    0 -0.19663378183E+01  0.76315940269E+01 -0.67670200180E+00  0.79098443351E+01  0.00000000000E+00 0. -1.
</event>
<event>
 7    1  0.2966651E-011  0.5052886E+02  0.7816164E-02  0.1300439E+00
        -11   -1    0    0    0    0  0.00000000000E+00  0.00000000000E+00  0.45593999997E+02  0.45594000000E+02  0.51100000000E-03 0. -1.
         11   -1    0    0    0    0 -0.00000000000E+00 -0.00000000000E+00 -0.45593999997E+02  0.45594000000E+02  0.51100000000E-03 0.  1.
    9900012    2    1    2    0    0 -0.17503762275E+02 -0.28240104699E+02 -0.23436727419E+02  0.50528863274E+02  0.30000010408E+02 0.  0.
         12    1    1    2    0    0  0.17503762275E+02  0.28240104699E+02  0.23436727419E+02  0.40659136726E+02  0.00000000000E+00 0. -1.
         11    1    3    3    0    0 -0.13761983356E+02 -0.10256234318E+02  0.17860293583E+01  0.17256083838E+02  0.51100000000E-03 0. -1.
        -11    1    3    3    0    0 -0.74242623043E+01 -0.15528371888E+02 -0.19005349855E+02  0.25640852709E+02  0.51100000000E-03 0.  1.
        -12    1    3    3    0    0  0.36824833858E+01 -0.24554984923E+01 -0.62174069227E+01  0.76319267276E+01  0.00000000000E+00 0.  1.
</event>
<event>
 7    1  0.2966651E-011  0.5052887E+02  0.7816164E-02  0.1300439E+00
        -11   -1    0    0    0    0  0.00000000000E+00  0.00000000000E+00  0.45593999997E+02  0.45594000000E+02  0.51100000000E-03 0. -1.
         11   -1    0    0    0    0 -0.00000000000E+00 -0.00000000000E+00 -0.45593999997E+02  0.45594000000E+02  0.51100000000E-03 0.  1.
    9900012    2    1    2    0    0  0.31102753051E+02 -0.24453429440E+02  0.93708957797E+01  0.50528866383E+02  0.30000019859E+02 0.  0.
         12    1    1    2    0    0 -0.31102753051E+02  0.24453429440E+02 -0.93708957797E+01  0.40659133617E+02  0.00000000000E+00 0. -1.
         11    1    3    3    0    0  0.76720943333E+01  0.16457398434E+00  0.25720424380E+00  0.76781684235E+01  0.51100000000E-03 0. -1.
        -11    1    3    3    0    0 -0.35252529914E+01 -0.10377414940E+02  0.51441323669E+01  0.12107032979E+02  0.51100000000E-03 0.  1.
        -12    1    3    3    0    0  0.26955911709E+02 -0.14240588485E+02  0.39695591690E+01  0.30743664981E+02  0.00000000000E+00 0.  1.
</event>
<event>
 7    1  0.2966651E-011  0.5052885E+02  0.7816164E-02  0.1300439E+00
        -11   -1    0    0    0    0  0.00000000000E+00  0.00000000000E+00  0.45593999997E+02  0.45594000000E+02  0.51100000000E-03 0.  1.
         11   -1    0    0    0    0 -0.00000000000E+00 -0.00000000000E+00 -0.45593999997E+02  0.45594000000E+02  0.51100000000E-03 0. -1.
    9900012    2    1    2    0    0  0.12049109075E+01  0.10859694104E+02  0.39163526856E+02  0.50528848483E+02  0.29999965448E+02 0.  0.
         12    1    1    2    0    0 -0.12049109075E+01 -0.10859694104E+02 -0.39163526856E+02  0.40659151517E+02  0.00000000000E+00 0. -1.
         11    1    3    3    0    0  0.78674805489E-01 -0.10580640933E+01  0.12547280214E+02  0.12592058227E+02  0.51100000000E-03 0. -1.
        -11    1    3    3    0    0  0.64493992496E+00  0.17345911396E+02  0.91126525551E+01  0.19604515462E+02  0.51100000000E-03 0.  1.
        -12    1    3    3    0    0  0.48129617703E+00 -0.54281531984E+01  0.17503594086E+02  0.18332274793E+02  0.00000000000E+00 0.  1.
</event>
<event>
 7    1  0.2966651E-011  0.5052877E+02  0.7816164E-02  0.1300439E+00
        -11   -1    0    0    0    0  0.00000000000E+00  0.00000000000E+00  0.45593999997E+02  0.45594000000E+02  0.51100000000E-03 0.  1.
         11   -1    0    0    0    0 -0.00000000000E+00 -0.00000000000E+00 -0.45593999997E+02  0.45594000000E+02  0.51100000000E-03 0. -1.
    9900012    2    1    2    0    0  0.40446284090E+02  0.16103210948E+01  0.38311850363E+01  0.50528769689E+02  0.29999725944E+02 0.  0.
         12    1    1    2    0    0 -0.40446284090E+02 -0.16103210948E+01 -0.38311850363E+01  0.40659230311E+02  0.00000000000E+00 0. -1.
         11    1    3    3    0    0  0.15850921016E+02  0.10267926454E+01 -0.63865420958E+01  0.17119985993E+02  0.51100000000E-03 0. -1.
        -11    1    3    3    0    0  0.20056862877E+01 -0.75222031677E+01  0.19598839588E+01  0.80279177483E+01  0.51100000000E-03 0.  1.
        -12    1    3    3    0    0  0.22589676786E+02  0.81057316171E+01  0.82578431733E+01  0.25380865947E+02  0.00000000000E+00 0.  1.
</event>
<event>
 7    1  0.2966651E-011  0.5052886E+02  0.7816164E-02  0.1300439E+00
        -11   -1    0    0    0    0  0.00000000000E+00  0.00000000000E+00  0.45593999997E+02  0.45594000000E+02  0.51100000000E-03 0. -1.
         11   -1    0    0    0    0 -0.00000000000E+00 -0.00000000000E+00 -0.45593999997E+02  0.45594000000E+02  0.51100000000E-03 0.  1.
    9900012    2    1    2    0    0 -0.36293338863E+01  0.20588332562E+02 -0.34872824457E+02  0.50528863417E+02  0.30000010841E+02 0.  0.
         12    1    1    2    0    0  0.36293338863E+01 -0.20588332562E+02  0.34872824457E+02  0.40659136583E+02  0.00000000000E+00 0. -1.
         11    1    3    3    0    0 -0.35215851427E+01  0.10644464389E+02 -0.80821617247E+00  0.11240969607E+02  0.51100000000E-03 0. -1.
        -11    1    3    3    0    0  0.21643549909E+01  0.12095717502E+02 -0.34006012538E+02  0.36157982568E+02  0.51100000000E-03 0.  1.
         12    1    3    3    0    0 -0.22721037345E+01 -0.21518493297E+01 -0.58595745959E-01  0.31299112415E+01  0.00000000000E+00 0. -1.
</event>
<event>
 7    1  0.2966651E-011  0.5052885E+02  0.7816164E-02  0.1300439E+00
        -11   -1    0    0    0    0  0.00000000000E+00  0.00000000000E+00  0.45593999997E+02  0.45594000000E+02  0.51100000000E-03 0.  1.
         11   -1    0    0    0    0 -0.00000000000E+00 -0.00000000000E+00 -0.45593999997E+02  0.45594000000E+02  0.51100000000E-03 0. -1.
    9900012    2    1    2    0    0  0.30283401675E+02  0.19780614234E+01  0.27058624627E+02  0.50528852066E+02  0.29999976341E+02 0.  0.
         12    1    1    2    0    0 -0.30283401675E+02 -0.19780614234E+01 -0.27058624627E+02  0.40659147934E+02  0.00000000000E+00 0. -1.
         11    1    3    3    0    0  0.18584403091E+02 -0.23199926139E+01 -0.49919329098E+00  0.18735303526E+02  0.51100000000E-03 0. -1.
        -11    1    3    3    0    0  0.28874193141E+01  0.50313221396E+01  0.17321861644E+02  0.18267410431E+02  0.51100000000E-03 0.  1.
        -12    1    3    3    0    0  0.88115792692E+01 -0.73326810226E+00  0.10235956274E+02  0.13526138110E+02  0.00000000000E+00 0.  1.
</event>
<event>
 7    1  0.2966651E-011  0.5052886E+02  0.7816164E-02  0.1300439E+00
        -11   -1    0    0    0    0  0.00000000000E+00  0.00000000000E+00  0.45593999997E+02  0.45594000000E+02  0.51100000000E-03 0. -1.
         11   -1    0    0    0    0 -0.00000000000E+00 -0.00000000000E+00 -0.45593999997E+02  0.45594000000E+02  0.51100000000E-03 0.  1.
    9900012    2    1    2    0    0  0.18464705178E+02  0.30118641123E+02 -0.20126785603E+02  0.50528863523E+02  0.30000011163E+02 0.  0.
         12    1    1    2    0    0 -0.18464705178E+02 -0.30118641123E+02  0.20126785603E+02  0.40659136477E+02  0.00000000000E+00 0. -1.
         11    1    3    3    0    0  0.84800193230E+01  0.42864508809E+01  0.42011262384E+01  0.10389121753E+02  0.51100000000E-03 0. -1.
        -11    1    3    3    0    0  0.28364198080E+00  0.87540715806E+01 -0.17096925635E+02  0.19209869558E+02  0.51100000000E-03 0.  1.
         12    1    3    3    0    0  0.97010438743E+01  0.17078118661E+02 -0.72309862059E+01  0.20929872211E+02  0.00000000000E+00 0. -1.
</event>
<event>
 7    1  0.2966651E-011  0.5052886E+02  0.7816164E-02  0.1300439E+00
        -11   -1    0    0    0    0  0.00000000000E+00  0.00000000000E+00  0.45593999997E+02  0.45594000000E+02  0.51100000000E-03 0.  1.
         11   -1    0    0    0    0 -0.00000000000E+00 -0.00000000000E+00 -0.45593999997E+02  0.45594000000E+02  0.51100000000E-03 0. -1.
    9900012    2    1    2    0    0 -0.30306614858E+02 -0.26298593577E+02 -0.65618900436E+01  0.50528864136E+02  0.30000013028E+02 0.  0.
         12    1    1    2    0    0  0.30306614858E+02  0.26298593577E+02  0.65618900436E+01  0.40659135864E+02  0.00000000000E+00 0. -1.
         11    1    3    3    0    0  0.58828457369E+00 -0.10152494851E+02 -0.84528489206E+01  0.13223837778E+02  0.51100000000E-03 0. -1.
        -11    1    3    3    0    0 -0.25318847798E+02 -0.67574075637E+01 -0.10015147763E+00  0.26205278883E+02  0.51100000000E-03 0.  1.
        -12    1    3    3    0    0 -0.55760516338E+01 -0.93886911618E+01  0.19911103547E+01  0.11099747475E+02  0.00000000000E+00 0.  1.
</event>
<event>
 7    1  0.2966651E-011  0.5052882E+02  0.7816164E-02  0.1300439E+00
        -11   -1    0    0    0    0  0.00000000000E+00  0.00000000000E+00  0.45593999997E+02  0.45594000000E+02  0.51100000000E-03 0. -1.
         11   -1    0    0    0    0 -0.00000000000E+00 -0.00000000000E+00 -0.45593999997E+02  0.45594000000E+02  0.51100000000E-03 0.  1.
    9900012    2    1    2    0    0  0.50482683498E+01 -0.39378241958E+02  0.87771131266E+01  0.50528823079E+02  0.29999888231E+02 0.  0.
         12    1    1    2    0    0 -0.50482683498E+01  0.39378241958E+02 -0.87771131266E+01  0.40659176921E+02  0.00000000000E+00 0. -1.
         11    1    3    3    0    0  0.12164810674E+02 -0.30057237127E+02  0.80267637103E+01  0.33404326941E+02  0.51100000000E-03 0. -1.
        -11    1    3    3    0    0 -0.83973757919E+01 -0.96569604630E+01 -0.30025088917E+01  0.13144879820E+02  0.51100000000E-03 0.  1.
        -12    1    3    3    0    0  0.12808334677E+01  0.33595563216E+00  0.37528583080E+01  0.39796163180E+01  0.00000000000E+00 0.  1.
</event>
<event>
 7    1  0.2966651E-011  0.5052887E+02  0.7816164E-02  0.1300439E+00
        -11   -1    0    0    0    0  0.00000000000E+00  0.00000000000E+00  0.45593999997E+02  0.45594000000E+02  0.51100000000E-03 0.  1.
         11   -1    0    0    0    0 -0.00000000000E+00 -0.00000000000E+00 -0.45593999997E+02  0.45594000000E+02  0.51100000000E-03 0. -1.
    9900012    2    1    2    0    0  0.85619184241E+00 -0.23293999724E+02  0.33313987452E+02  0.50528865140E+02  0.30000016081E+02 0.  0.
         12    1    1    2    0    0 -0.85619184241E+00  0.23293999724E+02 -0.33313987452E+02  0.40659134860E+02  0.00000000000E+00 0. -1.
         11    1    3    3    0    0  0.15002225524E+01 -0.73620192317E+01  0.10734662722E+02  0.13102785158E+02  0.51100000000E-03 0. -1.
        -11    1    3    3    0    0  0.43001293707E+01 -0.13138346628E+02 -0.32528480875E+00  0.13827981602E+02  0.51100000000E-03 0.  1.
        -12    1    3    3    0    0 -0.49441600807E+01 -0.27936338638E+01  0.22904609538E+02  0.23598098380E+02  0.00000000000E+00 0.  1.
</event>
<event>
 7    1  0.2966651E-011  0.5052886E+02  0.7816164E-02  0.1300439E+00
        -11   -1    0    0    0    0  0.00000000000E+00  0.00000000000E+00  0.45593999997E+02  0.45594000000E+02  0.51100000000E-03 0. -1.
         11   -1    0    0    0    0 -0.00000000000E+00 -0.00000000000E+00 -0.45593999997E+02  0.45594000000E+02  0.51100000000E-03 0.  1.
    9900012    2    1    2    0    0  0.13433212150E+02  0.38293553375E+02  0.25135378750E+01  0.50528864600E+02  0.30000014440E+02 0.  0.
         12    1    1    2    0    0 -0.13433212150E+02 -0.38293553375E+02 -0.25135378750E+01  0.40659135400E+02  0.00000000000E+00 0. -1.
         11    1    3    3    0    0  0.17341028822E+01 -0.10763388370E+01  0.27707676088E+01  0.34413328088E+01  0.51100000000E-03 0. -1.
        -11    1    3    3    0    0  0.68178873438E+01  0.40808762841E+02  0.22074396745E+01  0.41433217382E+02  0.51100000000E-03 0.  1.
        -12    1    3    3    0    0  0.48812219241E+01 -0.14388706281E+01 -0.24646694083E+01  0.56543144102E+01  0.00000000000E+00 0.  1.
</event>
<event>
 7    1  0.2966651E-011  0.5052885E+02  0.7816164E-02  0.1300439E+00
        -11   -1    0    0    0    0  0.00000000000E+00  0.00000000000E+00  0.45593999997E+02  0.45594000000E+02  0.51100000000E-03 0.  1.
         11   -1    0    0    0    0 -0.00000000000E+00 -0.00000000000E+00 -0.45593999997E+02  0.45594000000E+02  0.51100000000E-03 0. -1.
    9900012    2    1    2    0    0 -0.18059233320E+02  0.14403918487E+01  0.36399943925E+02  0.50528849068E+02  0.29999967228E+02 0.  0.
         12    1    1    2    0    0  0.18059233320E+02 -0.14403918487E+01 -0.36399943925E+02  0.40659150932E+02  0.00000000000E+00 0. -1.
         11    1    3    3    0    0 -0.25119906624E+02  0.45023833592E+01  0.31174916556E+02  0.40288417532E+02  0.51100000000E-03 0.  1.
        -11    1    3    3    0    0  0.49989761263E+01 -0.17357034630E+01  0.10440226420E+01  0.53937382547E+01  0.51100000000E-03 0. -1.
        -12    1    3    3    0    0  0.20616971782E+01 -0.13262880475E+01  0.41810047265E+01  0.48466932813E+01  0.00000000000E+00 0.  1.
</event>
<event>
 7    1  0.2966651E-011  0.5052884E+02  0.7816164E-02  0.1300439E+00
        -11   -1    0    0    0    0  0.00000000000E+00  0.00000000000E+00  0.45593999997E+02  0.45594000000E+02  0.51100000000E-03 0. -1.
         11   -1    0    0    0    0 -0.00000000000E+00 -0.00000000000E+00 -0.45593999997E+02  0.45594000000E+02  0.51100000000E-03 0.  1.
    9900012    2    1    2    0    0  0.15529385986E+01  0.19583638124E+02 -0.35598271582E+02  0.50528838178E+02  0.29999934125E+02 0.  0.
         12    1    1    2    0    0 -0.15529385986E+01 -0.19583638124E+02  0.35598271582E+02  0.40659161822E+02  0.00000000000E+00 0. -1.
         11    1    3    3    0    0  0.15888052353E+01  0.16422738455E+01 -0.85766714705E+00  0.24406881521E+01  0.51100000000E-03 0. -1.
        -11    1    3    3    0    0  0.17138982558E+01  0.20587892057E+02 -0.96570844991E+01  0.22804780811E+02  0.51100000000E-03 0.  1.
        -12    1    3    3    0    0 -0.17497648925E+01 -0.26465277783E+01 -0.25083519936E+02  0.25283369214E+02  0.00000000000E+00 0.  1.
</event>
<event>
 7    1  0.2966651E-011  0.5052886E+02  0.7816164E-02  0.1300439E+00
        -11   -1    0    0    0    0  0.00000000000E+00  0.00000000000E+00  0.45593999997E+02  0.45594000000E+02  0.51100000000E-03 0. -1.
         11   -1    0    0    0    0 -0.00000000000E+00 -0.00000000000E+00 -0.45593999997E+02  0.45594000000E+02  0.51100000000E-03 0.  1.
    9900012    2    1    2    0    0 -0.23350930843E+02  0.32581389646E+02 -0.68082592902E+01  0.50528864285E+02  0.30000013480E+02 0.  0.
         12    1    1    2    0    0  0.23350930843E+02 -0.32581389646E+02  0.68082592902E+01  0.40659135715E+02  0.00000000000E+00 0. -1.
         11    1    3    3    0    0 -0.12393075161E+02  0.29315370388E+02  0.60860557133E+01  0.32404001718E+02  0.51100000000E-03 0. -1.
        -11    1    3    3    0    0 -0.65634922286E+01  0.46576830109E+00 -0.36797663971E+01  0.75390351732E+01  0.51100000000E-03 0.  1.
         12    1    3    3    0    0 -0.43943634536E+01  0.28002509573E+01 -0.92145486063E+01  0.10585827393E+02  0.00000000000E+00 0. -1.
</event>
