<event>
 8    1  0.1615837E-013  0.9118800E+02  0.7816164E-02  0.1184000E+00
        -11   -1    0    0    0    0  0.00000000000E+00  0.00000000000E+00  0.45593999997E+02  0.45594000000E+02  0.51100000000E-03 0. -1.
         11   -1    0    0    0    0 -0.00000000000E+00 -0.00000000000E+00 -0.45593999997E+02  0.45594000000E+02  0.51100000000E-03 0.  1.
         23    2    1    2    0    0  0.00000000000E+00 -0.35527136788E-14  0.71054273576E-14  0.91188000000E+02  0.91188000000E+02 0.  0.
    9900012    2    3    3    0    0 -0.41959346556E+01 -0.24534173006E+02  0.32150182513E+02  0.50528858982E+02  0.29999997361E+02 0.  0.
        -12    1    3    3    0    0  0.41959346556E+01  0.24534173006E+02 -0.32150182513E+02  0.40659141018E+02  0.00000000000E+00 0.  1.
         11    1    4    4    0    0  0.46813008920E+01 -0.91425403872E+00  0.47889451779E+01  0.67590261626E+01  0.51100000000E-03 0. -1.
        -11    1    4    4    0    0 -0.33372039045E+01  0.33938634701E+01  0.10289653710E+02  0.11337204809E+02  0.51100000000E-03 0.  1.
        -12    1    4    4    0    0 -0.55400316430E+01 -0.27013782437E+02  0.17071583626E+02  0.32432628010E+02  0.00000000000E+00 0.  1.
</event>
<event>
 8    1  0.1615837E-013  0.9118800E+02  0.7816164E-02  0.1184000E+00
        -11   -1    0    0    0    0  0.00000000000E+00  0.00000000000E+00  0.45593999997E+02  0.45594000000E+02  0.51100000000E-03 0.  1.
         11   -1    0    0    0    0 -0.00000000000E+00 -0.00000000000E+00 -0.45593999997E+02  0.45594000000E+02  0.51100000000E-03 0. -1.
         23    2    1    2    0    0 -0.35527136788E-14 -0.35527136788E-14 -0.35527136788E-14  0.91188000000E+02  0.91188000000E+02 0.  0.
    9900012    2    3    3    0    0 -0.29070327581E+02 -0.17673338067E+02 -0.22265016860E+02  0.50528907537E+02  0.30000144950E+02 0.  0.
         12    1    3    3    0    0  0.29070327581E+02  0.17673338067E+02  0.22265016860E+02  0.40659092463E+02  0.00000000000E+00 0. -1.
         11    1    4    4    0    0 -0.10591392929E+02  0.38528844048E+01 -0.65419521509E+01  0.13031479602E+02  0.51100000000E-03 0. -1.
        -11    1    4    4    0    0 -0.11952730484E+02 -0.24177593925E+01 -0.49162619905E+00  0.12204713151E+02  0.51100000000E-03 0.  1.
        -12    1    4    4    0    0 -0.65262041680E+01 -0.19108463079E+02 -0.15231438510E+02  0.25292714785E+02  0.00000000000E+00 0.  1.
</event>
<event>
 8    1  0.1615837E-013  0.9118800E+02  0.7816164E-02  0.1184000E+00
        -11   -1    0    0    0    0  0.00000000000E+00  0.00000000000E+00  0.45593999997E+02  0.45594000000E+02  0.51100000000E-03 0. -1.
         11   -1    0    0    0    0 -0.00000000000E+00 -0.00000000000E+00 -0.45593999997E+02  0.45594000000E+02  0.51100000000E-03 0.  1.
         23    2    1    2    0    0  0.00000000000E+00  0.71054273576E-14  0.00000000000E+00  0.91188000000E+02  0.91188000000E+02 0.  0.
    9900012    2    3    3    0    0 -0.97248001234E+01 -0.36552940263E+02  0.14915650462E+02  0.50528858248E+02  0.29999995131E+02 0.  0.
        -12    1    3    3    0    0  0.97248001234E+01  0.36552940263E+02 -0.14915650462E+02  0.40659141752E+02  0.00000000000E+00 0.  1.
         11    1    4    4    0    0  0.17004704996E+01 -0.23664782638E+02  0.13680904184E+02  0.27387600785E+02  0.51100000000E-03 0. -1.
        -11    1    4    4    0    0 -0.51946261808E+01 -0.13097441531E+02  0.59801275707E+01  0.15306503253E+02  0.51100000000E-03 0.  1.
        -12    1    4    4    0    0 -0.62306444423E+01  0.20928390623E+00 -0.47453812924E+01  0.78347542099E+01  0.00000000000E+00 0.  1.
</event>
<event>
 8    1  0.1615837E-013  0.9118800E+02  0.7816164E-02  0.1184000E+00
        -11   -1    0    0    0    0  0.00000000000E+00  0.00000000000E+00  0.45593999997E+02  0.45594000000E+02  0.51100000000E-03 0. -1.
         11   -1    0    0    0    0 -0.00000000000E+00 -0.00000000000E+00 -0.45593999997E+02  0.45594000000E+02  0.51100000000E-03 0.  1.
         23    2    1    2    0    0 -0.88817841970E-15  0.17763568394E-14  0.71054273576E-14  0.91188000000E+02  0.91188000000E+02 0.  0.
    9900012    2    3    3    0    0 -0.49454524596E+01  0.51852668313E+01  0.40022782131E+02  0.50528836437E+02  0.29999928835E+02 0.  0.
        -12    1    3    3    0    0  0.49454524596E+01 -0.51852668313E+01 -0.40022782131E+02  0.40659163563E+02  0.00000000000E+00 0.  1.
         11    1    4    4    0    0  0.34141978536E+01 -0.76942962321E+01  0.79303665822E+01  0.11565018629E+02  0.51100000000E-03 0.  1.
        -11    1    4    4    0    0  0.35212333731E+01  0.13792884229E+01  0.12754744514E+01  0.39910344973E+01  0.51100000000E-03 0. -1.
         12    1    4    4    0    0 -0.11880883686E+02  0.11500274640E+02  0.30816941097E+02  0.34972783311E+02  0.00000000000E+00 0. -1.
</event>
<event>
 8    1  0.1615837E-013  0.9118800E+02  0.7816164E-02  0.1184000E+00
        -11   -1    0    0    0    0  0.00000000000E+00  0.00000000000E+00  0.45593999997E+02  0.45594000000E+02  0.51100000000E-03 0. -1.
         11   -1    0    0    0    0 -0.00000000000E+00 -0.00000000000E+00 -0.45593999997E+02  0.45594000000E+02  0.51100000000E-03 0.  1.
         23    2    1    2    0    0 -0.44408920985E-15 -0.35527136788E-14  0.71054273576E-14  0.91188000000E+02  0.91188000000E+02 0.  0.
    9900012    2    3    3    0    0 -0.37478438472E+01 -0.19088908753E+02  0.35703411435E+02  0.50528851472E+02  0.29999974534E+02 0.  0.
        -12    1    3    3    0    0  0.37478438472E+01  0.19088908753E+02 -0.35703411435E+02  0.40659148528E+02  0.00000000000E+00 0.  1.
         11    1    4    4    0    0 -0.27770597199E+01 -0.51611227373E+01  0.24265838247E+02  0.24963576560E+02  0.51100000000E-03 0. -1.
        -11    1    4    4    0    0 -0.25120927049E+01 -0.11263012908E+02  0.16202829283E+02  0.19892152889E+02  0.51100000000E-03 0.  1.
        -12    1    4    4    0    0  0.15413085776E+01 -0.26647731081E+01 -0.47652560940E+01  0.56731220232E+01  0.00000000000E+00 0.  1.
</event>
<event>
 8    1  0.1615837E-013  0.9118800E+02  0.7816164E-02  0.1184000E+00
        -11   -1    0    0    0    0  0.00000000000E+00  0.00000000000E+00  0.45593999997E+02  0.45594000000E+02  0.51100000000E-03 0. -1.
         11   -1    0    0    0    0 -0.00000000000E+00 -0.00000000000E+00 -0.45593999997E+02  0.45594000000E+02  0.51100000000E-03 0.  1.
         23    2    1    2    0    0 -0.88817841970E-15  0.35527136788E-14  0.35527136788E-14  0.91188000000E+02  0.91188000000E+02 0.  0.
    9900012    2    3    3    0    0  0.79264127889E+01 -0.31086752437E+02 -0.24979026825E+02  0.50528856159E+02  0.29999988780E+02 0.  0.
         12    1    3    3    0    0 -0.79264127889E+01  0.31086752437E+02  0.24979026825E+02  0.40659143841E+02  0.00000000000E+00 0. -1.
         11    1    4    4    0    0  0.33980519817E+01 -0.12208836013E+02 -0.14848713809E+02  0.19521442982E+02  0.51100000000E-03 0. -1.
        -11    1    4    4    0    0  0.60037704946E+01 -0.13615697421E+01 -0.11841273125E+02  0.13345968747E+02  0.51100000000E-03 0.  1.
         12    1    4    4    0    0 -0.14754096874E+01 -0.17516346682E+02  0.17109601097E+01  0.17661444429E+02  0.00000000000E+00 0. -1.
</event>
<event>
 8    1  0.1615837E-013  0.9118800E+02  0.7816164E-02  0.1184000E+00
        -11   -1    0    0    0    0  0.00000000000E+00  0.00000000000E+00  0.45593999997E+02  0.45594000000E+02  0.51100000000E-03 0. -1.
         11   -1    0    0    0    0 -0.00000000000E+00 -0.00000000000E+00 -0.45593999997E+02  0.45594000000E+02  0.51100000000E-03 0.  1.
         23    2    1    2    0    0  0.00000000000E+00  0.00000000000E+00  0.00000000000E+00  0.91188000000E+02  0.91188000000E+02 0.  0.
    9900012    2    3    3    0    0  0.98493380853E+01 -0.27901509095E+02 -0.27886597531E+02  0.50528855981E+02  0.29999988240E+02 0.  0.
         12    1    3    3    0    0 -0.98493380853E+01  0.27901509095E+02  0.27886597531E+02  0.40659144019E+02  0.00000000000E+00 0. -1.
         11    1    4    4    0    0  0.14163377594E+01 -0.12686256064E+02  0.14281566760E+01  0.12844716320E+02  0.51100000000E-03 0. -1.
        -11    1    4    4    0    0  0.50978868464E+01 -0.15816777883E+02 -0.13216017122E+02  0.21232569833E+02  0.51100000000E-03 0.  1.
        -12    1    4    4    0    0  0.33351134796E+01  0.60152485231E+00 -0.16098737085E+02  0.16451569828E+02  0.00000000000E+00 0.  1.
</event>
<event>
 8    1  0.1615837E-013  0.9118800E+02  0.7816164E-02  0.1184000E+00
        -11   -1    0    0    0    0  0.00000000000E+00  0.00000000000E+00  0.45593999997E+02  0.45594000000E+02  0.51100000000E-03 0. -1.
         11   -1    0    0    0    0 -0.00000000000E+00 -0.00000000000E+00 -0.45593999997E+02  0.45594000000E+02  0.51100000000E-03 0.  1.
         23    2    1    2    0    0 -0.17763568394E-14  0.00000000000E+00  0.17763568394E-14  0.91188000000E+02  0.91188000000E+02 0.  0.
    9900012    2    3    3    0    0 -0.60874161419E+01  0.38450723813E+02  0.11732498650E+02  0.50528851932E+02  0.29999975933E+02 0.  0.
        -12    1    3    3    0    0  0.60874161419E+01 -0.38450723813E+02 -0.11732498650E+02  0.40659148068E+02  0.00000000000E+00 0.  1.
         11    1    4    4    0    0  0.27856872881E+01 -0.28190916616E+01  0.39841774492E+01  0.56196976494E+01  0.51100000000E-03 0. -1.
        -11    1    4    4    0    0  0.23386747586E+01  0.41492521974E+01  0.34785945962E+01  0.58979923745E+01  0.51100000000E-03 0.  1.
        -12    1    4    4    0    0 -0.11211778189E+02  0.37120563277E+02  0.42697266044E+01  0.39011161908E+02  0.00000000000E+00 0.  1.
</event>
<event>
 8    1  0.1615837E-013  0.9118800E+02  0.7816164E-02  0.1184000E+00
        -11   -1    0    0    0    0  0.00000000000E+00  0.00000000000E+00  0.45593999997E+02  0.45594000000E+02  0.51100000000E-03 0. -1.
         11   -1    0    0    0    0 -0.00000000000E+00 -0.00000000000E+00 -0.45593999997E+02  0.45594000000E+02  0.51100000000E-03 0.  1.
         23    2    1    2    0    0  0.17763568394E-14  0.00000000000E+00  0.00000000000E+00  0.91188000000E+02  0.91188000000E+02 0.  0.
    9900012    2    3    3    0    0  0.11410893106E+02  0.24585579481E+02 -0.30306866962E+02  0.50528863451E+02  0.30000010945E+02 0.  0.
         12    1    3    3    0    0 -0.11410893106E+02 -0.24585579481E+02  0.30306866962E+02  0.40659136549E+02  0.00000000000E+00 0. -1.
         11    1    4    4    0    0 -0.69915754154E+01  0.35581139861E+01 -0.69586245467E+01  0.10486408240E+02  0.51100000000E-03 0. -1.
        -11    1    4    4    0    0  0.82847256951E+01  0.10859554096E+01 -0.12878016225E+02  0.15351198036E+02  0.51100000000E-03 0.  1.
        -12    1    4    4    0    0  0.10117742827E+02  0.19941510085E+02 -0.10470226190E+02  0.24691257174E+02  0.00000000000E+00 0.  1.
</event>
<event>
 8    1  0.1615837E-013  0.9118800E+02  0.7816164E-02  0.1184000E+00
        -11   -1    0    0    0    0  0.00000000000E+00  0.00000000000E+00  0.45593999997E+02  0.45594000000E+02  0.51100000000E-03 0. -1.
         11   -1    0    0    0    0 -0.00000000000E+00 -0.00000000000E+00 -0.45593999997E+02  0.45594000000E+02  0.51100000000E-03 0.  1.
         23    2    1    2    0    0  0.00000000000E+00  0.00000000000E+00  0.00000000000E+00  0.91188000000E+02  0.91188000000E+02 0.  0.
    9900012    2    3    3    0    0 -0.31462273838E+01  0.78944541792E+01  0.39761065773E+02  0.50528886569E+02  0.30000081216E+02 0.  0.
        -12    1    3    3    0    0  0.31462273838E+01 -0.78944541792E+01 -0.39761065773E+02  0.40659113431E+02  0.00000000000E+00 0.  1.
         11    1    4    4    0    0  0.19601884439E+00 -0.20259277506E+01  0.25291579703E+00  0.20510420033E+01  0.51100000000E-03 0. -1.
        -11    1    4    4    0    0  0.30616910595E+00 -0.88506101936E+01  0.14600993655E+02  0.17076769492E+02  0.51100000000E-03 0.  1.
         12    1    4    4    0    0 -0.36484153342E+01  0.18770992123E+02  0.24907156322E+02  0.31401075074E+02  0.00000000000E+00 0. -1.
</event>
<event>
 8    1  0.1615837E-013  0.9118800E+02  0.7816164E-02  0.1184000E+00
        -11   -1    0    0    0    0  0.00000000000E+00  0.00000000000E+00  0.45593999997E+02  0.45594000000E+02  0.51100000000E-03 0. -1.
         11   -1    0    0    0    0 -0.00000000000E+00 -0.00000000000E+00 -0.45593999997E+02  0.45594000000E+02  0.51100000000E-03 0.  1.
         23    2    1    2    0    0 -0.17763568394E-14  0.00000000000E+00  0.00000000000E+00  0.91188000000E+02  0.91188000000E+02 0.  0.
    9900012    2    3    3    0    0  0.63707224853E+01 -0.19597830941E+02 -0.35049973209E+02  0.50528908710E+02  0.30000148513E+02 0.  0.
         12    1    3    3    0    0 -0.63707224853E+01  0.19597830941E+02  0.35049973209E+02  0.40659091290E+02  0.00000000000E+00 0. -1.
         11    1    4    4    0    0  0.34975001732E+01 -0.29806866448E+01 -0.17523838826E+01  0.49181144627E+01  0.51100000000E-03 0.  1.
        -11    1    4    4    0    0  0.14565979305E+02 -0.10071902861E+02 -0.17525946242E+02  0.24915251801E+02  0.51100000000E-03 0. -1.
         12    1    4    4    0    0 -0.11692756993E+02 -0.65452414350E+01 -0.15771643085E+02  0.20695542446E+02  0.00000000000E+00 0. -1.
</event>
<event>
 8    1  0.1615837E-013  0.9118800E+02  0.7816164E-02  0.1184000E+00
        -11   -1    0    0    0    0  0.00000000000E+00  0.00000000000E+00  0.45593999997E+02  0.45594000000E+02  0.51100000000E-03 0. -1.
         11   -1    0    0    0    0 -0.00000000000E+00 -0.00000000000E+00 -0.45593999997E+02  0.45594000000E+02  0.51100000000E-03 0.  1.
         23    2    1    2    0    0  0.00000000000E+00  0.00000000000E+00  0.00000000000E+00  0.91188000000E+02  0.91188000000E+02 0.  0.
    9900012    2    3    3    0    0 -0.17549515451E+02  0.29288266246E+02  0.22076670439E+02  0.50528838549E+02  0.29999935253E+02 0.  0.
        -12    1    3    3    0    0  0.17549515451E+02 -0.29288266246E+02 -0.22076670439E+02  0.40659161451E+02  0.00000000000E+00 0.  1.
         11    1    4    4    0    0 -0.11926091793E+02  0.11344911631E+02 -0.27064660856E+01  0.16681236294E+02  0.51100000000E-03 0.  1.
        -11    1    4    4    0    0  0.32780925355E+01  0.28999640782E+01  0.12858139859E+01  0.45616883051E+01  0.51100000000E-03 0. -1.
         12    1    4    4    0    0 -0.89015161934E+01  0.15043390537E+02  0.23497322539E+02  0.29285913950E+02  0.00000000000E+00 0. -1.
</event>
<event>
 8    1  0.1615837E-013  0.9118800E+02  0.7816164E-02  0.1184000E+00
        -11   -1    0    0    0    0  0.00000000000E+00  0.00000000000E+00  0.45593999997E+02  0.45594000000E+02  0.51100000000E-03 0.  1.
         11   -1    0    0    0    0 -0.00000000000E+00 -0.00000000000E+00 -0.45593999997E+02  0.45594000000E+02  0.51100000000E-03 0. -1.
         23    2    1    2    0    0  0.00000000000E+00 -0.71054273576E-14  0.00000000000E+00  0.91188000000E+02  0.91188000000E+02 0.  0.
    9900012    2    3    3    0    0  0.14414079965E+02 -0.33117819044E+02  0.18671082320E+02  0.50528868744E+02  0.30000027036E+02 0.  0.
        -12    1    3    3    0    0 -0.14414079965E+02  0.33117819044E+02 -0.18671082320E+02  0.40659131256E+02  0.00000000000E+00 0.  1.
         11    1    4    4    0    0 -0.61299466744E+01 -0.91637317831E+01  0.79458998691E+01  0.13589979817E+02  0.51100000000E-03 0. -1.
        -11    1    4    4    0    0  0.73057060045E+01 -0.17115922573E+02  0.51108182552E-01  0.18609963946E+02  0.51100000000E-03 0.  1.
        -12    1    4    4    0    0  0.13238320634E+02 -0.68381646877E+01  0.10674074268E+02  0.18328924982E+02  0.00000000000E+00 0.  1.
</event>
<event>
 8    1  0.1615837E-013  0.9118800E+02  0.7816164E-02  0.1184000E+00
        -11   -1    0    0    0    0  0.00000000000E+00  0.00000000000E+00  0.45593999997E+02  0.45594000000E+02  0.51100000000E-03 0. -1.
         11   -1    0    0    0    0 -0.00000000000E+00 -0.00000000000E+00 -0.45593999997E+02  0.45594000000E+02  0.51100000000E-03 0.  1.
         23    2    1    2    0    0  0.00000000000E+00  0.88817841970E-15  0.00000000000E+00  0.91188000000E+02  0.91188000000E+02 0.  0.
    9900012    2    3    3    0    0 -0.25712902358E+02  0.69132410628E+01  0.30728114652E+02  0.50528889339E+02  0.30000089635E+02 0.  0.
        -12    1    3    3    0    0  0.25712902358E+02 -0.69132410628E+01 -0.30728114652E+02  0.40659110661E+02  0.00000000000E+00 0.  1.
         11    1    4    4    0    0 -0.11555868338E+02 -0.60630397717E+01  0.73310253951E+00  0.13070424014E+02  0.51100000000E-03 0. -1.
        -11    1    4    4    0    0  0.50581051294E+00  0.61596307754E+01  0.98226172552E+01  0.11605201660E+02  0.51100000000E-03 0.  1.
         12    1    4    4    0    0 -0.14662844533E+02  0.68166500591E+01  0.20172394857E+02  0.25853263665E+02  0.00000000000E+00 0. -1.
</event>
<event>
 8    1  0.1615837E-013  0.9118800E+02  0.7816164E-02  0.1184000E+00
        -11   -1    0    0    0    0  0.00000000000E+00  0.00000000000E+00  0.45593999997E+02  0.45594000000E+02  0.51100000000E-03 0.  1.
         11   -1    0    0    0    0 -0.00000000000E+00 -0.00000000000E+00 -0.45593999997E+02  0.45594000000E+02  0.51100000000E-03 0. -1.
         23    2    1    2    0    0  0.00000000000E+00  0.71054273576E-14  0.17763568394E-14  0.91188000000E+02  0.91188000000E+02 0.  0.
    9900012    2    3    3    0    0  0.21980061866E+02 -0.33882696541E+02  0.46909725515E+01  0.50528862429E+02  0.30000007838E+02 0.  0.
         12    1    3    3    0    0 -0.21980061866E+02  0.33882696541E+02 -0.46909725515E+01  0.40659137571E+02  0.00000000000E+00 0. -1.
         11    1    4    4    0    0  0.25880306022E+00 -0.44125669411E+01  0.11039099630E+02  0.11891149942E+02  0.51100000000E-03 0.  1.
        -11    1    4    4    0    0 -0.37931005855E+00  0.47720431220E+00 -0.80209878232E+00  0.10074536187E+01  0.51100000000E-03 0. -1.
        -12    1    4    4    0    0  0.22100568865E+02 -0.29947333913E+02 -0.55460282965E+01  0.37630258868E+02  0.00000000000E+00 0.  1.
</event>
<event>
 8    1  0.1615837E-013  0.9118800E+02  0.7816164E-02  0.1184000E+00
        -11   -1    0    0    0    0  0.00000000000E+00  0.00000000000E+00  0.45593999997E+02  0.45594000000E+02  0.51100000000E-03 0. -1.
         11   -1    0    0    0    0 -0.00000000000E+00 -0.00000000000E+00 -0.45593999997E+02  0.45594000000E+02  0.51100000000E-03 0.  1.
         23    2    1    2    0    0  0.00000000000E+00  0.00000000000E+00 -0.35527136788E-14  0.91188000000E+02  0.91188000000E+02 0.  0.
    9900012    2    3    3    0    0  0.23141895756E+02  0.17206399186E+02 -0.28662822698E+02  0.50528869203E+02  0.30000028431E+02 0.  0.
         12    1    3    3    0    0 -0.23141895756E+02 -0.17206399186E+02  0.28662822698E+02  0.40659130797E+02  0.00000000000E+00 0. -1.
         11    1    4    4    0    0  0.32549750557E+01 -0.13542368259E+01 -0.67794373832E+01  0.76413082314E+01  0.51100000000E-03 0. -1.
        -11    1    4    4    0    0  0.11808372594E+02  0.14624768805E+02 -0.26730117892E+02  0.32677526355E+02  0.51100000000E-03 0.  1.
         12    1    4    4    0    0  0.80785481073E+01  0.39358672071E+01  0.48467325779E+01  0.10210034617E+02  0.00000000000E+00 0. -1.
</event>
<event>
 8    1  0.1799702E-013  0.9118800E+02  0.7816164E-02  0.1184000E+00
        -11   -1    0    0    0    0  0.00000000000E+00  0.00000000000E+00  0.45593999997E+02  0.45594000000E+02  0.51100000000E-03 0. -1.
         11   -1    0    0    0    0 -0.00000000000E+00 -0.00000000000E+00 -0.45593999997E+02  0.45594000000E+02  0.51100000000E-03 0.  1.
         23    2    1    2    0    0  0.35527136788E-14 -0.17763568394E-14  0.00000000000E+00  0.91188000000E+02  0.91188000000E+02 0.  0.
    9900012    2    3    3    0    0 -0.19622747124E+02  0.13021331181E+02  0.33144513186E+02  0.50528855582E+02  0.29999987028E+02 0.  0.
        -12    1    3    3    0    0  0.19622747124E+02 -0.13021331181E+02 -0.33144513186E+02  0.40659144418E+02  0.00000000000E+00 0.  1.
         11    1    4    4    0    0 -0.16112961554E+02  0.84742246969E+01  0.29523368028E+02  0.34685289017E+02  0.51100000000E-03 0. -1.
        -11    1    4    4    0    0 -0.74716546704E+01  0.23011386149E+00  0.59340346517E+01  0.95441785090E+01  0.51100000000E-03 0.  1.
        -12    1    4    4    0    0  0.39618691004E+01  0.43169926226E+01 -0.23128894932E+01  0.62993880560E+01  0.00000000000E+00 0.  1.
</event>
<event>
 8    1  0.1615837E-013  0.9118800E+02  0.7816164E-02  0.1184000E+00
        -11   -1    0    0    0    0  0.00000000000E+00  0.00000000000E+00  0.45593999997E+02  0.45594000000E+02  0.51100000000E-03 0. -1.
         11   -1    0    0    0    0 -0.00000000000E+00 -0.00000000000E+00 -0.45593999997E+02  0.45594000000E+02  0.51100000000E-03 0.  1.
         23    2    1    2    0    0  0.00000000000E+00  0.00000000000E+00  0.00000000000E+00  0.91188000000E+02  0.91188000000E+02 0.  0.
    9900012    2    3    3    0    0  0.19277652356E+02 -0.27771572263E+02  0.22589248195E+02  0.50528902121E+02  0.30000128486E+02 0.  0.
        -12    1    3    3    0    0 -0.19277652356E+02  0.27771572263E+02 -0.22589248195E+02  0.40659097879E+02  0.00000000000E+00 0.  1.
         11    1    4    4    0    0 -0.42011536300E+01 -0.21399289762E+01  0.53664669783E+01  0.71433854674E+01  0.51100000000E-03 0. -1.
        -11    1    4    4    0    0 -0.29448544812E+01 -0.65674985394E+01  0.23775374059E+01  0.75800322795E+01  0.51100000000E-03 0.  1.
         12    1    4    4    0    0  0.26423660468E+02 -0.19064144747E+02  0.14845243811E+02  0.35805484374E+02  0.00000000000E+00 0. -1.
</event>
<event>
 8    1  0.1615837E-013  0.9118800E+02  0.7816164E-02  0.1184000E+00
        -11   -1    0    0    0    0  0.00000000000E+00  0.00000000000E+00  0.45593999997E+02  0.45594000000E+02  0.51100000000E-03 0. -1.
         11   -1    0    0    0    0 -0.00000000000E+00 -0.00000000000E+00 -0.45593999997E+02  0.45594000000E+02  0.51100000000E-03 0.  1.
         23    2    1    2    0    0  0.00000000000E+00  0.44408920985E-15  0.00000000000E+00  0.91188000000E+02  0.91188000000E+02 0.  0.
    9900012    2    3    3    0    0 -0.12784259859E+02 -0.39813246774E+01 -0.38391102155E+02  0.50528868541E+02  0.30000026416E+02 0.  0.
         12    1    3    3    0    0  0.12784259859E+02  0.39813246774E+01  0.38391102155E+02  0.40659131459E+02  0.00000000000E+00 0. -1.
         11    1    4    4    0    0  0.25211187207E+00 -0.69403408519E+01 -0.25100139748E+01  0.73845827202E+01  0.51100000000E-03 0. -1.
        -11    1    4    4    0    0 -0.75574128781E+01  0.62163700430E+01 -0.38999151769E+01  0.10534091540E+02  0.51100000000E-03 0.  1.
        -12    1    4    4    0    0 -0.54789588529E+01 -0.32573538685E+01 -0.31981173004E+02  0.32610194281E+02  0.00000000000E+00 0.  1.
</event>
<event>
 8    1  0.1615837E-013  0.9118800E+02  0.7816164E-02  0.1184000E+00
        -11   -1    0    0    0    0  0.00000000000E+00  0.00000000000E+00  0.45593999997E+02  0.45594000000E+02  0.51100000000E-03 0. -1.
         11   -1    0    0    0    0 -0.00000000000E+00 -0.00000000000E+00 -0.45593999997E+02  0.45594000000E+02  0.51100000000E-03 0.  1.
         23    2    1    2    0    0  0.00000000000E+00  0.00000000000E+00  0.00000000000E+00  0.91188000000E+02  0.91188000000E+02 0.  0.
    9900012    2    3    3    0    0  0.34347211644E+02  0.24613307569E+01 -0.21618892117E+02  0.50528860890E+02  0.30000003161E+02 0.  0.
         12    1    3    3    0    0 -0.34347211644E+02 -0.24613307569E+01  0.21618892117E+02  0.40659139110E+02  0.00000000000E+00 0. -1.
         11    1    4    4    0    0  0.22010588089E+02  0.45133987430E+01 -0.24063750238E+02  0.32922649225E+02  0.51100000000E-03 0.  1.
        -11    1    4    4    0    0  0.30022625649E+01  0.33782289574E+01 -0.30866301415E+01  0.54729605598E+01  0.51100000000E-03 0. -1.
        -12    1    4    4    0    0  0.93343609899E+01 -0.54302969435E+01  0.55314882623E+01  0.12133251105E+02  0.00000000000E+00 0.  1.
</event>
<event>
 8    1  0.1615837E-013  0.9118800E+02  0.7816164E-02  0.1184000E+00
        -11   -1    0    0    0    0  0.00000000000E+00  0.00000000000E+00  0.45593999997E+02  0.45594000000E+02  0.51100000000E-03 0. -1.
         11   -1    0    0    0    0 -0.00000000000E+00 -0.00000000000E+00 -0.45593999997E+02  0.45594000000E+02  0.51100000000E-03 0.  1.
         23    2    1    2    0    0 -0.35527136788E-14  0.35527136788E-14  0.00000000000E+00  0.91188000000E+02  0.91188000000E+02 0.  0.
    9900012    2    3    3    0    0 -0.29470365313E+02 -0.24341218881E+02  0.13862320848E+02  0.50528913591E+02  0.30000163352E+02 0.  0.
        -12    1    3    3    0    0  0.29470365313E+02  0.24341218881E+02 -0.13862320848E+02  0.40659086409E+02  0.00000000000E+00 0.  1.
         11    1    4    4    0    0 -0.76602343591E+01 -0.12705354935E+02  0.16802307466E+02  0.22414789111E+02  0.51100000000E-03 0. -1.
        -11    1    4    4    0    0 -0.11088117835E+01 -0.56049448634E+01  0.18896164054E+01  0.60179332760E+01  0.51100000000E-03 0.  1.
         12    1    4    4    0    0 -0.20701319170E+02 -0.60309190823E+01 -0.48296030233E+01  0.22096191204E+02  0.00000000000E+00 0. -1.
</event>
<event>
 8    1  0.1615837E-013  0.9118800E+02  0.7816164E-02  0.1184000E+00
        -11   -1    0    0    0    0  0.00000000000E+00  0.00000000000E+00  0.45593999997E+02  0.45594000000E+02  0.51100000000E-03 0. -1.
         11   -1    0    0    0    0 -0.00000000000E+00 -0.00000000000E+00 -0.45593999997E+02  0.45594000000E+02  0.51100000000E-03 0.  1.
         23    2    1    2    0    0 -0.88817841970E-15 -0.17763568394E-14 -0.71054273576E-14  0.91188000000E+02  0.91188000000E+02 0.  0.
    9900012    2    3    3    0    0  0.48436710604E+01 -0.11408895749E+02 -0.38723916253E+02  0.50528859066E+02  0.29999997616E+02 0.  0.
         12    1    3    3    0    0 -0.48436710604E+01  0.11408895749E+02  0.38723916253E+02  0.40659140934E+02  0.00000000000E+00 0. -1.
         11    1    4    4    0    0 -0.73572752591E+01 -0.28605835522E+01 -0.60884241458E+01  0.99690193268E+01  0.51100000000E-03 0. -1.
        -11    1    4    4    0    0 -0.37069723021E+01 -0.59330726516E+01 -0.15645816187E+02  0.17138686039E+02  0.51100000000E-03 0.  1.
         12    1    4    4    0    0  0.15907918622E+02 -0.26152395455E+01 -0.16989675920E+02  0.23421153700E+02  0.00000000000E+00 0. -1.
</event>
<event>
 8    1  0.1615837E-013  0.9118800E+02  0.7816164E-02  0.1184000E+00
        -11   -1    0    0    0    0  0.00000000000E+00  0.00000000000E+00  0.45593999997E+02  0.45594000000E+02  0.51100000000E-03 0. -1.
         11   -1    0    0    0    0 -0.00000000000E+00 -0.00000000000E+00 -0.45593999997E+02  0.45594000000E+02  0.51100000000E-03 0.  1.
         23    2    1    2    0    0  0.00000000000E+00  0.22204460493E-15  0.00000000000E+00  0.91188000000E+02  0.91188000000E+02 0.  0.
    9900012    2    3    3    0    0  0.19908225664E+02 -0.17335480205E+01  0.35409363105E+02  0.50528860396E+02  0.30000001661E+02 0.  0.
        -12    1    3    3    0    0 -0.19908225664E+02  0.17335480205E+01 -0.35409363105E+02  0.40659139604E+02  0.00000000000E+00 0.  1.
         11    1    4    4    0    0  0.34380555292E+01 -0.55801112659E+01  0.84050985792E+01  0.10658496608E+02  0.51100000000E-03 0. -1.
        -11    1    4    4    0    0 -0.70066499071E+00 -0.76534736915E+01  0.31417328985E+01  0.83028354700E+01  0.51100000000E-03 0.  1.
         12    1    4    4    0    0  0.17170835126E+02  0.11500036937E+02  0.23862531627E+02  0.31567528318E+02  0.00000000000E+00 0. -1.
</event>
<event>
 8    1  0.1615837E-013  0.9118800E+02  0.7816164E-02  0.1184000E+00
        -11   -1    0    0    0    0  0.00000000000E+00  0.00000000000E+00  0.45593999997E+02  0.45594000000E+02  0.51100000000E-03 0.  1.
         11   -1    0    0    0    0 -0.00000000000E+00 -0.00000000000E+00 -0.45593999997E+02  0.45594000000E+02  0.51100000000E-03 0. -1.
         23    2    1    2    0    0  0.00000000000E+00  0.88817841970E-15  0.17763568394E-14  0.91188000000E+02  0.91188000000E+02 0.  0.
    9900012    2    3    3    0    0  0.38474916640E+02 -0.24995973499E+01 -0.12907323383E+02  0.50528853498E+02  0.29999980692E+02 0.  0.
         12    1    3    3    0    0 -0.38474916640E+02  0.24995973499E+01  0.12907323383E+02  0.40659146502E+02  0.00000000000E+00 0. -1.
         11    1    4    4    0    0  0.71222480356E+01 -0.21394612134E+01 -0.59611452614E+01  0.95309477206E+01  0.51100000000E-03 0.  1.
        -11    1    4    4    0    0  0.33301283854E+02 -0.59687888251E+01 -0.84533908522E+01  0.34872077132E+02  0.51100000000E-03 0. -1.
         12    1    4    4    0    0 -0.19486152491E+01  0.56086526886E+01  0.15072127311E+01  0.61258286449E+01  0.00000000000E+00 0. -1.
</event>
<event>
 8    1  0.1615837E-013  0.9118800E+02  0.7816164E-02  0.1184000E+00
        -11   -1    0    0    0    0  0.00000000000E+00  0.00000000000E+00  0.45593999997E+02  0.45594000000E+02  0.51100000000E-03 0. -1.
         11   -1    0    0    0    0 -0.00000000000E+00 -0.00000000000E+00 -0.45593999997E+02  0.45594000000E+02  0.51100000000E-03 0.  1.
         23    2    1    2    0    0 -0.17763568394E-14  0.00000000000E+00  0.00000000000E+00  0.91188000000E+02  0.91188000000E+02 0.  0.
    9900012    2    3    3    0    0 -0.10622785119E+02  0.34453714233E+02 -0.18795328889E+02  0.50528851261E+02  0.29999973892E+02 0.  0.
         12    1    3    3    0    0  0.10622785119E+02 -0.34453714233E+02  0.18795328889E+02  0.40659148739E+02  0.00000000000E+00 0. -1.
         11    1    4    4    0    0  0.52113057687E+01  0.62449395708E+01 -0.59659791425E+01  0.10087114823E+02  0.51100000000E-03 0. -1.
        -11    1    4    4    0    0 -0.29923934697E+01  0.78395488310E+01 -0.14013011406E+02  0.16333322793E+02  0.51100000000E-03 0.  1.
        -12    1    4    4    0    0 -0.12841697418E+02  0.20369225831E+02  0.11836616590E+01  0.24108413645E+02  0.00000000000E+00 0.  1.
</event>
<event>
 8    1  0.1615837E-013  0.9118800E+02  0.7816164E-02  0.1184000E+00
        -11   -1    0    0    0    0  0.00000000000E+00  0.00000000000E+00  0.45593999997E+02  0.45594000000E+02  0.51100000000E-03 0. -1.
         11   -1    0    0    0    0 -0.00000000000E+00 -0.00000000000E+00 -0.45593999997E+02  0.45594000000E+02  0.51100000000E-03 0.  1.
         23    2    1    2    0    0  0.35527136788E-14  0.17763568394E-14  0.00000000000E+00  0.91188000000E+02  0.91188000000E+02 0.  0.
    9900012    2    3    3    0    0 -0.19799893917E+02 -0.81979315928E+01 -0.34553205690E+02  0.50528857056E+02  0.29999991507E+02 0.  0.
         12    1    3    3    0    0  0.19799893917E+02  0.81979315928E+01  0.34553205690E+02  0.40659142944E+02  0.00000000000E+00 0. -1.
         11    1    4    4    0    0 -0.11913016868E+02  0.50258284205E+00 -0.27822554293E+01  0.12243917100E+02  0.51100000000E-03 0. -1.
        -11    1    4    4    0    0 -0.40969602326E+01 -0.25906298789E+01 -0.30622689679E+02  0.31003960549E+02  0.51100000000E-03 0.  1.
         12    1    4    4    0    0 -0.37899168162E+01 -0.61098845560E+01 -0.11482605819E+01  0.72809794070E+01  0.00000000000E+00 0. -1.
</event>
<event>
 8    1  0.1615837E-013  0.9118800E+02  0.7816164E-02  0.1184000E+00
        -11   -1    0    0    0    0  0.00000000000E+00  0.00000000000E+00  0.45593999997E+02  0.45594000000E+02  0.51100000000E-03 0. -1.
         11   -1    0    0    0    0 -0.00000000000E+00 -0.00000000000E+00 -0.45593999997E+02  0.45594000000E+02  0.51100000000E-03 0.  1.
         23    2    1    2    0    0 -0.88817841970E-15  0.00000000000E+00  0.00000000000E+00  0.91188000000E+02  0.91188000000E+02 0.  0.
    9900012    2    3    3    0    0  0.64775192395E+01  0.15340894125E+02  0.37092645342E+02  0.50528860480E+02  0.30000001915E+02 0.  0.
        -12    1    3    3    0    0 -0.64775192395E+01 -0.15340894125E+02 -0.37092645342E+02  0.40659139520E+02  0.00000000000E+00 0.  1.
         11    1    4    4    0    0  0.32917366249E+01 -0.43067603428E+01  0.43687664610E+01  0.69620281032E+01  0.51100000000E-03 0. -1.
        -11    1    4    4    0    0 -0.33829322311E+01  0.20091482468E+01  0.21058849040E+02  0.21423259097E+02  0.51100000000E-03 0.  1.
         12    1    4    4    0    0  0.65687148457E+01  0.17638506221E+02  0.11665029840E+02  0.22143573280E+02  0.00000000000E+00 0. -1.
</event>
<event>
 8    1  0.1615837E-013  0.9118800E+02  0.7816164E-02  0.1184000E+00
        -11   -1    0    0    0    0  0.00000000000E+00  0.00000000000E+00  0.45593999997E+02  0.45594000000E+02  0.51100000000E-03 0. -1.
         11   -1    0    0    0    0 -0.00000000000E+00 -0.00000000000E+00 -0.45593999997E+02  0.45594000000E+02  0.51100000000E-03 0.  1.
         23    2    1    2    0    0  0.35527136788E-14  0.71054273576E-14  0.00000000000E+00  0.91188000000E+02  0.91188000000E+02 0.  0.
    9900012    2    3    3    0    0  0.13258276778E+02  0.31915070460E+02 -0.21419891675E+02  0.50528863450E+02  0.30000010944E+02 0.  0.
         12    1    3    3    0    0 -0.13258276778E+02 -0.31915070460E+02  0.21419891675E+02  0.40659136550E+02  0.00000000000E+00 0. -1.
         11    1    4    4    0    0  0.12359967812E+02  0.18363309748E+02 -0.46563859932E+01  0.22619944297E+02  0.51100000000E-03 0. -1.
        -11    1    4    4    0    0  0.53127748979E+01  0.14492981715E+02 -0.65993266472E+01  0.16787590910E+02  0.51100000000E-03 0.  1.
         12    1    4    4    0    0 -0.44144659321E+01 -0.94122100337E+00 -0.10164179035E+02  0.11121328243E+02  0.00000000000E+00 0. -1.
</event>
<event>
 8    1  0.1615837E-013  0.9118800E+02  0.7816164E-02  0.1184000E+00
        -11   -1    0    0    0    0  0.00000000000E+00  0.00000000000E+00  0.45593999997E+02  0.45594000000E+02  0.51100000000E-03 0. -1.
         11   -1    0    0    0    0 -0.00000000000E+00 -0.00000000000E+00 -0.45593999997E+02  0.45594000000E+02  0.51100000000E-03 0.  1.
         23    2    1    2    0    0  0.00000000000E+00 -0.17763568394E-14  0.00000000000E+00  0.91188000000E+02  0.91188000000E+02 0.  0.
    9900012    2    3    3    0    0 -0.38544690015E+02 -0.78027218784E+01 -0.10324380483E+02  0.50528826011E+02  0.29999897143E+02 0.  0.
         12    1    3    3    0    0  0.38544690015E+02  0.78027218784E+01  0.10324380483E+02  0.40659173989E+02  0.00000000000E+00 0. -1.
         11    1    4    4    0    0  0.25008457577E+01 -0.54902677203E+01 -0.26574519791E+01  0.65923683473E+01  0.51100000000E-03 0. -1.
        -11    1    4    4    0    0 -0.15118753565E+02 -0.67243823809E+01 -0.16176338941E-01  0.16546730483E+02  0.51100000000E-03 0.  1.
        -12    1    4    4    0    0 -0.25926782208E+02  0.44119282228E+01 -0.76507521649E+01  0.27389727180E+02  0.00000000000E+00 0.  1.
</event>
<event>
 8    1  0.1615837E-013  0.9118800E+02  0.7816164E-02  0.1184000E+00
        -11   -1    0    0    0    0  0.00000000000E+00  0.00000000000E+00  0.45593999997E+02  0.45594000000E+02  0.51100000000E-03 0. -1.
         11   -1    0    0    0    0 -0.00000000000E+00 -0.00000000000E+00 -0.45593999997E+02  0.45594000000E+02  0.51100000000E-03 0.  1.
         23    2    1    2    0    0  0.00000000000E+00  0.00000000000E+00  0.00000000000E+00  0.91188000000E+02  0.91188000000E+02 0.  0.
    9900012    2    3    3    0    0 -0.11093997375E+02 -0.21169008638E+02 -0.32893192870E+02  0.50528857834E+02  0.29999993871E+02 0.  0.
         12    1    3    3    0    0  0.11093997375E+02  0.21169008638E+02  0.32893192870E+02  0.40659142166E+02  0.00000000000E+00 0. -1.
         11    1    4    4    0    0  0.53880500140E+01 -0.14302210278E+02 -0.94101520830E+01  0.17948127041E+02  0.51100000000E-03 0. -1.
        -11    1    4    4    0    0  0.88637598068E+00  0.13903978869E+01  0.60590837512E+00  0.17566997134E+01  0.51100000000E-03 0.  1.
        -12    1    4    4    0    0 -0.17368423370E+02 -0.82571962469E+01 -0.24088949163E+02  0.30824031079E+02  0.00000000000E+00 0.  1.
</event>
<event>
 8    1  0.1615837E-013  0.9118800E+02  0.7816164E-02  0.1184000E+00
        -11   -1    0    0    0    0  0.00000000000E+00  0.00000000000E+00  0.45593999997E+02  0.45594000000E+02  0.51100000000E-03 0. -1.
         11   -1    0    0    0    0 -0.00000000000E+00 -0.00000000000E+00 -0.45593999997E+02  0.45594000000E+02  0.51100000000E-03 0.  1.
         23    2    1    2    0    0  0.00000000000E+00  0.00000000000E+00  0.71054273576E-14  0.91188000000E+02  0.91188000000E+02 0.  0.
    9900012    2    3    3    0    0 -0.10987109474E+02  0.15001897459E+02  0.36157859381E+02  0.50528876830E+02  0.30000051611E+02 0.  0.
        -12    1    3    3    0    0  0.10987109474E+02 -0.15001897459E+02 -0.36157859381E+02  0.40659123170E+02  0.00000000000E+00 0.  1.
         11    1    4    4    0    0 -0.42800132729E+01  0.12357575660E+01  0.31749859828E+02  0.32060867264E+02  0.51100000000E-03 0. -1.
        -11    1    4    4    0    0  0.17028205761E+01  0.51577437064E+01  0.33624067922E+01  0.63880903056E+01  0.51100000000E-03 0.  1.
        -12    1    4    4    0    0 -0.84099167776E+01  0.86083961863E+01  0.10455927612E+01  0.12079919260E+02  0.00000000000E+00 0.  1.
</event>
<event>
 8    1  0.1615837E-013  0.9118800E+02  0.7816164E-02  0.1184000E+00
        -11   -1    0    0    0    0  0.00000000000E+00  0.00000000000E+00  0.45593999997E+02  0.45594000000E+02  0.51100000000E-03 0. -1.
         11   -1    0    0    0    0 -0.00000000000E+00 -0.00000000000E+00 -0.45593999997E+02  0.45594000000E+02  0.51100000000E-03 0.  1.
         23    2    1    2    0    0 -0.35527136788E-14  0.00000000000E+00  0.00000000000E+00  0.91188000000E+02  0.91188000000E+02 0.  0.
    9900012    2    3    3    0    0 -0.19449013278E+02  0.30297219390E+02  0.18893914485E+02  0.50528860501E+02  0.30000001978E+02 0.  0.
        -12    1    3    3    0    0  0.19449013278E+02 -0.30297219390E+02 -0.18893914485E+02  0.40659139499E+02  0.00000000000E+00 0.  1.
         11    1    4    4    0    0 -0.91817861341E+01  0.25855245282E+02  0.20422693615E+02  0.34203586362E+02  0.51100000000E-03 0. -1.
        -11    1    4    4    0    0 -0.63579037710E+00  0.50814001717E+01  0.26974183103E+01  0.57879981782E+01  0.51100000000E-03 0.  1.
        -12    1    4    4    0    0 -0.96314367665E+01 -0.63942606435E+00 -0.42261974401E+01  0.10537275961E+02  0.00000000000E+00 0.  1.
</event>
<event>
 8    1  0.1615837E-013  0.9118800E+02  0.7816164E-02  0.1184000E+00
        -11   -1    0    0    0    0  0.00000000000E+00  0.00000000000E+00  0.45593999997E+02  0.45594000000E+02  0.51100000000E-03 0. -1.
         11   -1    0    0    0    0 -0.00000000000E+00 -0.00000000000E+00 -0.45593999997E+02  0.45594000000E+02  0.51100000000E-03 0.  1.
         23    2    1    2    0    0  0.00000000000E+00  0.00000000000E+00 -0.71054273576E-14  0.91188000000E+02  0.91188000000E+02 0.  0.
    9900012    2    3    3    0    0 -0.10013739164E+02  0.13235903189E+02  0.37117401936E+02  0.50528860415E+02  0.30000001718E+02 0.  0.
        -12    1    3    3    0    0  0.10013739164E+02 -0.13235903189E+02 -0.37117401936E+02  0.40659139585E+02  0.00000000000E+00 0.  1.
         11    1    4    4    0    0 -0.45079322124E+01 -0.21382079091E+01  0.10765989422E+02  0.11865913972E+02  0.51100000000E-03 0. -1.
        -11    1    4    4    0    0 -0.12640622708E+02  0.17362623969E+01  0.13875650737E+02  0.18850295308E+02  0.51100000000E-03 0.  1.
         12    1    4    4    0    0  0.71348157563E+01  0.13637848702E+02  0.12475761778E+02  0.19812651136E+02  0.00000000000E+00 0. -1.
</event>
<event>
 8    1  0.1615837E-013  0.9118800E+02  0.7816164E-02  0.1184000E+00
        -11   -1    0    0    0    0  0.00000000000E+00  0.00000000000E+00  0.45593999997E+02  0.45594000000E+02  0.51100000000E-03 0. -1.
         11   -1    0    0    0    0 -0.00000000000E+00 -0.00000000000E+00 -0.45593999997E+02  0.45594000000E+02  0.51100000000E-03 0.  1.
         23    2    1    2    0    0  0.17763568394E-14  0.35527136788E-14  0.35527136788E-14  0.91188000000E+02  0.91188000000E+02 0.  0.
    9900012    2    3    3    0    0 -0.90136912255E+01 -0.27154104971E+02 -0.28888993451E+02  0.50528856024E+02  0.29999988370E+02 0.  0.
         12    1    3    3    0    0  0.90136912255E+01  0.27154104971E+02  0.28888993451E+02  0.40659143976E+02  0.00000000000E+00 0. -1.
         11    1    4    4    0    0 -0.11355281136E+01 -0.11139388270E+02  0.20005352046E+01  0.11374424667E+02  0.51100000000E-03 0. -1.
        -11    1    4    4    0    0 -0.10096804056E+02 -0.31436862797E+01 -0.17519829785E+02  0.20463935387E+02  0.51100000000E-03 0.  1.
        -12    1    4    4    0    0  0.22186409440E+01 -0.12871030421E+02 -0.13369698870E+02  0.18690495970E+02  0.00000000000E+00 0.  1.
</event>
<event>
 8    1  0.1615837E-013  0.9118800E+02  0.7816164E-02  0.1184000E+00
        -11   -1    0    0    0    0  0.00000000000E+00  0.00000000000E+00  0.45593999997E+02  0.45594000000E+02  0.51100000000E-03 0. -1.
         11   -1    0    0    0    0 -0.00000000000E+00 -0.00000000000E+00 -0.45593999997E+02  0.45594000000E+02  0.51100000000E-03 0.  1.
         23    2    1    2    0    0  0.00000000000E+00  0.35527136788E-14 -0.35527136788E-14  0.91188000000E+02  0.91188000000E+02 0.  0.
    9900012    2    3    3    0    0 -0.18534652530E+02  0.19503905457E+02  0.30483273577E+02  0.50528860308E+02  0.30000001394E+02 0.  0.
        -12    1    3    3    0    0  0.18534652530E+02 -0.19503905457E+02 -0.30483273577E+02  0.40659139692E+02  0.00000000000E+00 0.  1.
         11    1    4    4    0    0 -0.36395348088E+01 -0.40482848381E+01  0.39689007203E+01  0.67369872304E+01  0.51100000000E-03 0. -1.
        -11    1    4    4    0    0  0.35760090312E+01  0.10761167001E+01 -0.87463136990E+00  0.38354723357E+01  0.51100000000E-03 0.  1.
        -12    1    4    4    0    0 -0.18471126753E+02  0.22476073595E+02  0.27389004226E+02  0.39956400742E+02  0.00000000000E+00 0.  1.
</event>
<event>
 8    1  0.1615837E-013  0.9118800E+02  0.7816164E-02  0.1184000E+00
        -11   -1    0    0    0    0  0.00000000000E+00  0.00000000000E+00  0.45593999997E+02  0.45594000000E+02  0.51100000000E-03 0. -1.
         11   -1    0    0    0    0 -0.00000000000E+00 -0.00000000000E+00 -0.45593999997E+02  0.45594000000E+02  0.51100000000E-03 0.  1.
         23    2    1    2    0    0  0.00000000000E+00  0.35527136788E-14  0.00000000000E+00  0.91188000000E+02  0.91188000000E+02 0.  0.
    9900012    2    3    3    0    0  0.13359584618E+02  0.25348652001E+02  0.28846711616E+02  0.50528862891E+02  0.30000009242E+02 0.  0.
        -12    1    3    3    0    0 -0.13359584618E+02 -0.25348652001E+02 -0.28846711616E+02  0.40659137109E+02  0.00000000000E+00 0.  1.
         11    1    4    4    0    0  0.19654680962E+01  0.93440324953E+00  0.70692663649E+00  0.22882132331E+01  0.51100000000E-03 0.  1.
        -11    1    4    4    0    0  0.13930352646E+02 -0.65869139715E+00  0.11025923308E+02  0.17778064694E+02  0.51100000000E-03 0. -1.
         12    1    4    4    0    0 -0.25362361243E+01  0.25072940148E+02  0.17113861671E+02  0.30462584964E+02  0.00000000000E+00 0. -1.
</event>
<event>
 8    1  0.1615837E-013  0.9118800E+02  0.7816164E-02  0.1184000E+00
        -11   -1    0    0    0    0  0.00000000000E+00  0.00000000000E+00  0.45593999997E+02  0.45594000000E+02  0.51100000000E-03 0.  1.
         11   -1    0    0    0    0 -0.00000000000E+00 -0.00000000000E+00 -0.45593999997E+02  0.45594000000E+02  0.51100000000E-03 0. -1.
         23    2    1    2    0    0  0.00000000000E+00 -0.35527136788E-14 -0.35527136788E-14  0.91188000000E+02  0.91188000000E+02 0.  0.
    9900012    2    3    3    0    0  0.32764538621E+02 -0.17911774723E+02 -0.16087859220E+02  0.50528857374E+02  0.29999992475E+02 0.  0.
         12    1    3    3    0    0 -0.32764538621E+02  0.17911774723E+02  0.16087859220E+02  0.40659142626E+02  0.00000000000E+00 0. -1.
         11    1    4    4    0    0  0.32570473805E+01 -0.86302372219E+01 -0.20933834322E+01  0.94589432074E+01  0.51100000000E-03 0. -1.
        -11    1    4    4    0    0  0.20001889470E+02 -0.16470242893E+02 -0.56443225868E+01  0.26517972416E+02  0.51100000000E-03 0.  1.
         12    1    4    4    0    0  0.95056017704E+01  0.71887053925E+01 -0.83501532009E+01  0.14551941751E+02  0.00000000000E+00 0. -1.
</event>
<event>
 8    1  0.1615837E-013  0.9118800E+02  0.7816164E-02  0.1184000E+00
        -11   -1    0    0    0    0  0.00000000000E+00  0.00000000000E+00  0.45593999997E+02  0.45594000000E+02  0.51100000000E-03 0. -1.
         11   -1    0    0    0    0 -0.00000000000E+00 -0.00000000000E+00 -0.45593999997E+02  0.45594000000E+02  0.51100000000E-03 0.  1.
         23    2    1    2    0    0  0.35527136788E-14  0.00000000000E+00  0.00000000000E+00  0.91188000000E+02  0.91188000000E+02 0.  0.
    9900012    2    3    3    0    0 -0.14691184045E+02 -0.71127435569E+01 -0.37239004173E+02  0.50528862757E+02  0.30000008837E+02 0.  0.
         12    1    3    3    0    0  0.14691184045E+02  0.71127435569E+01  0.37239004173E+02  0.40659137243E+02  0.00000000000E+00 0. -1.
         11    1    4    4    0    0 -0.26574951974E+01 -0.17764635022E+01 -0.65938729223E+01  0.73278416792E+01  0.51100000000E-03 0. -1.
        -11    1    4    4    0    0 -0.20746775008E+02 -0.21352745701E+01 -0.23936123572E+02  0.31747851622E+02  0.51100000000E-03 0.  1.
         12    1    4    4    0    0  0.87130861606E+01 -0.32010054845E+01 -0.67090076782E+01  0.11453169456E+02  0.00000000000E+00 0. -1.
</event>
<event>
 8    1  0.1615837E-013  0.9118800E+02  0.7816164E-02  0.1184000E+00
        -11   -1    0    0    0    0  0.00000000000E+00  0.00000000000E+00  0.45593999997E+02  0.45594000000E+02  0.51100000000E-03 0. -1.
         11   -1    0    0    0    0 -0.00000000000E+00 -0.00000000000E+00 -0.45593999997E+02  0.45594000000E+02  0.51100000000E-03 0.  1.
         23    2    1    2    0    0  0.00000000000E+00  0.17763568394E-14  0.00000000000E+00  0.91188000000E+02  0.91188000000E+02 0.  0.
    9900012    2    3    3    0    0 -0.17721581926E+02  0.11427435949E+02 -0.34763843927E+02  0.50528860770E+02  0.30000002797E+02 0.  0.
         12    1    3    3    0    0  0.17721581926E+02 -0.11427435949E+02  0.34763843927E+02  0.40659139230E+02  0.00000000000E+00 0. -1.
         11    1    4    4    0    0 -0.39347589054E+01 -0.57323373785E+01 -0.10275837610E+02  0.12407048735E+02  0.51100000000E-03 0. -1.
        -11    1    4    4    0    0  0.66743859158E+00 -0.31540792269E+01 -0.70165020237E-01  0.32246881143E+01  0.51100000000E-03 0.  1.
        -12    1    4    4    0    0 -0.14454261612E+02  0.20313852555E+02 -0.24417841297E+02  0.34897123921E+02  0.00000000000E+00 0.  1.
</event>
<event>
 8    1  0.1615837E-013  0.9118800E+02  0.7816164E-02  0.1184000E+00
        -11   -1    0    0    0    0  0.00000000000E+00  0.00000000000E+00  0.45593999997E+02  0.45594000000E+02  0.51100000000E-03 0.  1.
         11   -1    0    0    0    0 -0.00000000000E+00 -0.00000000000E+00 -0.45593999997E+02  0.45594000000E+02  0.51100000000E-03 0. -1.
         23    2    1    2    0    0  0.00000000000E+00  0.00000000000E+00 -0.88817841970E-15  0.91188000000E+02  0.91188000000E+02 0.  0.
    9900012    2    3    3    0    0 -0.39052880090E+02  0.94957653067E+01 -0.61537385232E+01  0.50528862037E+02  0.30000006647E+02 0.  0.
         12    1    3    3    0    0  0.39052880090E+02 -0.94957653067E+01  0.61537385232E+01  0.40659137963E+02  0.00000000000E+00 0. -1.
         11    1    4    4    0    0 -0.12441839428E+02 -0.94988716627E+00 -0.12583632403E+02  0.17721440650E+02  0.51100000000E-03 0. -1.
        -11    1    4    4    0    0 -0.83795745601E+01 -0.25954947372E+01 -0.17514671930E+01  0.89454737342E+01  0.51100000000E-03 0.  1.
         12    1    4    4    0    0 -0.18231466102E+02  0.13041147210E+02  0.81813610730E+01  0.23861947653E+02  0.00000000000E+00 0. -1.
</event>
<event>
 8    1  0.1615837E-013  0.9118800E+02  0.7816164E-02  0.1184000E+00
        -11   -1    0    0    0    0  0.00000000000E+00  0.00000000000E+00  0.45593999997E+02  0.45594000000E+02  0.51100000000E-03 0. -1.
         11   -1    0    0    0    0 -0.00000000000E+00 -0.00000000000E+00 -0.45593999997E+02  0.45594000000E+02  0.51100000000E-03 0.  1.
         23    2    1    2    0    0  0.00000000000E+00  0.00000000000E+00  0.00000000000E+00  0.91188000000E+02  0.91188000000E+02 0.  0.
    9900012    2    3    3    0    0 -0.13804130457E+02  0.21877760741E+02 -0.31368371819E+02  0.50528865931E+02  0.30000018482E+02 0.  0.
         12    1    3    3    0    0  0.13804130457E+02 -0.21877760741E+02  0.31368371819E+02  0.40659134069E+02  0.00000000000E+00 0. -1.
         11    1    4    4    0    0 -0.14416114510E+01  0.15341457100E+02 -0.58319176364E+01  0.16475734068E+02  0.51100000000E-03 0. -1.
        -11    1    4    4    0    0 -0.66962465621E+01  0.81529507113E+01 -0.33077992954E+01  0.11056756295E+02  0.51100000000E-03 0.  1.
        -12    1    4    4    0    0 -0.56662724437E+01 -0.16166470696E+01 -0.22228654887E+02  0.22996375567E+02  0.00000000000E+00 0.  1.
</event>
<event>
 8    1  0.1615837E-013  0.9118800E+02  0.7816164E-02  0.1184000E+00
        -11   -1    0    0    0    0  0.00000000000E+00  0.00000000000E+00  0.45593999997E+02  0.45594000000E+02  0.51100000000E-03 0. -1.
         11   -1    0    0    0    0 -0.00000000000E+00 -0.00000000000E+00 -0.45593999997E+02  0.45594000000E+02  0.51100000000E-03 0.  1.
         23    2    1    2    0    0  0.17763568394E-14  0.00000000000E+00  0.00000000000E+00  0.91188000000E+02  0.91188000000E+02 0.  0.
    9900012    2    3    3    0    0  0.96300937257E+01  0.16618136327E+02  0.35836577581E+02  0.50528911804E+02  0.30000157920E+02 0.  0.
        -12    1    3    3    0    0 -0.96300937257E+01 -0.16618136327E+02 -0.35836577581E+02  0.40659088196E+02  0.00000000000E+00 0.  1.
         11    1    4    4    0    0  0.31324870070E+01  0.22579745393E-01  0.16377359571E+02  0.16674258348E+02  0.51100000000E-03 0. -1.
        -11    1    4    4    0    0  0.12405075844E+02  0.99148178518E+01  0.46148127182E+01  0.16537412627E+02  0.51100000000E-03 0.  1.
         12    1    4    4    0    0 -0.59074691251E+01  0.66807387296E+01  0.14844405292E+02  0.17317240829E+02  0.00000000000E+00 0. -1.
</event>
<event>
 8    1  0.2004500E-013  0.9118800E+02  0.7816164E-02  0.1184000E+00
        -11   -1    0    0    0    0  0.00000000000E+00  0.00000000000E+00  0.45593999997E+02  0.45594000000E+02  0.51100000000E-03 0. -1.
         11   -1    0    0    0    0 -0.00000000000E+00 -0.00000000000E+00 -0.45593999997E+02  0.45594000000E+02  0.51100000000E-03 0.  1.
         23    2    1    2    0    0  0.88817841970E-15 -0.17763568394E-14  0.00000000000E+00  0.91188000000E+02  0.91188000000E+02 0.  0.
    9900012    2    3    3    0    0  0.59752279713E+01 -0.11960379333E+02  0.38398073351E+02  0.50528855147E+02  0.29999985705E+02 0.  0.
        -12    1    3    3    0    0 -0.59752279713E+01  0.11960379333E+02 -0.38398073351E+02  0.40659144853E+02  0.00000000000E+00 0.  1.
         11    1    4    4    0    0  0.33956773446E+01 -0.52190391813E+01  0.14482970337E+02  0.15764689170E+02  0.51100000000E-03 0. -1.
        -11    1    4    4    0    0  0.13272279574E+02 -0.57219002807E+01  0.14643219617E+02  0.20574679315E+02  0.51100000000E-03 0.  1.
        -12    1    4    4    0    0 -0.10692728947E+02 -0.10194398711E+01  0.92718833976E+01  0.14189486662E+02  0.00000000000E+00 0.  1.
</event>
<event>
 8    1  0.1615837E-013  0.9118800E+02  0.7816164E-02  0.1184000E+00
        -11   -1    0    0    0    0  0.00000000000E+00  0.00000000000E+00  0.45593999997E+02  0.45594000000E+02  0.51100000000E-03 0.  1.
         11   -1    0    0    0    0 -0.00000000000E+00 -0.00000000000E+00 -0.45593999997E+02  0.45594000000E+02  0.51100000000E-03 0. -1.
         23    2    1    2    0    0  0.00000000000E+00  0.17763568394E-14 -0.26645352591E-14  0.91188000000E+02  0.91188000000E+02 0.  0.
    9900012    2    3    3    0    0 -0.39468792662E+02 -0.87380886714E+01  0.43619404147E+01  0.50528852050E+02  0.29999976291E+02 0.  0.
        -12    1    3    3    0    0  0.39468792662E+02  0.87380886714E+01 -0.43619404147E+01  0.40659147950E+02  0.00000000000E+00 0.  1.
         11    1    4    4    0    0 -0.37165827305E+02 -0.32023147347E+01  0.47241228967E+01  0.37601474390E+02  0.51100000000E-03 0. -1.
        -11    1    4    4    0    0 -0.55473063292E+01 -0.53804064715E+01  0.29653808414E+01  0.82773706637E+01  0.51100000000E-03 0.  1.
        -12    1    4    4    0    0  0.32443409718E+01 -0.15536746526E+00 -0.33275633235E+01  0.46500069959E+01  0.00000000000E+00 0.  1.
</event>
<event>
 8    1  0.1615837E-013  0.9118800E+02  0.7816164E-02  0.1184000E+00
        -11   -1    0    0    0    0  0.00000000000E+00  0.00000000000E+00  0.45593999997E+02  0.45594000000E+02  0.51100000000E-03 0. -1.
         11   -1    0    0    0    0 -0.00000000000E+00 -0.00000000000E+00 -0.45593999997E+02  0.45594000000E+02  0.51100000000E-03 0.  1.
         23    2    1    2    0    0  0.71054273576E-14  0.00000000000E+00 -0.35527136788E-14  0.91188000000E+02  0.91188000000E+02 0.  0.
    9900012    2    3    3    0    0 -0.34342361754E+02 -0.14913031510E+01  0.21715041291E+02  0.50528870469E+02  0.30000032278E+02 0.  0.
        -12    1    3    3    0    0  0.34342361754E+02  0.14913031510E+01 -0.21715041291E+02  0.40659129531E+02  0.00000000000E+00 0.  1.
         11    1    4    4    0    0 -0.18586250655E+02 -0.19944946774E+01  0.25553100468E+02  0.31660506411E+02  0.51100000000E-03 0. -1.
        -11    1    4    4    0    0 -0.26359806308E+01  0.35964288014E+01 -0.29761841951E+01  0.53610042561E+01  0.51100000000E-03 0.  1.
        -12    1    4    4    0    0 -0.13120130468E+02 -0.30932372750E+01 -0.86187498172E+00  0.13507359802E+02  0.00000000000E+00 0.  1.
</event>
<event>
 8    1  0.1615837E-013  0.9118800E+02  0.7816164E-02  0.1184000E+00
        -11   -1    0    0    0    0  0.00000000000E+00  0.00000000000E+00  0.45593999997E+02  0.45594000000E+02  0.51100000000E-03 0. -1.
         11   -1    0    0    0    0 -0.00000000000E+00 -0.00000000000E+00 -0.45593999997E+02  0.45594000000E+02  0.51100000000E-03 0.  1.
         23    2    1    2    0    0 -0.17763568394E-14  0.00000000000E+00  0.00000000000E+00  0.91188000000E+02  0.91188000000E+02 0.  0.
    9900012    2    3    3    0    0  0.97338048972E+01  0.16187188227E+02  0.36005475508E+02  0.50528852358E+02  0.29999977226E+02 0.  0.
        -12    1    3    3    0    0 -0.97338048972E+01 -0.16187188227E+02 -0.36005475508E+02  0.40659147642E+02  0.00000000000E+00 0.  1.
         11    1    4    4    0    0 -0.24124223987E+01 -0.27183197025E+00  0.16021544271E+01  0.29087065027E+01  0.51100000000E-03 0. -1.
        -11    1    4    4    0    0 -0.48861763332E+01  0.67751149426E+01  0.38398686586E+00  0.83620779606E+01  0.51100000000E-03 0.  1.
         12    1    4    4    0    0  0.17032403629E+02  0.96839052546E+01  0.34019334215E+02  0.39258067894E+02  0.00000000000E+00 0. -1.
</event>
<event>
 8    1  0.1615837E-013  0.9118800E+02  0.7816164E-02  0.1184000E+00
        -11   -1    0    0    0    0  0.00000000000E+00  0.00000000000E+00  0.45593999997E+02  0.45594000000E+02  0.51100000000E-03 0. -1.
         11   -1    0    0    0    0 -0.00000000000E+00 -0.00000000000E+00 -0.45593999997E+02  0.45594000000E+02  0.51100000000E-03 0.  1.
         23    2    1    2    0    0  0.35527136788E-14  0.88817841970E-15  0.00000000000E+00  0.91188000000E+02  0.91188000000E+02 0.  0.
    9900012    2    3    3    0    0 -0.21209177997E+02  0.29484406291E+01 -0.34563679021E+02  0.50528801276E+02  0.29999821958E+02 0.  0.
         12    1    3    3    0    0  0.21209177997E+02 -0.29484406291E+01  0.34563679021E+02  0.40659198724E+02  0.00000000000E+00 0. -1.
         11    1    4    4    0    0 -0.17094618696E+02 -0.14851271563E+01 -0.69255790629E+01  0.18503924898E+02  0.51100000000E-03 0. -1.
        -11    1    4    4    0    0 -0.92985389264E+01  0.49072589603E+01 -0.21800288310E+02  0.24203235059E+02  0.51100000000E-03 0.  1.
         12    1    4    4    0    0  0.51839796253E+01 -0.47369117495E+00 -0.58378116479E+01  0.78216413189E+01  0.00000000000E+00 0. -1.
</event>
<event>
 8    1  0.1615837E-013  0.9118800E+02  0.7816164E-02  0.1184000E+00
        -11   -1    0    0    0    0  0.00000000000E+00  0.00000000000E+00  0.45593999997E+02  0.45594000000E+02  0.51100000000E-03 0. -1.
         11   -1    0    0    0    0 -0.00000000000E+00 -0.00000000000E+00 -0.45593999997E+02  0.45594000000E+02  0.51100000000E-03 0.  1.
         23    2    1    2    0    0  0.88817841970E-15  0.00000000000E+00 -0.26645352591E-14  0.91188000000E+02  0.91188000000E+02 0.  0.
    9900012    2    3    3    0    0  0.76963668548E+01  0.39685776771E+02  0.43558647279E+01  0.50528825165E+02  0.29999894572E+02 0.  0.
        -12    1    3    3    0    0 -0.76963668548E+01 -0.39685776771E+02 -0.43558647279E+01  0.40659174835E+02  0.00000000000E+00 0.  1.
         11    1    4    4    0    0 -0.61771440474E+00  0.11797487894E+02  0.74916243555E+01  0.13988807220E+02  0.51100000000E-03 0. -1.
        -11    1    4    4    0    0  0.10158156997E+01 -0.23880546268E+00  0.59915589295E+01  0.60817504266E+01  0.51100000000E-03 0.  1.
        -12    1    4    4    0    0  0.72982655598E+01  0.28127094340E+02 -0.91273185571E+01  0.30458267519E+02  0.00000000000E+00 0.  1.
</event>
<event>
 8    1  0.1615837E-013  0.9118800E+02  0.7816164E-02  0.1184000E+00
        -11   -1    0    0    0    0  0.00000000000E+00  0.00000000000E+00  0.45593999997E+02  0.45594000000E+02  0.51100000000E-03 0. -1.
         11   -1    0    0    0    0 -0.00000000000E+00 -0.00000000000E+00 -0.45593999997E+02  0.45594000000E+02  0.51100000000E-03 0.  1.
         23    2    1    2    0    0  0.17763568394E-14  0.00000000000E+00  0.71054273576E-14  0.91188000000E+02  0.91188000000E+02 0.  0.
    9900012    2    3    3    0    0  0.72072449612E+01  0.77326926024E+01 -0.39260994636E+02  0.50528872923E+02  0.30000039737E+02 0.  0.
         12    1    3    3    0    0 -0.72072449612E+01 -0.77326926024E+01  0.39260994636E+02  0.40659127077E+02  0.00000000000E+00 0. -1.
         11    1    4    4    0    0 -0.41366472842E+01  0.19560656201E+01  0.10911653272E+01  0.47041136780E+01  0.51100000000E-03 0. -1.
        -11    1    4    4    0    0 -0.29793621418E+01  0.10805005857E+01 -0.21282241176E+02  0.21516920552E+02  0.51100000000E-03 0.  1.
         12    1    4    4    0    0  0.14323254387E+02  0.46961263966E+01 -0.19069918787E+02  0.24307838693E+02  0.00000000000E+00 0. -1.
</event>
<event>
 8    1  0.1615837E-013  0.9118800E+02  0.7816164E-02  0.1184000E+00
        -11   -1    0    0    0    0  0.00000000000E+00  0.00000000000E+00  0.45593999997E+02  0.45594000000E+02  0.51100000000E-03 0. -1.
         11   -1    0    0    0    0 -0.00000000000E+00 -0.00000000000E+00 -0.45593999997E+02  0.45594000000E+02  0.51100000000E-03 0.  1.
         23    2    1    2    0    0  0.00000000000E+00  0.00000000000E+00  0.35527136788E-14  0.91188000000E+02  0.91188000000E+02 0.  0.
    9900012    2    3    3    0    0 -0.22700112130E+02 -0.25421370216E+02  0.22172623744E+02  0.50528850992E+02  0.29999973075E+02 0.  0.
        -12    1    3    3    0    0  0.22700112130E+02  0.25421370216E+02 -0.22172623744E+02  0.40659149008E+02  0.00000000000E+00 0.  1.
         11    1    4    4    0    0  0.46936272503E+01 -0.47091905310E+01  0.94548056199E+01  0.11558544969E+02  0.51100000000E-03 0.  1.
        -11    1    4    4    0    0 -0.11828615267E+02 -0.17194810085E+02  0.67896452748E+01  0.21947139135E+02  0.51100000000E-03 0. -1.
        -12    1    4    4    0    0 -0.15565124113E+02 -0.35173695999E+01  0.59281728492E+01  0.17023166888E+02  0.00000000000E+00 0.  1.
</event>
<event>
 8    1  0.1615837E-013  0.9118800E+02  0.7816164E-02  0.1184000E+00
        -11   -1    0    0    0    0  0.00000000000E+00  0.00000000000E+00  0.45593999997E+02  0.45594000000E+02  0.51100000000E-03 0.  1.
         11   -1    0    0    0    0 -0.00000000000E+00 -0.00000000000E+00 -0.45593999997E+02  0.45594000000E+02  0.51100000000E-03 0. -1.
         23    2    1    2    0    0  0.00000000000E+00 -0.88817841970E-15 -0.17763568394E-14  0.91188000000E+02  0.91188000000E+02 0.  0.
    9900012    2    3    3    0    0  0.38041146953E+02 -0.51878080120E+01 -0.13383715651E+02  0.50528855173E+02  0.29999985783E+02 0.  0.
         12    1    3    3    0    0 -0.38041146953E+02  0.51878080120E+01  0.13383715651E+02  0.40659144827E+02  0.00000000000E+00 0. -1.
         11    1    4    4    0    0  0.49778186592E+01 -0.15351888252E+01 -0.98093655549E+01  0.11106715814E+02  0.51100000000E-03 0. -1.
        -11    1    4    4    0    0  0.49557644928E+01  0.21798084842E+01 -0.87144406614E+01  0.10259271077E+02  0.51100000000E-03 0.  1.
        -12    1    4    4    0    0  0.28107563801E+02 -0.58324276711E+01  0.51400905657E+01  0.29162868281E+02  0.00000000000E+00 0.  1.
</event>
<event>
 8    1  0.1615837E-013  0.9118800E+02  0.7816164E-02  0.1184000E+00
        -11   -1    0    0    0    0  0.00000000000E+00  0.00000000000E+00  0.45593999997E+02  0.45594000000E+02  0.51100000000E-03 0. -1.
         11   -1    0    0    0    0 -0.00000000000E+00 -0.00000000000E+00 -0.45593999997E+02  0.45594000000E+02  0.51100000000E-03 0.  1.
         23    2    1    2    0    0  0.00000000000E+00 -0.17763568394E-14  0.00000000000E+00  0.91188000000E+02  0.91188000000E+02 0.  0.
    9900012    2    3    3    0    0  0.15358384896E+02  0.93396219360E+01 -0.36469941880E+02  0.50528865906E+02  0.30000018408E+02 0.  0.
         12    1    3    3    0    0 -0.15358384896E+02 -0.93396219360E+01  0.36469941880E+02  0.40659134094E+02  0.00000000000E+00 0. -1.
         11    1    4    4    0    0  0.66040349963E+00  0.26879468029E+01 -0.35253688214E+01  0.44821218620E+01  0.51100000000E-03 0. -1.
        -11    1    4    4    0    0  0.15685071302E+02  0.56242218971E+01 -0.37627462016E+02  0.41151904351E+02  0.51100000000E-03 0.  1.
         12    1    4    4    0    0 -0.98708990586E+00  0.10274532359E+01  0.46828889570E+01  0.48948396928E+01  0.00000000000E+00 0. -1.
</event>
<event>
 8    1  0.1629541E-013  0.9118800E+02  0.7816164E-02  0.1184000E+00
        -11   -1    0    0    0    0  0.00000000000E+00  0.00000000000E+00  0.45593999997E+02  0.45594000000E+02  0.51100000000E-03 0. -1.
         11   -1    0    0    0    0 -0.00000000000E+00 -0.00000000000E+00 -0.45593999997E+02  0.45594000000E+02  0.51100000000E-03 0.  1.
         23    2    1    2    0    0  0.00000000000E+00  0.35527136788E-14  0.35527136788E-14  0.91188000000E+02  0.91188000000E+02 0.  0.
    9900012    2    3    3    0    0 -0.24350768736E+02  0.12520323218E+02  0.30057396084E+02  0.50528862148E+02  0.30000006986E+02 0.  0.
        -12    1    3    3    0    0  0.24350768736E+02 -0.12520323218E+02 -0.30057396084E+02  0.40659137852E+02  0.00000000000E+00 0.  1.
         11    1    4    4    0    0 -0.12047616185E+02  0.16879357315E+02  0.15324222196E+02  0.25785452202E+02  0.51100000000E-03 0.  1.
        -11    1    4    4    0    0 -0.13312997461E+02  0.18520018971E+01  0.11388529812E+02  0.17617162767E+02  0.51100000000E-03 0. -1.
        -12    1    4    4    0    0  0.10098449096E+01 -0.62110359942E+01  0.33446440758E+01  0.71262471791E+01  0.00000000000E+00 0.  1.
</event>
<event>
 8    1  0.1615837E-013  0.9118800E+02  0.7816164E-02  0.1184000E+00
        -11   -1    0    0    0    0  0.00000000000E+00  0.00000000000E+00  0.45593999997E+02  0.45594000000E+02  0.51100000000E-03 0. -1.
         11   -1    0    0    0    0 -0.00000000000E+00 -0.00000000000E+00 -0.45593999997E+02  0.45594000000E+02  0.51100000000E-03 0.  1.
         23    2    1    2    0    0  0.00000000000E+00 -0.17763568394E-14  0.00000000000E+00  0.91188000000E+02  0.91188000000E+02 0.  0.
    9900012    2    3    3    0    0  0.11031459547E+02  0.11882135382E+02  0.37286562920E+02  0.50528855698E+02  0.29999987379E+02 0.  0.
        -12    1    3    3    0    0 -0.11031459547E+02 -0.11882135382E+02 -0.37286562920E+02  0.40659144302E+02  0.00000000000E+00 0.  1.
         11    1    4    4    0    0  0.36437080826E+01 -0.18539408919E+01 -0.16746895694E+00  0.40916685514E+01  0.51100000000E-03 0. -1.
        -11    1    4    4    0    0  0.43488173759E+01  0.63390351136E+01 -0.44828266531E+00  0.77004244266E+01  0.51100000000E-03 0.  1.
         12    1    4    4    0    0  0.30389340883E+01  0.73970411602E+01  0.37902314543E+02  0.38736762720E+02  0.00000000000E+00 0. -1.
</event>
<event>
 8    1  0.1615837E-013  0.9118800E+02  0.7816164E-02  0.1184000E+00
        -11   -1    0    0    0    0  0.00000000000E+00  0.00000000000E+00  0.45593999997E+02  0.45594000000E+02  0.51100000000E-03 0. -1.
         11   -1    0    0    0    0 -0.00000000000E+00 -0.00000000000E+00 -0.45593999997E+02  0.45594000000E+02  0.51100000000E-03 0.  1.
         23    2    1    2    0    0  0.00000000000E+00  0.88817841970E-15  0.00000000000E+00  0.91188000000E+02  0.91188000000E+02 0.  0.
    9900012    2    3    3    0    0 -0.29260984186E+02 -0.72927293998E+01  0.27272238310E+02  0.50528879497E+02  0.30000059719E+02 0.  0.
        -12    1    3    3    0    0  0.29260984186E+02  0.72927293998E+01 -0.27272238310E+02  0.40659120503E+02  0.00000000000E+00 0.  1.
         11    1    4    4    0    0 -0.93955609762E+01 -0.14084343750E+02  0.19205786209E+02  0.25602881266E+02  0.51100000000E-03 0. -1.
        -11    1    4    4    0    0 -0.56746171185E+01 -0.10808636139E+01  0.63859063270E+01  0.86110014209E+01  0.51100000000E-03 0.  1.
        -12    1    4    4    0    0 -0.14190806092E+02  0.78724779642E+01  0.16805457733E+01  0.16314996810E+02  0.00000000000E+00 0.  1.
</event>
<event>
 8    1  0.1615837E-013  0.9118800E+02  0.7816164E-02  0.1184000E+00
        -11   -1    0    0    0    0  0.00000000000E+00  0.00000000000E+00  0.45593999997E+02  0.45594000000E+02  0.51100000000E-03 0. -1.
         11   -1    0    0    0    0 -0.00000000000E+00 -0.00000000000E+00 -0.45593999997E+02  0.45594000000E+02  0.51100000000E-03 0.  1.
         23    2    1    2    0    0  0.17763568394E-14  0.00000000000E+00  0.00000000000E+00  0.91188000000E+02  0.91188000000E+02 0.  0.
    9900012    2    3    3    0    0 -0.12146977471E+02 -0.33647231740E+02 -0.19325616182E+02  0.50528871797E+02  0.30000036314E+02 0.  0.
         12    1    3    3    0    0  0.12146977471E+02  0.33647231740E+02  0.19325616182E+02  0.40659128203E+02  0.00000000000E+00 0. -1.
         11    1    4    4    0    0 -0.42313112405E+01 -0.42226152726E+01 -0.41154458946E+01  0.72575043732E+01  0.51100000000E-03 0. -1.
        -11    1    4    4    0    0 -0.15013494908E+02 -0.85560320169E+01 -0.11900362522E+02  0.20981642968E+02  0.51100000000E-03 0.  1.
         12    1    4    4    0    0  0.70978286774E+01 -0.20868584450E+02 -0.33098077658E+01  0.22289724456E+02  0.00000000000E+00 0. -1.
</event>
<event>
 8    1  0.1615837E-013  0.9118800E+02  0.7816164E-02  0.1184000E+00
        -11   -1    0    0    0    0  0.00000000000E+00  0.00000000000E+00  0.45593999997E+02  0.45594000000E+02  0.51100000000E-03 0. -1.
         11   -1    0    0    0    0 -0.00000000000E+00 -0.00000000000E+00 -0.45593999997E+02  0.45594000000E+02  0.51100000000E-03 0.  1.
         23    2    1    2    0    0  0.00000000000E+00  0.00000000000E+00  0.00000000000E+00  0.91188000000E+02  0.91188000000E+02 0.  0.
    9900012    2    3    3    0    0 -0.34075151718E+02 -0.17784138519E+02 -0.13258176037E+02  0.50528797114E+02  0.29999809308E+02 0.  0.
         12    1    3    3    0    0  0.34075151718E+02  0.17784138519E+02  0.13258176037E+02  0.40659202886E+02  0.00000000000E+00 0. -1.
         11    1    4    4    0    0 -0.26805049099E+01 -0.69925453234E+01  0.21011887264E+01  0.77779040234E+01  0.51100000000E-03 0. -1.
        -11    1    4    4    0    0 -0.11526018530E+00 -0.81845972897E+01 -0.10406391787E+01  0.82512937087E+01  0.51100000000E-03 0.  1.
        -12    1    4    4    0    0 -0.31279386623E+02 -0.26069959059E+01 -0.14318725585E+02  0.34499599382E+02  0.00000000000E+00 0.  1.
</event>
<event>
 8    1  0.1615837E-013  0.9118800E+02  0.7816164E-02  0.1184000E+00
        -11   -1    0    0    0    0  0.00000000000E+00  0.00000000000E+00  0.45593999997E+02  0.45594000000E+02  0.51100000000E-03 0. -1.
         11   -1    0    0    0    0 -0.00000000000E+00 -0.00000000000E+00 -0.45593999997E+02  0.45594000000E+02  0.51100000000E-03 0.  1.
         23    2    1    2    0    0  0.17763568394E-14  0.71054273576E-14  0.00000000000E+00  0.91188000000E+02  0.91188000000E+02 0.  0.
    9900012    2    3    3    0    0 -0.14894102393E+02 -0.36164015838E+02 -0.11112878082E+02  0.50528851130E+02  0.29999973493E+02 0.  0.
         12    1    3    3    0    0  0.14894102393E+02  0.36164015838E+02  0.11112878082E+02  0.40659148870E+02  0.00000000000E+00 0. -1.
         11    1    4    4    0    0  0.37439978369E+01 -0.21303534606E+01 -0.35466479102E+01  0.55798420524E+01  0.51100000000E-03 0. -1.
        -11    1    4    4    0    0 -0.79104305541E+01 -0.26307304028E+02  0.35200109457E+01  0.27695480391E+02  0.51100000000E-03 0.  1.
         12    1    4    4    0    0 -0.10727669676E+02 -0.77263583494E+01 -0.11086241118E+02  0.17253528686E+02  0.00000000000E+00 0. -1.
</event>
<event>
 8    1  0.1615837E-013  0.9118800E+02  0.7816164E-02  0.1184000E+00
        -11   -1    0    0    0    0  0.00000000000E+00  0.00000000000E+00  0.45593999997E+02  0.45594000000E+02  0.51100000000E-03 0. -1.
         11   -1    0    0    0    0 -0.00000000000E+00 -0.00000000000E+00 -0.45593999997E+02  0.45594000000E+02  0.51100000000E-03 0.  1.
         23    2    1    2    0    0  0.00000000000E+00  0.00000000000E+00  0.00000000000E+00  0.91188000000E+02  0.91188000000E+02 0.  0.
    9900012    2    3    3    0    0 -0.91079352800E+01  0.23170024543E+02  0.32145909876E+02  0.50528879939E+02  0.30000061063E+02 0.  0.
        -12    1    3    3    0    0  0.91079352800E+01 -0.23170024543E+02 -0.32145909876E+02  0.40659120061E+02  0.00000000000E+00 0.  1.
         11    1    4    4    0    0 -0.24383189202E+00 -0.31050535190E+01  0.12905133872E+01  0.33713849396E+01  0.51100000000E-03 0. -1.
        -11    1    4    4    0    0  0.72049062076E+01  0.42710040853E+01  0.82127297833E+01  0.11730348678E+02  0.51100000000E-03 0.  1.
         12    1    4    4    0    0 -0.16069009596E+02  0.22004073976E+02  0.22642666706E+02  0.35427146321E+02  0.00000000000E+00 0. -1.
</event>
<event>
 8    1  0.1615837E-013  0.9118800E+02  0.7816164E-02  0.1184000E+00
        -11   -1    0    0    0    0  0.00000000000E+00  0.00000000000E+00  0.45593999997E+02  0.45594000000E+02  0.51100000000E-03 0. -1.
         11   -1    0    0    0    0 -0.00000000000E+00 -0.00000000000E+00 -0.45593999997E+02  0.45594000000E+02  0.51100000000E-03 0.  1.
         23    2    1    2    0    0  0.35527136788E-14  0.00000000000E+00 -0.71054273576E-14  0.91188000000E+02  0.91188000000E+02 0.  0.
    9900012    2    3    3    0    0 -0.13951623582E+02  0.56726527728E+01  0.37766815868E+02  0.50528939867E+02  0.30000243219E+02 0.  0.
        -12    1    3    3    0    0  0.13951623582E+02 -0.56726527728E+01 -0.37766815868E+02  0.40659060133E+02  0.00000000000E+00 0.  1.
         11    1    4    4    0    0 -0.19914040621E+02 -0.29006621314E+00  0.32708654766E+02  0.38295029039E+02  0.51100000000E-03 0. -1.
        -11    1    4    4    0    0 -0.79578373994E+00  0.40166399915E+01  0.21336797028E+01  0.46172781937E+01  0.51100000000E-03 0.  1.
        -12    1    4    4    0    0  0.67582007790E+01  0.19460789944E+01  0.29244813997E+01  0.76166326338E+01  0.00000000000E+00 0.  1.
</event>
<event>
 8    1  0.3075629E-013  0.9118800E+02  0.7816164E-02  0.1184000E+00
        -11   -1    0    0    0    0  0.00000000000E+00  0.00000000000E+00  0.45593999997E+02  0.45594000000E+02  0.51100000000E-03 0. -1.
         11   -1    0    0    0    0 -0.00000000000E+00 -0.00000000000E+00 -0.45593999997E+02  0.45594000000E+02  0.51100000000E-03 0.  1.
         23    2    1    2    0    0  0.00000000000E+00 -0.17763568394E-14  0.71054273576E-14  0.91188000000E+02  0.91188000000E+02 0.  0.
    9900012    2    3    3    0    0  0.34467246887E+01  0.11710878524E+02  0.38783267824E+02  0.50528850353E+02  0.29999971134E+02 0.  0.
        -12    1    3    3    0    0 -0.34467246887E+01 -0.11710878524E+02 -0.38783267824E+02  0.40659149647E+02  0.00000000000E+00 0.  1.
         11    1    4    4    0    0  0.16224459779E+01  0.84952179675E+01  0.18916559473E+02  0.20799934659E+02  0.51100000000E-03 0. -1.
        -11    1    4    4    0    0  0.10324564925E+02  0.37304893192E+01  0.17885204096E+02  0.20985559732E+02  0.51100000000E-03 0.  1.
        -12    1    4    4    0    0 -0.85002862141E+01 -0.51482876249E+00  0.19815042553E+01  0.87433559626E+01  0.00000000000E+00 0.  1.
</event>
<event>
 8    1  0.1615837E-013  0.9118800E+02  0.7816164E-02  0.1184000E+00
        -11   -1    0    0    0    0  0.00000000000E+00  0.00000000000E+00  0.45593999997E+02  0.45594000000E+02  0.51100000000E-03 0.  1.
         11   -1    0    0    0    0 -0.00000000000E+00 -0.00000000000E+00 -0.45593999997E+02  0.45594000000E+02  0.51100000000E-03 0. -1.
         23    2    1    2    0    0  0.00000000000E+00  0.00000000000E+00  0.17763568394E-14  0.91188000000E+02  0.91188000000E+02 0.  0.
    9900012    2    3    3    0    0  0.18738533492E+01  0.38673201275E+02 -0.12411173282E+02  0.50528867625E+02  0.30000023634E+02 0.  0.
         12    1    3    3    0    0 -0.18738533492E+01 -0.38673201275E+02  0.12411173282E+02  0.40659132375E+02  0.00000000000E+00 0. -1.
         11    1    4    4    0    0 -0.15108152706E+01  0.42653148983E+01  0.21183372750E+01  0.49962813206E+01  0.51100000000E-03 0.  1.
        -11    1    4    4    0    0 -0.29464315919E+01 -0.35072232106E+01 -0.26827630805E+01  0.53084170693E+01  0.51100000000E-03 0. -1.
        -12    1    4    4    0    0  0.63311002117E+01  0.37915109587E+02 -0.11846747476E+02  0.40224169235E+02  0.00000000000E+00 0.  1.
</event>
<event>
 8    1  0.1615837E-013  0.9118800E+02  0.7816164E-02  0.1184000E+00
        -11   -1    0    0    0    0  0.00000000000E+00  0.00000000000E+00  0.45593999997E+02  0.45594000000E+02  0.51100000000E-03 0. -1.
         11   -1    0    0    0    0 -0.00000000000E+00 -0.00000000000E+00 -0.45593999997E+02  0.45594000000E+02  0.51100000000E-03 0.  1.
         23    2    1    2    0    0  0.00000000000E+00 -0.11102230246E-14  0.00000000000E+00  0.91188000000E+02  0.91188000000E+02 0.  0.
    9900012    2    3    3    0    0 -0.30933662841E+02 -0.14032774285E+01  0.26349691201E+02  0.50528844688E+02  0.29999953914E+02 0.  0.
        -12    1    3    3    0    0  0.30933662841E+02  0.14032774285E+01 -0.26349691201E+02  0.40659155312E+02  0.00000000000E+00 0.  1.
         11    1    4    4    0    0 -0.51065324057E+01 -0.38604483453E+01 -0.36860189067E+00  0.64121449026E+01  0.51100000000E-03 0. -1.
        -11    1    4    4    0    0 -0.10928038145E+02 -0.87794874604E+01  0.37265434236E+01  0.14504776590E+02  0.51100000000E-03 0.  1.
         12    1    4    4    0    0 -0.14899092290E+02  0.11236658377E+02  0.22991749668E+02  0.29611923196E+02  0.00000000000E+00 0. -1.
</event>
<event>
 8    1  0.1615837E-013  0.9118800E+02  0.7816164E-02  0.1184000E+00
        -11   -1    0    0    0    0  0.00000000000E+00  0.00000000000E+00  0.45593999997E+02  0.45594000000E+02  0.51100000000E-03 0. -1.
         11   -1    0    0    0    0 -0.00000000000E+00 -0.00000000000E+00 -0.45593999997E+02  0.45594000000E+02  0.51100000000E-03 0.  1.
         23    2    1    2    0    0  0.00000000000E+00  0.00000000000E+00 -0.17763568394E-14  0.91188000000E+02  0.91188000000E+02 0.  0.
    9900012    2    3    3    0    0  0.26305335333E+02 -0.27045001963E+02 -0.15157935681E+02  0.50528858195E+02  0.29999994970E+02 0.  0.
         12    1    3    3    0    0 -0.26305335333E+02  0.27045001963E+02  0.15157935681E+02  0.40659141805E+02  0.00000000000E+00 0. -1.
         11    1    4    4    0    0  0.11299906335E+02 -0.18305374714E+01  0.41142150444E+01  0.12164107707E+02  0.51100000000E-03 0. -1.
        -11    1    4    4    0    0  0.59172016089E+01 -0.67886074746E+01  0.15216105377E+01  0.91331136648E+01  0.51100000000E-03 0.  1.
        -12    1    4    4    0    0  0.90882273897E+01 -0.18425857017E+02 -0.20793761263E+02  0.29231636824E+02  0.00000000000E+00 0.  1.
</event>
<event>
 8    1  0.1615837E-013  0.9118800E+02  0.7816164E-02  0.1184000E+00
        -11   -1    0    0    0    0  0.00000000000E+00  0.00000000000E+00  0.45593999997E+02  0.45594000000E+02  0.51100000000E-03 0. -1.
         11   -1    0    0    0    0 -0.00000000000E+00 -0.00000000000E+00 -0.45593999997E+02  0.45594000000E+02  0.51100000000E-03 0.  1.
         23    2    1    2    0    0  0.17763568394E-14 -0.35527136788E-14  0.35527136788E-14  0.91188000000E+02  0.91188000000E+02 0.  0.
    9900012    2    3    3    0    0  0.14488324003E+02 -0.21637952194E+02 -0.31225835289E+02  0.50528864531E+02  0.30000014229E+02 0.  0.
         12    1    3    3    0    0 -0.14488324003E+02  0.21637952194E+02  0.31225835289E+02  0.40659135469E+02  0.00000000000E+00 0. -1.
         11    1    4    4    0    0 -0.12042783103E+01 -0.15136716799E+02 -0.11925374195E+02  0.19307641794E+02  0.51100000000E-03 0. -1.
        -11    1    4    4    0    0 -0.29140187177E+01 -0.42446705586E+01 -0.74158280048E+01  0.90279144045E+01  0.51100000000E-03 0.  1.
         12    1    4    4    0    0  0.18606621031E+02 -0.22565648361E+01 -0.11884633089E+02  0.22193308332E+02  0.00000000000E+00 0. -1.
</event>
<event>
 8    1  0.1615837E-013  0.9118800E+02  0.7816164E-02  0.1184000E+00
        -11   -1    0    0    0    0  0.00000000000E+00  0.00000000000E+00  0.45593999997E+02  0.45594000000E+02  0.51100000000E-03 0. -1.
         11   -1    0    0    0    0 -0.00000000000E+00 -0.00000000000E+00 -0.45593999997E+02  0.45594000000E+02  0.51100000000E-03 0.  1.
         23    2    1    2    0    0  0.00000000000E+00  0.00000000000E+00  0.00000000000E+00  0.91188000000E+02  0.91188000000E+02 0.  0.
    9900012    2    3    3    0    0 -0.13716864051E+02 -0.34938591566E+02  0.15630370900E+02  0.50528855463E+02  0.29999986666E+02 0.  0.
        -12    1    3    3    0    0  0.13716864051E+02  0.34938591566E+02 -0.15630370900E+02  0.40659144537E+02  0.00000000000E+00 0.  1.
         11    1    4    4    0    0 -0.56679331319E+01 -0.14139618581E+02  0.19597452266E+02  0.24821652145E+02  0.51100000000E-03 0. -1.
        -11    1    4    4    0    0  0.25348609089E+01 -0.21707000811E+01 -0.26147137819E+01  0.42395975153E+01  0.51100000000E-03 0.  1.
        -12    1    4    4    0    0 -0.10583791828E+02 -0.18628272904E+02 -0.13523675844E+01  0.21467605803E+02  0.00000000000E+00 0.  1.
</event>
<event>
 8    1  0.1615837E-013  0.9118800E+02  0.7816164E-02  0.1184000E+00
        -11   -1    0    0    0    0  0.00000000000E+00  0.00000000000E+00  0.45593999997E+02  0.45594000000E+02  0.51100000000E-03 0. -1.
         11   -1    0    0    0    0 -0.00000000000E+00 -0.00000000000E+00 -0.45593999997E+02  0.45594000000E+02  0.51100000000E-03 0.  1.
         23    2    1    2    0    0  0.00000000000E+00  0.00000000000E+00  0.00000000000E+00  0.91188000000E+02  0.91188000000E+02 0.  0.
    9900012    2    3    3    0    0  0.13855818273E+02  0.30286922562E+02  0.23321169279E+02  0.50528950394E+02  0.30000275218E+02 0.  0.
        -12    1    3    3    0    0 -0.13855818273E+02 -0.30286922562E+02 -0.23321169279E+02  0.40659049606E+02  0.00000000000E+00 0.  1.
         11    1    4    4    0    0  0.38243482077E+01  0.13737740521E+01 -0.52170693906E+01  0.66129197521E+01  0.51100000000E-03 0. -1.
        -11    1    4    4    0    0 -0.27133644072E+01  0.37820515481E+01  0.71859328165E+01  0.85617691526E+01  0.51100000000E-03 0.  1.
         12    1    4    4    0    0  0.12744834472E+02  0.25131096962E+02  0.21352305853E+02  0.35354261490E+02  0.00000000000E+00 0. -1.
</event>
<event>
 8    1  0.2029261E-013  0.9118800E+02  0.7816164E-02  0.1184000E+00
        -11   -1    0    0    0    0  0.00000000000E+00  0.00000000000E+00  0.45593999997E+02  0.45594000000E+02  0.51100000000E-03 0. -1.
         11   -1    0    0    0    0 -0.00000000000E+00 -0.00000000000E+00 -0.45593999997E+02  0.45594000000E+02  0.51100000000E-03 0.  1.
         23    2    1    2    0    0  0.66613381478E-15  0.00000000000E+00  0.00000000000E+00  0.91188000000E+02  0.91188000000E+02 0.  0.
    9900012    2    3    3    0    0  0.11945792511E+01  0.34267082460E+01  0.40496869519E+02  0.50528858471E+02  0.29999995809E+02 0.  0.
        -12    1    3    3    0    0 -0.11945792511E+01 -0.34267082460E+01 -0.40496869519E+02  0.40659141529E+02  0.00000000000E+00 0.  1.
         11    1    4    4    0    0 -0.27807988666E+01  0.26437098699E+01  0.28435388416E+02  0.28693089043E+02  0.51100000000E-03 0. -1.
        -11    1    4    4    0    0 -0.49568524009E+01 -0.50186346308E+01  0.23866905148E+01  0.74467020322E+01  0.51100000000E-03 0.  1.
        -12    1    4    4    0    0  0.89322305186E+01  0.58016330070E+01  0.96747905891E+01  0.14389067396E+02  0.00000000000E+00 0.  1.
</event>
<event>
 8    1  0.1615837E-013  0.9118800E+02  0.7816164E-02  0.1184000E+00
        -11   -1    0    0    0    0  0.00000000000E+00  0.00000000000E+00  0.45593999997E+02  0.45594000000E+02  0.51100000000E-03 0. -1.
         11   -1    0    0    0    0 -0.00000000000E+00 -0.00000000000E+00 -0.45593999997E+02  0.45594000000E+02  0.51100000000E-03 0.  1.
         23    2    1    2    0    0 -0.35527136788E-14  0.35527136788E-14  0.00000000000E+00  0.91188000000E+02  0.91188000000E+02 0.  0.
    9900012    2    3    3    0    0 -0.17797749259E+02  0.29455864426E+02  0.21650803117E+02  0.50528866913E+02  0.30000021469E+02 0.  0.
        -12    1    3    3    0    0  0.17797749259E+02 -0.29455864426E+02 -0.21650803117E+02  0.40659133087E+02  0.00000000000E+00 0.  1.
         11    1    4    4    0    0 -0.36294940886E+01  0.12961343699E+02 -0.27112651246E+01  0.13730281012E+02  0.51100000000E-03 0. -1.
        -11    1    4    4    0    0 -0.86936924459E-01  0.24576198930E+01 -0.24151934492E+01  0.34468265441E+01  0.51100000000E-03 0.  1.
         12    1    4    4    0    0 -0.14081318246E+02  0.14036900834E+02  0.26777261691E+02  0.33351759357E+02  0.00000000000E+00 0. -1.
</event>
<event>
 8    1  0.1615837E-013  0.9118800E+02  0.7816164E-02  0.1184000E+00
        -11   -1    0    0    0    0  0.00000000000E+00  0.00000000000E+00  0.45593999997E+02  0.45594000000E+02  0.51100000000E-03 0. -1.
         11   -1    0    0    0    0 -0.00000000000E+00 -0.00000000000E+00 -0.45593999997E+02  0.45594000000E+02  0.51100000000E-03 0.  1.
         23    2    1    2    0    0 -0.17763568394E-14  0.00000000000E+00  0.00000000000E+00  0.91188000000E+02  0.91188000000E+02 0.  0.
    9900012    2    3    3    0    0 -0.14352494090E+02 -0.94320797058E+01  0.36853869844E+02  0.50528856666E+02  0.29999990323E+02 0.  0.
        -12    1    3    3    0    0  0.14352494090E+02  0.94320797058E+01 -0.36853869844E+02  0.40659143334E+02  0.00000000000E+00 0.  1.
         11    1    4    4    0    0  0.29429966629E+01  0.30972793444E+01  0.34354782104E+00  0.42863030763E+01  0.51100000000E-03 0. -1.
        -11    1    4    4    0    0 -0.24179166811E+01  0.18826103787E+01 -0.11407862276E+01  0.32698526562E+01  0.51100000000E-03 0.  1.
         12    1    4    4    0    0 -0.14877574072E+02 -0.14411969429E+02  0.37651108250E+02  0.42972700934E+02  0.00000000000E+00 0. -1.
</event>
<event>
 8    1  0.1615837E-013  0.9118800E+02  0.7816164E-02  0.1184000E+00
        -11   -1    0    0    0    0  0.00000000000E+00  0.00000000000E+00  0.45593999997E+02  0.45594000000E+02  0.51100000000E-03 0. -1.
         11   -1    0    0    0    0 -0.00000000000E+00 -0.00000000000E+00 -0.45593999997E+02  0.45594000000E+02  0.51100000000E-03 0.  1.
         23    2    1    2    0    0  0.19428902931E-15  0.88817841970E-15  0.71054273576E-14  0.91188000000E+02  0.91188000000E+02 0.  0.
    9900012    2    3    3    0    0 -0.19951358221E+00  0.48636122563E+01  0.40366705291E+02  0.50528862947E+02  0.30000009415E+02 0.  0.
        -12    1    3    3    0    0  0.19951358221E+00 -0.48636122563E+01 -0.40366705291E+02  0.40659137053E+02  0.00000000000E+00 0.  1.
         11    1    4    4    0    0 -0.31765772697E+01  0.57693090663E+01  0.26475260901E+01  0.70982367467E+01  0.51100000000E-03 0. -1.
        -11    1    4    4    0    0 -0.64287694372E+00  0.10007993809E+02  0.17303442783E+02  0.19999559077E+02  0.51100000000E-03 0.  1.
        -12    1    4    4    0    0  0.36199406312E+01 -0.10913690619E+02  0.20415736418E+02  0.23431067124E+02  0.00000000000E+00 0.  1.
</event>
<event>
 8    1  0.1615837E-013  0.9118800E+02  0.7816164E-02  0.1184000E+00
        -11   -1    0    0    0    0  0.00000000000E+00  0.00000000000E+00  0.45593999997E+02  0.45594000000E+02  0.51100000000E-03 0. -1.
         11   -1    0    0    0    0 -0.00000000000E+00 -0.00000000000E+00 -0.45593999997E+02  0.45594000000E+02  0.51100000000E-03 0.  1.
         23    2    1    2    0    0  0.35527136788E-14  0.00000000000E+00  0.35527136788E-14  0.91188000000E+02  0.91188000000E+02 0.  0.
    9900012    2    3    3    0    0  0.31660691624E+02  0.33815423074E+01  0.25285001469E+02  0.50528861768E+02  0.30000005830E+02 0.  0.
        -12    1    3    3    0    0 -0.31660691624E+02 -0.33815423074E+01 -0.25285001469E+02  0.40659138232E+02  0.00000000000E+00 0.  1.
         11    1    4    4    0    0  0.33328462211E+02 -0.10279245323E+01  0.18966362544E+02  0.38360994912E+02  0.51100000000E-03 0. -1.
        -11    1    4    4    0    0 -0.21291174176E+01  0.15504516247E+01  0.82676876300E+01  0.86770790147E+01  0.51100000000E-03 0.  1.
        -12    1    4    4    0    0  0.46134683038E+00  0.28590152151E+01 -0.19490487051E+01  0.34907878413E+01  0.00000000000E+00 0.  1.
</event>
<event>
 8    1  0.1615837E-013  0.9118800E+02  0.7816164E-02  0.1184000E+00
        -11   -1    0    0    0    0  0.00000000000E+00  0.00000000000E+00  0.45593999997E+02  0.45594000000E+02  0.51100000000E-03 0. -1.
         11   -1    0    0    0    0 -0.00000000000E+00 -0.00000000000E+00 -0.45593999997E+02  0.45594000000E+02  0.51100000000E-03 0.  1.
         23    2    1    2    0    0  0.35527136788E-14  0.35527136788E-14  0.71054273576E-14  0.91188000000E+02  0.91188000000E+02 0.  0.
    9900012    2    3    3    0    0 -0.92771293134E+01 -0.22173701220E+02 -0.32793706295E+02  0.50528864168E+02  0.30000013124E+02 0.  0.
         12    1    3    3    0    0  0.92771293134E+01  0.22173701220E+02  0.32793706295E+02  0.40659135832E+02  0.00000000000E+00 0. -1.
         11    1    4    4    0    0 -0.79134345879E+01 -0.47424421381E+01 -0.41823095944E+01  0.10129408582E+02  0.51100000000E-03 0. -1.
        -11    1    4    4    0    0 -0.10604402701E+02 -0.15445381090E+02 -0.21825960976E+02  0.28764313419E+02  0.51100000000E-03 0.  1.
         12    1    4    4    0    0  0.92407079752E+01 -0.19858779919E+01 -0.67854357240E+01  0.11635142167E+02  0.00000000000E+00 0. -1.
</event>
<event>
 8    1  0.1615837E-013  0.9118800E+02  0.7816164E-02  0.1184000E+00
        -11   -1    0    0    0    0  0.00000000000E+00  0.00000000000E+00  0.45593999997E+02  0.45594000000E+02  0.51100000000E-03 0. -1.
         11   -1    0    0    0    0 -0.00000000000E+00 -0.00000000000E+00 -0.45593999997E+02  0.45594000000E+02  0.51100000000E-03 0.  1.
         23    2    1    2    0    0 -0.17763568394E-14  0.88817841970E-15  0.00000000000E+00  0.91188000000E+02  0.91188000000E+02 0.  0.
    9900012    2    3    3    0    0  0.11341292711E+02 -0.51337105117E+01  0.38706406982E+02  0.50528857788E+02  0.29999993733E+02 0.  0.
        -12    1    3    3    0    0 -0.11341292711E+02  0.51337105117E+01 -0.38706406982E+02  0.40659142212E+02  0.00000000000E+00 0.  1.
         11    1    4    4    0    0  0.12629855208E+02 -0.29701426073E+01  0.67943597608E+01  0.14645760973E+02  0.51100000000E-03 0. -1.
        -11    1    4    4    0    0 -0.10976612097E+01 -0.63692960368E+01  0.38836231118E+01  0.75402467381E+01  0.51100000000E-03 0.  1.
         12    1    4    4    0    0 -0.19090128720E+00  0.42057281325E+01  0.28028424109E+02  0.28342850077E+02  0.00000000000E+00 0. -1.
</event>
<event>
 8    1  0.1615837E-013  0.9118800E+02  0.7816164E-02  0.1184000E+00
        -11   -1    0    0    0    0  0.00000000000E+00  0.00000000000E+00  0.45593999997E+02  0.45594000000E+02  0.51100000000E-03 0. -1.
         11   -1    0    0    0    0 -0.00000000000E+00 -0.00000000000E+00 -0.45593999997E+02  0.45594000000E+02  0.51100000000E-03 0.  1.
         23    2    1    2    0    0  0.13322676296E-14  0.49960036108E-15  0.00000000000E+00  0.91188000000E+02  0.91188000000E+02 0.  0.
    9900012    2    3    3    0    0 -0.20502511219E+01 -0.39365935239E+00  0.40605508122E+02  0.50528858504E+02  0.29999995910E+02 0.  0.
        -12    1    3    3    0    0  0.20502511219E+01  0.39365935239E+00 -0.40605508122E+02  0.40659141496E+02  0.00000000000E+00 0.  1.
         11    1    4    4    0    0 -0.32899421491E+00 -0.55605166902E+01  0.11003227465E+01  0.56778775492E+01  0.51100000000E-03 0. -1.
        -11    1    4    4    0    0  0.89946898011E+01 -0.82365744733E-01  0.20828744275E+02  0.22688054501E+02  0.51100000000E-03 0.  1.
         12    1    4    4    0    0 -0.10715946708E+02  0.52492230826E+01  0.18676441101E+02  0.22162926454E+02  0.00000000000E+00 0. -1.
</event>
<event>
 8    1  0.1615837E-013  0.9118800E+02  0.7816164E-02  0.1184000E+00
        -11   -1    0    0    0    0  0.00000000000E+00  0.00000000000E+00  0.45593999997E+02  0.45594000000E+02  0.51100000000E-03 0. -1.
         11   -1    0    0    0    0 -0.00000000000E+00 -0.00000000000E+00 -0.45593999997E+02  0.45594000000E+02  0.51100000000E-03 0.  1.
         23    2    1    2    0    0  0.00000000000E+00  0.17763568394E-14  0.71054273576E-14  0.91188000000E+02  0.91188000000E+02 0.  0.
    9900012    2    3    3    0    0  0.11681036219E+02  0.13307410502E+02  0.36600976810E+02  0.50528864682E+02  0.30000014686E+02 0.  0.
        -12    1    3    3    0    0 -0.11681036219E+02 -0.13307410502E+02 -0.36600976810E+02  0.40659135318E+02  0.00000000000E+00 0.  1.
         11    1    4    4    0    0  0.54754571066E+01  0.62510944442E+01  0.18583864634E+02  0.20357230590E+02  0.51100000000E-03 0. -1.
        -11    1    4    4    0    0  0.93969790858E+01  0.66463268348E+01  0.22133254328E+02  0.24947100508E+02  0.51100000000E-03 0.  1.
        -12    1    4    4    0    0 -0.31913999737E+01  0.40998922305E+00 -0.41161421524E+01  0.52245335844E+01  0.00000000000E+00 0.  1.
</event>
<event>
 8    1  0.1615837E-013  0.9118800E+02  0.7816164E-02  0.1184000E+00
        -11   -1    0    0    0    0  0.00000000000E+00  0.00000000000E+00  0.45593999997E+02  0.45594000000E+02  0.51100000000E-03 0. -1.
         11   -1    0    0    0    0 -0.00000000000E+00 -0.00000000000E+00 -0.45593999997E+02  0.45594000000E+02  0.51100000000E-03 0.  1.
         23    2    1    2    0    0  0.00000000000E+00  0.00000000000E+00  0.00000000000E+00  0.91188000000E+02  0.91188000000E+02 0.  0.
    9900012    2    3    3    0    0 -0.11244729844E+02  0.16760461758E+02 -0.35296010257E+02  0.50528863663E+02  0.30000011591E+02 0.  0.
         12    1    3    3    0    0  0.11244729844E+02 -0.16760461758E+02  0.35296010257E+02  0.40659136337E+02  0.00000000000E+00 0. -1.
         11    1    4    4    0    0 -0.88993059748E+01  0.48333872927E+01 -0.66980047551E+01  0.12141768714E+02  0.51100000000E-03 0. -1.
        -11    1    4    4    0    0 -0.65054843364E+01  0.15561332838E+02 -0.11487050602E+02  0.20406585652E+02  0.51100000000E-03 0.  1.
        -12    1    4    4    0    0  0.41600604673E+01 -0.36342583729E+01 -0.17110954899E+02  0.17980509297E+02  0.00000000000E+00 0.  1.
</event>
<event>
 8    1  0.1615837E-013  0.9118800E+02  0.7816164E-02  0.1184000E+00
        -11   -1    0    0    0    0  0.00000000000E+00  0.00000000000E+00  0.45593999997E+02  0.45594000000E+02  0.51100000000E-03 0.  1.
         11   -1    0    0    0    0 -0.00000000000E+00 -0.00000000000E+00 -0.45593999997E+02  0.45594000000E+02  0.51100000000E-03 0. -1.
         23    2    1    2    0    0  0.00000000000E+00  0.00000000000E+00  0.35527136788E-14  0.91188000000E+02  0.91188000000E+02 0.  0.
    9900012    2    3    3    0    0  0.85690197278E+01 -0.34754309315E+02  0.19284074230E+02  0.50528860389E+02  0.30000001637E+02 0.  0.
        -12    1    3    3    0    0 -0.85690197278E+01  0.34754309315E+02 -0.19284074230E+02  0.40659139611E+02  0.00000000000E+00 0.  1.
         11    1    4    4    0    0  0.35204029527E+01 -0.75235069805E+01 -0.63097171354E+01  0.10431151654E+02  0.51100000000E-03 0. -1.
        -11    1    4    4    0    0  0.26394999369E+01 -0.32339712909E+01 -0.90043936477E+00  0.42704006297E+01  0.51100000000E-03 0.  1.
         12    1    4    4    0    0  0.24091168382E+01 -0.23996831043E+02  0.26494230730E+02  0.35827308105E+02  0.00000000000E+00 0. -1.
</event>
<event>
 8    1  0.1615837E-013  0.9118800E+02  0.7816164E-02  0.1184000E+00
        -11   -1    0    0    0    0  0.00000000000E+00  0.00000000000E+00  0.45593999997E+02  0.45594000000E+02  0.51100000000E-03 0. -1.
         11   -1    0    0    0    0 -0.00000000000E+00 -0.00000000000E+00 -0.45593999997E+02  0.45594000000E+02  0.51100000000E-03 0.  1.
         23    2    1    2    0    0 -0.17763568394E-14  0.17763568394E-14  0.00000000000E+00  0.91188000000E+02  0.91188000000E+02 0.  0.
    9900012    2    3    3    0    0 -0.83043933100E+01  0.95992674467E+01  0.38627152764E+02  0.50528858169E+02  0.29999994890E+02 0.  0.
        -12    1    3    3    0    0  0.83043933100E+01 -0.95992674467E+01 -0.38627152764E+02  0.40659141831E+02  0.00000000000E+00 0.  1.
         11    1    4    4    0    0  0.23581159116E+01 -0.55905315635E+01  0.63246275845E+01  0.87644548124E+01  0.51100000000E-03 0. -1.
        -11    1    4    4    0    0 -0.45252501970E+00 -0.43749063241E+01  0.50405944303E+01  0.66897067731E+01  0.51100000000E-03 0.  1.
        -12    1    4    4    0    0 -0.10209984202E+02  0.19564705334E+02  0.27261930750E+02  0.35074696583E+02  0.00000000000E+00 0.  1.
</event>
<event>
 8    1  0.1615837E-013  0.9118800E+02  0.7816164E-02  0.1184000E+00
        -11   -1    0    0    0    0  0.00000000000E+00  0.00000000000E+00  0.45593999997E+02  0.45594000000E+02  0.51100000000E-03 0. -1.
         11   -1    0    0    0    0 -0.00000000000E+00 -0.00000000000E+00 -0.45593999997E+02  0.45594000000E+02  0.51100000000E-03 0.  1.
         23    2    1    2    0    0  0.00000000000E+00  0.00000000000E+00  0.00000000000E+00  0.91188000000E+02  0.91188000000E+02 0.  0.
    9900012    2    3    3    0    0  0.17430095310E+02  0.26116268217E+02 -0.25832088248E+02  0.50528874685E+02  0.30000045093E+02 0.  0.
         12    1    3    3    0    0 -0.17430095310E+02 -0.26116268217E+02  0.25832088248E+02  0.40659125315E+02  0.00000000000E+00 0. -1.
         11    1    4    4    0    0  0.11085571283E+02  0.14552713214E+02 -0.43884807901E+01  0.18813030497E+02  0.51100000000E-03 0. -1.
        -11    1    4    4    0    0  0.14389476524E+01 -0.75240373895E+00  0.32813042269E+01  0.36610981171E+01  0.51100000000E-03 0.  1.
        -12    1    4    4    0    0  0.49055763748E+01  0.12315958742E+02 -0.24724911685E+02  0.28054746071E+02  0.00000000000E+00 0.  1.
</event>
<event>
 8    1  0.1615837E-013  0.9118800E+02  0.7816164E-02  0.1184000E+00
        -11   -1    0    0    0    0  0.00000000000E+00  0.00000000000E+00  0.45593999997E+02  0.45594000000E+02  0.51100000000E-03 0. -1.
         11   -1    0    0    0    0 -0.00000000000E+00 -0.00000000000E+00 -0.45593999997E+02  0.45594000000E+02  0.51100000000E-03 0.  1.
         23    2    1    2    0    0  0.00000000000E+00  0.00000000000E+00  0.35527136788E-14  0.91188000000E+02  0.91188000000E+02 0.  0.
    9900012    2    3    3    0    0  0.64297764361E+01 -0.27561712902E+02  0.29192045376E+02  0.50528861343E+02  0.30000004539E+02 0.  0.
        -12    1    3    3    0    0 -0.64297764361E+01  0.27561712902E+02 -0.29192045376E+02  0.40659138657E+02  0.00000000000E+00 0.  1.
         11    1    4    4    0    0  0.52233503700E+01 -0.14792698245E+02  0.28934365087E+02  0.32913595879E+02  0.51100000000E-03 0. -1.
        -11    1    4    4    0    0  0.16643170928E+01  0.74234545994E+00  0.32893124299E+01  0.37603995386E+01  0.51100000000E-03 0.  1.
         12    1    4    4    0    0 -0.45789102660E+00 -0.13511360116E+02 -0.30316321405E+01  0.13854865926E+02  0.00000000000E+00 0. -1.
</event>
<event>
 8    1  0.1615837E-013  0.9118800E+02  0.7816164E-02  0.1184000E+00
        -11   -1    0    0    0    0  0.00000000000E+00  0.00000000000E+00  0.45593999997E+02  0.45594000000E+02  0.51100000000E-03 0. -1.
         11   -1    0    0    0    0 -0.00000000000E+00 -0.00000000000E+00 -0.45593999997E+02  0.45594000000E+02  0.51100000000E-03 0.  1.
         23    2    1    2    0    0  0.00000000000E+00  0.00000000000E+00  0.00000000000E+00  0.91188000000E+02  0.91188000000E+02 0.  0.
    9900012    2    3    3    0    0 -0.33829845588E+02  0.13955195591E+02  0.17718839861E+02  0.50528890043E+02  0.30000091775E+02 0.  0.
        -12    1    3    3    0    0  0.33829845588E+02 -0.13955195591E+02 -0.17718839861E+02  0.40659109957E+02  0.00000000000E+00 0.  1.
         11    1    4    4    0    0 -0.16486237044E+02  0.79800955141E+01 -0.18785374830E+01  0.18412138377E+02  0.51100000000E-03 0. -1.
        -11    1    4    4    0    0 -0.89417048471E+01  0.10578960632E+02  0.51431004100E+01  0.14775654832E+02  0.51100000000E-03 0.  1.
        -12    1    4    4    0    0 -0.84019036972E+01 -0.46038605552E+01  0.14454276934E+02  0.17341096835E+02  0.00000000000E+00 0.  1.
</event>
<event>
 8    1  0.1615837E-013  0.9118800E+02  0.7816164E-02  0.1184000E+00
        -11   -1    0    0    0    0  0.00000000000E+00  0.00000000000E+00  0.45593999997E+02  0.45594000000E+02  0.51100000000E-03 0. -1.
         11   -1    0    0    0    0 -0.00000000000E+00 -0.00000000000E+00 -0.45593999997E+02  0.45594000000E+02  0.51100000000E-03 0.  1.
         23    2    1    2    0    0  0.71054273576E-14  0.00000000000E+00  0.00000000000E+00  0.91188000000E+02  0.91188000000E+02 0.  0.
    9900012    2    3    3    0    0  0.36766291307E+02  0.14098937128E+02 -0.10130438790E+02  0.50528855952E+02  0.29999988152E+02 0.  0.
         12    1    3    3    0    0 -0.36766291307E+02 -0.14098937128E+02  0.10130438790E+02  0.40659144048E+02  0.00000000000E+00 0. -1.
         11    1    4    4    0    0  0.33667410118E+01  0.71880427966E+01  0.26737747383E+01  0.83756776382E+01  0.51100000000E-03 0. -1.
        -11    1    4    4    0    0 -0.22271954876E+01  0.37814161960E+01 -0.16796195712E+01  0.46990031233E+01  0.51100000000E-03 0.  1.
        -12    1    4    4    0    0  0.35626745783E+02  0.31294781350E+01 -0.11124593957E+02  0.37454175191E+02  0.00000000000E+00 0.  1.
</event>
<event>
 8    1  0.1615837E-013  0.9118800E+02  0.7816164E-02  0.1184000E+00
        -11   -1    0    0    0    0  0.00000000000E+00  0.00000000000E+00  0.45593999997E+02  0.45594000000E+02  0.51100000000E-03 0. -1.
         11   -1    0    0    0    0 -0.00000000000E+00 -0.00000000000E+00 -0.45593999997E+02  0.45594000000E+02  0.51100000000E-03 0.  1.
         23    2    1    2    0    0 -0.17763568394E-14  0.66613381478E-15  0.00000000000E+00  0.91188000000E+02  0.91188000000E+02 0.  0.
    9900012    2    3    3    0    0  0.98911769647E+01  0.17723220131E+01 -0.39397783860E+02  0.50528906550E+02  0.30000141950E+02 0.  0.
         12    1    3    3    0    0 -0.98911769647E+01 -0.17723220131E+01  0.39397783860E+02  0.40659093450E+02  0.00000000000E+00 0. -1.
         11    1    4    4    0    0 -0.14827060080E+01  0.86318236154E+01 -0.57864018258E+01  0.10497106382E+02  0.51100000000E-03 0. -1.
        -11    1    4    4    0    0  0.13386213804E+00  0.37078629041E+01 -0.83053358406E+00  0.38020984578E+01  0.51100000000E-03 0.  1.
        -12    1    4    4    0    0  0.11240020835E+02 -0.10567364506E+02 -0.32780848450E+02  0.36229701711E+02  0.00000000000E+00 0.  1.
</event>
<event>
 8    1  0.1615837E-013  0.9118800E+02  0.7816164E-02  0.1184000E+00
        -11   -1    0    0    0    0  0.00000000000E+00  0.00000000000E+00  0.45593999997E+02  0.45594000000E+02  0.51100000000E-03 0. -1.
         11   -1    0    0    0    0 -0.00000000000E+00 -0.00000000000E+00 -0.45593999997E+02  0.45594000000E+02  0.51100000000E-03 0.  1.
         23    2    1    2    0    0  0.00000000000E+00 -0.35527136788E-14  0.00000000000E+00  0.91188000000E+02  0.91188000000E+02 0.  0.
    9900012    2    3    3    0    0  0.25817605240E+02  0.17814760025E+02 -0.25869873180E+02  0.50528871217E+02  0.30000034551E+02 0.  0.
         12    1    3    3    0    0 -0.25817605240E+02 -0.17814760025E+02  0.25869873180E+02  0.40659128783E+02  0.00000000000E+00 0. -1.
         11    1    4    4    0    0  0.27150086590E+01  0.88182813383E+01 -0.22423704032E+00  0.92294983770E+01  0.51100000000E-03 0. -1.
        -11    1    4    4    0    0  0.20371134508E+02  0.39926610971E+01 -0.71666162030E+01  0.21960984765E+02  0.51100000000E-03 0.  1.
        -12    1    4    4    0    0  0.27314620731E+01  0.50038175891E+01 -0.18479019937E+02  0.19338388075E+02  0.00000000000E+00 0.  1.
</event>
<event>
 8    1  0.1615837E-013  0.9118800E+02  0.7816164E-02  0.1184000E+00
        -11   -1    0    0    0    0  0.00000000000E+00  0.00000000000E+00  0.45593999997E+02  0.45594000000E+02  0.51100000000E-03 0.  1.
         11   -1    0    0    0    0 -0.00000000000E+00 -0.00000000000E+00 -0.45593999997E+02  0.45594000000E+02  0.51100000000E-03 0. -1.
         23    2    1    2    0    0  0.71054273576E-14 -0.35527136788E-14 -0.35527136788E-14  0.91188000000E+02  0.91188000000E+02 0.  0.
    9900012    2    3    3    0    0 -0.33568200629E+02  0.15681837533E+02  0.16745779027E+02  0.50528865269E+02  0.30000016471E+02 0.  0.
        -12    1    3    3    0    0  0.33568200629E+02 -0.15681837533E+02 -0.16745779027E+02  0.40659134731E+02  0.00000000000E+00 0.  1.
         11    1    4    4    0    0 -0.24388559460E+02  0.23442928334E-01  0.74308201195E+01  0.25495479404E+02  0.51100000000E-03 0. -1.
        -11    1    4    4    0    0 -0.43418716971E+01 -0.88105459250E+00  0.60429955925E+01  0.74930569877E+01  0.51100000000E-03 0.  1.
         12    1    4    4    0    0 -0.48377694716E+01  0.16539449197E+02  0.32719633149E+01  0.17540328877E+02  0.00000000000E+00 0. -1.
</event>
<event>
 8    1  0.1615837E-013  0.9118800E+02  0.7816164E-02  0.1184000E+00
        -11   -1    0    0    0    0  0.00000000000E+00  0.00000000000E+00  0.45593999997E+02  0.45594000000E+02  0.51100000000E-03 0. -1.
         11   -1    0    0    0    0 -0.00000000000E+00 -0.00000000000E+00 -0.45593999997E+02  0.45594000000E+02  0.51100000000E-03 0.  1.
         23    2    1    2    0    0  0.44408920985E-15  0.17763568394E-14  0.71054273576E-14  0.91188000000E+02  0.91188000000E+02 0.  0.
    9900012    2    3    3    0    0 -0.13469898473E+01 -0.13720925684E+02 -0.38250340182E+02  0.50528847189E+02  0.29999961514E+02 0.  0.
         12    1    3    3    0    0  0.13469898473E+01  0.13720925684E+02  0.38250340182E+02  0.40659152811E+02  0.00000000000E+00 0. -1.
         11    1    4    4    0    0 -0.43096459846E+01  0.93188289826E+00 -0.10819064197E+01  0.45400414107E+01  0.51100000000E-03 0. -1.
        -11    1    4    4    0    0  0.32815741900E+01  0.52627199295E+01 -0.42673685892E+01  0.75283055967E+01  0.51100000000E-03 0.  1.
        -12    1    4    4    0    0 -0.31891805269E+00 -0.19915528512E+02 -0.32901065173E+02  0.38460500181E+02  0.00000000000E+00 0.  1.
</event>
<event>
 8    1  0.1615837E-013  0.9118800E+02  0.7816164E-02  0.1184000E+00
        -11   -1    0    0    0    0  0.00000000000E+00  0.00000000000E+00  0.45593999997E+02  0.45594000000E+02  0.51100000000E-03 0. -1.
         11   -1    0    0    0    0 -0.00000000000E+00 -0.00000000000E+00 -0.45593999997E+02  0.45594000000E+02  0.51100000000E-03 0.  1.
         23    2    1    2    0    0  0.17763568394E-14  0.00000000000E+00 -0.17763568394E-14  0.91188000000E+02  0.91188000000E+02 0.  0.
    9900012    2    3    3    0    0 -0.12351365102E+02  0.37128582559E+02  0.11048880896E+02  0.50528860416E+02  0.30000001719E+02 0.  0.
        -12    1    3    3    0    0  0.12351365102E+02 -0.37128582559E+02 -0.11048880896E+02  0.40659139584E+02  0.00000000000E+00 0.  1.
         11    1    4    4    0    0 -0.41423503489E+01  0.24510364736E+02  0.14592465380E+02  0.28824591793E+02  0.51100000000E-03 0. -1.
        -11    1    4    4    0    0 -0.92107198533E+01  0.15563326771E+02 -0.41012939846E+01  0.18543869958E+02  0.51100000000E-03 0.  1.
        -12    1    4    4    0    0  0.10017051007E+01 -0.29451089490E+01  0.55770950026E+00  0.31603986642E+01  0.00000000000E+00 0.  1.
</event>
<event>
 8    1  0.1615837E-013  0.9118800E+02  0.7816164E-02  0.1184000E+00
        -11   -1    0    0    0    0  0.00000000000E+00  0.00000000000E+00  0.45593999997E+02  0.45594000000E+02  0.51100000000E-03 0. -1.
         11   -1    0    0    0    0 -0.00000000000E+00 -0.00000000000E+00 -0.45593999997E+02  0.45594000000E+02  0.51100000000E-03 0.  1.
         23    2    1    2    0    0  0.00000000000E+00  0.00000000000E+00  0.00000000000E+00  0.91188000000E+02  0.91188000000E+02 0.  0.
    9900012    2    3    3    0    0  0.13079827518E+02  0.23689989115E+02  0.30345813950E+02  0.50528857161E+02  0.29999991826E+02 0.  0.
        -12    1    3    3    0    0 -0.13079827518E+02 -0.23689989115E+02 -0.30345813950E+02  0.40659142839E+02  0.00000000000E+00 0.  1.
         11    1    4    4    0    0  0.55741904193E+01  0.13193919812E+00  0.66442229291E+01  0.86737941742E+01  0.51100000000E-03 0. -1.
        -11    1    4    4    0    0 -0.78863831739E+01  0.53254615847E+01  0.11894612067E+02  0.15232773127E+02  0.51100000000E-03 0.  1.
        -12    1    4    4    0    0  0.15392020273E+02  0.18232588332E+02  0.11806978953E+02  0.26622289859E+02  0.00000000000E+00 0.  1.
</event>
<event>
 8    1  0.1615837E-013  0.9118800E+02  0.7816164E-02  0.1184000E+00
        -11   -1    0    0    0    0  0.00000000000E+00  0.00000000000E+00  0.45593999997E+02  0.45594000000E+02  0.51100000000E-03 0. -1.
         11   -1    0    0    0    0 -0.00000000000E+00 -0.00000000000E+00 -0.45593999997E+02  0.45594000000E+02  0.51100000000E-03 0.  1.
         23    2    1    2    0    0  0.00000000000E+00  0.00000000000E+00 -0.11102230246E-14  0.91188000000E+02  0.91188000000E+02 0.  0.
    9900012    2    3    3    0    0  0.11000290621E+02 -0.39135082295E+02 -0.77767728487E+00  0.50528857830E+02  0.29999993861E+02 0.  0.
        -12    1    3    3    0    0 -0.11000290621E+02  0.39135082295E+02  0.77767728487E+00  0.40659142170E+02  0.00000000000E+00 0.  1.
         11    1    4    4    0    0 -0.15941260365E+01 -0.19083655521E+02  0.54000678189E+01  0.19896931386E+02  0.51100000000E-03 0. -1.
        -11    1    4    4    0    0 -0.24759518381E+01 -0.96984053652E+01 -0.71834856938E+01  0.12320384373E+02  0.51100000000E-03 0.  1.
        -12    1    4    4    0    0  0.15070368496E+02 -0.10353021409E+02  0.10057405900E+01  0.18311542071E+02  0.00000000000E+00 0.  1.
</event>
<event>
 8    1  0.1892588E-013  0.9118800E+02  0.7816164E-02  0.1184000E+00
        -11   -1    0    0    0    0  0.00000000000E+00  0.00000000000E+00  0.45593999997E+02  0.45594000000E+02  0.51100000000E-03 0. -1.
         11   -1    0    0    0    0 -0.00000000000E+00 -0.00000000000E+00 -0.45593999997E+02  0.45594000000E+02  0.51100000000E-03 0.  1.
         23    2    1    2    0    0  0.35527136788E-14 -0.17763568394E-14  0.00000000000E+00  0.91188000000E+02  0.91188000000E+02 0.  0.
    9900012    2    3    3    0    0 -0.21152110418E+02  0.10931272478E+02  0.32958472287E+02  0.50528863405E+02  0.30000010806E+02 0.  0.
        -12    1    3    3    0    0  0.21152110418E+02 -0.10931272478E+02 -0.32958472287E+02  0.40659136595E+02  0.00000000000E+00 0.  1.
         11    1    4    4    0    0 -0.18464305763E+02  0.35947316855E+01  0.16068732292E+02  0.24739782556E+02  0.51100000000E-03 0. -1.
        -11    1    4    4    0    0 -0.73380391677E+01 -0.31362569105E+01  0.78481520780E+01  0.11192694829E+02  0.51100000000E-03 0.  1.
        -12    1    4    4    0    0  0.46502345132E+01  0.10472797703E+02  0.90415879175E+01  0.14596386020E+02  0.00000000000E+00 0.  1.
</event>
<event>
 8    1  0.1615837E-013  0.9118800E+02  0.7816164E-02  0.1184000E+00
        -11   -1    0    0    0    0  0.00000000000E+00  0.00000000000E+00  0.45593999997E+02  0.45594000000E+02  0.51100000000E-03 0. -1.
         11   -1    0    0    0    0 -0.00000000000E+00 -0.00000000000E+00 -0.45593999997E+02  0.45594000000E+02  0.51100000000E-03 0.  1.
         23    2    1    2    0    0  0.00000000000E+00  0.00000000000E+00  0.00000000000E+00  0.91188000000E+02  0.91188000000E+02 0.  0.
    9900012    2    3    3    0    0  0.12175503163E+02  0.26836850074E+02 -0.28012606083E+02  0.50528862051E+02  0.30000006691E+02 0.  0.
         12    1    3    3    0    0 -0.12175503163E+02 -0.26836850074E+02  0.28012606083E+02  0.40659137949E+02  0.00000000000E+00 0. -1.
         11    1    4    4    0    0  0.19165043186E+01 -0.35311026463E+01  0.98490037036E+00  0.41366295100E+01  0.51100000000E-03 0. -1.
        -11    1    4    4    0    0  0.11857305134E+01  0.60470418367E+01  0.15010198747E+01  0.63423759547E+01  0.51100000000E-03 0.  1.
        -12    1    4    4    0    0  0.90732683308E+01  0.24320910884E+02 -0.30498526328E+02  0.40049856587E+02  0.00000000000E+00 0.  1.
</event>
<event>
 8    1  0.1615837E-013  0.9118800E+02  0.7816164E-02  0.1184000E+00
        -11   -1    0    0    0    0  0.00000000000E+00  0.00000000000E+00  0.45593999997E+02  0.45594000000E+02  0.51100000000E-03 0. -1.
         11   -1    0    0    0    0 -0.00000000000E+00 -0.00000000000E+00 -0.45593999997E+02  0.45594000000E+02  0.51100000000E-03 0.  1.
         23    2    1    2    0    0 -0.35527136788E-14  0.00000000000E+00  0.00000000000E+00  0.91188000000E+02  0.91188000000E+02 0.  0.
    9900012    2    3    3    0    0 -0.30316885552E+02  0.25545017055E+02 -0.90276216989E+01  0.50528937057E+02  0.30000234677E+02 0.  0.
         12    1    3    3    0    0  0.30316885552E+02 -0.25545017055E+02  0.90276216989E+01  0.40659062943E+02  0.00000000000E+00 0. -1.
         11    1    4    4    0    0 -0.68729769698E+01 -0.73753574938E+00  0.26342976266E+00  0.69174537881E+01  0.51100000000E-03 0. -1.
        -11    1    4    4    0    0 -0.25151111701E+02  0.12603624775E+02 -0.98720074317E+01  0.29814196421E+02  0.51100000000E-03 0.  1.
         12    1    4    4    0    0  0.17072031187E+01  0.13678928029E+02  0.58095597013E+00  0.13797286848E+02  0.00000000000E+00 0. -1.
</event>
<event>
 8    1  0.1615837E-013  0.9118800E+02  0.7816164E-02  0.1184000E+00
        -11   -1    0    0    0    0  0.00000000000E+00  0.00000000000E+00  0.45593999997E+02  0.45594000000E+02  0.51100000000E-03 0. -1.
         11   -1    0    0    0    0 -0.00000000000E+00 -0.00000000000E+00 -0.45593999997E+02  0.45594000000E+02  0.51100000000E-03 0.  1.
         23    2    1    2    0    0  0.88817841970E-15  0.71054273576E-14 -0.17763568394E-14  0.91188000000E+02  0.91188000000E+02 0.  0.
    9900012    2    3    3    0    0  0.49756502823E+01  0.38397050266E+02  0.12412662349E+02  0.50528871241E+02  0.30000034624E+02 0.  0.
        -12    1    3    3    0    0 -0.49756502823E+01 -0.38397050266E+02 -0.12412662349E+02  0.40659128759E+02  0.00000000000E+00 0.  1.
         11    1    4    4    0    0  0.54227627462E+01  0.97543352312E+01 -0.10073072630E+01  0.11205716389E+02  0.51100000000E-03 0. -1.
        -11    1    4    4    0    0  0.52413504020E+01  0.14505945141E+02 -0.42415741413E+01  0.15996410532E+02  0.51100000000E-03 0.  1.
         12    1    4    4    0    0 -0.56884628658E+01  0.14136769894E+02  0.17661543753E+02  0.23326744320E+02  0.00000000000E+00 0. -1.
</event>
<event>
 8    1  0.1615837E-013  0.9118800E+02  0.7816164E-02  0.1184000E+00
        -11   -1    0    0    0    0  0.00000000000E+00  0.00000000000E+00  0.45593999997E+02  0.45594000000E+02  0.51100000000E-03 0. -1.
         11   -1    0    0    0    0 -0.00000000000E+00 -0.00000000000E+00 -0.45593999997E+02  0.45594000000E+02  0.51100000000E-03 0.  1.
         23    2    1    2    0    0 -0.35527136788E-14  0.35527136788E-14 -0.35527136788E-14  0.91188000000E+02  0.91188000000E+02 0.  0.
    9900012    2    3    3    0    0 -0.27479444251E+02  0.21362686523E+02 -0.21016200634E+02  0.50528869157E+02  0.30000028290E+02 0.  0.
         12    1    3    3    0    0  0.27479444251E+02 -0.21362686523E+02  0.21016200634E+02  0.40659130843E+02  0.00000000000E+00 0. -1.
         11    1    4    4    0    0 -0.30479672875E+02  0.18127359024E+02 -0.11108172792E+02  0.37161850153E+02  0.51100000000E-03 0. -1.
        -11    1    4    4    0    0  0.18498166619E+01 -0.19748365112E+01 -0.81817547149E+00  0.28268732359E+01  0.51100000000E-03 0.  1.
        -12    1    4    4    0    0  0.11504119627E+01  0.52101640105E+01 -0.90898523705E+01  0.10540145768E+02  0.00000000000E+00 0.  1.
</event>
<event>
 8    1  0.1615837E-013  0.9118800E+02  0.7816164E-02  0.1184000E+00
        -11   -1    0    0    0    0  0.00000000000E+00  0.00000000000E+00  0.45593999997E+02  0.45594000000E+02  0.51100000000E-03 0. -1.
         11   -1    0    0    0    0 -0.00000000000E+00 -0.00000000000E+00 -0.45593999997E+02  0.45594000000E+02  0.51100000000E-03 0.  1.
         23    2    1    2    0    0 -0.35527136788E-14  0.00000000000E+00 -0.35527136788E-14  0.91188000000E+02  0.91188000000E+02 0.  0.
    9900012    2    3    3    0    0 -0.21454029539E+02 -0.15225120013E+02 -0.31001399586E+02  0.50528850487E+02  0.29999971539E+02 0.  0.
         12    1    3    3    0    0  0.21454029539E+02  0.15225120013E+02  0.31001399586E+02  0.40659149513E+02  0.00000000000E+00 0. -1.
         11    1    4    4    0    0 -0.18450505225E+01  0.53593087349E+01 -0.75223616177E+01  0.94187221062E+01  0.51100000000E-03 0. -1.
        -11    1    4    4    0    0 -0.15602395895E+02 -0.39005318426E+01 -0.14911756659E+02  0.21931926345E+02  0.51100000000E-03 0.  1.
         12    1    4    4    0    0 -0.40065831220E+01 -0.16683896905E+02 -0.85672813092E+01  0.19178202035E+02  0.00000000000E+00 0. -1.
</event>
<event>
 8    1  0.1615837E-013  0.9118800E+02  0.7816164E-02  0.1184000E+00
        -11   -1    0    0    0    0  0.00000000000E+00  0.00000000000E+00  0.45593999997E+02  0.45594000000E+02  0.51100000000E-03 0.  1.
         11   -1    0    0    0    0 -0.00000000000E+00 -0.00000000000E+00 -0.45593999997E+02  0.45594000000E+02  0.51100000000E-03 0. -1.
         23    2    1    2    0    0  0.00000000000E+00  0.00000000000E+00 -0.17763568394E-14  0.91188000000E+02  0.91188000000E+02 0.  0.
    9900012    2    3    3    0    0  0.29853498443E+02  0.25354996949E+02  0.10911411965E+02  0.50528854035E+02  0.29999982323E+02 0.  0.
        -12    1    3    3    0    0 -0.29853498443E+02 -0.25354996949E+02 -0.10911411965E+02  0.40659145965E+02  0.00000000000E+00 0.  1.
         11    1    4    4    0    0  0.46114019200E+01  0.89850442053E+01 -0.23159282780E+01  0.10361446380E+02  0.51100000000E-03 0. -1.
        -11    1    4    4    0    0  0.82261798975E+01  0.35113393657E+01 -0.65458434207E+01  0.11083663934E+02  0.51100000000E-03 0.  1.
        -12    1    4    4    0    0  0.17015916626E+02  0.12858613378E+02  0.19773183664E+02  0.29083743721E+02  0.00000000000E+00 0.  1.
</event>
<event>
 8    1  0.1615837E-013  0.9118800E+02  0.7816164E-02  0.1184000E+00
        -11   -1    0    0    0    0  0.00000000000E+00  0.00000000000E+00  0.45593999997E+02  0.45594000000E+02  0.51100000000E-03 0. -1.
         11   -1    0    0    0    0 -0.00000000000E+00 -0.00000000000E+00 -0.45593999997E+02  0.45594000000E+02  0.51100000000E-03 0.  1.
         23    2    1    2    0    0 -0.22204460493E-15  0.35527136788E-14  0.71054273576E-14  0.91188000000E+02  0.91188000000E+02 0.  0.
    9900012    2    3    3    0    0 -0.16814517290E+01  0.17090287462E+02 -0.36854586300E+02  0.50528859124E+02  0.29999997793E+02 0.  0.
         12    1    3    3    0    0  0.16814517290E+01 -0.17090287462E+02  0.36854586300E+02  0.40659140876E+02  0.00000000000E+00 0. -1.
         11    1    4    4    0    0 -0.59057950698E+01  0.39385282821E+01 -0.76313089762E+01  0.10422442007E+02  0.51100000000E-03 0.  1.
        -11    1    4    4    0    0 -0.65858136132E+01 -0.16607960240E+01 -0.16340260572E+02  0.17695629410E+02  0.51100000000E-03 0. -1.
        -12    1    4    4    0    0  0.10810156954E+02  0.14812555203E+02 -0.12883016752E+02  0.22410787707E+02  0.00000000000E+00 0.  1.
</event>
<event>
 8    1  0.1615837E-013  0.9118800E+02  0.7816164E-02  0.1184000E+00
        -11   -1    0    0    0    0  0.00000000000E+00  0.00000000000E+00  0.45593999997E+02  0.45594000000E+02  0.51100000000E-03 0. -1.
         11   -1    0    0    0    0 -0.00000000000E+00 -0.00000000000E+00 -0.45593999997E+02  0.45594000000E+02  0.51100000000E-03 0.  1.
         23    2    1    2    0    0  0.35527136788E-14  0.35527136788E-14  0.00000000000E+00  0.91188000000E+02  0.91188000000E+02 0.  0.
    9900012    2    3    3    0    0  0.19702509002E+02 -0.14772475687E+02  0.32353525089E+02  0.50528862225E+02  0.30000007220E+02 0.  0.
        -12    1    3    3    0    0 -0.19702509002E+02  0.14772475687E+02 -0.32353525089E+02  0.40659137775E+02  0.00000000000E+00 0.  1.
         11    1    4    4    0    0  0.16221688105E+02 -0.16616725963E+02  0.13896014387E+02  0.27062113051E+02  0.51100000000E-03 0. -1.
        -11    1    4    4    0    0  0.59491899327E+00 -0.12475134105E+00 -0.23196206449E+01  0.23979432234E+01  0.51100000000E-03 0.  1.
        -12    1    4    4    0    0  0.28859019042E+01  0.19690016172E+01  0.20777131347E+02  0.21068805950E+02  0.00000000000E+00 0.  1.
</event>
<event>
 8    1  0.1615837E-013  0.9118800E+02  0.7816164E-02  0.1184000E+00
        -11   -1    0    0    0    0  0.00000000000E+00  0.00000000000E+00  0.45593999997E+02  0.45594000000E+02  0.51100000000E-03 0.  1.
         11   -1    0    0    0    0 -0.00000000000E+00 -0.00000000000E+00 -0.45593999997E+02  0.45594000000E+02  0.51100000000E-03 0. -1.
         23    2    1    2    0    0  0.00000000000E+00  0.00000000000E+00  0.13877787808E-16  0.91188000000E+02  0.91188000000E+02 0.  0.
    9900012    2    3    3    0    0  0.39730353244E+02  0.86407103385E+01  0.59682215880E-01  0.50528850895E+02  0.29999972779E+02 0.  0.
        -12    1    3    3    0    0 -0.39730353244E+02 -0.86407103385E+01 -0.59682215880E-01  0.40659149105E+02  0.00000000000E+00 0.  1.
         11    1    4    4    0    0 -0.16393471108E+01  0.13303946012E+01 -0.11409606905E+01  0.23998333907E+01  0.51100000000E-03 0. -1.
        -11    1    4    4    0    0 -0.28421643677E+01 -0.12070781039E+01  0.16525234220E+00  0.30922878972E+01  0.51100000000E-03 0.  1.
         12    1    4    4    0    0  0.44211864722E+02  0.85173938411E+01  0.10353905642E+01  0.45036729607E+02  0.00000000000E+00 0. -1.
</event>
<event>
 8    1  0.1615837E-013  0.9118800E+02  0.7816164E-02  0.1184000E+00
        -11   -1    0    0    0    0  0.00000000000E+00  0.00000000000E+00  0.45593999997E+02  0.45594000000E+02  0.51100000000E-03 0. -1.
         11   -1    0    0    0    0 -0.00000000000E+00 -0.00000000000E+00 -0.45593999997E+02  0.45594000000E+02  0.51100000000E-03 0.  1.
         23    2    1    2    0    0  0.00000000000E+00  0.35527136788E-14  0.00000000000E+00  0.91188000000E+02  0.91188000000E+02 0.  0.
    9900012    2    3    3    0    0  0.15689398674E+02 -0.25853257088E+02 -0.27177481231E+02  0.50528885169E+02  0.30000076960E+02 0.  0.
         12    1    3    3    0    0 -0.15689398674E+02  0.25853257088E+02  0.27177481231E+02  0.40659114831E+02  0.00000000000E+00 0. -1.
         11    1    4    4    0    0 -0.12434099056E+01 -0.83952339167E+00  0.40385681028E+01  0.43082363330E+01  0.51100000000E-03 0. -1.
        -11    1    4    4    0    0  0.22345169163E+01 -0.95275831948E+00 -0.11652420852E+02  0.11902929313E+02  0.51100000000E-03 0.  1.
        -12    1    4    4    0    0  0.14698291663E+02 -0.24060975376E+02 -0.19563628482E+02  0.34317719523E+02  0.00000000000E+00 0.  1.
</event>
<event>
 8    1  0.1615837E-013  0.9118800E+02  0.7816164E-02  0.1184000E+00
        -11   -1    0    0    0    0  0.00000000000E+00  0.00000000000E+00  0.45593999997E+02  0.45594000000E+02  0.51100000000E-03 0. -1.
         11   -1    0    0    0    0 -0.00000000000E+00 -0.00000000000E+00 -0.45593999997E+02  0.45594000000E+02  0.51100000000E-03 0.  1.
         23    2    1    2    0    0  0.88817841970E-15  0.35527136788E-14  0.00000000000E+00  0.91188000000E+02  0.91188000000E+02 0.  0.
    9900012    2    3    3    0    0 -0.27959055093E+01 -0.25043447595E+02 -0.31908837818E+02  0.50528864668E+02  0.30000014645E+02 0.  0.
         12    1    3    3    0    0  0.27959055093E+01  0.25043447595E+02  0.31908837818E+02  0.40659135332E+02  0.00000000000E+00 0. -1.
         11    1    4    4    0    0  0.44395159818E+01  0.60295903964E+00  0.22681749445E+01  0.50217008668E+01  0.51100000000E-03 0. -1.
        -11    1    4    4    0    0 -0.12760285607E+01 -0.76551965475E+01 -0.17623260666E+01  0.79583966033E+01  0.51100000000E-03 0.  1.
         12    1    4    4    0    0 -0.59593929304E+01 -0.17991210087E+02 -0.32414686696E+02  0.37548767198E+02  0.00000000000E+00 0. -1.
</event>
<event>
 8    1  0.1615837E-013  0.9118800E+02  0.7816164E-02  0.1184000E+00
        -11   -1    0    0    0    0  0.00000000000E+00  0.00000000000E+00  0.45593999997E+02  0.45594000000E+02  0.51100000000E-03 0. -1.
         11   -1    0    0    0    0 -0.00000000000E+00 -0.00000000000E+00 -0.45593999997E+02  0.45594000000E+02  0.51100000000E-03 0.  1.
         23    2    1    2    0    0  0.35527136788E-14  0.00000000000E+00  0.17763568394E-14  0.91188000000E+02  0.91188000000E+02 0.  0.
    9900012    2    3    3    0    0  0.14857093899E+02  0.34572192341E+02  0.15401169706E+02  0.50528858953E+02  0.29999997273E+02 0.  0.
        -12    1    3    3    0    0 -0.14857093899E+02 -0.34572192341E+02 -0.15401169706E+02  0.40659141047E+02  0.00000000000E+00 0.  1.
         11    1    4    4    0    0 -0.46119716910E+00  0.86725500212E+01 -0.29825032325E+01  0.91826549805E+01  0.51100000000E-03 0. -1.
        -11    1    4    4    0    0 -0.36883946798E+01  0.11931849218E+02  0.20507569942E+01  0.12656179739E+02  0.51100000000E-03 0.  1.
        -12    1    4    4    0    0  0.19006685748E+02  0.13967793102E+02  0.16332915944E+02  0.28690024233E+02  0.00000000000E+00 0.  1.
</event>
<event>
 8    1  0.1615837E-013  0.9118800E+02  0.7816164E-02  0.1184000E+00
        -11   -1    0    0    0    0  0.00000000000E+00  0.00000000000E+00  0.45593999997E+02  0.45594000000E+02  0.51100000000E-03 0.  1.
         11   -1    0    0    0    0 -0.00000000000E+00 -0.00000000000E+00 -0.45593999997E+02  0.45594000000E+02  0.51100000000E-03 0. -1.
         23    2    1    2    0    0  0.00000000000E+00  0.00000000000E+00 -0.12212453271E-14  0.91188000000E+02  0.91188000000E+02 0.  0.
    9900012    2    3    3    0    0 -0.38013605078E+02  0.14414402433E+02  0.59726383382E+00  0.50528857207E+02  0.29999991967E+02 0.  0.
         12    1    3    3    0    0  0.38013605078E+02 -0.14414402433E+02 -0.59726383382E+00  0.40659142793E+02  0.00000000000E+00 0. -1.
         11    1    4    4    0    0 -0.24425562359E+02  0.12695631301E+02 -0.37177891412E+01  0.27777852816E+02  0.51100000000E-03 0. -1.
        -11    1    4    4    0    0 -0.43569532625E+01  0.74368726624E+01 -0.35722871184E+01  0.93301314163E+01  0.51100000000E-03 0.  1.
         12    1    4    4    0    0 -0.92310894567E+01 -0.57181015304E+01  0.78873400935E+01  0.13420872975E+02  0.00000000000E+00 0. -1.
</event>
<event>
 8    1  0.1615837E-013  0.9118800E+02  0.7816164E-02  0.1184000E+00
        -11   -1    0    0    0    0  0.00000000000E+00  0.00000000000E+00  0.45593999997E+02  0.45594000000E+02  0.51100000000E-03 0. -1.
         11   -1    0    0    0    0 -0.00000000000E+00 -0.00000000000E+00 -0.45593999997E+02  0.45594000000E+02  0.51100000000E-03 0.  1.
         23    2    1    2    0    0  0.00000000000E+00 -0.44408920985E-15  0.35527136788E-14  0.91188000000E+02  0.91188000000E+02 0.  0.
    9900012    2    3    3    0    0 -0.32119721627E+02 -0.10321620567E+01  0.24908296419E+02  0.50528866876E+02  0.30000021356E+02 0.  0.
        -12    1    3    3    0    0  0.32119721627E+02  0.10321620567E+01 -0.24908296419E+02  0.40659133124E+02  0.00000000000E+00 0.  1.
         11    1    4    4    0    0 -0.15461643335E+02 -0.11606030616E+02  0.22915392582E+02  0.29981287143E+02  0.51100000000E-03 0. -1.
        -11    1    4    4    0    0 -0.49053511635E+01  0.11742741249E+01  0.21856392442E+01  0.54971273338E+01  0.51100000000E-03 0.  1.
        -12    1    4    4    0    0 -0.11752727128E+02  0.93995944346E+01 -0.19273540746E+00  0.15050452399E+02  0.00000000000E+00 0.  1.
</event>
<event>
 8    1  0.1615837E-013  0.9118800E+02  0.7816164E-02  0.1184000E+00
        -11   -1    0    0    0    0  0.00000000000E+00  0.00000000000E+00  0.45593999997E+02  0.45594000000E+02  0.51100000000E-03 0. -1.
         11   -1    0    0    0    0 -0.00000000000E+00 -0.00000000000E+00 -0.45593999997E+02  0.45594000000E+02  0.51100000000E-03 0.  1.
         23    2    1    2    0    0  0.00000000000E+00  0.17763568394E-14  0.44408920985E-15  0.91188000000E+02  0.91188000000E+02 0.  0.
    9900012    2    3    3    0    0 -0.39946907492E+02  0.70636628804E+01  0.27422142715E+01  0.50528800665E+02  0.29999820101E+02 0.  0.
         12    1    3    3    0    0  0.39946907492E+02 -0.70636628804E+01 -0.27422142715E+01  0.40659199335E+02  0.00000000000E+00 0. -1.
         11    1    4    4    0    0 -0.23804977738E+02  0.82382283504E+01 -0.15207830199E+01  0.25236048675E+02  0.51100000000E-03 0. -1.
        -11    1    4    4    0    0 -0.83334648236E+01  0.65979538299E+01 -0.41704364047E+01  0.11418063355E+02  0.51100000000E-03 0.  1.
         12    1    4    4    0    0 -0.78084649302E+01 -0.77725192999E+01  0.84334336961E+01  0.13874688636E+02  0.00000000000E+00 0. -1.
</event>
<event>
 8    1  0.1615837E-013  0.9118800E+02  0.7816164E-02  0.1184000E+00
        -11   -1    0    0    0    0  0.00000000000E+00  0.00000000000E+00  0.45593999997E+02  0.45594000000E+02  0.51100000000E-03 0. -1.
         11   -1    0    0    0    0 -0.00000000000E+00 -0.00000000000E+00 -0.45593999997E+02  0.45594000000E+02  0.51100000000E-03 0.  1.
         23    2    1    2    0    0  0.00000000000E+00 -0.71054273576E-14  0.35527136788E-14  0.91188000000E+02  0.91188000000E+02 0.  0.
    9900012    2    3    3    0    0  0.10344930798E+02  0.26391364722E+02 -0.29148651543E+02  0.50528860660E+02  0.30000002462E+02 0.  0.
         12    1    3    3    0    0 -0.10344930798E+02 -0.26391364722E+02  0.29148651543E+02  0.40659139340E+02  0.00000000000E+00 0. -1.
         11    1    4    4    0    0  0.48968786354E+01  0.71640699945E+00 -0.11793164137E+02  0.12789502726E+02  0.51100000000E-03 0.  1.
        -11    1    4    4    0    0  0.92356975099E+00  0.11273321690E+02 -0.19449264762E+02  0.22499214721E+02  0.51100000000E-03 0. -1.
         12    1    4    4    0    0  0.45244824119E+01  0.14401636033E+02  0.20937773567E+01  0.15240143212E+02  0.00000000000E+00 0. -1.
</event>
<event>
 8    1  0.1615837E-013  0.9118800E+02  0.7816164E-02  0.1184000E+00
        -11   -1    0    0    0    0  0.00000000000E+00  0.00000000000E+00  0.45593999997E+02  0.45594000000E+02  0.51100000000E-03 0. -1.
         11   -1    0    0    0    0 -0.00000000000E+00 -0.00000000000E+00 -0.45593999997E+02  0.45594000000E+02  0.51100000000E-03 0.  1.
         23    2    1    2    0    0  0.17763568394E-14  0.35527136788E-14  0.00000000000E+00  0.91188000000E+02  0.91188000000E+02 0.  0.
    9900012    2    3    3    0    0 -0.12645829410E+02 -0.28368261455E+02  0.26239106707E+02  0.50528856130E+02  0.29999988693E+02 0.  0.
        -12    1    3    3    0    0  0.12645829410E+02  0.28368261455E+02 -0.26239106707E+02  0.40659143870E+02  0.00000000000E+00 0.  1.
         11    1    4    4    0    0 -0.43985136500E+01 -0.15064518092E+01  0.13370857023E+02  0.14156134260E+02  0.51100000000E-03 0. -1.
        -11    1    4    4    0    0  0.54702235437E+01 -0.24360363679E+01  0.18183675376E+01  0.62581210891E+01  0.51100000000E-03 0.  1.
        -12    1    4    4    0    0 -0.13717539303E+02 -0.24425773278E+02  0.11049882147E+02  0.30114600781E+02  0.00000000000E+00 0.  1.
</event>
<event>
 8    1  0.1615837E-013  0.9118800E+02  0.7816164E-02  0.1184000E+00
        -11   -1    0    0    0    0  0.00000000000E+00  0.00000000000E+00  0.45593999997E+02  0.45594000000E+02  0.51100000000E-03 0. -1.
         11   -1    0    0    0    0 -0.00000000000E+00 -0.00000000000E+00 -0.45593999997E+02  0.45594000000E+02  0.51100000000E-03 0.  1.
         23    2    1    2    0    0 -0.60715321659E-15  0.00000000000E+00  0.71054273576E-14  0.91188000000E+02  0.91188000000E+02 0.  0.
    9900012    2    3    3    0    0  0.11519819946E-01 -0.23422476063E+02 -0.33234830576E+02  0.50528849972E+02  0.29999969974E+02 0.  0.
         12    1    3    3    0    0 -0.11519819946E-01  0.23422476063E+02  0.33234830576E+02  0.40659150028E+02  0.00000000000E+00 0. -1.
         11    1    4    4    0    0  0.28323800332E+01  0.16313689201E+01 -0.81243708910E+01  0.87572338008E+01  0.51100000000E-03 0. -1.
        -11    1    4    4    0    0  0.73753851423E+01 -0.76198803917E+01 -0.16938515218E+02  0.19984298367E+02  0.51100000000E-03 0.  1.
        -12    1    4    4    0    0 -0.10196245356E+02 -0.17433964591E+02 -0.81719444671E+01  0.21787317804E+02  0.00000000000E+00 0.  1.
</event>
<event>
 8    1  0.1615837E-013  0.9118800E+02  0.7816164E-02  0.1184000E+00
        -11   -1    0    0    0    0  0.00000000000E+00  0.00000000000E+00  0.45593999997E+02  0.45594000000E+02  0.51100000000E-03 0. -1.
         11   -1    0    0    0    0 -0.00000000000E+00 -0.00000000000E+00 -0.45593999997E+02  0.45594000000E+02  0.51100000000E-03 0.  1.
         23    2    1    2    0    0  0.00000000000E+00  0.00000000000E+00  0.00000000000E+00  0.91188000000E+02  0.91188000000E+02 0.  0.
    9900012    2    3    3    0    0  0.17215803451E+02  0.14591154692E+02  0.33821298685E+02  0.50528856767E+02  0.29999990630E+02 0.  0.
        -12    1    3    3    0    0 -0.17215803451E+02 -0.14591154692E+02 -0.33821298685E+02  0.40659143233E+02  0.00000000000E+00 0.  1.
         11    1    4    4    0    0 -0.44875806193E+01  0.53753559959E+01  0.36301454980E+01  0.78873815995E+01  0.51100000000E-03 0. -1.
        -11    1    4    4    0    0  0.61518992749E+01 -0.58032668440E+01  0.75694793041E+01  0.11349924579E+02  0.51100000000E-03 0.  1.
         12    1    4    4    0    0  0.15551484795E+02  0.15019065540E+02  0.22621673883E+02  0.31291550589E+02  0.00000000000E+00 0. -1.
</event>
<event>
 8    1  0.1615837E-013  0.9118800E+02  0.7816164E-02  0.1184000E+00
        -11   -1    0    0    0    0  0.00000000000E+00  0.00000000000E+00  0.45593999997E+02  0.45594000000E+02  0.51100000000E-03 0. -1.
         11   -1    0    0    0    0 -0.00000000000E+00 -0.00000000000E+00 -0.45593999997E+02  0.45594000000E+02  0.51100000000E-03 0.  1.
         23    2    1    2    0    0  0.88817841970E-15  0.00000000000E+00  0.00000000000E+00  0.91188000000E+02  0.91188000000E+02 0.  0.
    9900012    2    3    3    0    0 -0.32733863932E+01  0.23713042063E+02 -0.32865534340E+02  0.50528846421E+02  0.29999959181E+02 0.  0.
         12    1    3    3    0    0  0.32733863932E+01 -0.23713042063E+02  0.32865534340E+02  0.40659153579E+02  0.00000000000E+00 0. -1.
         11    1    4    4    0    0 -0.11803011657E+02  0.92199127220E+01 -0.19463356054E+02  0.24558910886E+02  0.51100000000E-03 0. -1.
        -11    1    4    4    0    0  0.47803982787E+01  0.98874667783E+01 -0.16066090261E+02  0.19461075601E+02  0.51100000000E-03 0.  1.
        -12    1    4    4    0    0  0.37492269855E+01  0.46056625626E+01  0.26639119751E+01  0.65088599340E+01  0.00000000000E+00 0.  1.
</event>
<event>
 8    1  0.1615837E-013  0.9118800E+02  0.7816164E-02  0.1184000E+00
        -11   -1    0    0    0    0  0.00000000000E+00  0.00000000000E+00  0.45593999997E+02  0.45594000000E+02  0.51100000000E-03 0. -1.
         11   -1    0    0    0    0 -0.00000000000E+00 -0.00000000000E+00 -0.45593999997E+02  0.45594000000E+02  0.51100000000E-03 0.  1.
         23    2    1    2    0    0  0.88817841970E-15  0.35527136788E-14 -0.35527136788E-14  0.91188000000E+02  0.91188000000E+02 0.  0.
    9900012    2    3    3    0    0  0.56224890254E+01  0.26924683674E+02  0.29943564002E+02  0.50528831306E+02  0.29999913237E+02 0.  0.
        -12    1    3    3    0    0 -0.56224890254E+01 -0.26924683674E+02 -0.29943564002E+02  0.40659168694E+02  0.00000000000E+00 0.  1.
         11    1    4    4    0    0  0.87626403722E+01  0.81456943584E+01  0.11544746479E+02  0.16625804474E+02  0.51100000000E-03 0. -1.
        -11    1    4    4    0    0  0.43167139576E+01  0.25488652275E+01  0.14875718105E+02  0.15697698008E+02  0.51100000000E-03 0.  1.
         12    1    4    4    0    0 -0.74568653045E+01  0.16230124088E+02  0.35230994172E+01  0.18205328824E+02  0.00000000000E+00 0. -1.
</event>
<event>
 8    1  0.1615837E-013  0.9118800E+02  0.7816164E-02  0.1184000E+00
        -11   -1    0    0    0    0  0.00000000000E+00  0.00000000000E+00  0.45593999997E+02  0.45594000000E+02  0.51100000000E-03 0. -1.
         11   -1    0    0    0    0 -0.00000000000E+00 -0.00000000000E+00 -0.45593999997E+02  0.45594000000E+02  0.51100000000E-03 0.  1.
         23    2    1    2    0    0 -0.22204460493E-15 -0.35527136788E-14  0.00000000000E+00  0.91188000000E+02  0.91188000000E+02 0.  0.
    9900012    2    3    3    0    0 -0.12404610821E+01 -0.22394215284E+02 -0.33913517689E+02  0.50528852150E+02  0.29999976594E+02 0.  0.
         12    1    3    3    0    0  0.12404610821E+01  0.22394215284E+02  0.33913517689E+02  0.40659147850E+02  0.00000000000E+00 0. -1.
         11    1    4    4    0    0  0.36721240603E+01  0.10834755026E+01  0.25358872924E+01  0.45922912473E+01  0.51100000000E-03 0. -1.
        -11    1    4    4    0    0 -0.24543352198E+01 -0.32198882394E+01  0.12932944776E+00  0.40506996942E+01  0.51100000000E-03 0.  1.
        -12    1    4    4    0    0 -0.24582499227E+01 -0.20257802547E+02 -0.36578734429E+02  0.41885861208E+02  0.00000000000E+00 0.  1.
</event>
<event>
 8    1  0.1615837E-013  0.9118800E+02  0.7816164E-02  0.1184000E+00
        -11   -1    0    0    0    0  0.00000000000E+00  0.00000000000E+00  0.45593999997E+02  0.45594000000E+02  0.51100000000E-03 0. -1.
         11   -1    0    0    0    0 -0.00000000000E+00 -0.00000000000E+00 -0.45593999997E+02  0.45594000000E+02  0.51100000000E-03 0.  1.
         23    2    1    2    0    0  0.35527136788E-14 -0.35527136788E-14 -0.35527136788E-14  0.91188000000E+02  0.91188000000E+02 0.  0.
    9900012    2    3    3    0    0  0.16983410818E+02  0.27203154007E+02  0.24994350693E+02  0.50528863296E+02  0.30000010475E+02 0.  0.
        -12    1    3    3    0    0 -0.16983410818E+02 -0.27203154007E+02 -0.24994350693E+02  0.40659136704E+02  0.00000000000E+00 0.  1.
         11    1    4    4    0    0  0.90180371125E+01  0.17517926317E+01  0.21126363031E+02  0.23037295544E+02  0.51100000000E-03 0. -1.
        -11    1    4    4    0    0  0.22095489488E+01  0.25656351752E+01  0.17139660620E+01  0.37950323230E+01  0.51100000000E-03 0.  1.
        -12    1    4    4    0    0  0.57558247565E+01  0.22885726200E+02  0.21540216003E+01  0.23696535430E+02  0.00000000000E+00 0.  1.
</event>
<event>
 8    1  0.1615837E-013  0.9118800E+02  0.7816164E-02  0.1184000E+00
        -11   -1    0    0    0    0  0.00000000000E+00  0.00000000000E+00  0.45593999997E+02  0.45594000000E+02  0.51100000000E-03 0.  1.
         11   -1    0    0    0    0 -0.00000000000E+00 -0.00000000000E+00 -0.45593999997E+02  0.45594000000E+02  0.51100000000E-03 0. -1.
         23    2    1    2    0    0  0.00000000000E+00  0.00000000000E+00  0.26645352591E-14  0.91188000000E+02  0.91188000000E+02 0.  0.
    9900012    2    3    3    0    0  0.22838344314E+02 -0.33436692183E+02 -0.36827722912E+01  0.50528866132E+02  0.30000019094E+02 0.  0.
         12    1    3    3    0    0 -0.22838344314E+02  0.33436692183E+02  0.36827722912E+01  0.40659133868E+02  0.00000000000E+00 0. -1.
         11    1    4    4    0    0  0.10661743666E+02 -0.46916100081E+01  0.43311361723E+01  0.12427498674E+02  0.51100000000E-03 0. -1.
        -11    1    4    4    0    0  0.33142232014E+01 -0.68568913230E+01  0.68127267558E+01  0.10218330595E+02  0.51100000000E-03 0.  1.
        -12    1    4    4    0    0  0.88623774464E+01 -0.21888190852E+02 -0.14826635219E+02  0.27883036863E+02  0.00000000000E+00 0.  1.
</event>
<event>
 8    1  0.1615837E-013  0.9118800E+02  0.7816164E-02  0.1184000E+00
        -11   -1    0    0    0    0  0.00000000000E+00  0.00000000000E+00  0.45593999997E+02  0.45594000000E+02  0.51100000000E-03 0.  1.
         11   -1    0    0    0    0 -0.00000000000E+00 -0.00000000000E+00 -0.45593999997E+02  0.45594000000E+02  0.51100000000E-03 0. -1.
         23    2    1    2    0    0  0.00000000000E+00  0.88817841970E-15  0.17763568394E-14  0.91188000000E+02  0.91188000000E+02 0.  0.
    9900012    2    3    3    0    0  0.39362207704E+02  0.74457595531E+01 -0.69529542031E+01  0.50528852163E+02  0.29999976635E+02 0.  0.
         12    1    3    3    0    0 -0.39362207704E+02 -0.74457595531E+01  0.69529542031E+01  0.40659147837E+02  0.00000000000E+00 0. -1.
         11    1    4    4    0    0  0.10917881259E+02 -0.56737015738E+01 -0.29648743787E+01  0.12656283067E+02  0.51100000000E-03 0.  1.
        -11    1    4    4    0    0  0.56721642329E+01 -0.34250962323E+01 -0.69100684690E+01  0.95735979544E+01  0.51100000000E-03 0. -1.
        -12    1    4    4    0    0  0.22772162212E+02  0.16544557359E+02  0.29219886445E+01  0.28298971142E+02  0.00000000000E+00 0.  1.
</event>
<event>
 8    1  0.1615837E-013  0.9118800E+02  0.7816164E-02  0.1184000E+00
        -11   -1    0    0    0    0  0.00000000000E+00  0.00000000000E+00  0.45593999997E+02  0.45594000000E+02  0.51100000000E-03 0. -1.
         11   -1    0    0    0    0 -0.00000000000E+00 -0.00000000000E+00 -0.45593999997E+02  0.45594000000E+02  0.51100000000E-03 0.  1.
         23    2    1    2    0    0  0.00000000000E+00  0.00000000000E+00  0.00000000000E+00  0.91188000000E+02  0.91188000000E+02 0.  0.
    9900012    2    3    3    0    0 -0.26928013563E+01 -0.43494780286E+01  0.40336024304E+02  0.50528880545E+02  0.30000062903E+02 0.  0.
        -12    1    3    3    0    0  0.26928013563E+01  0.43494780286E+01 -0.40336024304E+02  0.40659119455E+02  0.00000000000E+00 0.  1.
         11    1    4    4    0    0  0.86809185235E+01  0.25482912804E+01  0.10557384688E+02  0.13903614875E+02  0.51100000000E-03 0. -1.
        -11    1    4    4    0    0  0.35136281408E+00  0.32374814955E+01  0.23716654364E+00  0.32651172248E+01  0.51100000000E-03 0.  1.
        -12    1    4    4    0    0 -0.11725082694E+02 -0.10135250805E+02  0.29541473072E+02  0.33360148445E+02  0.00000000000E+00 0.  1.
</event>
<event>
 8    1  0.1615837E-013  0.9118800E+02  0.7816164E-02  0.1184000E+00
        -11   -1    0    0    0    0  0.00000000000E+00  0.00000000000E+00  0.45593999997E+02  0.45594000000E+02  0.51100000000E-03 0. -1.
         11   -1    0    0    0    0 -0.00000000000E+00 -0.00000000000E+00 -0.45593999997E+02  0.45594000000E+02  0.51100000000E-03 0.  1.
         23    2    1    2    0    0  0.44408920985E-15  0.35527136788E-14  0.00000000000E+00  0.91188000000E+02  0.91188000000E+02 0.  0.
    9900012    2    3    3    0    0  0.34502034742E+01  0.23998976665E+02 -0.32639093694E+02  0.50528865453E+02  0.30000017030E+02 0.  0.
         12    1    3    3    0    0 -0.34502034742E+01 -0.23998976665E+02  0.32639093694E+02  0.40659134547E+02  0.00000000000E+00 0. -1.
         11    1    4    4    0    0 -0.40066827098E+01  0.10636086892E+01  0.35023127221E+01  0.54268742795E+01  0.51100000000E-03 0. -1.
        -11    1    4    4    0    0  0.70271692033E+01  0.43394495094E+01 -0.13148427600E+02  0.15527172237E+02  0.51100000000E-03 0.  1.
        -12    1    4    4    0    0  0.42971698065E+00  0.18595918466E+02 -0.22992978816E+02  0.29574818937E+02  0.00000000000E+00 0.  1.
</event>
<event>
 8    1  0.1615837E-013  0.9118800E+02  0.7816164E-02  0.1184000E+00
        -11   -1    0    0    0    0  0.00000000000E+00  0.00000000000E+00  0.45593999997E+02  0.45594000000E+02  0.51100000000E-03 0. -1.
         11   -1    0    0    0    0 -0.00000000000E+00 -0.00000000000E+00 -0.45593999997E+02  0.45594000000E+02  0.51100000000E-03 0.  1.
         23    2    1    2    0    0 -0.88817841970E-15  0.00000000000E+00  0.00000000000E+00  0.91188000000E+02  0.91188000000E+02 0.  0.
    9900012    2    3    3    0    0 -0.52177674671E+01  0.67888783033E+01  0.39747372936E+02  0.50528835950E+02  0.29999927353E+02 0.  0.
        -12    1    3    3    0    0  0.52177674671E+01 -0.67888783033E+01 -0.39747372936E+02  0.40659164050E+02  0.00000000000E+00 0.  1.
         11    1    4    4    0    0 -0.56385906907E+00 -0.36213053393E+01  0.27994001590E+01  0.46117709095E+01  0.51100000000E-03 0. -1.
        -11    1    4    4    0    0 -0.39618253879E+01 -0.31257202169E+01 -0.14061003754E+01  0.52386358726E+01  0.51100000000E-03 0.  1.
         12    1    4    4    0    0 -0.69208301013E+00  0.13535903859E+02  0.38354073152E+02  0.40678429168E+02  0.00000000000E+00 0. -1.
</event>
<event>
 8    1  0.1615837E-013  0.9118800E+02  0.7816164E-02  0.1184000E+00
        -11   -1    0    0    0    0  0.00000000000E+00  0.00000000000E+00  0.45593999997E+02  0.45594000000E+02  0.51100000000E-03 0. -1.
         11   -1    0    0    0    0 -0.00000000000E+00 -0.00000000000E+00 -0.45593999997E+02  0.45594000000E+02  0.51100000000E-03 0.  1.
         23    2    1    2    0    0  0.00000000000E+00  0.00000000000E+00  0.00000000000E+00  0.91188000000E+02  0.91188000000E+02 0.  0.
    9900012    2    3    3    0    0  0.71713179329E+01  0.23578441056E+02  0.32338743732E+02  0.50528867819E+02  0.30000024223E+02 0.  0.
        -12    1    3    3    0    0 -0.71713179329E+01 -0.23578441056E+02 -0.32338743732E+02  0.40659132181E+02  0.00000000000E+00 0.  1.
         11    1    4    4    0    0 -0.15779963406E+01 -0.41880618738E+01 -0.35824164601E+00  0.44897964373E+01  0.51100000000E-03 0. -1.
        -11    1    4    4    0    0  0.25122879186E+00 -0.32789456928E-01  0.76886421323E+01  0.76928154244E+01  0.51100000000E-03 0.  1.
         12    1    4    4    0    0  0.84980854816E+01  0.27799292387E+02  0.25008343246E+02  0.38346255958E+02  0.00000000000E+00 0. -1.
</event>
<event>
 8    1  0.1615837E-013  0.9118800E+02  0.7816164E-02  0.1184000E+00
        -11   -1    0    0    0    0  0.00000000000E+00  0.00000000000E+00  0.45593999997E+02  0.45594000000E+02  0.51100000000E-03 0.  1.
         11   -1    0    0    0    0 -0.00000000000E+00 -0.00000000000E+00 -0.45593999997E+02  0.45594000000E+02  0.51100000000E-03 0. -1.
         23    2    1    2    0    0  0.00000000000E+00  0.00000000000E+00  0.00000000000E+00  0.91188000000E+02  0.91188000000E+02 0.  0.
    9900012    2    3    3    0    0 -0.42744697749E+01  0.36759341675E+02 -0.16841798988E+02  0.50528849918E+02  0.29999969810E+02 0.  0.
         12    1    3    3    0    0  0.42744697749E+01 -0.36759341675E+02  0.16841798988E+02  0.40659150082E+02  0.00000000000E+00 0. -1.
         11    1    4    4    0    0 -0.42204946011E+01  0.57132464024E+01  0.26411146456E+00  0.71079894667E+01  0.51100000000E-03 0. -1.
        -11    1    4    4    0    0 -0.17111658784E+01  0.35394225612E+01  0.61925738764E+01  0.73350918335E+01  0.51100000000E-03 0.  1.
        -12    1    4    4    0    0  0.16571907045E+01  0.27506672711E+02 -0.23298484329E+02  0.36085768618E+02  0.00000000000E+00 0.  1.
</event>
<event>
 8    1  0.1615837E-013  0.9118800E+02  0.7816164E-02  0.1184000E+00
        -11   -1    0    0    0    0  0.00000000000E+00  0.00000000000E+00  0.45593999997E+02  0.45594000000E+02  0.51100000000E-03 0.  1.
         11   -1    0    0    0    0 -0.00000000000E+00 -0.00000000000E+00 -0.45593999997E+02  0.45594000000E+02  0.51100000000E-03 0. -1.
         23    2    1    2    0    0  0.35527136788E-14 -0.71054273576E-14  0.00000000000E+00  0.91188000000E+02  0.91188000000E+02 0.  0.
    9900012    2    3    3    0    0  0.20022505145E+02 -0.32514896968E+02 -0.13966011508E+02  0.50528822505E+02  0.29999886485E+02 0.  0.
         12    1    3    3    0    0 -0.20022505145E+02  0.32514896968E+02  0.13966011508E+02  0.40659177495E+02  0.00000000000E+00 0. -1.
         11    1    4    4    0    0  0.10878798106E+02  0.21517954325E+01 -0.30508674883E+01  0.11501576610E+02  0.51100000000E-03 0. -1.
        -11    1    4    4    0    0 -0.92931956976E+00 -0.86742433605E+01 -0.63257301160E+01  0.10775945179E+02  0.51100000000E-03 0.  1.
        -12    1    4    4    0    0  0.10073026609E+02 -0.25992449040E+02 -0.45894139037E+01  0.28251300716E+02  0.00000000000E+00 0.  1.
</event>
<event>
 8    1  0.1615837E-013  0.9118800E+02  0.7816164E-02  0.1184000E+00
        -11   -1    0    0    0    0  0.00000000000E+00  0.00000000000E+00  0.45593999997E+02  0.45594000000E+02  0.51100000000E-03 0.  1.
         11   -1    0    0    0    0 -0.00000000000E+00 -0.00000000000E+00 -0.45593999997E+02  0.45594000000E+02  0.51100000000E-03 0. -1.
         23    2    1    2    0    0  0.00000000000E+00  0.00000000000E+00  0.17763568394E-14  0.91188000000E+02  0.91188000000E+02 0.  0.
    9900012    2    3    3    0    0 -0.26503403262E+02 -0.30047849223E+02 -0.69181937415E+01  0.50528867790E+02  0.30000024135E+02 0.  0.
         12    1    3    3    0    0  0.26503403262E+02  0.30047849223E+02  0.69181937415E+01  0.40659132210E+02  0.00000000000E+00 0. -1.
         11    1    4    4    0    0  0.25455266513E+01 -0.97876746818E+01 -0.83396202598E+01  0.13108300727E+02  0.51100000000E-03 0. -1.
        -11    1    4    4    0    0 -0.66845722022E+01 -0.55222701171E+00 -0.28864217505E+01  0.73020470405E+01  0.51100000000E-03 0.  1.
        -12    1    4    4    0    0 -0.22364357711E+02 -0.19707947530E+02  0.43078482687E+01  0.30118520023E+02  0.00000000000E+00 0.  1.
</event>
<event>
 8    1  0.1615837E-013  0.9118800E+02  0.7816164E-02  0.1184000E+00
        -11   -1    0    0    0    0  0.00000000000E+00  0.00000000000E+00  0.45593999997E+02  0.45594000000E+02  0.51100000000E-03 0. -1.
         11   -1    0    0    0    0 -0.00000000000E+00 -0.00000000000E+00 -0.45593999997E+02  0.45594000000E+02  0.51100000000E-03 0.  1.
         23    2    1    2    0    0  0.17763568394E-14  0.00000000000E+00  0.00000000000E+00  0.91188000000E+02  0.91188000000E+02 0.  0.
    9900012    2    3    3    0    0  0.76451356615E+01  0.65931905338E+01 -0.39385881320E+02  0.50528857017E+02  0.29999991390E+02 0.  0.
         12    1    3    3    0    0 -0.76451356615E+01 -0.65931905338E+01  0.39385881320E+02  0.40659142983E+02  0.00000000000E+00 0. -1.
         11    1    4    4    0    0  0.58653388500E+01 -0.19788231239E+01  0.59717523129E-01  0.61904367556E+01  0.51100000000E-03 0. -1.
        -11    1    4    4    0    0  0.10054608051E+02  0.44663008456E+01 -0.20834501643E+02  0.23560972927E+02  0.51100000000E-03 0.  1.
        -12    1    4    4    0    0 -0.82748112394E+01  0.41057128120E+01 -0.18611097200E+02  0.20777447334E+02  0.00000000000E+00 0.  1.
</event>
<event>
 8    1  0.1615837E-013  0.9118800E+02  0.7816164E-02  0.1184000E+00
        -11   -1    0    0    0    0  0.00000000000E+00  0.00000000000E+00  0.45593999997E+02  0.45594000000E+02  0.51100000000E-03 0. -1.
         11   -1    0    0    0    0 -0.00000000000E+00 -0.00000000000E+00 -0.45593999997E+02  0.45594000000E+02  0.51100000000E-03 0.  1.
         23    2    1    2    0    0  0.00000000000E+00 -0.88817841970E-15 -0.71054273576E-14  0.91188000000E+02  0.91188000000E+02 0.  0.
    9900012    2    3    3    0    0  0.17343502447E+02 -0.23319692701E+01  0.36700548523E+02  0.50528863023E+02  0.30000009645E+02 0.  0.
        -12    1    3    3    0    0 -0.17343502447E+02  0.23319692701E+01 -0.36700548523E+02  0.40659136977E+02  0.00000000000E+00 0.  1.
         11    1    4    4    0    0  0.17517964212E+00  0.83840185306E+01  0.41905468048E+01  0.93746006535E+01  0.51100000000E-03 0. -1.
        -11    1    4    4    0    0  0.85973702197E+01 -0.41395898783E+01  0.34424118392E+01  0.10144021815E+02  0.51100000000E-03 0.  1.
         12    1    4    4    0    0  0.85709525854E+01 -0.65763979224E+01  0.29067589879E+02  0.31010240554E+02  0.00000000000E+00 0. -1.
</event>
<event>
 8    1  0.1615837E-013  0.9118800E+02  0.7816164E-02  0.1184000E+00
        -11   -1    0    0    0    0  0.00000000000E+00  0.00000000000E+00  0.45593999997E+02  0.45594000000E+02  0.51100000000E-03 0.  1.
         11   -1    0    0    0    0 -0.00000000000E+00 -0.00000000000E+00 -0.45593999997E+02  0.45594000000E+02  0.51100000000E-03 0. -1.
         23    2    1    2    0    0  0.00000000000E+00  0.00000000000E+00 -0.17763568394E-14  0.91188000000E+02  0.91188000000E+02 0.  0.
    9900012    2    3    3    0    0  0.98573625568E+01  0.38155809019E+02 -0.10006578506E+02  0.50528868530E+02  0.30000026384E+02 0.  0.
        -12    1    3    3    0    0 -0.98573625568E+01 -0.38155809019E+02  0.10006578506E+02  0.40659131470E+02  0.00000000000E+00 0.  1.
         11    1    4    4    0    0  0.83089414086E+00  0.10632799137E+02  0.94963988310E+01  0.14280349911E+02  0.51100000000E-03 0. -1.
        -11    1    4    4    0    0 -0.19667874407E+01  0.22157744804E+01 -0.18602488753E+01  0.34983475420E+01  0.51100000000E-03 0.  1.
         12    1    4    4    0    0  0.10993255857E+02  0.25307235402E+02 -0.17642728462E+02  0.32750171077E+02  0.00000000000E+00 0. -1.
</event>
<event>
 8    1  0.1615837E-013  0.9118800E+02  0.7816164E-02  0.1184000E+00
        -11   -1    0    0    0    0  0.00000000000E+00  0.00000000000E+00  0.45593999997E+02  0.45594000000E+02  0.51100000000E-03 0.  1.
         11   -1    0    0    0    0 -0.00000000000E+00 -0.00000000000E+00 -0.45593999997E+02  0.45594000000E+02  0.51100000000E-03 0. -1.
         23    2    1    2    0    0  0.00000000000E+00  0.00000000000E+00 -0.17763568394E-14  0.91188000000E+02  0.91188000000E+02 0.  0.
    9900012    2    3    3    0    0 -0.24022198086E+02  0.28776133069E+02  0.15749086525E+02  0.50528861278E+02  0.30000004339E+02 0.  0.
        -12    1    3    3    0    0  0.24022198086E+02 -0.28776133069E+02 -0.15749086525E+02  0.40659138722E+02  0.00000000000E+00 0.  1.
         11    1    4    4    0    0 -0.89185662208E+01  0.61560887764E+01 -0.36957819698E+01  0.11449762316E+02  0.51100000000E-03 0. -1.
        -11    1    4    4    0    0  0.68030964484E+00  0.13903705093E+02  0.21327666303E+01  0.14082774240E+02  0.51100000000E-03 0.  1.
        -12    1    4    4    0    0 -0.15783941510E+02  0.87163391994E+01  0.17312101865E+02  0.24996324722E+02  0.00000000000E+00 0.  1.
</event>
<event>
 8    1  0.1615837E-013  0.9118800E+02  0.7816164E-02  0.1184000E+00
        -11   -1    0    0    0    0  0.00000000000E+00  0.00000000000E+00  0.45593999997E+02  0.45594000000E+02  0.51100000000E-03 0. -1.
         11   -1    0    0    0    0 -0.00000000000E+00 -0.00000000000E+00 -0.45593999997E+02  0.45594000000E+02  0.51100000000E-03 0.  1.
         23    2    1    2    0    0 -0.88817841970E-15  0.00000000000E+00  0.00000000000E+00  0.91188000000E+02  0.91188000000E+02 0.  0.
    9900012    2    3    3    0    0  0.20675469025E+01 -0.11820921931E+02 -0.38847864802E+02  0.50528861480E+02  0.30000004955E+02 0.  0.
         12    1    3    3    0    0 -0.20675469025E+01  0.11820921931E+02  0.38847864802E+02  0.40659138520E+02  0.00000000000E+00 0. -1.
         11    1    4    4    0    0 -0.28102407492E+01  0.60133478110E+00 -0.30514995146E+02  0.30650024235E+02  0.51100000000E-03 0.  1.
        -11    1    4    4    0    0  0.57280661174E+00 -0.36597682128E+01 -0.93558445063E+01  0.10062496583E+02  0.51100000000E-03 0. -1.
         12    1    4    4    0    0  0.43049810400E+01 -0.87624884995E+01  0.10229748504E+01  0.98163406625E+01  0.00000000000E+00 0. -1.
</event>
<event>
 8    1  0.1615837E-013  0.9118800E+02  0.7816164E-02  0.1184000E+00
        -11   -1    0    0    0    0  0.00000000000E+00  0.00000000000E+00  0.45593999997E+02  0.45594000000E+02  0.51100000000E-03 0. -1.
         11   -1    0    0    0    0 -0.00000000000E+00 -0.00000000000E+00 -0.45593999997E+02  0.45594000000E+02  0.51100000000E-03 0.  1.
         23    2    1    2    0    0 -0.13322676296E-14  0.00000000000E+00 -0.35527136788E-14  0.91188000000E+02  0.91188000000E+02 0.  0.
    9900012    2    3    3    0    0  0.21621992162E+01 -0.26309583716E+02  0.30924039119E+02  0.50528862083E+02  0.30000006786E+02 0.  0.
        -12    1    3    3    0    0 -0.21621992162E+01  0.26309583716E+02 -0.30924039119E+02  0.40659137917E+02  0.00000000000E+00 0.  1.
         11    1    4    4    0    0 -0.39072649768E+01 -0.62993745150E+01  0.74194252516E+01  0.10487931646E+02  0.51100000000E-03 0. -1.
        -11    1    4    4    0    0  0.11789656672E+02 -0.26155064141E+01  0.27920873625E+01  0.12394863063E+02  0.51100000000E-03 0.  1.
         12    1    4    4    0    0 -0.57201924790E+01 -0.17394702787E+02  0.20712526505E+02  0.27646067374E+02  0.00000000000E+00 0. -1.
</event>
<event>
 8    1  0.1615837E-013  0.9118800E+02  0.7816164E-02  0.1184000E+00
        -11   -1    0    0    0    0  0.00000000000E+00  0.00000000000E+00  0.45593999997E+02  0.45594000000E+02  0.51100000000E-03 0. -1.
         11   -1    0    0    0    0 -0.00000000000E+00 -0.00000000000E+00 -0.45593999997E+02  0.45594000000E+02  0.51100000000E-03 0.  1.
         23    2    1    2    0    0  0.00000000000E+00 -0.17763568394E-14  0.00000000000E+00  0.91188000000E+02  0.91188000000E+02 0.  0.
    9900012    2    3    3    0    0 -0.33146048159E+02 -0.81103337959E+01  0.22107179538E+02  0.50528863143E+02  0.30000010009E+02 0.  0.
        -12    1    3    3    0    0  0.33146048159E+02  0.81103337959E+01 -0.22107179538E+02  0.40659136857E+02  0.00000000000E+00 0.  1.
         11    1    4    4    0    0 -0.78957310965E+01 -0.47581878740E+01  0.17868633118E+02  0.20106490772E+02  0.51100000000E-03 0. -1.
        -11    1    4    4    0    0 -0.13448971401E+02 -0.96423258174E+01  0.40995005708E+01  0.17048612381E+02  0.51100000000E-03 0.  1.
         12    1    4    4    0    0 -0.11801345661E+02  0.62901798955E+01  0.13904584972E+00  0.13373759990E+02  0.00000000000E+00 0. -1.
</event>
<event>
 8    1  0.1615837E-013  0.9118800E+02  0.7816164E-02  0.1184000E+00
        -11   -1    0    0    0    0  0.00000000000E+00  0.00000000000E+00  0.45593999997E+02  0.45594000000E+02  0.51100000000E-03 0.  1.
         11   -1    0    0    0    0 -0.00000000000E+00 -0.00000000000E+00 -0.45593999997E+02  0.45594000000E+02  0.51100000000E-03 0. -1.
         23    2    1    2    0    0 -0.35527136788E-14  0.00000000000E+00 -0.35527136788E-14  0.91188000000E+02  0.91188000000E+02 0.  0.
    9900012    2    3    3    0    0  0.23550814532E+02  0.25717158580E+02  0.20908166068E+02  0.50528874101E+02  0.30000043318E+02 0.  0.
        -12    1    3    3    0    0 -0.23550814532E+02 -0.25717158580E+02 -0.20908166068E+02  0.40659125899E+02  0.00000000000E+00 0.  1.
         11    1    4    4    0    0  0.18081439657E+02  0.29189450129E+02  0.75542174290E+01  0.35157199265E+02  0.51100000000E-03 0. -1.
        -11    1    4    4    0    0  0.16453199933E+01  0.69146091530E+00  0.19504801299E+01  0.26437793168E+01  0.51100000000E-03 0.  1.
         12    1    4    4    0    0  0.38240548820E+01 -0.41637524645E+01  0.11403468509E+02  0.12727895520E+02  0.00000000000E+00 0. -1.
</event>
<event>
 8    1  0.1615837E-013  0.9118800E+02  0.7816164E-02  0.1184000E+00
        -11   -1    0    0    0    0  0.00000000000E+00  0.00000000000E+00  0.45593999997E+02  0.45594000000E+02  0.51100000000E-03 0. -1.
         11   -1    0    0    0    0 -0.00000000000E+00 -0.00000000000E+00 -0.45593999997E+02  0.45594000000E+02  0.51100000000E-03 0.  1.
         23    2    1    2    0    0  0.71054273576E-14  0.00000000000E+00  0.00000000000E+00  0.91188000000E+02  0.91188000000E+02 0.  0.
    9900012    2    3    3    0    0  0.33109868705E+02  0.22709977620E+02 -0.64155573624E+01  0.50528857542E+02  0.29999992985E+02 0.  0.
         12    1    3    3    0    0 -0.33109868705E+02 -0.22709977620E+02  0.64155573624E+01  0.40659142458E+02  0.00000000000E+00 0. -1.
         11    1    4    4    0    0 -0.49119080904E+00 -0.45447279832E+01 -0.22970607774E+01  0.51158879316E+01  0.51100000000E-03 0. -1.
        -11    1    4    4    0    0  0.58460258580E+01 -0.47168591944E+00 -0.17035219450E+01  0.61074129726E+01  0.51100000000E-03 0.  1.
        -12    1    4    4    0    0  0.27755033656E+02  0.27726391523E+02 -0.24149746399E+01  0.39305556638E+02  0.00000000000E+00 0.  1.
</event>
<event>
 8    1  0.1615837E-013  0.9118800E+02  0.7816164E-02  0.1184000E+00
        -11   -1    0    0    0    0  0.00000000000E+00  0.00000000000E+00  0.45593999997E+02  0.45594000000E+02  0.51100000000E-03 0.  1.
         11   -1    0    0    0    0 -0.00000000000E+00 -0.00000000000E+00 -0.45593999997E+02  0.45594000000E+02  0.51100000000E-03 0. -1.
         23    2    1    2    0    0  0.00000000000E+00  0.00000000000E+00  0.00000000000E+00  0.91188000000E+02  0.91188000000E+02 0.  0.
    9900012    2    3    3    0    0 -0.18680820874E+02  0.32346186314E+02  0.16059786368E+02  0.50528861104E+02  0.30000003812E+02 0.  0.
        -12    1    3    3    0    0  0.18680820874E+02 -0.32346186314E+02 -0.16059786368E+02  0.40659138896E+02  0.00000000000E+00 0.  1.
         11    1    4    4    0    0  0.10802700489E+00  0.15551931253E+02 -0.19207226249E+00  0.15553492455E+02  0.51100000000E-03 0. -1.
        -11    1    4    4    0    0 -0.64887957684E+01  0.69840677669E+01 -0.31095574949E+01  0.10027513210E+02  0.51100000000E-03 0.  1.
        -12    1    4    4    0    0 -0.12300052110E+02  0.98101872941E+01  0.19361416125E+02  0.24947855439E+02  0.00000000000E+00 0.  1.
</event>
<event>
 8    1  0.1615837E-013  0.9118800E+02  0.7816164E-02  0.1184000E+00
        -11   -1    0    0    0    0  0.00000000000E+00  0.00000000000E+00  0.45593999997E+02  0.45594000000E+02  0.51100000000E-03 0. -1.
         11   -1    0    0    0    0 -0.00000000000E+00 -0.00000000000E+00 -0.45593999997E+02  0.45594000000E+02  0.51100000000E-03 0.  1.
         23    2    1    2    0    0  0.00000000000E+00  0.00000000000E+00  0.00000000000E+00  0.91188000000E+02  0.91188000000E+02 0.  0.
    9900012    2    3    3    0    0 -0.46653240228E+01 -0.20925371066E+02 -0.34547494322E+02  0.50528858759E+02  0.29999996684E+02 0.  0.
         12    1    3    3    0    0  0.46653240228E+01  0.20925371066E+02  0.34547494322E+02  0.40659141241E+02  0.00000000000E+00 0. -1.
         11    1    4    4    0    0 -0.58826506340E+01 -0.50924570347E+01  0.14414148281E+01  0.79130508718E+01  0.51100000000E-03 0. -1.
        -11    1    4    4    0    0 -0.20217812030E+01  0.17027949416E+01 -0.22521531731E+00  0.26528912616E+01  0.51100000000E-03 0.  1.
        -12    1    4    4    0    0  0.32391078141E+01 -0.17535708973E+02 -0.35763693833E+02  0.39962916625E+02  0.00000000000E+00 0.  1.
</event>
<event>
 8    1  0.1615837E-013  0.9118800E+02  0.7816164E-02  0.1184000E+00
        -11   -1    0    0    0    0  0.00000000000E+00  0.00000000000E+00  0.45593999997E+02  0.45594000000E+02  0.51100000000E-03 0. -1.
         11   -1    0    0    0    0 -0.00000000000E+00 -0.00000000000E+00 -0.45593999997E+02  0.45594000000E+02  0.51100000000E-03 0.  1.
         23    2    1    2    0    0 -0.17763568394E-14 -0.17763568394E-14  0.71054273576E-14  0.91188000000E+02  0.91188000000E+02 0.  0.
    9900012    2    3    3    0    0  0.13547832288E+02  0.12054365733E+02 -0.36391126485E+02  0.50528861055E+02  0.30000003663E+02 0.  0.
         12    1    3    3    0    0 -0.13547832288E+02 -0.12054365733E+02  0.36391126485E+02  0.40659138945E+02  0.00000000000E+00 0. -1.
         11    1    4    4    0    0  0.19928405106E+01  0.39887502177E+01 -0.75631742658E+01  0.87797008397E+01  0.51100000000E-03 0. -1.
        -11    1    4    4    0    0  0.10815402591E+02  0.12737440996E+02 -0.31968035484E+02  0.36071742809E+02  0.51100000000E-03 0.  1.
         12    1    4    4    0    0  0.73958918626E+00 -0.46718254810E+01  0.31400832652E+01  0.56774174060E+01  0.00000000000E+00 0. -1.
</event>
<event>
 8    1  0.1615837E-013  0.9118800E+02  0.7816164E-02  0.1184000E+00
        -11   -1    0    0    0    0  0.00000000000E+00  0.00000000000E+00  0.45593999997E+02  0.45594000000E+02  0.51100000000E-03 0.  1.
         11   -1    0    0    0    0 -0.00000000000E+00 -0.00000000000E+00 -0.45593999997E+02  0.45594000000E+02  0.51100000000E-03 0. -1.
         23    2    1    2    0    0  0.35527136788E-14  0.00000000000E+00  0.88817841970E-15  0.91188000000E+02  0.91188000000E+02 0.  0.
    9900012    2    3    3    0    0 -0.24029330128E+02 -0.32285625980E+02  0.57788576898E+01  0.50528861451E+02  0.30000004867E+02 0.  0.
         12    1    3    3    0    0  0.24029330128E+02  0.32285625980E+02 -0.57788576898E+01  0.40659138549E+02  0.00000000000E+00 0. -1.
         11    1    4    4    0    0 -0.15246790994E+02 -0.94055610915E+01 -0.15129867874E+01  0.17978274231E+02  0.51100000000E-03 0. -1.
        -11    1    4    4    0    0 -0.14590184035E+02 -0.10276802682E+02  0.41529162342E+01  0.18323014410E+02  0.51100000000E-03 0.  1.
        -12    1    4    4    0    0  0.58076449015E+01 -0.12603262206E+02  0.31389282430E+01  0.14227572810E+02  0.00000000000E+00 0.  1.
</event>
<event>
 8    1  0.1615837E-013  0.9118800E+02  0.7816164E-02  0.1184000E+00
        -11   -1    0    0    0    0  0.00000000000E+00  0.00000000000E+00  0.45593999997E+02  0.45594000000E+02  0.51100000000E-03 0. -1.
         11   -1    0    0    0    0 -0.00000000000E+00 -0.00000000000E+00 -0.45593999997E+02  0.45594000000E+02  0.51100000000E-03 0.  1.
         23    2    1    2    0    0  0.00000000000E+00 -0.35527136788E-14  0.35527136788E-14  0.91188000000E+02  0.91188000000E+02 0.  0.
    9900012    2    3    3    0    0  0.19896315977E+02  0.25140381663E+02 -0.25005268148E+02  0.50528860625E+02  0.30000002354E+02 0.  0.
         12    1    3    3    0    0 -0.19896315977E+02 -0.25140381663E+02  0.25005268148E+02  0.40659139375E+02  0.00000000000E+00 0. -1.
         11    1    4    4    0    0 -0.85792820824E-01  0.59310812456E+01 -0.27043657729E+01  0.65191011378E+01  0.51100000000E-03 0. -1.
        -11    1    4    4    0    0  0.40436305568E+01  0.20762482907E+02 -0.82469166009E+01  0.22703375922E+02  0.51100000000E-03 0.  1.
         12    1    4    4    0    0  0.15938478241E+02 -0.15531824902E+01 -0.14053985774E+02  0.21306383565E+02  0.00000000000E+00 0. -1.
</event>
<event>
 8    1  0.1615837E-013  0.9118800E+02  0.7816164E-02  0.1184000E+00
        -11   -1    0    0    0    0  0.00000000000E+00  0.00000000000E+00  0.45593999997E+02  0.45594000000E+02  0.51100000000E-03 0. -1.
         11   -1    0    0    0    0 -0.00000000000E+00 -0.00000000000E+00 -0.45593999997E+02  0.45594000000E+02  0.51100000000E-03 0.  1.
         23    2    1    2    0    0  0.00000000000E+00 -0.17763568394E-14  0.00000000000E+00  0.91188000000E+02  0.91188000000E+02 0.  0.
    9900012    2    3    3    0    0 -0.33992106797E+02 -0.15425433471E+02 -0.16117000233E+02  0.50528867953E+02  0.30000024629E+02 0.  0.
         12    1    3    3    0    0  0.33992106797E+02  0.15425433471E+02  0.16117000233E+02  0.40659132047E+02  0.00000000000E+00 0. -1.
         11    1    4    4    0    0  0.17659723645E+01 -0.82347989964E+01 -0.19173010682E+01  0.86375121737E+01  0.51100000000E-03 0. -1.
        -11    1    4    4    0    0  0.12997175897E+01 -0.13607911503E+01 -0.42827266276E+00  0.19298798155E+01  0.51100000000E-03 0.  1.
        -12    1    4    4    0    0 -0.37057796752E+02 -0.58298433246E+01 -0.13771426502E+02  0.39961475964E+02  0.00000000000E+00 0.  1.
</event>
<event>
 8    1  0.1615837E-013  0.9118800E+02  0.7816164E-02  0.1184000E+00
        -11   -1    0    0    0    0  0.00000000000E+00  0.00000000000E+00  0.45593999997E+02  0.45594000000E+02  0.51100000000E-03 0. -1.
         11   -1    0    0    0    0 -0.00000000000E+00 -0.00000000000E+00 -0.45593999997E+02  0.45594000000E+02  0.51100000000E-03 0.  1.
         23    2    1    2    0    0  0.00000000000E+00  0.35527136788E-14  0.00000000000E+00  0.91188000000E+02  0.91188000000E+02 0.  0.
    9900012    2    3    3    0    0  0.45049014263E+01  0.24909012072E+02  0.31818441473E+02  0.50528852972E+02  0.29999979095E+02 0.  0.
        -12    1    3    3    0    0 -0.45049014263E+01 -0.24909012072E+02 -0.31818441473E+02  0.40659147028E+02  0.00000000000E+00 0.  1.
         11    1    4    4    0    0 -0.51326869045E+00  0.13795315545E+02  0.23911923896E+02  0.27610763851E+02  0.51100000000E-03 0. -1.
        -11    1    4    4    0    0  0.25971815168E+01  0.14631298747E+02  0.11229574089E+01  0.14902392038E+02  0.51100000000E-03 0.  1.
         12    1    4    4    0    0  0.24209885999E+01 -0.35176022208E+01  0.67835601676E+01  0.80156970833E+01  0.00000000000E+00 0. -1.
</event>
<event>
 8    1  0.1615837E-013  0.9118800E+02  0.7816164E-02  0.1184000E+00
        -11   -1    0    0    0    0  0.00000000000E+00  0.00000000000E+00  0.45593999997E+02  0.45594000000E+02  0.51100000000E-03 0. -1.
         11   -1    0    0    0    0 -0.00000000000E+00 -0.00000000000E+00 -0.45593999997E+02  0.45594000000E+02  0.51100000000E-03 0.  1.
         23    2    1    2    0    0  0.00000000000E+00  0.00000000000E+00 -0.35527136788E-14  0.91188000000E+02  0.91188000000E+02 0.  0.
    9900012    2    3    3    0    0 -0.20103866307E+02  0.30699874519E+02  0.17507614315E+02  0.50528876854E+02  0.30000051686E+02 0.  0.
        -12    1    3    3    0    0  0.20103866307E+02 -0.30699874519E+02 -0.17507614315E+02  0.40659123146E+02  0.00000000000E+00 0.  1.
         11    1    4    4    0    0 -0.39451107234E+01  0.10278026626E+02  0.28335828619E+01  0.11367977922E+02  0.51100000000E-03 0. -1.
        -11    1    4    4    0    0 -0.16645876588E+02  0.18077713363E+02  0.21045576714E+02  0.32354369524E+02  0.51100000000E-03 0.  1.
        -12    1    4    4    0    0  0.48712100396E+00  0.23441345309E+01 -0.63715452612E+01  0.68065294084E+01  0.00000000000E+00 0.  1.
</event>
<event>
 8    1  0.1615837E-013  0.9118800E+02  0.7816164E-02  0.1184000E+00
        -11   -1    0    0    0    0  0.00000000000E+00  0.00000000000E+00  0.45593999997E+02  0.45594000000E+02  0.51100000000E-03 0. -1.
         11   -1    0    0    0    0 -0.00000000000E+00 -0.00000000000E+00 -0.45593999997E+02  0.45594000000E+02  0.51100000000E-03 0.  1.
         23    2    1    2    0    0  0.55511151231E-15  0.00000000000E+00  0.00000000000E+00  0.91188000000E+02  0.91188000000E+02 0.  0.
    9900012    2    3    3    0    0  0.97104209973E+00 -0.56481677747E+01 -0.40253211141E+02  0.50528859218E+02  0.29999998078E+02 0.  0.
         12    1    3    3    0    0 -0.97104209973E+00  0.56481677747E+01  0.40253211141E+02  0.40659140782E+02  0.00000000000E+00 0. -1.
         11    1    4    4    0    0  0.24450025516E+01 -0.57449790540E+01 -0.22012170423E+01  0.66202853818E+01  0.51100000000E-03 0. -1.
        -11    1    4    4    0    0  0.93834129029E+01 -0.37025128995E+01 -0.14091463508E+02  0.17329927396E+02  0.51100000000E-03 0.  1.
         12    1    4    4    0    0 -0.10857373355E+02  0.37993241789E+01 -0.23960530591E+02  0.26578646440E+02  0.00000000000E+00 0. -1.
</event>
<event>
 8    1  0.1615837E-013  0.9118800E+02  0.7816164E-02  0.1184000E+00
        -11   -1    0    0    0    0  0.00000000000E+00  0.00000000000E+00  0.45593999997E+02  0.45594000000E+02  0.51100000000E-03 0. -1.
         11   -1    0    0    0    0 -0.00000000000E+00 -0.00000000000E+00 -0.45593999997E+02  0.45594000000E+02  0.51100000000E-03 0.  1.
         23    2    1    2    0    0  0.17763568394E-14  0.17763568394E-14  0.00000000000E+00  0.91188000000E+02  0.91188000000E+02 0.  0.
    9900012    2    3    3    0    0  0.11335283658E+02  0.12013236863E+02 -0.37153188268E+02  0.50528856944E+02  0.29999991168E+02 0.  0.
         12    1    3    3    0    0 -0.11335283658E+02 -0.12013236863E+02  0.37153188268E+02  0.40659143056E+02  0.00000000000E+00 0. -1.
         11    1    4    4    0    0  0.11142882480E+02  0.92546696591E+01 -0.14264157110E+02  0.20329262623E+02  0.51100000000E-03 0. -1.
        -11    1    4    4    0    0 -0.71600945790E+01  0.62995821419E+01 -0.18779940993E+02  0.21062712872E+02  0.51100000000E-03 0.  1.
         12    1    4    4    0    0  0.73524957571E+01 -0.35410149383E+01 -0.41090901649E+01  0.91368814502E+01  0.00000000000E+00 0. -1.
</event>
<event>
 8    1  0.1615837E-013  0.9118800E+02  0.7816164E-02  0.1184000E+00
        -11   -1    0    0    0    0  0.00000000000E+00  0.00000000000E+00  0.45593999997E+02  0.45594000000E+02  0.51100000000E-03 0. -1.
         11   -1    0    0    0    0 -0.00000000000E+00 -0.00000000000E+00 -0.45593999997E+02  0.45594000000E+02  0.51100000000E-03 0.  1.
         23    2    1    2    0    0 -0.35527136788E-14  0.00000000000E+00  0.00000000000E+00  0.91188000000E+02  0.91188000000E+02 0.  0.
    9900012    2    3    3    0    0  0.16805526181E+02 -0.31165714786E+02 -0.19985955884E+02  0.50528856859E+02  0.29999990908E+02 0.  0.
         12    1    3    3    0    0 -0.16805526181E+02  0.31165714786E+02  0.19985955884E+02  0.40659143141E+02  0.00000000000E+00 0. -1.
         11    1    4    4    0    0 -0.26873529146E+01  0.76347211435E+00  0.87138896420E+00  0.29264439760E+01  0.51100000000E-03 0. -1.
        -11    1    4    4    0    0  0.33843317702E+01 -0.13822772909E+02 -0.18374065726E+02  0.23240676496E+02  0.51100000000E-03 0.  1.
         12    1    4    4    0    0  0.16108547325E+02 -0.18106413992E+02 -0.24832791223E+01  0.24361736387E+02  0.00000000000E+00 0. -1.
</event>
<event>
 8    1  0.1615837E-013  0.9118800E+02  0.7816164E-02  0.1184000E+00
        -11   -1    0    0    0    0  0.00000000000E+00  0.00000000000E+00  0.45593999997E+02  0.45594000000E+02  0.51100000000E-03 0. -1.
         11   -1    0    0    0    0 -0.00000000000E+00 -0.00000000000E+00 -0.45593999997E+02  0.45594000000E+02  0.51100000000E-03 0.  1.
         23    2    1    2    0    0  0.00000000000E+00  0.00000000000E+00  0.00000000000E+00  0.91188000000E+02  0.91188000000E+02 0.  0.
    9900012    2    3    3    0    0 -0.11510216776E+02  0.10624392846E+02  0.37520618961E+02  0.50528933842E+02  0.30000224906E+02 0.  0.
        -12    1    3    3    0    0  0.11510216776E+02 -0.10624392846E+02 -0.37520618961E+02  0.40659066158E+02  0.00000000000E+00 0.  1.
         11    1    4    4    0    0 -0.54331919832E+01  0.17774228920E+02  0.32222242634E+02  0.37198329391E+02  0.51100000000E-03 0. -1.
        -11    1    4    4    0    0  0.16495408706E+01 -0.16970059291E+01 -0.22763061405E+00  0.23775260597E+01  0.51100000000E-03 0.  1.
        -12    1    4    4    0    0 -0.77265656636E+01 -0.54528301445E+01  0.55260069410E+01  0.10953078392E+02  0.00000000000E+00 0.  1.
</event>
<event>
 8    1  0.1615837E-013  0.9118800E+02  0.7816164E-02  0.1184000E+00
        -11   -1    0    0    0    0  0.00000000000E+00  0.00000000000E+00  0.45593999997E+02  0.45594000000E+02  0.51100000000E-03 0. -1.
         11   -1    0    0    0    0 -0.00000000000E+00 -0.00000000000E+00 -0.45593999997E+02  0.45594000000E+02  0.51100000000E-03 0.  1.
         23    2    1    2    0    0  0.00000000000E+00  0.00000000000E+00 -0.35527136788E-14  0.91188000000E+02  0.91188000000E+02 0.  0.
    9900012    2    3    3    0    0  0.10157858266E+02  0.28507860336E+02  0.27153001949E+02  0.50528859573E+02  0.29999999158E+02 0.  0.
        -12    1    3    3    0    0 -0.10157858266E+02 -0.28507860336E+02 -0.27153001949E+02  0.40659140427E+02  0.00000000000E+00 0.  1.
         11    1    4    4    0    0 -0.57137216635E+01  0.16815997767E+02  0.14660303096E+02  0.23029304881E+02  0.51100000000E-03 0.  1.
        -11    1    4    4    0    0  0.14603720551E+01  0.98628501410E+01  0.52024255735E+01  0.11246054044E+02  0.51100000000E-03 0. -1.
        -12    1    4    4    0    0  0.14411207874E+02  0.18290124271E+01  0.72902732793E+01  0.16253500649E+02  0.00000000000E+00 0.  1.
</event>
<event>
 8    1  0.1615837E-013  0.9118800E+02  0.7816164E-02  0.1184000E+00
        -11   -1    0    0    0    0  0.00000000000E+00  0.00000000000E+00  0.45593999997E+02  0.45594000000E+02  0.51100000000E-03 0. -1.
         11   -1    0    0    0    0 -0.00000000000E+00 -0.00000000000E+00 -0.45593999997E+02  0.45594000000E+02  0.51100000000E-03 0.  1.
         23    2    1    2    0    0  0.00000000000E+00 -0.35527136788E-14  0.88817841970E-15  0.91188000000E+02  0.91188000000E+02 0.  0.
    9900012    2    3    3    0    0 -0.35902977688E+02  0.17586410717E+02 -0.74067840762E+01  0.50528854668E+02  0.29999984249E+02 0.  0.
         12    1    3    3    0    0  0.35902977688E+02 -0.17586410717E+02  0.74067840762E+01  0.40659145332E+02  0.00000000000E+00 0. -1.
         11    1    4    4    0    0 -0.14529387156E+02 -0.18636405370E+01  0.15087511176E+01  0.14725915162E+02  0.51100000000E-03 0.  1.
        -11    1    4    4    0    0 -0.11854193186E+02  0.60003198835E+01 -0.13250708301E+02  0.18764514530E+02  0.51100000000E-03 0. -1.
        -12    1    4    4    0    0 -0.95193973466E+01  0.13449731371E+02  0.43351731076E+01  0.17038424976E+02  0.00000000000E+00 0.  1.
</event>
<event>
 8    1  0.1615837E-013  0.9118800E+02  0.7816164E-02  0.1184000E+00
        -11   -1    0    0    0    0  0.00000000000E+00  0.00000000000E+00  0.45593999997E+02  0.45594000000E+02  0.51100000000E-03 0.  1.
         11   -1    0    0    0    0 -0.00000000000E+00 -0.00000000000E+00 -0.45593999997E+02  0.45594000000E+02  0.51100000000E-03 0. -1.
         23    2    1    2    0    0  0.00000000000E+00  0.00000000000E+00  0.00000000000E+00  0.91188000000E+02  0.91188000000E+02 0.  0.
    9900012    2    3    3    0    0 -0.29668065887E+02  0.22704751411E+02  0.16046069350E+02  0.50528730310E+02  0.29999606249E+02 0.  0.
        -12    1    3    3    0    0  0.29668065887E+02 -0.22704751411E+02 -0.16046069350E+02  0.40659269690E+02  0.00000000000E+00 0.  1.
         11    1    4    4    0    0  0.31471510984E+01  0.86311425811E+00 -0.35575626739E+01  0.48276058972E+01  0.51100000000E-03 0. -1.
        -11    1    4    4    0    0 -0.10295737838E+02  0.87423488489E+00  0.68270019531E+01  0.12384444283E+02  0.51100000000E-03 0.  1.
        -12    1    4    4    0    0 -0.22519479148E+02  0.20967402268E+02  0.12776630071E+02  0.33316680130E+02  0.00000000000E+00 0.  1.
</event>
<event>
 8    1  0.1615837E-013  0.9118800E+02  0.7816164E-02  0.1184000E+00
        -11   -1    0    0    0    0  0.00000000000E+00  0.00000000000E+00  0.45593999997E+02  0.45594000000E+02  0.51100000000E-03 0. -1.
         11   -1    0    0    0    0 -0.00000000000E+00 -0.00000000000E+00 -0.45593999997E+02  0.45594000000E+02  0.51100000000E-03 0.  1.
         23    2    1    2    0    0  0.66613381478E-15  0.00000000000E+00  0.00000000000E+00  0.91188000000E+02  0.91188000000E+02 0.  0.
    9900012    2    3    3    0    0  0.66619700287E+00  0.11039085135E+02  0.39126207717E+02  0.50528863888E+02  0.30000012273E+02 0.  0.
        -12    1    3    3    0    0 -0.66619700287E+00 -0.11039085135E+02 -0.39126207717E+02  0.40659136112E+02  0.00000000000E+00 0.  1.
         11    1    4    4    0    0 -0.87845758093E+01 -0.50490442061E+01  0.65923800693E+01  0.12088055873E+02  0.51100000000E-03 0. -1.
        -11    1    4    4    0    0  0.17209203712E+01  0.12872385093E+01  0.34206462007E+00  0.21761338124E+01  0.51100000000E-03 0.  1.
         12    1    4    4    0    0  0.77298524410E+01  0.14800890832E+02  0.32191763028E+02  0.36264674203E+02  0.00000000000E+00 0. -1.
</event>
<event>
 8    1  0.1615837E-013  0.9118800E+02  0.7816164E-02  0.1184000E+00
        -11   -1    0    0    0    0  0.00000000000E+00  0.00000000000E+00  0.45593999997E+02  0.45594000000E+02  0.51100000000E-03 0. -1.
         11   -1    0    0    0    0 -0.00000000000E+00 -0.00000000000E+00 -0.45593999997E+02  0.45594000000E+02  0.51100000000E-03 0.  1.
         23    2    1    2    0    0  0.00000000000E+00  0.00000000000E+00  0.00000000000E+00  0.91188000000E+02  0.91188000000E+02 0.  0.
    9900012    2    3    3    0    0  0.24817075776E+02 -0.25610596892E+02 -0.19528850870E+02  0.50528856631E+02  0.29999990215E+02 0.  0.
         12    1    3    3    0    0 -0.24817075776E+02  0.25610596892E+02  0.19528850870E+02  0.40659143369E+02  0.00000000000E+00 0. -1.
         11    1    4    4    0    0  0.18511468882E+01  0.29060891137E+01 -0.49991369574E+01  0.60715294053E+01  0.51100000000E-03 0. -1.
        -11    1    4    4    0    0 -0.21760792741E+00 -0.12630772215E+02 -0.97320845782E+01  0.15946699673E+02  0.51100000000E-03 0.  1.
        -12    1    4    4    0    0  0.23183536815E+02 -0.15885913790E+02 -0.47976293342E+01  0.28510627552E+02  0.00000000000E+00 0.  1.
</event>
<event>
 8    1  0.1615837E-013  0.9118800E+02  0.7816164E-02  0.1184000E+00
        -11   -1    0    0    0    0  0.00000000000E+00  0.00000000000E+00  0.45593999997E+02  0.45594000000E+02  0.51100000000E-03 0. -1.
         11   -1    0    0    0    0 -0.00000000000E+00 -0.00000000000E+00 -0.45593999997E+02  0.45594000000E+02  0.51100000000E-03 0.  1.
         23    2    1    2    0    0  0.17763568394E-14  0.00000000000E+00  0.00000000000E+00  0.91188000000E+02  0.91188000000E+02 0.  0.
    9900012    2    3    3    0    0 -0.11685712069E+02 -0.16702425504E+02  0.35180090533E+02  0.50528860139E+02  0.30000000879E+02 0.  0.
        -12    1    3    3    0    0  0.11685712069E+02  0.16702425504E+02 -0.35180090533E+02  0.40659139861E+02  0.00000000000E+00 0.  1.
         11    1    4    4    0    0  0.54686470058E+01 -0.38365503874E+01  0.21693628814E+02  0.22698871124E+02  0.51100000000E-03 0. -1.
        -11    1    4    4    0    0 -0.72228633468E+00 -0.16578251079E+01  0.65020412172E+01  0.67488237411E+01  0.51100000000E-03 0.  1.
        -12    1    4    4    0    0 -0.16432072740E+02 -0.11208050009E+02  0.69844205024E+01  0.21081165274E+02  0.00000000000E+00 0.  1.
</event>
<event>
 8    1  0.1615837E-013  0.9118800E+02  0.7816164E-02  0.1184000E+00
        -11   -1    0    0    0    0  0.00000000000E+00  0.00000000000E+00  0.45593999997E+02  0.45594000000E+02  0.51100000000E-03 0. -1.
         11   -1    0    0    0    0 -0.00000000000E+00 -0.00000000000E+00 -0.45593999997E+02  0.45594000000E+02  0.51100000000E-03 0.  1.
         23    2    1    2    0    0  0.00000000000E+00  0.13322676296E-14 -0.11102230246E-14  0.91188000000E+02  0.91188000000E+02 0.  0.
    9900012    2    3    3    0    0  0.40491278990E+02 -0.33735143624E+01 -0.14970640618E+01  0.50528862353E+02  0.30000007608E+02 0.  0.
        -12    1    3    3    0    0 -0.40491278990E+02  0.33735143624E+01  0.14970640618E+01  0.40659137647E+02  0.00000000000E+00 0.  1.
         11    1    4    4    0    0  0.14584306467E+02 -0.11675302415E+01 -0.53608539382E+01  0.15582165357E+02  0.51100000000E-03 0. -1.
        -11    1    4    4    0    0  0.68628472981E+01 -0.79053564277E+01 -0.67062863854E+01  0.12432522296E+02  0.51100000000E-03 0.  1.
         12    1    4    4    0    0  0.19044125224E+02  0.56993723069E+01  0.10570076262E+02  0.22514174700E+02  0.00000000000E+00 0. -1.
</event>
<event>
 8    1  0.1615837E-013  0.9118800E+02  0.7816164E-02  0.1184000E+00
        -11   -1    0    0    0    0  0.00000000000E+00  0.00000000000E+00  0.45593999997E+02  0.45594000000E+02  0.51100000000E-03 0. -1.
         11   -1    0    0    0    0 -0.00000000000E+00 -0.00000000000E+00 -0.45593999997E+02  0.45594000000E+02  0.51100000000E-03 0.  1.
         23    2    1    2    0    0 -0.88817841970E-15  0.00000000000E+00  0.00000000000E+00  0.91188000000E+02  0.91188000000E+02 0.  0.
    9900012    2    3    3    0    0 -0.16706845016E+01  0.10363344759E+02 -0.39280687769E+02  0.50528898523E+02  0.30000117551E+02 0.  0.
         12    1    3    3    0    0  0.16706845016E+01 -0.10363344759E+02  0.39280687769E+02  0.40659101477E+02  0.00000000000E+00 0. -1.
         11    1    4    4    0    0  0.66107820433E+01  0.91017236349E+01 -0.12266821987E+02  0.16643879784E+02  0.51100000000E-03 0. -1.
        -11    1    4    4    0    0  0.27022894860E+00 -0.78978901328E+01 -0.11225170493E+02  0.13727860179E+02  0.51100000000E-03 0.  1.
         12    1    4    4    0    0 -0.85516954936E+01  0.91595112570E+01 -0.15788695289E+02  0.20157158560E+02  0.00000000000E+00 0. -1.
</event>
<event>
 8    1  0.1615837E-013  0.9118800E+02  0.7816164E-02  0.1184000E+00
        -11   -1    0    0    0    0  0.00000000000E+00  0.00000000000E+00  0.45593999997E+02  0.45594000000E+02  0.51100000000E-03 0. -1.
         11   -1    0    0    0    0 -0.00000000000E+00 -0.00000000000E+00 -0.45593999997E+02  0.45594000000E+02  0.51100000000E-03 0.  1.
         23    2    1    2    0    0  0.00000000000E+00  0.00000000000E+00  0.00000000000E+00  0.91188000000E+02  0.91188000000E+02 0.  0.
    9900012    2    3    3    0    0  0.13102844945E+02 -0.23264870223E+02  0.30663127692E+02  0.50528854264E+02  0.29999983020E+02 0.  0.
        -12    1    3    3    0    0 -0.13102844945E+02  0.23264870223E+02 -0.30663127692E+02  0.40659145736E+02  0.00000000000E+00 0.  1.
         11    1    4    4    0    0 -0.46557660429E+00  0.69017243877E+00 -0.47208928760E-01  0.83386360622E+00  0.51100000000E-03 0. -1.
        -11    1    4    4    0    0 -0.73837829271E+01 -0.15409654033E+01  0.23160529634E+01  0.78904325787E+01  0.51100000000E-03 0.  1.
         12    1    4    4    0    0  0.20952204476E+02 -0.22414077258E+02  0.28394283657E+02  0.41804558079E+02  0.00000000000E+00 0. -1.
</event>
<event>
 8    1  0.1615837E-013  0.9118800E+02  0.7816164E-02  0.1184000E+00
        -11   -1    0    0    0    0  0.00000000000E+00  0.00000000000E+00  0.45593999997E+02  0.45594000000E+02  0.51100000000E-03 0.  1.
         11   -1    0    0    0    0 -0.00000000000E+00 -0.00000000000E+00 -0.45593999997E+02  0.45594000000E+02  0.51100000000E-03 0. -1.
         23    2    1    2    0    0  0.35527136788E-14  0.00000000000E+00  0.00000000000E+00  0.91188000000E+02  0.91188000000E+02 0.  0.
    9900012    2    3    3    0    0  0.24604606615E+02  0.30804855453E+02  0.99416928637E+01  0.50528892248E+02  0.30000098477E+02 0.  0.
         12    1    3    3    0    0 -0.24604606615E+02 -0.30804855453E+02 -0.99416928637E+01  0.40659107752E+02  0.00000000000E+00 0. -1.
         11    1    4    4    0    0  0.11906100309E+00 -0.26979113219E+01 -0.17169891848E+01  0.32001489254E+01  0.51100000000E-03 0. -1.
        -11    1    4    4    0    0  0.41021839146E+01  0.21249407162E+02  0.22727595554E+01  0.21760759496E+02  0.51100000000E-03 0.  1.
        -12    1    4    4    0    0  0.20383361698E+02  0.12253359613E+02  0.93859224930E+01  0.25567983826E+02  0.00000000000E+00 0.  1.
</event>
<event>
 8    1  0.1615837E-013  0.9118800E+02  0.7816164E-02  0.1184000E+00
        -11   -1    0    0    0    0  0.00000000000E+00  0.00000000000E+00  0.45593999997E+02  0.45594000000E+02  0.51100000000E-03 0. -1.
         11   -1    0    0    0    0 -0.00000000000E+00 -0.00000000000E+00 -0.45593999997E+02  0.45594000000E+02  0.51100000000E-03 0.  1.
         23    2    1    2    0    0 -0.17763568394E-14 -0.17763568394E-14  0.00000000000E+00  0.91188000000E+02  0.91188000000E+02 0.  0.
    9900012    2    3    3    0    0 -0.89835900168E+01 -0.84377357218E+01  0.38746156247E+02  0.50528869443E+02  0.30000029159E+02 0.  0.
        -12    1    3    3    0    0  0.89835900168E+01  0.84377357218E+01 -0.38746156247E+02  0.40659130557E+02  0.00000000000E+00 0.  1.
         11    1    4    4    0    0 -0.13092109961E+00 -0.16736581117E+01  0.63920893985E+00  0.17963463305E+01  0.51100000000E-03 0. -1.
        -11    1    4    4    0    0 -0.10855363806E+02  0.88265487007E+01  0.12925088575E+02  0.19047435530E+02  0.51100000000E-03 0.  1.
        -12    1    4    4    0    0  0.20026948891E+01 -0.15590626311E+02  0.25181858732E+02  0.29685087583E+02  0.00000000000E+00 0.  1.
</event>
<event>
 8    1  0.1615837E-013  0.9118800E+02  0.7816164E-02  0.1184000E+00
        -11   -1    0    0    0    0  0.00000000000E+00  0.00000000000E+00  0.45593999997E+02  0.45594000000E+02  0.51100000000E-03 0. -1.
         11   -1    0    0    0    0 -0.00000000000E+00 -0.00000000000E+00 -0.45593999997E+02  0.45594000000E+02  0.51100000000E-03 0.  1.
         23    2    1    2    0    0  0.00000000000E+00 -0.11102230246E-15 -0.71054273576E-14  0.91188000000E+02  0.91188000000E+02 0.  0.
    9900012    2    3    3    0    0  0.96574812950E+01  0.71665287194E+00  0.39489056987E+02  0.50528853944E+02  0.29999982047E+02 0.  0.
        -12    1    3    3    0    0 -0.96574812950E+01 -0.71665287194E+00 -0.39489056987E+02  0.40659146056E+02  0.00000000000E+00 0.  1.
         11    1    4    4    0    0 -0.18623594387E+01  0.86536353310E+01  0.50198905031E+01  0.10176103775E+02  0.51100000000E-03 0.  1.
        -11    1    4    4    0    0  0.86929911921E+01 -0.16179968820E+01  0.51612354776E+01  0.10238376907E+02  0.51100000000E-03 0. -1.
         12    1    4    4    0    0  0.28268495415E+01 -0.63189855771E+01  0.29307931006E+02  0.30114373261E+02  0.00000000000E+00 0. -1.
</event>
<event>
 8    1  0.1615837E-013  0.9118800E+02  0.7816164E-02  0.1184000E+00
        -11   -1    0    0    0    0  0.00000000000E+00  0.00000000000E+00  0.45593999997E+02  0.45594000000E+02  0.51100000000E-03 0. -1.
         11   -1    0    0    0    0 -0.00000000000E+00 -0.00000000000E+00 -0.45593999997E+02  0.45594000000E+02  0.51100000000E-03 0.  1.
         23    2    1    2    0    0 -0.71054273576E-14 -0.17763568394E-14  0.00000000000E+00  0.91188000000E+02  0.91188000000E+02 0.  0.
    9900012    2    3    3    0    0  0.39296971048E+02  0.72567889599E+01  0.75001940775E+01  0.50528857968E+02  0.29999994280E+02 0.  0.
        -12    1    3    3    0    0 -0.39296971048E+02 -0.72567889599E+01 -0.75001940775E+01  0.40659142032E+02  0.00000000000E+00 0.  1.
         11    1    4    4    0    0  0.20735577334E+02  0.42216658560E+01  0.30040789940E+01  0.21373140173E+02  0.51100000000E-03 0. -1.
        -11    1    4    4    0    0  0.19210367601E+02 -0.56868809467E+01  0.37022645111E+01  0.20373649674E+02  0.51100000000E-03 0.  1.
        -12    1    4    4    0    0 -0.64897388675E+00  0.87220040507E+01  0.79385057247E+00  0.87820681219E+01  0.00000000000E+00 0.  1.
</event>
<event>
 8    1  0.1615837E-013  0.9118800E+02  0.7816164E-02  0.1184000E+00
        -11   -1    0    0    0    0  0.00000000000E+00  0.00000000000E+00  0.45593999997E+02  0.45594000000E+02  0.51100000000E-03 0. -1.
         11   -1    0    0    0    0 -0.00000000000E+00 -0.00000000000E+00 -0.45593999997E+02  0.45594000000E+02  0.51100000000E-03 0.  1.
         23    2    1    2    0    0 -0.17763568394E-14 -0.88817841970E-15 -0.71054273576E-14  0.91188000000E+02  0.91188000000E+02 0.  0.
    9900012    2    3    3    0    0 -0.10316856887E+02  0.69434234461E+01  0.38710684987E+02  0.50528858380E+02  0.29999995531E+02 0.  0.
        -12    1    3    3    0    0  0.10316856887E+02 -0.69434234461E+01 -0.38710684987E+02  0.40659141620E+02  0.00000000000E+00 0.  1.
         11    1    4    4    0    0  0.88331717493E+01  0.51128865634E+01  0.98597619479E+01  0.14190892787E+02  0.51100000000E-03 0.  1.
        -11    1    4    4    0    0 -0.93735077685E+01  0.32284316221E+01  0.22523768442E+02  0.24609054506E+02  0.51100000000E-03 0. -1.
        -12    1    4    4    0    0 -0.97765208674E+01 -0.13978947395E+01  0.63271545970E+01  0.11728911086E+02  0.00000000000E+00 0.  1.
</event>
<event>
 8    1  0.1615837E-013  0.9118800E+02  0.7816164E-02  0.1184000E+00
        -11   -1    0    0    0    0  0.00000000000E+00  0.00000000000E+00  0.45593999997E+02  0.45594000000E+02  0.51100000000E-03 0. -1.
         11   -1    0    0    0    0 -0.00000000000E+00 -0.00000000000E+00 -0.45593999997E+02  0.45594000000E+02  0.51100000000E-03 0.  1.
         23    2    1    2    0    0  0.00000000000E+00  0.17763568394E-14  0.00000000000E+00  0.91188000000E+02  0.91188000000E+02 0.  0.
    9900012    2    3    3    0    0  0.20280194445E+02  0.92867418213E+01 -0.33994625630E+02  0.50528875168E+02  0.30000046561E+02 0.  0.
         12    1    3    3    0    0 -0.20280194445E+02 -0.92867418213E+01  0.33994625630E+02  0.40659124832E+02  0.00000000000E+00 0. -1.
         11    1    4    4    0    0  0.63703853534E+01  0.39520019202E+01  0.49987937541E+00  0.75133220601E+01  0.51100000000E-03 0. -1.
        -11    1    4    4    0    0  0.14230672760E+02  0.80069426438E+01 -0.11760856478E+02  0.20123143965E+02  0.51100000000E-03 0.  1.
         12    1    4    4    0    0 -0.32086366810E+00 -0.26722027427E+01 -0.22733648527E+02  0.22892409143E+02  0.00000000000E+00 0. -1.
</event>
<event>
 8    1  0.1615837E-013  0.9118800E+02  0.7816164E-02  0.1184000E+00
        -11   -1    0    0    0    0  0.00000000000E+00  0.00000000000E+00  0.45593999997E+02  0.45594000000E+02  0.51100000000E-03 0. -1.
         11   -1    0    0    0    0 -0.00000000000E+00 -0.00000000000E+00 -0.45593999997E+02  0.45594000000E+02  0.51100000000E-03 0.  1.
         23    2    1    2    0    0 -0.35527136788E-14 -0.88817841970E-15  0.00000000000E+00  0.91188000000E+02  0.91188000000E+02 0.  0.
    9900012    2    3    3    0    0  0.21138203948E+02  0.69674677711E+01  0.34026412264E+02  0.50528855827E+02  0.29999987773E+02 0.  0.
        -12    1    3    3    0    0 -0.21138203948E+02 -0.69674677711E+01 -0.34026412264E+02  0.40659144173E+02  0.00000000000E+00 0.  1.
         11    1    4    4    0    0  0.14319154361E+02 -0.29942626150E+01  0.12519001440E+02  0.19254329060E+02  0.51100000000E-03 0. -1.
        -11    1    4    4    0    0  0.29854286070E+01 -0.47026892743E+01  0.82251776778E+00  0.56306843383E+01  0.51100000000E-03 0.  1.
        -12    1    4    4    0    0  0.38336209798E+01  0.14664419660E+02  0.20684893056E+02  0.25643842429E+02  0.00000000000E+00 0.  1.
</event>
<event>
 8    1  0.1615837E-013  0.9118800E+02  0.7816164E-02  0.1184000E+00
        -11   -1    0    0    0    0  0.00000000000E+00  0.00000000000E+00  0.45593999997E+02  0.45594000000E+02  0.51100000000E-03 0. -1.
         11   -1    0    0    0    0 -0.00000000000E+00 -0.00000000000E+00 -0.45593999997E+02  0.45594000000E+02  0.51100000000E-03 0.  1.
         23    2    1    2    0    0  0.44408920985E-15  0.00000000000E+00 -0.17763568394E-14  0.91188000000E+02  0.91188000000E+02 0.  0.
    9900012    2    3    3    0    0 -0.27985158308E+01  0.38699000440E+02  0.12154135925E+02  0.50528839335E+02  0.29999937643E+02 0.  0.
        -12    1    3    3    0    0  0.27985158308E+01 -0.38699000440E+02 -0.12154135925E+02  0.40659160665E+02  0.00000000000E+00 0.  1.
         11    1    4    4    0    0  0.26936369897E+00  0.19767571302E+02 -0.60271923845E+01  0.20667764279E+02  0.51100000000E-03 0. -1.
        -11    1    4    4    0    0 -0.60260333424E+01  0.32319055896E+01  0.20055470749E+01  0.71260445490E+01  0.51100000000E-03 0.  1.
         12    1    4    4    0    0  0.29581538127E+01  0.15699523548E+02  0.16175781235E+02  0.22735030507E+02  0.00000000000E+00 0. -1.
</event>
<event>
 8    1  0.1615837E-013  0.9118800E+02  0.7816164E-02  0.1184000E+00
        -11   -1    0    0    0    0  0.00000000000E+00  0.00000000000E+00  0.45593999997E+02  0.45594000000E+02  0.51100000000E-03 0. -1.
         11   -1    0    0    0    0 -0.00000000000E+00 -0.00000000000E+00 -0.45593999997E+02  0.45594000000E+02  0.51100000000E-03 0.  1.
         23    2    1    2    0    0  0.35527136788E-14  0.00000000000E+00 -0.71054273576E-14  0.91188000000E+02  0.91188000000E+02 0.  0.
    9900012    2    3    3    0    0 -0.16147753438E+02  0.21031763710E+02  0.30823378221E+02  0.50528859935E+02  0.30000000260E+02 0.  0.
        -12    1    3    3    0    0  0.16147753438E+02 -0.21031763710E+02 -0.30823378221E+02  0.40659140065E+02  0.00000000000E+00 0.  1.
         11    1    4    4    0    0 -0.41035194641E+01  0.20003061426E+01  0.17121403089E+02  0.17719552496E+02  0.51100000000E-03 0. -1.
        -11    1    4    4    0    0 -0.91427782005E+01  0.60940003762E+01  0.15942930156E+02  0.19362444474E+02  0.51100000000E-03 0.  1.
        -12    1    4    4    0    0 -0.29014557734E+01  0.12937457191E+02 -0.22409550242E+01  0.13446862965E+02  0.00000000000E+00 0.  1.
</event>
<event>
 8    1  0.1615837E-013  0.9118800E+02  0.7816164E-02  0.1184000E+00
        -11   -1    0    0    0    0  0.00000000000E+00  0.00000000000E+00  0.45593999997E+02  0.45594000000E+02  0.51100000000E-03 0.  1.
         11   -1    0    0    0    0 -0.00000000000E+00 -0.00000000000E+00 -0.45593999997E+02  0.45594000000E+02  0.51100000000E-03 0. -1.
         23    2    1    2    0    0  0.00000000000E+00 -0.35527136788E-14  0.44408920985E-15  0.91188000000E+02  0.91188000000E+02 0.  0.
    9900012    2    3    3    0    0 -0.37158612547E+02 -0.16333368392E+02 -0.23715462551E+01  0.50528860301E+02  0.30000001371E+02 0.  0.
         12    1    3    3    0    0  0.37158612547E+02  0.16333368392E+02  0.23715462551E+01  0.40659139699E+02  0.00000000000E+00 0. -1.
         11    1    4    4    0    0 -0.69757782556E-01  0.19324956427E+01  0.15015372346E+01  0.24482687527E+01  0.51100000000E-03 0. -1.
        -11    1    4    4    0    0  0.17431582904E+01 -0.21448550792E+01 -0.53365123894E+01  0.60097727810E+01  0.51100000000E-03 0.  1.
        -12    1    4    4    0    0 -0.38832013055E+02 -0.16121008955E+02  0.14634288997E+01  0.42070818767E+02  0.00000000000E+00 0.  1.
</event>
<event>
 8    1  0.1615837E-013  0.9118800E+02  0.7816164E-02  0.1184000E+00
        -11   -1    0    0    0    0  0.00000000000E+00  0.00000000000E+00  0.45593999997E+02  0.45594000000E+02  0.51100000000E-03 0.  1.
         11   -1    0    0    0    0 -0.00000000000E+00 -0.00000000000E+00 -0.45593999997E+02  0.45594000000E+02  0.51100000000E-03 0. -1.
         23    2    1    2    0    0 -0.17763568394E-14  0.00000000000E+00  0.17763568394E-14  0.91188000000E+02  0.91188000000E+02 0.  0.
    9900012    2    3    3    0    0  0.10428724281E+02  0.37454808140E+02 -0.11897454426E+02  0.50528802212E+02  0.29999824802E+02 0.  0.
         12    1    3    3    0    0 -0.10428724281E+02 -0.37454808140E+02  0.11897454426E+02  0.40659197788E+02  0.00000000000E+00 0. -1.
         11    1    4    4    0    0 -0.73748489933E+01  0.12641339962E+02 -0.11503136484E+02  0.18614887132E+02  0.51100000000E-03 0. -1.
        -11    1    4    4    0    0  0.49527882117E+01  0.12455308603E+02  0.30715667243E+01  0.13751339785E+02  0.51100000000E-03 0.  1.
        -12    1    4    4    0    0  0.12850785063E+02  0.12358159575E+02 -0.34658846668E+01  0.18162575295E+02  0.00000000000E+00 0.  1.
</event>
<event>
 8    1  0.1615837E-013  0.9118800E+02  0.7816164E-02  0.1184000E+00
        -11   -1    0    0    0    0  0.00000000000E+00  0.00000000000E+00  0.45593999997E+02  0.45594000000E+02  0.51100000000E-03 0. -1.
         11   -1    0    0    0    0 -0.00000000000E+00 -0.00000000000E+00 -0.45593999997E+02  0.45594000000E+02  0.51100000000E-03 0.  1.
         23    2    1    2    0    0  0.00000000000E+00  0.17763568394E-14 -0.71054273576E-14  0.91188000000E+02  0.91188000000E+02 0.  0.
    9900012    2    3    3    0    0 -0.18780761143E+02  0.35781440544E+01 -0.35883784572E+02  0.50528854667E+02  0.29999984247E+02 0.  0.
         12    1    3    3    0    0  0.18780761143E+02 -0.35781440544E+01  0.35883784572E+02  0.40659145333E+02  0.00000000000E+00 0. -1.
         11    1    4    4    0    0 -0.13596321632E+02  0.21757649096E+01 -0.18607870701E+02  0.23148364243E+02  0.51100000000E-03 0. -1.
        -11    1    4    4    0    0 -0.66507769699E+01  0.70637505831E+01 -0.18957006334E+02  0.21295480648E+02  0.51100000000E-03 0.  1.
         12    1    4    4    0    0  0.14663374593E+01 -0.56613714383E+01  0.16810924630E+01  0.60850097761E+01  0.00000000000E+00 0. -1.
</event>
<event>
 8    1  0.1615837E-013  0.9118800E+02  0.7816164E-02  0.1184000E+00
        -11   -1    0    0    0    0  0.00000000000E+00  0.00000000000E+00  0.45593999997E+02  0.45594000000E+02  0.51100000000E-03 0. -1.
         11   -1    0    0    0    0 -0.00000000000E+00 -0.00000000000E+00 -0.45593999997E+02  0.45594000000E+02  0.51100000000E-03 0.  1.
         23    2    1    2    0    0  0.35527136788E-14  0.00000000000E+00  0.35527136788E-14  0.91188000000E+02  0.91188000000E+02 0.  0.
    9900012    2    3    3    0    0  0.21059833318E+02  0.25897258899E+02  0.23215973349E+02  0.50528855685E+02  0.29999987341E+02 0.  0.
        -12    1    3    3    0    0 -0.21059833318E+02 -0.25897258899E+02 -0.23215973349E+02  0.40659144315E+02  0.00000000000E+00 0.  1.
         11    1    4    4    0    0 -0.21113934299E+01 -0.11332591494E+01  0.61438624025E+01  0.65946420674E+01  0.51100000000E-03 0. -1.
        -11    1    4    4    0    0  0.89349901907E+01  0.11681330991E+02 -0.29120999557E+01  0.14992260332E+02  0.51100000000E-03 0.  1.
         12    1    4    4    0    0  0.14236236557E+02  0.15349187057E+02  0.19984210902E+02  0.28941953286E+02  0.00000000000E+00 0. -1.
</event>
<event>
 8    1  0.1615837E-013  0.9118800E+02  0.7816164E-02  0.1184000E+00
        -11   -1    0    0    0    0  0.00000000000E+00  0.00000000000E+00  0.45593999997E+02  0.45594000000E+02  0.51100000000E-03 0. -1.
         11   -1    0    0    0    0 -0.00000000000E+00 -0.00000000000E+00 -0.45593999997E+02  0.45594000000E+02  0.51100000000E-03 0.  1.
         23    2    1    2    0    0  0.00000000000E+00  0.00000000000E+00  0.00000000000E+00  0.91188000000E+02  0.91188000000E+02 0.  0.
    9900012    2    3    3    0    0  0.23284878235E+02  0.93129465293E+01 -0.32003884598E+02  0.50528866256E+02  0.30000019471E+02 0.  0.
         12    1    3    3    0    0 -0.23284878235E+02 -0.93129465293E+01  0.32003884598E+02  0.40659133744E+02  0.00000000000E+00 0. -1.
         11    1    4    4    0    0 -0.83975585583E+00  0.47922292088E+01 -0.11020226684E+02  0.12046412209E+02  0.51100000000E-03 0. -1.
        -11    1    4    4    0    0  0.11093912287E+02  0.11125290458E+02 -0.17393497758E+02  0.23438872459E+02  0.51100000000E-03 0.  1.
        -12    1    4    4    0    0  0.13030721804E+02 -0.66045731372E+01 -0.35901601554E+01  0.15043581588E+02  0.00000000000E+00 0.  1.
</event>
<event>
 8    1  0.1615837E-013  0.9118800E+02  0.7816164E-02  0.1184000E+00
        -11   -1    0    0    0    0  0.00000000000E+00  0.00000000000E+00  0.45593999997E+02  0.45594000000E+02  0.51100000000E-03 0.  1.
         11   -1    0    0    0    0 -0.00000000000E+00 -0.00000000000E+00 -0.45593999997E+02  0.45594000000E+02  0.51100000000E-03 0. -1.
         23    2    1    2    0    0  0.00000000000E+00 -0.35527136788E-14  0.17763568394E-14  0.91188000000E+02  0.91188000000E+02 0.  0.
    9900012    2    3    3    0    0 -0.24642667391E+02 -0.29259986959E+02  0.13775019607E+02  0.50528941254E+02  0.30000247433E+02 0.  0.
        -12    1    3    3    0    0  0.24642667391E+02  0.29259986959E+02 -0.13775019607E+02  0.40659058746E+02  0.00000000000E+00 0.  1.
         11    1    4    4    0    0 -0.47515977714E+01  0.34569555034E+01  0.35361883115E+01  0.68580500705E+01  0.51100000000E-03 0. -1.
        -11    1    4    4    0    0  0.14674945724E+01  0.15096532337E+01  0.64157321230E+00  0.22009565316E+01  0.51100000000E-03 0.  1.
         12    1    4    4    0    0 -0.21358564192E+02 -0.34226595696E+02  0.95972580835E+01  0.41469934651E+02  0.00000000000E+00 0. -1.
</event>
<event>
 8    1  0.1615837E-013  0.9118800E+02  0.7816164E-02  0.1184000E+00
        -11   -1    0    0    0    0  0.00000000000E+00  0.00000000000E+00  0.45593999997E+02  0.45594000000E+02  0.51100000000E-03 0. -1.
         11   -1    0    0    0    0 -0.00000000000E+00 -0.00000000000E+00 -0.45593999997E+02  0.45594000000E+02  0.51100000000E-03 0.  1.
         23    2    1    2    0    0  0.17763568394E-14 -0.71054273576E-14  0.00000000000E+00  0.91188000000E+02  0.91188000000E+02 0.  0.
    9900012    2    3    3    0    0  0.88259020747E+01 -0.30300130820E+02 -0.25635333967E+02  0.50528870364E+02  0.30000031959E+02 0.  0.
         12    1    3    3    0    0 -0.88259020747E+01  0.30300130820E+02  0.25635333967E+02  0.40659129636E+02  0.00000000000E+00 0. -1.
         11    1    4    4    0    0  0.11259784778E+02 -0.97322653986E+01 -0.14150204233E+02  0.20536017704E+02  0.51100000000E-03 0. -1.
        -11    1    4    4    0    0  0.26835177129E+01 -0.11163423742E+02 -0.14849146056E+02  0.18770200740E+02  0.51100000000E-03 0.  1.
         12    1    4    4    0    0 -0.51174004163E+01 -0.94044416789E+01  0.33640163219E+01  0.11222651920E+02  0.00000000000E+00 0. -1.
</event>
<event>
 8    1  0.1615837E-013  0.9118800E+02  0.7816164E-02  0.1184000E+00
        -11   -1    0    0    0    0  0.00000000000E+00  0.00000000000E+00  0.45593999997E+02  0.45594000000E+02  0.51100000000E-03 0.  1.
         11   -1    0    0    0    0 -0.00000000000E+00 -0.00000000000E+00 -0.45593999997E+02  0.45594000000E+02  0.51100000000E-03 0. -1.
         23    2    1    2    0    0  0.71054273576E-14  0.00000000000E+00  0.44408920985E-15  0.91188000000E+02  0.91188000000E+02 0.  0.
    9900012    2    3    3    0    0  0.39911561377E+02  0.66791498548E+01  0.39516144766E+01  0.50528941584E+02  0.30000248437E+02 0.  0.
         12    1    3    3    0    0 -0.39911561377E+02 -0.66791498548E+01 -0.39516144766E+01  0.40659058416E+02  0.00000000000E+00 0. -1.
         11    1    4    4    0    0  0.16834380600E+02 -0.19273773185E+01 -0.97617152461E+01  0.19555107729E+02  0.51100000000E-03 0. -1.
        -11    1    4    4    0    0  0.21992468920E+02  0.76493532711E+01  0.73043045159E+01  0.24403568579E+02  0.51100000000E-03 0.  1.
         12    1    4    4    0    0  0.10847118573E+01  0.95717390218E+00  0.64090252068E+01  0.65702652758E+01  0.00000000000E+00 0. -1.
</event>
<event>
 8    1  0.1615837E-013  0.9118800E+02  0.7816164E-02  0.1184000E+00
        -11   -1    0    0    0    0  0.00000000000E+00  0.00000000000E+00  0.45593999997E+02  0.45594000000E+02  0.51100000000E-03 0.  1.
         11   -1    0    0    0    0 -0.00000000000E+00 -0.00000000000E+00 -0.45593999997E+02  0.45594000000E+02  0.51100000000E-03 0. -1.
         23    2    1    2    0    0  0.88817841970E-15  0.35527136788E-14  0.71054273576E-14  0.91188000000E+02  0.91188000000E+02 0.  0.
    9900012    2    3    3    0    0 -0.47963048934E+01 -0.26911969663E+02 -0.30098264595E+02  0.50528878227E+02  0.30000055857E+02 0.  0.
         12    1    3    3    0    0  0.47963048934E+01  0.26911969663E+02  0.30098264595E+02  0.40659121773E+02  0.00000000000E+00 0. -1.
         11    1    4    4    0    0 -0.58202117834E+01 -0.37077044957E+01 -0.68927752405E+01  0.97535782464E+01  0.51100000000E-03 0. -1.
        -11    1    4    4    0    0 -0.39632634693E+00 -0.14017055356E-01  0.45566667233E+01  0.45738914438E+01  0.51100000000E-03 0.  1.
        -12    1    4    4    0    0  0.14202332369E+01 -0.23190248112E+02 -0.27762156077E+02  0.36201408536E+02  0.00000000000E+00 0.  1.
</event>
<event>
 8    1  0.1615837E-013  0.9118800E+02  0.7816164E-02  0.1184000E+00
        -11   -1    0    0    0    0  0.00000000000E+00  0.00000000000E+00  0.45593999997E+02  0.45594000000E+02  0.51100000000E-03 0. -1.
         11   -1    0    0    0    0 -0.00000000000E+00 -0.00000000000E+00 -0.45593999997E+02  0.45594000000E+02  0.51100000000E-03 0.  1.
         23    2    1    2    0    0  0.00000000000E+00 -0.71054273576E-14 -0.88817841970E-15  0.91188000000E+02  0.91188000000E+02 0.  0.
    9900012    2    3    3    0    0 -0.15091171549E+02 -0.37685982311E+02  0.22778712239E+01  0.50528863035E+02  0.30000009680E+02 0.  0.
         12    1    3    3    0    0  0.15091171549E+02  0.37685982311E+02 -0.22778712239E+01  0.40659136965E+02  0.00000000000E+00 0. -1.
         11    1    4    4    0    0  0.49370155844E+01 -0.39962243951E+01 -0.49423871021E+00  0.63708872585E+01  0.51100000000E-03 0. -1.
        -11    1    4    4    0    0 -0.38712183516E+01 -0.24504953858E+02  0.53948948903E+01  0.25388658614E+02  0.51100000000E-03 0.  1.
        -12    1    4    4    0    0 -0.16156968782E+02 -0.91848040581E+01 -0.26227849561E+01  0.18769317162E+02  0.00000000000E+00 0.  1.
</event>
<event>
 8    1  0.1615837E-013  0.9118800E+02  0.7816164E-02  0.1184000E+00
        -11   -1    0    0    0    0  0.00000000000E+00  0.00000000000E+00  0.45593999997E+02  0.45594000000E+02  0.51100000000E-03 0. -1.
         11   -1    0    0    0    0 -0.00000000000E+00 -0.00000000000E+00 -0.45593999997E+02  0.45594000000E+02  0.51100000000E-03 0.  1.
         23    2    1    2    0    0  0.22204460493E-14 -0.17763568394E-14 -0.71054273576E-14  0.91188000000E+02  0.91188000000E+02 0.  0.
    9900012    2    3    3    0    0 -0.22052044862E+01  0.90129589133E+01  0.39586229438E+02  0.50528856916E+02  0.29999991082E+02 0.  0.
        -12    1    3    3    0    0  0.22052044862E+01 -0.90129589133E+01 -0.39586229438E+02  0.40659143084E+02  0.00000000000E+00 0.  1.
         11    1    4    4    0    0 -0.77511260832E+01  0.79287174913E+01  0.16686672978E+02  0.20034709181E+02  0.51100000000E-03 0. -1.
        -11    1    4    4    0    0 -0.53119584374E+01  0.52546829874E+01  0.44872388571E+01  0.87157276553E+01  0.51100000000E-03 0.  1.
        -12    1    4    4    0    0  0.10857880034E+02 -0.41704415654E+01  0.18412317602E+02  0.21778420080E+02  0.00000000000E+00 0.  1.
</event>
<event>
 8    1  0.1615837E-013  0.9118800E+02  0.7816164E-02  0.1184000E+00
        -11   -1    0    0    0    0  0.00000000000E+00  0.00000000000E+00  0.45593999997E+02  0.45594000000E+02  0.51100000000E-03 0. -1.
         11   -1    0    0    0    0 -0.00000000000E+00 -0.00000000000E+00 -0.45593999997E+02  0.45594000000E+02  0.51100000000E-03 0.  1.
         23    2    1    2    0    0  0.00000000000E+00  0.00000000000E+00  0.00000000000E+00  0.91188000000E+02  0.91188000000E+02 0.  0.
    9900012    2    3    3    0    0 -0.31938164026E+02 -0.65154020040E+01 -0.24303684087E+02  0.50528857796E+02  0.29999993755E+02 0.  0.
         12    1    3    3    0    0  0.31938164026E+02  0.65154020040E+01  0.24303684087E+02  0.40659142204E+02  0.00000000000E+00 0. -1.
         11    1    4    4    0    0 -0.94593924546E+01 -0.85709011463E-01  0.55121870906E+00  0.94758268225E+01  0.51100000000E-03 0. -1.
        -11    1    4    4    0    0 -0.14935798483E+02 -0.78679787106E+00 -0.52788424850E+00  0.14965820701E+02  0.51100000000E-03 0.  1.
         12    1    4    4    0    0 -0.75429730881E+01 -0.56428951215E+01 -0.24327018547E+02  0.26087210272E+02  0.00000000000E+00 0. -1.
</event>
<event>
 8    1  0.1615837E-013  0.9118800E+02  0.7816164E-02  0.1184000E+00
        -11   -1    0    0    0    0  0.00000000000E+00  0.00000000000E+00  0.45593999997E+02  0.45594000000E+02  0.51100000000E-03 0.  1.
         11   -1    0    0    0    0 -0.00000000000E+00 -0.00000000000E+00 -0.45593999997E+02  0.45594000000E+02  0.51100000000E-03 0. -1.
         23    2    1    2    0    0  0.00000000000E+00  0.00000000000E+00 -0.17763568394E-14  0.91188000000E+02  0.91188000000E+02 0.  0.
    9900012    2    3    3    0    0  0.34522322236E+02  0.21358186667E+02  0.22809682266E+01  0.50528859745E+02  0.29999999681E+02 0.  0.
         12    1    3    3    0    0 -0.34522322236E+02 -0.21358186667E+02 -0.22809682266E+01  0.40659140255E+02  0.00000000000E+00 0. -1.
         11    1    4    4    0    0  0.83940528722E+01  0.28191830936E+01 -0.46711028334E+01  0.10011349503E+02  0.51100000000E-03 0. -1.
        -11    1    4    4    0    0  0.13967977003E+02 -0.23983361341E+01 -0.27442883693E+01  0.14435633575E+02  0.51100000000E-03 0.  1.
         12    1    4    4    0    0  0.12160292360E+02  0.20937339707E+02  0.96963594293E+01  0.26081876667E+02  0.00000000000E+00 0. -1.
</event>
<event>
 8    1  0.1615837E-013  0.9118800E+02  0.7816164E-02  0.1184000E+00
        -11   -1    0    0    0    0  0.00000000000E+00  0.00000000000E+00  0.45593999997E+02  0.45594000000E+02  0.51100000000E-03 0. -1.
         11   -1    0    0    0    0 -0.00000000000E+00 -0.00000000000E+00 -0.45593999997E+02  0.45594000000E+02  0.51100000000E-03 0.  1.
         23    2    1    2    0    0  0.00000000000E+00 -0.71054273576E-14  0.00000000000E+00  0.91188000000E+02  0.91188000000E+02 0.  0.
    9900012    2    3    3    0    0 -0.16429155808E+02 -0.36069836999E+02 -0.90678659342E+01  0.50528726835E+02  0.29999595684E+02 0.  0.
         12    1    3    3    0    0  0.16429155808E+02  0.36069836999E+02  0.90678659342E+01  0.40659273165E+02  0.00000000000E+00 0. -1.
         11    1    4    4    0    0 -0.11449689497E+02 -0.53738800840E+01  0.30657704356E+01  0.13014335379E+02  0.51100000000E-03 0. -1.
        -11    1    4    4    0    0 -0.77343961070E+01 -0.13714597111E+02 -0.12809646695E+02  0.20297736469E+02  0.51100000000E-03 0.  1.
         12    1    4    4    0    0  0.27549297954E+01 -0.16981359804E+02  0.67601032471E+00  0.17216654986E+02  0.00000000000E+00 0. -1.
</event>
<event>
 8    1  0.1615837E-013  0.9118800E+02  0.7816164E-02  0.1184000E+00
        -11   -1    0    0    0    0  0.00000000000E+00  0.00000000000E+00  0.45593999997E+02  0.45594000000E+02  0.51100000000E-03 0.  1.
         11   -1    0    0    0    0 -0.00000000000E+00 -0.00000000000E+00 -0.45593999997E+02  0.45594000000E+02  0.51100000000E-03 0. -1.
         23    2    1    2    0    0  0.35527136788E-14  0.35527136788E-14 -0.17763568394E-14  0.91188000000E+02  0.91188000000E+02 0.  0.
    9900012    2    3    3    0    0 -0.21448206859E+02 -0.31940189509E+02  0.13151595434E+02  0.50528859013E+02  0.29999997455E+02 0.  0.
        -12    1    3    3    0    0  0.21448206859E+02  0.31940189509E+02 -0.13151595434E+02  0.40659140987E+02  0.00000000000E+00 0.  1.
         11    1    4    4    0    0 -0.71033419400E+01  0.59343939017E+00  0.56971279039E+01  0.91250700623E+01  0.51100000000E-03 0. -1.
        -11    1    4    4    0    0 -0.95475078953E+01 -0.40678469374E+01  0.70274124945E+01  0.12533427797E+02  0.51100000000E-03 0.  1.
         12    1    4    4    0    0 -0.47973570236E+01 -0.28465781962E+02  0.42705503544E+00  0.28870361153E+02  0.00000000000E+00 0. -1.
</event>
<event>
 8    1  0.1615837E-013  0.9118800E+02  0.7816164E-02  0.1184000E+00
        -11   -1    0    0    0    0  0.00000000000E+00  0.00000000000E+00  0.45593999997E+02  0.45594000000E+02  0.51100000000E-03 0.  1.
         11   -1    0    0    0    0 -0.00000000000E+00 -0.00000000000E+00 -0.45593999997E+02  0.45594000000E+02  0.51100000000E-03 0. -1.
         23    2    1    2    0    0  0.71054273576E-14  0.00000000000E+00 -0.88817841970E-15  0.91188000000E+02  0.91188000000E+02 0.  0.
    9900012    2    3    3    0    0  0.33727145494E+02 -0.22614748465E+02  0.20537290730E+01  0.50528868253E+02  0.30000025542E+02 0.  0.
         12    1    3    3    0    0 -0.33727145494E+02  0.22614748465E+02 -0.20537290730E+01  0.40659131747E+02  0.00000000000E+00 0. -1.
         11    1    4    4    0    0  0.19436167701E+02 -0.55473869280E+01  0.40574754684E+00  0.20216397997E+02  0.51100000000E-03 0. -1.
        -11    1    4    4    0    0  0.52208854890E+01 -0.15056304397E+02 -0.71964185167E+01  0.17485376379E+02  0.51100000000E-03 0.  1.
         12    1    4    4    0    0  0.90700923043E+01 -0.20110571396E+01  0.88444000428E+01  0.12827093878E+02  0.00000000000E+00 0. -1.
</event>
<event>
 8    1  0.1615837E-013  0.9118800E+02  0.7816164E-02  0.1184000E+00
        -11   -1    0    0    0    0  0.00000000000E+00  0.00000000000E+00  0.45593999997E+02  0.45594000000E+02  0.51100000000E-03 0. -1.
         11   -1    0    0    0    0 -0.00000000000E+00 -0.00000000000E+00 -0.45593999997E+02  0.45594000000E+02  0.51100000000E-03 0.  1.
         23    2    1    2    0    0  0.00000000000E+00  0.00000000000E+00  0.00000000000E+00  0.91188000000E+02  0.91188000000E+02 0.  0.
    9900012    2    3    3    0    0 -0.16288333512E+02 -0.36161349281E+02 -0.89561096709E+01  0.50528869526E+02  0.30000029412E+02 0.  0.
         12    1    3    3    0    0  0.16288333512E+02  0.36161349281E+02  0.89561096709E+01  0.40659130474E+02  0.00000000000E+00 0. -1.
         11    1    4    4    0    0 -0.97957623291E+01 -0.15101018114E+02 -0.41249572651E+01  0.18466536773E+02  0.51100000000E-03 0. -1.
        -11    1    4    4    0    0 -0.71075781085E+01 -0.22619018220E+02 -0.10661296626E+02  0.25996170830E+02  0.51100000000E-03 0.  1.
         12    1    4    4    0    0  0.61500692580E+00  0.15586870528E+01  0.58301442207E+01  0.60661619234E+01  0.00000000000E+00 0. -1.
</event>
<event>
 8    1  0.1615837E-013  0.9118800E+02  0.7816164E-02  0.1184000E+00
        -11   -1    0    0    0    0  0.00000000000E+00  0.00000000000E+00  0.45593999997E+02  0.45594000000E+02  0.51100000000E-03 0.  1.
         11   -1    0    0    0    0 -0.00000000000E+00 -0.00000000000E+00 -0.45593999997E+02  0.45594000000E+02  0.51100000000E-03 0. -1.
         23    2    1    2    0    0  0.00000000000E+00  0.12212453271E-14  0.00000000000E+00  0.91188000000E+02  0.91188000000E+02 0.  0.
    9900012    2    3    3    0    0 -0.31309620385E+02 -0.21162683419E+00 -0.25938912339E+02  0.50528876942E+02  0.30000051952E+02 0.  0.
         12    1    3    3    0    0  0.31309620385E+02  0.21162683419E+00  0.25938912339E+02  0.40659123058E+02  0.00000000000E+00 0. -1.
         11    1    4    4    0    0 -0.46636391937E+01 -0.12839275502E+01 -0.10378074676E+02  0.11449997149E+02  0.51100000000E-03 0.  1.
        -11    1    4    4    0    0 -0.13027876653E+02 -0.57392909627E+01 -0.18729821667E+02  0.23525969710E+02  0.51100000000E-03 0. -1.
        -12    1    4    4    0    0 -0.13618104538E+02  0.68115916787E+01  0.31689840046E+01  0.15552910082E+02  0.00000000000E+00 0.  1.
</event>
<event>
 8    1  0.1615837E-013  0.9118800E+02  0.7816164E-02  0.1184000E+00
        -11   -1    0    0    0    0  0.00000000000E+00  0.00000000000E+00  0.45593999997E+02  0.45594000000E+02  0.51100000000E-03 0. -1.
         11   -1    0    0    0    0 -0.00000000000E+00 -0.00000000000E+00 -0.45593999997E+02  0.45594000000E+02  0.51100000000E-03 0.  1.
         23    2    1    2    0    0  0.35527136788E-14  0.00000000000E+00  0.35527136788E-14  0.91188000000E+02  0.91188000000E+02 0.  0.
    9900012    2    3    3    0    0  0.19852750102E+02 -0.20759268316E+02  0.28776499725E+02  0.50528857805E+02  0.29999993784E+02 0.  0.
        -12    1    3    3    0    0 -0.19852750102E+02  0.20759268316E+02 -0.28776499725E+02  0.40659142195E+02  0.00000000000E+00 0.  1.
         11    1    4    4    0    0  0.16310045326E+01 -0.10768500598E+01 -0.91217074088E+00  0.21568118969E+01  0.51100000000E-03 0.  1.
        -11    1    4    4    0    0  0.44148191736E+01  0.66916488883E+01  0.35971654756E+01  0.87868306516E+01  0.51100000000E-03 0. -1.
         12    1    4    4    0    0  0.13806926396E+02 -0.26374067145E+02  0.26091504990E+02  0.39585215256E+02  0.00000000000E+00 0. -1.
</event>
<event>
 8    1  0.1615837E-013  0.9118800E+02  0.7816164E-02  0.1184000E+00
        -11   -1    0    0    0    0  0.00000000000E+00  0.00000000000E+00  0.45593999997E+02  0.45594000000E+02  0.51100000000E-03 0. -1.
         11   -1    0    0    0    0 -0.00000000000E+00 -0.00000000000E+00 -0.45593999997E+02  0.45594000000E+02  0.51100000000E-03 0.  1.
         23    2    1    2    0    0  0.00000000000E+00  0.35527136788E-14  0.00000000000E+00  0.91188000000E+02  0.91188000000E+02 0.  0.
    9900012    2    3    3    0    0  0.22777867528E+02 -0.26994088624E+02  0.20140842155E+02  0.50528860899E+02  0.30000003188E+02 0.  0.
        -12    1    3    3    0    0 -0.22777867528E+02  0.26994088624E+02 -0.20140842155E+02  0.40659139101E+02  0.00000000000E+00 0.  1.
         11    1    4    4    0    0  0.14717910299E+02 -0.29341649584E+02  0.79658179108E+01  0.33778743895E+02  0.51100000000E-03 0.  1.
        -11    1    4    4    0    0  0.20661358932E+01 -0.46089833943E+00 -0.73601063097E+00  0.22412176865E+01  0.51100000000E-03 0. -1.
        -12    1    4    4    0    0  0.59938213359E+01  0.28084592998E+01  0.12911034875E+02  0.14508899317E+02  0.00000000000E+00 0.  1.
</event>
<event>
 8    1  0.1615837E-013  0.9118800E+02  0.7816164E-02  0.1184000E+00
        -11   -1    0    0    0    0  0.00000000000E+00  0.00000000000E+00  0.45593999997E+02  0.45594000000E+02  0.51100000000E-03 0. -1.
         11   -1    0    0    0    0 -0.00000000000E+00 -0.00000000000E+00 -0.45593999997E+02  0.45594000000E+02  0.51100000000E-03 0.  1.
         23    2    1    2    0    0  0.77715611724E-15  0.00000000000E+00 -0.71054273576E-14  0.91188000000E+02  0.91188000000E+02 0.  0.
    9900012    2    3    3    0    0 -0.86210337192E+00 -0.16569904649E+02  0.37119532814E+02  0.50528872136E+02  0.30000037345E+02 0.  0.
        -12    1    3    3    0    0  0.86210337192E+00  0.16569904649E+02 -0.37119532814E+02  0.40659127864E+02  0.00000000000E+00 0.  1.
         11    1    4    4    0    0  0.49833157865E+01 -0.40093683464E+01  0.13014832598E+02  0.14501528836E+02  0.51100000000E-03 0. -1.
        -11    1    4    4    0    0  0.39704235348E+01  0.21864161779E+01  0.15846466619E+02  0.16481965396E+02  0.51100000000E-03 0.  1.
         12    1    4    4    0    0 -0.98158426932E+01 -0.14746952481E+02  0.82582335964E+01  0.19545377903E+02  0.00000000000E+00 0. -1.
</event>
<event>
 8    1  0.1615837E-013  0.9118800E+02  0.7816164E-02  0.1184000E+00
        -11   -1    0    0    0    0  0.00000000000E+00  0.00000000000E+00  0.45593999997E+02  0.45594000000E+02  0.51100000000E-03 0. -1.
         11   -1    0    0    0    0 -0.00000000000E+00 -0.00000000000E+00 -0.45593999997E+02  0.45594000000E+02  0.51100000000E-03 0.  1.
         23    2    1    2    0    0  0.00000000000E+00 -0.35527136788E-14  0.00000000000E+00  0.91188000000E+02  0.91188000000E+02 0.  0.
    9900012    2    3    3    0    0  0.68949795250E+01 -0.30566011685E+02 -0.25910298074E+02  0.50528863766E+02  0.30000011905E+02 0.  0.
         12    1    3    3    0    0 -0.68949795250E+01  0.30566011685E+02  0.25910298074E+02  0.40659136234E+02  0.00000000000E+00 0. -1.
         11    1    4    4    0    0  0.28356931578E+01 -0.12155695453E+02 -0.14633395813E+02  0.19233781763E+02  0.51100000000E-03 0. -1.
        -11    1    4    4    0    0 -0.17835956678E+01 -0.20049127896E+02 -0.14126679555E+02  0.24590888930E+02  0.51100000000E-03 0.  1.
         12    1    4    4    0    0  0.58428820350E+01  0.16388116631E+01  0.28497772937E+01  0.67041930734E+01  0.00000000000E+00 0. -1.
</event>
<event>
 8    1  0.1615837E-013  0.9118800E+02  0.7816164E-02  0.1184000E+00
        -11   -1    0    0    0    0  0.00000000000E+00  0.00000000000E+00  0.45593999997E+02  0.45594000000E+02  0.51100000000E-03 0. -1.
         11   -1    0    0    0    0 -0.00000000000E+00 -0.00000000000E+00 -0.45593999997E+02  0.45594000000E+02  0.51100000000E-03 0.  1.
         23    2    1    2    0    0  0.00000000000E+00  0.00000000000E+00  0.00000000000E+00  0.91188000000E+02  0.91188000000E+02 0.  0.
    9900012    2    3    3    0    0  0.65599389363E+01 -0.36453437743E+02 -0.16771387357E+02  0.50528863806E+02  0.30000012026E+02 0.  0.
         12    1    3    3    0    0 -0.65599389363E+01  0.36453437743E+02  0.16771387357E+02  0.40659136194E+02  0.00000000000E+00 0. -1.
         11    1    4    4    0    0 -0.56139942425E+01  0.23522511501E+00 -0.40296395392E+01  0.69144961701E+01  0.51100000000E-03 0. -1.
        -11    1    4    4    0    0  0.75144237468E+01 -0.11850718724E+02 -0.11785673131E+02  0.18325069984E+02  0.51100000000E-03 0.  1.
        -12    1    4    4    0    0  0.46595094320E+01 -0.24837944134E+02 -0.95607468752E+00  0.25289297652E+02  0.00000000000E+00 0.  1.
</event>
<event>
 8    1  0.1615837E-013  0.9118800E+02  0.7816164E-02  0.1184000E+00
        -11   -1    0    0    0    0  0.00000000000E+00  0.00000000000E+00  0.45593999997E+02  0.45594000000E+02  0.51100000000E-03 0. -1.
         11   -1    0    0    0    0 -0.00000000000E+00 -0.00000000000E+00 -0.45593999997E+02  0.45594000000E+02  0.51100000000E-03 0.  1.
         23    2    1    2    0    0  0.00000000000E+00  0.00000000000E+00 -0.17763568394E-14  0.91188000000E+02  0.91188000000E+02 0.  0.
    9900012    2    3    3    0    0 -0.27655622333E+02 -0.25205299098E+02 -0.15906764328E+02  0.50528859568E+02  0.29999999143E+02 0.  0.
         12    1    3    3    0    0  0.27655622333E+02  0.25205299098E+02  0.15906764328E+02  0.40659140432E+02  0.00000000000E+00 0. -1.
         11    1    4    4    0    0 -0.59697929155E+01 -0.47052718696E+01  0.32023866153E+01  0.82482295746E+01  0.51100000000E-03 0. -1.
        -11    1    4    4    0    0 -0.55197253858E+01 -0.86453506574E+01  0.45922060410E+01  0.11238229972E+02  0.51100000000E-03 0.  1.
        -12    1    4    4    0    0 -0.16166104032E+02 -0.11854676571E+02 -0.23701356985E+02  0.31042400021E+02  0.00000000000E+00 0.  1.
</event>
<event>
 8    1  0.1615837E-013  0.9118800E+02  0.7816164E-02  0.1184000E+00
        -11   -1    0    0    0    0  0.00000000000E+00  0.00000000000E+00  0.45593999997E+02  0.45594000000E+02  0.51100000000E-03 0. -1.
         11   -1    0    0    0    0 -0.00000000000E+00 -0.00000000000E+00 -0.45593999997E+02  0.45594000000E+02  0.51100000000E-03 0.  1.
         23    2    1    2    0    0  0.00000000000E+00  0.00000000000E+00  0.71054273576E-14  0.91188000000E+02  0.91188000000E+02 0.  0.
    9900012    2    3    3    0    0 -0.17155879365E+02  0.12429220187E+02  0.34703885678E+02  0.50528814169E+02  0.29999861148E+02 0.  0.
        -12    1    3    3    0    0  0.17155879365E+02 -0.12429220187E+02 -0.34703885678E+02  0.40659185831E+02  0.00000000000E+00 0.  1.
         11    1    4    4    0    0 -0.43166820187E+01  0.49629734144E+01  0.15332895427E+02  0.16684200047E+02  0.51100000000E-03 0. -1.
        -11    1    4    4    0    0 -0.16242923433E+02 -0.79177161581E+00  0.18852910523E+02  0.24897624373E+02  0.51100000000E-03 0.  1.
        -12    1    4    4    0    0  0.34037260869E+01  0.82580183883E+01  0.51807972830E+00  0.89469897497E+01  0.00000000000E+00 0.  1.
</event>
<event>
 8    1  0.1615837E-013  0.9118800E+02  0.7816164E-02  0.1184000E+00
        -11   -1    0    0    0    0  0.00000000000E+00  0.00000000000E+00  0.45593999997E+02  0.45594000000E+02  0.51100000000E-03 0. -1.
         11   -1    0    0    0    0 -0.00000000000E+00 -0.00000000000E+00 -0.45593999997E+02  0.45594000000E+02  0.51100000000E-03 0.  1.
         23    2    1    2    0    0  0.00000000000E+00  0.00000000000E+00  0.00000000000E+00  0.91188000000E+02  0.91188000000E+02 0.  0.
    9900012    2    3    3    0    0 -0.26255176683E+01  0.52727140680E+01 -0.40230221213E+02  0.50528861353E+02  0.30000004569E+02 0.  0.
         12    1    3    3    0    0  0.26255176683E+01 -0.52727140680E+01  0.40230221213E+02  0.40659138647E+02  0.00000000000E+00 0. -1.
         11    1    4    4    0    0 -0.10062611578E+01 -0.64123456810E+01 -0.40895235553E+01  0.76716974537E+01  0.51100000000E-03 0. -1.
        -11    1    4    4    0    0  0.63892086901E-01 -0.44516392459E+01 -0.17898829974E+02  0.18444221016E+02  0.51100000000E-03 0.  1.
        -12    1    4    4    0    0 -0.16831485974E+01  0.16136698995E+02 -0.18241867684E+02  0.24412942884E+02  0.00000000000E+00 0.  1.
</event>
<event>
 8    1  0.1615837E-013  0.9118800E+02  0.7816164E-02  0.1184000E+00
        -11   -1    0    0    0    0  0.00000000000E+00  0.00000000000E+00  0.45593999997E+02  0.45594000000E+02  0.51100000000E-03 0. -1.
         11   -1    0    0    0    0 -0.00000000000E+00 -0.00000000000E+00 -0.45593999997E+02  0.45594000000E+02  0.51100000000E-03 0.  1.
         23    2    1    2    0    0  0.00000000000E+00  0.17763568394E-14  0.00000000000E+00  0.91188000000E+02  0.91188000000E+02 0.  0.
    9900012    2    3    3    0    0  0.10725142189E+02  0.10644908675E+02  0.37746883727E+02  0.50528806860E+02  0.29999838931E+02 0.  0.
        -12    1    3    3    0    0 -0.10725142189E+02 -0.10644908675E+02 -0.37746883727E+02  0.40659193140E+02  0.00000000000E+00 0.  1.
         11    1    4    4    0    0  0.57140397138E+01  0.31783082133E+01  0.10928162679E+02  0.12734858961E+02  0.51100000000E-03 0. -1.
        -11    1    4    4    0    0  0.15502394818E+01  0.29762550125E+01  0.30725948107E+02  0.30908659364E+02  0.51100000000E-03 0.  1.
        -12    1    4    4    0    0  0.34608629934E+01  0.44903454495E+01 -0.39072270590E+01  0.68852885347E+01  0.00000000000E+00 0.  1.
</event>
<event>
 8    1  0.1615837E-013  0.9118800E+02  0.7816164E-02  0.1184000E+00
        -11   -1    0    0    0    0  0.00000000000E+00  0.00000000000E+00  0.45593999997E+02  0.45594000000E+02  0.51100000000E-03 0. -1.
         11   -1    0    0    0    0 -0.00000000000E+00 -0.00000000000E+00 -0.45593999997E+02  0.45594000000E+02  0.51100000000E-03 0.  1.
         23    2    1    2    0    0  0.00000000000E+00  0.35527136788E-14  0.17763568394E-14  0.91188000000E+02  0.91188000000E+02 0.  0.
    9900012    2    3    3    0    0 -0.34009813467E+02 -0.18342020830E+02  0.12651824512E+02  0.50528858301E+02  0.29999995293E+02 0.  0.
        -12    1    3    3    0    0  0.34009813467E+02  0.18342020830E+02 -0.12651824512E+02  0.40659141699E+02  0.00000000000E+00 0.  1.
         11    1    4    4    0    0 -0.21915726514E+02 -0.14059657252E+02  0.30205189848E+01  0.26212526888E+02  0.51100000000E-03 0. -1.
        -11    1    4    4    0    0 -0.64821301435E+01 -0.52590582623E+01  0.14560478188E+02  0.16783421294E+02  0.51100000000E-03 0.  1.
        -12    1    4    4    0    0 -0.56119568100E+01  0.97669468481E+00 -0.49291726606E+01  0.75329101191E+01  0.00000000000E+00 0.  1.
</event>
<event>
 8    1  0.1615837E-013  0.9118800E+02  0.7816164E-02  0.1184000E+00
        -11   -1    0    0    0    0  0.00000000000E+00  0.00000000000E+00  0.45593999997E+02  0.45594000000E+02  0.51100000000E-03 0. -1.
         11   -1    0    0    0    0 -0.00000000000E+00 -0.00000000000E+00 -0.45593999997E+02  0.45594000000E+02  0.51100000000E-03 0.  1.
         23    2    1    2    0    0  0.00000000000E+00 -0.35527136788E-14  0.35527136788E-14  0.91188000000E+02  0.91188000000E+02 0.  0.
    9900012    2    3    3    0    0  0.26425830323E+01  0.29254667724E+02  0.28113124157E+02  0.50528848772E+02  0.29999966327E+02 0.  0.
        -12    1    3    3    0    0 -0.26425830323E+01 -0.29254667724E+02 -0.28113124157E+02  0.40659151228E+02  0.00000000000E+00 0.  1.
         11    1    4    4    0    0  0.38472857160E+01  0.65501412098E+01  0.18884118427E+02  0.20354750951E+02  0.51100000000E-03 0. -1.
        -11    1    4    4    0    0 -0.33015123922E+01  0.63947780266E+01  0.11507908891E+02  0.13572956104E+02  0.51100000000E-03 0.  1.
        -12    1    4    4    0    0  0.20968097085E+01  0.16309748488E+02 -0.22789031616E+01  0.16601141717E+02  0.00000000000E+00 0.  1.
</event>
<event>
 8    1  0.1615837E-013  0.9118800E+02  0.7816164E-02  0.1184000E+00
        -11   -1    0    0    0    0  0.00000000000E+00  0.00000000000E+00  0.45593999997E+02  0.45594000000E+02  0.51100000000E-03 0. -1.
         11   -1    0    0    0    0 -0.00000000000E+00 -0.00000000000E+00 -0.45593999997E+02  0.45594000000E+02  0.51100000000E-03 0.  1.
         23    2    1    2    0    0  0.88817841970E-15  0.00000000000E+00  0.00000000000E+00  0.91188000000E+02  0.91188000000E+02 0.  0.
    9900012    2    3    3    0    0 -0.31683859042E+01  0.30040174172E+02  0.27216083154E+02  0.50528856923E+02  0.29999991102E+02 0.  0.
        -12    1    3    3    0    0  0.31683859042E+01 -0.30040174172E+02 -0.27216083154E+02  0.40659143077E+02  0.00000000000E+00 0.  1.
         11    1    4    4    0    0  0.81268890881E+01  0.10226149853E+02  0.98339549090E+01  0.16350141788E+02  0.51100000000E-03 0. -1.
        -11    1    4    4    0    0  0.32449777360E+01 -0.77737673086E+00 -0.35577158290E+00  0.33557068956E+01  0.51100000000E-03 0.  1.
         12    1    4    4    0    0 -0.14540252728E+02  0.20591401050E+02  0.17737899828E+02  0.30823008239E+02  0.00000000000E+00 0. -1.
</event>
<event>
 8    1  0.1615837E-013  0.9118800E+02  0.7816164E-02  0.1184000E+00
        -11   -1    0    0    0    0  0.00000000000E+00  0.00000000000E+00  0.45593999997E+02  0.45594000000E+02  0.51100000000E-03 0.  1.
         11   -1    0    0    0    0 -0.00000000000E+00 -0.00000000000E+00 -0.45593999997E+02  0.45594000000E+02  0.51100000000E-03 0. -1.
         23    2    1    2    0    0  0.00000000000E+00  0.00000000000E+00 -0.35527136788E-14  0.91188000000E+02  0.91188000000E+02 0.  0.
    9900012    2    3    3    0    0  0.12870993198E+02 -0.30658943476E+02  0.23399407567E+02  0.50528861353E+02  0.30000004570E+02 0.  0.
        -12    1    3    3    0    0 -0.12870993198E+02  0.30658943476E+02 -0.23399407567E+02  0.40659138647E+02  0.00000000000E+00 0.  1.
         11    1    4    4    0    0 -0.13618416102E+01  0.54318635682E-01  0.19126049023E+01  0.23485358969E+01  0.51100000000E-03 0. -1.
        -11    1    4    4    0    0  0.42878784095E+01 -0.18535728665E+02  0.25631543221E+02  0.31920763565E+02  0.51100000000E-03 0.  1.
         12    1    4    4    0    0  0.99449563990E+01 -0.12177533447E+02 -0.41447405567E+01  0.16259561892E+02  0.00000000000E+00 0. -1.
</event>
<event>
 8    1  0.1615837E-013  0.9118800E+02  0.7816164E-02  0.1184000E+00
        -11   -1    0    0    0    0  0.00000000000E+00  0.00000000000E+00  0.45593999997E+02  0.45594000000E+02  0.51100000000E-03 0. -1.
         11   -1    0    0    0    0 -0.00000000000E+00 -0.00000000000E+00 -0.45593999997E+02  0.45594000000E+02  0.51100000000E-03 0.  1.
         23    2    1    2    0    0  0.00000000000E+00  0.00000000000E+00 -0.71054273576E-14  0.91188000000E+02  0.91188000000E+02 0.  0.
    9900012    2    3    3    0    0  0.42476306291E+01 -0.11451864589E+02 -0.38781158939E+02  0.50528857644E+02  0.29999993293E+02 0.  0.
         12    1    3    3    0    0 -0.42476306291E+01  0.11451864589E+02  0.38781158939E+02  0.40659142356E+02  0.00000000000E+00 0. -1.
         11    1    4    4    0    0 -0.36271226096E+01 -0.93857699118E+00 -0.14705643150E+02  0.15175403978E+02  0.51100000000E-03 0. -1.
        -11    1    4    4    0    0  0.36241011527E+01 -0.51151163944E+01 -0.27122334975E+02  0.27837377385E+02  0.51100000000E-03 0.  1.
         12    1    4    4    0    0  0.42506520860E+01 -0.53981712032E+01  0.30468191864E+01  0.75160762802E+01  0.00000000000E+00 0. -1.
</event>
<event>
 8    1  0.1615837E-013  0.9118800E+02  0.7816164E-02  0.1184000E+00
        -11   -1    0    0    0    0  0.00000000000E+00  0.00000000000E+00  0.45593999997E+02  0.45594000000E+02  0.51100000000E-03 0. -1.
         11   -1    0    0    0    0 -0.00000000000E+00 -0.00000000000E+00 -0.45593999997E+02  0.45594000000E+02  0.51100000000E-03 0.  1.
         23    2    1    2    0    0 -0.17763568394E-14  0.00000000000E+00  0.00000000000E+00  0.91188000000E+02  0.91188000000E+02 0.  0.
    9900012    2    3    3    0    0 -0.72177708415E+01 -0.24420654746E+02 -0.31697022157E+02  0.50528858251E+02  0.29999995139E+02 0.  0.
         12    1    3    3    0    0  0.72177708415E+01  0.24420654746E+02  0.31697022157E+02  0.40659141749E+02  0.00000000000E+00 0. -1.
         11    1    4    4    0    0  0.20465905157E+01 -0.79949457905E+01 -0.36165148418E+01  0.90103757299E+01  0.51100000000E-03 0. -1.
        -11    1    4    4    0    0  0.78766084365E+01 -0.38627288186E+01 -0.48131443190E+01  0.10006397598E+02  0.51100000000E-03 0.  1.
         12    1    4    4    0    0 -0.17140969794E+02 -0.12562980137E+02 -0.23267362997E+02  0.31512084923E+02  0.00000000000E+00 0. -1.
</event>
<event>
 8    1  0.1615837E-013  0.9118800E+02  0.7816164E-02  0.1184000E+00
        -11   -1    0    0    0    0  0.00000000000E+00  0.00000000000E+00  0.45593999997E+02  0.45594000000E+02  0.51100000000E-03 0. -1.
         11   -1    0    0    0    0 -0.00000000000E+00 -0.00000000000E+00 -0.45593999997E+02  0.45594000000E+02  0.51100000000E-03 0.  1.
         23    2    1    2    0    0 -0.35527136788E-14  0.00000000000E+00  0.00000000000E+00  0.91188000000E+02  0.91188000000E+02 0.  0.
    9900012    2    3    3    0    0  0.20742623503E+02 -0.91102210844E+01  0.33762602984E+02  0.50528856892E+02  0.29999991009E+02 0.  0.
        -12    1    3    3    0    0 -0.20742623503E+02  0.91102210844E+01 -0.33762602984E+02  0.40659143108E+02  0.00000000000E+00 0.  1.
         11    1    4    4    0    0  0.91449220320E+01  0.49459896138E+01  0.18555178026E+02  0.21269392189E+02  0.51100000000E-03 0. -1.
        -11    1    4    4    0    0  0.15754529213E+02 -0.93931092000E+01  0.89193222235E+01  0.20395832916E+02  0.51100000000E-03 0.  1.
         12    1    4    4    0    0 -0.41568277419E+01 -0.46631014982E+01  0.62881027348E+01  0.88636317873E+01  0.00000000000E+00 0. -1.
</event>
<event>
 8    1  0.1615837E-013  0.9118800E+02  0.7816164E-02  0.1184000E+00
        -11   -1    0    0    0    0  0.00000000000E+00  0.00000000000E+00  0.45593999997E+02  0.45594000000E+02  0.51100000000E-03 0. -1.
         11   -1    0    0    0    0 -0.00000000000E+00 -0.00000000000E+00 -0.45593999997E+02  0.45594000000E+02  0.51100000000E-03 0.  1.
         23    2    1    2    0    0  0.00000000000E+00 -0.88817841970E-15  0.00000000000E+00  0.91188000000E+02  0.91188000000E+02 0.  0.
    9900012    2    3    3    0    0  0.44172283478E+01 -0.20616499188E+01 -0.40365851215E+02  0.50528877395E+02  0.30000053331E+02 0.  0.
         12    1    3    3    0    0 -0.44172283478E+01  0.20616499188E+01  0.40365851215E+02  0.40659122605E+02  0.00000000000E+00 0. -1.
         11    1    4    4    0    0  0.32088715558E+01  0.40881674921E+01 -0.33485591267E+02  0.33886498681E+02  0.51100000000E-03 0. -1.
        -11    1    4    4    0    0 -0.74465332179E+00  0.39299225834E+01 -0.46538799703E+01  0.61365624840E+01  0.51100000000E-03 0.  1.
         12    1    4    4    0    0  0.19530101138E+01 -0.10079739994E+02 -0.22263799781E+01  0.10505816230E+02  0.00000000000E+00 0. -1.
</event>
<event>
 8    1  0.1615837E-013  0.9118800E+02  0.7816164E-02  0.1184000E+00
        -11   -1    0    0    0    0  0.00000000000E+00  0.00000000000E+00  0.45593999997E+02  0.45594000000E+02  0.51100000000E-03 0. -1.
         11   -1    0    0    0    0 -0.00000000000E+00 -0.00000000000E+00 -0.45593999997E+02  0.45594000000E+02  0.51100000000E-03 0.  1.
         23    2    1    2    0    0  0.00000000000E+00  0.00000000000E+00  0.00000000000E+00  0.91188000000E+02  0.91188000000E+02 0.  0.
    9900012    2    3    3    0    0  0.87148088670E+01 -0.19597957558E+02 -0.34541828400E+02  0.50528859045E+02  0.29999997552E+02 0.  0.
         12    1    3    3    0    0 -0.87148088670E+01  0.19597957558E+02  0.34541828400E+02  0.40659140955E+02  0.00000000000E+00 0. -1.
         11    1    4    4    0    0  0.22654567784E+01  0.59279396824E+01  0.34270144642E+00  0.63553290895E+01  0.51100000000E-03 0. -1.
        -11    1    4    4    0    0 -0.76149427023E+00 -0.82022012700E+01 -0.12413923571E+02  0.14898371652E+02  0.51100000000E-03 0.  1.
        -12    1    4    4    0    0  0.72108463589E+01 -0.17323695971E+02 -0.22470606275E+02  0.29275158303E+02  0.00000000000E+00 0.  1.
</event>
<event>
 8    1  0.1615837E-013  0.9118800E+02  0.7816164E-02  0.1184000E+00
        -11   -1    0    0    0    0  0.00000000000E+00  0.00000000000E+00  0.45593999997E+02  0.45594000000E+02  0.51100000000E-03 0. -1.
         11   -1    0    0    0    0 -0.00000000000E+00 -0.00000000000E+00 -0.45593999997E+02  0.45594000000E+02  0.51100000000E-03 0.  1.
         23    2    1    2    0    0  0.00000000000E+00  0.88817841970E-15  0.88817841970E-15  0.91188000000E+02  0.91188000000E+02 0.  0.
    9900012    2    3    3    0    0 -0.40007338921E+02 -0.56547877990E+01  0.45389159638E+01  0.50528861412E+02  0.30000004748E+02 0.  0.
        -12    1    3    3    0    0  0.40007338921E+02  0.56547877990E+01 -0.45389159638E+01  0.40659138588E+02  0.00000000000E+00 0.  1.
         11    1    4    4    0    0 -0.31417357734E+02 -0.51937641962E+01  0.41294969865E+01  0.32110407957E+02  0.51100000000E-03 0. -1.
        -11    1    4    4    0    0 -0.10829127773E+02 -0.55742261032E+01 -0.19927671132E+01  0.12341520409E+02  0.51100000000E-03 0.  1.
         12    1    4    4    0    0  0.22391465856E+01  0.51132025004E+01  0.24021860905E+01  0.60769330468E+01  0.00000000000E+00 0. -1.
</event>
<event>
 8    1  0.1615837E-013  0.9118800E+02  0.7816164E-02  0.1184000E+00
        -11   -1    0    0    0    0  0.00000000000E+00  0.00000000000E+00  0.45593999997E+02  0.45594000000E+02  0.51100000000E-03 0. -1.
         11   -1    0    0    0    0 -0.00000000000E+00 -0.00000000000E+00 -0.45593999997E+02  0.45594000000E+02  0.51100000000E-03 0.  1.
         23    2    1    2    0    0 -0.88817841970E-15 -0.17763568394E-14  0.00000000000E+00  0.91188000000E+02  0.91188000000E+02 0.  0.
    9900012    2    3    3    0    0 -0.48126240739E+01  0.11453240587E+02 -0.38714691158E+02  0.50528863488E+02  0.30000011059E+02 0.  0.
         12    1    3    3    0    0  0.48126240739E+01 -0.11453240587E+02  0.38714691158E+02  0.40659136512E+02  0.00000000000E+00 0. -1.
         11    1    4    4    0    0 -0.23850920137E+01  0.11895103641E+02 -0.56826601721E+01  0.13396819826E+02  0.51100000000E-03 0. -1.
        -11    1    4    4    0    0 -0.42757778433E+01  0.73973516160E+01 -0.13166065145E+02  0.15695488484E+02  0.51100000000E-03 0.  1.
        -12    1    4    4    0    0  0.18482457830E+01 -0.78392146705E+01 -0.19865965841E+02  0.21436555178E+02  0.00000000000E+00 0.  1.
</event>
<event>
 8    1  0.1615837E-013  0.9118800E+02  0.7816164E-02  0.1184000E+00
        -11   -1    0    0    0    0  0.00000000000E+00  0.00000000000E+00  0.45593999997E+02  0.45594000000E+02  0.51100000000E-03 0. -1.
         11   -1    0    0    0    0 -0.00000000000E+00 -0.00000000000E+00 -0.45593999997E+02  0.45594000000E+02  0.51100000000E-03 0.  1.
         23    2    1    2    0    0  0.17763568394E-14 -0.71054273576E-14  0.35527136788E-14  0.91188000000E+02  0.91188000000E+02 0.  0.
    9900012    2    3    3    0    0 -0.87190448178E+01  0.28216503124E+02 -0.27945897540E+02  0.50528856128E+02  0.29999988688E+02 0.  0.
         12    1    3    3    0    0  0.87190448178E+01 -0.28216503124E+02  0.27945897540E+02  0.40659143872E+02  0.00000000000E+00 0. -1.
         11    1    4    4    0    0 -0.46672113522E-01  0.21512522636E+01 -0.46137563582E+01  0.50908557809E+01  0.51100000000E-03 0. -1.
        -11    1    4    4    0    0 -0.14120947991E+02  0.24606649648E+02 -0.26624514800E+02  0.38906980963E+02  0.51100000000E-03 0.  1.
         12    1    4    4    0    0  0.54485752866E+01  0.14586012118E+01  0.32923736189E+01  0.65310193841E+01  0.00000000000E+00 0. -1.
</event>
<event>
 8    1  0.1615837E-013  0.9118800E+02  0.7816164E-02  0.1184000E+00
        -11   -1    0    0    0    0  0.00000000000E+00  0.00000000000E+00  0.45593999997E+02  0.45594000000E+02  0.51100000000E-03 0. -1.
         11   -1    0    0    0    0 -0.00000000000E+00 -0.00000000000E+00 -0.45593999997E+02  0.45594000000E+02  0.51100000000E-03 0.  1.
         23    2    1    2    0    0  0.11102230246E-15  0.00000000000E+00 -0.71054273576E-14  0.91188000000E+02  0.91188000000E+02 0.  0.
    9900012    2    3    3    0    0  0.34770442314E+00  0.18170630128E+02  0.36371316611E+02  0.50528863639E+02  0.30000011516E+02 0.  0.
        -12    1    3    3    0    0 -0.34770442314E+00 -0.18170630128E+02 -0.36371316611E+02  0.40659136361E+02  0.00000000000E+00 0.  1.
         11    1    4    4    0    0  0.53156663184E-01 -0.38120195647E+00 -0.55914445426E-01  0.38893090490E+00  0.51100000000E-03 0.  1.
        -11    1    4    4    0    0 -0.16194610111E+01  0.16293099526E+02  0.41306182542E+02  0.44432965944E+02  0.51100000000E-03 0. -1.
         12    1    4    4    0    0  0.19140087711E+01  0.22587325588E+01 -0.48789514851E+01  0.57069667899E+01  0.00000000000E+00 0. -1.
</event>
<event>
 8    1  0.1615837E-013  0.9118800E+02  0.7816164E-02  0.1184000E+00
        -11   -1    0    0    0    0  0.00000000000E+00  0.00000000000E+00  0.45593999997E+02  0.45594000000E+02  0.51100000000E-03 0. -1.
         11   -1    0    0    0    0 -0.00000000000E+00 -0.00000000000E+00 -0.45593999997E+02  0.45594000000E+02  0.51100000000E-03 0.  1.
         23    2    1    2    0    0  0.00000000000E+00 -0.26645352591E-14  0.00000000000E+00  0.91188000000E+02  0.91188000000E+02 0.  0.
    9900012    2    3    3    0    0 -0.93576742368E+01 -0.20672514058E+01  0.39513621765E+02  0.50528857110E+02  0.29999991673E+02 0.  0.
        -12    1    3    3    0    0  0.93576742368E+01  0.20672514058E+01 -0.39513621765E+02  0.40659142890E+02  0.00000000000E+00 0.  1.
         11    1    4    4    0    0  0.30853657828E+01  0.14946191544E+00  0.13243200766E+02  0.13598683307E+02  0.51100000000E-03 0. -1.
        -11    1    4    4    0    0 -0.40443966494E+01 -0.11173975644E+02  0.62048485850E+01  0.13405783162E+02  0.51100000000E-03 0.  1.
        -12    1    4    4    0    0 -0.83986433702E+01  0.89572623228E+01  0.20065572414E+02  0.23524390642E+02  0.00000000000E+00 0.  1.
</event>
<event>
 8    1  0.1615837E-013  0.9118800E+02  0.7816164E-02  0.1184000E+00
        -11   -1    0    0    0    0  0.00000000000E+00  0.00000000000E+00  0.45593999997E+02  0.45594000000E+02  0.51100000000E-03 0. -1.
         11   -1    0    0    0    0 -0.00000000000E+00 -0.00000000000E+00 -0.45593999997E+02  0.45594000000E+02  0.51100000000E-03 0.  1.
         23    2    1    2    0    0  0.00000000000E+00  0.17763568394E-14  0.00000000000E+00  0.91188000000E+02  0.91188000000E+02 0.  0.
    9900012    2    3    3    0    0 -0.23915117798E+02 -0.14000201198E+02  0.29752769474E+02  0.50528858540E+02  0.29999996018E+02 0.  0.
        -12    1    3    3    0    0  0.23915117798E+02  0.14000201198E+02 -0.29752769474E+02  0.40659141460E+02  0.00000000000E+00 0.  1.
         11    1    4    4    0    0  0.10402958052E+01  0.89268735326E+00 -0.33312694685E+00  0.14107019164E+01  0.51100000000E-03 0. -1.
        -11    1    4    4    0    0 -0.79868839207E+00 -0.11898236767E+02  0.22411818463E+01  0.12133789088E+02  0.51100000000E-03 0.  1.
         12    1    4    4    0    0 -0.24156725211E+02 -0.29946517839E+01  0.27844714575E+02  0.36984367535E+02  0.00000000000E+00 0. -1.
</event>
<event>
 8    1  0.1615837E-013  0.9118800E+02  0.7816164E-02  0.1184000E+00
        -11   -1    0    0    0    0  0.00000000000E+00  0.00000000000E+00  0.45593999997E+02  0.45594000000E+02  0.51100000000E-03 0. -1.
         11   -1    0    0    0    0 -0.00000000000E+00 -0.00000000000E+00 -0.45593999997E+02  0.45594000000E+02  0.51100000000E-03 0.  1.
         23    2    1    2    0    0  0.00000000000E+00 -0.35527136788E-14  0.35527136788E-14  0.91188000000E+02  0.91188000000E+02 0.  0.
    9900012    2    3    3    0    0 -0.21852780851E+02 -0.28694573785E+02  0.18768144530E+02  0.50528857797E+02  0.29999993759E+02 0.  0.
        -12    1    3    3    0    0  0.21852780851E+02  0.28694573785E+02 -0.18768144530E+02  0.40659142203E+02  0.00000000000E+00 0.  1.
         11    1    4    4    0    0 -0.91482507608E+01 -0.19189491862E+02  0.18913466889E+02  0.28454284737E+02  0.51100000000E-03 0. -1.
        -11    1    4    4    0    0 -0.10472179783E+01 -0.87250664185E+01  0.40297821121E+01  0.96676053723E+01  0.51100000000E-03 0.  1.
         12    1    4    4    0    0 -0.11657312111E+02 -0.78001550529E+00 -0.41751044712E+01  0.12406967687E+02  0.00000000000E+00 0. -1.
</event>
<event>
 8    1  0.1615837E-013  0.9118800E+02  0.7816164E-02  0.1184000E+00
        -11   -1    0    0    0    0  0.00000000000E+00  0.00000000000E+00  0.45593999997E+02  0.45594000000E+02  0.51100000000E-03 0. -1.
         11   -1    0    0    0    0 -0.00000000000E+00 -0.00000000000E+00 -0.45593999997E+02  0.45594000000E+02  0.51100000000E-03 0.  1.
         23    2    1    2    0    0 -0.35527136788E-14  0.00000000000E+00 -0.35527136788E-14  0.91188000000E+02  0.91188000000E+02 0.  0.
    9900012    2    3    3    0    0 -0.19751011179E+02  0.26332144049E+02 -0.23868011354E+02  0.50528853196E+02  0.29999979775E+02 0.  0.
         12    1    3    3    0    0  0.19751011179E+02 -0.26332144049E+02  0.23868011354E+02  0.40659146804E+02  0.00000000000E+00 0. -1.
         11    1    4    4    0    0 -0.16065392468E+02  0.13401858877E+02 -0.47451836008E+01  0.21452818560E+02  0.51100000000E-03 0.  1.
        -11    1    4    4    0    0 -0.64625997355E+01  0.81993936342E+01 -0.14120423188E+01  0.10535137165E+02  0.51100000000E-03 0. -1.
        -12    1    4    4    0    0  0.27769810240E+01  0.47308915380E+01 -0.17710785434E+02  0.18540897471E+02  0.00000000000E+00 0.  1.
</event>
<event>
 8    1  0.1615837E-013  0.9118800E+02  0.7816164E-02  0.1184000E+00
        -11   -1    0    0    0    0  0.00000000000E+00  0.00000000000E+00  0.45593999997E+02  0.45594000000E+02  0.51100000000E-03 0. -1.
         11   -1    0    0    0    0 -0.00000000000E+00 -0.00000000000E+00 -0.45593999997E+02  0.45594000000E+02  0.51100000000E-03 0.  1.
         23    2    1    2    0    0  0.00000000000E+00  0.17763568394E-14  0.00000000000E+00  0.91188000000E+02  0.91188000000E+02 0.  0.
    9900012    2    3    3    0    0  0.24767706797E+02  0.13711049951E+02 -0.29184475710E+02  0.50528858184E+02  0.29999994935E+02 0.  0.
         12    1    3    3    0    0 -0.24767706797E+02 -0.13711049951E+02  0.29184475710E+02  0.40659141816E+02  0.00000000000E+00 0. -1.
         11    1    4    4    0    0  0.13537637532E+02 -0.40668075855E+01 -0.91496677099E+01  0.16838140436E+02  0.51100000000E-03 0. -1.
        -11    1    4    4    0    0  0.20207900982E+00  0.49400471520E+01 -0.15355179984E+02  0.16131536021E+02  0.51100000000E-03 0.  1.
        -12    1    4    4    0    0  0.11027990255E+02  0.12837810384E+02 -0.46796280169E+01  0.17559181727E+02  0.00000000000E+00 0.  1.
</event>
<event>
 8    1  0.1615837E-013  0.9118800E+02  0.7816164E-02  0.1184000E+00
        -11   -1    0    0    0    0  0.00000000000E+00  0.00000000000E+00  0.45593999997E+02  0.45594000000E+02  0.51100000000E-03 0. -1.
         11   -1    0    0    0    0 -0.00000000000E+00 -0.00000000000E+00 -0.45593999997E+02  0.45594000000E+02  0.51100000000E-03 0.  1.
         23    2    1    2    0    0  0.88817841970E-15 -0.17763568394E-14  0.00000000000E+00  0.91188000000E+02  0.91188000000E+02 0.  0.
    9900012    2    3    3    0    0  0.47738170076E+01 -0.15273633096E+02  0.37377694424E+02  0.50528865267E+02  0.30000016466E+02 0.  0.
        -12    1    3    3    0    0 -0.47738170076E+01  0.15273633096E+02 -0.37377694424E+02  0.40659134733E+02  0.00000000000E+00 0.  1.
         11    1    4    4    0    0  0.13340075840E+02 -0.50245450981E+00  0.95918478865E+01  0.16438175996E+02  0.51100000000E-03 0. -1.
        -11    1    4    4    0    0  0.20018229181E+01 -0.32331226505E+01  0.80674838751E+01  0.89187820583E+01  0.51100000000E-03 0.  1.
        -12    1    4    4    0    0 -0.10568081750E+02 -0.11538055935E+02  0.19718362662E+02  0.25171907213E+02  0.00000000000E+00 0.  1.
</event>
<event>
 8    1  0.1615837E-013  0.9118800E+02  0.7816164E-02  0.1184000E+00
        -11   -1    0    0    0    0  0.00000000000E+00  0.00000000000E+00  0.45593999997E+02  0.45594000000E+02  0.51100000000E-03 0. -1.
         11   -1    0    0    0    0 -0.00000000000E+00 -0.00000000000E+00 -0.45593999997E+02  0.45594000000E+02  0.51100000000E-03 0.  1.
         23    2    1    2    0    0  0.00000000000E+00 -0.22204460493E-15  0.00000000000E+00  0.91188000000E+02  0.91188000000E+02 0.  0.
    9900012    2    3    3    0    0 -0.22042952079E+01 -0.35857732220E+00 -0.40597750108E+02  0.50528870534E+02  0.30000032475E+02 0.  0.
         12    1    3    3    0    0  0.22042952079E+01  0.35857732220E+00  0.40597750108E+02  0.40659129466E+02  0.00000000000E+00 0. -1.
         11    1    4    4    0    0 -0.34552545628E+00  0.27186836117E+01  0.35949667289E+01  0.45204440561E+01  0.51100000000E-03 0. -1.
        -11    1    4    4    0    0 -0.73720325290E-01 -0.21915254012E+01 -0.47284845793E+00  0.22431683387E+01  0.51100000000E-03 0.  1.
        -12    1    4    4    0    0 -0.17850494263E+01 -0.88573553270E+00 -0.43719868379E+02  0.43765258139E+02  0.00000000000E+00 0.  1.
</event>
<event>
 8    1  0.1615837E-013  0.9118800E+02  0.7816164E-02  0.1184000E+00
        -11   -1    0    0    0    0  0.00000000000E+00  0.00000000000E+00  0.45593999997E+02  0.45594000000E+02  0.51100000000E-03 0. -1.
         11   -1    0    0    0    0 -0.00000000000E+00 -0.00000000000E+00 -0.45593999997E+02  0.45594000000E+02  0.51100000000E-03 0.  1.
         23    2    1    2    0    0 -0.35527136788E-14 -0.13322676296E-14  0.00000000000E+00  0.91188000000E+02  0.91188000000E+02 0.  0.
    9900012    2    3    3    0    0 -0.28651261423E+02  0.22940101404E+01  0.28757743671E+02  0.50528867143E+02  0.30000022168E+02 0.  0.
        -12    1    3    3    0    0  0.28651261423E+02 -0.22940101404E+01 -0.28757743671E+02  0.40659132857E+02  0.00000000000E+00 0.  1.
         11    1    4    4    0    0 -0.73410226509E+01  0.33943771199E+01  0.18078826447E+01  0.82873909954E+01  0.51100000000E-03 0.  1.
        -11    1    4    4    0    0 -0.57844507939E-01  0.89920662848E+01  0.70271899330E+01  0.11412361748E+02  0.51100000000E-03 0. -1.
         12    1    4    4    0    0 -0.21252394265E+02 -0.10092433264E+02  0.19922671093E+02  0.30829114399E+02  0.00000000000E+00 0. -1.
</event>
<event>
 8    1  0.1615837E-013  0.9118800E+02  0.7816164E-02  0.1184000E+00
        -11   -1    0    0    0    0  0.00000000000E+00  0.00000000000E+00  0.45593999997E+02  0.45594000000E+02  0.51100000000E-03 0. -1.
         11   -1    0    0    0    0 -0.00000000000E+00 -0.00000000000E+00 -0.45593999997E+02  0.45594000000E+02  0.51100000000E-03 0.  1.
         23    2    1    2    0    0  0.00000000000E+00 -0.26645352591E-14 -0.71054273576E-14  0.91188000000E+02  0.91188000000E+02 0.  0.
    9900012    2    3    3    0    0  0.27595435546E+01  0.48523909507E+01  0.40274117660E+02  0.50528864103E+02  0.30000012929E+02 0.  0.
        -12    1    3    3    0    0 -0.27595435546E+01 -0.48523909507E+01 -0.40274117660E+02  0.40659135897E+02  0.00000000000E+00 0.  1.
         11    1    4    4    0    0  0.75161770587E+01  0.11799695224E+02  0.38021893686E+02  0.40514073168E+02  0.51100000000E-03 0. -1.
        -11    1    4    4    0    0  0.31459684130E+00  0.58195849624E+00  0.31424623482E+00  0.73239184944E+00  0.51100000000E-03 0.  1.
         12    1    4    4    0    0 -0.50712303454E+01 -0.75292627697E+01  0.19379777396E+01  0.92823990860E+01  0.00000000000E+00 0. -1.
</event>
<event>
 8    1  0.1615837E-013  0.9118800E+02  0.7816164E-02  0.1184000E+00
        -11   -1    0    0    0    0  0.00000000000E+00  0.00000000000E+00  0.45593999997E+02  0.45594000000E+02  0.51100000000E-03 0. -1.
         11   -1    0    0    0    0 -0.00000000000E+00 -0.00000000000E+00 -0.45593999997E+02  0.45594000000E+02  0.51100000000E-03 0.  1.
         23    2    1    2    0    0  0.00000000000E+00  0.00000000000E+00  0.00000000000E+00  0.91188000000E+02  0.91188000000E+02 0.  0.
    9900012    2    3    3    0    0 -0.33290943506E+02 -0.22993765551E+02  0.40206369703E+01  0.50528859633E+02  0.29999999341E+02 0.  0.
        -12    1    3    3    0    0  0.33290943506E+02  0.22993765551E+02 -0.40206369703E+01  0.40659140367E+02  0.00000000000E+00 0.  1.
         11    1    4    4    0    0 -0.12475243539E+02  0.53409733899E+01  0.51721781900E+01  0.14522710684E+02  0.51100000000E-03 0. -1.
        -11    1    4    4    0    0 -0.71800092747E-02 -0.12514280963E+01  0.12486649540E+01  0.17678484836E+01  0.51100000000E-03 0.  1.
        -12    1    4    4    0    0 -0.20808519957E+02 -0.27083310844E+02 -0.24002061737E+01  0.34238300466E+02  0.00000000000E+00 0.  1.
</event>
<event>
 8    1  0.1615837E-013  0.9118800E+02  0.7816164E-02  0.1184000E+00
        -11   -1    0    0    0    0  0.00000000000E+00  0.00000000000E+00  0.45593999997E+02  0.45594000000E+02  0.51100000000E-03 0. -1.
         11   -1    0    0    0    0 -0.00000000000E+00 -0.00000000000E+00 -0.45593999997E+02  0.45594000000E+02  0.51100000000E-03 0.  1.
         23    2    1    2    0    0 -0.17763568394E-14 -0.35527136788E-14  0.00000000000E+00  0.91188000000E+02  0.91188000000E+02 0.  0.
    9900012    2    3    3    0    0  0.10029737928E+02 -0.16003134443E+02  0.36006526621E+02  0.50528856942E+02  0.29999991160E+02 0.  0.
        -12    1    3    3    0    0 -0.10029737928E+02  0.16003134443E+02 -0.36006526621E+02  0.40659143058E+02  0.00000000000E+00 0.  1.
         11    1    4    4    0    0 -0.73445737315E+00 -0.24022326876E+01  0.71782350495E+01  0.76050777909E+01  0.51100000000E-03 0. -1.
        -11    1    4    4    0    0 -0.69502194589E+01 -0.10251379449E+02  0.18141216374E+02  0.21965884069E+02  0.51100000000E-03 0.  1.
         12    1    4    4    0    0  0.17714414760E+02 -0.33495223065E+01  0.10687075197E+02  0.20957895082E+02  0.00000000000E+00 0. -1.
</event>
<event>
 8    1  0.1615837E-013  0.9118800E+02  0.7816164E-02  0.1184000E+00
        -11   -1    0    0    0    0  0.00000000000E+00  0.00000000000E+00  0.45593999997E+02  0.45594000000E+02  0.51100000000E-03 0. -1.
         11   -1    0    0    0    0 -0.00000000000E+00 -0.00000000000E+00 -0.45593999997E+02  0.45594000000E+02  0.51100000000E-03 0.  1.
         23    2    1    2    0    0  0.00000000000E+00 -0.71054273576E-14 -0.22204460493E-15  0.91188000000E+02  0.91188000000E+02 0.  0.
    9900012    2    3    3    0    0  0.22918627134E+02 -0.33531781783E+02 -0.18765266878E+01  0.50528865581E+02  0.30000017420E+02 0.  0.
         12    1    3    3    0    0 -0.22918627134E+02  0.33531781783E+02  0.18765266878E+01  0.40659134419E+02  0.00000000000E+00 0. -1.
         11    1    4    4    0    0  0.85408911943E+01 -0.16483045456E+02  0.10091161082E+01  0.18591824157E+02  0.51100000000E-03 0. -1.
        -11    1    4    4    0    0  0.10622161163E+02 -0.21071367983E+02 -0.74944290203E+01  0.24758823135E+02  0.51100000000E-03 0.  1.
         12    1    4    4    0    0  0.37555747770E+01  0.40226316557E+01  0.46087862243E+01  0.71782182890E+01  0.00000000000E+00 0. -1.
</event>
<event>
 8    1  0.1615837E-013  0.9118800E+02  0.7816164E-02  0.1184000E+00
        -11   -1    0    0    0    0  0.00000000000E+00  0.00000000000E+00  0.45593999997E+02  0.45594000000E+02  0.51100000000E-03 0. -1.
         11   -1    0    0    0    0 -0.00000000000E+00 -0.00000000000E+00 -0.45593999997E+02  0.45594000000E+02  0.51100000000E-03 0.  1.
         23    2    1    2    0    0  0.71054273576E-14  0.44408920985E-15  0.00000000000E+00  0.91188000000E+02  0.91188000000E+02 0.  0.
    9900012    2    3    3    0    0 -0.40258906984E+02  0.25158153832E+01 -0.51046870289E+01  0.50528846685E+02  0.29999959985E+02 0.  0.
         12    1    3    3    0    0  0.40258906984E+02 -0.25158153832E+01  0.51046870289E+01  0.40659153315E+02  0.00000000000E+00 0. -1.
         11    1    4    4    0    0  0.20141741563E+01 -0.53513927332E+00  0.63133783715E+00  0.21775810661E+01  0.51100000000E-03 0. -1.
        -11    1    4    4    0    0 -0.29616299167E+02  0.11211505023E+02  0.13751216580E+01  0.31697223554E+02  0.51100000000E-03 0.  1.
         12    1    4    4    0    0 -0.12656781974E+02 -0.81605503667E+01 -0.71111465240E+01  0.16654042065E+02  0.00000000000E+00 0. -1.
</event>
<event>
 8    1  0.1615837E-013  0.9118800E+02  0.7816164E-02  0.1184000E+00
        -11   -1    0    0    0    0  0.00000000000E+00  0.00000000000E+00  0.45593999997E+02  0.45594000000E+02  0.51100000000E-03 0. -1.
         11   -1    0    0    0    0 -0.00000000000E+00 -0.00000000000E+00 -0.45593999997E+02  0.45594000000E+02  0.51100000000E-03 0.  1.
         23    2    1    2    0    0  0.17763568394E-14  0.88817841970E-15  0.00000000000E+00  0.91188000000E+02  0.91188000000E+02 0.  0.
    9900012    2    3    3    0    0 -0.11738229245E+02  0.32118273002E+01 -0.38795154049E+02  0.50528857878E+02  0.29999994005E+02 0.  0.
         12    1    3    3    0    0  0.11738229245E+02 -0.32118273002E+01  0.38795154049E+02  0.40659142122E+02  0.00000000000E+00 0. -1.
         11    1    4    4    0    0 -0.81768874611E+01  0.12866639810E+02 -0.19342857689E+02  0.24628399306E+02  0.51100000000E-03 0. -1.
        -11    1    4    4    0    0 -0.43795631446E+01  0.18327882949E+01 -0.97388109554E+01  0.10834395477E+02  0.51100000000E-03 0.  1.
         12    1    4    4    0    0  0.81822136040E+00 -0.11487600805E+02 -0.97134854049E+01  0.15066063094E+02  0.00000000000E+00 0. -1.
</event>
<event>
 8    1  0.1615837E-013  0.9118800E+02  0.7816164E-02  0.1184000E+00
        -11   -1    0    0    0    0  0.00000000000E+00  0.00000000000E+00  0.45593999997E+02  0.45594000000E+02  0.51100000000E-03 0.  1.
         11   -1    0    0    0    0 -0.00000000000E+00 -0.00000000000E+00 -0.45593999997E+02  0.45594000000E+02  0.51100000000E-03 0. -1.
         23    2    1    2    0    0  0.00000000000E+00  0.00000000000E+00  0.00000000000E+00  0.91188000000E+02  0.91188000000E+02 0.  0.
    9900012    2    3    3    0    0  0.37164057155E+02 -0.85724184410E+01 -0.14089445149E+02  0.50528856296E+02  0.29999989198E+02 0.  0.
        -12    1    3    3    0    0 -0.37164057155E+02  0.85724184410E+01  0.14089445149E+02  0.40659143704E+02  0.00000000000E+00 0.  1.
         11    1    4    4    0    0  0.13519988734E+02 -0.50868548367E+01 -0.79562558543E+01  0.16491458243E+02  0.51100000000E-03 0. -1.
        -11    1    4    4    0    0  0.17830617585E+02 -0.43637357079E+01 -0.14789413621E+02  0.23573287177E+02  0.51100000000E-03 0.  1.
        -12    1    4    4    0    0  0.58134508356E+01  0.87817210368E+00  0.86562243260E+01  0.10464110877E+02  0.00000000000E+00 0.  1.
</event>
<event>
 8    1  0.1615837E-013  0.9118800E+02  0.7816164E-02  0.1184000E+00
        -11   -1    0    0    0    0  0.00000000000E+00  0.00000000000E+00  0.45593999997E+02  0.45594000000E+02  0.51100000000E-03 0. -1.
         11   -1    0    0    0    0 -0.00000000000E+00 -0.00000000000E+00 -0.45593999997E+02  0.45594000000E+02  0.51100000000E-03 0.  1.
         23    2    1    2    0    0  0.00000000000E+00  0.00000000000E+00  0.00000000000E+00  0.91188000000E+02  0.91188000000E+02 0.  0.
    9900012    2    3    3    0    0  0.11488979701E+01  0.10843224553E+02  0.39169761416E+02  0.50528859642E+02  0.29999999369E+02 0.  0.
        -12    1    3    3    0    0 -0.11488979701E+01 -0.10843224553E+02 -0.39169761416E+02  0.40659140358E+02  0.00000000000E+00 0.  1.
         11    1    4    4    0    0 -0.17091921650E+01  0.94223045630E+01  0.86255606099E+01  0.12888035429E+02  0.51100000000E-03 0. -1.
        -11    1    4    4    0    0  0.17948772597E+01  0.91143222545E+01  0.42349555305E+01  0.10209177398E+02  0.51100000000E-03 0.  1.
        -12    1    4    4    0    0  0.10632128755E+01 -0.76934022641E+01  0.26309245275E+02  0.27431646815E+02  0.00000000000E+00 0.  1.
</event>
<event>
 8    1  0.1615837E-013  0.9118800E+02  0.7816164E-02  0.1184000E+00
        -11   -1    0    0    0    0  0.00000000000E+00  0.00000000000E+00  0.45593999997E+02  0.45594000000E+02  0.51100000000E-03 0. -1.
         11   -1    0    0    0    0 -0.00000000000E+00 -0.00000000000E+00 -0.45593999997E+02  0.45594000000E+02  0.51100000000E-03 0.  1.
         23    2    1    2    0    0 -0.15543122345E-14  0.00000000000E+00  0.00000000000E+00  0.91188000000E+02  0.91188000000E+02 0.  0.
    9900012    2    3    3    0    0 -0.11229952573E+01 -0.18296316640E+02  0.36292564171E+02  0.50528849307E+02  0.29999967954E+02 0.  0.
        -12    1    3    3    0    0  0.11229952573E+01  0.18296316640E+02 -0.36292564171E+02  0.40659150693E+02  0.00000000000E+00 0.  1.
         11    1    4    4    0    0  0.29047430869E+01 -0.78176657578E+01  0.62464685918E+01  0.10419779289E+02  0.51100000000E-03 0. -1.
        -11    1    4    4    0    0  0.62246590953E+01 -0.11374394636E+02  0.25994365628E+02  0.29048756925E+02  0.51100000000E-03 0.  1.
         12    1    4    4    0    0 -0.10252397440E+02  0.89574375390E+00  0.40517299513E+01  0.11060313094E+02  0.00000000000E+00 0. -1.
</event>
<event>
 8    1  0.1615837E-013  0.9118800E+02  0.7816164E-02  0.1184000E+00
        -11   -1    0    0    0    0  0.00000000000E+00  0.00000000000E+00  0.45593999997E+02  0.45594000000E+02  0.51100000000E-03 0. -1.
         11   -1    0    0    0    0 -0.00000000000E+00 -0.00000000000E+00 -0.45593999997E+02  0.45594000000E+02  0.51100000000E-03 0.  1.
         23    2    1    2    0    0  0.00000000000E+00 -0.21094237468E-14 -0.71054273576E-14  0.91188000000E+02  0.91188000000E+02 0.  0.
    9900012    2    3    3    0    0 -0.14294822484E+02 -0.84859813884E+00  0.38053944345E+02  0.50528871273E+02  0.30000034720E+02 0.  0.
        -12    1    3    3    0    0  0.14294822484E+02  0.84859813884E+00 -0.38053944345E+02  0.40659128727E+02  0.00000000000E+00 0.  1.
         11    1    4    4    0    0 -0.15178321554E-01  0.40813652734E+01  0.35910801901E+01  0.54363250519E+01  0.51100000000E-03 0.  1.
        -11    1    4    4    0    0 -0.93904542225E+00  0.91299640605E+01  0.15268701211E+02  0.17814917541E+02  0.51100000000E-03 0. -1.
         12    1    4    4    0    0 -0.13340598740E+02 -0.14059927473E+02  0.19194162944E+02  0.27277628680E+02  0.00000000000E+00 0. -1.
</event>
<event>
 8    1  0.1615837E-013  0.9118800E+02  0.7816164E-02  0.1184000E+00
        -11   -1    0    0    0    0  0.00000000000E+00  0.00000000000E+00  0.45593999997E+02  0.45594000000E+02  0.51100000000E-03 0. -1.
         11   -1    0    0    0    0 -0.00000000000E+00 -0.00000000000E+00 -0.45593999997E+02  0.45594000000E+02  0.51100000000E-03 0.  1.
         23    2    1    2    0    0  0.00000000000E+00 -0.35527136788E-14  0.00000000000E+00  0.91188000000E+02  0.91188000000E+02 0.  0.
    9900012    2    3    3    0    0 -0.14486099481E+01 -0.22417295633E+02 -0.33889996864E+02  0.50528862014E+02  0.30000006579E+02 0.  0.
         12    1    3    3    0    0  0.14486099481E+01  0.22417295633E+02  0.33889996864E+02  0.40659137986E+02  0.00000000000E+00 0. -1.
         11    1    4    4    0    0  0.31114327992E+01  0.21814290582E+01  0.25418231017E+01  0.45717077489E+01  0.51100000000E-03 0. -1.
        -11    1    4    4    0    0  0.31361481688E+01 -0.13523943971E+01 -0.59178317263E+01  0.68326516480E+01  0.51100000000E-03 0.  1.
         12    1    4    4    0    0 -0.76961909161E+01 -0.23246330294E+02 -0.30513988240E+02  0.39124502617E+02  0.00000000000E+00 0. -1.
</event>
<event>
 8    1  0.1973893E-013  0.9118800E+02  0.7816164E-02  0.1184000E+00
        -11   -1    0    0    0    0  0.00000000000E+00  0.00000000000E+00  0.45593999997E+02  0.45594000000E+02  0.51100000000E-03 0. -1.
         11   -1    0    0    0    0 -0.00000000000E+00 -0.00000000000E+00 -0.45593999997E+02  0.45594000000E+02  0.51100000000E-03 0.  1.
         23    2    1    2    0    0 -0.88817841970E-15 -0.17763568394E-14 -0.71054273576E-14  0.91188000000E+02  0.91188000000E+02 0.  0.
    9900012    2    3    3    0    0 -0.40021889169E+01 -0.15227495948E+02  0.37486948957E+02  0.50528862145E+02  0.30000006976E+02 0.  0.
        -12    1    3    3    0    0  0.40021889169E+01  0.15227495948E+02 -0.37486948957E+02  0.40659137855E+02  0.00000000000E+00 0.  1.
         11    1    4    4    0    0 -0.93724477266E+01 -0.70301623283E+01  0.24548956917E+02  0.27201419903E+02  0.51100000000E-03 0. -1.
        -11    1    4    4    0    0  0.44849341978E+01 -0.46947979576E+01  0.16816888934E+02  0.18026744473E+02  0.51100000000E-03 0.  1.
        -12    1    4    4    0    0  0.88532461199E+00 -0.35025356623E+01 -0.38788968932E+01  0.53006977694E+01  0.00000000000E+00 0.  1.
</event>
<event>
 8    1  0.1615837E-013  0.9118800E+02  0.7816164E-02  0.1184000E+00
        -11   -1    0    0    0    0  0.00000000000E+00  0.00000000000E+00  0.45593999997E+02  0.45594000000E+02  0.51100000000E-03 0. -1.
         11   -1    0    0    0    0 -0.00000000000E+00 -0.00000000000E+00 -0.45593999997E+02  0.45594000000E+02  0.51100000000E-03 0.  1.
         23    2    1    2    0    0  0.00000000000E+00  0.00000000000E+00  0.00000000000E+00  0.91188000000E+02  0.91188000000E+02 0.  0.
    9900012    2    3    3    0    0 -0.81179011268E+01 -0.22206916064E+02 -0.33077462285E+02  0.50528856490E+02  0.29999989787E+02 0.  0.
         12    1    3    3    0    0  0.81179011268E+01  0.22206916064E+02  0.33077462285E+02  0.40659143510E+02  0.00000000000E+00 0. -1.
         11    1    4    4    0    0  0.51924818321E+01 -0.59958846179E+01  0.80705403593E-01  0.79321506258E+01  0.51100000000E-03 0. -1.
        -11    1    4    4    0    0 -0.38067363011E+01 -0.13884978364E+02 -0.10211045879E+02  0.17650759860E+02  0.51100000000E-03 0.  1.
         12    1    4    4    0    0 -0.95036466578E+01 -0.23260530823E+01 -0.22947121809E+02  0.24945946004E+02  0.00000000000E+00 0. -1.
</event>
<event>
 8    1  0.1615837E-013  0.9118800E+02  0.7816164E-02  0.1184000E+00
        -11   -1    0    0    0    0  0.00000000000E+00  0.00000000000E+00  0.45593999997E+02  0.45594000000E+02  0.51100000000E-03 0.  1.
         11   -1    0    0    0    0 -0.00000000000E+00 -0.00000000000E+00 -0.45593999997E+02  0.45594000000E+02  0.51100000000E-03 0. -1.
         23    2    1    2    0    0 -0.17763568394E-14  0.00000000000E+00  0.00000000000E+00  0.91188000000E+02  0.91188000000E+02 0.  0.
    9900012    2    3    3    0    0 -0.78122056924E+01  0.38453980069E+02  0.10650193132E+02  0.50528858904E+02  0.29999997124E+02 0.  0.
        -12    1    3    3    0    0  0.78122056924E+01 -0.38453980069E+02 -0.10650193132E+02  0.40659141096E+02  0.00000000000E+00 0.  1.
         11    1    4    4    0    0 -0.15864088340E+02  0.28275320851E+02  0.45124741680E+01  0.32734163980E+02  0.51100000000E-03 0. -1.
        -11    1    4    4    0    0  0.29179744910E+01 -0.15417287372E+01 -0.56768049222E+00  0.33486958702E+01  0.51100000000E-03 0.  1.
        -12    1    4    4    0    0  0.51339081568E+01  0.11720387955E+02  0.67053994563E+01  0.14445999054E+02  0.00000000000E+00 0.  1.
</event>
<event>
 8    1  0.1615837E-013  0.9118800E+02  0.7816164E-02  0.1184000E+00
        -11   -1    0    0    0    0  0.00000000000E+00  0.00000000000E+00  0.45593999997E+02  0.45594000000E+02  0.51100000000E-03 0. -1.
         11   -1    0    0    0    0 -0.00000000000E+00 -0.00000000000E+00 -0.45593999997E+02  0.45594000000E+02  0.51100000000E-03 0.  1.
         23    2    1    2    0    0  0.00000000000E+00  0.00000000000E+00  0.00000000000E+00  0.91188000000E+02  0.91188000000E+02 0.  0.
    9900012    2    3    3    0    0 -0.34398270030E+02  0.21149437947E+02 -0.47567023033E+01  0.50528856829E+02  0.29999990819E+02 0.  0.
         12    1    3    3    0    0  0.34398270030E+02 -0.21149437947E+02  0.47567023033E+01  0.40659143171E+02  0.00000000000E+00 0. -1.
         11    1    4    4    0    0 -0.30132386477E+02  0.14457604068E+02  0.22268309053E+01  0.33495399778E+02  0.51100000000E-03 0.  1.
        -11    1    4    4    0    0  0.13525890924E+01  0.92131284302E+01 -0.34302150014E+01  0.99235884609E+01  0.51100000000E-03 0. -1.
        -12    1    4    4    0    0 -0.56184726461E+01 -0.25212945510E+01 -0.35533182073E+01  0.71098685902E+01  0.00000000000E+00 0.  1.
</event>
<event>
 8    1  0.1615837E-013  0.9118800E+02  0.7816164E-02  0.1184000E+00
        -11   -1    0    0    0    0  0.00000000000E+00  0.00000000000E+00  0.45593999997E+02  0.45594000000E+02  0.51100000000E-03 0. -1.
         11   -1    0    0    0    0 -0.00000000000E+00 -0.00000000000E+00 -0.45593999997E+02  0.45594000000E+02  0.51100000000E-03 0.  1.
         23    2    1    2    0    0 -0.35527136788E-14  0.35527136788E-14  0.35527136788E-14  0.91188000000E+02  0.91188000000E+02 0.  0.
    9900012    2    3    3    0    0 -0.22002020179E+02  0.29957648928E+02  0.16480765074E+02  0.50528865249E+02  0.30000016412E+02 0.  0.
        -12    1    3    3    0    0  0.22002020179E+02 -0.29957648928E+02 -0.16480765074E+02  0.40659134751E+02  0.00000000000E+00 0.  1.
         11    1    4    4    0    0 -0.22523814132E+02  0.29514846161E+02  0.21746349922E+02  0.43027341100E+02  0.51100000000E-03 0. -1.
        -11    1    4    4    0    0  0.74145439993E+00  0.38222302573E+00  0.95998913772E+00  0.12717816142E+01  0.51100000000E-03 0.  1.
        -12    1    4    4    0    0 -0.21966044720E+00  0.60579741198E-01 -0.62255739848E+01  0.62297425354E+01  0.00000000000E+00 0.  1.
</event>
<event>
 8    1  0.1615837E-013  0.9118800E+02  0.7816164E-02  0.1184000E+00
        -11   -1    0    0    0    0  0.00000000000E+00  0.00000000000E+00  0.45593999997E+02  0.45594000000E+02  0.51100000000E-03 0.  1.
         11   -1    0    0    0    0 -0.00000000000E+00 -0.00000000000E+00 -0.45593999997E+02  0.45594000000E+02  0.51100000000E-03 0. -1.
         23    2    1    2    0    0  0.35527136788E-14  0.00000000000E+00  0.88817841970E-15  0.91188000000E+02  0.91188000000E+02 0.  0.
    9900012    2    3    3    0    0 -0.20088240551E+02  0.34528435600E+02 -0.75773528916E+01  0.50528849121E+02  0.29999967387E+02 0.  0.
         12    1    3    3    0    0  0.20088240551E+02 -0.34528435600E+02  0.75773528916E+01  0.40659150879E+02  0.00000000000E+00 0. -1.
         11    1    4    4    0    0 -0.52012224583E+00  0.94494217005E+01 -0.49236957946E+00  0.94765249795E+01  0.51100000000E-03 0. -1.
        -11    1    4    4    0    0 -0.10710764799E+01  0.19260643298E+02  0.24479981421E+01  0.19445109417E+02  0.51100000000E-03 0.  1.
        -12    1    4    4    0    0 -0.18497041825E+02  0.58183706014E+01 -0.95329814543E+01  0.21607214724E+02  0.00000000000E+00 0.  1.
</event>
<event>
 8    1  0.1615837E-013  0.9118800E+02  0.7816164E-02  0.1184000E+00
        -11   -1    0    0    0    0  0.00000000000E+00  0.00000000000E+00  0.45593999997E+02  0.45594000000E+02  0.51100000000E-03 0. -1.
         11   -1    0    0    0    0 -0.00000000000E+00 -0.00000000000E+00 -0.45593999997E+02  0.45594000000E+02  0.51100000000E-03 0.  1.
         23    2    1    2    0    0 -0.24980018054E-15  0.17763568394E-14  0.00000000000E+00  0.91188000000E+02  0.91188000000E+02 0.  0.
    9900012    2    3    3    0    0  0.13886732378E+00  0.14400671904E+02 -0.38023381698E+02  0.50528730562E+02  0.29999607015E+02 0.  0.
         12    1    3    3    0    0 -0.13886732378E+00 -0.14400671904E+02  0.38023381698E+02  0.40659269438E+02  0.00000000000E+00 0. -1.
         11    1    4    4    0    0 -0.35226235379E+00 -0.66327657399E+00 -0.70291988603E+01  0.70692051504E+01  0.51100000000E-03 0. -1.
        -11    1    4    4    0    0 -0.39370606081E+01  0.14302152913E+02 -0.34633924526E+02  0.37677058703E+02  0.51100000000E-03 0.  1.
         12    1    4    4    0    0  0.44281902857E+01  0.76179556559E+00  0.36397416878E+01  0.57824667093E+01  0.00000000000E+00 0. -1.
</event>
<event>
 8    1  0.1615837E-013  0.9118800E+02  0.7816164E-02  0.1184000E+00
        -11   -1    0    0    0    0  0.00000000000E+00  0.00000000000E+00  0.45593999997E+02  0.45594000000E+02  0.51100000000E-03 0. -1.
         11   -1    0    0    0    0 -0.00000000000E+00 -0.00000000000E+00 -0.45593999997E+02  0.45594000000E+02  0.51100000000E-03 0.  1.
         23    2    1    2    0    0 -0.17763568394E-14  0.00000000000E+00  0.71054273576E-14  0.91188000000E+02  0.91188000000E+02 0.  0.
    9900012    2    3    3    0    0  0.29732245016E+01  0.76755375132E+01  0.39817137421E+02  0.50528949686E+02  0.30000273064E+02 0.  0.
        -12    1    3    3    0    0 -0.29732245016E+01 -0.76755375132E+01 -0.39817137421E+02  0.40659050314E+02  0.00000000000E+00 0.  1.
         11    1    4    4    0    0  0.37085655789E+01 -0.15827317922E+01  0.72613800380E+01  0.83057894806E+01  0.51100000000E-03 0. -1.
        -11    1    4    4    0    0  0.10391476948E+02 -0.25100782912E+01  0.12756740906E+02  0.16643849465E+02  0.51100000000E-03 0.  1.
         12    1    4    4    0    0 -0.11126818025E+02  0.11768347597E+02  0.19799016477E+02  0.25579310741E+02  0.00000000000E+00 0. -1.
</event>
<event>
 8    1  0.1615837E-013  0.9118800E+02  0.7816164E-02  0.1184000E+00
        -11   -1    0    0    0    0  0.00000000000E+00  0.00000000000E+00  0.45593999997E+02  0.45594000000E+02  0.51100000000E-03 0. -1.
         11   -1    0    0    0    0 -0.00000000000E+00 -0.00000000000E+00 -0.45593999997E+02  0.45594000000E+02  0.51100000000E-03 0.  1.
         23    2    1    2    0    0  0.17763568394E-14  0.35527136788E-14  0.00000000000E+00  0.91188000000E+02  0.91188000000E+02 0.  0.
    9900012    2    3    3    0    0 -0.10667073304E+02 -0.24552103569E+02  0.30603480824E+02  0.50528864728E+02  0.30000014827E+02 0.  0.
        -12    1    3    3    0    0  0.10667073304E+02  0.24552103569E+02 -0.30603480824E+02  0.40659135272E+02  0.00000000000E+00 0.  1.
         11    1    4    4    0    0 -0.51404562198E+01 -0.11409801479E+02  0.97084311748E+01  0.15838607769E+02  0.51100000000E-03 0. -1.
        -11    1    4    4    0    0 -0.97424709551E+01 -0.10979100757E+02  0.15346674189E+01  0.14758441588E+02  0.51100000000E-03 0.  1.
        -12    1    4    4    0    0  0.42158538710E+01 -0.21632013326E+01  0.19360382230E+02  0.19931815371E+02  0.00000000000E+00 0.  1.
</event>
<event>
 8    1  0.1615837E-013  0.9118800E+02  0.7816164E-02  0.1184000E+00
        -11   -1    0    0    0    0  0.00000000000E+00  0.00000000000E+00  0.45593999997E+02  0.45594000000E+02  0.51100000000E-03 0. -1.
         11   -1    0    0    0    0 -0.00000000000E+00 -0.00000000000E+00 -0.45593999997E+02  0.45594000000E+02  0.51100000000E-03 0.  1.
         23    2    1    2    0    0 -0.88817841970E-15  0.71054273576E-14  0.35527136788E-14  0.91188000000E+02  0.91188000000E+02 0.  0.
    9900012    2    3    3    0    0  0.72597904507E+01 -0.31927311975E+02 -0.24106149580E+02  0.50528877347E+02  0.30000053184E+02 0.  0.
         12    1    3    3    0    0 -0.72597904507E+01  0.31927311975E+02  0.24106149580E+02  0.40659122653E+02  0.00000000000E+00 0. -1.
         11    1    4    4    0    0  0.10666233068E+01 -0.56037524632E+01 -0.91732343117E+00  0.57776474006E+01  0.51100000000E-03 0.  1.
        -11    1    4    4    0    0  0.92154515684E+01  0.29277317864E+00  0.15230418353E+00  0.92213589329E+01  0.51100000000E-03 0. -1.
         12    1    4    4    0    0 -0.30222844245E+01 -0.26616332691E+02 -0.23341130332E+02  0.35529871013E+02  0.00000000000E+00 0. -1.
</event>
<event>
 8    1  0.1615837E-013  0.9118800E+02  0.7816164E-02  0.1184000E+00
        -11   -1    0    0    0    0  0.00000000000E+00  0.00000000000E+00  0.45593999997E+02  0.45594000000E+02  0.51100000000E-03 0. -1.
         11   -1    0    0    0    0 -0.00000000000E+00 -0.00000000000E+00 -0.45593999997E+02  0.45594000000E+02  0.51100000000E-03 0.  1.
         23    2    1    2    0    0  0.35527136788E-14  0.00000000000E+00 -0.35527136788E-14  0.91188000000E+02  0.91188000000E+02 0.  0.
    9900012    2    3    3    0    0  0.29475906742E+02  0.23372588548E+02  0.15429316328E+02  0.50528797154E+02  0.29999809430E+02 0.  0.
        -12    1    3    3    0    0 -0.29475906742E+02 -0.23372588548E+02 -0.15429316328E+02  0.40659202846E+02  0.00000000000E+00 0.  1.
         11    1    4    4    0    0  0.16353477009E+02  0.12382309826E+02  0.17837186483E+02  0.27183138686E+02  0.51100000000E-03 0. -1.
        -11    1    4    4    0    0  0.50776605078E+01  0.81161073744E+01  0.60493526311E+01  0.11324685544E+02  0.51100000000E-03 0.  1.
        -12    1    4    4    0    0  0.80447692251E+01  0.28741713474E+01 -0.84572227859E+01  0.12020972925E+02  0.00000000000E+00 0.  1.
</event>
<event>
 8    1  0.1615837E-013  0.9118800E+02  0.7816164E-02  0.1184000E+00
        -11   -1    0    0    0    0  0.00000000000E+00  0.00000000000E+00  0.45593999997E+02  0.45594000000E+02  0.51100000000E-03 0.  1.
         11   -1    0    0    0    0 -0.00000000000E+00 -0.00000000000E+00 -0.45593999997E+02  0.45594000000E+02  0.51100000000E-03 0. -1.
         23    2    1    2    0    0  0.00000000000E+00  0.35527136788E-14 -0.35527136788E-14  0.91188000000E+02  0.91188000000E+02 0.  0.
    9900012    2    3    3    0    0 -0.10229528711E+02  0.31171569271E+02 -0.24017800880E+02  0.50528871289E+02  0.30000034769E+02 0.  0.
         12    1    3    3    0    0  0.10229528711E+02 -0.31171569271E+02  0.24017800880E+02  0.40659128711E+02  0.00000000000E+00 0. -1.
         11    1    4    4    0    0  0.20635190039E+01  0.33907313399E+01  0.41433069058E+01  0.57377837251E+01  0.51100000000E-03 0.  1.
        -11    1    4    4    0    0 -0.17475934257E+01 -0.23350510446E+01 -0.21415967894E+01  0.36184227547E+01  0.51100000000E-03 0. -1.
         12    1    4    4    0    0 -0.10545454290E+02  0.30115888975E+02 -0.26019510997E+02  0.41172664809E+02  0.00000000000E+00 0. -1.
</event>
<event>
 8    1  0.1615837E-013  0.9118800E+02  0.7816164E-02  0.1184000E+00
        -11   -1    0    0    0    0  0.00000000000E+00  0.00000000000E+00  0.45593999997E+02  0.45594000000E+02  0.51100000000E-03 0.  1.
         11   -1    0    0    0    0 -0.00000000000E+00 -0.00000000000E+00 -0.45593999997E+02  0.45594000000E+02  0.51100000000E-03 0. -1.
         23    2    1    2    0    0  0.00000000000E+00  0.71054273576E-14  0.00000000000E+00  0.91188000000E+02  0.91188000000E+02 0.  0.
    9900012    2    3    3    0    0 -0.14505009484E+02 -0.31011359708E+02 -0.21933258009E+02  0.50528836974E+02  0.29999930466E+02 0.  0.
         12    1    3    3    0    0  0.14505009484E+02  0.31011359708E+02  0.21933258009E+02  0.40659163026E+02  0.00000000000E+00 0. -1.
         11    1    4    4    0    0 -0.42566270719E+01 -0.10048304109E+02 -0.20584572526E+02  0.23298324314E+02  0.51100000000E-03 0. -1.
        -11    1    4    4    0    0 -0.19349964547E+01 -0.14715117824E+02 -0.57782993671E+01  0.15926947218E+02  0.51100000000E-03 0.  1.
         12    1    4    4    0    0 -0.83133859578E+01 -0.62479377752E+01  0.44296138846E+01  0.11303565442E+02  0.00000000000E+00 0. -1.
</event>
<event>
 8    1  0.1615837E-013  0.9118800E+02  0.7816164E-02  0.1184000E+00
        -11   -1    0    0    0    0  0.00000000000E+00  0.00000000000E+00  0.45593999997E+02  0.45594000000E+02  0.51100000000E-03 0. -1.
         11   -1    0    0    0    0 -0.00000000000E+00 -0.00000000000E+00 -0.45593999997E+02  0.45594000000E+02  0.51100000000E-03 0.  1.
         23    2    1    2    0    0  0.00000000000E+00  0.00000000000E+00  0.00000000000E+00  0.91188000000E+02  0.91188000000E+02 0.  0.
    9900012    2    3    3    0    0 -0.18714313090E+02  0.30940855868E+02 -0.18590401443E+02  0.50528866929E+02  0.30000021516E+02 0.  0.
         12    1    3    3    0    0  0.18714313090E+02 -0.30940855868E+02  0.18590401443E+02  0.40659133071E+02  0.00000000000E+00 0. -1.
         11    1    4    4    0    0 -0.48851660742E+01  0.18144335654E+01  0.25071851562E+00  0.52172671746E+01  0.51100000000E-03 0. -1.
        -11    1    4    4    0    0 -0.19755526725E+01 -0.45197335110E+01  0.75624084252E-01  0.49332057159E+01  0.51100000000E-03 0.  1.
        -12    1    4    4    0    0 -0.11853594343E+02  0.33646155814E+02 -0.18916744043E+02  0.40378394038E+02  0.00000000000E+00 0.  1.
</event>
<event>
 8    1  0.1615837E-013  0.9118800E+02  0.7816164E-02  0.1184000E+00
        -11   -1    0    0    0    0  0.00000000000E+00  0.00000000000E+00  0.45593999997E+02  0.45594000000E+02  0.51100000000E-03 0. -1.
         11   -1    0    0    0    0 -0.00000000000E+00 -0.00000000000E+00 -0.45593999997E+02  0.45594000000E+02  0.51100000000E-03 0.  1.
         23    2    1    2    0    0  0.00000000000E+00  0.00000000000E+00  0.00000000000E+00  0.91188000000E+02  0.91188000000E+02 0.  0.
    9900012    2    3    3    0    0  0.66941500657E+01 -0.86094846978E+01 -0.39169259211E+02  0.50528859097E+02  0.29999997711E+02 0.  0.
         12    1    3    3    0    0 -0.66941500657E+01  0.86094846978E+01  0.39169259211E+02  0.40659140903E+02  0.00000000000E+00 0. -1.
         11    1    4    4    0    0 -0.17905860429E+01 -0.42353966414E+01 -0.18566280871E+02  0.19127246762E+02  0.51100000000E-03 0. -1.
        -11    1    4    4    0    0  0.42310050257E+01 -0.10334560922E+02 -0.21295929940E+02  0.24046230167E+02  0.51100000000E-03 0.  1.
         12    1    4    4    0    0  0.42537310830E+01  0.59604728657E+01  0.69295159953E+00  0.73553821674E+01  0.00000000000E+00 0. -1.
</event>
<event>
 8    1  0.1615837E-013  0.9118800E+02  0.7816164E-02  0.1184000E+00
        -11   -1    0    0    0    0  0.00000000000E+00  0.00000000000E+00  0.45593999997E+02  0.45594000000E+02  0.51100000000E-03 0. -1.
         11   -1    0    0    0    0 -0.00000000000E+00 -0.00000000000E+00 -0.45593999997E+02  0.45594000000E+02  0.51100000000E-03 0.  1.
         23    2    1    2    0    0  0.35527136788E-14 -0.35527136788E-14  0.17763568394E-14  0.91188000000E+02  0.91188000000E+02 0.  0.
    9900012    2    3    3    0    0 -0.22564355791E+02  0.29832554393E+02 -0.15938432378E+02  0.50528867194E+02  0.30000022322E+02 0.  0.
         12    1    3    3    0    0  0.22564355791E+02 -0.29832554393E+02  0.15938432378E+02  0.40659132806E+02  0.00000000000E+00 0. -1.
         11    1    4    4    0    0 -0.11939460393E+02  0.80152122360E+01  0.30733707701E+01  0.14705099450E+02  0.51100000000E-03 0. -1.
        -11    1    4    4    0    0 -0.15756716469E+02  0.14429552138E+02 -0.13560977232E+02  0.25305852930E+02  0.51100000000E-03 0.  1.
         12    1    4    4    0    0  0.51318210710E+01  0.73877900190E+01 -0.54508259157E+01  0.10517914814E+02  0.00000000000E+00 0. -1.
</event>
<event>
 8    1  0.1615837E-013  0.9118800E+02  0.7816164E-02  0.1184000E+00
        -11   -1    0    0    0    0  0.00000000000E+00  0.00000000000E+00  0.45593999997E+02  0.45594000000E+02  0.51100000000E-03 0. -1.
         11   -1    0    0    0    0 -0.00000000000E+00 -0.00000000000E+00 -0.45593999997E+02  0.45594000000E+02  0.51100000000E-03 0.  1.
         23    2    1    2    0    0 -0.17763568394E-14  0.35527136788E-14  0.00000000000E+00  0.91188000000E+02  0.91188000000E+02 0.  0.
    9900012    2    3    3    0    0 -0.12381778694E+02  0.11895630553E+02 -0.36855810637E+02  0.50528865140E+02  0.30000016079E+02 0.  0.
         12    1    3    3    0    0  0.12381778694E+02 -0.11895630553E+02  0.36855810637E+02  0.40659134860E+02  0.00000000000E+00 0. -1.
         11    1    4    4    0    0 -0.72205170199E+00 -0.59017699222E+01 -0.12264138852E+01  0.60709421142E+01  0.51100000000E-03 0. -1.
        -11    1    4    4    0    0 -0.57038562175E+01 -0.18001075134E+01 -0.99627038907E+01  0.11620233728E+02  0.51100000000E-03 0.  1.
        -12    1    4    4    0    0 -0.59558707749E+01  0.19597507988E+02 -0.25666692861E+02  0.32837689298E+02  0.00000000000E+00 0.  1.
</event>
<event>
 8    1  0.1615837E-013  0.9118800E+02  0.7816164E-02  0.1184000E+00
        -11   -1    0    0    0    0  0.00000000000E+00  0.00000000000E+00  0.45593999997E+02  0.45594000000E+02  0.51100000000E-03 0. -1.
         11   -1    0    0    0    0 -0.00000000000E+00 -0.00000000000E+00 -0.45593999997E+02  0.45594000000E+02  0.51100000000E-03 0.  1.
         23    2    1    2    0    0  0.17763568394E-14  0.71054273576E-14  0.00000000000E+00  0.91188000000E+02  0.91188000000E+02 0.  0.
    9900012    2    3    3    0    0  0.12724907576E+02  0.34858424545E+02 -0.16617227874E+02  0.50528864535E+02  0.30000014241E+02 0.  0.
         12    1    3    3    0    0 -0.12724907576E+02 -0.34858424545E+02  0.16617227874E+02  0.40659135465E+02  0.00000000000E+00 0. -1.
         11    1    4    4    0    0  0.52235810057E+01  0.17693800245E+02 -0.12103092036E+00  0.18449146711E+02  0.51100000000E-03 0. -1.
        -11    1    4    4    0    0  0.11583625324E+02  0.18930316604E+02 -0.16461430223E+02  0.27631792334E+02  0.51100000000E-03 0.  1.
         12    1    4    4    0    0 -0.40822987541E+01 -0.17656923043E+01 -0.34766730787E-01  0.44479254891E+01  0.00000000000E+00 0. -1.
</event>
<event>
 8    1  0.1615837E-013  0.9118800E+02  0.7816164E-02  0.1184000E+00
        -11   -1    0    0    0    0  0.00000000000E+00  0.00000000000E+00  0.45593999997E+02  0.45594000000E+02  0.51100000000E-03 0. -1.
         11   -1    0    0    0    0 -0.00000000000E+00 -0.00000000000E+00 -0.45593999997E+02  0.45594000000E+02  0.51100000000E-03 0.  1.
         23    2    1    2    0    0  0.00000000000E+00  0.00000000000E+00  0.00000000000E+00  0.91188000000E+02  0.91188000000E+02 0.  0.
    9900012    2    3    3    0    0  0.27282405789E+02 -0.14484370585E+02 -0.26439319682E+02  0.50528877012E+02  0.30000052166E+02 0.  0.
         12    1    3    3    0    0 -0.27282405789E+02  0.14484370585E+02  0.26439319682E+02  0.40659122988E+02  0.00000000000E+00 0. -1.
         11    1    4    4    0    0  0.46462592093E+01  0.44622882098E+01  0.14600606511E+01  0.66054158138E+01  0.51100000000E-03 0. -1.
        -11    1    4    4    0    0  0.11478538347E+02 -0.13694672771E+02 -0.61068807326E+01  0.18883720434E+02  0.51100000000E-03 0.  1.
        -12    1    4    4    0    0  0.11157608233E+02 -0.52519860229E+01 -0.21792499601E+02  0.25039740764E+02  0.00000000000E+00 0.  1.
</event>
<event>
 8    1  0.1615837E-013  0.9118800E+02  0.7816164E-02  0.1184000E+00
        -11   -1    0    0    0    0  0.00000000000E+00  0.00000000000E+00  0.45593999997E+02  0.45594000000E+02  0.51100000000E-03 0. -1.
         11   -1    0    0    0    0 -0.00000000000E+00 -0.00000000000E+00 -0.45593999997E+02  0.45594000000E+02  0.51100000000E-03 0.  1.
         23    2    1    2    0    0  0.00000000000E+00 -0.44408920985E-15  0.00000000000E+00  0.91188000000E+02  0.91188000000E+02 0.  0.
    9900012    2    3    3    0    0 -0.22602596321E+02  0.30329795306E+01 -0.33661387800E+02  0.50528863833E+02  0.30000012106E+02 0.  0.
         12    1    3    3    0    0  0.22602596321E+02 -0.30329795306E+01  0.33661387800E+02  0.40659136167E+02  0.00000000000E+00 0. -1.
         11    1    4    4    0    0 -0.20899684164E+00  0.11124601674E+00  0.42065386634E+00  0.48270621753E+00  0.51100000000E-03 0. -1.
        -11    1    4    4    0    0 -0.15532517012E+02  0.15419993010E+02 -0.16499323254E+02  0.27409176151E+02  0.51100000000E-03 0.  1.
        -12    1    4    4    0    0 -0.68610824667E+01 -0.12498259497E+02 -0.17582718412E+02  0.22636981464E+02  0.00000000000E+00 0.  1.
</event>
<event>
 8    1  0.1615837E-013  0.9118800E+02  0.7816164E-02  0.1184000E+00
        -11   -1    0    0    0    0  0.00000000000E+00  0.00000000000E+00  0.45593999997E+02  0.45594000000E+02  0.51100000000E-03 0.  1.
         11   -1    0    0    0    0 -0.00000000000E+00 -0.00000000000E+00 -0.45593999997E+02  0.45594000000E+02  0.51100000000E-03 0. -1.
         23    2    1    2    0    0 -0.35527136788E-14  0.17763568394E-14 -0.35527136788E-14  0.91188000000E+02  0.91188000000E+02 0.  0.
    9900012    2    3    3    0    0  0.27002057103E+02 -0.14172793975E+02  0.26892137091E+02  0.50528853253E+02  0.29999979948E+02 0.  0.
        -12    1    3    3    0    0 -0.27002057103E+02  0.14172793975E+02 -0.26892137091E+02  0.40659146747E+02  0.00000000000E+00 0.  1.
         11    1    4    4    0    0  0.12921968291E+02 -0.54082623328E+01 -0.13351298963E+01  0.14071571983E+02  0.51100000000E-03 0. -1.
        -11    1    4    4    0    0  0.23345711435E+00 -0.14983091145E+01 -0.19493547677E+01  0.24696997183E+01  0.51100000000E-03 0.  1.
        -12    1    4    4    0    0  0.13846631698E+02 -0.72662225280E+01  0.30176621755E+02  0.33987581552E+02  0.00000000000E+00 0.  1.
</event>
<event>
 8    1  0.1615837E-013  0.9118800E+02  0.7816164E-02  0.1184000E+00
        -11   -1    0    0    0    0  0.00000000000E+00  0.00000000000E+00  0.45593999997E+02  0.45594000000E+02  0.51100000000E-03 0. -1.
         11   -1    0    0    0    0 -0.00000000000E+00 -0.00000000000E+00 -0.45593999997E+02  0.45594000000E+02  0.51100000000E-03 0.  1.
         23    2    1    2    0    0  0.00000000000E+00  0.00000000000E+00  0.00000000000E+00  0.91188000000E+02  0.91188000000E+02 0.  0.
    9900012    2    3    3    0    0  0.80276608198E+01  0.22553077322E+02 -0.32864584697E+02  0.50528861270E+02  0.30000004318E+02 0.  0.
         12    1    3    3    0    0 -0.80276608198E+01 -0.22553077322E+02  0.32864584697E+02  0.40659138730E+02  0.00000000000E+00 0. -1.
         11    1    4    4    0    0 -0.52129528123E+01  0.12912791075E+02 -0.13581677708E+02  0.19451915587E+02  0.51100000000E-03 0. -1.
        -11    1    4    4    0    0 -0.29684361364E+01 -0.24902443368E+01 -0.15844984502E+01  0.41861158073E+01  0.51100000000E-03 0.  1.
        -12    1    4    4    0    0  0.16209049768E+02  0.12130530584E+02 -0.17698408538E+02  0.26890829876E+02  0.00000000000E+00 0.  1.
</event>
<event>
 8    1  0.1615837E-013  0.9118800E+02  0.7816164E-02  0.1184000E+00
        -11   -1    0    0    0    0  0.00000000000E+00  0.00000000000E+00  0.45593999997E+02  0.45594000000E+02  0.51100000000E-03 0. -1.
         11   -1    0    0    0    0 -0.00000000000E+00 -0.00000000000E+00 -0.45593999997E+02  0.45594000000E+02  0.51100000000E-03 0.  1.
         23    2    1    2    0    0 -0.66613381478E-15 -0.88817841970E-15  0.00000000000E+00  0.91188000000E+02  0.91188000000E+02 0.  0.
    9900012    2    3    3    0    0  0.82235387205E+00 -0.40687884625E+01  0.40446697573E+02  0.50528847894E+02  0.29999963659E+02 0.  0.
        -12    1    3    3    0    0 -0.82235387205E+00  0.40687884625E+01 -0.40446697573E+02  0.40659152106E+02  0.00000000000E+00 0.  1.
         11    1    4    4    0    0  0.46047902574E+01 -0.10888505722E+01  0.10700238821E+02  0.11699777775E+02  0.51100000000E-03 0. -1.
        -11    1    4    4    0    0  0.79989839806E+01 -0.46811845454E+01  0.23762622939E+02  0.25506067566E+02  0.51100000000E-03 0.  1.
         12    1    4    4    0    0 -0.11781420366E+02  0.17012466551E+01  0.59838358123E+01  0.13323002554E+02  0.00000000000E+00 0. -1.
</event>
<event>
 8    1  0.1615837E-013  0.9118800E+02  0.7816164E-02  0.1184000E+00
        -11   -1    0    0    0    0  0.00000000000E+00  0.00000000000E+00  0.45593999997E+02  0.45594000000E+02  0.51100000000E-03 0. -1.
         11   -1    0    0    0    0 -0.00000000000E+00 -0.00000000000E+00 -0.45593999997E+02  0.45594000000E+02  0.51100000000E-03 0.  1.
         23    2    1    2    0    0  0.44408920985E-15  0.00000000000E+00  0.00000000000E+00  0.91188000000E+02  0.91188000000E+02 0.  0.
    9900012    2    3    3    0    0 -0.38233993697E+01  0.40041830839E+02  0.59329156978E+01  0.50528854800E+02  0.29999984651E+02 0.  0.
        -12    1    3    3    0    0  0.38233993697E+01 -0.40041830839E+02 -0.59329156978E+01  0.40659145200E+02  0.00000000000E+00 0.  1.
         11    1    4    4    0    0  0.39464010711E+01  0.12266579970E+02 -0.63277354365E+01  0.14355601750E+02  0.51100000000E-03 0. -1.
        -11    1    4    4    0    0  0.44442330485E+01  0.51390298201E+01 -0.15644623905E+01  0.69719708629E+01  0.51100000000E-03 0.  1.
         12    1    4    4    0    0 -0.12214033489E+02  0.22636221049E+02  0.13825113525E+02  0.29201282188E+02  0.00000000000E+00 0. -1.
</event>
<event>
 8    1  0.1615837E-013  0.9118800E+02  0.7816164E-02  0.1184000E+00
        -11   -1    0    0    0    0  0.00000000000E+00  0.00000000000E+00  0.45593999997E+02  0.45594000000E+02  0.51100000000E-03 0. -1.
         11   -1    0    0    0    0 -0.00000000000E+00 -0.00000000000E+00 -0.45593999997E+02  0.45594000000E+02  0.51100000000E-03 0.  1.
         23    2    1    2    0    0  0.35527136788E-14  0.35527136788E-14  0.00000000000E+00  0.91188000000E+02  0.91188000000E+02 0.  0.
    9900012    2    3    3    0    0 -0.15930220793E+02 -0.18519511002E+02 -0.32502627314E+02  0.50528868128E+02  0.30000025162E+02 0.  0.
         12    1    3    3    0    0  0.15930220793E+02  0.18519511002E+02  0.32502627314E+02  0.40659131872E+02  0.00000000000E+00 0. -1.
         11    1    4    4    0    0 -0.91216857167E+01  0.35617622309E+01  0.35878533298E+00  0.97989809511E+01  0.51100000000E-03 0. -1.
        -11    1    4    4    0    0 -0.18303844418E+01 -0.50227236732E+00 -0.21719391533E+01  0.28844244976E+01  0.51100000000E-03 0.  1.
        -12    1    4    4    0    0 -0.49781506345E+01 -0.21579000866E+02 -0.30689473493E+02  0.37845462679E+02  0.00000000000E+00 0.  1.
</event>
<event>
 8    1  0.1615837E-013  0.9118800E+02  0.7816164E-02  0.1184000E+00
        -11   -1    0    0    0    0  0.00000000000E+00  0.00000000000E+00  0.45593999997E+02  0.45594000000E+02  0.51100000000E-03 0. -1.
         11   -1    0    0    0    0 -0.00000000000E+00 -0.00000000000E+00 -0.45593999997E+02  0.45594000000E+02  0.51100000000E-03 0.  1.
         23    2    1    2    0    0  0.00000000000E+00  0.00000000000E+00  0.00000000000E+00  0.91188000000E+02  0.91188000000E+02 0.  0.
    9900012    2    3    3    0    0 -0.52588383846E+01  0.24407013318E+02  0.32090616237E+02  0.50528864118E+02  0.30000012973E+02 0.  0.
        -12    1    3    3    0    0  0.52588383846E+01 -0.24407013318E+02 -0.32090616237E+02  0.40659135882E+02  0.00000000000E+00 0.  1.
         11    1    4    4    0    0 -0.32309095129E+01 -0.29881334552E+01  0.13015432881E+01  0.45893063766E+01  0.51100000000E-03 0. -1.
        -11    1    4    4    0    0  0.43903726024E+01  0.21699277005E+01  0.14329016042E+02  0.15142808815E+02  0.51100000000E-03 0.  1.
         12    1    4    4    0    0 -0.64183014741E+01  0.25225219072E+02  0.16460056906E+02  0.30796748926E+02  0.00000000000E+00 0. -1.
</event>
<event>
 8    1  0.1615837E-013  0.9118800E+02  0.7816164E-02  0.1184000E+00
        -11   -1    0    0    0    0  0.00000000000E+00  0.00000000000E+00  0.45593999997E+02  0.45594000000E+02  0.51100000000E-03 0. -1.
         11   -1    0    0    0    0 -0.00000000000E+00 -0.00000000000E+00 -0.45593999997E+02  0.45594000000E+02  0.51100000000E-03 0.  1.
         23    2    1    2    0    0  0.00000000000E+00  0.35527136788E-14 -0.35527136788E-14  0.91188000000E+02  0.91188000000E+02 0.  0.
    9900012    2    3    3    0    0  0.19048625972E+02  0.24093246222E+02 -0.26642591017E+02  0.50528901129E+02  0.30000125471E+02 0.  0.
         12    1    3    3    0    0 -0.19048625972E+02 -0.24093246222E+02  0.26642591017E+02  0.40659098871E+02  0.00000000000E+00 0. -1.
         11    1    4    4    0    0  0.21983136558E+02  0.12019141504E+02 -0.15623846408E+02  0.29526642753E+02  0.51100000000E-03 0. -1.
        -11    1    4    4    0    0  0.48717100667E+01  0.59109309560E+01 -0.66317490426E+01  0.10131769804E+02  0.51100000000E-03 0.  1.
         12    1    4    4    0    0 -0.78062206523E+01  0.61631737613E+01 -0.43869955660E+01  0.10870488571E+02  0.00000000000E+00 0. -1.
</event>
<event>
 8    1  0.1615837E-013  0.9118800E+02  0.7816164E-02  0.1184000E+00
        -11   -1    0    0    0    0  0.00000000000E+00  0.00000000000E+00  0.45593999997E+02  0.45594000000E+02  0.51100000000E-03 0. -1.
         11   -1    0    0    0    0 -0.00000000000E+00 -0.00000000000E+00 -0.45593999997E+02  0.45594000000E+02  0.51100000000E-03 0.  1.
         23    2    1    2    0    0  0.35527136788E-14 -0.35527136788E-14  0.71054273576E-14  0.91188000000E+02  0.91188000000E+02 0.  0.
    9900012    2    3    3    0    0  0.14208953621E+02 -0.26593587150E+02  0.27277334794E+02  0.50528853010E+02  0.29999979209E+02 0.  0.
        -12    1    3    3    0    0 -0.14208953621E+02  0.26593587150E+02 -0.27277334794E+02  0.40659146990E+02  0.00000000000E+00 0.  1.
         11    1    4    4    0    0  0.49729796958E+01 -0.91872362921E+01  0.34020606456E+01  0.10986803659E+02  0.51100000000E-03 0. -1.
        -11    1    4    4    0    0  0.14647961459E+02 -0.43346963582E+01  0.52501992290E+01  0.16152924182E+02  0.51100000000E-03 0.  1.
         12    1    4    4    0    0 -0.54119875338E+01 -0.13071654500E+02  0.18625074920E+02  0.23389125169E+02  0.00000000000E+00 0. -1.
</event>
<event>
 8    1  0.1615837E-013  0.9118800E+02  0.7816164E-02  0.1184000E+00
        -11   -1    0    0    0    0  0.00000000000E+00  0.00000000000E+00  0.45593999997E+02  0.45594000000E+02  0.51100000000E-03 0. -1.
         11   -1    0    0    0    0 -0.00000000000E+00 -0.00000000000E+00 -0.45593999997E+02  0.45594000000E+02  0.51100000000E-03 0.  1.
         23    2    1    2    0    0  0.00000000000E+00  0.00000000000E+00  0.00000000000E+00  0.91188000000E+02  0.91188000000E+02 0.  0.
    9900012    2    3    3    0    0  0.23126973379E+02  0.12083780788E+02 -0.31181581927E+02  0.50528859487E+02  0.29999998896E+02 0.  0.
         12    1    3    3    0    0 -0.23126973379E+02 -0.12083780788E+02  0.31181581927E+02  0.40659140513E+02  0.00000000000E+00 0. -1.
         11    1    4    4    0    0 -0.25846591223E+01 -0.17012536287E+01 -0.97128961471E+00  0.32431667340E+01  0.51100000000E-03 0. -1.
        -11    1    4    4    0    0  0.26126225314E+02  0.40536547397E+01 -0.19813885507E+02  0.33039398073E+02  0.51100000000E-03 0.  1.
         12    1    4    4    0    0 -0.41459281305E+00  0.97313796766E+01 -0.10396406806E+02  0.14246294679E+02  0.00000000000E+00 0. -1.
</event>
<event>
 8    1  0.1615837E-013  0.9118800E+02  0.7816164E-02  0.1184000E+00
        -11   -1    0    0    0    0  0.00000000000E+00  0.00000000000E+00  0.45593999997E+02  0.45594000000E+02  0.51100000000E-03 0. -1.
         11   -1    0    0    0    0 -0.00000000000E+00 -0.00000000000E+00 -0.45593999997E+02  0.45594000000E+02  0.51100000000E-03 0.  1.
         23    2    1    2    0    0  0.88817841970E-15  0.00000000000E+00  0.71054273576E-14  0.91188000000E+02  0.91188000000E+02 0.  0.
    9900012    2    3    3    0    0  0.29729803913E+01 -0.23430753192E+02 -0.33095727147E+02  0.50528856343E+02  0.29999989340E+02 0.  0.
         12    1    3    3    0    0 -0.29729803913E+01  0.23430753192E+02  0.33095727147E+02  0.40659143657E+02  0.00000000000E+00 0. -1.
         11    1    4    4    0    0  0.25414646512E+01  0.22370366070E+01  0.83270718072E+00  0.34866569754E+01  0.51100000000E-03 0. -1.
        -11    1    4    4    0    0 -0.93990895673E+01 -0.10720363179E+02 -0.18918167269E+02  0.23688945195E+02  0.51100000000E-03 0.  1.
         12    1    4    4    0    0  0.98306053073E+01 -0.14947426620E+02 -0.15010267058E+02  0.23353254172E+02  0.00000000000E+00 0. -1.
</event>
<event>
 8    1  0.1615837E-013  0.9118800E+02  0.7816164E-02  0.1184000E+00
        -11   -1    0    0    0    0  0.00000000000E+00  0.00000000000E+00  0.45593999997E+02  0.45594000000E+02  0.51100000000E-03 0. -1.
         11   -1    0    0    0    0 -0.00000000000E+00 -0.00000000000E+00 -0.45593999997E+02  0.45594000000E+02  0.51100000000E-03 0.  1.
         23    2    1    2    0    0  0.88817841970E-15  0.35527136788E-14  0.71054273576E-14  0.91188000000E+02  0.91188000000E+02 0.  0.
    9900012    2    3    3    0    0  0.50824221408E+01  0.24335395677E+02  0.32173485980E+02  0.50528736631E+02  0.29999625461E+02 0.  0.
        -12    1    3    3    0    0 -0.50824221408E+01 -0.24335395677E+02 -0.32173485980E+02  0.40659263369E+02  0.00000000000E+00 0.  1.
         11    1    4    4    0    0  0.93536368072E+01  0.12823827276E+02  0.13702260523E+02  0.20968858128E+02  0.51100000000E-03 0. -1.
        -11    1    4    4    0    0 -0.82070117168E+01  0.91021448935E+01  0.19545684437E+01  0.12410657559E+02  0.51100000000E-03 0.  1.
         12    1    4    4    0    0  0.39357970504E+01  0.24094235082E+01  0.16516657014E+02  0.17149220944E+02  0.00000000000E+00 0. -1.
</event>
<event>
 8    1  0.1615837E-013  0.9118800E+02  0.7816164E-02  0.1184000E+00
        -11   -1    0    0    0    0  0.00000000000E+00  0.00000000000E+00  0.45593999997E+02  0.45594000000E+02  0.51100000000E-03 0. -1.
         11   -1    0    0    0    0 -0.00000000000E+00 -0.00000000000E+00 -0.45593999997E+02  0.45594000000E+02  0.51100000000E-03 0.  1.
         23    2    1    2    0    0  0.00000000000E+00  0.35527136788E-14  0.35527136788E-14  0.91188000000E+02  0.91188000000E+02 0.  0.
    9900012    2    3    3    0    0 -0.17955718044E+02  0.17776478549E+02  0.31855197033E+02  0.50528873373E+02  0.30000041103E+02 0.  0.
        -12    1    3    3    0    0  0.17955718044E+02 -0.17776478549E+02 -0.31855197033E+02  0.40659126627E+02  0.00000000000E+00 0.  1.
         11    1    4    4    0    0  0.19405980607E+01 -0.44800037416E+01  0.19502422277E+01  0.52573566900E+01  0.51100000000E-03 0. -1.
        -11    1    4    4    0    0  0.20726919343E+00  0.10871421754E+02  0.10119596742E+02  0.14853855054E+02  0.51100000000E-03 0.  1.
        -12    1    4    4    0    0 -0.20103585298E+02  0.11385060536E+02  0.19785358063E+02  0.30417661628E+02  0.00000000000E+00 0.  1.
</event>
<event>
 8    1  0.1615837E-013  0.9118800E+02  0.7816164E-02  0.1184000E+00
        -11   -1    0    0    0    0  0.00000000000E+00  0.00000000000E+00  0.45593999997E+02  0.45594000000E+02  0.51100000000E-03 0. -1.
         11   -1    0    0    0    0 -0.00000000000E+00 -0.00000000000E+00 -0.45593999997E+02  0.45594000000E+02  0.51100000000E-03 0.  1.
         23    2    1    2    0    0  0.00000000000E+00 -0.35527136788E-14  0.00000000000E+00  0.91188000000E+02  0.91188000000E+02 0.  0.
    9900012    2    3    3    0    0 -0.24686608151E+02 -0.20194047059E+02  0.25217785849E+02  0.50528869638E+02  0.30000029753E+02 0.  0.
        -12    1    3    3    0    0  0.24686608151E+02  0.20194047059E+02 -0.25217785849E+02  0.40659130362E+02  0.00000000000E+00 0.  1.
         11    1    4    4    0    0 -0.34731646241E+00 -0.78491603693E+01  0.65132848393E+00  0.78837919989E+01  0.51100000000E-03 0. -1.
        -11    1    4    4    0    0 -0.50143191585E+01 -0.63860879985E+01 -0.28253471735E+01  0.85969822299E+01  0.51100000000E-03 0.  1.
         12    1    4    4    0    0 -0.19324972530E+02 -0.59587986917E+01  0.27391804539E+02  0.34048095410E+02  0.00000000000E+00 0. -1.
</event>
<event>
 8    1  0.1615837E-013  0.9118800E+02  0.7816164E-02  0.1184000E+00
        -11   -1    0    0    0    0  0.00000000000E+00  0.00000000000E+00  0.45593999997E+02  0.45594000000E+02  0.51100000000E-03 0. -1.
         11   -1    0    0    0    0 -0.00000000000E+00 -0.00000000000E+00 -0.45593999997E+02  0.45594000000E+02  0.51100000000E-03 0.  1.
         23    2    1    2    0    0  0.00000000000E+00  0.17763568394E-14  0.00000000000E+00  0.91188000000E+02  0.91188000000E+02 0.  0.
    9900012    2    3    3    0    0  0.11557898148E+02 -0.14217168423E+02  0.36296720960E+02  0.50528870152E+02  0.30000031315E+02 0.  0.
        -12    1    3    3    0    0 -0.11557898148E+02  0.14217168423E+02 -0.36296720960E+02  0.40659129848E+02  0.00000000000E+00 0.  1.
         11    1    4    4    0    0  0.21592601023E+01 -0.14410065973E+02  0.12851683058E+02  0.19428797266E+02  0.51100000000E-03 0. -1.
        -11    1    4    4    0    0 -0.46626259236E+01 -0.35750228864E+01  0.65949508165E+01  0.88325673321E+01  0.51100000000E-03 0.  1.
        -12    1    4    4    0    0  0.14061263969E+02  0.37679204366E+01  0.16850087085E+02  0.22267505554E+02  0.00000000000E+00 0.  1.
</event>
<event>
 8    1  0.1615837E-013  0.9118800E+02  0.7816164E-02  0.1184000E+00
        -11   -1    0    0    0    0  0.00000000000E+00  0.00000000000E+00  0.45593999997E+02  0.45594000000E+02  0.51100000000E-03 0. -1.
         11   -1    0    0    0    0 -0.00000000000E+00 -0.00000000000E+00 -0.45593999997E+02  0.45594000000E+02  0.51100000000E-03 0.  1.
         23    2    1    2    0    0  0.00000000000E+00  0.00000000000E+00  0.00000000000E+00  0.91188000000E+02  0.91188000000E+02 0.  0.
    9900012    2    3    3    0    0  0.35468694756E+02  0.93458961792E+01  0.17544005551E+02  0.50528853257E+02  0.29999979960E+02 0.  0.
        -12    1    3    3    0    0 -0.35468694756E+02 -0.93458961792E+01 -0.17544005551E+02  0.40659146743E+02  0.00000000000E+00 0.  1.
         11    1    4    4    0    0  0.11139461940E+01 -0.26115603278E+00  0.10361803765E+02  0.10424780867E+02  0.51100000000E-03 0. -1.
        -11    1    4    4    0    0  0.14671371806E+02  0.10965138833E+02  0.87750159803E+01  0.20309710141E+02  0.51100000000E-03 0.  1.
         12    1    4    4    0    0  0.19683376756E+02 -0.13580866210E+01 -0.15928141940E+01  0.19794362249E+02  0.00000000000E+00 0. -1.
</event>
<event>
 8    1  0.1615837E-013  0.9118800E+02  0.7816164E-02  0.1184000E+00
        -11   -1    0    0    0    0  0.00000000000E+00  0.00000000000E+00  0.45593999997E+02  0.45594000000E+02  0.51100000000E-03 0. -1.
         11   -1    0    0    0    0 -0.00000000000E+00 -0.00000000000E+00 -0.45593999997E+02  0.45594000000E+02  0.51100000000E-03 0.  1.
         23    2    1    2    0    0  0.00000000000E+00 -0.71054273576E-14  0.00000000000E+00  0.91188000000E+02  0.91188000000E+02 0.  0.
    9900012    2    3    3    0    0 -0.82284808031E+01 -0.39309932753E+02 -0.63393323490E+01  0.50528857806E+02  0.29999993787E+02 0.  0.
         12    1    3    3    0    0  0.82284808031E+01  0.39309932753E+02  0.63393323490E+01  0.40659142194E+02  0.00000000000E+00 0. -1.
         11    1    4    4    0    0 -0.39465737989E+01 -0.36351857462E+02 -0.29283309164E+01  0.36682531372E+02  0.51100000000E-03 0. -1.
        -11    1    4    4    0    0 -0.30418711254E+00 -0.68077008710E+01 -0.45512686262E+01  0.81945937860E+01  0.51100000000E-03 0.  1.
         12    1    4    4    0    0 -0.39777198916E+01  0.38496255803E+01  0.11402671937E+01  0.56517326474E+01  0.00000000000E+00 0. -1.
</event>
<event>
 8    1  0.1906098E-013  0.9118800E+02  0.7816164E-02  0.1184000E+00
        -11   -1    0    0    0    0  0.00000000000E+00  0.00000000000E+00  0.45593999997E+02  0.45594000000E+02  0.51100000000E-03 0. -1.
         11   -1    0    0    0    0 -0.00000000000E+00 -0.00000000000E+00 -0.45593999997E+02  0.45594000000E+02  0.51100000000E-03 0.  1.
         23    2    1    2    0    0  0.14210854715E-13  0.00000000000E+00  0.00000000000E+00  0.91188000000E+02  0.91188000000E+02 0.  0.
    9900012    2    3    3    0    0 -0.27473204106E+02  0.21768599025E+02  0.20603783001E+02  0.50528871611E+02  0.30000035750E+02 0.  0.
        -12    1    3    3    0    0  0.27473204106E+02 -0.21768599025E+02 -0.20603783001E+02  0.40659128389E+02  0.00000000000E+00 0.  1.
         11    1    4    4    0    0 -0.14663083722E+02  0.93253446849E+01  0.60178489380E+01  0.18389741266E+02  0.51100000000E-03 0. -1.
        -11    1    4    4    0    0 -0.18673251333E+02  0.11514704322E+02  0.14317727717E+02  0.26196871153E+02  0.51100000000E-03 0.  1.
        -12    1    4    4    0    0  0.58631309491E+01  0.92855001791E+00  0.26820634633E+00  0.59422591921E+01  0.00000000000E+00 0.  1.
</event>
<event>
 8    1  0.1692980E-013  0.9118800E+02  0.7816164E-02  0.1184000E+00
        -11   -1    0    0    0    0  0.00000000000E+00  0.00000000000E+00  0.45593999997E+02  0.45594000000E+02  0.51100000000E-03 0. -1.
         11   -1    0    0    0    0 -0.00000000000E+00 -0.00000000000E+00 -0.45593999997E+02  0.45594000000E+02  0.51100000000E-03 0.  1.
         23    2    1    2    0    0  0.00000000000E+00  0.22204460493E-15  0.00000000000E+00  0.91188000000E+02  0.91188000000E+02 0.  0.
    9900012    2    3    3    0    0 -0.37276722083E+02 -0.74705607890E+00  0.16218898478E+02  0.50528871014E+02  0.30000033935E+02 0.  0.
        -12    1    3    3    0    0  0.37276722083E+02  0.74705607890E+00 -0.16218898478E+02  0.40659128986E+02  0.00000000000E+00 0.  1.
         11    1    4    4    0    0 -0.14192249334E+02 -0.56685382021E+01  0.10260083366E+02  0.18407106711E+02  0.51100000000E-03 0. -1.
        -11    1    4    4    0    0 -0.85952612588E+01  0.77269159213E+01  0.11550121283E+02  0.16339799499E+02  0.51100000000E-03 0.  1.
        -12    1    4    4    0    0 -0.14489211490E+02 -0.28054337982E+01 -0.55913061710E+01  0.15781964804E+02  0.00000000000E+00 0.  1.
</event>
<event>
 8    1  0.1615837E-013  0.9118800E+02  0.7816164E-02  0.1184000E+00
        -11   -1    0    0    0    0  0.00000000000E+00  0.00000000000E+00  0.45593999997E+02  0.45594000000E+02  0.51100000000E-03 0. -1.
         11   -1    0    0    0    0 -0.00000000000E+00 -0.00000000000E+00 -0.45593999997E+02  0.45594000000E+02  0.51100000000E-03 0.  1.
         23    2    1    2    0    0 -0.44408920985E-15 -0.17763568394E-14  0.00000000000E+00  0.91188000000E+02  0.91188000000E+02 0.  0.
    9900012    2    3    3    0    0  0.37172114022E+01  0.11794090924E+02 -0.38733020479E+02  0.50528866749E+02  0.30000020970E+02 0.  0.
         12    1    3    3    0    0 -0.37172114022E+01 -0.11794090924E+02  0.38733020479E+02  0.40659133251E+02  0.00000000000E+00 0. -1.
         11    1    4    4    0    0  0.32553918109E+01 -0.37708480096E+00 -0.36194097238E+01  0.48826115758E+01  0.51100000000E-03 0. -1.
        -11    1    4    4    0    0  0.18646036354E+01  0.51340418430E+01 -0.37643519639E+02  0.38037740515E+02  0.51100000000E-03 0.  1.
         12    1    4    4    0    0 -0.14027840442E+01  0.70371338819E+01  0.25299088843E+01  0.76085146585E+01  0.00000000000E+00 0. -1.
</event>
<event>
 8    1  0.1615837E-013  0.9118800E+02  0.7816164E-02  0.1184000E+00
        -11   -1    0    0    0    0  0.00000000000E+00  0.00000000000E+00  0.45593999997E+02  0.45594000000E+02  0.51100000000E-03 0. -1.
         11   -1    0    0    0    0 -0.00000000000E+00 -0.00000000000E+00 -0.45593999997E+02  0.45594000000E+02  0.51100000000E-03 0.  1.
         23    2    1    2    0    0  0.17763568394E-14  0.00000000000E+00  0.00000000000E+00  0.91188000000E+02  0.91188000000E+02 0.  0.
    9900012    2    3    3    0    0 -0.12645275580E+02  0.20094803553E+02 -0.33006990071E+02  0.50528861816E+02  0.30000005976E+02 0.  0.
         12    1    3    3    0    0  0.12645275580E+02 -0.20094803553E+02  0.33006990071E+02  0.40659138184E+02  0.00000000000E+00 0. -1.
         11    1    4    4    0    0 -0.13159840084E+01  0.33169705762E+01 -0.49596274226E+01  0.61099928106E+01  0.51100000000E-03 0. -1.
        -11    1    4    4    0    0  0.80887388165E+01  0.76762053294E+01 -0.16905048914E+02  0.20251728394E+02  0.51100000000E-03 0.  1.
         12    1    4    4    0    0 -0.19418030388E+02  0.91016276475E+01 -0.11142313734E+02  0.24167140612E+02  0.00000000000E+00 0. -1.
</event>
<event>
 8    1  0.1615837E-013  0.9118800E+02  0.7816164E-02  0.1184000E+00
        -11   -1    0    0    0    0  0.00000000000E+00  0.00000000000E+00  0.45593999997E+02  0.45594000000E+02  0.51100000000E-03 0. -1.
         11   -1    0    0    0    0 -0.00000000000E+00 -0.00000000000E+00 -0.45593999997E+02  0.45594000000E+02  0.51100000000E-03 0.  1.
         23    2    1    2    0    0 -0.17763568394E-14  0.00000000000E+00 -0.35527136788E-14  0.91188000000E+02  0.91188000000E+02 0.  0.
    9900012    2    3    3    0    0 -0.12088564795E+02 -0.31586603754E+02  0.22568092240E+02  0.50528859295E+02  0.29999998314E+02 0.  0.
        -12    1    3    3    0    0  0.12088564795E+02  0.31586603754E+02 -0.22568092240E+02  0.40659140705E+02  0.00000000000E+00 0.  1.
         11    1    4    4    0    0 -0.11778988670E+02 -0.11971864896E+02  0.19125245410E+01  0.16903487024E+02  0.51100000000E-03 0.  1.
        -11    1    4    4    0    0 -0.80402873210E+01 -0.15070181029E+02  0.10382066637E+02  0.19988593857E+02  0.51100000000E-03 0. -1.
         12    1    4    4    0    0  0.77307111962E+01 -0.45445578280E+01  0.10273501062E+02  0.13636778414E+02  0.00000000000E+00 0. -1.
</event>
<event>
 8    1  0.1615837E-013  0.9118800E+02  0.7816164E-02  0.1184000E+00
        -11   -1    0    0    0    0  0.00000000000E+00  0.00000000000E+00  0.45593999997E+02  0.45594000000E+02  0.51100000000E-03 0. -1.
         11   -1    0    0    0    0 -0.00000000000E+00 -0.00000000000E+00 -0.45593999997E+02  0.45594000000E+02  0.51100000000E-03 0.  1.
         23    2    1    2    0    0  0.00000000000E+00  0.00000000000E+00  0.71054273576E-14  0.91188000000E+02  0.91188000000E+02 0.  0.
    9900012    2    3    3    0    0  0.14470491673E+02 -0.17679944528E+02  0.33633168909E+02  0.50528860577E+02  0.30000002210E+02 0.  0.
        -12    1    3    3    0    0 -0.14470491673E+02  0.17679944528E+02 -0.33633168909E+02  0.40659139423E+02  0.00000000000E+00 0.  1.
         11    1    4    4    0    0  0.13815908036E+02 -0.18950222443E+01  0.25014410630E+02  0.28638979793E+02  0.51100000000E-03 0. -1.
        -11    1    4    4    0    0  0.74130945198E+00  0.44733498804E+00  0.52379941797E+01  0.53090706892E+01  0.51100000000E-03 0.  1.
        -12    1    4    4    0    0 -0.86725814345E-01 -0.16232257272E+02  0.33807640990E+01  0.16580810095E+02  0.00000000000E+00 0.  1.
</event>
<event>
 8    1  0.1615837E-013  0.9118800E+02  0.7816164E-02  0.1184000E+00
        -11   -1    0    0    0    0  0.00000000000E+00  0.00000000000E+00  0.45593999997E+02  0.45594000000E+02  0.51100000000E-03 0.  1.
         11   -1    0    0    0    0 -0.00000000000E+00 -0.00000000000E+00 -0.45593999997E+02  0.45594000000E+02  0.51100000000E-03 0. -1.
         23    2    1    2    0    0  0.00000000000E+00  0.71054273576E-14 -0.88817841970E-15  0.91188000000E+02  0.91188000000E+02 0.  0.
    9900012    2    3    3    0    0  0.22868054975E+02 -0.32982890930E+02 -0.65074435019E+01  0.50528857691E+02  0.29999993437E+02 0.  0.
         12    1    3    3    0    0 -0.22868054975E+02  0.32982890930E+02  0.65074435019E+01  0.40659142309E+02  0.00000000000E+00 0. -1.
         11    1    4    4    0    0  0.79175504852E+01 -0.16381226391E+02  0.54228387563E+01  0.18985240693E+02  0.51100000000E-03 0. -1.
        -11    1    4    4    0    0  0.22130670661E+01 -0.14596939745E+02 -0.12789896380E+01  0.14819046208E+02  0.51100000000E-03 0.  1.
         12    1    4    4    0    0  0.12737437423E+02 -0.20047247942E+01 -0.10651292620E+02  0.16724570789E+02  0.00000000000E+00 0. -1.
</event>
<event>
 8    1  0.1615837E-013  0.9118800E+02  0.7816164E-02  0.1184000E+00
        -11   -1    0    0    0    0  0.00000000000E+00  0.00000000000E+00  0.45593999997E+02  0.45594000000E+02  0.51100000000E-03 0. -1.
         11   -1    0    0    0    0 -0.00000000000E+00 -0.00000000000E+00 -0.45593999997E+02  0.45594000000E+02  0.51100000000E-03 0.  1.
         23    2    1    2    0    0  0.00000000000E+00  0.00000000000E+00  0.00000000000E+00  0.91188000000E+02  0.91188000000E+02 0.  0.
    9900012    2    3    3    0    0 -0.31656903686E+02 -0.10310464439E+02 -0.23338804267E+02  0.50528868030E+02  0.30000024864E+02 0.  0.
         12    1    3    3    0    0  0.31656903686E+02  0.10310464439E+02  0.23338804267E+02  0.40659131970E+02  0.00000000000E+00 0. -1.
         11    1    4    4    0    0 -0.38884246108E+00 -0.73235727047E+01 -0.33145383076E+01  0.80481103418E+01  0.51100000000E-03 0.  1.
        -11    1    4    4    0    0  0.15060895083E+01  0.40946639373E+00 -0.67992615518E+01  0.69760967772E+01  0.51100000000E-03 0. -1.
        -12    1    4    4    0    0 -0.32774150733E+02 -0.33963581278E+01 -0.13225004407E+02  0.35504660911E+02  0.00000000000E+00 0.  1.
</event>
<event>
 8    1  0.1615837E-013  0.9118800E+02  0.7816164E-02  0.1184000E+00
        -11   -1    0    0    0    0  0.00000000000E+00  0.00000000000E+00  0.45593999997E+02  0.45594000000E+02  0.51100000000E-03 0. -1.
         11   -1    0    0    0    0 -0.00000000000E+00 -0.00000000000E+00 -0.45593999997E+02  0.45594000000E+02  0.51100000000E-03 0.  1.
         23    2    1    2    0    0  0.00000000000E+00  0.00000000000E+00  0.71054273576E-14  0.91188000000E+02  0.91188000000E+02 0.  0.
    9900012    2    3    3    0    0  0.65071976291E+01 -0.16142398032E+02  0.36745688089E+02  0.50528853079E+02  0.29999979418E+02 0.  0.
        -12    1    3    3    0    0 -0.65071976291E+01  0.16142398032E+02 -0.36745688089E+02  0.40659146921E+02  0.00000000000E+00 0.  1.
         11    1    4    4    0    0  0.31796815507E+01  0.69190688180E+00  0.15937994158E+02  0.16266799560E+02  0.51100000000E-03 0. -1.
        -11    1    4    4    0    0  0.91013180910E+01 -0.64644353526E+01  0.19302350842E+02  0.22298064125E+02  0.51100000000E-03 0.  1.
        -12    1    4    4    0    0 -0.57738020126E+01 -0.10369869562E+02  0.15053430895E+01  0.11963989394E+02  0.00000000000E+00 0.  1.
</event>
<event>
 8    1  0.1615837E-013  0.9118800E+02  0.7816164E-02  0.1184000E+00
        -11   -1    0    0    0    0  0.00000000000E+00  0.00000000000E+00  0.45593999997E+02  0.45594000000E+02  0.51100000000E-03 0. -1.
         11   -1    0    0    0    0 -0.00000000000E+00 -0.00000000000E+00 -0.45593999997E+02  0.45594000000E+02  0.51100000000E-03 0.  1.
         23    2    1    2    0    0  0.00000000000E+00  0.00000000000E+00  0.00000000000E+00  0.91188000000E+02  0.91188000000E+02 0.  0.
    9900012    2    3    3    0    0  0.20200255757E+02  0.24995983036E+02 -0.24906107487E+02  0.50528884285E+02  0.30000074273E+02 0.  0.
         12    1    3    3    0    0 -0.20200255757E+02 -0.24995983036E+02  0.24906107487E+02  0.40659115715E+02  0.00000000000E+00 0. -1.
         11    1    4    4    0    0 -0.27866880586E+01  0.65050537704E+01 -0.78151100180E+01  0.10543116226E+02  0.51100000000E-03 0. -1.
        -11    1    4    4    0    0  0.60188352549E+00 -0.20296629443E+01 -0.80166297326E+01  0.82914502939E+01  0.51100000000E-03 0.  1.
         12    1    4    4    0    0  0.22385060290E+02  0.20520592210E+02 -0.90743677366E+01  0.31694317766E+02  0.00000000000E+00 0. -1.
</event>
<event>
 8    1  0.1615837E-013  0.9118800E+02  0.7816164E-02  0.1184000E+00
        -11   -1    0    0    0    0  0.00000000000E+00  0.00000000000E+00  0.45593999997E+02  0.45594000000E+02  0.51100000000E-03 0. -1.
         11   -1    0    0    0    0 -0.00000000000E+00 -0.00000000000E+00 -0.45593999997E+02  0.45594000000E+02  0.51100000000E-03 0.  1.
         23    2    1    2    0    0  0.00000000000E+00  0.00000000000E+00  0.00000000000E+00  0.91188000000E+02  0.91188000000E+02 0.  0.
    9900012    2    3    3    0    0  0.29494718085E+02 -0.70845458947E+01  0.27074645695E+02  0.50528860499E+02  0.30000001973E+02 0.  0.
        -12    1    3    3    0    0 -0.29494718085E+02  0.70845458947E+01 -0.27074645695E+02  0.40659139501E+02  0.00000000000E+00 0.  1.
         11    1    4    4    0    0  0.33899208221E+01  0.10283472909E+01 -0.29159396963E+01  0.45882203417E+01  0.51100000000E-03 0. -1.
        -11    1    4    4    0    0  0.45627430551E+01 -0.10985704662E+02  0.16570866033E+02  0.20398478680E+02  0.51100000000E-03 0.  1.
        -12    1    4    4    0    0  0.21542054208E+02  0.28728114768E+01  0.13419719359E+02  0.25542161478E+02  0.00000000000E+00 0.  1.
</event>
<event>
 8    1  0.1615837E-013  0.9118800E+02  0.7816164E-02  0.1184000E+00
        -11   -1    0    0    0    0  0.00000000000E+00  0.00000000000E+00  0.45593999997E+02  0.45594000000E+02  0.51100000000E-03 0. -1.
         11   -1    0    0    0    0 -0.00000000000E+00 -0.00000000000E+00 -0.45593999997E+02  0.45594000000E+02  0.51100000000E-03 0.  1.
         23    2    1    2    0    0  0.00000000000E+00  0.17763568394E-14  0.00000000000E+00  0.91188000000E+02  0.91188000000E+02 0.  0.
    9900012    2    3    3    0    0  0.36529123940E+02  0.15772730452E+02  0.83671346176E+01  0.50528869864E+02  0.30000030437E+02 0.  0.
        -12    1    3    3    0    0 -0.36529123940E+02 -0.15772730452E+02 -0.83671346176E+01  0.40659130136E+02  0.00000000000E+00 0.  1.
         11    1    4    4    0    0  0.19471798311E+01 -0.41753857521E+01  0.50257029586E+01  0.68178476049E+01  0.51100000000E-03 0. -1.
        -11    1    4    4    0    0  0.63878634070E+01  0.12555985579E+02  0.36867996165E+01  0.14561938897E+02  0.51100000000E-03 0.  1.
        -12    1    4    4    0    0  0.28194080702E+02  0.73921306251E+01 -0.34536795751E+00  0.29149083362E+02  0.00000000000E+00 0.  1.
</event>
<event>
 8    1  0.1615837E-013  0.9118800E+02  0.7816164E-02  0.1184000E+00
        -11   -1    0    0    0    0  0.00000000000E+00  0.00000000000E+00  0.45593999997E+02  0.45594000000E+02  0.51100000000E-03 0. -1.
         11   -1    0    0    0    0 -0.00000000000E+00 -0.00000000000E+00 -0.45593999997E+02  0.45594000000E+02  0.51100000000E-03 0.  1.
         23    2    1    2    0    0  0.88817841970E-15  0.66613381478E-15 -0.71054273576E-14  0.91188000000E+02  0.91188000000E+02 0.  0.
    9900012    2    3    3    0    0  0.57068802694E+01 -0.10826413994E+01  0.40242088871E+02  0.50528852056E+02  0.29999976311E+02 0.  0.
        -12    1    3    3    0    0 -0.57068802694E+01  0.10826413994E+01 -0.40242088871E+02  0.40659147944E+02  0.00000000000E+00 0.  1.
         11    1    4    4    0    0  0.36519451014E+01  0.91064074442E+00 -0.19845628989E+01  0.42549335776E+01  0.51100000000E-03 0. -1.
        -11    1    4    4    0    0  0.93513792049E+01 -0.54791132557E+01  0.24432533839E+02  0.26728593026E+02  0.51100000000E-03 0.  1.
         12    1    4    4    0    0 -0.72964440369E+01  0.34858311119E+01  0.17794117931E+02  0.19545325453E+02  0.00000000000E+00 0. -1.
</event>
<event>
 8    1  0.1615837E-013  0.9118800E+02  0.7816164E-02  0.1184000E+00
        -11   -1    0    0    0    0  0.00000000000E+00  0.00000000000E+00  0.45593999997E+02  0.45594000000E+02  0.51100000000E-03 0. -1.
         11   -1    0    0    0    0 -0.00000000000E+00 -0.00000000000E+00 -0.45593999997E+02  0.45594000000E+02  0.51100000000E-03 0.  1.
         23    2    1    2    0    0  0.00000000000E+00  0.00000000000E+00  0.00000000000E+00  0.91188000000E+02  0.91188000000E+02 0.  0.
    9900012    2    3    3    0    0 -0.23717501575E+02 -0.45118751426E+01  0.32715266305E+02  0.50528861449E+02  0.30000004861E+02 0.  0.
        -12    1    3    3    0    0  0.23717501575E+02  0.45118751426E+01 -0.32715266305E+02  0.40659138551E+02  0.00000000000E+00 0.  1.
         11    1    4    4    0    0 -0.40997543399E+01 -0.92745617827E+00  0.11376300648E+02  0.12127999724E+02  0.51100000000E-03 0. -1.
        -11    1    4    4    0    0 -0.97032056173E+00 -0.84794004018E+01 -0.13350196455E+01  0.86385201789E+01  0.51100000000E-03 0.  1.
         12    1    4    4    0    0 -0.18647426673E+02  0.48949814375E+01  0.22673985303E+02  0.29762341546E+02  0.00000000000E+00 0. -1.
</event>
<event>
 8    1  0.1615837E-013  0.9118800E+02  0.7816164E-02  0.1184000E+00
        -11   -1    0    0    0    0  0.00000000000E+00  0.00000000000E+00  0.45593999997E+02  0.45594000000E+02  0.51100000000E-03 0. -1.
         11   -1    0    0    0    0 -0.00000000000E+00 -0.00000000000E+00 -0.45593999997E+02  0.45594000000E+02  0.51100000000E-03 0.  1.
         23    2    1    2    0    0 -0.44408920985E-15 -0.17763568394E-14  0.00000000000E+00  0.91188000000E+02  0.91188000000E+02 0.  0.
    9900012    2    3    3    0    0 -0.36327849394E+01  0.14505025355E+02  0.37809705164E+02  0.50528847382E+02  0.29999962103E+02 0.  0.
        -12    1    3    3    0    0  0.36327849394E+01 -0.14505025355E+02 -0.37809705164E+02  0.40659152618E+02  0.00000000000E+00 0.  1.
         11    1    4    4    0    0  0.25496244185E+01 -0.48571072075E+01  0.18636820458E+02  0.19427381506E+02  0.51100000000E-03 0. -1.
        -11    1    4    4    0    0 -0.63795360032E+01  0.15506157733E+01  0.38902236014E+01  0.76312992879E+01  0.51100000000E-03 0.  1.
         12    1    4    4    0    0  0.19712664531E+00  0.17811516790E+02  0.15282661105E+02  0.23470166589E+02  0.00000000000E+00 0. -1.
</event>
<event>
 8    1  0.1615837E-013  0.9118800E+02  0.7816164E-02  0.1184000E+00
        -11   -1    0    0    0    0  0.00000000000E+00  0.00000000000E+00  0.45593999997E+02  0.45594000000E+02  0.51100000000E-03 0. -1.
         11   -1    0    0    0    0 -0.00000000000E+00 -0.00000000000E+00 -0.45593999997E+02  0.45594000000E+02  0.51100000000E-03 0.  1.
         23    2    1    2    0    0 -0.26645352591E-14 -0.71054273576E-14  0.00000000000E+00  0.91188000000E+02  0.91188000000E+02 0.  0.
    9900012    2    3    3    0    0  0.50603017667E+01 -0.35839716956E+02  0.18522250148E+02  0.50528859379E+02  0.29999998569E+02 0.  0.
        -12    1    3    3    0    0 -0.50603017667E+01  0.35839716956E+02 -0.18522250148E+02  0.40659140621E+02  0.00000000000E+00 0.  1.
         11    1    4    4    0    0 -0.68951387585E+01 -0.42181279257E+01  0.85294829247E+01  0.11751068927E+02  0.51100000000E-03 0. -1.
        -11    1    4    4    0    0 -0.32232377667E+01 -0.81314999734E+01  0.58063555674E+01  0.10498777012E+02  0.51100000000E-03 0.  1.
        -12    1    4    4    0    0  0.15178678292E+02 -0.23490089057E+02  0.41864116562E+01  0.28279013440E+02  0.00000000000E+00 0.  1.
</event>
<event>
 8    1  0.1615837E-013  0.9118800E+02  0.7816164E-02  0.1184000E+00
        -11   -1    0    0    0    0  0.00000000000E+00  0.00000000000E+00  0.45593999997E+02  0.45594000000E+02  0.51100000000E-03 0. -1.
         11   -1    0    0    0    0 -0.00000000000E+00 -0.00000000000E+00 -0.45593999997E+02  0.45594000000E+02  0.51100000000E-03 0.  1.
         23    2    1    2    0    0 -0.37470027081E-15  0.00000000000E+00  0.00000000000E+00  0.91188000000E+02  0.91188000000E+02 0.  0.
    9900012    2    3    3    0    0 -0.64095622156E-01 -0.37727679955E+02 -0.15158623118E+02  0.50528858373E+02  0.29999995510E+02 0.  0.
         12    1    3    3    0    0  0.64095622156E-01  0.37727679955E+02  0.15158623118E+02  0.40659141627E+02  0.00000000000E+00 0. -1.
         11    1    4    4    0    0  0.42370889959E+01 -0.11954565366E+00  0.41583636240E+01  0.59379459928E+01  0.51100000000E-03 0. -1.
        -11    1    4    4    0    0  0.44434585679E+01 -0.13937911937E+02 -0.98669188619E+01  0.17645560385E+02  0.51100000000E-03 0.  1.
        -12    1    4    4    0    0 -0.87446431860E+01 -0.23670222364E+02 -0.94500678797E+01  0.26945351995E+02  0.00000000000E+00 0.  1.
</event>
<event>
 8    1  0.1615837E-013  0.9118800E+02  0.7816164E-02  0.1184000E+00
        -11   -1    0    0    0    0  0.00000000000E+00  0.00000000000E+00  0.45593999997E+02  0.45594000000E+02  0.51100000000E-03 0. -1.
         11   -1    0    0    0    0 -0.00000000000E+00 -0.00000000000E+00 -0.45593999997E+02  0.45594000000E+02  0.51100000000E-03 0.  1.
         23    2    1    2    0    0 -0.88817841970E-15 -0.35527136788E-14  0.00000000000E+00  0.91188000000E+02  0.91188000000E+02 0.  0.
    9900012    2    3    3    0    0 -0.38908393895E+01 -0.24722556021E+02 -0.32044068105E+02  0.50528859476E+02  0.29999998864E+02 0.  0.
         12    1    3    3    0    0  0.38908393895E+01  0.24722556021E+02  0.32044068105E+02  0.40659140524E+02  0.00000000000E+00 0. -1.
         11    1    4    4    0    0 -0.85075596362E+01 -0.14934765172E+02 -0.20137889082E+02  0.26475655962E+02  0.51100000000E-03 0.  1.
        -11    1    4    4    0    0 -0.55581511530E+01  0.78504408683E+00 -0.84269515332E+00  0.56762200310E+01  0.51100000000E-03 0. -1.
         12    1    4    4    0    0  0.10174871400E+02 -0.10572834936E+02 -0.11063483870E+02  0.18376983483E+02  0.00000000000E+00 0. -1.
</event>
<event>
 8    1  0.1615837E-013  0.9118800E+02  0.7816164E-02  0.1184000E+00
        -11   -1    0    0    0    0  0.00000000000E+00  0.00000000000E+00  0.45593999997E+02  0.45594000000E+02  0.51100000000E-03 0. -1.
         11   -1    0    0    0    0 -0.00000000000E+00 -0.00000000000E+00 -0.45593999997E+02  0.45594000000E+02  0.51100000000E-03 0.  1.
         23    2    1    2    0    0  0.00000000000E+00 -0.11102230246E-14  0.00000000000E+00  0.91188000000E+02  0.91188000000E+02 0.  0.
    9900012    2    3    3    0    0  0.35656867737E+02  0.10584780163E+01  0.19509809395E+02  0.50528865047E+02  0.30000015797E+02 0.  0.
        -12    1    3    3    0    0 -0.35656867737E+02 -0.10584780163E+01 -0.19509809395E+02  0.40659134953E+02  0.00000000000E+00 0.  1.
         11    1    4    4    0    0  0.12571470248E+02  0.25915593396E+01  0.42525231391E+01  0.13521908050E+02  0.51100000000E-03 0. -1.
        -11    1    4    4    0    0  0.22687849823E+02  0.77281575515E+01  0.81139126699E+01  0.25304120767E+02  0.51100000000E-03 0.  1.
        -12    1    4    4    0    0  0.39754766610E+00 -0.92612388748E+01  0.71433735859E+01  0.11702836230E+02  0.00000000000E+00 0.  1.
</event>
<event>
 8    1  0.1615837E-013  0.9118800E+02  0.7816164E-02  0.1184000E+00
        -11   -1    0    0    0    0  0.00000000000E+00  0.00000000000E+00  0.45593999997E+02  0.45594000000E+02  0.51100000000E-03 0. -1.
         11   -1    0    0    0    0 -0.00000000000E+00 -0.00000000000E+00 -0.45593999997E+02  0.45594000000E+02  0.51100000000E-03 0.  1.
         23    2    1    2    0    0  0.17763568394E-14  0.00000000000E+00  0.00000000000E+00  0.91188000000E+02  0.91188000000E+02 0.  0.
    9900012    2    3    3    0    0  0.15430385497E+02  0.32766339784E+02  0.18477977831E+02  0.50528862231E+02  0.30000007236E+02 0.  0.
        -12    1    3    3    0    0 -0.15430385497E+02 -0.32766339784E+02 -0.18477977831E+02  0.40659137769E+02  0.00000000000E+00 0.  1.
         11    1    4    4    0    0 -0.41357945218E+01  0.22063012796E+01 -0.38021881946E+01  0.60356604436E+01  0.51100000000E-03 0. -1.
        -11    1    4    4    0    0  0.78241787421E+01  0.28919599500E+01  0.62948033473E+01  0.10450155730E+02  0.51100000000E-03 0.  1.
         12    1    4    4    0    0  0.11742001277E+02  0.27668078554E+02  0.15985362678E+02  0.34043046057E+02  0.00000000000E+00 0. -1.
</event>
<event>
 8    1  0.1615837E-013  0.9118800E+02  0.7816164E-02  0.1184000E+00
        -11   -1    0    0    0    0  0.00000000000E+00  0.00000000000E+00  0.45593999997E+02  0.45594000000E+02  0.51100000000E-03 0. -1.
         11   -1    0    0    0    0 -0.00000000000E+00 -0.00000000000E+00 -0.45593999997E+02  0.45594000000E+02  0.51100000000E-03 0.  1.
         23    2    1    2    0    0  0.00000000000E+00  0.00000000000E+00 -0.71054273576E-14  0.91188000000E+02  0.91188000000E+02 0.  0.
    9900012    2    3    3    0    0 -0.77601379189E+01  0.56268890389E+01 -0.39513092624E+02  0.50528854541E+02  0.29999983861E+02 0.  0.
         12    1    3    3    0    0  0.77601379189E+01 -0.56268890389E+01  0.39513092624E+02  0.40659145459E+02  0.00000000000E+00 0. -1.
         11    1    4    4    0    0 -0.21451021113E+01 -0.65446673087E+01 -0.49459563842E+01  0.84791873470E+01  0.51100000000E-03 0. -1.
        -11    1    4    4    0    0  0.52014774973E+01  0.38152963566E+01 -0.23774256309E+02  0.24633861202E+02  0.51100000000E-03 0.  1.
         12    1    4    4    0    0 -0.10816513305E+02  0.83562599910E+01 -0.10792879931E+02  0.17415805991E+02  0.00000000000E+00 0. -1.
</event>
<event>
 8    1  0.1615837E-013  0.9118800E+02  0.7816164E-02  0.1184000E+00
        -11   -1    0    0    0    0  0.00000000000E+00  0.00000000000E+00  0.45593999997E+02  0.45594000000E+02  0.51100000000E-03 0. -1.
         11   -1    0    0    0    0 -0.00000000000E+00 -0.00000000000E+00 -0.45593999997E+02  0.45594000000E+02  0.51100000000E-03 0.  1.
         23    2    1    2    0    0  0.35527136788E-14  0.00000000000E+00  0.35527136788E-14  0.91188000000E+02  0.91188000000E+02 0.  0.
    9900012    2    3    3    0    0  0.23214868027E+02 -0.23629204941E+02 -0.23577445540E+02  0.50528863735E+02  0.30000011809E+02 0.  0.
         12    1    3    3    0    0 -0.23214868027E+02  0.23629204941E+02  0.23577445540E+02  0.40659136265E+02  0.00000000000E+00 0. -1.
         11    1    4    4    0    0  0.91305468280E+01 -0.32898249684E+00 -0.14856267791E+02  0.17440866028E+02  0.51100000000E-03 0. -1.
        -11    1    4    4    0    0  0.89836569552E+01 -0.10610133507E+01 -0.33601576522E+01  0.96500000688E+01  0.51100000000E-03 0.  1.
         12    1    4    4    0    0  0.51006642436E+01 -0.22239209093E+02 -0.53610200965E+01  0.23437997638E+02  0.00000000000E+00 0. -1.
</event>
<event>
 8    1  0.1615837E-013  0.9118800E+02  0.7816164E-02  0.1184000E+00
        -11   -1    0    0    0    0  0.00000000000E+00  0.00000000000E+00  0.45593999997E+02  0.45594000000E+02  0.51100000000E-03 0. -1.
         11   -1    0    0    0    0 -0.00000000000E+00 -0.00000000000E+00 -0.45593999997E+02  0.45594000000E+02  0.51100000000E-03 0.  1.
         23    2    1    2    0    0 -0.35527136788E-14  0.17763568394E-14  0.00000000000E+00  0.91188000000E+02  0.91188000000E+02 0.  0.
    9900012    2    3    3    0    0  0.23719834706E+02  0.10153384465E+02  0.31423618712E+02  0.50528860959E+02  0.30000003371E+02 0.  0.
        -12    1    3    3    0    0 -0.23719834706E+02 -0.10153384465E+02 -0.31423618712E+02  0.40659139041E+02  0.00000000000E+00 0.  1.
         11    1    4    4    0    0 -0.16949571907E+01  0.22510443873E+00  0.16048225570E+01  0.23449962873E+01  0.51100000000E-03 0. -1.
        -11    1    4    4    0    0 -0.29692943679E+01  0.89057033948E+01  0.85887244002E+01  0.12723774954E+02  0.51100000000E-03 0.  1.
        -12    1    4    4    0    0  0.28384086265E+02  0.10225766313E+01  0.21230071755E+02  0.35460089718E+02  0.00000000000E+00 0.  1.
</event>
<event>
 8    1  0.1615837E-013  0.9118800E+02  0.7816164E-02  0.1184000E+00
        -11   -1    0    0    0    0  0.00000000000E+00  0.00000000000E+00  0.45593999997E+02  0.45594000000E+02  0.51100000000E-03 0.  1.
         11   -1    0    0    0    0 -0.00000000000E+00 -0.00000000000E+00 -0.45593999997E+02  0.45594000000E+02  0.51100000000E-03 0. -1.
         23    2    1    2    0    0  0.35527136788E-14  0.00000000000E+00  0.00000000000E+00  0.91188000000E+02  0.91188000000E+02 0.  0.
    9900012    2    3    3    0    0 -0.30229038483E+02  0.11085004977E+02  0.24829183616E+02  0.50528923990E+02  0.30000194959E+02 0.  0.
        -12    1    3    3    0    0  0.30229038483E+02 -0.11085004977E+02 -0.24829183616E+02  0.40659076010E+02  0.00000000000E+00 0.  1.
         11    1    4    4    0    0 -0.19208870665E+02 -0.12510903513E+01  0.76998781142E+01  0.20732439860E+02  0.51100000000E-03 0.  1.
        -11    1    4    4    0    0 -0.92032136660E+01 -0.23311275838E+01  0.80802803446E+01  0.12466925375E+02  0.51100000000E-03 0. -1.
         12    1    4    4    0    0 -0.18169541513E+01  0.14667222913E+02  0.90490251575E+01  0.17329558755E+02  0.00000000000E+00 0. -1.
</event>
<event>
 8    1  0.1615837E-013  0.9118800E+02  0.7816164E-02  0.1184000E+00
        -11   -1    0    0    0    0  0.00000000000E+00  0.00000000000E+00  0.45593999997E+02  0.45594000000E+02  0.51100000000E-03 0. -1.
         11   -1    0    0    0    0 -0.00000000000E+00 -0.00000000000E+00 -0.45593999997E+02  0.45594000000E+02  0.51100000000E-03 0.  1.
         23    2    1    2    0    0  0.00000000000E+00  0.17763568394E-14  0.00000000000E+00  0.91188000000E+02  0.91188000000E+02 0.  0.
    9900012    2    3    3    0    0 -0.21643792015E+02  0.75194718756E+01  0.33588239816E+02  0.50528855346E+02  0.29999986309E+02 0.  0.
        -12    1    3    3    0    0  0.21643792015E+02 -0.75194718756E+01 -0.33588239816E+02  0.40659144654E+02  0.00000000000E+00 0.  1.
         11    1    4    4    0    0  0.19903272757E+01  0.23738442042E+00  0.11383649208E+01  0.23051310117E+01  0.51100000000E-03 0.  1.
        -11    1    4    4    0    0  0.43020110647E+01 -0.12268071831E+01 -0.12465547713E+00  0.44752535475E+01  0.51100000000E-03 0. -1.
         12    1    4    4    0    0 -0.27936130356E+02  0.85088946383E+01  0.32574530372E+02  0.43748470787E+02  0.00000000000E+00 0. -1.
</event>
<event>
 8    1  0.1615837E-013  0.9118800E+02  0.7816164E-02  0.1184000E+00
        -11   -1    0    0    0    0  0.00000000000E+00  0.00000000000E+00  0.45593999997E+02  0.45594000000E+02  0.51100000000E-03 0. -1.
         11   -1    0    0    0    0 -0.00000000000E+00 -0.00000000000E+00 -0.45593999997E+02  0.45594000000E+02  0.51100000000E-03 0.  1.
         23    2    1    2    0    0  0.00000000000E+00  0.00000000000E+00  0.71054273576E-14  0.91188000000E+02  0.91188000000E+02 0.  0.
    9900012    2    3    3    0    0  0.21356030058E+02 -0.17111590829E+02  0.30071224766E+02  0.50528866715E+02  0.30000020868E+02 0.  0.
        -12    1    3    3    0    0 -0.21356030058E+02  0.17111590829E+02 -0.30071224766E+02  0.40659133285E+02  0.00000000000E+00 0.  1.
         11    1    4    4    0    0  0.32840233145E+01 -0.27115418210E+01  0.12173540191E+02  0.12896989929E+02  0.51100000000E-03 0. -1.
        -11    1    4    4    0    0  0.86482373199E+01 -0.19735191642E+02  0.15493587224E+02  0.26539047519E+02  0.51100000000E-03 0.  1.
         12    1    4    4    0    0  0.94237694235E+01  0.53351426343E+01  0.24040973507E+01  0.11092829267E+02  0.00000000000E+00 0. -1.
</event>
<event>
 8    1  0.1615837E-013  0.9118800E+02  0.7816164E-02  0.1184000E+00
        -11   -1    0    0    0    0  0.00000000000E+00  0.00000000000E+00  0.45593999997E+02  0.45594000000E+02  0.51100000000E-03 0.  1.
         11   -1    0    0    0    0 -0.00000000000E+00 -0.00000000000E+00 -0.45593999997E+02  0.45594000000E+02  0.51100000000E-03 0. -1.
         23    2    1    2    0    0 -0.35527136788E-14  0.00000000000E+00  0.00000000000E+00  0.91188000000E+02  0.91188000000E+02 0.  0.
    9900012    2    3    3    0    0 -0.22053363016E+02  0.27617703441E+02  0.20101686425E+02  0.50528853910E+02  0.29999981944E+02 0.  0.
        -12    1    3    3    0    0  0.22053363016E+02 -0.27617703441E+02 -0.20101686425E+02  0.40659146090E+02  0.00000000000E+00 0.  1.
         11    1    4    4    0    0  0.40772688617E+01  0.92911115787E+01 -0.32871750103E+01  0.10665570568E+02  0.51100000000E-03 0. -1.
        -11    1    4    4    0    0 -0.20002342995E+00  0.11722320760E+01  0.83435935208E+00  0.14526848254E+01  0.51100000000E-03 0.  1.
        -12    1    4    4    0    0 -0.25930608448E+02  0.17154359786E+02  0.22554502083E+02  0.38410598516E+02  0.00000000000E+00 0.  1.
</event>
<event>
 8    1  0.1615837E-013  0.9118800E+02  0.7816164E-02  0.1184000E+00
        -11   -1    0    0    0    0  0.00000000000E+00  0.00000000000E+00  0.45593999997E+02  0.45594000000E+02  0.51100000000E-03 0. -1.
         11   -1    0    0    0    0 -0.00000000000E+00 -0.00000000000E+00 -0.45593999997E+02  0.45594000000E+02  0.51100000000E-03 0.  1.
         23    2    1    2    0    0 -0.17763568394E-14  0.10658141036E-13  0.71054273576E-14  0.91188000000E+02  0.91188000000E+02 0.  0.
    9900012    2    3    3    0    0 -0.67109079176E+01  0.29625155357E+02  0.27027382186E+02  0.50528862001E+02  0.30000006537E+02 0.  0.
        -12    1    3    3    0    0  0.67109079176E+01 -0.29625155357E+02 -0.27027382186E+02  0.40659137999E+02  0.00000000000E+00 0.  1.
         11    1    4    4    0    0 -0.86079621169E+01  0.18685119930E+02  0.53833102115E+01  0.21265247417E+02  0.51100000000E-03 0. -1.
        -11    1    4    4    0    0 -0.10831637464E+01  0.14787488317E+02  0.16154304997E+02  0.21927257572E+02  0.51100000000E-03 0.  1.
        -12    1    4    4    0    0  0.29802179458E+01 -0.38474528895E+01  0.54897669775E+01  0.73363570121E+01  0.00000000000E+00 0.  1.
</event>
<event>
 8    1  0.1615837E-013  0.9118800E+02  0.7816164E-02  0.1184000E+00
        -11   -1    0    0    0    0  0.00000000000E+00  0.00000000000E+00  0.45593999997E+02  0.45594000000E+02  0.51100000000E-03 0. -1.
         11   -1    0    0    0    0 -0.00000000000E+00 -0.00000000000E+00 -0.45593999997E+02  0.45594000000E+02  0.51100000000E-03 0.  1.
         23    2    1    2    0    0  0.00000000000E+00  0.00000000000E+00  0.00000000000E+00  0.91188000000E+02  0.91188000000E+02 0.  0.
    9900012    2    3    3    0    0  0.11018016932E+02 -0.12538885558E+02  0.37074863226E+02  0.50528857960E+02  0.29999994256E+02 0.  0.
        -12    1    3    3    0    0 -0.11018016932E+02  0.12538885558E+02 -0.37074863226E+02  0.40659142040E+02  0.00000000000E+00 0.  1.
         11    1    4    4    0    0  0.72913048319E+01 -0.65285982354E+01  0.38609792185E+02  0.39830914801E+02  0.51100000000E-03 0. -1.
        -11    1    4    4    0    0  0.14500022139E+01  0.18751350848E+01 -0.53245828359E+00  0.24294341093E+01  0.51100000000E-03 0.  1.
        -12    1    4    4    0    0  0.22767098866E+01 -0.78854224078E+01 -0.10024706751E+01  0.82685090501E+01  0.00000000000E+00 0.  1.
</event>
<event>
 8    1  0.1615837E-013  0.9118800E+02  0.7816164E-02  0.1184000E+00
        -11   -1    0    0    0    0  0.00000000000E+00  0.00000000000E+00  0.45593999997E+02  0.45594000000E+02  0.51100000000E-03 0. -1.
         11   -1    0    0    0    0 -0.00000000000E+00 -0.00000000000E+00 -0.45593999997E+02  0.45594000000E+02  0.51100000000E-03 0.  1.
         23    2    1    2    0    0  0.00000000000E+00  0.00000000000E+00 -0.35527136788E-14  0.91188000000E+02  0.91188000000E+02 0.  0.
    9900012    2    3    3    0    0 -0.22185096119E+02 -0.20485893689E+02  0.27227115791E+02  0.50528853866E+02  0.29999981811E+02 0.  0.
        -12    1    3    3    0    0  0.22185096119E+02  0.20485893689E+02 -0.27227115791E+02  0.40659146134E+02  0.00000000000E+00 0.  1.
         11    1    4    4    0    0 -0.60147533429E+01 -0.64677671659E+01  0.22868104652E+02  0.24514474919E+02  0.51100000000E-03 0. -1.
        -11    1    4    4    0    0 -0.46323555018E+01 -0.86889046554E+01  0.81172268963E+01  0.12761079670E+02  0.51100000000E-03 0.  1.
        -12    1    4    4    0    0 -0.11537987274E+02 -0.53292218675E+01 -0.37582157572E+01  0.13253299277E+02  0.00000000000E+00 0.  1.
</event>
<event>
 8    1  0.1615837E-013  0.9118800E+02  0.7816164E-02  0.1184000E+00
        -11   -1    0    0    0    0  0.00000000000E+00  0.00000000000E+00  0.45593999997E+02  0.45594000000E+02  0.51100000000E-03 0. -1.
         11   -1    0    0    0    0 -0.00000000000E+00 -0.00000000000E+00 -0.45593999997E+02  0.45594000000E+02  0.51100000000E-03 0.  1.
         23    2    1    2    0    0  0.44408920985E-15  0.00000000000E+00  0.00000000000E+00  0.91188000000E+02  0.91188000000E+02 0.  0.
    9900012    2    3    3    0    0  0.22129418885E+01  0.40342510621E+02  0.45552433354E+01  0.50528861828E+02  0.30000006014E+02 0.  0.
        -12    1    3    3    0    0 -0.22129418885E+01 -0.40342510621E+02 -0.45552433354E+01  0.40659138172E+02  0.00000000000E+00 0.  1.
         11    1    4    4    0    0 -0.17964659866E+01  0.79013200055E+01 -0.42902543673E+01  0.91686656972E+01  0.51100000000E-03 0.  1.
        -11    1    4    4    0    0  0.10334884510E+02  0.28805630461E+02  0.96179714791E+00  0.30618609343E+02  0.51100000000E-03 0. -1.
         12    1    4    4    0    0 -0.63254766346E+01  0.36355601545E+01  0.78837005548E+01  0.10741586788E+02  0.00000000000E+00 0. -1.
</event>
<event>
 8    1  0.1615837E-013  0.9118800E+02  0.7816164E-02  0.1184000E+00
        -11   -1    0    0    0    0  0.00000000000E+00  0.00000000000E+00  0.45593999997E+02  0.45594000000E+02  0.51100000000E-03 0. -1.
         11   -1    0    0    0    0 -0.00000000000E+00 -0.00000000000E+00 -0.45593999997E+02  0.45594000000E+02  0.51100000000E-03 0.  1.
         23    2    1    2    0    0  0.44408920985E-15  0.00000000000E+00  0.35527136788E-14  0.91188000000E+02  0.91188000000E+02 0.  0.
    9900012    2    3    3    0    0  0.82728060705E-01 -0.27798673265E+02  0.29671395001E+02  0.50528871129E+02  0.30000034284E+02 0.  0.
        -12    1    3    3    0    0 -0.82728060705E-01  0.27798673265E+02 -0.29671395001E+02  0.40659128871E+02  0.00000000000E+00 0.  1.
         11    1    4    4    0    0  0.29698358763E+01  0.48199125792E+01  0.21335306398E+01  0.60500773264E+01  0.51100000000E-03 0. -1.
        -11    1    4    4    0    0  0.12565269927E+01 -0.46089459925E+00 -0.67513430100E+00  0.14990298531E+01  0.51100000000E-03 0.  1.
        -12    1    4    4    0    0 -0.41436348083E+01 -0.32157691245E+02  0.28212998663E+02  0.42979763950E+02  0.00000000000E+00 0.  1.
</event>
<event>
 8    1  0.1615837E-013  0.9118800E+02  0.7816164E-02  0.1184000E+00
        -11   -1    0    0    0    0  0.00000000000E+00  0.00000000000E+00  0.45593999997E+02  0.45594000000E+02  0.51100000000E-03 0.  1.
         11   -1    0    0    0    0 -0.00000000000E+00 -0.00000000000E+00 -0.45593999997E+02  0.45594000000E+02  0.51100000000E-03 0. -1.
         23    2    1    2    0    0  0.00000000000E+00 -0.35527136788E-14 -0.35527136788E-14  0.91188000000E+02  0.91188000000E+02 0.  0.
    9900012    2    3    3    0    0  0.13091072868E+02 -0.31269830578E+02 -0.22449667792E+02  0.50528854938E+02  0.29999985069E+02 0.  0.
         12    1    3    3    0    0 -0.13091072868E+02  0.31269830578E+02  0.22449667792E+02  0.40659145062E+02  0.00000000000E+00 0. -1.
         11    1    4    4    0    0  0.28256280715E+01 -0.11988097398E+01 -0.66900125766E+01  0.73605425973E+01  0.51100000000E-03 0. -1.
        -11    1    4    4    0    0  0.69220695193E+01 -0.46544467919E+01  0.53926748635E+01  0.99327671780E+01  0.51100000000E-03 0.  1.
        -12    1    4    4    0    0  0.33433752774E+01 -0.25416574046E+02 -0.21152330079E+02  0.33235545163E+02  0.00000000000E+00 0.  1.
</event>
<event>
 8    1  0.2418546E-013  0.9118800E+02  0.7816164E-02  0.1184000E+00
        -11   -1    0    0    0    0  0.00000000000E+00  0.00000000000E+00  0.45593999997E+02  0.45594000000E+02  0.51100000000E-03 0. -1.
         11   -1    0    0    0    0 -0.00000000000E+00 -0.00000000000E+00 -0.45593999997E+02  0.45594000000E+02  0.51100000000E-03 0.  1.
         23    2    1    2    0    0  0.00000000000E+00  0.35527136788E-14  0.71054273576E-14  0.91188000000E+02  0.91188000000E+02 0.  0.
    9900012    2    3    3    0    0  0.28157429955E+01 -0.21174500737E+02  0.34595910384E+02  0.50528869348E+02  0.30000028870E+02 0.  0.
        -12    1    3    3    0    0 -0.28157429955E+01  0.21174500737E+02 -0.34595910384E+02  0.40659130652E+02  0.00000000000E+00 0.  1.
         11    1    4    4    0    0  0.25608727645E+01 -0.13738743306E+02  0.12630825609E+02  0.18837433285E+02  0.51100000000E-03 0. -1.
        -11    1    4    4    0    0  0.61072165207E-01 -0.10785409584E+02  0.24962105171E+02  0.27192563037E+02  0.51100000000E-03 0.  1.
        -12    1    4    4    0    0  0.19379806582E+00  0.33496521540E+01 -0.29970203957E+01  0.44988730251E+01  0.00000000000E+00 0.  1.
</event>
<event>
 8    1  0.1615837E-013  0.9118800E+02  0.7816164E-02  0.1184000E+00
        -11   -1    0    0    0    0  0.00000000000E+00  0.00000000000E+00  0.45593999997E+02  0.45594000000E+02  0.51100000000E-03 0. -1.
         11   -1    0    0    0    0 -0.00000000000E+00 -0.00000000000E+00 -0.45593999997E+02  0.45594000000E+02  0.51100000000E-03 0.  1.
         23    2    1    2    0    0  0.00000000000E+00  0.44408920985E-15  0.00000000000E+00  0.91188000000E+02  0.91188000000E+02 0.  0.
    9900012    2    3    3    0    0 -0.16181376539E+02  0.30000591993E+01 -0.37179678104E+02  0.50528858767E+02  0.29999996709E+02 0.  0.
         12    1    3    3    0    0  0.16181376539E+02 -0.30000591993E+01  0.37179678104E+02  0.40659141233E+02  0.00000000000E+00 0. -1.
         11    1    4    4    0    0 -0.57478195289E+01  0.20103896662E+01  0.22660004464E+01  0.64972189613E+01  0.51100000000E-03 0. -1.
        -11    1    4    4    0    0 -0.11324012903E+02  0.68378431908E+01 -0.22717331789E+02  0.26288144317E+02  0.51100000000E-03 0.  1.
        -12    1    4    4    0    0  0.89045589310E+00 -0.58481736577E+01 -0.16728346761E+02  0.17743495489E+02  0.00000000000E+00 0.  1.
</event>
<event>
 8    1  0.1615837E-013  0.9118800E+02  0.7816164E-02  0.1184000E+00
        -11   -1    0    0    0    0  0.00000000000E+00  0.00000000000E+00  0.45593999997E+02  0.45594000000E+02  0.51100000000E-03 0. -1.
         11   -1    0    0    0    0 -0.00000000000E+00 -0.00000000000E+00 -0.45593999997E+02  0.45594000000E+02  0.51100000000E-03 0.  1.
         23    2    1    2    0    0  0.00000000000E+00 -0.11102230246E-14  0.71054273576E-14  0.91188000000E+02  0.91188000000E+02 0.  0.
    9900012    2    3    3    0    0  0.35727106334E+02 -0.21596781228E+00 -0.19408572013E+02  0.50528862814E+02  0.30000009010E+02 0.  0.
         12    1    3    3    0    0 -0.35727106334E+02  0.21596781228E+00  0.19408572013E+02  0.40659137186E+02  0.00000000000E+00 0. -1.
         11    1    4    4    0    0  0.65184858065E+01  0.64887824594E+00 -0.23265548797E+01  0.69515867294E+01  0.51100000000E-03 0. -1.
        -11    1    4    4    0    0  0.28745295415E+02  0.69619579116E+01 -0.19436091725E+02  0.35390995016E+02  0.51100000000E-03 0.  1.
        -12    1    4    4    0    0  0.46332511321E+00 -0.78268039699E+01  0.23540745926E+01  0.81862810684E+01  0.00000000000E+00 0.  1.
</event>
<event>
 8    1  0.1615837E-013  0.9118800E+02  0.7816164E-02  0.1184000E+00
        -11   -1    0    0    0    0  0.00000000000E+00  0.00000000000E+00  0.45593999997E+02  0.45594000000E+02  0.51100000000E-03 0. -1.
         11   -1    0    0    0    0 -0.00000000000E+00 -0.00000000000E+00 -0.45593999997E+02  0.45594000000E+02  0.51100000000E-03 0.  1.
         23    2    1    2    0    0  0.00000000000E+00  0.00000000000E+00  0.00000000000E+00  0.91188000000E+02  0.91188000000E+02 0.  0.
    9900012    2    3    3    0    0 -0.23610075356E+02  0.17170681006E+02 -0.28300132801E+02  0.50528862515E+02  0.30000008099E+02 0.  0.
         12    1    3    3    0    0  0.23610075356E+02 -0.17170681006E+02  0.28300132801E+02  0.40659137485E+02  0.00000000000E+00 0. -1.
         11    1    4    4    0    0 -0.51132754743E+01  0.15529562852E+02 -0.76604411332E+01  0.18055339019E+02  0.51100000000E-03 0. -1.
        -11    1    4    4    0    0  0.26723918890E+01 -0.67684292706E+00 -0.60817188039E+01  0.66773571589E+01  0.51100000000E-03 0.  1.
        -12    1    4    4    0    0 -0.21169191770E+02  0.23179610807E+01 -0.14557972864E+02  0.25796166337E+02  0.00000000000E+00 0.  1.
</event>
<event>
 8    1  0.1615837E-013  0.9118800E+02  0.7816164E-02  0.1184000E+00
        -11   -1    0    0    0    0  0.00000000000E+00  0.00000000000E+00  0.45593999997E+02  0.45594000000E+02  0.51100000000E-03 0. -1.
         11   -1    0    0    0    0 -0.00000000000E+00 -0.00000000000E+00 -0.45593999997E+02  0.45594000000E+02  0.51100000000E-03 0.  1.
         23    2    1    2    0    0  0.00000000000E+00 -0.88817841970E-15  0.00000000000E+00  0.91188000000E+02  0.91188000000E+02 0.  0.
    9900012    2    3    3    0    0  0.31832763880E+02  0.64909519085E+01  0.24448068105E+02  0.50528863917E+02  0.30000012363E+02 0.  0.
        -12    1    3    3    0    0 -0.31832763880E+02 -0.64909519085E+01 -0.24448068105E+02  0.40659136083E+02  0.00000000000E+00 0.  1.
         11    1    4    4    0    0 -0.18700530098E+01  0.42423879997E+01  0.68618243285E+01  0.82812793442E+01  0.51100000000E-03 0. -1.
        -11    1    4    4    0    0  0.17484394723E+00  0.41671683255E+01  0.46833473934E+01  0.62713320218E+01  0.51100000000E-03 0.  1.
         12    1    4    4    0    0  0.33527972943E+02 -0.19186044167E+01  0.12902896383E+02  0.35976252551E+02  0.00000000000E+00 0. -1.
</event>
<event>
 8    1  0.1615837E-013  0.9118800E+02  0.7816164E-02  0.1184000E+00
        -11   -1    0    0    0    0  0.00000000000E+00  0.00000000000E+00  0.45593999997E+02  0.45594000000E+02  0.51100000000E-03 0. -1.
         11   -1    0    0    0    0 -0.00000000000E+00 -0.00000000000E+00 -0.45593999997E+02  0.45594000000E+02  0.51100000000E-03 0.  1.
         23    2    1    2    0    0  0.00000000000E+00  0.00000000000E+00  0.00000000000E+00  0.91188000000E+02  0.91188000000E+02 0.  0.
    9900012    2    3    3    0    0  0.14580062759E+02  0.24673959626E+02 -0.28840688821E+02  0.50528833194E+02  0.29999918977E+02 0.  0.
         12    1    3    3    0    0 -0.14580062759E+02 -0.24673959626E+02  0.28840688821E+02  0.40659166806E+02  0.00000000000E+00 0. -1.
         11    1    4    4    0    0  0.63767410945E+01 -0.30541499941E+01 -0.49395445335E+01  0.86249498336E+01  0.51100000000E-03 0. -1.
        -11    1    4    4    0    0  0.41961787091E+01  0.10465851607E+01  0.17596339487E+01  0.46690007659E+01  0.51100000000E-03 0.  1.
        -12    1    4    4    0    0  0.40071429554E+01  0.26681524460E+02 -0.25660778236E+02  0.37234882595E+02  0.00000000000E+00 0.  1.
</event>
<event>
 8    1  0.1615837E-013  0.9118800E+02  0.7816164E-02  0.1184000E+00
        -11   -1    0    0    0    0  0.00000000000E+00  0.00000000000E+00  0.45593999997E+02  0.45594000000E+02  0.51100000000E-03 0. -1.
         11   -1    0    0    0    0 -0.00000000000E+00 -0.00000000000E+00 -0.45593999997E+02  0.45594000000E+02  0.51100000000E-03 0.  1.
         23    2    1    2    0    0  0.00000000000E+00  0.00000000000E+00  0.00000000000E+00  0.91188000000E+02  0.91188000000E+02 0.  0.
    9900012    2    3    3    0    0 -0.95209485976E+01  0.17457990188E+02 -0.35464573506E+02  0.50528857639E+02  0.29999993278E+02 0.  0.
         12    1    3    3    0    0  0.95209485976E+01 -0.17457990188E+02  0.35464573506E+02  0.40659142361E+02  0.00000000000E+00 0. -1.
         11    1    4    4    0    0 -0.82842135168E+01  0.16717770592E+02 -0.72207979196E+01  0.20006298259E+02  0.51100000000E-03 0. -1.
        -11    1    4    4    0    0  0.61625258698E+00  0.30769366068E+01 -0.12714038249E+01  0.33858195581E+01  0.51100000000E-03 0.  1.
        -12    1    4    4    0    0 -0.18529876677E+01 -0.23367170114E+01 -0.26972371762E+02  0.27136739821E+02  0.00000000000E+00 0.  1.
</event>
<event>
 8    1  0.1615837E-013  0.9118800E+02  0.7816164E-02  0.1184000E+00
        -11   -1    0    0    0    0  0.00000000000E+00  0.00000000000E+00  0.45593999997E+02  0.45594000000E+02  0.51100000000E-03 0. -1.
         11   -1    0    0    0    0 -0.00000000000E+00 -0.00000000000E+00 -0.45593999997E+02  0.45594000000E+02  0.51100000000E-03 0.  1.
         23    2    1    2    0    0 -0.71054273576E-14  0.00000000000E+00  0.00000000000E+00  0.91188000000E+02  0.91188000000E+02 0.  0.
    9900012    2    3    3    0    0  0.33604666373E+02 -0.13204591614E+02  0.18695768041E+02  0.50528848701E+02  0.29999966111E+02 0.  0.
        -12    1    3    3    0    0 -0.33604666373E+02  0.13204591614E+02 -0.18695768041E+02  0.40659151299E+02  0.00000000000E+00 0.  1.
         11    1    4    4    0    0  0.16766740674E+01 -0.90115755125E+01  0.43063663142E+01  0.10127414292E+02  0.51100000000E-03 0. -1.
        -11    1    4    4    0    0  0.29599709484E+01  0.41162821203E+01  0.81929057481E+01  0.96347761452E+01  0.51100000000E-03 0.  1.
         12    1    4    4    0    0  0.28968021358E+02 -0.83092982214E+01  0.61964959785E+01  0.30766658264E+02  0.00000000000E+00 0. -1.
</event>
<event>
 8    1  0.1615837E-013  0.9118800E+02  0.7816164E-02  0.1184000E+00
        -11   -1    0    0    0    0  0.00000000000E+00  0.00000000000E+00  0.45593999997E+02  0.45594000000E+02  0.51100000000E-03 0. -1.
         11   -1    0    0    0    0 -0.00000000000E+00 -0.00000000000E+00 -0.45593999997E+02  0.45594000000E+02  0.51100000000E-03 0.  1.
         23    2    1    2    0    0  0.00000000000E+00  0.00000000000E+00 -0.35527136788E-14  0.91188000000E+02  0.91188000000E+02 0.  0.
    9900012    2    3    3    0    0 -0.11031489709E+02 -0.27114812565E+02 -0.28218035950E+02  0.50528875827E+02  0.30000048564E+02 0.  0.
         12    1    3    3    0    0  0.11031489709E+02  0.27114812565E+02  0.28218035950E+02  0.40659124173E+02  0.00000000000E+00 0. -1.
         11    1    4    4    0    0 -0.55215824967E+01  0.44784357674E+01 -0.53361075892E+01  0.88892240750E+01  0.51100000000E-03 0. -1.
        -11    1    4    4    0    0 -0.14900962100E+01 -0.82448337223E+01 -0.14043278939E+02  0.16352717005E+02  0.51100000000E-03 0.  1.
         12    1    4    4    0    0 -0.40198110022E+01 -0.23348414611E+02 -0.88386494216E+01  0.25286934747E+02  0.00000000000E+00 0. -1.
</event>
<event>
 8    1  0.1615837E-013  0.9118800E+02  0.7816164E-02  0.1184000E+00
        -11   -1    0    0    0    0  0.00000000000E+00  0.00000000000E+00  0.45593999997E+02  0.45594000000E+02  0.51100000000E-03 0.  1.
         11   -1    0    0    0    0 -0.00000000000E+00 -0.00000000000E+00 -0.45593999997E+02  0.45594000000E+02  0.51100000000E-03 0. -1.
         23    2    1    2    0    0  0.00000000000E+00  0.00000000000E+00  0.00000000000E+00  0.91188000000E+02  0.91188000000E+02 0.  0.
    9900012    2    3    3    0    0 -0.19938998602E+02  0.30604048558E+02  0.17860414378E+02  0.50528857668E+02  0.29999993369E+02 0.  0.
        -12    1    3    3    0    0  0.19938998602E+02 -0.30604048558E+02 -0.17860414378E+02  0.40659142332E+02  0.00000000000E+00 0.  1.
         11    1    4    4    0    0  0.27404483243E+00  0.20497828798E+02  0.64388599782E+01  0.21487089242E+02  0.51100000000E-03 0. -1.
        -11    1    4    4    0    0 -0.68030140813E+01  0.92080223243E+01  0.69051767467E-01  0.11448731114E+02  0.51100000000E-03 0.  1.
        -12    1    4    4    0    0 -0.13410029353E+02  0.89819743625E+00  0.11352502632E+02  0.17593037313E+02  0.00000000000E+00 0.  1.
</event>
<event>
 8    1  0.1615837E-013  0.9118800E+02  0.7816164E-02  0.1184000E+00
        -11   -1    0    0    0    0  0.00000000000E+00  0.00000000000E+00  0.45593999997E+02  0.45594000000E+02  0.51100000000E-03 0. -1.
         11   -1    0    0    0    0 -0.00000000000E+00 -0.00000000000E+00 -0.45593999997E+02  0.45594000000E+02  0.51100000000E-03 0.  1.
         23    2    1    2    0    0 -0.35527136788E-14  0.13322676296E-14  0.00000000000E+00  0.91188000000E+02  0.91188000000E+02 0.  0.
    9900012    2    3    3    0    0 -0.24824867051E+02  0.54796940754E+00 -0.32196142683E+02  0.50528857139E+02  0.29999991759E+02 0.  0.
         12    1    3    3    0    0  0.24824867051E+02 -0.54796940754E+00  0.32196142683E+02  0.40659142861E+02  0.00000000000E+00 0. -1.
         11    1    4    4    0    0 -0.45453998825E+00 -0.53771965239E+01  0.78042820813E+00  0.54525147873E+01  0.51100000000E-03 0. -1.
        -11    1    4    4    0    0 -0.87875024232E+01  0.11197747485E+02 -0.14062284644E+02  0.20008937934E+02  0.51100000000E-03 0.  1.
         12    1    4    4    0    0 -0.15582824639E+02 -0.52725815537E+01 -0.18914286247E+02  0.25067404417E+02  0.00000000000E+00 0. -1.
</event>
<event>
 8    1  0.1615837E-013  0.9118800E+02  0.7816164E-02  0.1184000E+00
        -11   -1    0    0    0    0  0.00000000000E+00  0.00000000000E+00  0.45593999997E+02  0.45594000000E+02  0.51100000000E-03 0. -1.
         11   -1    0    0    0    0 -0.00000000000E+00 -0.00000000000E+00 -0.45593999997E+02  0.45594000000E+02  0.51100000000E-03 0.  1.
         23    2    1    2    0    0  0.44408920985E-15  0.00000000000E+00  0.00000000000E+00  0.91188000000E+02  0.91188000000E+02 0.  0.
    9900012    2    3    3    0    0  0.28110273912E+01 -0.35763337481E+02  0.19137595769E+02  0.50528858905E+02  0.29999997129E+02 0.  0.
        -12    1    3    3    0    0 -0.28110273912E+01  0.35763337481E+02 -0.19137595769E+02  0.40659141095E+02  0.00000000000E+00 0.  1.
         11    1    4    4    0    0 -0.48693816114E+01 -0.29286617941E+02  0.83862802452E+01  0.30850390019E+02  0.51100000000E-03 0. -1.
        -11    1    4    4    0    0  0.65227371207E+01 -0.14565343324E+01 -0.10837419868E+01  0.67706786042E+01  0.51100000000E-03 0.  1.
        -12    1    4    4    0    0  0.11576718819E+01 -0.50201852074E+01  0.11835057510E+02  0.12907790282E+02  0.00000000000E+00 0.  1.
</event>
<event>
 8    1  0.1615837E-013  0.9118800E+02  0.7816164E-02  0.1184000E+00
        -11   -1    0    0    0    0  0.00000000000E+00  0.00000000000E+00  0.45593999997E+02  0.45594000000E+02  0.51100000000E-03 0. -1.
         11   -1    0    0    0    0 -0.00000000000E+00 -0.00000000000E+00 -0.45593999997E+02  0.45594000000E+02  0.51100000000E-03 0.  1.
         23    2    1    2    0    0  0.00000000000E+00  0.00000000000E+00  0.00000000000E+00  0.91188000000E+02  0.91188000000E+02 0.  0.
    9900012    2    3    3    0    0  0.17168643463E+02 -0.27793852280E+02 -0.24205483518E+02  0.50528856191E+02  0.29999988879E+02 0.  0.
         12    1    3    3    0    0 -0.17168643463E+02  0.27793852280E+02  0.24205483518E+02  0.40659143809E+02  0.00000000000E+00 0. -1.
         11    1    4    4    0    0 -0.59375386287E+01 -0.34747119941E+01 -0.96851350355E+01  0.11879807630E+02  0.51100000000E-03 0. -1.
        -11    1    4    4    0    0  0.25074133436E+01 -0.66407323374E+01 -0.80716311481E+01  0.10748845394E+02  0.51100000000E-03 0.  1.
        -12    1    4    4    0    0  0.20598768748E+02 -0.17678407949E+02 -0.64487173340E+01  0.27900203167E+02  0.00000000000E+00 0.  1.
</event>
<event>
 8    1  0.1615837E-013  0.9118800E+02  0.7816164E-02  0.1184000E+00
        -11   -1    0    0    0    0  0.00000000000E+00  0.00000000000E+00  0.45593999997E+02  0.45594000000E+02  0.51100000000E-03 0. -1.
         11   -1    0    0    0    0 -0.00000000000E+00 -0.00000000000E+00 -0.45593999997E+02  0.45594000000E+02  0.51100000000E-03 0.  1.
         23    2    1    2    0    0 -0.52735593670E-15 -0.22204460493E-15  0.00000000000E+00  0.91188000000E+02  0.91188000000E+02 0.  0.
    9900012    2    3    3    0    0  0.23870764590E+00 -0.10601159976E+01 -0.40644612314E+02  0.50528864035E+02  0.30000012720E+02 0.  0.
         12    1    3    3    0    0 -0.23870764590E+00  0.10601159976E+01  0.40644612314E+02  0.40659135965E+02  0.00000000000E+00 0. -1.
         11    1    4    4    0    0  0.82728382538E+01 -0.26991898344E+01 -0.58929835718E+01  0.10509649574E+02  0.51100000000E-03 0. -1.
        -11    1    4    4    0    0  0.39008225226E+01 -0.41721574608E+01 -0.16427154104E+02  0.17391799978E+02  0.51100000000E-03 0.  1.
        -12    1    4    4    0    0 -0.11934953131E+02  0.58112312976E+01 -0.18324474638E+02  0.22627414483E+02  0.00000000000E+00 0.  1.
</event>
<event>
 8    1  0.1615837E-013  0.9118800E+02  0.7816164E-02  0.1184000E+00
        -11   -1    0    0    0    0  0.00000000000E+00  0.00000000000E+00  0.45593999997E+02  0.45594000000E+02  0.51100000000E-03 0. -1.
         11   -1    0    0    0    0 -0.00000000000E+00 -0.00000000000E+00 -0.45593999997E+02  0.45594000000E+02  0.51100000000E-03 0.  1.
         23    2    1    2    0    0  0.00000000000E+00  0.35527136788E-14  0.00000000000E+00  0.91188000000E+02  0.91188000000E+02 0.  0.
    9900012    2    3    3    0    0 -0.16084446144E+02  0.24658883572E+02  0.28042739020E+02  0.50528866234E+02  0.30000019406E+02 0.  0.
        -12    1    3    3    0    0  0.16084446144E+02 -0.24658883572E+02 -0.28042739020E+02  0.40659133766E+02  0.00000000000E+00 0.  1.
         11    1    4    4    0    0 -0.20757386896E+01  0.10076223233E+02  0.71100077722E+01  0.12505645786E+02  0.51100000000E-03 0. -1.
        -11    1    4    4    0    0  0.46171803186E+01 -0.29604255162E+01  0.96908426636E+00  0.55697035745E+01  0.51100000000E-03 0.  1.
         12    1    4    4    0    0 -0.18625887773E+02  0.17543085856E+02  0.19963646982E+02  0.32453516874E+02  0.00000000000E+00 0. -1.
</event>
<event>
 8    1  0.1615837E-013  0.9118800E+02  0.7816164E-02  0.1184000E+00
        -11   -1    0    0    0    0  0.00000000000E+00  0.00000000000E+00  0.45593999997E+02  0.45594000000E+02  0.51100000000E-03 0. -1.
         11   -1    0    0    0    0 -0.00000000000E+00 -0.00000000000E+00 -0.45593999997E+02  0.45594000000E+02  0.51100000000E-03 0.  1.
         23    2    1    2    0    0 -0.35527136788E-14 -0.11102230246E-15  0.00000000000E+00  0.91188000000E+02  0.91188000000E+02 0.  0.
    9900012    2    3    3    0    0  0.16865487968E+02  0.13457336850E+00 -0.36995937518E+02  0.50528902774E+02  0.30000130472E+02 0.  0.
         12    1    3    3    0    0 -0.16865487968E+02 -0.13457336850E+00  0.36995937518E+02  0.40659097226E+02  0.00000000000E+00 0. -1.
         11    1    4    4    0    0  0.21350879648E+01 -0.82148575298E+01 -0.11714867126E+02  0.14466533687E+02  0.51100000000E-03 0. -1.
        -11    1    4    4    0    0 -0.33171961397E+01 -0.28823585730E+01 -0.34040608052E+01  0.55587239002E+01  0.51100000000E-03 0.  1.
        -12    1    4    4    0    0  0.18047596143E+02  0.11231789471E+02 -0.21877009586E+02  0.30503645187E+02  0.00000000000E+00 0.  1.
</event>
<event>
 8    1  0.1615837E-013  0.9118800E+02  0.7816164E-02  0.1184000E+00
        -11   -1    0    0    0    0  0.00000000000E+00  0.00000000000E+00  0.45593999997E+02  0.45594000000E+02  0.51100000000E-03 0. -1.
         11   -1    0    0    0    0 -0.00000000000E+00 -0.00000000000E+00 -0.45593999997E+02  0.45594000000E+02  0.51100000000E-03 0.  1.
         23    2    1    2    0    0  0.00000000000E+00 -0.17763568394E-14  0.00000000000E+00  0.91188000000E+02  0.91188000000E+02 0.  0.
    9900012    2    3    3    0    0  0.33331083892E+02 -0.87518515214E+01 -0.21578011741E+02  0.50528847904E+02  0.29999963689E+02 0.  0.
         12    1    3    3    0    0 -0.33331083892E+02  0.87518515214E+01  0.21578011741E+02  0.40659152096E+02  0.00000000000E+00 0. -1.
         11    1    4    4    0    0  0.50494732511E+01 -0.85094571688E+01 -0.35054669171E+01  0.10497444450E+02  0.51100000000E-03 0. -1.
        -11    1    4    4    0    0  0.22338869224E+02 -0.97294510481E+01 -0.14108738905E+02  0.28155706520E+02  0.51100000000E-03 0.  1.
        -12    1    4    4    0    0  0.59427414174E+01  0.94870566955E+01 -0.39638059191E+01  0.11875696934E+02  0.00000000000E+00 0.  1.
</event>
<event>
 8    1  0.1615837E-013  0.9118800E+02  0.7816164E-02  0.1184000E+00
        -11   -1    0    0    0    0  0.00000000000E+00  0.00000000000E+00  0.45593999997E+02  0.45594000000E+02  0.51100000000E-03 0. -1.
         11   -1    0    0    0    0 -0.00000000000E+00 -0.00000000000E+00 -0.45593999997E+02  0.45594000000E+02  0.51100000000E-03 0.  1.
         23    2    1    2    0    0  0.00000000000E+00  0.00000000000E+00  0.00000000000E+00  0.91188000000E+02  0.91188000000E+02 0.  0.
    9900012    2    3    3    0    0  0.12909750714E+02  0.27884629397E+02  0.26626125352E+02  0.50528870996E+02  0.30000033878E+02 0.  0.
        -12    1    3    3    0    0 -0.12909750714E+02 -0.27884629397E+02 -0.26626125352E+02  0.40659129004E+02  0.00000000000E+00 0.  1.
         11    1    4    4    0    0  0.49105448760E+01  0.60774013059E+01  0.63349753724E+01  0.10058835462E+02  0.51100000000E-03 0. -1.
        -11    1    4    4    0    0  0.11025637179E+02 -0.16766529316E+01  0.84760321216E+01  0.14007817854E+02  0.51100000000E-03 0.  1.
         12    1    4    4    0    0 -0.30264313403E+01  0.23483881023E+02  0.11815117858E+02  0.26462217680E+02  0.00000000000E+00 0. -1.
</event>
<event>
 8    1  0.1615837E-013  0.9118800E+02  0.7816164E-02  0.1184000E+00
        -11   -1    0    0    0    0  0.00000000000E+00  0.00000000000E+00  0.45593999997E+02  0.45594000000E+02  0.51100000000E-03 0. -1.
         11   -1    0    0    0    0 -0.00000000000E+00 -0.00000000000E+00 -0.45593999997E+02  0.45594000000E+02  0.51100000000E-03 0.  1.
         23    2    1    2    0    0  0.00000000000E+00  0.00000000000E+00  0.00000000000E+00  0.91188000000E+02  0.91188000000E+02 0.  0.
    9900012    2    3    3    0    0 -0.10371860520E+02  0.99984101842E+01 -0.38021310678E+02  0.50528883402E+02  0.30000071588E+02 0.  0.
         12    1    3    3    0    0  0.10371860520E+02 -0.99984101842E+01  0.38021310678E+02  0.40659116598E+02  0.00000000000E+00 0. -1.
         11    1    4    4    0    0  0.27047698649E+01  0.55256654915E+01 -0.89602334549E+01  0.10868971569E+02  0.51100000000E-03 0. -1.
        -11    1    4    4    0    0 -0.69838692986E+01  0.11547945201E+02 -0.26870817953E+02  0.30069425111E+02  0.51100000000E-03 0.  1.
         12    1    4    4    0    0 -0.60927610861E+01 -0.70752005086E+01 -0.21902592700E+01  0.95904867217E+01  0.00000000000E+00 0. -1.
</event>
<event>
 8    1  0.1615837E-013  0.9118800E+02  0.7816164E-02  0.1184000E+00
        -11   -1    0    0    0    0  0.00000000000E+00  0.00000000000E+00  0.45593999997E+02  0.45594000000E+02  0.51100000000E-03 0.  1.
         11   -1    0    0    0    0 -0.00000000000E+00 -0.00000000000E+00 -0.45593999997E+02  0.45594000000E+02  0.51100000000E-03 0. -1.
         23    2    1    2    0    0  0.00000000000E+00 -0.17763568394E-14  0.00000000000E+00  0.91188000000E+02  0.91188000000E+02 0.  0.
    9900012    2    3    3    0    0  0.32233897047E+02 -0.13722963444E+02  0.20635440602E+02  0.50528865069E+02  0.30000015864E+02 0.  0.
        -12    1    3    3    0    0 -0.32233897047E+02  0.13722963444E+02 -0.20635440602E+02  0.40659134931E+02  0.00000000000E+00 0.  1.
         11    1    4    4    0    0  0.27846217040E+01  0.17380262047E+01 -0.28601823752E+01  0.43537910611E+01  0.51100000000E-03 0. -1.
        -11    1    4    4    0    0 -0.27111366118E+01  0.17197946753E+01  0.27314579357E+01  0.42153076007E+01  0.51100000000E-03 0.  1.
         12    1    4    4    0    0  0.32160411954E+02 -0.17180784324E+02  0.20764165041E+02  0.41959766407E+02  0.00000000000E+00 0. -1.
</event>
<event>
 8    1  0.1615837E-013  0.9118800E+02  0.7816164E-02  0.1184000E+00
        -11   -1    0    0    0    0  0.00000000000E+00  0.00000000000E+00  0.45593999997E+02  0.45594000000E+02  0.51100000000E-03 0. -1.
         11   -1    0    0    0    0 -0.00000000000E+00 -0.00000000000E+00 -0.45593999997E+02  0.45594000000E+02  0.51100000000E-03 0.  1.
         23    2    1    2    0    0  0.17763568394E-14  0.00000000000E+00  0.00000000000E+00  0.91188000000E+02  0.91188000000E+02 0.  0.
    9900012    2    3    3    0    0  0.89039281887E+01 -0.16175059435E+02 -0.36225022823E+02  0.50528871093E+02  0.30000034175E+02 0.  0.
         12    1    3    3    0    0 -0.89039281887E+01  0.16175059435E+02  0.36225022823E+02  0.40659128907E+02  0.00000000000E+00 0. -1.
         11    1    4    4    0    0  0.20287696458E+00 -0.20313263252E+02 -0.11090575056E+02  0.23144560448E+02  0.51100000000E-03 0. -1.
        -11    1    4    4    0    0  0.17554954478E+01 -0.11618124763E+01 -0.41384499015E+01  0.46430959871E+01  0.51100000000E-03 0.  1.
         12    1    4    4    0    0  0.69455557764E+01  0.53000162930E+01 -0.20995997866E+02  0.22741214658E+02  0.00000000000E+00 0. -1.
</event>
<event>
 8    1  0.1615837E-013  0.9118800E+02  0.7816164E-02  0.1184000E+00
        -11   -1    0    0    0    0  0.00000000000E+00  0.00000000000E+00  0.45593999997E+02  0.45594000000E+02  0.51100000000E-03 0. -1.
         11   -1    0    0    0    0 -0.00000000000E+00 -0.00000000000E+00 -0.45593999997E+02  0.45594000000E+02  0.51100000000E-03 0.  1.
         23    2    1    2    0    0  0.00000000000E+00 -0.35527136788E-14  0.00000000000E+00  0.91188000000E+02  0.91188000000E+02 0.  0.
    9900012    2    3    3    0    0 -0.12956581472E+02 -0.21578159867E+02 -0.31932361983E+02  0.50528859226E+02  0.29999998103E+02 0.  0.
         12    1    3    3    0    0  0.12956581472E+02  0.21578159867E+02  0.31932361983E+02  0.40659140774E+02  0.00000000000E+00 0. -1.
         11    1    4    4    0    0 -0.19967696408E+02 -0.16388232806E+02 -0.27177021814E+02  0.37494980855E+02  0.51100000000E-03 0. -1.
        -11    1    4    4    0    0 -0.14301667498E+01 -0.28021004441E+01 -0.20804632675E+00  0.31528443295E+01  0.51100000000E-03 0.  1.
        -12    1    4    4    0    0  0.84412816854E+01 -0.23878266166E+01 -0.45472938420E+01  0.98810340414E+01  0.00000000000E+00 0.  1.
</event>
<event>
 8    1  0.1615837E-013  0.9118800E+02  0.7816164E-02  0.1184000E+00
        -11   -1    0    0    0    0  0.00000000000E+00  0.00000000000E+00  0.45593999997E+02  0.45594000000E+02  0.51100000000E-03 0. -1.
         11   -1    0    0    0    0 -0.00000000000E+00 -0.00000000000E+00 -0.45593999997E+02  0.45594000000E+02  0.51100000000E-03 0.  1.
         23    2    1    2    0    0  0.00000000000E+00  0.17763568394E-14 -0.55511151231E-15  0.91188000000E+02  0.91188000000E+02 0.  0.
    9900012    2    3    3    0    0 -0.39745342092E+02  0.85360406091E+01  0.78039543492E+00  0.50528865425E+02  0.30000016947E+02 0.  0.
        -12    1    3    3    0    0  0.39745342092E+02 -0.85360406091E+01 -0.78039543492E+00  0.40659134575E+02  0.00000000000E+00 0.  1.
         11    1    4    4    0    0 -0.42697957227E+01 -0.50246146645E+01  0.59805575556E+01  0.89019647818E+01  0.51100000000E-03 0. -1.
        -11    1    4    4    0    0  0.42857326468E+00  0.39380296515E+01  0.59801518989E+00  0.40061671218E+01  0.51100000000E-03 0.  1.
        -12    1    4    4    0    0 -0.35904119634E+02  0.96226256221E+01 -0.57981773106E+01  0.37620733522E+02  0.00000000000E+00 0.  1.
</event>
<event>
 8    1  0.1615837E-013  0.9118800E+02  0.7816164E-02  0.1184000E+00
        -11   -1    0    0    0    0  0.00000000000E+00  0.00000000000E+00  0.45593999997E+02  0.45594000000E+02  0.51100000000E-03 0. -1.
         11   -1    0    0    0    0 -0.00000000000E+00 -0.00000000000E+00 -0.45593999997E+02  0.45594000000E+02  0.51100000000E-03 0.  1.
         23    2    1    2    0    0  0.00000000000E+00  0.00000000000E+00  0.00000000000E+00  0.91188000000E+02  0.91188000000E+02 0.  0.
    9900012    2    3    3    0    0 -0.95431603411E+01  0.47077488696E+01 -0.39241983487E+02  0.50528830349E+02  0.29999910328E+02 0.  0.
         12    1    3    3    0    0  0.95431603411E+01 -0.47077488696E+01  0.39241983487E+02  0.40659169651E+02  0.00000000000E+00 0. -1.
         11    1    4    4    0    0 -0.31520872549E+00  0.63368564679E+01 -0.74064327467E+01  0.97524536773E+01  0.51100000000E-03 0. -1.
        -11    1    4    4    0    0 -0.68968844319E+01  0.30420920787E+00  0.16955765245E+01  0.71087648801E+01  0.51100000000E-03 0.  1.
        -12    1    4    4    0    0 -0.23310671837E+01 -0.19333168062E+01 -0.33531127265E+02  0.33667611791E+02  0.00000000000E+00 0.  1.
</event>
<event>
 8    1  0.1615837E-013  0.9118800E+02  0.7816164E-02  0.1184000E+00
        -11   -1    0    0    0    0  0.00000000000E+00  0.00000000000E+00  0.45593999997E+02  0.45594000000E+02  0.51100000000E-03 0.  1.
         11   -1    0    0    0    0 -0.00000000000E+00 -0.00000000000E+00 -0.45593999997E+02  0.45594000000E+02  0.51100000000E-03 0. -1.
         23    2    1    2    0    0  0.00000000000E+00  0.00000000000E+00 -0.55511151231E-15  0.91188000000E+02  0.91188000000E+02 0.  0.
    9900012    2    3    3    0    0  0.17542501393E+02  0.36672907699E+02 -0.72359145130E+00  0.50528866969E+02  0.30000021640E+02 0.  0.
        -12    1    3    3    0    0 -0.17542501393E+02 -0.36672907699E+02  0.72359145130E+00  0.40659133031E+02  0.00000000000E+00 0.  1.
         11    1    4    4    0    0  0.46623915289E+01  0.15624893817E+02 -0.84126851095E+01  0.18347982793E+02  0.51100000000E-03 0. -1.
        -11    1    4    4    0    0 -0.48514014608E+01  0.72426453154E+01  0.30456771929E+01  0.92340758673E+01  0.51100000000E-03 0.  1.
         12    1    4    4    0    0  0.17731511325E+02  0.13805368567E+02  0.46434164653E+01  0.22946808309E+02  0.00000000000E+00 0. -1.
</event>
<event>
 8    1  0.1615837E-013  0.9118800E+02  0.7816164E-02  0.1184000E+00
        -11   -1    0    0    0    0  0.00000000000E+00  0.00000000000E+00  0.45593999997E+02  0.45594000000E+02  0.51100000000E-03 0. -1.
         11   -1    0    0    0    0 -0.00000000000E+00 -0.00000000000E+00 -0.45593999997E+02  0.45594000000E+02  0.51100000000E-03 0.  1.
         23    2    1    2    0    0  0.00000000000E+00 -0.53290705182E-14  0.00000000000E+00  0.91188000000E+02  0.91188000000E+02 0.  0.
    9900012    2    3    3    0    0 -0.70463075323E+01 -0.14092318315E+02 -0.37482289875E+02  0.50528856630E+02  0.29999990213E+02 0.  0.
         12    1    3    3    0    0  0.70463075323E+01  0.14092318315E+02  0.37482289875E+02  0.40659143370E+02  0.00000000000E+00 0. -1.
         11    1    4    4    0    0 -0.13014562946E+01 -0.11103178006E+02 -0.14749285310E+02  0.18507181518E+02  0.51100000000E-03 0. -1.
        -11    1    4    4    0    0  0.95506586490E+00 -0.73609514183E+01 -0.22845184726E+02  0.24020787290E+02  0.51100000000E-03 0.  1.
         12    1    4    4    0    0 -0.66999171026E+01  0.43718111093E+01  0.11218016145E+00  0.80008878223E+01  0.00000000000E+00 0. -1.
</event>
<event>
 8    1  0.1615837E-013  0.9118800E+02  0.7816164E-02  0.1184000E+00
        -11   -1    0    0    0    0  0.00000000000E+00  0.00000000000E+00  0.45593999997E+02  0.45594000000E+02  0.51100000000E-03 0. -1.
         11   -1    0    0    0    0 -0.00000000000E+00 -0.00000000000E+00 -0.45593999997E+02  0.45594000000E+02  0.51100000000E-03 0.  1.
         23    2    1    2    0    0  0.00000000000E+00  0.88817841970E-15  0.00000000000E+00  0.91188000000E+02  0.91188000000E+02 0.  0.
    9900012    2    3    3    0    0  0.25645074178E+02 -0.61429792410E+01  0.30947866475E+02  0.50528727221E+02  0.29999596859E+02 0.  0.
        -12    1    3    3    0    0 -0.25645074178E+02  0.61429792410E+01 -0.30947866475E+02  0.40659272779E+02  0.00000000000E+00 0.  1.
         11    1    4    4    0    0 -0.24699214213E+01 -0.36753553379E+01  0.23462022128E+01  0.50113285436E+01  0.51100000000E-03 0. -1.
        -11    1    4    4    0    0 -0.83461748732E+00  0.52799693847E+00 -0.26405965578E+01  0.28192405998E+01  0.51100000000E-03 0.  1.
         12    1    4    4    0    0  0.28949613087E+02 -0.29956208415E+01  0.31242260820E+02  0.42698158078E+02  0.00000000000E+00 0. -1.
</event>
<event>
 8    1  0.1615837E-013  0.9118800E+02  0.7816164E-02  0.1184000E+00
        -11   -1    0    0    0    0  0.00000000000E+00  0.00000000000E+00  0.45593999997E+02  0.45594000000E+02  0.51100000000E-03 0. -1.
         11   -1    0    0    0    0 -0.00000000000E+00 -0.00000000000E+00 -0.45593999997E+02  0.45594000000E+02  0.51100000000E-03 0.  1.
         23    2    1    2    0    0 -0.71054273576E-14  0.00000000000E+00  0.35527136788E-14  0.91188000000E+02  0.91188000000E+02 0.  0.
    9900012    2    3    3    0    0  0.31475558499E+02  0.14836752841E+02 -0.21031544790E+02  0.50528857191E+02  0.29999991919E+02 0.  0.
         12    1    3    3    0    0 -0.31475558499E+02 -0.14836752841E+02  0.21031544790E+02  0.40659142809E+02  0.00000000000E+00 0. -1.
         11    1    4    4    0    0  0.10107645137E+02 -0.23964098288E+00 -0.14704437163E+02  0.17844954205E+02  0.51100000000E-03 0. -1.
        -11    1    4    4    0    0  0.46667982536E+01  0.60380454384E+00 -0.92635924113E+01  0.10390270954E+02  0.51100000000E-03 0.  1.
         12    1    4    4    0    0  0.16701115109E+02  0.14472589280E+02  0.29364847845E+01  0.22293632033E+02  0.00000000000E+00 0. -1.
</event>
<event>
 8    1  0.1615837E-013  0.9118800E+02  0.7816164E-02  0.1184000E+00
        -11   -1    0    0    0    0  0.00000000000E+00  0.00000000000E+00  0.45593999997E+02  0.45594000000E+02  0.51100000000E-03 0. -1.
         11   -1    0    0    0    0 -0.00000000000E+00 -0.00000000000E+00 -0.45593999997E+02  0.45594000000E+02  0.51100000000E-03 0.  1.
         23    2    1    2    0    0  0.00000000000E+00  0.35527136788E-14  0.35527136788E-14  0.91188000000E+02  0.91188000000E+02 0.  0.
    9900012    2    3    3    0    0  0.17985541830E+02  0.24266162475E+02  0.27218357389E+02  0.50528864063E+02  0.30000012807E+02 0.  0.
        -12    1    3    3    0    0 -0.17985541830E+02 -0.24266162475E+02 -0.27218357389E+02  0.40659135937E+02  0.00000000000E+00 0.  1.
         11    1    4    4    0    0  0.15066673382E+01 -0.17190362702E+01  0.66796171145E+00  0.23814502463E+01  0.51100000000E-03 0. -1.
        -11    1    4    4    0    0 -0.12157096170E+01  0.21122278623E+02  0.18514761562E+02  0.28114498040E+02  0.51100000000E-03 0.  1.
         12    1    4    4    0    0  0.17694584109E+02  0.48629201225E+01  0.80356341153E+01  0.20032915777E+02  0.00000000000E+00 0. -1.
</event>
<event>
 8    1  0.1615837E-013  0.9118800E+02  0.7816164E-02  0.1184000E+00
        -11   -1    0    0    0    0  0.00000000000E+00  0.00000000000E+00  0.45593999997E+02  0.45594000000E+02  0.51100000000E-03 0.  1.
         11   -1    0    0    0    0 -0.00000000000E+00 -0.00000000000E+00 -0.45593999997E+02  0.45594000000E+02  0.51100000000E-03 0. -1.
         23    2    1    2    0    0  0.00000000000E+00  0.00000000000E+00  0.17763568394E-14  0.91188000000E+02  0.91188000000E+02 0.  0.
    9900012    2    3    3    0    0  0.18174811622E+02  0.35364153448E+02 -0.84981312236E+01  0.50528863747E+02  0.30000011845E+02 0.  0.
        -12    1    3    3    0    0 -0.18174811622E+02 -0.35364153448E+02  0.84981312236E+01  0.40659136253E+02  0.00000000000E+00 0.  1.
         11    1    4    4    0    0  0.10189371810E+02  0.52254925168E+01 -0.38409912247E+01  0.12078173860E+02  0.51100000000E-03 0.  1.
        -11    1    4    4    0    0 -0.63913025634E+00  0.82985782910E+01 -0.11312435866E+02  0.14044432869E+02  0.51100000000E-03 0. -1.
        -12    1    4    4    0    0  0.86245700674E+01  0.21840082640E+02  0.66552958665E+01  0.24406257018E+02  0.00000000000E+00 0.  1.
</event>
<event>
 8    1  0.1615837E-013  0.9118800E+02  0.7816164E-02  0.1184000E+00
        -11   -1    0    0    0    0  0.00000000000E+00  0.00000000000E+00  0.45593999997E+02  0.45594000000E+02  0.51100000000E-03 0. -1.
         11   -1    0    0    0    0 -0.00000000000E+00 -0.00000000000E+00 -0.45593999997E+02  0.45594000000E+02  0.51100000000E-03 0.  1.
         23    2    1    2    0    0  0.00000000000E+00  0.00000000000E+00 -0.71054273576E-14  0.91188000000E+02  0.91188000000E+02 0.  0.
    9900012    2    3    3    0    0  0.20239186449E+02  0.15923428547E+01  0.35227895418E+02  0.50528870159E+02  0.30000031334E+02 0.  0.
        -12    1    3    3    0    0 -0.20239186449E+02 -0.15923428547E+01 -0.35227895418E+02  0.40659129841E+02  0.00000000000E+00 0.  1.
         11    1    4    4    0    0 -0.22915011358E+01  0.21368808366E+01 -0.64982243881E+00  0.31999229098E+01  0.51100000000E-03 0. -1.
        -11    1    4    4    0    0  0.99922048009E+01 -0.60643142283E+01  0.35459444980E+01  0.12214490840E+02  0.51100000000E-03 0.  1.
         12    1    4    4    0    0  0.12538482784E+02  0.55197762465E+01  0.32331773359E+02  0.35114456408E+02  0.00000000000E+00 0. -1.
</event>
<event>
 8    1  0.1615837E-013  0.9118800E+02  0.7816164E-02  0.1184000E+00
        -11   -1    0    0    0    0  0.00000000000E+00  0.00000000000E+00  0.45593999997E+02  0.45594000000E+02  0.51100000000E-03 0.  1.
         11   -1    0    0    0    0 -0.00000000000E+00 -0.00000000000E+00 -0.45593999997E+02  0.45594000000E+02  0.51100000000E-03 0. -1.
         23    2    1    2    0    0  0.00000000000E+00 -0.35527136788E-14  0.00000000000E+00  0.91188000000E+02  0.91188000000E+02 0.  0.
    9900012    2    3    3    0    0  0.26011110819E+02 -0.30805726983E+02 -0.52531097552E+01  0.50528857571E+02  0.29999993072E+02 0.  0.
        -12    1    3    3    0    0 -0.26011110819E+02  0.30805726983E+02  0.52531097552E+01  0.40659142429E+02  0.00000000000E+00 0.  1.
         11    1    4    4    0    0  0.67778350190E+00 -0.98500473552E+01 -0.42760293141E+01  0.10759519057E+02  0.51100000000E-03 0. -1.
        -11    1    4    4    0    0 -0.35321919156E+01 -0.51112221466E+01  0.24173225194E+01  0.66666648321E+01  0.51100000000E-03 0.  1.
        -12    1    4    4    0    0  0.28865519233E+02 -0.15844457481E+02 -0.33944029605E+01  0.33102673682E+02  0.00000000000E+00 0.  1.
</event>
<event>
 8    1  0.1615837E-013  0.9118800E+02  0.7816164E-02  0.1184000E+00
        -11   -1    0    0    0    0  0.00000000000E+00  0.00000000000E+00  0.45593999997E+02  0.45594000000E+02  0.51100000000E-03 0. -1.
         11   -1    0    0    0    0 -0.00000000000E+00 -0.00000000000E+00 -0.45593999997E+02  0.45594000000E+02  0.51100000000E-03 0.  1.
         23    2    1    2    0    0  0.00000000000E+00  0.00000000000E+00  0.71054273576E-14  0.91188000000E+02  0.91188000000E+02 0.  0.
    9900012    2    3    3    0    0 -0.20075681691E+02 -0.17303328489E+01  0.35314823067E+02  0.50528883244E+02  0.30000071110E+02 0.  0.
        -12    1    3    3    0    0  0.20075681691E+02  0.17303328489E+01 -0.35314823067E+02  0.40659116756E+02  0.00000000000E+00 0.  1.
         11    1    4    4    0    0  0.44549900942E+01  0.48553054033E+00  0.28338195177E+01  0.53021891672E+01  0.51100000000E-03 0. -1.
        -11    1    4    4    0    0 -0.27966206774E+01  0.50737924054E+01  0.41378839548E+00  0.58082422198E+01  0.51100000000E-03 0.  1.
         12    1    4    4    0    0 -0.21734051107E+02 -0.72896557946E+01  0.32067215153E+02  0.39418451857E+02  0.00000000000E+00 0. -1.
</event>
<event>
 8    1  0.1615837E-013  0.9118800E+02  0.7816164E-02  0.1184000E+00
        -11   -1    0    0    0    0  0.00000000000E+00  0.00000000000E+00  0.45593999997E+02  0.45594000000E+02  0.51100000000E-03 0. -1.
         11   -1    0    0    0    0 -0.00000000000E+00 -0.00000000000E+00 -0.45593999997E+02  0.45594000000E+02  0.51100000000E-03 0.  1.
         23    2    1    2    0    0 -0.17763568394E-14  0.00000000000E+00 -0.71054273576E-14  0.91188000000E+02  0.91188000000E+02 0.  0.
    9900012    2    3    3    0    0 -0.82145819658E+01  0.23684973417E+01  0.39750181700E+02  0.50528854883E+02  0.29999984901E+02 0.  0.
        -12    1    3    3    0    0  0.82145819658E+01 -0.23684973417E+01 -0.39750181700E+02  0.40659145117E+02  0.00000000000E+00 0.  1.
         11    1    4    4    0    0 -0.31546939233E+01 -0.41791217763E+01  0.73071613006E+01  0.89895360895E+01  0.51100000000E-03 0. -1.
        -11    1    4    4    0    0 -0.13771924736E+02  0.93788433144E+01  0.18989857331E+02  0.25263477483E+02  0.51100000000E-03 0.  1.
         12    1    4    4    0    0  0.87120366934E+01 -0.28312241963E+01  0.13453163068E+02  0.16275841310E+02  0.00000000000E+00 0. -1.
</event>
<event>
 8    1  0.1615837E-013  0.9118800E+02  0.7816164E-02  0.1184000E+00
        -11   -1    0    0    0    0  0.00000000000E+00  0.00000000000E+00  0.45593999997E+02  0.45594000000E+02  0.51100000000E-03 0. -1.
         11   -1    0    0    0    0 -0.00000000000E+00 -0.00000000000E+00 -0.45593999997E+02  0.45594000000E+02  0.51100000000E-03 0.  1.
         23    2    1    2    0    0  0.88817841970E-15  0.00000000000E+00  0.00000000000E+00  0.91188000000E+02  0.91188000000E+02 0.  0.
    9900012    2    3    3    0    0  0.49033703347E+01 -0.25578895185E+01 -0.40281204578E+02  0.50528913910E+02  0.30000164321E+02 0.  0.
         12    1    3    3    0    0 -0.49033703347E+01  0.25578895185E+01  0.40281204578E+02  0.40659086090E+02  0.00000000000E+00 0. -1.
         11    1    4    4    0    0  0.22670178251E+01  0.28740830828E+01 -0.26899257701E+02  0.27147187488E+02  0.51100000000E-03 0. -1.
        -11    1    4    4    0    0 -0.56443842877E+01 -0.16132247499E+01 -0.12989509455E+02  0.14254435248E+02  0.51100000000E-03 0.  1.
         12    1    4    4    0    0  0.82807367973E+01 -0.38187478515E+01 -0.39243742147E+00  0.91272911747E+01  0.00000000000E+00 0. -1.
</event>
<event>
 8    1  0.1615837E-013  0.9118800E+02  0.7816164E-02  0.1184000E+00
        -11   -1    0    0    0    0  0.00000000000E+00  0.00000000000E+00  0.45593999997E+02  0.45594000000E+02  0.51100000000E-03 0. -1.
         11   -1    0    0    0    0 -0.00000000000E+00 -0.00000000000E+00 -0.45593999997E+02  0.45594000000E+02  0.51100000000E-03 0.  1.
         23    2    1    2    0    0  0.44408920985E-15  0.35527136788E-14 -0.71054273576E-14  0.91188000000E+02  0.91188000000E+02 0.  0.
    9900012    2    3    3    0    0  0.24858051469E+01  0.15526681204E+02 -0.37495400795E+02  0.50528903389E+02  0.30000132342E+02 0.  0.
         12    1    3    3    0    0 -0.24858051469E+01 -0.15526681204E+02  0.37495400795E+02  0.40659096611E+02  0.00000000000E+00 0. -1.
         11    1    4    4    0    0  0.25283668397E+01 -0.12974113258E+01 -0.53040819345E-01  0.28423104359E+01  0.51100000000E-03 0. -1.
        -11    1    4    4    0    0  0.46385311292E+01 -0.42746663983E+01 -0.16192488722E+02  0.17377728135E+02  0.51100000000E-03 0.  1.
        -12    1    4    4    0    0 -0.46810928220E+01  0.21098758928E+02 -0.21249871254E+02  0.30308864819E+02  0.00000000000E+00 0.  1.
</event>
<event>
 8    1  0.1615837E-013  0.9118800E+02  0.7816164E-02  0.1184000E+00
        -11   -1    0    0    0    0  0.00000000000E+00  0.00000000000E+00  0.45593999997E+02  0.45594000000E+02  0.51100000000E-03 0. -1.
         11   -1    0    0    0    0 -0.00000000000E+00 -0.00000000000E+00 -0.45593999997E+02  0.45594000000E+02  0.51100000000E-03 0.  1.
         23    2    1    2    0    0  0.00000000000E+00  0.15265566589E-15  0.00000000000E+00  0.91188000000E+02  0.91188000000E+02 0.  0.
    9900012    2    3    3    0    0 -0.32869002550E+02 -0.46901525824E-01  0.23933071709E+02  0.50528862653E+02  0.30000008521E+02 0.  0.
        -12    1    3    3    0    0  0.32869002550E+02  0.46901525824E-01 -0.23933071709E+02  0.40659137347E+02  0.00000000000E+00 0.  1.
         11    1    4    4    0    0 -0.79420311143E+01 -0.58550676427E+01 -0.26592352616E+01  0.10219061002E+02  0.51100000000E-03 0. -1.
        -11    1    4    4    0    0 -0.17589945860E+01 -0.15313050606E+01 -0.17932320534E+01  0.29418767141E+01  0.51100000000E-03 0.  1.
         12    1    4    4    0    0 -0.23167976850E+02  0.73394711775E+01  0.28385539024E+02  0.37367924937E+02  0.00000000000E+00 0. -1.
</event>
<event>
 8    1  0.1615837E-013  0.9118800E+02  0.7816164E-02  0.1184000E+00
        -11   -1    0    0    0    0  0.00000000000E+00  0.00000000000E+00  0.45593999997E+02  0.45594000000E+02  0.51100000000E-03 0. -1.
         11   -1    0    0    0    0 -0.00000000000E+00 -0.00000000000E+00 -0.45593999997E+02  0.45594000000E+02  0.51100000000E-03 0.  1.
         23    2    1    2    0    0 -0.35527136788E-14  0.00000000000E+00  0.00000000000E+00  0.91188000000E+02  0.91188000000E+02 0.  0.
    9900012    2    3    3    0    0 -0.19383315721E+02 -0.11775424418E+02  0.33745999364E+02  0.50528855621E+02  0.29999987146E+02 0.  0.
        -12    1    3    3    0    0  0.19383315721E+02  0.11775424418E+02 -0.33745999364E+02  0.40659144379E+02  0.00000000000E+00 0.  1.
         11    1    4    4    0    0 -0.67437748165E+01  0.20110380668E+01 -0.22819080680E+01  0.73979644209E+01  0.51100000000E-03 0. -1.
        -11    1    4    4    0    0  0.14128285272E+01 -0.29483275676E+01  0.35628584172E+00  0.32887170379E+01  0.51100000000E-03 0.  1.
         12    1    4    4    0    0 -0.14052369432E+02 -0.10838134917E+02  0.35671621590E+02  0.39842174162E+02  0.00000000000E+00 0. -1.
</event>
<event>
 8    1  0.1615837E-013  0.9118800E+02  0.7816164E-02  0.1184000E+00
        -11   -1    0    0    0    0  0.00000000000E+00  0.00000000000E+00  0.45593999997E+02  0.45594000000E+02  0.51100000000E-03 0. -1.
         11   -1    0    0    0    0 -0.00000000000E+00 -0.00000000000E+00 -0.45593999997E+02  0.45594000000E+02  0.51100000000E-03 0.  1.
         23    2    1    2    0    0  0.71054273576E-14  0.00000000000E+00  0.35527136788E-14  0.91188000000E+02  0.91188000000E+02 0.  0.
    9900012    2    3    3    0    0  0.32165019794E+02 -0.84760823862E+01  0.23382322802E+02  0.50528862151E+02  0.30000006994E+02 0.  0.
        -12    1    3    3    0    0 -0.32165019794E+02  0.84760823862E+01 -0.23382322802E+02  0.40659137849E+02  0.00000000000E+00 0.  1.
         11    1    4    4    0    0  0.11378941919E+02 -0.91748707673E+01  0.18134022507E+02  0.23291658278E+02  0.51100000000E-03 0. -1.
        -11    1    4    4    0    0 -0.22241517512E+01  0.26830857024E+01 -0.25681972865E+00  0.34945323768E+01  0.51100000000E-03 0.  1.
        -12    1    4    4    0    0  0.23010229626E+02 -0.19842973214E+01  0.55051200244E+01  0.23742671496E+02  0.00000000000E+00 0.  1.
</event>
<event>
 8    1  0.1615837E-013  0.9118800E+02  0.7816164E-02  0.1184000E+00
        -11   -1    0    0    0    0  0.00000000000E+00  0.00000000000E+00  0.45593999997E+02  0.45594000000E+02  0.51100000000E-03 0. -1.
         11   -1    0    0    0    0 -0.00000000000E+00 -0.00000000000E+00 -0.45593999997E+02  0.45594000000E+02  0.51100000000E-03 0.  1.
         23    2    1    2    0    0 -0.22204460493E-15  0.00000000000E+00  0.00000000000E+00  0.91188000000E+02  0.91188000000E+02 0.  0.
    9900012    2    3    3    0    0  0.16204650074E+01  0.18430472334E+02 -0.36205731682E+02  0.50528890025E+02  0.30000091721E+02 0.  0.
         12    1    3    3    0    0 -0.16204650074E+01 -0.18430472334E+02  0.36205731682E+02  0.40659109975E+02  0.00000000000E+00 0. -1.
         11    1    4    4    0    0  0.29311815661E+01  0.69510628283E+01  0.14578088520E+01  0.76833786010E+01  0.51100000000E-03 0. -1.
        -11    1    4    4    0    0 -0.52661395659E+00  0.71628316329E+01 -0.28026245566E+01  0.77096163282E+01  0.51100000000E-03 0.  1.
        -12    1    4    4    0    0 -0.78410260210E+00  0.43165778724E+01 -0.34860915978E+02  0.35135895096E+02  0.00000000000E+00 0.  1.
</event>
<event>
 8    1  0.1615837E-013  0.9118800E+02  0.7816164E-02  0.1184000E+00
        -11   -1    0    0    0    0  0.00000000000E+00  0.00000000000E+00  0.45593999997E+02  0.45594000000E+02  0.51100000000E-03 0. -1.
         11   -1    0    0    0    0 -0.00000000000E+00 -0.00000000000E+00 -0.45593999997E+02  0.45594000000E+02  0.51100000000E-03 0.  1.
         23    2    1    2    0    0 -0.88817841970E-15 -0.35527136788E-14 -0.35527136788E-14  0.91188000000E+02  0.91188000000E+02 0.  0.
    9900012    2    3    3    0    0  0.45098143580E+01  0.28135493108E+02 -0.29003813502E+02  0.50528860859E+02  0.30000003068E+02 0.  0.
         12    1    3    3    0    0 -0.45098143580E+01 -0.28135493108E+02  0.29003813502E+02  0.40659139141E+02  0.00000000000E+00 0. -1.
         11    1    4    4    0    0  0.84827231151E+01  0.12236594375E+02 -0.86780051273E+01  0.17233647513E+02  0.51100000000E-03 0. -1.
        -11    1    4    4    0    0 -0.14281560702E+00  0.18799744945E+02 -0.87000109464E+01  0.20715718598E+02  0.51100000000E-03 0.  1.
         12    1    4    4    0    0 -0.38300931501E+01 -0.29008462119E+01 -0.11625797428E+02  0.12579494748E+02  0.00000000000E+00 0. -1.
</event>
<event>
 8    1  0.1615837E-013  0.9118800E+02  0.7816164E-02  0.1184000E+00
        -11   -1    0    0    0    0  0.00000000000E+00  0.00000000000E+00  0.45593999997E+02  0.45594000000E+02  0.51100000000E-03 0. -1.
         11   -1    0    0    0    0 -0.00000000000E+00 -0.00000000000E+00 -0.45593999997E+02  0.45594000000E+02  0.51100000000E-03 0.  1.
         23    2    1    2    0    0  0.00000000000E+00  0.00000000000E+00  0.00000000000E+00  0.91188000000E+02  0.91188000000E+02 0.  0.
    9900012    2    3    3    0    0 -0.45180207738E+01 -0.18427583086E+02  0.35960770537E+02  0.50528863908E+02  0.30000012336E+02 0.  0.
        -12    1    3    3    0    0  0.45180207738E+01  0.18427583086E+02 -0.35960770537E+02  0.40659136092E+02  0.00000000000E+00 0.  1.
         11    1    4    4    0    0 -0.19563733846E+01 -0.63165160502E+01  0.12007057877E+01  0.67206745556E+01  0.51100000000E-03 0. -1.
        -11    1    4    4    0    0 -0.21591339179E+01 -0.29890658728E+01 -0.31280208867E+01  0.48353788886E+01  0.51100000000E-03 0.  1.
         12    1    4    4    0    0 -0.40251347131E+00 -0.91220011631E+01  0.37888085636E+02  0.38972810464E+02  0.00000000000E+00 0. -1.
</event>
<event>
 8    1  0.1615837E-013  0.9118800E+02  0.7816164E-02  0.1184000E+00
        -11   -1    0    0    0    0  0.00000000000E+00  0.00000000000E+00  0.45593999997E+02  0.45594000000E+02  0.51100000000E-03 0. -1.
         11   -1    0    0    0    0 -0.00000000000E+00 -0.00000000000E+00 -0.45593999997E+02  0.45594000000E+02  0.51100000000E-03 0.  1.
         23    2    1    2    0    0  0.44408920985E-15  0.00000000000E+00  0.00000000000E+00  0.91188000000E+02  0.91188000000E+02 0.  0.
    9900012    2    3    3    0    0 -0.30109318631E+01 -0.20265797284E+02  0.35119829146E+02  0.50528798711E+02  0.29999814161E+02 0.  0.
        -12    1    3    3    0    0  0.30109318631E+01  0.20265797284E+02 -0.35119829146E+02  0.40659201289E+02  0.00000000000E+00 0.  1.
         11    1    4    4    0    0  0.24681013740E+01 -0.96829086451E+01  0.14959964328E+02  0.17990296750E+02  0.51100000000E-03 0. -1.
        -11    1    4    4    0    0  0.62676208161E+01 -0.82738028129E+01  0.17387794399E+02  0.20250290813E+02  0.51100000000E-03 0.  1.
         12    1    4    4    0    0 -0.11746654053E+02 -0.23090858264E+01  0.27720704189E+01  0.12288211148E+02  0.00000000000E+00 0. -1.
</event>
<event>
 8    1  0.1615837E-013  0.9118800E+02  0.7816164E-02  0.1184000E+00
        -11   -1    0    0    0    0  0.00000000000E+00  0.00000000000E+00  0.45593999997E+02  0.45594000000E+02  0.51100000000E-03 0. -1.
         11   -1    0    0    0    0 -0.00000000000E+00 -0.00000000000E+00 -0.45593999997E+02  0.45594000000E+02  0.51100000000E-03 0.  1.
         23    2    1    2    0    0  0.00000000000E+00  0.00000000000E+00  0.71054273576E-14  0.91188000000E+02  0.91188000000E+02 0.  0.
    9900012    2    3    3    0    0 -0.97373514015E+01 -0.22438807241E+02 -0.32478447683E+02  0.50528860233E+02  0.30000001164E+02 0.  0.
         12    1    3    3    0    0  0.97373514015E+01  0.22438807241E+02  0.32478447683E+02  0.40659139767E+02  0.00000000000E+00 0. -1.
         11    1    4    4    0    0 -0.26301527837E+01  0.49020219130E+01 -0.63677479540E+01  0.84555151687E+01  0.51100000000E-03 0.  1.
        -11    1    4    4    0    0  0.34608509005E+01  0.18957478177E+00 -0.33701914826E+01  0.48344201766E+01  0.51100000000E-03 0. -1.
        -12    1    4    4    0    0 -0.10568049518E+02 -0.27530403935E+02 -0.22740508247E+02  0.37238924887E+02  0.00000000000E+00 0.  1.
</event>
<event>
 8    1  0.1615837E-013  0.9118800E+02  0.7816164E-02  0.1184000E+00
        -11   -1    0    0    0    0  0.00000000000E+00  0.00000000000E+00  0.45593999997E+02  0.45594000000E+02  0.51100000000E-03 0. -1.
         11   -1    0    0    0    0 -0.00000000000E+00 -0.00000000000E+00 -0.45593999997E+02  0.45594000000E+02  0.51100000000E-03 0.  1.
         23    2    1    2    0    0  0.00000000000E+00  0.00000000000E+00  0.00000000000E+00  0.91188000000E+02  0.91188000000E+02 0.  0.
    9900012    2    3    3    0    0  0.32596935313E+02  0.13592772667E+02 -0.20145528235E+02  0.50528856275E+02  0.29999989132E+02 0.  0.
         12    1    3    3    0    0 -0.32596935313E+02 -0.13592772667E+02  0.20145528235E+02  0.40659143725E+02  0.00000000000E+00 0. -1.
         11    1    4    4    0    0  0.17179127311E+01 -0.18573676408E+00 -0.16510032528E+00  0.17357939612E+01  0.51100000000E-03 0. -1.
        -11    1    4    4    0    0  0.24575971820E+01  0.15636686344E+02 -0.49277470475E+01  0.16577950264E+02  0.51100000000E-03 0.  1.
        -12    1    4    4    0    0  0.28421425400E+02 -0.18581769123E+01 -0.15052680863E+02  0.32215112050E+02  0.00000000000E+00 0.  1.
</event>
<event>
 8    1  0.1615837E-013  0.9118800E+02  0.7816164E-02  0.1184000E+00
        -11   -1    0    0    0    0  0.00000000000E+00  0.00000000000E+00  0.45593999997E+02  0.45594000000E+02  0.51100000000E-03 0. -1.
         11   -1    0    0    0    0 -0.00000000000E+00 -0.00000000000E+00 -0.45593999997E+02  0.45594000000E+02  0.51100000000E-03 0.  1.
         23    2    1    2    0    0  0.00000000000E+00  0.35527136788E-14  0.00000000000E+00  0.91188000000E+02  0.91188000000E+02 0.  0.
    9900012    2    3    3    0    0  0.28997828477E+02  0.16516506190E+02  0.23226975272E+02  0.50528912290E+02  0.30000159396E+02 0.  0.
        -12    1    3    3    0    0 -0.28997828477E+02 -0.16516506190E+02 -0.23226975272E+02  0.40659087710E+02  0.00000000000E+00 0.  1.
         11    1    4    4    0    0  0.19952293037E+02  0.79423075314E+01  0.38653202922E+00  0.21478446257E+02  0.51100000000E-03 0. -1.
        -11    1    4    4    0    0  0.20843902391E+01  0.12748469097E+01 -0.13853525656E+01  0.28087576086E+01  0.51100000000E-03 0.  1.
        -12    1    4    4    0    0  0.69611452017E+01  0.72993517488E+01  0.24225795809E+02  0.26241708424E+02  0.00000000000E+00 0.  1.
</event>
<event>
 8    1  0.1615837E-013  0.9118800E+02  0.7816164E-02  0.1184000E+00
        -11   -1    0    0    0    0  0.00000000000E+00  0.00000000000E+00  0.45593999997E+02  0.45594000000E+02  0.51100000000E-03 0. -1.
         11   -1    0    0    0    0 -0.00000000000E+00 -0.00000000000E+00 -0.45593999997E+02  0.45594000000E+02  0.51100000000E-03 0.  1.
         23    2    1    2    0    0 -0.35527136788E-14 -0.44408920985E-15  0.71054273576E-14  0.91188000000E+02  0.91188000000E+02 0.  0.
    9900012    2    3    3    0    0  0.67536335257E+01  0.14488891290E+01 -0.40068124169E+02  0.50528863020E+02  0.30000009637E+02 0.  0.
         12    1    3    3    0    0 -0.67536335257E+01 -0.14488891290E+01  0.40068124169E+02  0.40659136980E+02  0.00000000000E+00 0. -1.
         11    1    4    4    0    0 -0.24609015136E+01 -0.15537139763E+01 -0.47446029994E-01  0.29107240966E+01  0.51100000000E-03 0. -1.
        -11    1    4    4    0    0 -0.78166102086E+01  0.29737191563E+01 -0.94162037438E+01  0.12593938779E+02  0.51100000000E-03 0.  1.
        -12    1    4    4    0    0  0.17031145248E+02  0.28883948977E-01 -0.30604474395E+02  0.35024200144E+02  0.00000000000E+00 0.  1.
</event>
<event>
 8    1  0.1615837E-013  0.9118800E+02  0.7816164E-02  0.1184000E+00
        -11   -1    0    0    0    0  0.00000000000E+00  0.00000000000E+00  0.45593999997E+02  0.45594000000E+02  0.51100000000E-03 0. -1.
         11   -1    0    0    0    0 -0.00000000000E+00 -0.00000000000E+00 -0.45593999997E+02  0.45594000000E+02  0.51100000000E-03 0.  1.
         23    2    1    2    0    0  0.17763568394E-14 -0.35527136788E-14  0.71054273576E-14  0.91188000000E+02  0.91188000000E+02 0.  0.
    9900012    2    3    3    0    0 -0.10878652662E+02  0.22339696303E+02 -0.32183202762E+02  0.50528860134E+02  0.30000000864E+02 0.  0.
         12    1    3    3    0    0  0.10878652662E+02 -0.22339696303E+02  0.32183202762E+02  0.40659139866E+02  0.00000000000E+00 0. -1.
         11    1    4    4    0    0 -0.13220911985E+02  0.13414325748E+02 -0.14262667619E+02  0.23625417178E+02  0.51100000000E-03 0. -1.
        -11    1    4    4    0    0 -0.11543632109E+01  0.10514279416E+01  0.34906288792E+01  0.38239436937E+01  0.51100000000E-03 0.  1.
        -12    1    4    4    0    0  0.34966225336E+01  0.78739426128E+01 -0.21411164022E+02  0.23079499262E+02  0.00000000000E+00 0.  1.
</event>
<event>
 8    1  0.1615837E-013  0.9118800E+02  0.7816164E-02  0.1184000E+00
        -11   -1    0    0    0    0  0.00000000000E+00  0.00000000000E+00  0.45593999997E+02  0.45594000000E+02  0.51100000000E-03 0. -1.
         11   -1    0    0    0    0 -0.00000000000E+00 -0.00000000000E+00 -0.45593999997E+02  0.45594000000E+02  0.51100000000E-03 0.  1.
         23    2    1    2    0    0 -0.22204460493E-15  0.17763568394E-14  0.71054273576E-14  0.91188000000E+02  0.91188000000E+02 0.  0.
    9900012    2    3    3    0    0 -0.17805202707E+01  0.15221691000E+02  0.37660304876E+02  0.50528822774E+02  0.29999887303E+02 0.  0.
        -12    1    3    3    0    0  0.17805202707E+01 -0.15221691000E+02 -0.37660304876E+02  0.40659177226E+02  0.00000000000E+00 0.  1.
         11    1    4    4    0    0  0.43538926208E+01  0.18441518194E+02  0.26703683349E+02  0.32743437188E+02  0.51100000000E-03 0. -1.
        -11    1    4    4    0    0  0.17312562288E+01  0.32108142572E+01  0.43011374588E+01  0.56397127609E+01  0.51100000000E-03 0.  1.
        -12    1    4    4    0    0 -0.78656691204E+01 -0.64306414503E+01  0.66554840682E+01  0.12145672824E+02  0.00000000000E+00 0.  1.
</event>
<event>
 8    1  0.1615837E-013  0.9118800E+02  0.7816164E-02  0.1184000E+00
        -11   -1    0    0    0    0  0.00000000000E+00  0.00000000000E+00  0.45593999997E+02  0.45594000000E+02  0.51100000000E-03 0. -1.
         11   -1    0    0    0    0 -0.00000000000E+00 -0.00000000000E+00 -0.45593999997E+02  0.45594000000E+02  0.51100000000E-03 0.  1.
         23    2    1    2    0    0 -0.35527136788E-14  0.00000000000E+00  0.35527136788E-14  0.91188000000E+02  0.91188000000E+02 0.  0.
    9900012    2    3    3    0    0 -0.19381789226E+02  0.18101492414E+02 -0.30819608674E+02  0.50528855149E+02  0.29999985710E+02 0.  0.
         12    1    3    3    0    0  0.19381789226E+02 -0.18101492414E+02  0.30819608674E+02  0.40659144851E+02  0.00000000000E+00 0. -1.
         11    1    4    4    0    0 -0.76979767972E+01  0.41811346588E+01 -0.19903774683E+02  0.21746286595E+02  0.51100000000E-03 0. -1.
        -11    1    4    4    0    0 -0.18583961889E+00  0.14129133562E+01 -0.11689038077E+02  0.11775587966E+02  0.51100000000E-03 0.  1.
         12    1    4    4    0    0 -0.11497972810E+02  0.12507444399E+02  0.77320408592E+00  0.17006980587E+02  0.00000000000E+00 0. -1.
</event>
<event>
 8    1  0.1615837E-013  0.9118800E+02  0.7816164E-02  0.1184000E+00
        -11   -1    0    0    0    0  0.00000000000E+00  0.00000000000E+00  0.45593999997E+02  0.45594000000E+02  0.51100000000E-03 0. -1.
         11   -1    0    0    0    0 -0.00000000000E+00 -0.00000000000E+00 -0.45593999997E+02  0.45594000000E+02  0.51100000000E-03 0.  1.
         23    2    1    2    0    0 -0.17763568394E-14  0.17763568394E-14  0.00000000000E+00  0.91188000000E+02  0.91188000000E+02 0.  0.
    9900012    2    3    3    0    0 -0.11432791783E+02 -0.15141529740E+02  0.35960974529E+02  0.50528851707E+02  0.29999975248E+02 0.  0.
        -12    1    3    3    0    0  0.11432791783E+02  0.15141529740E+02 -0.35960974529E+02  0.40659148293E+02  0.00000000000E+00 0.  1.
         11    1    4    4    0    0 -0.15012902778E+02 -0.52538061892E+01  0.20641666842E+02  0.26058935887E+02  0.51100000000E-03 0. -1.
        -11    1    4    4    0    0 -0.33942215750E+01 -0.44292137668E+00 -0.16777812947E+01  0.38120689632E+01  0.51100000000E-03 0.  1.
         12    1    4    4    0    0  0.69743325692E+01 -0.94448021742E+01  0.16997088982E+02  0.20657846857E+02  0.00000000000E+00 0. -1.
</event>
<event>
 8    1  0.1615837E-013  0.9118800E+02  0.7816164E-02  0.1184000E+00
        -11   -1    0    0    0    0  0.00000000000E+00  0.00000000000E+00  0.45593999997E+02  0.45594000000E+02  0.51100000000E-03 0. -1.
         11   -1    0    0    0    0 -0.00000000000E+00 -0.00000000000E+00 -0.45593999997E+02  0.45594000000E+02  0.51100000000E-03 0.  1.
         23    2    1    2    0    0 -0.17763568394E-14  0.00000000000E+00 -0.35527136788E-14  0.91188000000E+02  0.91188000000E+02 0.  0.
    9900012    2    3    3    0    0 -0.81293339552E+01  0.30643653205E+02 -0.25456782716E+02  0.50528839426E+02  0.29999937919E+02 0.  0.
         12    1    3    3    0    0  0.81293339552E+01 -0.30643653205E+02  0.25456782716E+02  0.40659160574E+02  0.00000000000E+00 0. -1.
         11    1    4    4    0    0 -0.22560041432E+00  0.34555950465E+00 -0.70582791604E+01  0.70703332231E+01  0.51100000000E-03 0. -1.
        -11    1    4    4    0    0  0.30116750124E+01  0.12135617448E+02 -0.18426510111E+02  0.22268355852E+02  0.51100000000E-03 0.  1.
        -12    1    4    4    0    0 -0.10915408553E+02  0.18162476252E+02  0.28006555333E-01  0.21190150350E+02  0.00000000000E+00 0.  1.
</event>
<event>
 8    1  0.1615837E-013  0.9118800E+02  0.7816164E-02  0.1184000E+00
        -11   -1    0    0    0    0  0.00000000000E+00  0.00000000000E+00  0.45593999997E+02  0.45594000000E+02  0.51100000000E-03 0.  1.
         11   -1    0    0    0    0 -0.00000000000E+00 -0.00000000000E+00 -0.45593999997E+02  0.45594000000E+02  0.51100000000E-03 0. -1.
         23    2    1    2    0    0  0.00000000000E+00  0.35527136788E-14  0.00000000000E+00  0.91188000000E+02  0.91188000000E+02 0.  0.
    9900012    2    3    3    0    0 -0.10779250979E+02 -0.29739354139E+02  0.25544941651E+02  0.50528862279E+02  0.30000007383E+02 0.  0.
        -12    1    3    3    0    0  0.10779250979E+02  0.29739354139E+02 -0.25544941651E+02  0.40659137721E+02  0.00000000000E+00 0.  1.
         11    1    4    4    0    0 -0.38683689169E+01 -0.10415188189E+02  0.14976932529E+02  0.18648027545E+02  0.51100000000E-03 0. -1.
        -11    1    4    4    0    0 -0.23954276060E+01 -0.51748374336E+01  0.15271579052E+02  0.16301476708E+02  0.51100000000E-03 0.  1.
         12    1    4    4    0    0 -0.45154544558E+01 -0.14149328516E+02 -0.47035699292E+01  0.15579358025E+02  0.00000000000E+00 0. -1.
</event>
<event>
 8    1  0.1615837E-013  0.9118800E+02  0.7816164E-02  0.1184000E+00
        -11   -1    0    0    0    0  0.00000000000E+00  0.00000000000E+00  0.45593999997E+02  0.45594000000E+02  0.51100000000E-03 0.  1.
         11   -1    0    0    0    0 -0.00000000000E+00 -0.00000000000E+00 -0.45593999997E+02  0.45594000000E+02  0.51100000000E-03 0. -1.
         23    2    1    2    0    0  0.00000000000E+00  0.17763568394E-14  0.00000000000E+00  0.91188000000E+02  0.91188000000E+02 0.  0.
    9900012    2    3    3    0    0  0.36561335715E+02 -0.15627363298E+02 -0.84982546267E+01  0.50528854846E+02  0.29999984790E+02 0.  0.
        -12    1    3    3    0    0 -0.36561335715E+02  0.15627363298E+02  0.84982546267E+01  0.40659145154E+02  0.00000000000E+00 0.  1.
         11    1    4    4    0    0  0.13109205700E+02 -0.13462675796E+02  0.55067281358E+01  0.19581087016E+02  0.51100000000E-03 0. -1.
        -11    1    4    4    0    0  0.80569686758E+01 -0.36059377254E+01  0.16096682581E+01  0.89726564230E+01  0.51100000000E-03 0.  1.
         12    1    4    4    0    0  0.15395161339E+02  0.14412502235E+01 -0.15614651021E+02  0.21975111407E+02  0.00000000000E+00 0. -1.
</event>
<event>
 8    1  0.1615837E-013  0.9118800E+02  0.7816164E-02  0.1184000E+00
        -11   -1    0    0    0    0  0.00000000000E+00  0.00000000000E+00  0.45593999997E+02  0.45594000000E+02  0.51100000000E-03 0. -1.
         11   -1    0    0    0    0 -0.00000000000E+00 -0.00000000000E+00 -0.45593999997E+02  0.45594000000E+02  0.51100000000E-03 0.  1.
         23    2    1    2    0    0 -0.26645352591E-14  0.00000000000E+00  0.00000000000E+00  0.91188000000E+02  0.91188000000E+02 0.  0.
    9900012    2    3    3    0    0 -0.29861701424E+01  0.30163759907E+02 -0.27099779775E+02  0.50528835133E+02  0.29999924870E+02 0.  0.
         12    1    3    3    0    0  0.29861701424E+01 -0.30163759907E+02  0.27099779775E+02  0.40659164867E+02  0.00000000000E+00 0. -1.
         11    1    4    4    0    0 -0.12697945201E+02  0.82877539995E+01 -0.17354083671E+02  0.23045366107E+02  0.51100000000E-03 0. -1.
        -11    1    4    4    0    0 -0.37396146137E+00 -0.22093655693E+00 -0.19133842197E+01  0.19620651289E+01  0.51100000000E-03 0.  1.
        -12    1    4    4    0    0  0.10085736520E+02  0.22096942464E+02 -0.78323118845E+01  0.25521403897E+02  0.00000000000E+00 0.  1.
</event>
<event>
 8    1  0.1615837E-013  0.9118800E+02  0.7816164E-02  0.1184000E+00
        -11   -1    0    0    0    0  0.00000000000E+00  0.00000000000E+00  0.45593999997E+02  0.45594000000E+02  0.51100000000E-03 0. -1.
         11   -1    0    0    0    0 -0.00000000000E+00 -0.00000000000E+00 -0.45593999997E+02  0.45594000000E+02  0.51100000000E-03 0.  1.
         23    2    1    2    0    0 -0.71054273576E-14 -0.13322676296E-14 -0.35527136788E-14  0.91188000000E+02  0.91188000000E+02 0.  0.
    9900012    2    3    3    0    0 -0.34944636825E+02 -0.39427831073E+01 -0.20408142009E+02  0.50528862752E+02  0.30000008822E+02 0.  0.
         12    1    3    3    0    0  0.34944636825E+02  0.39427831073E+01  0.20408142009E+02  0.40659137248E+02  0.00000000000E+00 0. -1.
         11    1    4    4    0    0  0.92056030301E+00 -0.57875689486E+01  0.96974496966E+00  0.59400160920E+01  0.51100000000E-03 0. -1.
        -11    1    4    4    0    0 -0.98464232619E+01 -0.58089700006E+01 -0.29733377979E+01  0.11812574717E+02  0.51100000000E-03 0.  1.
        -12    1    4    4    0    0 -0.26018773866E+02  0.76537558418E+01 -0.18404549180E+02  0.32776271944E+02  0.00000000000E+00 0.  1.
</event>
<event>
 8    1  0.1615837E-013  0.9118800E+02  0.7816164E-02  0.1184000E+00
        -11   -1    0    0    0    0  0.00000000000E+00  0.00000000000E+00  0.45593999997E+02  0.45594000000E+02  0.51100000000E-03 0. -1.
         11   -1    0    0    0    0 -0.00000000000E+00 -0.00000000000E+00 -0.45593999997E+02  0.45594000000E+02  0.51100000000E-03 0.  1.
         23    2    1    2    0    0  0.00000000000E+00 -0.35527136788E-14  0.00000000000E+00  0.91188000000E+02  0.91188000000E+02 0.  0.
    9900012    2    3    3    0    0 -0.85558872770E+01  0.17470335645E+02  0.35703638279E+02  0.50528860548E+02  0.30000002121E+02 0.  0.
        -12    1    3    3    0    0  0.85558872770E+01 -0.17470335645E+02 -0.35703638279E+02  0.40659139452E+02  0.00000000000E+00 0.  1.
         11    1    4    4    0    0 -0.53858984085E+01  0.20899653669E+02  0.20727762714E+02  0.29923963182E+02  0.51100000000E-03 0. -1.
        -11    1    4    4    0    0  0.20616868947E+01  0.15837642110E+01  0.12768292929E+02  0.13030278835E+02  0.51100000000E-03 0.  1.
        -12    1    4    4    0    0 -0.52316757633E+01 -0.50130822352E+01  0.22075826356E+01  0.75746185304E+01  0.00000000000E+00 0.  1.
</event>
<event>
 8    1  0.1615837E-013  0.9118800E+02  0.7816164E-02  0.1184000E+00
        -11   -1    0    0    0    0  0.00000000000E+00  0.00000000000E+00  0.45593999997E+02  0.45594000000E+02  0.51100000000E-03 0. -1.
         11   -1    0    0    0    0 -0.00000000000E+00 -0.00000000000E+00 -0.45593999997E+02  0.45594000000E+02  0.51100000000E-03 0.  1.
         23    2    1    2    0    0 -0.35527136788E-14  0.44408920985E-15  0.71054273576E-14  0.91188000000E+02  0.91188000000E+02 0.  0.
    9900012    2    3    3    0    0  0.24578713195E+02 -0.13161320689E+01 -0.32362330615E+02  0.50528858485E+02  0.29999995851E+02 0.  0.
         12    1    3    3    0    0 -0.24578713195E+02  0.13161320689E+01  0.32362330615E+02  0.40659141515E+02  0.00000000000E+00 0. -1.
         11    1    4    4    0    0  0.64558434744E+01 -0.47225139601E+01 -0.10256598551E+01  0.80642440110E+01  0.51100000000E-03 0. -1.
        -11    1    4    4    0    0  0.18613859426E+02  0.74461316377E+00 -0.10363317172E+02  0.21317329911E+02  0.51100000000E-03 0.  1.
         12    1    4    4    0    0 -0.49098970524E+00  0.26617687274E+01 -0.20973353588E+02  0.21147284563E+02  0.00000000000E+00 0. -1.
</event>
<event>
 8    1  0.1615837E-013  0.9118800E+02  0.7816164E-02  0.1184000E+00
        -11   -1    0    0    0    0  0.00000000000E+00  0.00000000000E+00  0.45593999997E+02  0.45594000000E+02  0.51100000000E-03 0. -1.
         11   -1    0    0    0    0 -0.00000000000E+00 -0.00000000000E+00 -0.45593999997E+02  0.45594000000E+02  0.51100000000E-03 0.  1.
         23    2    1    2    0    0  0.00000000000E+00  0.35527136788E-14  0.00000000000E+00  0.91188000000E+02  0.91188000000E+02 0.  0.
    9900012    2    3    3    0    0  0.13703817569E+02  0.18916677175E+02 -0.33279578019E+02  0.50528860752E+02  0.30000002741E+02 0.  0.
         12    1    3    3    0    0 -0.13703817569E+02 -0.18916677175E+02  0.33279578019E+02  0.40659139248E+02  0.00000000000E+00 0. -1.
         11    1    4    4    0    0  0.83723440926E+01  0.13073850283E+01 -0.92430356020E+01  0.12539501929E+02  0.51100000000E-03 0. -1.
        -11    1    4    4    0    0  0.13414767012E+02  0.10318686082E+02 -0.20413492792E+02  0.26516823804E+02  0.51100000000E-03 0.  1.
         12    1    4    4    0    0 -0.80832935356E+01  0.72906060646E+01 -0.36230496249E+01  0.11472535019E+02  0.00000000000E+00 0. -1.
</event>
<event>
 8    1  0.1615837E-013  0.9118800E+02  0.7816164E-02  0.1184000E+00
        -11   -1    0    0    0    0  0.00000000000E+00  0.00000000000E+00  0.45593999997E+02  0.45594000000E+02  0.51100000000E-03 0. -1.
         11   -1    0    0    0    0 -0.00000000000E+00 -0.00000000000E+00 -0.45593999997E+02  0.45594000000E+02  0.51100000000E-03 0.  1.
         23    2    1    2    0    0  0.00000000000E+00  0.00000000000E+00  0.00000000000E+00  0.91188000000E+02  0.91188000000E+02 0.  0.
    9900012    2    3    3    0    0  0.17561281779E+02 -0.78990167713E+01  0.35810212100E+02  0.50528875879E+02  0.30000048721E+02 0.  0.
        -12    1    3    3    0    0 -0.17561281779E+02  0.78990167713E+01 -0.35810212100E+02  0.40659124121E+02  0.00000000000E+00 0.  1.
         11    1    4    4    0    0 -0.25566930835E+01 -0.75617596750E+01  0.55048089015E+01  0.96963812945E+01  0.51100000000E-03 0. -1.
        -11    1    4    4    0    0 -0.20630966865E+01 -0.43575720663E+01  0.55207511413E+01  0.73296313465E+01  0.51100000000E-03 0.  1.
        -12    1    4    4    0    0  0.22181071549E+02  0.40203149700E+01  0.24784652057E+02  0.33502863238E+02  0.00000000000E+00 0.  1.
</event>
<event>
 8    1  0.1615837E-013  0.9118800E+02  0.7816164E-02  0.1184000E+00
        -11   -1    0    0    0    0  0.00000000000E+00  0.00000000000E+00  0.45593999997E+02  0.45594000000E+02  0.51100000000E-03 0. -1.
         11   -1    0    0    0    0 -0.00000000000E+00 -0.00000000000E+00 -0.45593999997E+02  0.45594000000E+02  0.51100000000E-03 0.  1.
         23    2    1    2    0    0 -0.55511151231E-15  0.35527136788E-14  0.00000000000E+00  0.91188000000E+02  0.91188000000E+02 0.  0.
    9900012    2    3    3    0    0  0.61812822234E+00 -0.17455669694E+02  0.36716255074E+02  0.50528857441E+02  0.29999992677E+02 0.  0.
        -12    1    3    3    0    0 -0.61812822234E+00  0.17455669694E+02 -0.36716255074E+02  0.40659142559E+02  0.00000000000E+00 0.  1.
         11    1    4    4    0    0  0.40490510200E+01 -0.11810766531E+02  0.88524857996E+01  0.15305408368E+02  0.51100000000E-03 0. -1.
        -11    1    4    4    0    0  0.24915593482E+01 -0.98278671236E+01  0.51326575844E+01  0.11363934808E+02  0.51100000000E-03 0.  1.
         12    1    4    4    0    0 -0.59224821459E+01  0.41829639610E+01  0.22731111690E+02  0.23859514265E+02  0.00000000000E+00 0. -1.
</event>
<event>
 8    1  0.1615837E-013  0.9118800E+02  0.7816164E-02  0.1184000E+00
        -11   -1    0    0    0    0  0.00000000000E+00  0.00000000000E+00  0.45593999997E+02  0.45594000000E+02  0.51100000000E-03 0. -1.
         11   -1    0    0    0    0 -0.00000000000E+00 -0.00000000000E+00 -0.45593999997E+02  0.45594000000E+02  0.51100000000E-03 0.  1.
         23    2    1    2    0    0  0.71054273576E-14  0.00000000000E+00  0.17763568394E-14  0.91188000000E+02  0.91188000000E+02 0.  0.
    9900012    2    3    3    0    0  0.36208169104E+02  0.13642836473E+02  0.12490303224E+02  0.50528853777E+02  0.29999981542E+02 0.  0.
        -12    1    3    3    0    0 -0.36208169104E+02 -0.13642836473E+02 -0.12490303224E+02  0.40659146223E+02  0.00000000000E+00 0.  1.
         11    1    4    4    0    0  0.19989059561E+01  0.14312385699E+01 -0.12576565471E+01  0.27614795159E+01  0.51100000000E-03 0. -1.
        -11    1    4    4    0    0 -0.11980682264E+01  0.14171958296E+01 -0.56708674292E+01  0.59667871719E+01  0.51100000000E-03 0.  1.
        -12    1    4    4    0    0  0.35407331375E+02  0.10794402073E+02  0.19418827200E+02  0.41800587090E+02  0.00000000000E+00 0.  1.
</event>
<event>
 8    1  0.1615837E-013  0.9118800E+02  0.7816164E-02  0.1184000E+00
        -11   -1    0    0    0    0  0.00000000000E+00  0.00000000000E+00  0.45593999997E+02  0.45594000000E+02  0.51100000000E-03 0. -1.
         11   -1    0    0    0    0 -0.00000000000E+00 -0.00000000000E+00 -0.45593999997E+02  0.45594000000E+02  0.51100000000E-03 0.  1.
         23    2    1    2    0    0  0.00000000000E+00  0.00000000000E+00  0.35527136788E-14  0.91188000000E+02  0.91188000000E+02 0.  0.
    9900012    2    3    3    0    0 -0.26873588791E+02 -0.87128644107E+01 -0.29241501704E+02  0.50528816503E+02  0.29999868241E+02 0.  0.
         12    1    3    3    0    0  0.26873588791E+02  0.87128644107E+01  0.29241501704E+02  0.40659183497E+02  0.00000000000E+00 0. -1.
         11    1    4    4    0    0 -0.73878023477E+01 -0.44273260729E+01  0.53965871509E+00  0.86297202432E+01  0.51100000000E-03 0. -1.
        -11    1    4    4    0    0 -0.22918116707E+01 -0.47735718846E+01  0.20817711938E+01  0.56897417196E+01  0.51100000000E-03 0.  1.
        -12    1    4    4    0    0 -0.17193974772E+02  0.48803354680E+00 -0.31862931613E+02  0.36209354540E+02  0.00000000000E+00 0.  1.
</event>
<event>
 8    1  0.1615837E-013  0.9118800E+02  0.7816164E-02  0.1184000E+00
        -11   -1    0    0    0    0  0.00000000000E+00  0.00000000000E+00  0.45593999997E+02  0.45594000000E+02  0.51100000000E-03 0. -1.
         11   -1    0    0    0    0 -0.00000000000E+00 -0.00000000000E+00 -0.45593999997E+02  0.45594000000E+02  0.51100000000E-03 0.  1.
         23    2    1    2    0    0 -0.71054273576E-14 -0.17763568394E-14  0.88817841970E-15  0.91188000000E+02  0.91188000000E+02 0.  0.
    9900012    2    3    3    0    0  0.38201700669E+02  0.13665535369E+02 -0.26548893724E+01  0.50528865374E+02  0.30000016792E+02 0.  0.
         12    1    3    3    0    0 -0.38201700669E+02 -0.13665535369E+02  0.26548893724E+01  0.40659134626E+02  0.00000000000E+00 0. -1.
         11    1    4    4    0    0  0.51098286457E+01  0.87390058737E+01 -0.67805383580E+00  0.10145951395E+02  0.51100000000E-03 0.  1.
        -11    1    4    4    0    0  0.32296748476E+02  0.21595201926E+01  0.50766026176E+01  0.32764544618E+02  0.51100000000E-03 0. -1.
         12    1    4    4    0    0  0.79512354721E+00  0.27670093024E+01 -0.70534381542E+01  0.76183693616E+01  0.00000000000E+00 0. -1.
</event>
<event>
 8    1  0.1615837E-013  0.9118800E+02  0.7816164E-02  0.1184000E+00
        -11   -1    0    0    0    0  0.00000000000E+00  0.00000000000E+00  0.45593999997E+02  0.45594000000E+02  0.51100000000E-03 0. -1.
         11   -1    0    0    0    0 -0.00000000000E+00 -0.00000000000E+00 -0.45593999997E+02  0.45594000000E+02  0.51100000000E-03 0.  1.
         23    2    1    2    0    0 -0.35527136788E-14 -0.17763568394E-14  0.00000000000E+00  0.91188000000E+02  0.91188000000E+02 0.  0.
    9900012    2    3    3    0    0 -0.18448801563E+02 -0.14973604839E+02 -0.32993911208E+02  0.50528864522E+02  0.30000014202E+02 0.  0.
         12    1    3    3    0    0  0.18448801563E+02  0.14973604839E+02  0.32993911208E+02  0.40659135478E+02  0.00000000000E+00 0. -1.
         11    1    4    4    0    0 -0.18454653836E+02 -0.10716073764E+02 -0.80615110062E+01  0.22812199479E+02  0.51100000000E-03 0. -1.
        -11    1    4    4    0    0  0.30391124924E+01  0.28154869964E-02 -0.96994951557E+00  0.31901434125E+01  0.51100000000E-03 0.  1.
        -12    1    4    4    0    0 -0.30332602191E+01 -0.42603465626E+01 -0.23962450686E+02  0.24526521630E+02  0.00000000000E+00 0.  1.
</event>
<event>
 8    1  0.1615837E-013  0.9118800E+02  0.7816164E-02  0.1184000E+00
        -11   -1    0    0    0    0  0.00000000000E+00  0.00000000000E+00  0.45593999997E+02  0.45594000000E+02  0.51100000000E-03 0.  1.
         11   -1    0    0    0    0 -0.00000000000E+00 -0.00000000000E+00 -0.45593999997E+02  0.45594000000E+02  0.51100000000E-03 0. -1.
         23    2    1    2    0    0  0.35527136788E-14 -0.17763568394E-14  0.00000000000E+00  0.91188000000E+02  0.91188000000E+02 0.  0.
    9900012    2    3    3    0    0  0.23752245622E+02 -0.12762524755E+02  0.30432135127E+02  0.50528855167E+02  0.29999985764E+02 0.  0.
        -12    1    3    3    0    0 -0.23752245622E+02  0.12762524755E+02 -0.30432135127E+02  0.40659144833E+02  0.00000000000E+00 0.  1.
         11    1    4    4    0    0  0.26053189826E+02 -0.11264364028E+02  0.29658538114E+02  0.41052204330E+02  0.51100000000E-03 0. -1.
        -11    1    4    4    0    0  0.18749911913E+01 -0.30251163911E+01 -0.21473562512E+01  0.41566886193E+01  0.51100000000E-03 0.  1.
        -12    1    4    4    0    0 -0.41759353948E+01  0.15269556640E+01  0.29209532634E+01  0.53199622168E+01  0.00000000000E+00 0.  1.
</event>
<event>
 8    1  0.1615837E-013  0.9118800E+02  0.7816164E-02  0.1184000E+00
        -11   -1    0    0    0    0  0.00000000000E+00  0.00000000000E+00  0.45593999997E+02  0.45594000000E+02  0.51100000000E-03 0. -1.
         11   -1    0    0    0    0 -0.00000000000E+00 -0.00000000000E+00 -0.45593999997E+02  0.45594000000E+02  0.51100000000E-03 0.  1.
         23    2    1    2    0    0  0.00000000000E+00  0.00000000000E+00  0.00000000000E+00  0.91188000000E+02  0.91188000000E+02 0.  0.
    9900012    2    3    3    0    0  0.24965058688E+02  0.25442836182E+02 -0.19559485488E+02  0.50528861534E+02  0.30000005118E+02 0.  0.
         12    1    3    3    0    0 -0.24965058688E+02 -0.25442836182E+02  0.19559485488E+02  0.40659138466E+02  0.00000000000E+00 0. -1.
         11    1    4    4    0    0  0.15035204512E+01  0.87100543373E+01  0.13222517729E+01  0.89372238596E+01  0.51100000000E-03 0. -1.
        -11    1    4    4    0    0  0.26682877556E+02  0.14772343605E+02 -0.13605392645E+02  0.33396179415E+02  0.51100000000E-03 0.  1.
        -12    1    4    4    0    0 -0.32213393193E+01  0.19604382399E+01 -0.72763446162E+01  0.81954582590E+01  0.00000000000E+00 0.  1.
</event>
<event>
 8    1  0.1615837E-013  0.9118800E+02  0.7816164E-02  0.1184000E+00
        -11   -1    0    0    0    0  0.00000000000E+00  0.00000000000E+00  0.45593999997E+02  0.45594000000E+02  0.51100000000E-03 0. -1.
         11   -1    0    0    0    0 -0.00000000000E+00 -0.00000000000E+00 -0.45593999997E+02  0.45594000000E+02  0.51100000000E-03 0.  1.
         23    2    1    2    0    0  0.00000000000E+00  0.00000000000E+00  0.00000000000E+00  0.91188000000E+02  0.91188000000E+02 0.  0.
    9900012    2    3    3    0    0  0.92433934840E+01 -0.30965929158E+02 -0.24674595423E+02  0.50528871247E+02  0.30000034641E+02 0.  0.
         12    1    3    3    0    0 -0.92433934840E+01  0.30965929158E+02  0.24674595423E+02  0.40659128753E+02  0.00000000000E+00 0. -1.
         11    1    4    4    0    0  0.43595187579E+00 -0.42392580992E+01  0.47398716552E+01  0.63739898681E+01  0.51100000000E-03 0. -1.
        -11    1    4    4    0    0  0.13086374669E+02 -0.14199752521E+02 -0.14087803878E+02  0.23902978727E+02  0.51100000000E-03 0.  1.
         12    1    4    4    0    0 -0.42789330608E+01 -0.12526918537E+02 -0.15326663200E+02  0.20251902652E+02  0.00000000000E+00 0. -1.
</event>
<event>
 8    1  0.1615837E-013  0.9118800E+02  0.7816164E-02  0.1184000E+00
        -11   -1    0    0    0    0  0.00000000000E+00  0.00000000000E+00  0.45593999997E+02  0.45594000000E+02  0.51100000000E-03 0. -1.
         11   -1    0    0    0    0 -0.00000000000E+00 -0.00000000000E+00 -0.45593999997E+02  0.45594000000E+02  0.51100000000E-03 0.  1.
         23    2    1    2    0    0  0.00000000000E+00  0.00000000000E+00  0.71054273576E-14  0.91188000000E+02  0.91188000000E+02 0.  0.
    9900012    2    3    3    0    0  0.21651384603E+02  0.23982930164E+01  0.34331216691E+02  0.50528847228E+02  0.29999961635E+02 0.  0.
        -12    1    3    3    0    0 -0.21651384603E+02 -0.23982930164E+01 -0.34331216691E+02  0.40659152772E+02  0.00000000000E+00 0.  1.
         11    1    4    4    0    0  0.25921574319E+01 -0.16324261537E+01 -0.23617493304E+01  0.38680686989E+01  0.51100000000E-03 0. -1.
        -11    1    4    4    0    0 -0.87411264881E+00  0.63451830944E+01  0.22321148460E+01  0.67829019137E+01  0.51100000000E-03 0.  1.
         12    1    4    4    0    0  0.19933339820E+02 -0.23144639244E+01  0.34460851175E+02  0.39877876616E+02  0.00000000000E+00 0. -1.
</event>
<event>
 8    1  0.1615837E-013  0.9118800E+02  0.7816164E-02  0.1184000E+00
        -11   -1    0    0    0    0  0.00000000000E+00  0.00000000000E+00  0.45593999997E+02  0.45594000000E+02  0.51100000000E-03 0.  1.
         11   -1    0    0    0    0 -0.00000000000E+00 -0.00000000000E+00 -0.45593999997E+02  0.45594000000E+02  0.51100000000E-03 0. -1.
         23    2    1    2    0    0  0.35527136788E-14  0.00000000000E+00  0.88817841970E-15  0.91188000000E+02  0.91188000000E+02 0.  0.
    9900012    2    3    3    0    0  0.31479444279E+02 -0.24592399859E+02 -0.75781416250E+01  0.50528809484E+02  0.29999846908E+02 0.  0.
         12    1    3    3    0    0 -0.31479444279E+02  0.24592399859E+02  0.75781416250E+01  0.40659190516E+02  0.00000000000E+00 0. -1.
         11    1    4    4    0    0  0.65828746778E+01  0.97570933290E-01 -0.79761258888E+01  0.10342260080E+02  0.51100000000E-03 0. -1.
        -11    1    4    4    0    0  0.52760528639E+01  0.28914707896E+01 -0.17630799384E+01  0.62694328516E+01  0.51100000000E-03 0.  1.
         12    1    4    4    0    0  0.19620516737E+02 -0.27581441582E+02  0.21610642023E+01  0.33917116552E+02  0.00000000000E+00 0. -1.
</event>
<event>
 8    1  0.1615837E-013  0.9118800E+02  0.7816164E-02  0.1184000E+00
        -11   -1    0    0    0    0  0.00000000000E+00  0.00000000000E+00  0.45593999997E+02  0.45594000000E+02  0.51100000000E-03 0. -1.
         11   -1    0    0    0    0 -0.00000000000E+00 -0.00000000000E+00 -0.45593999997E+02  0.45594000000E+02  0.51100000000E-03 0.  1.
         23    2    1    2    0    0 -0.35527136788E-14  0.00000000000E+00  0.00000000000E+00  0.91188000000E+02  0.91188000000E+02 0.  0.
    9900012    2    3    3    0    0  0.20584311583E+02 -0.30686049049E+02  0.16965095879E+02  0.50528905473E+02  0.30000138675E+02 0.  0.
        -12    1    3    3    0    0 -0.20584311583E+02  0.30686049049E+02 -0.16965095879E+02  0.40659094527E+02  0.00000000000E+00 0.  1.
         11    1    4    4    0    0  0.88687474212E+01 -0.38972646160E+01  0.66949730500E+01  0.11775653558E+02  0.51100000000E-03 0. -1.
        -11    1    4    4    0    0  0.13427066640E+02 -0.47323743614E+01 -0.28952712971E+00  0.14239568528E+02  0.51100000000E-03 0.  1.
        -12    1    4    4    0    0 -0.17115024776E+01 -0.22056410071E+02  0.10559649958E+02  0.24513683387E+02  0.00000000000E+00 0.  1.
</event>
<event>
 8    1  0.1615837E-013  0.9118800E+02  0.7816164E-02  0.1184000E+00
        -11   -1    0    0    0    0  0.00000000000E+00  0.00000000000E+00  0.45593999997E+02  0.45594000000E+02  0.51100000000E-03 0. -1.
         11   -1    0    0    0    0 -0.00000000000E+00 -0.00000000000E+00 -0.45593999997E+02  0.45594000000E+02  0.51100000000E-03 0.  1.
         23    2    1    2    0    0  0.35527136788E-14  0.00000000000E+00  0.00000000000E+00  0.91188000000E+02  0.91188000000E+02 0.  0.
    9900012    2    3    3    0    0  0.17991946903E+02  0.23343347994E+02  0.28009708052E+02  0.50528858419E+02  0.29999995651E+02 0.  0.
        -12    1    3    3    0    0 -0.17991946903E+02 -0.23343347994E+02 -0.28009708052E+02  0.40659141581E+02  0.00000000000E+00 0.  1.
         11    1    4    4    0    0  0.36232906845E+00  0.40186877637E+01  0.26328572731E+01  0.48179945390E+01  0.51100000000E-03 0. -1.
        -11    1    4    4    0    0  0.12452074109E+01  0.21457357523E+02  0.14034328831E+02  0.25669653667E+02  0.51100000000E-03 0.  1.
         12    1    4    4    0    0  0.16384410424E+02 -0.21326972933E+01  0.11342521948E+02  0.20041210213E+02  0.00000000000E+00 0. -1.
</event>
<event>
 8    1  0.1615837E-013  0.9118800E+02  0.7816164E-02  0.1184000E+00
        -11   -1    0    0    0    0  0.00000000000E+00  0.00000000000E+00  0.45593999997E+02  0.45594000000E+02  0.51100000000E-03 0. -1.
         11   -1    0    0    0    0 -0.00000000000E+00 -0.00000000000E+00 -0.45593999997E+02  0.45594000000E+02  0.51100000000E-03 0.  1.
         23    2    1    2    0    0  0.00000000000E+00  0.00000000000E+00  0.00000000000E+00  0.91188000000E+02  0.91188000000E+02 0.  0.
    9900012    2    3    3    0    0 -0.18666400813E+02  0.17063973569E+02  0.31836335791E+02  0.50528856011E+02  0.29999988332E+02 0.  0.
        -12    1    3    3    0    0  0.18666400813E+02 -0.17063973569E+02 -0.31836335791E+02  0.40659143989E+02  0.00000000000E+00 0.  1.
         11    1    4    4    0    0 -0.17796899055E+02  0.14235704249E+02  0.10152323472E+02  0.24949039332E+02  0.51100000000E-03 0. -1.
        -11    1    4    4    0    0 -0.12229939980E+01  0.38940294679E+01  0.22109707241E+00  0.40875498764E+01  0.51100000000E-03 0.  1.
        -12    1    4    4    0    0  0.35349224002E+00 -0.10657601477E+01  0.21462915247E+02  0.21492266803E+02  0.00000000000E+00 0.  1.
</event>
<event>
 8    1  0.1615837E-013  0.9118800E+02  0.7816164E-02  0.1184000E+00
        -11   -1    0    0    0    0  0.00000000000E+00  0.00000000000E+00  0.45593999997E+02  0.45594000000E+02  0.51100000000E-03 0. -1.
         11   -1    0    0    0    0 -0.00000000000E+00 -0.00000000000E+00 -0.45593999997E+02  0.45594000000E+02  0.51100000000E-03 0.  1.
         23    2    1    2    0    0  0.88817841970E-15  0.88817841970E-15  0.71054273576E-14  0.91188000000E+02  0.91188000000E+02 0.  0.
    9900012    2    3    3    0    0 -0.77159806164E+01 -0.73045941529E+01 -0.39246302103E+02  0.50528859806E+02  0.29999999865E+02 0.  0.
         12    1    3    3    0    0  0.77159806164E+01  0.73045941529E+01  0.39246302103E+02  0.40659140194E+02  0.00000000000E+00 0. -1.
         11    1    4    4    0    0 -0.80041177402E+01 -0.19772219330E+01 -0.27709997689E+01  0.86979162649E+01  0.51100000000E-03 0. -1.
        -11    1    4    4    0    0 -0.92784525788E+01 -0.55155313417E+01 -0.17100836006E+02  0.20222496399E+02  0.51100000000E-03 0.  1.
        -12    1    4    4    0    0  0.95665897027E+01  0.18815912184E+00 -0.19374466328E+02  0.21608447142E+02  0.00000000000E+00 0.  1.
</event>
<event>
 8    1  0.1615837E-013  0.9118800E+02  0.7816164E-02  0.1184000E+00
        -11   -1    0    0    0    0  0.00000000000E+00  0.00000000000E+00  0.45593999997E+02  0.45594000000E+02  0.51100000000E-03 0. -1.
         11   -1    0    0    0    0 -0.00000000000E+00 -0.00000000000E+00 -0.45593999997E+02  0.45594000000E+02  0.51100000000E-03 0.  1.
         23    2    1    2    0    0  0.00000000000E+00  0.00000000000E+00  0.00000000000E+00  0.91188000000E+02  0.91188000000E+02 0.  0.
    9900012    2    3    3    0    0 -0.23245525307E+02  0.18502314074E+02  0.27757436264E+02  0.50528863993E+02  0.30000012594E+02 0.  0.
        -12    1    3    3    0    0  0.23245525307E+02 -0.18502314074E+02 -0.27757436264E+02  0.40659136007E+02  0.00000000000E+00 0.  1.
         11    1    4    4    0    0  0.23132326698E+01 -0.44173487718E+01  0.57580761488E+01  0.76170503971E+01  0.51100000000E-03 0. -1.
        -11    1    4    4    0    0 -0.93396421763E+00 -0.86227951121E+00  0.40763061550E+01  0.42699048286E+01  0.51100000000E-03 0.  1.
         12    1    4    4    0    0 -0.24624793760E+02  0.23781942357E+02  0.17923053960E+02  0.38641908767E+02  0.00000000000E+00 0. -1.
</event>
<event>
 8    1  0.1615837E-013  0.9118800E+02  0.7816164E-02  0.1184000E+00
        -11   -1    0    0    0    0  0.00000000000E+00  0.00000000000E+00  0.45593999997E+02  0.45594000000E+02  0.51100000000E-03 0. -1.
         11   -1    0    0    0    0 -0.00000000000E+00 -0.00000000000E+00 -0.45593999997E+02  0.45594000000E+02  0.51100000000E-03 0.  1.
         23    2    1    2    0    0  0.00000000000E+00  0.00000000000E+00  0.00000000000E+00  0.91188000000E+02  0.91188000000E+02 0.  0.
    9900012    2    3    3    0    0  0.12541952579E+02  0.48664717885E+00 -0.38673333125E+02  0.50528879313E+02  0.30000059161E+02 0.  0.
         12    1    3    3    0    0 -0.12541952579E+02 -0.48664717885E+00  0.38673333125E+02  0.40659120687E+02  0.00000000000E+00 0. -1.
         11    1    4    4    0    0  0.17421930699E+01 -0.19532663318E+01  0.29405603185E+00  0.26338100286E+01  0.51100000000E-03 0. -1.
        -11    1    4    4    0    0  0.85763664768E+01 -0.11018542883E+02 -0.16546134424E+02  0.21650332881E+02  0.51100000000E-03 0.  1.
        -12    1    4    4    0    0  0.22233930328E+01  0.13458456394E+02 -0.22421254733E+02  0.26244736404E+02  0.00000000000E+00 0.  1.
</event>
<event>
 8    1  0.1615837E-013  0.9118800E+02  0.7816164E-02  0.1184000E+00
        -11   -1    0    0    0    0  0.00000000000E+00  0.00000000000E+00  0.45593999997E+02  0.45594000000E+02  0.51100000000E-03 0. -1.
         11   -1    0    0    0    0 -0.00000000000E+00 -0.00000000000E+00 -0.45593999997E+02  0.45594000000E+02  0.51100000000E-03 0.  1.
         23    2    1    2    0    0  0.00000000000E+00  0.00000000000E+00  0.00000000000E+00  0.91188000000E+02  0.91188000000E+02 0.  0.
    9900012    2    3    3    0    0  0.78508879245E+01 -0.20334608188E+02 -0.34322323252E+02  0.50528996018E+02  0.30000413895E+02 0.  0.
         12    1    3    3    0    0 -0.78508879245E+01  0.20334608188E+02  0.34322323252E+02  0.40659003982E+02  0.00000000000E+00 0. -1.
         11    1    4    4    0    0  0.60625391332E+01 -0.47049868379E+01 -0.16464092449E+02  0.18164735679E+02  0.51100000000E-03 0. -1.
        -11    1    4    4    0    0  0.98556727527E+01 -0.65258249583E+01 -0.16250198499E+02  0.20094517369E+02  0.51100000000E-03 0.  1.
         12    1    4    4    0    0 -0.80673239614E+01 -0.91037963923E+01 -0.16080323041E+01  0.12269742970E+02  0.00000000000E+00 0. -1.
</event>
<event>
 8    1  0.1615837E-013  0.9118800E+02  0.7816164E-02  0.1184000E+00
        -11   -1    0    0    0    0  0.00000000000E+00  0.00000000000E+00  0.45593999997E+02  0.45594000000E+02  0.51100000000E-03 0. -1.
         11   -1    0    0    0    0 -0.00000000000E+00 -0.00000000000E+00 -0.45593999997E+02  0.45594000000E+02  0.51100000000E-03 0.  1.
         23    2    1    2    0    0  0.00000000000E+00  0.00000000000E+00  0.00000000000E+00  0.91188000000E+02  0.91188000000E+02 0.  0.
    9900012    2    3    3    0    0  0.30278577111E+02 -0.17332190231E+02 -0.20879869359E+02  0.50528855955E+02  0.29999988160E+02 0.  0.
         12    1    3    3    0    0 -0.30278577111E+02  0.17332190231E+02  0.20879869359E+02  0.40659144045E+02  0.00000000000E+00 0. -1.
         11    1    4    4    0    0  0.75001867555E+01 -0.90455442944E+01 -0.80870397570E-01  0.11750796281E+02  0.51100000000E-03 0. -1.
        -11    1    4    4    0    0  0.23365333976E+01 -0.11676510176E+02 -0.61544726714E+01  0.13404395262E+02  0.51100000000E-03 0.  1.
         12    1    4    4    0    0  0.20441856958E+02  0.33898642395E+01 -0.14644526290E+02  0.25373664412E+02  0.00000000000E+00 0. -1.
</event>
<event>
 8    1  0.1615837E-013  0.9118800E+02  0.7816164E-02  0.1184000E+00
        -11   -1    0    0    0    0  0.00000000000E+00  0.00000000000E+00  0.45593999997E+02  0.45594000000E+02  0.51100000000E-03 0. -1.
         11   -1    0    0    0    0 -0.00000000000E+00 -0.00000000000E+00 -0.45593999997E+02  0.45594000000E+02  0.51100000000E-03 0.  1.
         23    2    1    2    0    0  0.00000000000E+00  0.26645352591E-14  0.00000000000E+00  0.91188000000E+02  0.91188000000E+02 0.  0.
    9900012    2    3    3    0    0 -0.11913526573E+02  0.26303704620E+01  0.38785533986E+02  0.50528823782E+02  0.29999890366E+02 0.  0.
        -12    1    3    3    0    0  0.11913526573E+02 -0.26303704620E+01 -0.38785533986E+02  0.40659176218E+02  0.00000000000E+00 0.  1.
         11    1    4    4    0    0  0.28106793858E+01 -0.78525590261E+00  0.67332844278E+01  0.73385056305E+01  0.51100000000E-03 0. -1.
        -11    1    4    4    0    0 -0.53242949202E+01  0.13237217246E+02  0.10525711608E+02  0.17730274728E+02  0.51100000000E-03 0.  1.
         12    1    4    4    0    0 -0.93999110385E+01 -0.98215908816E+01  0.21526537950E+02  0.25460043423E+02  0.00000000000E+00 0. -1.
</event>
<event>
 8    1  0.1615837E-013  0.9118800E+02  0.7816164E-02  0.1184000E+00
        -11   -1    0    0    0    0  0.00000000000E+00  0.00000000000E+00  0.45593999997E+02  0.45594000000E+02  0.51100000000E-03 0.  1.
         11   -1    0    0    0    0 -0.00000000000E+00 -0.00000000000E+00 -0.45593999997E+02  0.45594000000E+02  0.51100000000E-03 0. -1.
         23    2    1    2    0    0  0.17763568394E-14  0.17763568394E-14  0.71054273576E-14  0.91188000000E+02  0.91188000000E+02 0.  0.
    9900012    2    3    3    0    0 -0.12000163367E+02 -0.10984494119E+02 -0.37262625384E+02  0.50528852414E+02  0.29999977399E+02 0.  0.
         12    1    3    3    0    0  0.12000163367E+02  0.10984494119E+02  0.37262625384E+02  0.40659147586E+02  0.00000000000E+00 0. -1.
         11    1    4    4    0    0 -0.89154630100E+01  0.28358888909E+01 -0.27241778137E+02  0.28803510599E+02  0.51100000000E-03 0. -1.
        -11    1    4    4    0    0  0.36692477848E+01  0.23395281484E+00 -0.16910383980E+01  0.40469401219E+01  0.51100000000E-03 0.  1.
        -12    1    4    4    0    0 -0.67539481422E+01 -0.14054335825E+02 -0.83298088482E+01  0.17678401693E+02  0.00000000000E+00 0.  1.
</event>
<event>
 8    1  0.1615837E-013  0.9118800E+02  0.7816164E-02  0.1184000E+00
        -11   -1    0    0    0    0  0.00000000000E+00  0.00000000000E+00  0.45593999997E+02  0.45594000000E+02  0.51100000000E-03 0. -1.
         11   -1    0    0    0    0 -0.00000000000E+00 -0.00000000000E+00 -0.45593999997E+02  0.45594000000E+02  0.51100000000E-03 0.  1.
         23    2    1    2    0    0  0.44408920985E-15  0.00000000000E+00  0.00000000000E+00  0.91188000000E+02  0.91188000000E+02 0.  0.
    9900012    2    3    3    0    0  0.26514171542E+01  0.10548726336E+02 -0.39177285528E+02  0.50528863984E+02  0.30000012565E+02 0.  0.
         12    1    3    3    0    0 -0.26514171542E+01 -0.10548726336E+02  0.39177285528E+02  0.40659136016E+02  0.00000000000E+00 0. -1.
         11    1    4    4    0    0 -0.13003552184E+01 -0.65554041625E+01 -0.50796652214E+01  0.83944771398E+01  0.51100000000E-03 0. -1.
        -11    1    4    4    0    0  0.94330951715E+01  0.46131662042E+01 -0.10326653740E+02  0.14727673430E+02  0.51100000000E-03 0.  1.
        -12    1    4    4    0    0 -0.54813227989E+01  0.12490964295E+02 -0.23770966567E+02  0.27406713414E+02  0.00000000000E+00 0.  1.
</event>
<event>
 8    1  0.1615837E-013  0.9118800E+02  0.7816164E-02  0.1184000E+00
        -11   -1    0    0    0    0  0.00000000000E+00  0.00000000000E+00  0.45593999997E+02  0.45594000000E+02  0.51100000000E-03 0. -1.
         11   -1    0    0    0    0 -0.00000000000E+00 -0.00000000000E+00 -0.45593999997E+02  0.45594000000E+02  0.51100000000E-03 0.  1.
         23    2    1    2    0    0  0.44408920985E-15  0.00000000000E+00  0.00000000000E+00  0.91188000000E+02  0.91188000000E+02 0.  0.
    9900012    2    3    3    0    0  0.35343622387E+01 -0.64870848472E+01 -0.39982403461E+02  0.50528848844E+02  0.29999966546E+02 0.  0.
         12    1    3    3    0    0 -0.35343622387E+01  0.64870848472E+01  0.39982403461E+02  0.40659151156E+02  0.00000000000E+00 0. -1.
         11    1    4    4    0    0  0.79249922530E+01  0.73409523219E+01 -0.10462016924E+02  0.15038247291E+02  0.51100000000E-03 0. -1.
        -11    1    4    4    0    0 -0.22816653668E+01  0.23935319014E+01 -0.41955421814E+01  0.53420563705E+01  0.51100000000E-03 0.  1.
        -12    1    4    4    0    0 -0.21089646476E+01 -0.16221569070E+02 -0.25324844355E+02  0.30148545183E+02  0.00000000000E+00 0.  1.
</event>
<event>
 8    1  0.1615837E-013  0.9118800E+02  0.7816164E-02  0.1184000E+00
        -11   -1    0    0    0    0  0.00000000000E+00  0.00000000000E+00  0.45593999997E+02  0.45594000000E+02  0.51100000000E-03 0. -1.
         11   -1    0    0    0    0 -0.00000000000E+00 -0.00000000000E+00 -0.45593999997E+02  0.45594000000E+02  0.51100000000E-03 0.  1.
         23    2    1    2    0    0  0.00000000000E+00  0.35527136788E-14  0.77715611724E-15  0.91188000000E+02  0.91188000000E+02 0.  0.
    9900012    2    3    3    0    0 -0.33918555097E+02 -0.22404771918E+02 -0.85052849320E+00  0.50528861012E+02  0.30000003531E+02 0.  0.
         12    1    3    3    0    0  0.33918555097E+02  0.22404771918E+02  0.85052849320E+00  0.40659138988E+02  0.00000000000E+00 0. -1.
         11    1    4    4    0    0 -0.27616690869E+02 -0.23590463294E+02  0.33326647537E+01  0.36473253592E+02  0.51100000000E-03 0. -1.
        -11    1    4    4    0    0 -0.80355013794E+01 -0.14630097234E+01  0.74154539637E+00  0.82011931879E+01  0.51100000000E-03 0.  1.
         12    1    4    4    0    0  0.17336371511E+01  0.26487011000E+01 -0.49247386432E+01  0.58544142314E+01  0.00000000000E+00 0. -1.
</event>
<event>
 8    1  0.1615837E-013  0.9118800E+02  0.7816164E-02  0.1184000E+00
        -11   -1    0    0    0    0  0.00000000000E+00  0.00000000000E+00  0.45593999997E+02  0.45594000000E+02  0.51100000000E-03 0. -1.
         11   -1    0    0    0    0 -0.00000000000E+00 -0.00000000000E+00 -0.45593999997E+02  0.45594000000E+02  0.51100000000E-03 0.  1.
         23    2    1    2    0    0  0.35527136788E-14  0.00000000000E+00  0.35527136788E-14  0.91188000000E+02  0.91188000000E+02 0.  0.
    9900012    2    3    3    0    0 -0.27104847623E+02 -0.14634115801E+02 -0.26539306529E+02  0.50528869402E+02  0.30000029034E+02 0.  0.
         12    1    3    3    0    0  0.27104847623E+02  0.14634115801E+02  0.26539306529E+02  0.40659130598E+02  0.00000000000E+00 0. -1.
         11    1    4    4    0    0 -0.18962511212E+01 -0.61253967015E+01 -0.56284301562E+01  0.85320266848E+01  0.51100000000E-03 0. -1.
        -11    1    4    4    0    0 -0.22186575957E+02 -0.11058450460E+02 -0.25752876244E+02  0.35745546776E+02  0.51100000000E-03 0.  1.
        -12    1    4    4    0    0 -0.30220205454E+01  0.25497313607E+01  0.48419998710E+01  0.62512959407E+01  0.00000000000E+00 0.  1.
</event>
<event>
 8    1  0.1615837E-013  0.9118800E+02  0.7816164E-02  0.1184000E+00
        -11   -1    0    0    0    0  0.00000000000E+00  0.00000000000E+00  0.45593999997E+02  0.45594000000E+02  0.51100000000E-03 0. -1.
         11   -1    0    0    0    0 -0.00000000000E+00 -0.00000000000E+00 -0.45593999997E+02  0.45594000000E+02  0.51100000000E-03 0.  1.
         23    2    1    2    0    0  0.17763568394E-14  0.00000000000E+00  0.35527136788E-14  0.91188000000E+02  0.91188000000E+02 0.  0.
    9900012    2    3    3    0    0 -0.55960055659E+01  0.33249905991E+02 -0.22721990733E+02  0.50528924880E+02  0.30000197665E+02 0.  0.
         12    1    3    3    0    0  0.55960055659E+01 -0.33249905991E+02  0.22721990733E+02  0.40659075120E+02  0.00000000000E+00 0. -1.
         11    1    4    4    0    0  0.70365050230E+01  0.56354832185E+01  0.23918407227E+01  0.93269489303E+01  0.51100000000E-03 0. -1.
        -11    1    4    4    0    0  0.86624959722E-01  0.13425078475E+01  0.12744605902E+01  0.18531274271E+01  0.51100000000E-03 0.  1.
        -12    1    4    4    0    0 -0.12719135549E+02  0.26271914926E+02 -0.26388292046E+02  0.39348848523E+02  0.00000000000E+00 0.  1.
</event>
<event>
 8    1  0.1615837E-013  0.9118800E+02  0.7816164E-02  0.1184000E+00
        -11   -1    0    0    0    0  0.00000000000E+00  0.00000000000E+00  0.45593999997E+02  0.45594000000E+02  0.51100000000E-03 0.  1.
         11   -1    0    0    0    0 -0.00000000000E+00 -0.00000000000E+00 -0.45593999997E+02  0.45594000000E+02  0.51100000000E-03 0. -1.
         23    2    1    2    0    0  0.00000000000E+00  0.00000000000E+00  0.66613381478E-15  0.91188000000E+02  0.91188000000E+02 0.  0.
    9900012    2    3    3    0    0  0.27977442888E+02 -0.29438286217E+02 -0.19533640719E+01  0.50528860349E+02  0.30000001516E+02 0.  0.
        -12    1    3    3    0    0 -0.27977442888E+02  0.29438286217E+02  0.19533640719E+01  0.40659139651E+02  0.00000000000E+00 0.  1.
         11    1    4    4    0    0  0.69994681747E+01 -0.16575552193E+02  0.11422731382E+01  0.18029039725E+02  0.51100000000E-03 0. -1.
        -11    1    4    4    0    0 -0.42786923116E+01 -0.76380073539E+00 -0.34507239953E+00  0.43600085645E+01  0.51100000000E-03 0.  1.
         12    1    4    4    0    0  0.25256667025E+02 -0.12098933289E+02 -0.27505648105E+01  0.28139812059E+02  0.00000000000E+00 0. -1.
</event>
<event>
 8    1  0.1615837E-013  0.9118800E+02  0.7816164E-02  0.1184000E+00
        -11   -1    0    0    0    0  0.00000000000E+00  0.00000000000E+00  0.45593999997E+02  0.45594000000E+02  0.51100000000E-03 0.  1.
         11   -1    0    0    0    0 -0.00000000000E+00 -0.00000000000E+00 -0.45593999997E+02  0.45594000000E+02  0.51100000000E-03 0. -1.
         23    2    1    2    0    0  0.00000000000E+00  0.00000000000E+00 -0.35527136788E-14  0.91188000000E+02  0.91188000000E+02 0.  0.
    9900012    2    3    3    0    0 -0.19061248709E+02 -0.22998344060E+02 -0.27584583559E+02  0.50528877014E+02  0.30000052173E+02 0.  0.
         12    1    3    3    0    0  0.19061248709E+02  0.22998344060E+02  0.27584583559E+02  0.40659122986E+02  0.00000000000E+00 0. -1.
         11    1    4    4    0    0  0.33775400566E+01  0.28817664105E+01  0.61562280941E+00  0.44823371341E+01  0.51100000000E-03 0. -1.
        -11    1    4    4    0    0 -0.52660984320E+01 -0.99557648472E+01 -0.30241673240E+01  0.11661673750E+02  0.51100000000E-03 0.  1.
        -12    1    4    4    0    0 -0.17172690334E+02 -0.15924345623E+02 -0.25176039044E+02  0.34384866130E+02  0.00000000000E+00 0.  1.
</event>
<event>
 8    1  0.1615837E-013  0.9118800E+02  0.7816164E-02  0.1184000E+00
        -11   -1    0    0    0    0  0.00000000000E+00  0.00000000000E+00  0.45593999997E+02  0.45594000000E+02  0.51100000000E-03 0. -1.
         11   -1    0    0    0    0 -0.00000000000E+00 -0.00000000000E+00 -0.45593999997E+02  0.45594000000E+02  0.51100000000E-03 0.  1.
         23    2    1    2    0    0 -0.17763568394E-14  0.19984014443E-14  0.00000000000E+00  0.91188000000E+02  0.91188000000E+02 0.  0.
    9900012    2    3    3    0    0 -0.86056923947E+01 -0.75215375957E+00 -0.39730870951E+02  0.50528858551E+02  0.29999996051E+02 0.  0.
         12    1    3    3    0    0  0.86056923947E+01  0.75215375957E+00  0.39730870951E+02  0.40659141449E+02  0.00000000000E+00 0. -1.
         11    1    4    4    0    0  0.35093270051E+00  0.15068628304E+00 -0.29356878652E-01  0.38304334432E+00  0.51100000000E-03 0. -1.
        -11    1    4    4    0    0 -0.14866142953E+02  0.88147390871E+01 -0.32127749303E+02  0.36481421395E+02  0.51100000000E-03 0.  1.
        -12    1    4    4    0    0  0.59095178579E+01 -0.97175791297E+01 -0.75737647697E+01  0.13664393812E+02  0.00000000000E+00 0.  1.
</event>
<event>
 8    1  0.1615837E-013  0.9118800E+02  0.7816164E-02  0.1184000E+00
        -11   -1    0    0    0    0  0.00000000000E+00  0.00000000000E+00  0.45593999997E+02  0.45594000000E+02  0.51100000000E-03 0. -1.
         11   -1    0    0    0    0 -0.00000000000E+00 -0.00000000000E+00 -0.45593999997E+02  0.45594000000E+02  0.51100000000E-03 0.  1.
         23    2    1    2    0    0  0.88817841970E-15  0.35527136788E-14  0.71054273576E-14  0.91188000000E+02  0.91188000000E+02 0.  0.
    9900012    2    3    3    0    0 -0.28865083145E+01  0.24122862770E+02  0.32602479546E+02  0.50528854522E+02  0.29999983805E+02 0.  0.
        -12    1    3    3    0    0  0.28865083145E+01 -0.24122862770E+02 -0.32602479546E+02  0.40659145478E+02  0.00000000000E+00 0.  1.
         11    1    4    4    0    0  0.75277437630E+01  0.98083135138E+00  0.12026806579E+02  0.14222272429E+02  0.51100000000E-03 0. -1.
        -11    1    4    4    0    0 -0.29747139413E+01  0.45060675551E+01 -0.23073567474E+01  0.58717512945E+01  0.51100000000E-03 0.  1.
        -12    1    4    4    0    0 -0.74395381362E+01  0.18635963864E+02  0.22883029714E+02  0.30434830798E+02  0.00000000000E+00 0.  1.
</event>
<event>
 8    1  0.1615837E-013  0.9118800E+02  0.7816164E-02  0.1184000E+00
        -11   -1    0    0    0    0  0.00000000000E+00  0.00000000000E+00  0.45593999997E+02  0.45594000000E+02  0.51100000000E-03 0. -1.
         11   -1    0    0    0    0 -0.00000000000E+00 -0.00000000000E+00 -0.45593999997E+02  0.45594000000E+02  0.51100000000E-03 0.  1.
         23    2    1    2    0    0  0.17763568394E-14  0.00000000000E+00  0.71054273576E-14  0.91188000000E+02  0.91188000000E+02 0.  0.
    9900012    2    3    3    0    0  0.10166188211E+02  0.10755112022E+02  0.37870061868E+02  0.50528863225E+02  0.30000010260E+02 0.  0.
        -12    1    3    3    0    0 -0.10166188211E+02 -0.10755112022E+02 -0.37870061868E+02  0.40659136775E+02  0.00000000000E+00 0.  1.
         11    1    4    4    0    0 -0.23201507234E+01  0.51839983639E+01  0.24597088333E+01  0.61892734809E+01  0.51100000000E-03 0. -1.
        -11    1    4    4    0    0 -0.13883294225E+01 -0.17208273681E+01 -0.24876080685E+01  0.33281976474E+01  0.51100000000E-03 0.  1.
        -12    1    4    4    0    0  0.13874668357E+02  0.72919410267E+01  0.37897961104E+02  0.41011392097E+02  0.00000000000E+00 0.  1.
</event>
<event>
 8    1  0.1615837E-013  0.9118800E+02  0.7816164E-02  0.1184000E+00
        -11   -1    0    0    0    0  0.00000000000E+00  0.00000000000E+00  0.45593999997E+02  0.45594000000E+02  0.51100000000E-03 0. -1.
         11   -1    0    0    0    0 -0.00000000000E+00 -0.00000000000E+00 -0.45593999997E+02  0.45594000000E+02  0.51100000000E-03 0.  1.
         23    2    1    2    0    0 -0.44408920985E-15  0.00000000000E+00  0.00000000000E+00  0.91188000000E+02  0.91188000000E+02 0.  0.
    9900012    2    3    3    0    0 -0.38041893836E+01  0.89403241890E+01  0.39481192832E+02  0.50528857844E+02  0.29999993902E+02 0.  0.
        -12    1    3    3    0    0  0.38041893836E+01 -0.89403241890E+01 -0.39481192832E+02  0.40659142156E+02  0.00000000000E+00 0.  1.
         11    1    4    4    0    0  0.59134024362E+01  0.30107171892E+01  0.13289613848E+02  0.14854177286E+02  0.51100000000E-03 0.  1.
        -11    1    4    4    0    0  0.32314324760E+00  0.12288073783E+02  0.12234880568E+02  0.17343398791E+02  0.51100000000E-03 0. -1.
         12    1    4    4    0    0 -0.10040735067E+02 -0.63584667831E+01  0.13956698416E+02  0.18331281767E+02  0.00000000000E+00 0. -1.
</event>
<event>
 8    1  0.1615837E-013  0.9118800E+02  0.7816164E-02  0.1184000E+00
        -11   -1    0    0    0    0  0.00000000000E+00  0.00000000000E+00  0.45593999997E+02  0.45594000000E+02  0.51100000000E-03 0. -1.
         11   -1    0    0    0    0 -0.00000000000E+00 -0.00000000000E+00 -0.45593999997E+02  0.45594000000E+02  0.51100000000E-03 0.  1.
         23    2    1    2    0    0  0.00000000000E+00  0.44408920985E-15  0.00000000000E+00  0.91188000000E+02  0.91188000000E+02 0.  0.
    9900012    2    3    3    0    0 -0.18501594787E+02  0.32702495699E+01  0.36057759983E+02  0.50528860844E+02  0.30000003022E+02 0.  0.
        -12    1    3    3    0    0  0.18501594787E+02 -0.32702495699E+01 -0.36057759983E+02  0.40659139156E+02  0.00000000000E+00 0.  1.
         11    1    4    4    0    0 -0.29553360638E+00 -0.11023337864E+01  0.12021137100E+01  0.16575757968E+01  0.51100000000E-03 0.  1.
        -11    1    4    4    0    0  0.90346099802E+00  0.90870043461E+01  0.25485661972E+02  0.27072289452E+02  0.51100000000E-03 0. -1.
         12    1    4    4    0    0 -0.19109522179E+02 -0.47144209899E+01  0.93699843006E+01  0.21798995596E+02  0.00000000000E+00 0. -1.
</event>
<event>
 8    1  0.1615837E-013  0.9118800E+02  0.7816164E-02  0.1184000E+00
        -11   -1    0    0    0    0  0.00000000000E+00  0.00000000000E+00  0.45593999997E+02  0.45594000000E+02  0.51100000000E-03 0.  1.
         11   -1    0    0    0    0 -0.00000000000E+00 -0.00000000000E+00 -0.45593999997E+02  0.45594000000E+02  0.51100000000E-03 0. -1.
         23    2    1    2    0    0 -0.71054273576E-14  0.88817841970E-15  0.00000000000E+00  0.91188000000E+02  0.91188000000E+02 0.  0.
    9900012    2    3    3    0    0  0.39027774500E+02 -0.45014998287E+01  0.10475720318E+02  0.50528789490E+02  0.29999786133E+02 0.  0.
        -12    1    3    3    0    0 -0.39027774500E+02  0.45014998287E+01 -0.10475720318E+02  0.40659210510E+02  0.00000000000E+00 0.  1.
         11    1    4    4    0    0 -0.18242922239E+00 -0.16207934472E+01  0.11616462979E+01  0.20024170900E+01  0.51100000000E-03 0. -1.
        -11    1    4    4    0    0  0.23294173200E+02 -0.14772106546E+02  0.74489330417E+01  0.28571318496E+02  0.51100000000E-03 0.  1.
        -12    1    4    4    0    0  0.15916030522E+02  0.11891400164E+02  0.18651409785E+01  0.19955053904E+02  0.00000000000E+00 0.  1.
</event>
<event>
 8    1  0.1615837E-013  0.9118800E+02  0.7816164E-02  0.1184000E+00
        -11   -1    0    0    0    0  0.00000000000E+00  0.00000000000E+00  0.45593999997E+02  0.45594000000E+02  0.51100000000E-03 0. -1.
         11   -1    0    0    0    0 -0.00000000000E+00 -0.00000000000E+00 -0.45593999997E+02  0.45594000000E+02  0.51100000000E-03 0.  1.
         23    2    1    2    0    0  0.00000000000E+00 -0.35527136788E-14  0.00000000000E+00  0.91188000000E+02  0.91188000000E+02 0.  0.
    9900012    2    3    3    0    0  0.21012481871E+02 -0.23350478511E+02 -0.25814677866E+02  0.50528845626E+02  0.29999956765E+02 0.  0.
         12    1    3    3    0    0 -0.21012481871E+02  0.23350478511E+02  0.25814677866E+02  0.40659154374E+02  0.00000000000E+00 0. -1.
         11    1    4    4    0    0  0.12100695302E+02 -0.16091052237E+02 -0.60952431766E+01  0.21035702473E+02  0.51100000000E-03 0. -1.
        -11    1    4    4    0    0  0.57521531912E+01 -0.12292501356E+02 -0.66019705404E+01  0.15092344788E+02  0.51100000000E-03 0.  1.
        -12    1    4    4    0    0  0.31596333780E+01  0.50330750820E+01 -0.13117464149E+02  0.14400798366E+02  0.00000000000E+00 0.  1.
</event>
<event>
 8    1  0.1615837E-013  0.9118800E+02  0.7816164E-02  0.1184000E+00
        -11   -1    0    0    0    0  0.00000000000E+00  0.00000000000E+00  0.45593999997E+02  0.45594000000E+02  0.51100000000E-03 0.  1.
         11   -1    0    0    0    0 -0.00000000000E+00 -0.00000000000E+00 -0.45593999997E+02  0.45594000000E+02  0.51100000000E-03 0. -1.
         23    2    1    2    0    0  0.00000000000E+00  0.00000000000E+00 -0.88817841970E-15  0.91188000000E+02  0.91188000000E+02 0.  0.
    9900012    2    3    3    0    0 -0.40246553297E+02 -0.27464482323E+01 -0.50834747365E+01  0.50528809827E+02  0.29999847949E+02 0.  0.
         12    1    3    3    0    0  0.40246553297E+02  0.27464482323E+01  0.50834747365E+01  0.40659190173E+02  0.00000000000E+00 0. -1.
         11    1    4    4    0    0 -0.13018119576E+02 -0.74634632095E+01 -0.68320897564E+01  0.16487940171E+02  0.51100000000E-03 0. -1.
        -11    1    4    4    0    0 -0.26646502682E+02  0.84387663937E+01 -0.28506790206E+01  0.28095822725E+02  0.51100000000E-03 0.  1.
         12    1    4    4    0    0 -0.58193103799E+00 -0.37217514166E+01  0.45992940405E+01  0.59450469309E+01  0.00000000000E+00 0. -1.
</event>
<event>
 8    1  0.1615837E-013  0.9118800E+02  0.7816164E-02  0.1184000E+00
        -11   -1    0    0    0    0  0.00000000000E+00  0.00000000000E+00  0.45593999997E+02  0.45594000000E+02  0.51100000000E-03 0. -1.
         11   -1    0    0    0    0 -0.00000000000E+00 -0.00000000000E+00 -0.45593999997E+02  0.45594000000E+02  0.51100000000E-03 0.  1.
         23    2    1    2    0    0 -0.88817841970E-15  0.00000000000E+00  0.00000000000E+00  0.91188000000E+02  0.91188000000E+02 0.  0.
    9900012    2    3    3    0    0  0.60735841972E+01 -0.21813731781E+02  0.33770347731E+02  0.50528884108E+02  0.30000073735E+02 0.  0.
        -12    1    3    3    0    0 -0.60735841972E+01  0.21813731781E+02 -0.33770347731E+02  0.40659115892E+02  0.00000000000E+00 0.  1.
         11    1    4    4    0    0  0.30987910340E+01 -0.39878848202E+01  0.87614906695E+00  0.51257554234E+01  0.51100000000E-03 0. -1.
        -11    1    4    4    0    0  0.70574149170E+01 -0.12106022507E+02  0.25339871941E+01  0.14240223931E+02  0.51100000000E-03 0.  1.
         12    1    4    4    0    0 -0.40826217539E+01 -0.57198244536E+01  0.30360211470E+02  0.31162904753E+02  0.00000000000E+00 0. -1.
</event>
<event>
 8    1  0.1615837E-013  0.9118800E+02  0.7816164E-02  0.1184000E+00
        -11   -1    0    0    0    0  0.00000000000E+00  0.00000000000E+00  0.45593999997E+02  0.45594000000E+02  0.51100000000E-03 0.  1.
         11   -1    0    0    0    0 -0.00000000000E+00 -0.00000000000E+00 -0.45593999997E+02  0.45594000000E+02  0.51100000000E-03 0. -1.
         23    2    1    2    0    0  0.00000000000E+00  0.00000000000E+00 -0.35527136788E-14  0.91188000000E+02  0.91188000000E+02 0.  0.
    9900012    2    3    3    0    0 -0.70566790783E+01  0.32448202937E+02  0.23462382666E+02  0.50528855963E+02  0.29999988184E+02 0.  0.
        -12    1    3    3    0    0  0.70566790783E+01 -0.32448202937E+02 -0.23462382666E+02  0.40659144037E+02  0.00000000000E+00 0.  1.
         11    1    4    4    0    0 -0.82105088788E+00 -0.19372800323E+01 -0.12890295396E+01  0.24675445081E+01  0.51100000000E-03 0. -1.
        -11    1    4    4    0    0  0.32713675118E+01 -0.11733018016E+01 -0.37428648115E+00  0.34955075663E+01  0.51100000000E-03 0.  1.
         12    1    4    4    0    0 -0.95069957022E+01  0.35558784771E+02  0.25125698687E+02  0.44565803888E+02  0.00000000000E+00 0. -1.
</event>
<event>
 8    1  0.1615837E-013  0.9118800E+02  0.7816164E-02  0.1184000E+00
        -11   -1    0    0    0    0  0.00000000000E+00  0.00000000000E+00  0.45593999997E+02  0.45594000000E+02  0.51100000000E-03 0. -1.
         11   -1    0    0    0    0 -0.00000000000E+00 -0.00000000000E+00 -0.45593999997E+02  0.45594000000E+02  0.51100000000E-03 0.  1.
         23    2    1    2    0    0 -0.17763568394E-14 -0.88817841970E-15  0.00000000000E+00  0.91188000000E+02  0.91188000000E+02 0.  0.
    9900012    2    3    3    0    0 -0.12455697351E+02 -0.20005428852E+01 -0.38652544386E+02  0.50528858889E+02  0.29999997081E+02 0.  0.
         12    1    3    3    0    0  0.12455697351E+02  0.20005428852E+01  0.38652544386E+02  0.40659141111E+02  0.00000000000E+00 0. -1.
         11    1    4    4    0    0 -0.72509311406E+01  0.81322767494E+01 -0.20167238018E+02  0.22922203582E+02  0.51100000000E-03 0. -1.
        -11    1    4    4    0    0  0.23362250179E+01 -0.34901849627E+01 -0.16923156533E+02  0.17436529635E+02  0.51100000000E-03 0.  1.
         12    1    4    4    0    0 -0.75409912282E+01 -0.66426346718E+01 -0.15621498353E+01  0.10170125673E+02  0.00000000000E+00 0. -1.
</event>
<event>
 8    1  0.1615837E-013  0.9118800E+02  0.7816164E-02  0.1184000E+00
        -11   -1    0    0    0    0  0.00000000000E+00  0.00000000000E+00  0.45593999997E+02  0.45594000000E+02  0.51100000000E-03 0. -1.
         11   -1    0    0    0    0 -0.00000000000E+00 -0.00000000000E+00 -0.45593999997E+02  0.45594000000E+02  0.51100000000E-03 0.  1.
         23    2    1    2    0    0  0.00000000000E+00  0.00000000000E+00  0.00000000000E+00  0.91188000000E+02  0.91188000000E+02 0.  0.
    9900012    2    3    3    0    0  0.12636488046E+02  0.12904003143E+02  0.36427610689E+02  0.50528868826E+02  0.30000027285E+02 0.  0.
        -12    1    3    3    0    0 -0.12636488046E+02 -0.12904003143E+02 -0.36427610689E+02  0.40659131174E+02  0.00000000000E+00 0.  1.
         11    1    4    4    0    0  0.60946931672E+01 -0.54841176863E+00  0.13054158805E+00  0.61207092430E+01  0.51100000000E-03 0. -1.
        -11    1    4    4    0    0  0.56023711326E+01 -0.29912062898E+01  0.25260829079E+01  0.68348352208E+01  0.51100000000E-03 0.  1.
         12    1    4    4    0    0  0.93942374617E+00  0.16443621201E+02  0.33770986193E+02  0.37573324363E+02  0.00000000000E+00 0. -1.
</event>
<event>
 8    1  0.1615837E-013  0.9118800E+02  0.7816164E-02  0.1184000E+00
        -11   -1    0    0    0    0  0.00000000000E+00  0.00000000000E+00  0.45593999997E+02  0.45594000000E+02  0.51100000000E-03 0. -1.
         11   -1    0    0    0    0 -0.00000000000E+00 -0.00000000000E+00 -0.45593999997E+02  0.45594000000E+02  0.51100000000E-03 0.  1.
         23    2    1    2    0    0  0.00000000000E+00  0.00000000000E+00  0.00000000000E+00  0.91188000000E+02  0.91188000000E+02 0.  0.
    9900012    2    3    3    0    0 -0.35494863927E+02  0.16250987706E+02  0.11365985880E+02  0.50528860786E+02  0.30000002845E+02 0.  0.
        -12    1    3    3    0    0  0.35494863927E+02 -0.16250987706E+02 -0.11365985880E+02  0.40659139214E+02  0.00000000000E+00 0.  1.
         11    1    4    4    0    0 -0.17973009050E+02  0.12918090995E+02  0.24834828045E+01  0.22272714616E+02  0.51100000000E-03 0. -1.
        -11    1    4    4    0    0 -0.17352081488E+01  0.86900859139E+01 -0.93248690000E+00  0.89105596115E+01  0.51100000000E-03 0.  1.
         12    1    4    4    0    0 -0.15786646729E+02 -0.53571892033E+01  0.98149899751E+01  0.19345586559E+02  0.00000000000E+00 0. -1.
</event>
<event>
 8    1  0.1615837E-013  0.9118800E+02  0.7816164E-02  0.1184000E+00
        -11   -1    0    0    0    0  0.00000000000E+00  0.00000000000E+00  0.45593999997E+02  0.45594000000E+02  0.51100000000E-03 0.  1.
         11   -1    0    0    0    0 -0.00000000000E+00 -0.00000000000E+00 -0.45593999997E+02  0.45594000000E+02  0.51100000000E-03 0. -1.
         23    2    1    2    0    0  0.71054273576E-14  0.00000000000E+00  0.17763568394E-14  0.91188000000E+02  0.91188000000E+02 0.  0.
    9900012    2    3    3    0    0 -0.36956131341E+02  0.13250263205E+02 -0.10575461110E+02  0.50528862080E+02  0.30000006780E+02 0.  0.
         12    1    3    3    0    0  0.36956131341E+02 -0.13250263205E+02  0.10575461110E+02  0.40659137920E+02  0.00000000000E+00 0. -1.
         11    1    4    4    0    0  0.10213696513E+01 -0.15785893924E+01 -0.64126987014E+01  0.66826525670E+01  0.51100000000E-03 0. -1.
        -11    1    4    4    0    0 -0.22954738025E+02  0.31021850862E+01 -0.78059886318E+01  0.24443342834E+02  0.51100000000E-03 0.  1.
         12    1    4    4    0    0 -0.15022762967E+02  0.11726667511E+02  0.36432262227E+01  0.19402866679E+02  0.00000000000E+00 0. -1.
</event>
<event>
 8    1  0.1615837E-013  0.9118800E+02  0.7816164E-02  0.1184000E+00
        -11   -1    0    0    0    0  0.00000000000E+00  0.00000000000E+00  0.45593999997E+02  0.45594000000E+02  0.51100000000E-03 0. -1.
         11   -1    0    0    0    0 -0.00000000000E+00 -0.00000000000E+00 -0.45593999997E+02  0.45594000000E+02  0.51100000000E-03 0.  1.
         23    2    1    2    0    0  0.00000000000E+00  0.77715611724E-15  0.00000000000E+00  0.91188000000E+02  0.91188000000E+02 0.  0.
    9900012    2    3    3    0    0 -0.18505569592E+02  0.63681945203E+00  0.36198106899E+02  0.50528873250E+02  0.30000040732E+02 0.  0.
        -12    1    3    3    0    0  0.18505569592E+02 -0.63681945203E+00 -0.36198106899E+02  0.40659126750E+02  0.00000000000E+00 0.  1.
         11    1    4    4    0    0 -0.93381422389E+01  0.93348791653E+01  0.11770265575E+02  0.17688414894E+02  0.51100000000E-03 0. -1.
        -11    1    4    4    0    0  0.10294379872E+01  0.48442722151E+01  0.46709388811E+01  0.68076711257E+01  0.51100000000E-03 0.  1.
         12    1    4    4    0    0 -0.10196865340E+02 -0.13542331928E+02  0.19756902443E+02  0.26032787231E+02  0.00000000000E+00 0. -1.
</event>
<event>
 8    1  0.1615837E-013  0.9118800E+02  0.7816164E-02  0.1184000E+00
        -11   -1    0    0    0    0  0.00000000000E+00  0.00000000000E+00  0.45593999997E+02  0.45594000000E+02  0.51100000000E-03 0. -1.
         11   -1    0    0    0    0 -0.00000000000E+00 -0.00000000000E+00 -0.45593999997E+02  0.45594000000E+02  0.51100000000E-03 0.  1.
         23    2    1    2    0    0  0.00000000000E+00  0.00000000000E+00  0.00000000000E+00  0.91188000000E+02  0.91188000000E+02 0.  0.
    9900012    2    3    3    0    0 -0.11794668017E+02  0.17447649612E+02  0.34779760080E+02  0.50528851192E+02  0.29999973682E+02 0.  0.
        -12    1    3    3    0    0  0.11794668017E+02 -0.17447649612E+02 -0.34779760080E+02  0.40659148808E+02  0.00000000000E+00 0.  1.
         11    1    4    4    0    0  0.15738852437E+00  0.54369450758E+01  0.49575087271E+01  0.73594861196E+01  0.51100000000E-03 0. -1.
        -11    1    4    4    0    0  0.83165206320E+00  0.17020727414E+02  0.12874400991E+02  0.21357598367E+02  0.51100000000E-03 0.  1.
         12    1    4    4    0    0 -0.12783708604E+02 -0.50100228777E+01  0.16947850361E+02  0.21811766705E+02  0.00000000000E+00 0. -1.
</event>
<event>
 8    1  0.1615837E-013  0.9118800E+02  0.7816164E-02  0.1184000E+00
        -11   -1    0    0    0    0  0.00000000000E+00  0.00000000000E+00  0.45593999997E+02  0.45594000000E+02  0.51100000000E-03 0. -1.
         11   -1    0    0    0    0 -0.00000000000E+00 -0.00000000000E+00 -0.45593999997E+02  0.45594000000E+02  0.51100000000E-03 0.  1.
         23    2    1    2    0    0  0.00000000000E+00  0.00000000000E+00 -0.17763568394E-14  0.91188000000E+02  0.91188000000E+02 0.  0.
    9900012    2    3    3    0    0 -0.31301023049E+02  0.24836582829E+02  0.75203159601E+01  0.50528867660E+02  0.30000023739E+02 0.  0.
        -12    1    3    3    0    0  0.31301023049E+02 -0.24836582829E+02 -0.75203159601E+01  0.40659132340E+02  0.00000000000E+00 0.  1.
         11    1    4    4    0    0 -0.18915938056E+02  0.14834326487E+02 -0.70031996723E+00  0.24049124791E+02  0.51100000000E-03 0. -1.
        -11    1    4    4    0    0 -0.39541109059E-01  0.47679846162E+00 -0.56138044135E+01  0.56341548192E+01  0.51100000000E-03 0.  1.
         12    1    4    4    0    0 -0.12345543884E+02  0.95254578798E+01  0.13834440341E+02  0.20845588050E+02  0.00000000000E+00 0. -1.
</event>
<event>
 8    1  0.1615837E-013  0.9118800E+02  0.7816164E-02  0.1184000E+00
        -11   -1    0    0    0    0  0.00000000000E+00  0.00000000000E+00  0.45593999997E+02  0.45594000000E+02  0.51100000000E-03 0. -1.
         11   -1    0    0    0    0 -0.00000000000E+00 -0.00000000000E+00 -0.45593999997E+02  0.45594000000E+02  0.51100000000E-03 0.  1.
         23    2    1    2    0    0  0.00000000000E+00  0.88817841970E-15  0.13322676296E-14  0.91188000000E+02  0.91188000000E+02 0.  0.
    9900012    2    3    3    0    0 -0.40277678588E+02 -0.45728137499E+01 -0.31567190641E+01  0.50528844902E+02  0.29999954564E+02 0.  0.
         12    1    3    3    0    0  0.40277678588E+02  0.45728137499E+01  0.31567190641E+01  0.40659155098E+02  0.00000000000E+00 0. -1.
         11    1    4    4    0    0 -0.38628088349E+01  0.31742985617E+01  0.47375626584E+01  0.68878126903E+01  0.51100000000E-03 0. -1.
        -11    1    4    4    0    0  0.89638889431E-01 -0.45231737599E+01  0.29773030033E+01  0.54158535271E+01  0.51100000000E-03 0.  1.
        -12    1    4    4    0    0 -0.36504508643E+02 -0.32239385517E+01 -0.10871584726E+02  0.38225178685E+02  0.00000000000E+00 0.  1.
</event>
<event>
 8    1  0.1615837E-013  0.9118800E+02  0.7816164E-02  0.1184000E+00
        -11   -1    0    0    0    0  0.00000000000E+00  0.00000000000E+00  0.45593999997E+02  0.45594000000E+02  0.51100000000E-03 0.  1.
         11   -1    0    0    0    0 -0.00000000000E+00 -0.00000000000E+00 -0.45593999997E+02  0.45594000000E+02  0.51100000000E-03 0. -1.
         23    2    1    2    0    0  0.00000000000E+00  0.17763568394E-14  0.17763568394E-14  0.91188000000E+02  0.91188000000E+02 0.  0.
    9900012    2    3    3    0    0 -0.35584836658E+02  0.14400997601E+02 -0.13397618502E+02  0.50528861871E+02  0.30000006143E+02 0.  0.
         12    1    3    3    0    0  0.35584836658E+02 -0.14400997601E+02  0.13397618502E+02  0.40659138129E+02  0.00000000000E+00 0. -1.
         11    1    4    4    0    0 -0.31316672887E+02  0.96170216230E+01 -0.12314399401E+02  0.34998079069E+02  0.51100000000E-03 0. -1.
        -11    1    4    4    0    0 -0.44607113855E+01  0.82056932635E+01 -0.47782501236E+01  0.10491092531E+02  0.51100000000E-03 0.  1.
         12    1    4    4    0    0  0.19254761453E+00 -0.34217172859E+01  0.36950310228E+01  0.50396902710E+01  0.00000000000E+00 0. -1.
</event>
<event>
 8    1  0.1851078E-013  0.9118800E+02  0.7816164E-02  0.1184000E+00
        -11   -1    0    0    0    0  0.00000000000E+00  0.00000000000E+00  0.45593999997E+02  0.45594000000E+02  0.51100000000E-03 0. -1.
         11   -1    0    0    0    0 -0.00000000000E+00 -0.00000000000E+00 -0.45593999997E+02  0.45594000000E+02  0.51100000000E-03 0.  1.
         23    2    1    2    0    0  0.00000000000E+00 -0.88817841970E-15  0.00000000000E+00  0.91188000000E+02  0.91188000000E+02 0.  0.
    9900012    2    3    3    0    0  0.22951390714E+02 -0.68095233429E+01  0.32863723384E+02  0.50528926492E+02  0.30000202564E+02 0.  0.
        -12    1    3    3    0    0 -0.22951390714E+02  0.68095233429E+01 -0.32863723384E+02  0.40659073508E+02  0.00000000000E+00 0.  1.
         11    1    4    4    0    0  0.11802626027E+02 -0.44080619025E+01  0.30113567336E+02  0.32642915446E+02  0.51100000000E-03 0. -1.
        -11    1    4    4    0    0  0.12901984227E+02 -0.23091447140E+00  0.54460431289E+01  0.14006209498E+02  0.51100000000E-03 0.  1.
        -12    1    4    4    0    0 -0.17532195396E+01 -0.21705469689E+01 -0.26958870804E+01  0.38798015476E+01  0.00000000000E+00 0.  1.
</event>
<event>
 8    1  0.1615837E-013  0.9118800E+02  0.7816164E-02  0.1184000E+00
        -11   -1    0    0    0    0  0.00000000000E+00  0.00000000000E+00  0.45593999997E+02  0.45594000000E+02  0.51100000000E-03 0. -1.
         11   -1    0    0    0    0 -0.00000000000E+00 -0.00000000000E+00 -0.45593999997E+02  0.45594000000E+02  0.51100000000E-03 0.  1.
         23    2    1    2    0    0  0.00000000000E+00 -0.17763568394E-14  0.71054273576E-14  0.91188000000E+02  0.91188000000E+02 0.  0.
    9900012    2    3    3    0    0 -0.20825057175E+02 -0.81994593080E+01 -0.33944845543E+02  0.50528847547E+02  0.29999962605E+02 0.  0.
         12    1    3    3    0    0  0.20825057175E+02  0.81994593080E+01  0.33944845543E+02  0.40659152453E+02  0.00000000000E+00 0. -1.
         11    1    4    4    0    0 -0.72953036504E+00 -0.57822166307E+01 -0.10174767177E+02  0.11725703863E+02  0.51100000000E-03 0. -1.
        -11    1    4    4    0    0 -0.10464468889E+02 -0.10464229545E+02 -0.21419458099E+02  0.26034561541E+02  0.51100000000E-03 0.  1.
         12    1    4    4    0    0 -0.96310579207E+01  0.80469868676E+01 -0.23506202665E+01  0.12768582144E+02  0.00000000000E+00 0. -1.
</event>
<event>
 8    1  0.1615837E-013  0.9118800E+02  0.7816164E-02  0.1184000E+00
        -11   -1    0    0    0    0  0.00000000000E+00  0.00000000000E+00  0.45593999997E+02  0.45594000000E+02  0.51100000000E-03 0.  1.
         11   -1    0    0    0    0 -0.00000000000E+00 -0.00000000000E+00 -0.45593999997E+02  0.45594000000E+02  0.51100000000E-03 0. -1.
         23    2    1    2    0    0  0.88817841970E-15  0.00000000000E+00 -0.22204460493E-15  0.91188000000E+02  0.91188000000E+02 0.  0.
    9900012    2    3    3    0    0  0.40691778011E+01  0.40440170542E+02 -0.10951308685E+01  0.50528869253E+02  0.30000028583E+02 0.  0.
         12    1    3    3    0    0 -0.40691778011E+01 -0.40440170542E+02  0.10951308685E+01  0.40659130747E+02  0.00000000000E+00 0. -1.
         11    1    4    4    0    0 -0.92656010854E+01  0.83923314383E+01 -0.29365582977E+01  0.12841571763E+02  0.51100000000E-03 0. -1.
        -11    1    4    4    0    0 -0.26305247332E+01  0.77957401899E+01  0.26404181415E+01  0.86408931080E+01  0.51100000000E-03 0.  1.
        -12    1    4    4    0    0  0.15965303620E+02  0.24252098914E+02 -0.79899071234E+00  0.29046404383E+02  0.00000000000E+00 0.  1.
</event>
<event>
 8    1  0.1615837E-013  0.9118800E+02  0.7816164E-02  0.1184000E+00
        -11   -1    0    0    0    0  0.00000000000E+00  0.00000000000E+00  0.45593999997E+02  0.45594000000E+02  0.51100000000E-03 0. -1.
         11   -1    0    0    0    0 -0.00000000000E+00 -0.00000000000E+00 -0.45593999997E+02  0.45594000000E+02  0.51100000000E-03 0.  1.
         23    2    1    2    0    0 -0.88817841970E-15  0.17763568394E-14  0.00000000000E+00  0.91188000000E+02  0.91188000000E+02 0.  0.
    9900012    2    3    3    0    0  0.44022956876E+01  0.11886788466E+02  0.38632769353E+02  0.50528845862E+02  0.29999957482E+02 0.  0.
        -12    1    3    3    0    0 -0.44022956876E+01 -0.11886788466E+02 -0.38632769353E+02  0.40659154138E+02  0.00000000000E+00 0.  1.
         11    1    4    4    0    0 -0.38583366886E+01  0.32004468844E+01  0.58812333282E+01  0.77277763933E+01  0.51100000000E-03 0. -1.
        -11    1    4    4    0    0 -0.78306212976E+01  0.45513400074E+01  0.47135182379E+01  0.10210317341E+02  0.51100000000E-03 0.  1.
         12    1    4    4    0    0  0.16091253674E+02  0.41350015737E+01  0.28038017787E+02  0.32590752127E+02  0.00000000000E+00 0. -1.
</event>
<event>
 8    1  0.1615837E-013  0.9118800E+02  0.7816164E-02  0.1184000E+00
        -11   -1    0    0    0    0  0.00000000000E+00  0.00000000000E+00  0.45593999997E+02  0.45594000000E+02  0.51100000000E-03 0. -1.
         11   -1    0    0    0    0 -0.00000000000E+00 -0.00000000000E+00 -0.45593999997E+02  0.45594000000E+02  0.51100000000E-03 0.  1.
         23    2    1    2    0    0  0.00000000000E+00  0.00000000000E+00  0.00000000000E+00  0.91188000000E+02  0.91188000000E+02 0.  0.
    9900012    2    3    3    0    0  0.10146183121E+02 -0.38242082492E+02  0.93681781669E+01  0.50528872275E+02  0.30000037766E+02 0.  0.
        -12    1    3    3    0    0 -0.10146183121E+02  0.38242082492E+02 -0.93681781669E+01  0.40659127725E+02  0.00000000000E+00 0.  1.
         11    1    4    4    0    0 -0.41266796399E+01 -0.47356122958E+01  0.15613924139E+01  0.64725153687E+01  0.51100000000E-03 0. -1.
        -11    1    4    4    0    0 -0.46063162364E+00 -0.31444490348E+01 -0.66282874991E+01  0.73507779627E+01  0.51100000000E-03 0.  1.
        -12    1    4    4    0    0  0.14733494385E+02 -0.30362021161E+02  0.14435073252E+02  0.36705578943E+02  0.00000000000E+00 0.  1.
</event>
<event>
 8    1  0.1615837E-013  0.9118800E+02  0.7816164E-02  0.1184000E+00
        -11   -1    0    0    0    0  0.00000000000E+00  0.00000000000E+00  0.45593999997E+02  0.45594000000E+02  0.51100000000E-03 0.  1.
         11   -1    0    0    0    0 -0.00000000000E+00 -0.00000000000E+00 -0.45593999997E+02  0.45594000000E+02  0.51100000000E-03 0. -1.
         23    2    1    2    0    0  0.00000000000E+00  0.35527136788E-14  0.00000000000E+00  0.91188000000E+02  0.91188000000E+02 0.  0.
    9900012    2    3    3    0    0 -0.14961644991E+02 -0.22947831211E+02 -0.30045164453E+02  0.50528859760E+02  0.29999999725E+02 0.  0.
         12    1    3    3    0    0  0.14961644991E+02  0.22947831211E+02  0.30045164453E+02  0.40659140240E+02  0.00000000000E+00 0. -1.
         11    1    4    4    0    0  0.10624052289E+01 -0.65375592913E+01 -0.11981690607E+02  0.13690481964E+02  0.51100000000E-03 0. -1.
        -11    1    4    4    0    0 -0.68179015478E+01 -0.15274966495E+02 -0.22117707208E+00  0.16728936084E+02  0.51100000000E-03 0.  1.
        -12    1    4    4    0    0 -0.92061486720E+01 -0.11353054243E+01 -0.17842296774E+02  0.20109441711E+02  0.00000000000E+00 0.  1.
</event>
<event>
 8    1  0.1615837E-013  0.9118800E+02  0.7816164E-02  0.1184000E+00
        -11   -1    0    0    0    0  0.00000000000E+00  0.00000000000E+00  0.45593999997E+02  0.45594000000E+02  0.51100000000E-03 0. -1.
         11   -1    0    0    0    0 -0.00000000000E+00 -0.00000000000E+00 -0.45593999997E+02  0.45594000000E+02  0.51100000000E-03 0.  1.
         23    2    1    2    0    0  0.00000000000E+00  0.00000000000E+00  0.00000000000E+00  0.91188000000E+02  0.91188000000E+02 0.  0.
    9900012    2    3    3    0    0 -0.20424881594E+02  0.83446935660E+01 -0.34151947399E+02  0.50528865603E+02  0.30000017486E+02 0.  0.
         12    1    3    3    0    0  0.20424881594E+02 -0.83446935660E+01  0.34151947399E+02  0.40659134397E+02  0.00000000000E+00 0. -1.
         11    1    4    4    0    0 -0.16915307553E+02  0.50320441396E+01 -0.60708813878E+01  0.18662923108E+02  0.51100000000E-03 0. -1.
        -11    1    4    4    0    0 -0.77235533996E+01  0.23082484936E+00 -0.80201714706E+01  0.11136862570E+02  0.51100000000E-03 0.  1.
         12    1    4    4    0    0  0.42139793592E+01  0.30818245770E+01 -0.20060894540E+02  0.20729079925E+02  0.00000000000E+00 0. -1.
</event>
<event>
 8    1  0.1615837E-013  0.9118800E+02  0.7816164E-02  0.1184000E+00
        -11   -1    0    0    0    0  0.00000000000E+00  0.00000000000E+00  0.45593999997E+02  0.45594000000E+02  0.51100000000E-03 0.  1.
         11   -1    0    0    0    0 -0.00000000000E+00 -0.00000000000E+00 -0.45593999997E+02  0.45594000000E+02  0.51100000000E-03 0. -1.
         23    2    1    2    0    0 -0.35527136788E-14  0.00000000000E+00 -0.17763568394E-14  0.91188000000E+02  0.91188000000E+02 0.  0.
    9900012    2    3    3    0    0  0.30054400638E+02 -0.25631531516E+02  0.96396617118E+01  0.50528862239E+02  0.30000007261E+02 0.  0.
        -12    1    3    3    0    0 -0.30054400638E+02  0.25631531516E+02 -0.96396617118E+01  0.40659137761E+02  0.00000000000E+00 0.  1.
         11    1    4    4    0    0  0.24590985191E+00 -0.51792345750E+01 -0.22058191930E+01  0.56347653910E+01  0.51100000000E-03 0. -1.
        -11    1    4    4    0    0 -0.72941574242E+00 -0.10954576013E+02  0.55408487538E+01  0.12297796068E+02  0.51100000000E-03 0.  1.
        -12    1    4    4    0    0  0.30537906529E+02 -0.94977209274E+01  0.63046321510E+01  0.32596300780E+02  0.00000000000E+00 0.  1.
</event>
<event>
 8    1  0.1615837E-013  0.9118800E+02  0.7816164E-02  0.1184000E+00
        -11   -1    0    0    0    0  0.00000000000E+00  0.00000000000E+00  0.45593999997E+02  0.45594000000E+02  0.51100000000E-03 0. -1.
         11   -1    0    0    0    0 -0.00000000000E+00 -0.00000000000E+00 -0.45593999997E+02  0.45594000000E+02  0.51100000000E-03 0.  1.
         23    2    1    2    0    0  0.00000000000E+00  0.00000000000E+00 -0.71054273576E-14  0.91188000000E+02  0.91188000000E+02 0.  0.
    9900012    2    3    3    0    0  0.52215116186E+01 -0.20493572781E+02 -0.34726293036E+02  0.50528854203E+02  0.29999982834E+02 0.  0.
         12    1    3    3    0    0 -0.52215116186E+01  0.20493572781E+02  0.34726293036E+02  0.40659145797E+02  0.00000000000E+00 0. -1.
         11    1    4    4    0    0 -0.37211619186E+01 -0.55694424921E+01 -0.17546442240E+02  0.18781463501E+02  0.51100000000E-03 0. -1.
        -11    1    4    4    0    0  0.43326330929E+01  0.85064702369E+00 -0.14422318176E+02  0.15083055782E+02  0.51100000000E-03 0.  1.
         12    1    4    4    0    0  0.46100404443E+01 -0.15774777313E+02 -0.27575326200E+01  0.16664334920E+02  0.00000000000E+00 0. -1.
</event>
<event>
 8    1  0.1615837E-013  0.9118800E+02  0.7816164E-02  0.1184000E+00
        -11   -1    0    0    0    0  0.00000000000E+00  0.00000000000E+00  0.45593999997E+02  0.45594000000E+02  0.51100000000E-03 0. -1.
         11   -1    0    0    0    0 -0.00000000000E+00 -0.00000000000E+00 -0.45593999997E+02  0.45594000000E+02  0.51100000000E-03 0.  1.
         23    2    1    2    0    0 -0.35527136788E-14  0.00000000000E+00  0.00000000000E+00  0.91188000000E+02  0.91188000000E+02 0.  0.
    9900012    2    3    3    0    0  0.19115604456E+02  0.34960102756E+02  0.80962922325E+01  0.50528867369E+02  0.30000022854E+02 0.  0.
        -12    1    3    3    0    0 -0.19115604456E+02 -0.34960102756E+02 -0.80962922325E+01  0.40659132631E+02  0.00000000000E+00 0.  1.
         11    1    4    4    0    0  0.14189731995E+01 -0.19506536924E+01  0.50288233325E+01  0.55774186807E+01  0.51100000000E-03 0. -1.
        -11    1    4    4    0    0  0.12737859279E+02  0.10206632221E+02 -0.41624658843E+01  0.16845014776E+02  0.51100000000E-03 0.  1.
         12    1    4    4    0    0  0.49587719779E+01  0.26704124227E+02  0.72299347843E+01  0.28106433912E+02  0.00000000000E+00 0. -1.
</event>
<event>
 8    1  0.1615837E-013  0.9118800E+02  0.7816164E-02  0.1184000E+00
        -11   -1    0    0    0    0  0.00000000000E+00  0.00000000000E+00  0.45593999997E+02  0.45594000000E+02  0.51100000000E-03 0. -1.
         11   -1    0    0    0    0 -0.00000000000E+00 -0.00000000000E+00 -0.45593999997E+02  0.45594000000E+02  0.51100000000E-03 0.  1.
         23    2    1    2    0    0  0.00000000000E+00  0.35527136788E-14  0.00000000000E+00  0.91188000000E+02  0.91188000000E+02 0.  0.
    9900012    2    3    3    0    0  0.25303627625E+02  0.31092254187E+02  0.67944429554E+01  0.50528852241E+02  0.29999976872E+02 0.  0.
         12    1    3    3    0    0 -0.25303627625E+02 -0.31092254187E+02 -0.67944429554E+01  0.40659147759E+02  0.00000000000E+00 0. -1.
         11    1    4    4    0    0  0.71102542678E+01  0.43773189132E+01 -0.16347151632E+01  0.85081684602E+01  0.51100000000E-03 0. -1.
        -11    1    4    4    0    0  0.41294853087E+01  0.18774479508E+02 -0.62317868720E+01  0.20208139390E+02  0.51100000000E-03 0.  1.
         12    1    4    4    0    0  0.14063888048E+02  0.79404557655E+01  0.14660944991E+02  0.21812544391E+02  0.00000000000E+00 0. -1.
</event>
<event>
 8    1  0.1615837E-013  0.9118800E+02  0.7816164E-02  0.1184000E+00
        -11   -1    0    0    0    0  0.00000000000E+00  0.00000000000E+00  0.45593999997E+02  0.45594000000E+02  0.51100000000E-03 0.  1.
         11   -1    0    0    0    0 -0.00000000000E+00 -0.00000000000E+00 -0.45593999997E+02  0.45594000000E+02  0.51100000000E-03 0. -1.
         23    2    1    2    0    0  0.71054273576E-14  0.00000000000E+00  0.88817841970E-15  0.91188000000E+02  0.91188000000E+02 0.  0.
    9900012    2    3    3    0    0  0.40285002526E+02  0.49967962016E+01  0.23056166741E+01  0.50528864876E+02  0.30000015278E+02 0.  0.
        -12    1    3    3    0    0 -0.40285002526E+02 -0.49967962016E+01 -0.23056166741E+01  0.40659135124E+02  0.00000000000E+00 0.  1.
         11    1    4    4    0    0  0.21424119036E+02  0.38961309561E+01 -0.26240485092E+01  0.21933042281E+02  0.51100000000E-03 0. -1.
        -11    1    4    4    0    0  0.17251782569E+02  0.34444760686E+01  0.11784655642E+02  0.21174667082E+02  0.51100000000E-03 0.  1.
        -12    1    4    4    0    0  0.16091009212E+01 -0.23438108230E+01 -0.68549904588E+01  0.74211555123E+01  0.00000000000E+00 0.  1.
</event>
<event>
 8    1  0.1615837E-013  0.9118800E+02  0.7816164E-02  0.1184000E+00
        -11   -1    0    0    0    0  0.00000000000E+00  0.00000000000E+00  0.45593999997E+02  0.45594000000E+02  0.51100000000E-03 0. -1.
         11   -1    0    0    0    0 -0.00000000000E+00 -0.00000000000E+00 -0.45593999997E+02  0.45594000000E+02  0.51100000000E-03 0.  1.
         23    2    1    2    0    0  0.00000000000E+00  0.00000000000E+00  0.88817841970E-15  0.91188000000E+02  0.91188000000E+02 0.  0.
    9900012    2    3    3    0    0 -0.21225485940E+02  0.34238451885E+02  0.55110731980E+01  0.50528871030E+02  0.30000033981E+02 0.  0.
        -12    1    3    3    0    0  0.21225485940E+02 -0.34238451885E+02 -0.55110731980E+01  0.40659128970E+02  0.00000000000E+00 0.  1.
         11    1    4    4    0    0  0.14645295122E+01  0.12741196588E+02  0.29296077015E+01  0.13155437610E+02  0.51100000000E-03 0. -1.
        -11    1    4    4    0    0 -0.16944757303E+02  0.71357301906E+01  0.91876114816E+01  0.20553725950E+02  0.51100000000E-03 0.  1.
         12    1    4    4    0    0 -0.57452581486E+01  0.14361525106E+02 -0.66061459851E+01  0.16819707469E+02  0.00000000000E+00 0. -1.
</event>
<event>
 8    1  0.1615837E-013  0.9118800E+02  0.7816164E-02  0.1184000E+00
        -11   -1    0    0    0    0  0.00000000000E+00  0.00000000000E+00  0.45593999997E+02  0.45594000000E+02  0.51100000000E-03 0. -1.
         11   -1    0    0    0    0 -0.00000000000E+00 -0.00000000000E+00 -0.45593999997E+02  0.45594000000E+02  0.51100000000E-03 0.  1.
         23    2    1    2    0    0 -0.17763568394E-14  0.00000000000E+00  0.00000000000E+00  0.91188000000E+02  0.91188000000E+02 0.  0.
    9900012    2    3    3    0    0 -0.84983060865E+01 -0.60963854981E+01 -0.39290949053E+02  0.50528858347E+02  0.29999995432E+02 0.  0.
         12    1    3    3    0    0  0.84983060865E+01  0.60963854981E+01  0.39290949053E+02  0.40659141653E+02  0.00000000000E+00 0. -1.
         11    1    4    4    0    0 -0.92470901880E+01  0.32979988521E+01 -0.14779575792E+02  0.17743205298E+02  0.51100000000E-03 0. -1.
        -11    1    4    4    0    0 -0.89009154457E+01 -0.28990866608E+01 -0.15349017259E+02  0.17978412898E+02  0.51100000000E-03 0.  1.
         12    1    4    4    0    0  0.96496995472E+01 -0.64952976894E+01 -0.91623560011E+01  0.14807240152E+02  0.00000000000E+00 0. -1.
</event>
<event>
 8    1  0.1887935E-013  0.9118800E+02  0.7816164E-02  0.1184000E+00
        -11   -1    0    0    0    0  0.00000000000E+00  0.00000000000E+00  0.45593999997E+02  0.45594000000E+02  0.51100000000E-03 0. -1.
         11   -1    0    0    0    0 -0.00000000000E+00 -0.00000000000E+00 -0.45593999997E+02  0.45594000000E+02  0.51100000000E-03 0.  1.
         23    2    1    2    0    0  0.00000000000E+00  0.00000000000E+00  0.00000000000E+00  0.91188000000E+02  0.91188000000E+02 0.  0.
    9900012    2    3    3    0    0  0.21872986954E+02  0.10609179763E+02  0.32591168589E+02  0.50528849449E+02  0.29999968384E+02 0.  0.
        -12    1    3    3    0    0 -0.21872986954E+02 -0.10609179763E+02 -0.32591168589E+02  0.40659150551E+02  0.00000000000E+00 0.  1.
         11    1    4    4    0    0  0.21074952533E+02  0.55071762858E+01  0.27764551978E+02  0.35289558821E+02  0.51100000000E-03 0. -1.
        -11    1    4    4    0    0  0.44136124166E+01  0.29197852251E+00 -0.30163977699E+01  0.53538660600E+01  0.51100000000E-03 0.  1.
        -12    1    4    4    0    0 -0.36155779961E+01  0.48100249550E+01  0.78430143809E+01  0.98854245681E+01  0.00000000000E+00 0.  1.
</event>
<event>
 8    1  0.1615837E-013  0.9118800E+02  0.7816164E-02  0.1184000E+00
        -11   -1    0    0    0    0  0.00000000000E+00  0.00000000000E+00  0.45593999997E+02  0.45594000000E+02  0.51100000000E-03 0. -1.
         11   -1    0    0    0    0 -0.00000000000E+00 -0.00000000000E+00 -0.45593999997E+02  0.45594000000E+02  0.51100000000E-03 0.  1.
         23    2    1    2    0    0 -0.44408920985E-15  0.44408920985E-15 -0.71054273576E-14  0.91188000000E+02  0.91188000000E+02 0.  0.
    9900012    2    3    3    0    0 -0.11507483429E+01 -0.36686154344E+01 -0.40476930631E+02  0.50528869731E+02  0.30000030033E+02 0.  0.
         12    1    3    3    0    0  0.11507483429E+01  0.36686154344E+01  0.40476930631E+02  0.40659130269E+02  0.00000000000E+00 0. -1.
         11    1    4    4    0    0 -0.89456342270E+01 -0.67309405263E+01 -0.16219819518E+02  0.19708183010E+02  0.51100000000E-03 0. -1.
        -11    1    4    4    0    0  0.14570855051E+01 -0.65106493890E+00 -0.23366971621E+02  0.23421407872E+02  0.51100000000E-03 0.  1.
         12    1    4    4    0    0  0.63378003791E+01  0.37133900308E+01 -0.89013949247E+00  0.73992788488E+01  0.00000000000E+00 0. -1.
</event>
<event>
 8    1  0.1615837E-013  0.9118800E+02  0.7816164E-02  0.1184000E+00
        -11   -1    0    0    0    0  0.00000000000E+00  0.00000000000E+00  0.45593999997E+02  0.45594000000E+02  0.51100000000E-03 0.  1.
         11   -1    0    0    0    0 -0.00000000000E+00 -0.00000000000E+00 -0.45593999997E+02  0.45594000000E+02  0.51100000000E-03 0. -1.
         23    2    1    2    0    0 -0.71054273576E-14  0.00000000000E+00 -0.17763568394E-14  0.91188000000E+02  0.91188000000E+02 0.  0.
    9900012    2    3    3    0    0 -0.36259111153E+02  0.14523694250E+02 -0.11291812470E+02  0.50528857546E+02  0.29999992997E+02 0.  0.
         12    1    3    3    0    0  0.36259111153E+02 -0.14523694250E+02  0.11291812470E+02  0.40659142454E+02  0.00000000000E+00 0. -1.
         11    1    4    4    0    0 -0.29917119272E+01  0.69584884627E+01 -0.24911893991E+01  0.79735140825E+01  0.51100000000E-03 0. -1.
        -11    1    4    4    0    0 -0.54179622743E+01  0.99326203458E+01  0.37464572502E+01  0.11918355773E+02  0.51100000000E-03 0.  1.
        -12    1    4    4    0    0 -0.27849436951E+02 -0.23674145582E+01 -0.12547080321E+02  0.30636987691E+02  0.00000000000E+00 0.  1.
</event>
<event>
 8    1  0.1615837E-013  0.9118800E+02  0.7816164E-02  0.1184000E+00
        -11   -1    0    0    0    0  0.00000000000E+00  0.00000000000E+00  0.45593999997E+02  0.45594000000E+02  0.51100000000E-03 0. -1.
         11   -1    0    0    0    0 -0.00000000000E+00 -0.00000000000E+00 -0.45593999997E+02  0.45594000000E+02  0.51100000000E-03 0.  1.
         23    2    1    2    0    0  0.00000000000E+00 -0.44408920985E-15  0.71054273576E-14  0.91188000000E+02  0.91188000000E+02 0.  0.
    9900012    2    3    3    0    0 -0.24071724703E+02  0.36424629385E+00  0.32765634605E+02  0.50528838466E+02  0.29999935002E+02 0.  0.
        -12    1    3    3    0    0  0.24071724703E+02 -0.36424629385E+00 -0.32765634605E+02  0.40659161534E+02  0.00000000000E+00 0.  1.
         11    1    4    4    0    0 -0.62819249599E+01 -0.10072984418E+02  0.39727034663E+01  0.12518385254E+02  0.51100000000E-03 0. -1.
        -11    1    4    4    0    0 -0.21920095044E+01 -0.65286963887E+00 -0.10826223911E+01  0.25304576534E+01  0.51100000000E-03 0.  1.
         12    1    4    4    0    0 -0.15597790239E+02  0.11090100350E+02  0.29875553530E+02  0.35479995559E+02  0.00000000000E+00 0. -1.
</event>
<event>
 8    1  0.1615837E-013  0.9118800E+02  0.7816164E-02  0.1184000E+00
        -11   -1    0    0    0    0  0.00000000000E+00  0.00000000000E+00  0.45593999997E+02  0.45594000000E+02  0.51100000000E-03 0.  1.
         11   -1    0    0    0    0 -0.00000000000E+00 -0.00000000000E+00 -0.45593999997E+02  0.45594000000E+02  0.51100000000E-03 0. -1.
         23    2    1    2    0    0  0.00000000000E+00  0.00000000000E+00  0.00000000000E+00  0.91188000000E+02  0.91188000000E+02 0.  0.
    9900012    2    3    3    0    0  0.30551286939E+02 -0.23497444073E+02  0.12948185450E+02  0.50528849516E+02  0.29999968589E+02 0.  0.
        -12    1    3    3    0    0 -0.30551286939E+02  0.23497444073E+02 -0.12948185450E+02  0.40659150484E+02  0.00000000000E+00 0.  1.
         11    1    4    4    0    0  0.20417022928E+02 -0.39118041660E+01  0.65096337761E+01  0.21783763890E+02  0.51100000000E-03 0. -1.
        -11    1    4    4    0    0  0.83798728106E+01 -0.35546373457E+01 -0.35558486420E+01  0.97725009494E+01  0.51100000000E-03 0.  1.
        -12    1    4    4    0    0  0.17543912010E+01 -0.16031002562E+02  0.99944003162E+01  0.18972584676E+02  0.00000000000E+00 0.  1.
</event>
<event>
 8    1  0.1615837E-013  0.9118800E+02  0.7816164E-02  0.1184000E+00
        -11   -1    0    0    0    0  0.00000000000E+00  0.00000000000E+00  0.45593999997E+02  0.45594000000E+02  0.51100000000E-03 0. -1.
         11   -1    0    0    0    0 -0.00000000000E+00 -0.00000000000E+00 -0.45593999997E+02  0.45594000000E+02  0.51100000000E-03 0.  1.
         23    2    1    2    0    0 -0.26645352591E-14  0.00000000000E+00  0.00000000000E+00  0.91188000000E+02  0.91188000000E+02 0.  0.
    9900012    2    3    3    0    0 -0.34832770347E+01 -0.18088445705E+02  0.36246940169E+02  0.50528858857E+02  0.29999996982E+02 0.  0.
        -12    1    3    3    0    0  0.34832770347E+01  0.18088445705E+02 -0.36246940169E+02  0.40659141143E+02  0.00000000000E+00 0.  1.
         11    1    4    4    0    0 -0.13861225614E+02 -0.10286701343E+01  0.10357947486E+02  0.17334324739E+02  0.51100000000E-03 0. -1.
        -11    1    4    4    0    0  0.16641623521E+01 -0.19122950359E+00  0.12559826386E+01  0.20936804213E+01  0.51100000000E-03 0.  1.
         12    1    4    4    0    0  0.87137862278E+01 -0.16868546067E+02  0.24633010044E+02  0.31100853696E+02  0.00000000000E+00 0. -1.
</event>
<event>
 8    1  0.1615837E-013  0.9118800E+02  0.7816164E-02  0.1184000E+00
        -11   -1    0    0    0    0  0.00000000000E+00  0.00000000000E+00  0.45593999997E+02  0.45594000000E+02  0.51100000000E-03 0.  1.
         11   -1    0    0    0    0 -0.00000000000E+00 -0.00000000000E+00 -0.45593999997E+02  0.45594000000E+02  0.51100000000E-03 0. -1.
         23    2    1    2    0    0 -0.35527136788E-14 -0.71054273576E-14 -0.13322676296E-14  0.91188000000E+02  0.91188000000E+02 0.  0.
    9900012    2    3    3    0    0 -0.16834250376E+02 -0.36861591568E+02 -0.33162567217E+01  0.50528850017E+02  0.29999970113E+02 0.  0.
        -12    1    3    3    0    0  0.16834250376E+02  0.36861591568E+02  0.33162567217E+01  0.40659149983E+02  0.00000000000E+00 0.  1.
         11    1    4    4    0    0 -0.69087496624E+01 -0.14407313402E+02 -0.92616056445E+01  0.18468319922E+02  0.51100000000E-03 0. -1.
        -11    1    4    4    0    0 -0.12406854769E+02 -0.90098296988E+01 -0.31321299532E+01  0.15649834337E+02  0.51100000000E-03 0.  1.
         12    1    4    4    0    0  0.24813540555E+01 -0.13444448467E+02  0.90774788759E+01  0.16410695759E+02  0.00000000000E+00 0. -1.
</event>
<event>
 8    1  0.1615837E-013  0.9118800E+02  0.7816164E-02  0.1184000E+00
        -11   -1    0    0    0    0  0.00000000000E+00  0.00000000000E+00  0.45593999997E+02  0.45594000000E+02  0.51100000000E-03 0. -1.
         11   -1    0    0    0    0 -0.00000000000E+00 -0.00000000000E+00 -0.45593999997E+02  0.45594000000E+02  0.51100000000E-03 0.  1.
         23    2    1    2    0    0  0.00000000000E+00  0.00000000000E+00 -0.35527136788E-14  0.91188000000E+02  0.91188000000E+02 0.  0.
    9900012    2    3    3    0    0 -0.44414392192E+01 -0.28809510883E+02  0.28345220479E+02  0.50528858056E+02  0.29999994546E+02 0.  0.
        -12    1    3    3    0    0  0.44414392192E+01  0.28809510883E+02 -0.28345220479E+02  0.40659141944E+02  0.00000000000E+00 0.  1.
         11    1    4    4    0    0 -0.14209457232E+02 -0.16047173589E+02  0.15049656095E+02  0.26189933254E+02  0.51100000000E-03 0. -1.
        -11    1    4    4    0    0  0.73004634604E+01 -0.11609772774E+02  0.15600086456E+02  0.20771285186E+02  0.51100000000E-03 0.  1.
        -12    1    4    4    0    0  0.24675545522E+01 -0.11525645204E+01 -0.23045220726E+01  0.35676396153E+01  0.00000000000E+00 0.  1.
</event>
<event>
 8    1  0.1615837E-013  0.9118800E+02  0.7816164E-02  0.1184000E+00
        -11   -1    0    0    0    0  0.00000000000E+00  0.00000000000E+00  0.45593999997E+02  0.45594000000E+02  0.51100000000E-03 0. -1.
         11   -1    0    0    0    0 -0.00000000000E+00 -0.00000000000E+00 -0.45593999997E+02  0.45594000000E+02  0.51100000000E-03 0.  1.
         23    2    1    2    0    0  0.35527136788E-14  0.00000000000E+00  0.00000000000E+00  0.91188000000E+02  0.91188000000E+02 0.  0.
    9900012    2    3    3    0    0  0.24025352527E+02  0.97237108941E+01 -0.31327258357E+02  0.50528865310E+02  0.30000016595E+02 0.  0.
         12    1    3    3    0    0 -0.24025352527E+02 -0.97237108941E+01  0.31327258357E+02  0.40659134690E+02  0.00000000000E+00 0. -1.
         11    1    4    4    0    0  0.26553699234E+01  0.30871961861E+01 -0.52890790919E+00  0.41062773359E+01  0.51100000000E-03 0. -1.
        -11    1    4    4    0    0  0.24743646898E+02  0.12670801823E+02 -0.23986613406E+02  0.36717228975E+02  0.51100000000E-03 0.  1.
         12    1    4    4    0    0 -0.33736642945E+01 -0.60342871153E+01 -0.68117370419E+01  0.97053589985E+01  0.00000000000E+00 0. -1.
</event>
<event>
 8    1  0.1615837E-013  0.9118800E+02  0.7816164E-02  0.1184000E+00
        -11   -1    0    0    0    0  0.00000000000E+00  0.00000000000E+00  0.45593999997E+02  0.45594000000E+02  0.51100000000E-03 0. -1.
         11   -1    0    0    0    0 -0.00000000000E+00 -0.00000000000E+00 -0.45593999997E+02  0.45594000000E+02  0.51100000000E-03 0.  1.
         23    2    1    2    0    0  0.35527136788E-14  0.35527136788E-14  0.00000000000E+00  0.91188000000E+02  0.91188000000E+02 0.  0.
    9900012    2    3    3    0    0 -0.16779038143E+02 -0.17392263223E+02  0.32697683980E+02  0.50528862298E+02  0.30000007441E+02 0.  0.
        -12    1    3    3    0    0  0.16779038143E+02  0.17392263223E+02 -0.32697683980E+02  0.40659137702E+02  0.00000000000E+00 0.  1.
         11    1    4    4    0    0  0.11014852192E+01 -0.15972912804E+01 -0.36716741491E+00  0.19746952409E+01  0.51100000000E-03 0. -1.
        -11    1    4    4    0    0 -0.96869905451E+00 -0.78114412040E+01 -0.25949201301E+01  0.82879793849E+01  0.51100000000E-03 0.  1.
         12    1    4    4    0    0 -0.16911824308E+02 -0.79835307388E+01  0.35659771525E+02  0.40266187672E+02  0.00000000000E+00 0. -1.
</event>
<event>
 8    1  0.1615837E-013  0.9118800E+02  0.7816164E-02  0.1184000E+00
        -11   -1    0    0    0    0  0.00000000000E+00  0.00000000000E+00  0.45593999997E+02  0.45594000000E+02  0.51100000000E-03 0. -1.
         11   -1    0    0    0    0 -0.00000000000E+00 -0.00000000000E+00 -0.45593999997E+02  0.45594000000E+02  0.51100000000E-03 0.  1.
         23    2    1    2    0    0  0.00000000000E+00  0.00000000000E+00  0.35527136788E-14  0.91188000000E+02  0.91188000000E+02 0.  0.
    9900012    2    3    3    0    0  0.27615924184E+02 -0.50502113189E+01 -0.29411276354E+02  0.50528842610E+02  0.29999947597E+02 0.  0.
         12    1    3    3    0    0 -0.27615924184E+02  0.50502113189E+01  0.29411276354E+02  0.40659157390E+02  0.00000000000E+00 0. -1.
         11    1    4    4    0    0 -0.83555652814E+00 -0.38568661337E+01  0.27741944900E+01  0.48238704807E+01  0.51100000000E-03 0. -1.
        -11    1    4    4    0    0  0.26905329914E+01  0.30768956364E+01  0.21364150120E+00  0.40929081944E+01  0.51100000000E-03 0.  1.
        -12    1    4    4    0    0  0.25760947721E+02 -0.42702408216E+01 -0.32399112345E+02  0.41612063935E+02  0.00000000000E+00 0.  1.
</event>
<event>
 8    1  0.1615837E-013  0.9118800E+02  0.7816164E-02  0.1184000E+00
        -11   -1    0    0    0    0  0.00000000000E+00  0.00000000000E+00  0.45593999997E+02  0.45594000000E+02  0.51100000000E-03 0. -1.
         11   -1    0    0    0    0 -0.00000000000E+00 -0.00000000000E+00 -0.45593999997E+02  0.45594000000E+02  0.51100000000E-03 0.  1.
         23    2    1    2    0    0  0.00000000000E+00  0.00000000000E+00  0.71054273576E-14  0.91188000000E+02  0.91188000000E+02 0.  0.
    9900012    2    3    3    0    0 -0.10889050514E+02 -0.13180105123E+02 -0.36890074576E+02  0.50528878091E+02  0.30000055446E+02 0.  0.
         12    1    3    3    0    0  0.10889050514E+02  0.13180105123E+02  0.36890074576E+02  0.40659121909E+02  0.00000000000E+00 0. -1.
         11    1    4    4    0    0 -0.12444966339E+01  0.51821142857E+01 -0.58221015853E+01  0.78930315768E+01  0.51100000000E-03 0. -1.
        -11    1    4    4    0    0  0.26435360992E+01  0.27581995364E+01 -0.11140447384E+01  0.39795783358E+01  0.51100000000E-03 0.  1.
        -12    1    4    4    0    0 -0.12288089980E+02 -0.21120418945E+02 -0.29953928253E+02  0.38656268179E+02  0.00000000000E+00 0.  1.
</event>
<event>
 8    1  0.1615837E-013  0.9118800E+02  0.7816164E-02  0.1184000E+00
        -11   -1    0    0    0    0  0.00000000000E+00  0.00000000000E+00  0.45593999997E+02  0.45594000000E+02  0.51100000000E-03 0. -1.
         11   -1    0    0    0    0 -0.00000000000E+00 -0.00000000000E+00 -0.45593999997E+02  0.45594000000E+02  0.51100000000E-03 0.  1.
         23    2    1    2    0    0  0.00000000000E+00 -0.35527136788E-14  0.00000000000E+00  0.91188000000E+02  0.91188000000E+02 0.  0.
    9900012    2    3    3    0    0 -0.93053236875E+01  0.12482762496E+02 -0.37560056988E+02  0.50528852328E+02  0.29999977137E+02 0.  0.
         12    1    3    3    0    0  0.93053236875E+01 -0.12482762496E+02  0.37560056988E+02  0.40659147672E+02  0.00000000000E+00 0. -1.
         11    1    4    4    0    0 -0.53950077287E+01 -0.15970269590E+01 -0.20898062779E+01  0.60019908397E+01  0.51100000000E-03 0. -1.
        -11    1    4    4    0    0  0.19329402767E+01 -0.39698821431E+01 -0.13140518813E+00  0.44174076026E+01  0.51100000000E-03 0.  1.
        -12    1    4    4    0    0 -0.58432562355E+01  0.18049671598E+02 -0.35338845522E+02  0.40109453886E+02  0.00000000000E+00 0.  1.
</event>
<event>
 8    1  0.1615837E-013  0.9118800E+02  0.7816164E-02  0.1184000E+00
        -11   -1    0    0    0    0  0.00000000000E+00  0.00000000000E+00  0.45593999997E+02  0.45594000000E+02  0.51100000000E-03 0. -1.
         11   -1    0    0    0    0 -0.00000000000E+00 -0.00000000000E+00 -0.45593999997E+02  0.45594000000E+02  0.51100000000E-03 0.  1.
         23    2    1    2    0    0  0.00000000000E+00 -0.35527136788E-14  0.00000000000E+00  0.91188000000E+02  0.91188000000E+02 0.  0.
    9900012    2    3    3    0    0 -0.22073066282E+02 -0.25076505602E+02 -0.23175733884E+02  0.50528855526E+02  0.29999986856E+02 0.  0.
         12    1    3    3    0    0  0.22073066282E+02  0.25076505602E+02  0.23175733884E+02  0.40659144474E+02  0.00000000000E+00 0. -1.
         11    1    4    4    0    0  0.92978321758E+00 -0.34096172867E+01  0.30563582805E+00  0.35473088946E+01  0.51100000000E-03 0. -1.
        -11    1    4    4    0    0 -0.14908597330E+02 -0.19765015881E+02 -0.30765474947E+01  0.24947690712E+02  0.51100000000E-03 0.  1.
        -12    1    4    4    0    0 -0.80942521700E+01 -0.19018724345E+01 -0.20404822217E+02  0.22033855919E+02  0.00000000000E+00 0.  1.
</event>
<event>
 8    1  0.1615837E-013  0.9118800E+02  0.7816164E-02  0.1184000E+00
        -11   -1    0    0    0    0  0.00000000000E+00  0.00000000000E+00  0.45593999997E+02  0.45594000000E+02  0.51100000000E-03 0. -1.
         11   -1    0    0    0    0 -0.00000000000E+00 -0.00000000000E+00 -0.45593999997E+02  0.45594000000E+02  0.51100000000E-03 0.  1.
         23    2    1    2    0    0 -0.35527136788E-14 -0.26645352591E-14 -0.71054273576E-14  0.91188000000E+02  0.91188000000E+02 0.  0.
    9900012    2    3    3    0    0 -0.23344545587E+02 -0.72789657749E+01  0.32484078036E+02  0.50528850018E+02  0.29999970116E+02 0.  0.
        -12    1    3    3    0    0  0.23344545587E+02  0.72789657749E+01 -0.32484078036E+02  0.40659149982E+02  0.00000000000E+00 0.  1.
         11    1    4    4    0    0 -0.31031128489E+01 -0.35349100993E+01  0.17646508536E+01  0.50238323678E+01  0.51100000000E-03 0. -1.
        -11    1    4    4    0    0 -0.23211247046E+02 -0.95261741452E+01  0.16951478354E+02  0.30279739133E+02  0.51100000000E-03 0.  1.
         12    1    4    4    0    0  0.29698143087E+01  0.57821184697E+01  0.13767948828E+02  0.15225278518E+02  0.00000000000E+00 0. -1.
</event>
<event>
 8    1  0.1615837E-013  0.9118800E+02  0.7816164E-02  0.1184000E+00
        -11   -1    0    0    0    0  0.00000000000E+00  0.00000000000E+00  0.45593999997E+02  0.45594000000E+02  0.51100000000E-03 0. -1.
         11   -1    0    0    0    0 -0.00000000000E+00 -0.00000000000E+00 -0.45593999997E+02  0.45594000000E+02  0.51100000000E-03 0.  1.
         23    2    1    2    0    0  0.00000000000E+00  0.00000000000E+00  0.00000000000E+00  0.91188000000E+02  0.91188000000E+02 0.  0.
    9900012    2    3    3    0    0  0.27995642177E+02  0.28013465289E+02  0.92008420296E+01  0.50528859423E+02  0.29999998704E+02 0.  0.
        -12    1    3    3    0    0 -0.27995642177E+02 -0.28013465289E+02 -0.92008420296E+01  0.40659140577E+02  0.00000000000E+00 0.  1.
         11    1    4    4    0    0  0.19413734007E+02  0.14436401467E+02  0.18675508976E+01  0.24265005709E+02  0.51100000000E-03 0. -1.
        -11    1    4    4    0    0  0.96670240560E+01  0.20251708997E+01 -0.34121639231E+01  0.10449666701E+02  0.51100000000E-03 0.  1.
         12    1    4    4    0    0 -0.10851158861E+01  0.11551892921E+02  0.10745455055E+02  0.15814187013E+02  0.00000000000E+00 0. -1.
</event>
<event>
 8    1  0.1615837E-013  0.9118800E+02  0.7816164E-02  0.1184000E+00
        -11   -1    0    0    0    0  0.00000000000E+00  0.00000000000E+00  0.45593999997E+02  0.45594000000E+02  0.51100000000E-03 0. -1.
         11   -1    0    0    0    0 -0.00000000000E+00 -0.00000000000E+00 -0.45593999997E+02  0.45594000000E+02  0.51100000000E-03 0.  1.
         23    2    1    2    0    0  0.00000000000E+00  0.88817841970E-15  0.00000000000E+00  0.91188000000E+02  0.91188000000E+02 0.  0.
    9900012    2    3    3    0    0 -0.12269371623E+02 -0.30345122051E+01  0.38644792791E+02  0.50528858910E+02  0.29999997142E+02 0.  0.
        -12    1    3    3    0    0  0.12269371623E+02  0.30345122051E+01 -0.38644792791E+02  0.40659141090E+02  0.00000000000E+00 0.  1.
         11    1    4    4    0    0 -0.18099483649E+02  0.45159311069E+01  0.14944973276E+02  0.23902660283E+02  0.51100000000E-03 0.  1.
        -11    1    4    4    0    0  0.15106330731E+01  0.67930494133E+00  0.95783210548E+01  0.97204784848E+01  0.51100000000E-03 0. -1.
        -12    1    4    4    0    0  0.43194789535E+01 -0.82297482534E+01  0.14121498461E+02  0.16905720142E+02  0.00000000000E+00 0.  1.
</event>
<event>
 8    1  0.1615837E-013  0.9118800E+02  0.7816164E-02  0.1184000E+00
        -11   -1    0    0    0    0  0.00000000000E+00  0.00000000000E+00  0.45593999997E+02  0.45594000000E+02  0.51100000000E-03 0. -1.
         11   -1    0    0    0    0 -0.00000000000E+00 -0.00000000000E+00 -0.45593999997E+02  0.45594000000E+02  0.51100000000E-03 0.  1.
         23    2    1    2    0    0  0.00000000000E+00 -0.17763568394E-14  0.00000000000E+00  0.91188000000E+02  0.91188000000E+02 0.  0.
    9900012    2    3    3    0    0 -0.27579562398E+02 -0.14734360579E+02 -0.25989081154E+02  0.50528856096E+02  0.29999988590E+02 0.  0.
         12    1    3    3    0    0  0.27579562398E+02  0.14734360579E+02  0.25989081154E+02  0.40659143904E+02  0.00000000000E+00 0. -1.
         11    1    4    4    0    0 -0.75995095270E+01 -0.49502134260E+01 -0.81186615248E+00  0.91058379584E+01  0.51100000000E-03 0. -1.
        -11    1    4    4    0    0 -0.79937371872E+01 -0.16040807932E+02 -0.81716204708E+01  0.19697277342E+02  0.51100000000E-03 0.  1.
        -12    1    4    4    0    0 -0.11986315684E+02  0.62566607783E+01 -0.17005594531E+02  0.21725740796E+02  0.00000000000E+00 0.  1.
</event>
<event>
 8    1  0.1615837E-013  0.9118800E+02  0.7816164E-02  0.1184000E+00
        -11   -1    0    0    0    0  0.00000000000E+00  0.00000000000E+00  0.45593999997E+02  0.45594000000E+02  0.51100000000E-03 0. -1.
         11   -1    0    0    0    0 -0.00000000000E+00 -0.00000000000E+00 -0.45593999997E+02  0.45594000000E+02  0.51100000000E-03 0.  1.
         23    2    1    2    0    0 -0.17763568394E-14  0.35527136788E-14  0.00000000000E+00  0.91188000000E+02  0.91188000000E+02 0.  0.
    9900012    2    3    3    0    0  0.84453424002E+01 -0.20055490326E+02  0.34345590664E+02  0.50528854675E+02  0.29999984271E+02 0.  0.
        -12    1    3    3    0    0 -0.84453424002E+01  0.20055490326E+02 -0.34345590664E+02  0.40659145325E+02  0.00000000000E+00 0.  1.
         11    1    4    4    0    0  0.61444013177E+00 -0.40203090744E+01  0.20623610058E+02  0.21020792416E+02  0.51100000000E-03 0. -1.
        -11    1    4    4    0    0 -0.34489727506E+01 -0.24138483191E+01  0.10788749326E+02  0.11580983941E+02  0.51100000000E-03 0.  1.
        -12    1    4    4    0    0  0.11279875019E+02 -0.13621332932E+02  0.29332312803E+01  0.17927078319E+02  0.00000000000E+00 0.  1.
</event>
<event>
 8    1  0.1615837E-013  0.9118800E+02  0.7816164E-02  0.1184000E+00
        -11   -1    0    0    0    0  0.00000000000E+00  0.00000000000E+00  0.45593999997E+02  0.45594000000E+02  0.51100000000E-03 0. -1.
         11   -1    0    0    0    0 -0.00000000000E+00 -0.00000000000E+00 -0.45593999997E+02  0.45594000000E+02  0.51100000000E-03 0.  1.
         23    2    1    2    0    0  0.00000000000E+00  0.00000000000E+00  0.00000000000E+00  0.91188000000E+02  0.91188000000E+02 0.  0.
    9900012    2    3    3    0    0  0.29674034196E+02 -0.43221310616E+01  0.27457922222E+02  0.50528848322E+02  0.29999964961E+02 0.  0.
        -12    1    3    3    0    0 -0.29674034196E+02  0.43221310616E+01 -0.27457922222E+02  0.40659151678E+02  0.00000000000E+00 0.  1.
         11    1    4    4    0    0  0.26224765735E+01  0.12779856746E+01 -0.35512143211E+01  0.45958409653E+01  0.51100000000E-03 0. -1.
        -11    1    4    4    0    0  0.28080096711E+01  0.62866657038E+01  0.63417653206E+01  0.93608264393E+01  0.51100000000E-03 0.  1.
         12    1    4    4    0    0  0.24243547951E+02 -0.11886782440E+02  0.24667371223E+02  0.36572180918E+02  0.00000000000E+00 0. -1.
</event>
<event>
 8    1  0.1882792E-013  0.9118800E+02  0.7816164E-02  0.1184000E+00
        -11   -1    0    0    0    0  0.00000000000E+00  0.00000000000E+00  0.45593999997E+02  0.45594000000E+02  0.51100000000E-03 0. -1.
         11   -1    0    0    0    0 -0.00000000000E+00 -0.00000000000E+00 -0.45593999997E+02  0.45594000000E+02  0.51100000000E-03 0.  1.
         23    2    1    2    0    0  0.00000000000E+00 -0.19984014443E-14  0.71054273576E-14  0.91188000000E+02  0.91188000000E+02 0.  0.
    9900012    2    3    3    0    0 -0.10894887110E+02 -0.10475903305E+01  0.39158267895E+02  0.50528856438E+02  0.29999989629E+02 0.  0.
        -12    1    3    3    0    0  0.10894887110E+02  0.10475903305E+01 -0.39158267895E+02  0.40659143562E+02  0.00000000000E+00 0.  1.
         11    1    4    4    0    0 -0.12489067031E+02 -0.53688821853E+01  0.24480327754E+02  0.28001573857E+02  0.51100000000E-03 0.  1.
        -11    1    4    4    0    0  0.30576786413E+01 -0.57312114979E+01  0.33402543248E+01  0.73043468649E+01  0.51100000000E-03 0. -1.
        -12    1    4    4    0    0 -0.14634987197E+01  0.10052503353E+02  0.11337685816E+02  0.15222935716E+02  0.00000000000E+00 0.  1.
</event>
<event>
 8    1  0.1615837E-013  0.9118800E+02  0.7816164E-02  0.1184000E+00
        -11   -1    0    0    0    0  0.00000000000E+00  0.00000000000E+00  0.45593999997E+02  0.45594000000E+02  0.51100000000E-03 0. -1.
         11   -1    0    0    0    0 -0.00000000000E+00 -0.00000000000E+00 -0.45593999997E+02  0.45594000000E+02  0.51100000000E-03 0.  1.
         23    2    1    2    0    0  0.11726730698E-14  0.00000000000E+00  0.00000000000E+00  0.91188000000E+02  0.91188000000E+02 0.  0.
    9900012    2    3    3    0    0 -0.46911501401E-01 -0.15429602581E+02  0.37617707518E+02  0.50528846597E+02  0.29999959716E+02 0.  0.
        -12    1    3    3    0    0  0.46911501401E-01  0.15429602581E+02 -0.37617707518E+02  0.40659153403E+02  0.00000000000E+00 0.  1.
         11    1    4    4    0    0 -0.63066958018E+01 -0.15500122780E+01  0.15740595822E+02  0.17027721724E+02  0.51100000000E-03 0. -1.
        -11    1    4    4    0    0 -0.65479084821E+01 -0.10064527054E+02  0.10230136740E+02  0.15774203887E+02  0.51100000000E-03 0.  1.
         12    1    4    4    0    0  0.12807692783E+02 -0.38150632496E+01  0.11646974956E+02  0.17726920986E+02  0.00000000000E+00 0. -1.
</event>
<event>
 8    1  0.1615837E-013  0.9118800E+02  0.7816164E-02  0.1184000E+00
        -11   -1    0    0    0    0  0.00000000000E+00  0.00000000000E+00  0.45593999997E+02  0.45594000000E+02  0.51100000000E-03 0. -1.
         11   -1    0    0    0    0 -0.00000000000E+00 -0.00000000000E+00 -0.45593999997E+02  0.45594000000E+02  0.51100000000E-03 0.  1.
         23    2    1    2    0    0 -0.17763568394E-14  0.00000000000E+00  0.00000000000E+00  0.91188000000E+02  0.91188000000E+02 0.  0.
    9900012    2    3    3    0    0  0.64762986976E+01  0.11377985115E+02  0.38493711378E+02  0.50528845979E+02  0.29999957837E+02 0.  0.
        -12    1    3    3    0    0 -0.64762986976E+01 -0.11377985115E+02 -0.38493711378E+02  0.40659154021E+02  0.00000000000E+00 0.  1.
         11    1    4    4    0    0 -0.18128690955E+01  0.15839242228E+01  0.10924794194E+02  0.11186886910E+02  0.51100000000E-03 0. -1.
        -11    1    4    4    0    0 -0.61474174815E+01 -0.76706265142E+00  0.18041769784E+02  0.19075759068E+02  0.51100000000E-03 0.  1.
        -12    1    4    4    0    0  0.14436585275E+02  0.10561123544E+02  0.95271473996E+01  0.20266200001E+02  0.00000000000E+00 0.  1.
</event>
<event>
 8    1  0.1615837E-013  0.9118800E+02  0.7816164E-02  0.1184000E+00
        -11   -1    0    0    0    0  0.00000000000E+00  0.00000000000E+00  0.45593999997E+02  0.45594000000E+02  0.51100000000E-03 0. -1.
         11   -1    0    0    0    0 -0.00000000000E+00 -0.00000000000E+00 -0.45593999997E+02  0.45594000000E+02  0.51100000000E-03 0.  1.
         23    2    1    2    0    0 -0.35527136788E-14  0.00000000000E+00  0.00000000000E+00  0.91188000000E+02  0.91188000000E+02 0.  0.
    9900012    2    3    3    0    0 -0.17373336976E+02  0.35810169925E+02  0.83044540158E+01  0.50528867395E+02  0.30000022933E+02 0.  0.
        -12    1    3    3    0    0  0.17373336976E+02 -0.35810169925E+02 -0.83044540158E+01  0.40659132605E+02  0.00000000000E+00 0.  1.
         11    1    4    4    0    0 -0.51550797132E+01  0.15515159082E+02 -0.31357653695E+01  0.16647162908E+02  0.51100000000E-03 0.  1.
        -11    1    4    4    0    0 -0.80905841273E+01 -0.26618843709E+01  0.39049410610E+01  0.93697249093E+01  0.51100000000E-03 0. -1.
         12    1    4    4    0    0 -0.41276731351E+01  0.22956895214E+02  0.75352783242E+01  0.24511979577E+02  0.00000000000E+00 0. -1.
</event>
<event>
 8    1  0.1615837E-013  0.9118800E+02  0.7816164E-02  0.1184000E+00
        -11   -1    0    0    0    0  0.00000000000E+00  0.00000000000E+00  0.45593999997E+02  0.45594000000E+02  0.51100000000E-03 0. -1.
         11   -1    0    0    0    0 -0.00000000000E+00 -0.00000000000E+00 -0.45593999997E+02  0.45594000000E+02  0.51100000000E-03 0.  1.
         23    2    1    2    0    0  0.88817841970E-15  0.88817841970E-15  0.00000000000E+00  0.91188000000E+02  0.91188000000E+02 0.  0.
    9900012    2    3    3    0    0  0.57246786045E+01 -0.56731556070E+01  0.39852325661E+02  0.50528874330E+02  0.30000044015E+02 0.  0.
        -12    1    3    3    0    0 -0.57246786045E+01  0.56731556070E+01 -0.39852325661E+02  0.40659125670E+02  0.00000000000E+00 0.  1.
         11    1    4    4    0    0 -0.33499521105E+00 -0.11876956221E+02  0.41953251805E+01  0.12600597784E+02  0.51100000000E-03 0. -1.
        -11    1    4    4    0    0 -0.17546958902E+01  0.13801011398E+01  0.16868684494E+02  0.17015761918E+02  0.51100000000E-03 0.  1.
        -12    1    4    4    0    0  0.78143697057E+01  0.48236994744E+01  0.18788315986E+02  0.20912514629E+02  0.00000000000E+00 0.  1.
</event>
<event>
 8    1  0.1615837E-013  0.9118800E+02  0.7816164E-02  0.1184000E+00
        -11   -1    0    0    0    0  0.00000000000E+00  0.00000000000E+00  0.45593999997E+02  0.45594000000E+02  0.51100000000E-03 0. -1.
         11   -1    0    0    0    0 -0.00000000000E+00 -0.00000000000E+00 -0.45593999997E+02  0.45594000000E+02  0.51100000000E-03 0.  1.
         23    2    1    2    0    0  0.00000000000E+00  0.00000000000E+00  0.00000000000E+00  0.91188000000E+02  0.91188000000E+02 0.  0.
    9900012    2    3    3    0    0  0.34647742220E+02  0.15286175397E+02 -0.14799639624E+02  0.50528898532E+02  0.30000117576E+02 0.  0.
         12    1    3    3    0    0 -0.34647742220E+02 -0.15286175397E+02  0.14799639624E+02  0.40659101468E+02  0.00000000000E+00 0. -1.
         11    1    4    4    0    0  0.73159021800E+01  0.62246466127E-01 -0.67633302118E-01  0.73164796080E+01  0.51100000000E-03 0. -1.
        -11    1    4    4    0    0  0.13555060039E+02 -0.62655554485E+01 -0.35796319125E+01  0.15356125899E+02  0.51100000000E-03 0.  1.
         12    1    4    4    0    0  0.13776780001E+02  0.21489484380E+02 -0.11152374409E+02  0.27856293025E+02  0.00000000000E+00 0. -1.
</event>
<event>
 8    1  0.1615837E-013  0.9118800E+02  0.7816164E-02  0.1184000E+00
        -11   -1    0    0    0    0  0.00000000000E+00  0.00000000000E+00  0.45593999997E+02  0.45594000000E+02  0.51100000000E-03 0. -1.
         11   -1    0    0    0    0 -0.00000000000E+00 -0.00000000000E+00 -0.45593999997E+02  0.45594000000E+02  0.51100000000E-03 0.  1.
         23    2    1    2    0    0  0.00000000000E+00  0.00000000000E+00  0.00000000000E+00  0.91188000000E+02  0.91188000000E+02 0.  0.
    9900012    2    3    3    0    0  0.32494843655E+01 -0.93667385334E+01 -0.39431865412E+02  0.50528844214E+02  0.29999952471E+02 0.  0.
         12    1    3    3    0    0 -0.32494843655E+01  0.93667385334E+01  0.39431865412E+02  0.40659155786E+02  0.00000000000E+00 0. -1.
         11    1    4    4    0    0  0.34727415877E+01 -0.44262255547E+01  0.19323038537E+01  0.59485464813E+01  0.51100000000E-03 0. -1.
        -11    1    4    4    0    0 -0.66378378124E+01  0.79626585812E+00 -0.97938514697E+01  0.11858096686E+02  0.51100000000E-03 0.  1.
         12    1    4    4    0    0  0.64145805902E+01 -0.57367788368E+01 -0.31570317796E+02  0.32722201046E+02  0.00000000000E+00 0. -1.
</event>
<event>
 8    1  0.1615837E-013  0.9118800E+02  0.7816164E-02  0.1184000E+00
        -11   -1    0    0    0    0  0.00000000000E+00  0.00000000000E+00  0.45593999997E+02  0.45594000000E+02  0.51100000000E-03 0. -1.
         11   -1    0    0    0    0 -0.00000000000E+00 -0.00000000000E+00 -0.45593999997E+02  0.45594000000E+02  0.51100000000E-03 0.  1.
         23    2    1    2    0    0  0.17763568394E-14  0.00000000000E+00 -0.35527136788E-14  0.91188000000E+02  0.91188000000E+02 0.  0.
    9900012    2    3    3    0    0  0.15632561407E+02  0.33375172683E+02  0.17172199472E+02  0.50528885862E+02  0.30000079066E+02 0.  0.
        -12    1    3    3    0    0 -0.15632561407E+02 -0.33375172683E+02 -0.17172199472E+02  0.40659114138E+02  0.00000000000E+00 0.  1.
         11    1    4    4    0    0  0.30200231388E+01  0.13070443571E+02  0.13031390094E+02  0.18702250211E+02  0.51100000000E-03 0. -1.
        -11    1    4    4    0    0 -0.21543070556E+01 -0.24192913138E+00  0.60749430884E+01  0.64501552216E+01  0.51100000000E-03 0.  1.
        -12    1    4    4    0    0  0.14766845324E+02  0.20546658243E+02 -0.19341337100E+01  0.25376480430E+02  0.00000000000E+00 0.  1.
</event>
<event>
 8    1  0.1615837E-013  0.9118800E+02  0.7816164E-02  0.1184000E+00
        -11   -1    0    0    0    0  0.00000000000E+00  0.00000000000E+00  0.45593999997E+02  0.45594000000E+02  0.51100000000E-03 0. -1.
         11   -1    0    0    0    0 -0.00000000000E+00 -0.00000000000E+00 -0.45593999997E+02  0.45594000000E+02  0.51100000000E-03 0.  1.
         23    2    1    2    0    0  0.00000000000E+00  0.00000000000E+00  0.17763568394E-14  0.91188000000E+02  0.91188000000E+02 0.  0.
    9900012    2    3    3    0    0  0.32189410507E+02  0.22494039205E+02 -0.10536856340E+02  0.50528864617E+02  0.30000014490E+02 0.  0.
         12    1    3    3    0    0 -0.32189410507E+02 -0.22494039205E+02  0.10536856340E+02  0.40659135383E+02  0.00000000000E+00 0. -1.
         11    1    4    4    0    0  0.50871068919E+01  0.97443574931E+01  0.12915902246E+01  0.11067943127E+02  0.51100000000E-03 0.  1.
        -11    1    4    4    0    0  0.96229013646E+00  0.16148719729E+00  0.55540584517E+01  0.56391174813E+01  0.51100000000E-03 0. -1.
         12    1    4    4    0    0  0.26140013479E+02  0.12588194515E+02 -0.17382505016E+02  0.33821804009E+02  0.00000000000E+00 0. -1.
</event>
<event>
 8    1  0.1615837E-013  0.9118800E+02  0.7816164E-02  0.1184000E+00
        -11   -1    0    0    0    0  0.00000000000E+00  0.00000000000E+00  0.45593999997E+02  0.45594000000E+02  0.51100000000E-03 0.  1.
         11   -1    0    0    0    0 -0.00000000000E+00 -0.00000000000E+00 -0.45593999997E+02  0.45594000000E+02  0.51100000000E-03 0. -1.
         23    2    1    2    0    0  0.00000000000E+00  0.00000000000E+00  0.00000000000E+00  0.91188000000E+02  0.91188000000E+02 0.  0.
    9900012    2    3    3    0    0 -0.30647189967E+02  0.14242304397E+02  0.22606902624E+02  0.50528861621E+02  0.30000005384E+02 0.  0.
        -12    1    3    3    0    0  0.30647189967E+02 -0.14242304397E+02 -0.22606902624E+02  0.40659138379E+02  0.00000000000E+00 0.  1.
         11    1    4    4    0    0  0.36449806386E+00  0.13244442307E+01  0.67639348347E+01  0.69020160872E+01  0.51100000000E-03 0. -1.
        -11    1    4    4    0    0  0.31585812314E+01  0.96816767834E+00  0.47119035931E+01  0.57546520121E+01  0.51100000000E-03 0.  1.
         12    1    4    4    0    0 -0.34170269262E+02  0.11949692488E+02  0.11131064196E+02  0.37872193522E+02  0.00000000000E+00 0. -1.
</event>
<event>
 8    1  0.1615837E-013  0.9118800E+02  0.7816164E-02  0.1184000E+00
        -11   -1    0    0    0    0  0.00000000000E+00  0.00000000000E+00  0.45593999997E+02  0.45594000000E+02  0.51100000000E-03 0.  1.
         11   -1    0    0    0    0 -0.00000000000E+00 -0.00000000000E+00 -0.45593999997E+02  0.45594000000E+02  0.51100000000E-03 0. -1.
         23    2    1    2    0    0  0.00000000000E+00  0.00000000000E+00  0.00000000000E+00  0.91188000000E+02  0.91188000000E+02 0.  0.
    9900012    2    3    3    0    0 -0.38732043627E+02 -0.10952489789E+02 -0.57478124832E+01  0.50528860997E+02  0.30000003487E+02 0.  0.
         12    1    3    3    0    0  0.38732043627E+02  0.10952489789E+02  0.57478124832E+01  0.40659139003E+02  0.00000000000E+00 0. -1.
         11    1    4    4    0    0 -0.12501040836E+02 -0.13144251986E+01  0.63973499722E+01  0.14104248385E+02  0.51100000000E-03 0.  1.
        -11    1    4    4    0    0 -0.17202991057E+02 -0.49583762590E+01  0.30295278263E+01  0.18157820231E+02  0.51100000000E-03 0. -1.
         12    1    4    4    0    0 -0.90280117344E+01 -0.46796883315E+01 -0.15174690282E+02  0.18266792381E+02  0.00000000000E+00 0. -1.
</event>
<event>
 8    1  0.1615837E-013  0.9118800E+02  0.7816164E-02  0.1184000E+00
        -11   -1    0    0    0    0  0.00000000000E+00  0.00000000000E+00  0.45593999997E+02  0.45594000000E+02  0.51100000000E-03 0. -1.
         11   -1    0    0    0    0 -0.00000000000E+00 -0.00000000000E+00 -0.45593999997E+02  0.45594000000E+02  0.51100000000E-03 0.  1.
         23    2    1    2    0    0 -0.17763568394E-14  0.00000000000E+00  0.00000000000E+00  0.91188000000E+02  0.91188000000E+02 0.  0.
    9900012    2    3    3    0    0 -0.11850543401E+02  0.48651521270E+01  0.38588342651E+02  0.50528864832E+02  0.30000015142E+02 0.  0.
        -12    1    3    3    0    0  0.11850543401E+02 -0.48651521270E+01 -0.38588342651E+02  0.40659135168E+02  0.00000000000E+00 0.  1.
         11    1    4    4    0    0 -0.67565441428E+01 -0.60435961530E+00  0.18227196408E+02  0.19448568802E+02  0.51100000000E-03 0. -1.
        -11    1    4    4    0    0  0.48922394460E+01  0.10559879897E+02  0.67721608517E+01  0.13465037434E+02  0.51100000000E-03 0.  1.
         12    1    4    4    0    0 -0.99862387041E+01 -0.50903681552E+01  0.13588985391E+02  0.17615258595E+02  0.00000000000E+00 0. -1.
</event>
<event>
 8    1  0.1615837E-013  0.9118800E+02  0.7816164E-02  0.1184000E+00
        -11   -1    0    0    0    0  0.00000000000E+00  0.00000000000E+00  0.45593999997E+02  0.45594000000E+02  0.51100000000E-03 0. -1.
         11   -1    0    0    0    0 -0.00000000000E+00 -0.00000000000E+00 -0.45593999997E+02  0.45594000000E+02  0.51100000000E-03 0.  1.
         23    2    1    2    0    0 -0.88817841970E-15  0.00000000000E+00  0.00000000000E+00  0.91188000000E+02  0.91188000000E+02 0.  0.
    9900012    2    3    3    0    0  0.63659950995E+01  0.57481481993E+01  0.39744164931E+02  0.50528858993E+02  0.29999997396E+02 0.  0.
        -12    1    3    3    0    0 -0.63659950995E+01 -0.57481481993E+01 -0.39744164931E+02  0.40659141007E+02  0.00000000000E+00 0.  1.
         11    1    4    4    0    0 -0.28622762963E+01  0.21351755454E+01 -0.11365209410E+01  0.37474364993E+01  0.51100000000E-03 0. -1.
        -11    1    4    4    0    0  0.16078859216E+01 -0.66630253527E+01  0.44559694533E+01  0.81753818270E+01  0.51100000000E-03 0.  1.
        -12    1    4    4    0    0  0.76203854742E+01  0.10275998007E+02  0.36424716419E+02  0.38606040667E+02  0.00000000000E+00 0.  1.
</event>
<event>
 8    1  0.1615837E-013  0.9118800E+02  0.7816164E-02  0.1184000E+00
        -11   -1    0    0    0    0  0.00000000000E+00  0.00000000000E+00  0.45593999997E+02  0.45594000000E+02  0.51100000000E-03 0. -1.
         11   -1    0    0    0    0 -0.00000000000E+00 -0.00000000000E+00 -0.45593999997E+02  0.45594000000E+02  0.51100000000E-03 0.  1.
         23    2    1    2    0    0  0.17763568394E-14  0.00000000000E+00 -0.71054273576E-14  0.91188000000E+02  0.91188000000E+02 0.  0.
    9900012    2    3    3    0    0  0.77267484518E+01  0.11241082659E+01  0.39902374462E+02  0.50528858977E+02  0.29999997346E+02 0.  0.
        -12    1    3    3    0    0 -0.77267484518E+01 -0.11241082659E+01 -0.39902374462E+02  0.40659141023E+02  0.00000000000E+00 0.  1.
         11    1    4    4    0    0  0.43730417388E+01  0.24573772632E+01  0.23293586859E+01  0.55306517891E+01  0.51100000000E-03 0. -1.
        -11    1    4    4    0    0  0.13286002417E+02  0.32291167831E+01  0.18330781223E+02  0.22868375454E+02  0.51100000000E-03 0.  1.
        -12    1    4    4    0    0 -0.99322957036E+01 -0.45623857804E+01  0.19242234553E+02  0.22129831734E+02  0.00000000000E+00 0.  1.
</event>
<event>
 8    1  0.1615837E-013  0.9118800E+02  0.7816164E-02  0.1184000E+00
        -11   -1    0    0    0    0  0.00000000000E+00  0.00000000000E+00  0.45593999997E+02  0.45594000000E+02  0.51100000000E-03 0. -1.
         11   -1    0    0    0    0 -0.00000000000E+00 -0.00000000000E+00 -0.45593999997E+02  0.45594000000E+02  0.51100000000E-03 0.  1.
         23    2    1    2    0    0  0.35527136788E-14 -0.88817841970E-15  0.00000000000E+00  0.91188000000E+02  0.91188000000E+02 0.  0.
    9900012    2    3    3    0    0 -0.21207757000E+02  0.74716302487E+01 -0.33875815285E+02  0.50528867240E+02  0.30000022464E+02 0.  0.
         12    1    3    3    0    0  0.21207757000E+02 -0.74716302487E+01  0.33875815285E+02  0.40659132760E+02  0.00000000000E+00 0. -1.
         11    1    4    4    0    0 -0.16213677272E+01 -0.61661577979E+01 -0.46717140126E+01  0.79041285018E+01  0.51100000000E-03 0. -1.
        -11    1    4    4    0    0 -0.19676405219E+02  0.25887807351E+01 -0.16693337531E+02  0.25933187737E+02  0.51100000000E-03 0.  1.
        -12    1    4    4    0    0  0.90015946260E-01  0.11049007312E+02 -0.12510763742E+02  0.16691551002E+02  0.00000000000E+00 0.  1.
</event>
<event>
 8    1  0.1615837E-013  0.9118800E+02  0.7816164E-02  0.1184000E+00
        -11   -1    0    0    0    0  0.00000000000E+00  0.00000000000E+00  0.45593999997E+02  0.45594000000E+02  0.51100000000E-03 0. -1.
         11   -1    0    0    0    0 -0.00000000000E+00 -0.00000000000E+00 -0.45593999997E+02  0.45594000000E+02  0.51100000000E-03 0.  1.
         23    2    1    2    0    0  0.00000000000E+00 -0.44408920985E-15  0.00000000000E+00  0.91188000000E+02  0.91188000000E+02 0.  0.
    9900012    2    3    3    0    0 -0.10791921803E+02 -0.38083549270E+01 -0.39015329440E+02  0.50528867265E+02  0.30000022538E+02 0.  0.
         12    1    3    3    0    0  0.10791921803E+02  0.38083549270E+01  0.39015329440E+02  0.40659132735E+02  0.00000000000E+00 0. -1.
         11    1    4    4    0    0  0.47461290933E+00 -0.11673732857E+02 -0.21559977138E+02  0.24522110649E+02  0.51100000000E-03 0. -1.
        -11    1    4    4    0    0  0.36527186601E+00 -0.31920119767E+01 -0.33275155312E+01  0.46254430996E+01  0.51100000000E-03 0.  1.
         12    1    4    4    0    0 -0.11631806579E+02  0.11057389907E+02 -0.14127836771E+02  0.21381313516E+02  0.00000000000E+00 0. -1.
</event>
<event>
 8    1  0.1615837E-013  0.9118800E+02  0.7816164E-02  0.1184000E+00
        -11   -1    0    0    0    0  0.00000000000E+00  0.00000000000E+00  0.45593999997E+02  0.45594000000E+02  0.51100000000E-03 0. -1.
         11   -1    0    0    0    0 -0.00000000000E+00 -0.00000000000E+00 -0.45593999997E+02  0.45594000000E+02  0.51100000000E-03 0.  1.
         23    2    1    2    0    0 -0.35527136788E-14  0.88817841970E-15  0.00000000000E+00  0.91188000000E+02  0.91188000000E+02 0.  0.
    9900012    2    3    3    0    0  0.19566748791E+02 -0.65927570335E+01 -0.35026306928E+02  0.50528877031E+02  0.30000052224E+02 0.  0.
         12    1    3    3    0    0 -0.19566748791E+02  0.65927570335E+01  0.35026306928E+02  0.40659122969E+02  0.00000000000E+00 0. -1.
         11    1    4    4    0    0  0.13977564694E+02 -0.73636354423E+00 -0.92676889462E+00  0.14027595905E+02  0.51100000000E-03 0. -1.
        -11    1    4    4    0    0 -0.71798369024E+00 -0.55121508808E+01 -0.86696592386E+01  0.10298655227E+02  0.51100000000E-03 0.  1.
        -12    1    4    4    0    0  0.63071677874E+01 -0.34424260846E+00 -0.25429878795E+02  0.26202625899E+02  0.00000000000E+00 0.  1.
</event>
<event>
 8    1  0.1615837E-013  0.9118800E+02  0.7816164E-02  0.1184000E+00
        -11   -1    0    0    0    0  0.00000000000E+00  0.00000000000E+00  0.45593999997E+02  0.45594000000E+02  0.51100000000E-03 0. -1.
         11   -1    0    0    0    0 -0.00000000000E+00 -0.00000000000E+00 -0.45593999997E+02  0.45594000000E+02  0.51100000000E-03 0.  1.
         23    2    1    2    0    0  0.00000000000E+00  0.00000000000E+00  0.00000000000E+00  0.91188000000E+02  0.91188000000E+02 0.  0.
    9900012    2    3    3    0    0  0.30868007690E+02  0.20488903975E+02 -0.16749218287E+02  0.50528863289E+02  0.30000010454E+02 0.  0.
         12    1    3    3    0    0 -0.30868007690E+02 -0.20488903975E+02  0.16749218287E+02  0.40659136711E+02  0.00000000000E+00 0. -1.
         11    1    4    4    0    0 -0.23162551394E+00  0.90115797902E+01 -0.12730747329E+01  0.91040068229E+01  0.51100000000E-03 0. -1.
        -11    1    4    4    0    0 -0.19072219418E+01 -0.75738199085E+00 -0.38331855414E+01  0.43479230296E+01  0.51100000000E-03 0.  1.
        -12    1    4    4    0    0  0.33006855145E+02  0.12234706176E+02 -0.11642958013E+02  0.37076933437E+02  0.00000000000E+00 0.  1.
</event>
<event>
 8    1  0.1615837E-013  0.9118800E+02  0.7816164E-02  0.1184000E+00
        -11   -1    0    0    0    0  0.00000000000E+00  0.00000000000E+00  0.45593999997E+02  0.45594000000E+02  0.51100000000E-03 0. -1.
         11   -1    0    0    0    0 -0.00000000000E+00 -0.00000000000E+00 -0.45593999997E+02  0.45594000000E+02  0.51100000000E-03 0.  1.
         23    2    1    2    0    0 -0.26645352591E-14  0.00000000000E+00  0.00000000000E+00  0.91188000000E+02  0.91188000000E+02 0.  0.
    9900012    2    3    3    0    0 -0.56997133544E+01  0.26019803585E+02  0.30718865522E+02  0.50528860684E+02  0.30000002536E+02 0.  0.
        -12    1    3    3    0    0  0.56997133544E+01 -0.26019803585E+02 -0.30718865522E+02  0.40659139316E+02  0.00000000000E+00 0.  1.
         11    1    4    4    0    0  0.53773045724E+01  0.15242439224E+02  0.12280007356E+02  0.20298914722E+02  0.51100000000E-03 0. -1.
        -11    1    4    4    0    0  0.35117820115E+01 -0.21124775131E+01  0.54834473405E+01  0.68456825179E+01  0.51100000000E-03 0.  1.
         12    1    4    4    0    0 -0.14588799938E+02  0.12889841874E+02  0.12955410825E+02  0.23384263444E+02  0.00000000000E+00 0. -1.
</event>
<event>
 8    1  0.1615837E-013  0.9118800E+02  0.7816164E-02  0.1184000E+00
        -11   -1    0    0    0    0  0.00000000000E+00  0.00000000000E+00  0.45593999997E+02  0.45594000000E+02  0.51100000000E-03 0. -1.
         11   -1    0    0    0    0 -0.00000000000E+00 -0.00000000000E+00 -0.45593999997E+02  0.45594000000E+02  0.51100000000E-03 0.  1.
         23    2    1    2    0    0  0.71054273576E-14 -0.88817841970E-15 -0.44408920985E-15  0.91188000000E+02  0.91188000000E+02 0.  0.
    9900012    2    3    3    0    0  0.40261888639E+02  0.51633550274E+01 -0.23421693683E+01  0.50528859954E+02  0.30000000316E+02 0.  0.
        -12    1    3    3    0    0 -0.40261888639E+02 -0.51633550274E+01  0.23421693683E+01  0.40659140046E+02  0.00000000000E+00 0.  1.
         11    1    4    4    0    0  0.12981907651E+01 -0.49974337897E+01 -0.19156634743E+01  0.55072144095E+01  0.51100000000E-03 0. -1.
        -11    1    4    4    0    0  0.14858218799E+02 -0.59315666436E+01  0.73097564571E+00  0.16015132669E+02  0.51100000000E-03 0.  1.
         12    1    4    4    0    0  0.24105479075E+02  0.16092355461E+02 -0.11574815397E+01  0.29006512876E+02  0.00000000000E+00 0. -1.
</event>
<event>
 8    1  0.1615837E-013  0.9118800E+02  0.7816164E-02  0.1184000E+00
        -11   -1    0    0    0    0  0.00000000000E+00  0.00000000000E+00  0.45593999997E+02  0.45594000000E+02  0.51100000000E-03 0. -1.
         11   -1    0    0    0    0 -0.00000000000E+00 -0.00000000000E+00 -0.45593999997E+02  0.45594000000E+02  0.51100000000E-03 0.  1.
         23    2    1    2    0    0 -0.35527136788E-14  0.00000000000E+00  0.00000000000E+00  0.91188000000E+02  0.91188000000E+02 0.  0.
    9900012    2    3    3    0    0  0.22713775888E+02  0.33183794453E+02  0.60070764896E+01  0.50528870677E+02  0.30000032909E+02 0.  0.
        -12    1    3    3    0    0 -0.22713775888E+02 -0.33183794453E+02 -0.60070764896E+01  0.40659129323E+02  0.00000000000E+00 0.  1.
         11    1    4    4    0    0  0.15669100004E+02  0.14057002078E+02 -0.46429479747E+01  0.21556367238E+02  0.51100000000E-03 0. -1.
        -11    1    4    4    0    0  0.92088485251E+01  0.51979012653E+01 -0.10863438538E+01  0.10630202818E+02  0.51100000000E-03 0.  1.
        -12    1    4    4    0    0 -0.21641726405E+01  0.13928891109E+02  0.11736368318E+02  0.18342300620E+02  0.00000000000E+00 0.  1.
</event>
<event>
 8    1  0.1615837E-013  0.9118800E+02  0.7816164E-02  0.1184000E+00
        -11   -1    0    0    0    0  0.00000000000E+00  0.00000000000E+00  0.45593999997E+02  0.45594000000E+02  0.51100000000E-03 0. -1.
         11   -1    0    0    0    0 -0.00000000000E+00 -0.00000000000E+00 -0.45593999997E+02  0.45594000000E+02  0.51100000000E-03 0.  1.
         23    2    1    2    0    0  0.00000000000E+00  0.00000000000E+00  0.71054273576E-14  0.91188000000E+02  0.91188000000E+02 0.  0.
    9900012    2    3    3    0    0  0.99994609697E+01  0.32385680914E+01 -0.39277076236E+02  0.50528852682E+02  0.29999978211E+02 0.  0.
         12    1    3    3    0    0 -0.99994609697E+01 -0.32385680914E+01  0.39277076236E+02  0.40659147318E+02  0.00000000000E+00 0. -1.
         11    1    4    4    0    0 -0.40689363110E+01 -0.48203311007E+01 -0.64968605524E+01  0.90554421163E+01  0.51100000000E-03 0. -1.
        -11    1    4    4    0    0  0.21422887639E+01 -0.18416486242E+01  0.19557953954E+01  0.34360161077E+01  0.51100000000E-03 0.  1.
        -12    1    4    4    0    0  0.11926108517E+02  0.99005478162E+01 -0.34736011079E+02  0.38037394458E+02  0.00000000000E+00 0.  1.
</event>
<event>
 8    1  0.1615837E-013  0.9118800E+02  0.7816164E-02  0.1184000E+00
        -11   -1    0    0    0    0  0.00000000000E+00  0.00000000000E+00  0.45593999997E+02  0.45594000000E+02  0.51100000000E-03 0. -1.
         11   -1    0    0    0    0 -0.00000000000E+00 -0.00000000000E+00 -0.45593999997E+02  0.45594000000E+02  0.51100000000E-03 0.  1.
         23    2    1    2    0    0  0.00000000000E+00  0.00000000000E+00  0.00000000000E+00  0.91188000000E+02  0.91188000000E+02 0.  0.
    9900012    2    3    3    0    0 -0.31563780594E+02 -0.11691028113E+02 -0.22808184705E+02  0.50528859905E+02  0.30000000166E+02 0.  0.
         12    1    3    3    0    0  0.31563780594E+02  0.11691028113E+02  0.22808184705E+02  0.40659140095E+02  0.00000000000E+00 0. -1.
         11    1    4    4    0    0 -0.94941091486E+01  0.17830706555E+01 -0.15021740326E+02  0.17859734941E+02  0.51100000000E-03 0. -1.
        -11    1    4    4    0    0 -0.10180825122E+02 -0.18893693766E+00 -0.10510600436E+02  0.14634125157E+02  0.51100000000E-03 0.  1.
         12    1    4    4    0    0 -0.11888846324E+02 -0.13285161831E+02  0.27241560567E+01  0.18034999806E+02  0.00000000000E+00 0. -1.
</event>
<event>
 8    1  0.1615837E-013  0.9118800E+02  0.7816164E-02  0.1184000E+00
        -11   -1    0    0    0    0  0.00000000000E+00  0.00000000000E+00  0.45593999997E+02  0.45594000000E+02  0.51100000000E-03 0. -1.
         11   -1    0    0    0    0 -0.00000000000E+00 -0.00000000000E+00 -0.45593999997E+02  0.45594000000E+02  0.51100000000E-03 0.  1.
         23    2    1    2    0    0  0.00000000000E+00  0.17763568394E-14  0.00000000000E+00  0.91188000000E+02  0.91188000000E+02 0.  0.
    9900012    2    3    3    0    0  0.89694485832E+01  0.15835231883E+02  0.36358762515E+02  0.50528865869E+02  0.30000018296E+02 0.  0.
        -12    1    3    3    0    0 -0.89694485832E+01 -0.15835231883E+02 -0.36358762515E+02  0.40659134131E+02  0.00000000000E+00 0.  1.
         11    1    4    4    0    0  0.55467301559E+01  0.11941362454E+02  0.82736572220E+01  0.15550426257E+02  0.51100000000E-03 0. -1.
        -11    1    4    4    0    0  0.64614615512E+01  0.93442659106E+01  0.78655603478E+01  0.13817844645E+02  0.51100000000E-03 0.  1.
        -12    1    4    4    0    0 -0.30387431238E+01 -0.54503964820E+01  0.20219544945E+02  0.21160594967E+02  0.00000000000E+00 0.  1.
</event>
<event>
 8    1  0.1615837E-013  0.9118800E+02  0.7816164E-02  0.1184000E+00
        -11   -1    0    0    0    0  0.00000000000E+00  0.00000000000E+00  0.45593999997E+02  0.45594000000E+02  0.51100000000E-03 0. -1.
         11   -1    0    0    0    0 -0.00000000000E+00 -0.00000000000E+00 -0.45593999997E+02  0.45594000000E+02  0.51100000000E-03 0.  1.
         23    2    1    2    0    0 -0.35527136788E-14  0.00000000000E+00  0.00000000000E+00  0.91188000000E+02  0.91188000000E+02 0.  0.
    9900012    2    3    3    0    0 -0.28067004031E+02 -0.86076442610E+01  0.28130359728E+02  0.50528863346E+02  0.30000010626E+02 0.  0.
        -12    1    3    3    0    0  0.28067004031E+02  0.86076442610E+01 -0.28130359728E+02  0.40659136654E+02  0.00000000000E+00 0.  1.
         11    1    4    4    0    0 -0.91843509935E+01 -0.25927112496E+01  0.13165531681E+02  0.16260555940E+02  0.51100000000E-03 0. -1.
        -11    1    4    4    0    0 -0.26891598716E+01 -0.10428986288E+02  0.13713824331E+02  0.17437440002E+02  0.51100000000E-03 0.  1.
        -12    1    4    4    0    0 -0.16193493166E+02  0.44140532763E+01  0.12510037170E+01  0.16830867403E+02  0.00000000000E+00 0.  1.
</event>
<event>
 8    1  0.1615837E-013  0.9118800E+02  0.7816164E-02  0.1184000E+00
        -11   -1    0    0    0    0  0.00000000000E+00  0.00000000000E+00  0.45593999997E+02  0.45594000000E+02  0.51100000000E-03 0. -1.
         11   -1    0    0    0    0 -0.00000000000E+00 -0.00000000000E+00 -0.45593999997E+02  0.45594000000E+02  0.51100000000E-03 0.  1.
         23    2    1    2    0    0  0.00000000000E+00  0.88817841970E-15  0.00000000000E+00  0.91188000000E+02  0.91188000000E+02 0.  0.
    9900012    2    3    3    0    0  0.22308857941E+02  0.51383958200E+01  0.33601770334E+02  0.50528840837E+02  0.29999942208E+02 0.  0.
        -12    1    3    3    0    0 -0.22308857941E+02 -0.51383958200E+01 -0.33601770334E+02  0.40659159163E+02  0.00000000000E+00 0.  1.
         11    1    4    4    0    0  0.93914585530E+01  0.60445719950E+01  0.12419064150E+02  0.16702380039E+02  0.51100000000E-03 0. -1.
        -11    1    4    4    0    0  0.15488416431E+02  0.77342965348E+01  0.14862926215E+02  0.22817032287E+02  0.51100000000E-03 0.  1.
        -12    1    4    4    0    0 -0.25710170429E+01 -0.86404727098E+01  0.63197799694E+01  0.11009428511E+02  0.00000000000E+00 0.  1.
</event>
<event>
 8    1  0.1988527E-013  0.9118800E+02  0.7816164E-02  0.1184000E+00
        -11   -1    0    0    0    0  0.00000000000E+00  0.00000000000E+00  0.45593999997E+02  0.45594000000E+02  0.51100000000E-03 0.  1.
         11   -1    0    0    0    0 -0.00000000000E+00 -0.00000000000E+00 -0.45593999997E+02  0.45594000000E+02  0.51100000000E-03 0. -1.
         23    2    1    2    0    0 -0.35527136788E-14 -0.35527136788E-14  0.00000000000E+00  0.91188000000E+02  0.91188000000E+02 0.  0.
    9900012    2    3    3    0    0  0.20839668192E+02 -0.25904235986E+02  0.23406083477E+02  0.50528856427E+02  0.29999989594E+02 0.  0.
        -12    1    3    3    0    0 -0.20839668192E+02  0.25904235986E+02 -0.23406083477E+02  0.40659143573E+02  0.00000000000E+00 0.  1.
         11    1    4    4    0    0  0.19374207082E+02 -0.14505060889E+02  0.17707079552E+02  0.29988287013E+02  0.51100000000E-03 0. -1.
        -11    1    4    4    0    0  0.11744741983E+01 -0.15296989635E+02  0.63015433842E+01  0.16585738778E+02  0.51100000000E-03 0.  1.
        -12    1    4    4    0    0  0.29098691184E+00  0.38978145378E+01 -0.60253945934E+00  0.39548306353E+01  0.00000000000E+00 0.  1.
</event>
<event>
 8    1  0.1615837E-013  0.9118800E+02  0.7816164E-02  0.1184000E+00
        -11   -1    0    0    0    0  0.00000000000E+00  0.00000000000E+00  0.45593999997E+02  0.45594000000E+02  0.51100000000E-03 0. -1.
         11   -1    0    0    0    0 -0.00000000000E+00 -0.00000000000E+00 -0.45593999997E+02  0.45594000000E+02  0.51100000000E-03 0.  1.
         23    2    1    2    0    0  0.35527136788E-14  0.71054273576E-14 -0.35527136788E-14  0.91188000000E+02  0.91188000000E+02 0.  0.
    9900012    2    3    3    0    0 -0.25825995335E+02 -0.26360773766E+02  0.17067220892E+02  0.50528899450E+02  0.30000120369E+02 0.  0.
        -12    1    3    3    0    0  0.25825995335E+02  0.26360773766E+02 -0.17067220892E+02  0.40659100550E+02  0.00000000000E+00 0.  1.
         11    1    4    4    0    0 -0.73227742590E+01 -0.82963434023E+01  0.53513283390E+00  0.11078750115E+02  0.51100000000E-03 0. -1.
        -11    1    4    4    0    0  0.12020106133E+01 -0.57250273906E+01 -0.50493611445E+01  0.77276656479E+01  0.51100000000E-03 0.  1.
         12    1    4    4    0    0 -0.19705231689E+02 -0.12339402973E+02  0.21581449202E+02  0.31722483688E+02  0.00000000000E+00 0. -1.
</event>
<event>
 8    1  0.1615837E-013  0.9118800E+02  0.7816164E-02  0.1184000E+00
        -11   -1    0    0    0    0  0.00000000000E+00  0.00000000000E+00  0.45593999997E+02  0.45594000000E+02  0.51100000000E-03 0. -1.
         11   -1    0    0    0    0 -0.00000000000E+00 -0.00000000000E+00 -0.45593999997E+02  0.45594000000E+02  0.51100000000E-03 0.  1.
         23    2    1    2    0    0 -0.17763568394E-14  0.00000000000E+00  0.00000000000E+00  0.91188000000E+02  0.91188000000E+02 0.  0.
    9900012    2    3    3    0    0 -0.13596944108E+02  0.35570612603E+02 -0.14248506454E+02  0.50528864419E+02  0.30000013888E+02 0.  0.
         12    1    3    3    0    0  0.13596944108E+02 -0.35570612603E+02  0.14248506454E+02  0.40659135581E+02  0.00000000000E+00 0. -1.
         11    1    4    4    0    0 -0.45590201973E+01  0.72013233591E+01  0.42827729421E+01  0.95386512473E+01  0.51100000000E-03 0. -1.
        -11    1    4    4    0    0 -0.15742242568E+02  0.18170081474E+02 -0.14782019880E+02  0.28221944898E+02  0.51100000000E-03 0.  1.
        -12    1    4    4    0    0  0.67043186573E+01  0.10199207770E+02 -0.37492595157E+01  0.12768268273E+02  0.00000000000E+00 0.  1.
</event>
<event>
 8    1  0.1615837E-013  0.9118800E+02  0.7816164E-02  0.1184000E+00
        -11   -1    0    0    0    0  0.00000000000E+00  0.00000000000E+00  0.45593999997E+02  0.45594000000E+02  0.51100000000E-03 0. -1.
         11   -1    0    0    0    0 -0.00000000000E+00 -0.00000000000E+00 -0.45593999997E+02  0.45594000000E+02  0.51100000000E-03 0.  1.
         23    2    1    2    0    0  0.88817841970E-15  0.00000000000E+00  0.00000000000E+00  0.91188000000E+02  0.91188000000E+02 0.  0.
    9900012    2    3    3    0    0 -0.75823081622E+01 -0.31950796887E+02  0.23975444086E+02  0.50528846812E+02  0.29999960371E+02 0.  0.
        -12    1    3    3    0    0  0.75823081622E+01  0.31950796887E+02 -0.23975444086E+02  0.40659153188E+02  0.00000000000E+00 0.  1.
         11    1    4    4    0    0 -0.22585289960E+00  0.50005938371E+00 -0.16980676013E+01  0.17845175144E+01  0.51100000000E-03 0. -1.
        -11    1    4    4    0    0 -0.94985605626E+01 -0.61591534394E+00  0.63488477719E+01  0.11441585238E+02  0.51100000000E-03 0.  1.
         12    1    4    4    0    0  0.21421053001E+01 -0.31834940927E+02  0.19324663916E+02  0.37302744060E+02  0.00000000000E+00 0. -1.
</event>
<event>
 8    1  0.1615837E-013  0.9118800E+02  0.7816164E-02  0.1184000E+00
        -11   -1    0    0    0    0  0.00000000000E+00  0.00000000000E+00  0.45593999997E+02  0.45594000000E+02  0.51100000000E-03 0. -1.
         11   -1    0    0    0    0 -0.00000000000E+00 -0.00000000000E+00 -0.45593999997E+02  0.45594000000E+02  0.51100000000E-03 0.  1.
         23    2    1    2    0    0  0.00000000000E+00 -0.88817841970E-15  0.71054273576E-14  0.91188000000E+02  0.91188000000E+02 0.  0.
    9900012    2    3    3    0    0 -0.18452131608E+02  0.62696540259E+01 -0.35684407988E+02  0.50528847328E+02  0.29999961940E+02 0.  0.
         12    1    3    3    0    0  0.18452131608E+02 -0.62696540259E+01  0.35684407988E+02  0.40659152672E+02  0.00000000000E+00 0. -1.
         11    1    4    4    0    0 -0.68183495092E+01  0.12786740331E+01 -0.23539077271E+02  0.24540029673E+02  0.51100000000E-03 0. -1.
        -11    1    4    4    0    0 -0.75303336330E+01  0.70777428369E+01 -0.16618620143E+02  0.19569846806E+02  0.51100000000E-03 0.  1.
        -12    1    4    4    0    0 -0.41034484657E+01 -0.20867628441E+01  0.44732894258E+01  0.64189708494E+01  0.00000000000E+00 0.  1.
</event>
<event>
 8    1  0.1897613E-013  0.9118800E+02  0.7816164E-02  0.1184000E+00
        -11   -1    0    0    0    0  0.00000000000E+00  0.00000000000E+00  0.45593999997E+02  0.45594000000E+02  0.51100000000E-03 0. -1.
         11   -1    0    0    0    0 -0.00000000000E+00 -0.00000000000E+00 -0.45593999997E+02  0.45594000000E+02  0.51100000000E-03 0.  1.
         23    2    1    2    0    0  0.00000000000E+00  0.26645352591E-14  0.00000000000E+00  0.91188000000E+02  0.91188000000E+02 0.  0.
    9900012    2    3    3    0    0  0.10737116289E+02 -0.28485931227E+01  0.39112212071E+02  0.50528864715E+02  0.30000014789E+02 0.  0.
        -12    1    3    3    0    0 -0.10737116289E+02  0.28485931227E+01 -0.39112212071E+02  0.40659135285E+02  0.00000000000E+00 0.  1.
         11    1    4    4    0    0  0.71408001656E+01 -0.78872312676E+01  0.19156430724E+02  0.21912742467E+02  0.51100000000E-03 0. -1.
        -11    1    4    4    0    0  0.60186660882E+01 -0.64052320857E+01  0.78936913576E+01  0.11813623621E+02  0.51100000000E-03 0.  1.
        -12    1    4    4    0    0 -0.24223499643E+01  0.11443870231E+02  0.12062089990E+02  0.16802498628E+02  0.00000000000E+00 0.  1.
</event>
<event>
 8    1  0.1615837E-013  0.9118800E+02  0.7816164E-02  0.1184000E+00
        -11   -1    0    0    0    0  0.00000000000E+00  0.00000000000E+00  0.45593999997E+02  0.45594000000E+02  0.51100000000E-03 0. -1.
         11   -1    0    0    0    0 -0.00000000000E+00 -0.00000000000E+00 -0.45593999997E+02  0.45594000000E+02  0.51100000000E-03 0.  1.
         23    2    1    2    0    0  0.00000000000E+00  0.00000000000E+00 -0.35527136788E-14  0.91188000000E+02  0.91188000000E+02 0.  0.
    9900012    2    3    3    0    0 -0.26735893266E+02 -0.26254403896E+02 -0.15781779469E+02  0.50528852494E+02  0.29999977642E+02 0.  0.
         12    1    3    3    0    0  0.26735893266E+02  0.26254403896E+02  0.15781779469E+02  0.40659147506E+02  0.00000000000E+00 0. -1.
         11    1    4    4    0    0 -0.70064251944E+01  0.14321056182E+01 -0.66923936762E+01  0.97943378482E+01  0.51100000000E-03 0. -1.
        -11    1    4    4    0    0 -0.10152554071E+02 -0.51993371157E+00  0.99653969595E+00  0.10214586475E+02  0.51100000000E-03 0.  1.
        -12    1    4    4    0    0 -0.95769140007E+01 -0.27166575802E+02 -0.10085925489E+02  0.30519928171E+02  0.00000000000E+00 0.  1.
</event>
<event>
 8    1  0.1615837E-013  0.9118800E+02  0.7816164E-02  0.1184000E+00
        -11   -1    0    0    0    0  0.00000000000E+00  0.00000000000E+00  0.45593999997E+02  0.45594000000E+02  0.51100000000E-03 0. -1.
         11   -1    0    0    0    0 -0.00000000000E+00 -0.00000000000E+00 -0.45593999997E+02  0.45594000000E+02  0.51100000000E-03 0.  1.
         23    2    1    2    0    0  0.00000000000E+00  0.00000000000E+00  0.00000000000E+00  0.91188000000E+02  0.91188000000E+02 0.  0.
    9900012    2    3    3    0    0 -0.41449175784E+01 -0.30812430687E+02 -0.26202591641E+02  0.50528904643E+02  0.30000136151E+02 0.  0.
         12    1    3    3    0    0  0.41449175784E+01  0.30812430687E+02  0.26202591641E+02  0.40659095357E+02  0.00000000000E+00 0. -1.
         11    1    4    4    0    0  0.18104450069E+01 -0.66502246514E+01  0.81744240051E+00  0.69405627564E+01  0.51100000000E-03 0. -1.
        -11    1    4    4    0    0  0.45901451264E+01 -0.18696048874E+02 -0.73429810522E+01  0.20604151203E+02  0.51100000000E-03 0.  1.
         12    1    4    4    0    0 -0.10545507712E+02 -0.54661571611E+01 -0.19677052990E+02  0.22984190683E+02  0.00000000000E+00 0. -1.
</event>
<event>
 8    1  0.1615837E-013  0.9118800E+02  0.7816164E-02  0.1184000E+00
        -11   -1    0    0    0    0  0.00000000000E+00  0.00000000000E+00  0.45593999997E+02  0.45594000000E+02  0.51100000000E-03 0. -1.
         11   -1    0    0    0    0 -0.00000000000E+00 -0.00000000000E+00 -0.45593999997E+02  0.45594000000E+02  0.51100000000E-03 0.  1.
         23    2    1    2    0    0  0.35527136788E-14  0.00000000000E+00  0.00000000000E+00  0.91188000000E+02  0.91188000000E+02 0.  0.
    9900012    2    3    3    0    0  0.20895257780E+02  0.55053571194E+01 -0.34441929400E+02  0.50528840448E+02  0.29999941025E+02 0.  0.
         12    1    3    3    0    0 -0.20895257780E+02 -0.55053571194E+01  0.34441929400E+02  0.40659159552E+02  0.00000000000E+00 0. -1.
         11    1    4    4    0    0  0.34730525190E+01  0.59517125796E+01 -0.24644509382E+02  0.25589779589E+02  0.51100000000E-03 0. -1.
        -11    1    4    4    0    0 -0.99612230417E+00  0.16118302863E+00 -0.60499748567E+01  0.61335500032E+01  0.51100000000E-03 0.  1.
         12    1    4    4    0    0  0.18418327565E+02 -0.60753848877E+00 -0.37474451607E+01  0.18805510856E+02  0.00000000000E+00 0. -1.
</event>
<event>
 8    1  0.1615837E-013  0.9118800E+02  0.7816164E-02  0.1184000E+00
        -11   -1    0    0    0    0  0.00000000000E+00  0.00000000000E+00  0.45593999997E+02  0.45594000000E+02  0.51100000000E-03 0. -1.
         11   -1    0    0    0    0 -0.00000000000E+00 -0.00000000000E+00 -0.45593999997E+02  0.45594000000E+02  0.51100000000E-03 0.  1.
         23    2    1    2    0    0 -0.88817841970E-15  0.00000000000E+00  0.00000000000E+00  0.91188000000E+02  0.91188000000E+02 0.  0.
    9900012    2    3    3    0    0  0.10129073823E+01  0.13928155021E+02  0.38185675493E+02  0.50528864538E+02  0.30000014249E+02 0.  0.
        -12    1    3    3    0    0 -0.10129073823E+01 -0.13928155021E+02 -0.38185675493E+02  0.40659135462E+02  0.00000000000E+00 0.  1.
         11    1    4    4    0    0 -0.88943044656E+01  0.19957475974E+01  0.13131572417E+02  0.15985301211E+02  0.51100000000E-03 0. -1.
        -11    1    4    4    0    0 -0.29845838766E+01 -0.28686748275E+01  0.39346890453E+01  0.57112883246E+01  0.51100000000E-03 0.  1.
        -12    1    4    4    0    0  0.12891795725E+02  0.14801082251E+02  0.21119414031E+02  0.28832275002E+02  0.00000000000E+00 0.  1.
</event>
<event>
 8    1  0.1615837E-013  0.9118800E+02  0.7816164E-02  0.1184000E+00
        -11   -1    0    0    0    0  0.00000000000E+00  0.00000000000E+00  0.45593999997E+02  0.45594000000E+02  0.51100000000E-03 0.  1.
         11   -1    0    0    0    0 -0.00000000000E+00 -0.00000000000E+00 -0.45593999997E+02  0.45594000000E+02  0.51100000000E-03 0. -1.
         23    2    1    2    0    0  0.00000000000E+00  0.77715611724E-15  0.00000000000E+00  0.91188000000E+02  0.91188000000E+02 0.  0.
    9900012    2    3    3    0    0  0.16813838632E+02 -0.66044537727E+00  0.37013837446E+02  0.50528861788E+02  0.30000005890E+02 0.  0.
        -12    1    3    3    0    0 -0.16813838632E+02  0.66044537727E+00 -0.37013837446E+02  0.40659138212E+02  0.00000000000E+00 0.  1.
         11    1    4    4    0    0 -0.22424323110E+01 -0.65091751878E+01  0.65196772321E+01  0.94817749270E+01  0.51100000000E-03 0. -1.
        -11    1    4    4    0    0  0.13982359778E+02 -0.53657260436E+01  0.14311135370E+02  0.20714873806E+02  0.51100000000E-03 0.  1.
        -12    1    4    4    0    0  0.50739111651E+01  0.11214455854E+02  0.16183024844E+02  0.20332213055E+02  0.00000000000E+00 0.  1.
</event>
<event>
 8    1  0.1615837E-013  0.9118800E+02  0.7816164E-02  0.1184000E+00
        -11   -1    0    0    0    0  0.00000000000E+00  0.00000000000E+00  0.45593999997E+02  0.45594000000E+02  0.51100000000E-03 0. -1.
         11   -1    0    0    0    0 -0.00000000000E+00 -0.00000000000E+00 -0.45593999997E+02  0.45594000000E+02  0.51100000000E-03 0.  1.
         23    2    1    2    0    0  0.17763568394E-14  0.35527136788E-14  0.00000000000E+00  0.91188000000E+02  0.91188000000E+02 0.  0.
    9900012    2    3    3    0    0  0.13965489143E+02  0.23977113398E+02 -0.29719159402E+02  0.50528864625E+02  0.30000014513E+02 0.  0.
         12    1    3    3    0    0 -0.13965489143E+02 -0.23977113398E+02  0.29719159402E+02  0.40659135375E+02  0.00000000000E+00 0. -1.
         11    1    4    4    0    0 -0.23047760595E+01  0.19801250177E+01  0.12386620085E+01  0.32813368621E+01  0.51100000000E-03 0. -1.
        -11    1    4    4    0    0  0.11437356942E+02  0.25822797936E+02 -0.29646572745E+02  0.40945687232E+02  0.51100000000E-03 0.  1.
         12    1    4    4    0    0  0.48329082604E+01 -0.38258095564E+01 -0.13112486656E+01  0.63018405309E+01  0.00000000000E+00 0. -1.
</event>
<event>
 8    1  0.1615837E-013  0.9118800E+02  0.7816164E-02  0.1184000E+00
        -11   -1    0    0    0    0  0.00000000000E+00  0.00000000000E+00  0.45593999997E+02  0.45594000000E+02  0.51100000000E-03 0.  1.
         11   -1    0    0    0    0 -0.00000000000E+00 -0.00000000000E+00 -0.45593999997E+02  0.45594000000E+02  0.51100000000E-03 0. -1.
         23    2    1    2    0    0 -0.88817841970E-15  0.00000000000E+00  0.00000000000E+00  0.91188000000E+02  0.91188000000E+02 0.  0.
    9900012    2    3    3    0    0  0.60938304541E+01  0.27749209479E+02 -0.29086303105E+02  0.50528850665E+02  0.29999972082E+02 0.  0.
         12    1    3    3    0    0 -0.60938304541E+01 -0.27749209479E+02  0.29086303105E+02  0.40659149335E+02  0.00000000000E+00 0. -1.
         11    1    4    4    0    0 -0.46527439103E+01  0.54592619253E+01  0.36646207950E+01  0.80548750764E+01  0.51100000000E-03 0.  1.
        -11    1    4    4    0    0  0.99922317239E+01  0.86124787846E+01 -0.13801912705E+02  0.19092204698E+02  0.51100000000E-03 0. -1.
        -12    1    4    4    0    0  0.75434264045E+00  0.13677468769E+02 -0.18949011195E+02  0.23381770891E+02  0.00000000000E+00 0.  1.
</event>
<event>
 8    1  0.1615837E-013  0.9118800E+02  0.7816164E-02  0.1184000E+00
        -11   -1    0    0    0    0  0.00000000000E+00  0.00000000000E+00  0.45593999997E+02  0.45594000000E+02  0.51100000000E-03 0. -1.
         11   -1    0    0    0    0 -0.00000000000E+00 -0.00000000000E+00 -0.45593999997E+02  0.45594000000E+02  0.51100000000E-03 0.  1.
         23    2    1    2    0    0  0.24980018054E-15  0.00000000000E+00  0.00000000000E+00  0.91188000000E+02  0.91188000000E+02 0.  0.
    9900012    2    3    3    0    0  0.16092920289E+00 -0.35961311899E+02  0.18971631040E+02  0.50528872660E+02  0.30000038938E+02 0.  0.
        -12    1    3    3    0    0 -0.16092920289E+00  0.35961311899E+02 -0.18971631040E+02  0.40659127340E+02  0.00000000000E+00 0.  1.
         11    1    4    4    0    0 -0.50441044289E+01 -0.23954148229E+01  0.14641280104E+00  0.55859143059E+01  0.51100000000E-03 0. -1.
        -11    1    4    4    0    0 -0.38718082747E+01 -0.36874521543E+01 -0.36457707012E+01  0.64714640518E+01  0.51100000000E-03 0.  1.
         12    1    4    4    0    0  0.90768419065E+01 -0.29878444922E+02  0.22470988940E+02  0.38471494303E+02  0.00000000000E+00 0. -1.
</event>
<event>
 8    1  0.1615837E-013  0.9118800E+02  0.7816164E-02  0.1184000E+00
        -11   -1    0    0    0    0  0.00000000000E+00  0.00000000000E+00  0.45593999997E+02  0.45594000000E+02  0.51100000000E-03 0. -1.
         11   -1    0    0    0    0 -0.00000000000E+00 -0.00000000000E+00 -0.45593999997E+02  0.45594000000E+02  0.51100000000E-03 0.  1.
         23    2    1    2    0    0 -0.88817841970E-15  0.00000000000E+00 -0.71054273576E-14  0.91188000000E+02  0.91188000000E+02 0.  0.
    9900012    2    3    3    0    0  0.60439844208E+01  0.93181069003E+01  0.39112680959E+02  0.50528945957E+02  0.30000261728E+02 0.  0.
        -12    1    3    3    0    0 -0.60439844208E+01 -0.93181069003E+01 -0.39112680959E+02  0.40659054043E+02  0.00000000000E+00 0.  1.
         11    1    4    4    0    0 -0.52299776661E+01  0.80348883108E+00 -0.12351465987E+01  0.54335851950E+01  0.51100000000E-03 0. -1.
        -11    1    4    4    0    0  0.88461463477E+00  0.45803404342E+01  0.18360964310E+01  0.50133134662E+01  0.51100000000E-03 0.  1.
         12    1    4    4    0    0  0.10389347452E+02  0.39342776351E+01  0.38511731127E+02  0.40082047295E+02  0.00000000000E+00 0. -1.
</event>
<event>
 8    1  0.1615837E-013  0.9118800E+02  0.7816164E-02  0.1184000E+00
        -11   -1    0    0    0    0  0.00000000000E+00  0.00000000000E+00  0.45593999997E+02  0.45594000000E+02  0.51100000000E-03 0. -1.
         11   -1    0    0    0    0 -0.00000000000E+00 -0.00000000000E+00 -0.45593999997E+02  0.45594000000E+02  0.51100000000E-03 0.  1.
         23    2    1    2    0    0 -0.71054273576E-14  0.00000000000E+00  0.00000000000E+00  0.91188000000E+02  0.91188000000E+02 0.  0.
    9900012    2    3    3    0    0  0.36976708251E+02 -0.36209678076E+01  0.16515938775E+02  0.50528873171E+02  0.30000040489E+02 0.  0.
         12    1    3    3    0    0 -0.36976708251E+02  0.36209678076E+01 -0.16515938775E+02  0.40659126829E+02  0.00000000000E+00 0. -1.
         11    1    4    4    0    0  0.70596593967E+01 -0.23421649689E+01  0.91354539155E+01  0.11780536747E+02  0.51100000000E-03 0. -1.
        -11    1    4    4    0    0  0.13554509055E+02 -0.10437012433E+02 -0.29195038514E+01  0.17354522386E+02  0.51100000000E-03 0.  1.
         12    1    4    4    0    0  0.16362539799E+02  0.91582095942E+01  0.10299988711E+02  0.21393814038E+02  0.00000000000E+00 0. -1.
</event>
<event>
 8    1  0.1615837E-013  0.9118800E+02  0.7816164E-02  0.1184000E+00
        -11   -1    0    0    0    0  0.00000000000E+00  0.00000000000E+00  0.45593999997E+02  0.45594000000E+02  0.51100000000E-03 0. -1.
         11   -1    0    0    0    0 -0.00000000000E+00 -0.00000000000E+00 -0.45593999997E+02  0.45594000000E+02  0.51100000000E-03 0.  1.
         23    2    1    2    0    0  0.71054273576E-14 -0.88817841970E-15  0.00000000000E+00  0.91188000000E+02  0.91188000000E+02 0.  0.
    9900012    2    3    3    0    0  0.23553339748E+02 -0.42448955984E+01  0.32869232136E+02  0.50528863596E+02  0.30000011386E+02 0.  0.
        -12    1    3    3    0    0 -0.23553339748E+02  0.42448955984E+01 -0.32869232136E+02  0.40659136404E+02  0.00000000000E+00 0.  1.
         11    1    4    4    0    0  0.12056756249E+02 -0.10954938778E+01  0.67510962851E+01  0.13861557611E+02  0.51100000000E-03 0. -1.
        -11    1    4    4    0    0  0.89296298909E+01  0.52365495114E+01  0.14081371902E+01  0.10447133166E+02  0.51100000000E-03 0.  1.
         12    1    4    4    0    0  0.25669536082E+01 -0.83859512320E+01  0.24709998660E+02  0.26220172820E+02  0.00000000000E+00 0. -1.
</event>
<event>
 8    1  0.1615837E-013  0.9118800E+02  0.7816164E-02  0.1184000E+00
        -11   -1    0    0    0    0  0.00000000000E+00  0.00000000000E+00  0.45593999997E+02  0.45594000000E+02  0.51100000000E-03 0. -1.
         11   -1    0    0    0    0 -0.00000000000E+00 -0.00000000000E+00 -0.45593999997E+02  0.45594000000E+02  0.51100000000E-03 0.  1.
         23    2    1    2    0    0  0.00000000000E+00 -0.17763568394E-14 -0.10658141036E-13  0.91188000000E+02  0.91188000000E+02 0.  0.
    9900012    2    3    3    0    0  0.27471058751E+02  0.90810341374E+01  0.28566457986E+02  0.50528846396E+02  0.29999959106E+02 0.  0.
        -12    1    3    3    0    0 -0.27471058751E+02 -0.90810341374E+01 -0.28566457986E+02  0.40659153604E+02  0.00000000000E+00 0.  1.
         11    1    4    4    0    0  0.15787860261E+02 -0.83205575056E+01  0.11748926158E+02  0.21366456771E+02  0.51100000000E-03 0. -1.
        -11    1    4    4    0    0  0.69956449350E+01  0.46265731068E+01  0.12401121741E+01  0.84783315124E+01  0.51100000000E-03 0.  1.
         12    1    4    4    0    0  0.46875535554E+01  0.12775018536E+02  0.15577419654E+02  0.20684058113E+02  0.00000000000E+00 0. -1.
</event>
<event>
 8    1  0.1615837E-013  0.9118800E+02  0.7816164E-02  0.1184000E+00
        -11   -1    0    0    0    0  0.00000000000E+00  0.00000000000E+00  0.45593999997E+02  0.45594000000E+02  0.51100000000E-03 0. -1.
         11   -1    0    0    0    0 -0.00000000000E+00 -0.00000000000E+00 -0.45593999997E+02  0.45594000000E+02  0.51100000000E-03 0.  1.
         23    2    1    2    0    0  0.35527136788E-14  0.00000000000E+00  0.35527136788E-14  0.91188000000E+02  0.91188000000E+02 0.  0.
    9900012    2    3    3    0    0 -0.16903926292E+02  0.20162471561E+02 -0.30998336347E+02  0.50528870154E+02  0.30000031321E+02 0.  0.
         12    1    3    3    0    0  0.16903926292E+02 -0.20162471561E+02  0.30998336347E+02  0.40659129846E+02  0.00000000000E+00 0. -1.
         11    1    4    4    0    0 -0.12692531651E+01 -0.91634110082E+00  0.20317006559E+01  0.25648571941E+01  0.51100000000E-03 0. -1.
        -11    1    4    4    0    0 -0.50292113402E+01 -0.47110019623E+01 -0.63207339796E+01  0.93508387054E+01  0.51100000000E-03 0.  1.
        -12    1    4    4    0    0 -0.10605461787E+02  0.25789814624E+02 -0.26709303023E+02  0.38613174255E+02  0.00000000000E+00 0.  1.
</event>
<event>
 8    1  0.2390864E-013  0.9118800E+02  0.7816164E-02  0.1184000E+00
        -11   -1    0    0    0    0  0.00000000000E+00  0.00000000000E+00  0.45593999997E+02  0.45594000000E+02  0.51100000000E-03 0. -1.
         11   -1    0    0    0    0 -0.00000000000E+00 -0.00000000000E+00 -0.45593999997E+02  0.45594000000E+02  0.51100000000E-03 0.  1.
         23    2    1    2    0    0 -0.44408920985E-15  0.00000000000E+00  0.71054273576E-14  0.91188000000E+02  0.91188000000E+02 0.  0.
    9900012    2    3    3    0    0  0.35667626586E+01  0.13495957034E+02  0.38187758732E+02  0.50528836591E+02  0.29999929303E+02 0.  0.
        -12    1    3    3    0    0 -0.35667626586E+01 -0.13495957034E+02 -0.38187758732E+02  0.40659163409E+02  0.00000000000E+00 0.  1.
         11    1    4    4    0    0 -0.10710555694E+01  0.85534461724E+01  0.24128519162E+02  0.25622139619E+02  0.51100000000E-03 0. -1.
        -11    1    4    4    0    0  0.43126669183E+01 -0.34506304711E+01  0.15436710526E+02  0.16395059583E+02  0.51100000000E-03 0.  1.
        -12    1    4    4    0    0  0.32515130970E+00  0.83931413332E+01 -0.13774709560E+01  0.85116373894E+01  0.00000000000E+00 0.  1.
</event>
<event>
 8    1  0.1615837E-013  0.9118800E+02  0.7816164E-02  0.1184000E+00
        -11   -1    0    0    0    0  0.00000000000E+00  0.00000000000E+00  0.45593999997E+02  0.45594000000E+02  0.51100000000E-03 0. -1.
         11   -1    0    0    0    0 -0.00000000000E+00 -0.00000000000E+00 -0.45593999997E+02  0.45594000000E+02  0.51100000000E-03 0.  1.
         23    2    1    2    0    0  0.00000000000E+00  0.00000000000E+00  0.00000000000E+00  0.91188000000E+02  0.91188000000E+02 0.  0.
    9900012    2    3    3    0    0  0.40315530856E+01  0.44774294489E+01 -0.40210254324E+02  0.50528863910E+02  0.30000012341E+02 0.  0.
         12    1    3    3    0    0 -0.40315530856E+01 -0.44774294489E+01  0.40210254324E+02  0.40659136090E+02  0.00000000000E+00 0. -1.
         11    1    4    4    0    0  0.71791126392E+01 -0.50847934407E-01 -0.24768599527E+01  0.75945427305E+01  0.51100000000E-03 0. -1.
        -11    1    4    4    0    0  0.90929914996E+00  0.56114836159E+01 -0.77395565678E+00  0.57371230539E+01  0.51100000000E-03 0.  1.
        -12    1    4    4    0    0 -0.40568587036E+01 -0.10832062326E+01 -0.36959438715E+02  0.37197198126E+02  0.00000000000E+00 0.  1.
</event>
<event>
 8    1  0.1615837E-013  0.9118800E+02  0.7816164E-02  0.1184000E+00
        -11   -1    0    0    0    0  0.00000000000E+00  0.00000000000E+00  0.45593999997E+02  0.45594000000E+02  0.51100000000E-03 0. -1.
         11   -1    0    0    0    0 -0.00000000000E+00 -0.00000000000E+00 -0.45593999997E+02  0.45594000000E+02  0.51100000000E-03 0.  1.
         23    2    1    2    0    0  0.00000000000E+00 -0.66613381478E-15  0.00000000000E+00  0.91188000000E+02  0.91188000000E+02 0.  0.
    9900012    2    3    3    0    0  0.23357257511E+02  0.12652279946E+01 -0.33256613922E+02  0.50528872490E+02  0.30000038420E+02 0.  0.
         12    1    3    3    0    0 -0.23357257511E+02 -0.12652279946E+01  0.33256613922E+02  0.40659127510E+02  0.00000000000E+00 0. -1.
         11    1    4    4    0    0 -0.70129934171E+00 -0.23697167489E+01 -0.70368999148E+01  0.74582396656E+01  0.51100000000E-03 0. -1.
        -11    1    4    4    0    0  0.16340781792E+02 -0.84914960080E+01 -0.20615125378E+02  0.27642540561E+02  0.51100000000E-03 0.  1.
         12    1    4    4    0    0  0.77177750608E+01  0.12126440751E+02 -0.56045886296E+01  0.15428092264E+02  0.00000000000E+00 0. -1.
</event>
<event>
 8    1  0.1734546E-013  0.9118800E+02  0.7816164E-02  0.1184000E+00
        -11   -1    0    0    0    0  0.00000000000E+00  0.00000000000E+00  0.45593999997E+02  0.45594000000E+02  0.51100000000E-03 0. -1.
         11   -1    0    0    0    0 -0.00000000000E+00 -0.00000000000E+00 -0.45593999997E+02  0.45594000000E+02  0.51100000000E-03 0.  1.
         23    2    1    2    0    0  0.00000000000E+00  0.16653345369E-15  0.71054273576E-14  0.91188000000E+02  0.91188000000E+02 0.  0.
    9900012    2    3    3    0    0  0.47456787177E+01  0.48556511549E+00  0.40378316964E+02  0.50528859320E+02  0.29999998389E+02 0.  0.
        -12    1    3    3    0    0 -0.47456787177E+01 -0.48556511549E+00 -0.40378316964E+02  0.40659140680E+02  0.00000000000E+00 0.  1.
         11    1    4    4    0    0 -0.11424976342E+01  0.39089784072E+01  0.16851653101E+02  0.17336770909E+02  0.51100000000E-03 0. -1.
        -11    1    4    4    0    0 -0.86146578534E+01 -0.11201976837E+01  0.97175962237E+01  0.13034525285E+02  0.51100000000E-03 0.  1.
        -12    1    4    4    0    0  0.14502834205E+02 -0.23032156081E+01  0.13809067639E+02  0.20157563126E+02  0.00000000000E+00 0.  1.
</event>
<event>
 8    1  0.1615837E-013  0.9118800E+02  0.7816164E-02  0.1184000E+00
        -11   -1    0    0    0    0  0.00000000000E+00  0.00000000000E+00  0.45593999997E+02  0.45594000000E+02  0.51100000000E-03 0. -1.
         11   -1    0    0    0    0 -0.00000000000E+00 -0.00000000000E+00 -0.45593999997E+02  0.45594000000E+02  0.51100000000E-03 0.  1.
         23    2    1    2    0    0 -0.71054273576E-14 -0.17763568394E-14 -0.35527136788E-14  0.91188000000E+02  0.91188000000E+02 0.  0.
    9900012    2    3    3    0    0 -0.32796152168E+02 -0.15506603669E+02 -0.18360918406E+02  0.50528859834E+02  0.29999999951E+02 0.  0.
         12    1    3    3    0    0  0.32796152168E+02  0.15506603669E+02  0.18360918406E+02  0.40659140166E+02  0.00000000000E+00 0. -1.
         11    1    4    4    0    0 -0.57814571161E+00 -0.92341353125E+01  0.14640127688E+01  0.93673283855E+01  0.51100000000E-03 0.  1.
        -11    1    4    4    0    0 -0.10394522703E+02  0.20928323548E+01 -0.13945258387E+00  0.10604032100E+02  0.51100000000E-03 0. -1.
        -12    1    4    4    0    0 -0.21823483753E+02 -0.83653007113E+01 -0.19685478591E+02  0.30557499349E+02  0.00000000000E+00 0.  1.
</event>
<event>
 8    1  0.1615837E-013  0.9118800E+02  0.7816164E-02  0.1184000E+00
        -11   -1    0    0    0    0  0.00000000000E+00  0.00000000000E+00  0.45593999997E+02  0.45594000000E+02  0.51100000000E-03 0. -1.
         11   -1    0    0    0    0 -0.00000000000E+00 -0.00000000000E+00 -0.45593999997E+02  0.45594000000E+02  0.51100000000E-03 0.  1.
         23    2    1    2    0    0  0.00000000000E+00 -0.17763568394E-14  0.00000000000E+00  0.91188000000E+02  0.91188000000E+02 0.  0.
    9900012    2    3    3    0    0 -0.21055169321E+02 -0.13818524869E+02  0.31920116635E+02  0.50528860429E+02  0.30000001760E+02 0.  0.
        -12    1    3    3    0    0  0.21055169321E+02  0.13818524869E+02 -0.31920116635E+02  0.40659139571E+02  0.00000000000E+00 0.  1.
         11    1    4    4    0    0 -0.68390883305E+01 -0.22922761926E+01 -0.73347370408E+00  0.72502167741E+01  0.51100000000E-03 0. -1.
        -11    1    4    4    0    0 -0.24734143302E+01  0.57722325120E+01  0.29083821027E+01  0.69206309927E+01  0.51100000000E-03 0.  1.
         12    1    4    4    0    0 -0.11742666660E+02 -0.17298481188E+02  0.29745208236E+02  0.36358012662E+02  0.00000000000E+00 0. -1.
</event>
<event>
 8    1  0.1615837E-013  0.9118800E+02  0.7816164E-02  0.1184000E+00
        -11   -1    0    0    0    0  0.00000000000E+00  0.00000000000E+00  0.45593999997E+02  0.45594000000E+02  0.51100000000E-03 0. -1.
         11   -1    0    0    0    0 -0.00000000000E+00 -0.00000000000E+00 -0.45593999997E+02  0.45594000000E+02  0.51100000000E-03 0.  1.
         23    2    1    2    0    0  0.17763568394E-14  0.00000000000E+00  0.00000000000E+00  0.91188000000E+02  0.91188000000E+02 0.  0.
    9900012    2    3    3    0    0 -0.15217657123E+02 -0.18463282332E+02  0.32873942271E+02  0.50528856339E+02  0.29999989328E+02 0.  0.
        -12    1    3    3    0    0  0.15217657123E+02  0.18463282332E+02 -0.32873942271E+02  0.40659143661E+02  0.00000000000E+00 0.  1.
         11    1    4    4    0    0 -0.85260693131E+01 -0.11951675058E+02  0.15252214559E+02  0.21169941989E+02  0.51100000000E-03 0. -1.
        -11    1    4    4    0    0 -0.41288200130E+01 -0.14203036797E+02  0.81369163205E+01  0.16881434075E+02  0.51100000000E-03 0.  1.
        -12    1    4    4    0    0 -0.25627677969E+01  0.76914295222E+01  0.94848113920E+01  0.12477480275E+02  0.00000000000E+00 0.  1.
</event>
<event>
 8    1  0.1615837E-013  0.9118800E+02  0.7816164E-02  0.1184000E+00
        -11   -1    0    0    0    0  0.00000000000E+00  0.00000000000E+00  0.45593999997E+02  0.45594000000E+02  0.51100000000E-03 0. -1.
         11   -1    0    0    0    0 -0.00000000000E+00 -0.00000000000E+00 -0.45593999997E+02  0.45594000000E+02  0.51100000000E-03 0.  1.
         23    2    1    2    0    0  0.00000000000E+00  0.00000000000E+00  0.17763568394E-14  0.91188000000E+02  0.91188000000E+02 0.  0.
    9900012    2    3    3    0    0  0.16520298378E+02  0.35301804475E+02  0.11577060060E+02  0.50528856166E+02  0.29999988801E+02 0.  0.
        -12    1    3    3    0    0 -0.16520298378E+02 -0.35301804475E+02 -0.11577060060E+02  0.40659143834E+02  0.00000000000E+00 0.  1.
         11    1    4    4    0    0 -0.52745336784E+01  0.83422932083E+01  0.55168337373E+01  0.11307078148E+02  0.51100000000E-03 0. -1.
        -11    1    4    4    0    0 -0.13916210058E+01  0.74965007332E+00 -0.27175574919E+01  0.31438357526E+01  0.51100000000E-03 0.  1.
        -12    1    4    4    0    0  0.23186453062E+02  0.26209861193E+02  0.87777838151E+01  0.36077942265E+02  0.00000000000E+00 0.  1.
</event>
<event>
 8    1  0.1615837E-013  0.9118800E+02  0.7816164E-02  0.1184000E+00
        -11   -1    0    0    0    0  0.00000000000E+00  0.00000000000E+00  0.45593999997E+02  0.45594000000E+02  0.51100000000E-03 0. -1.
         11   -1    0    0    0    0 -0.00000000000E+00 -0.00000000000E+00 -0.45593999997E+02  0.45594000000E+02  0.51100000000E-03 0.  1.
         23    2    1    2    0    0  0.00000000000E+00 -0.44408920985E-15  0.00000000000E+00  0.91188000000E+02  0.91188000000E+02 0.  0.
    9900012    2    3    3    0    0  0.24383562806E+01  0.33322493815E+01 -0.40448926954E+02  0.50528866229E+02  0.30000019389E+02 0.  0.
         12    1    3    3    0    0 -0.24383562806E+01 -0.33322493815E+01  0.40448926954E+02  0.40659133771E+02  0.00000000000E+00 0. -1.
         11    1    4    4    0    0 -0.33585353940E+01 -0.73221747394E-01 -0.15213348068E+01  0.36877610107E+01  0.51100000000E-03 0. -1.
        -11    1    4    4    0    0 -0.55971825202E+01  0.81077715643E+01 -0.30123119758E+02  0.31693323526E+02  0.51100000000E-03 0.  1.
        -12    1    4    4    0    0  0.11394074195E+02 -0.47023004354E+01 -0.88044723897E+01  0.15147781692E+02  0.00000000000E+00 0.  1.
</event>
<event>
 8    1  0.1615837E-013  0.9118800E+02  0.7816164E-02  0.1184000E+00
        -11   -1    0    0    0    0  0.00000000000E+00  0.00000000000E+00  0.45593999997E+02  0.45594000000E+02  0.51100000000E-03 0. -1.
         11   -1    0    0    0    0 -0.00000000000E+00 -0.00000000000E+00 -0.45593999997E+02  0.45594000000E+02  0.51100000000E-03 0.  1.
         23    2    1    2    0    0  0.44408920985E-15  0.35527136788E-14  0.00000000000E+00  0.91188000000E+02  0.91188000000E+02 0.  0.
    9900012    2    3    3    0    0  0.34957823785E+01  0.31100233880E+02 -0.25956081525E+02  0.50528890197E+02  0.30000092243E+02 0.  0.
         12    1    3    3    0    0 -0.34957823785E+01 -0.31100233880E+02  0.25956081525E+02  0.40659109803E+02  0.00000000000E+00 0. -1.
         11    1    4    4    0    0 -0.36054675794E+01  0.67230388609E+01  0.27554506995E+01  0.81111748107E+01  0.51100000000E-03 0. -1.
        -11    1    4    4    0    0  0.26019917613E+01  0.14137787016E+02 -0.34388523761E+01  0.14780835185E+02  0.51100000000E-03 0.  1.
         12    1    4    4    0    0  0.44992581966E+01  0.10239408003E+02 -0.25272679848E+02  0.27636880202E+02  0.00000000000E+00 0. -1.
</event>
<event>
 8    1  0.1615837E-013  0.9118800E+02  0.7816164E-02  0.1184000E+00
        -11   -1    0    0    0    0  0.00000000000E+00  0.00000000000E+00  0.45593999997E+02  0.45594000000E+02  0.51100000000E-03 0. -1.
         11   -1    0    0    0    0 -0.00000000000E+00 -0.00000000000E+00 -0.45593999997E+02  0.45594000000E+02  0.51100000000E-03 0.  1.
         23    2    1    2    0    0  0.00000000000E+00 -0.35527136788E-14  0.00000000000E+00  0.91188000000E+02  0.91188000000E+02 0.  0.
    9900012    2    3    3    0    0  0.26184203074E+02  0.25520945403E+02  0.17783054632E+02  0.50528829117E+02  0.29999906584E+02 0.  0.
        -12    1    3    3    0    0 -0.26184203074E+02 -0.25520945403E+02 -0.17783054632E+02  0.40659170883E+02  0.00000000000E+00 0.  1.
         11    1    4    4    0    0  0.76566068124E+01 -0.25079476905E+01  0.78120900047E+00  0.80946721528E+01  0.51100000000E-03 0. -1.
        -11    1    4    4    0    0 -0.19915965404E+01  0.66871318095E+01  0.96865538210E+01  0.11937902404E+02  0.51100000000E-03 0.  1.
         12    1    4    4    0    0  0.20519192802E+02  0.21341761284E+02  0.73152918107E+01  0.30496254560E+02  0.00000000000E+00 0. -1.
</event>
<event>
 8    1  0.1615837E-013  0.9118800E+02  0.7816164E-02  0.1184000E+00
        -11   -1    0    0    0    0  0.00000000000E+00  0.00000000000E+00  0.45593999997E+02  0.45594000000E+02  0.51100000000E-03 0. -1.
         11   -1    0    0    0    0 -0.00000000000E+00 -0.00000000000E+00 -0.45593999997E+02  0.45594000000E+02  0.51100000000E-03 0.  1.
         23    2    1    2    0    0 -0.17763568394E-14  0.00000000000E+00  0.00000000000E+00  0.91188000000E+02  0.91188000000E+02 0.  0.
    9900012    2    3    3    0    0  0.15161791620E+02  0.21818787809E+02 -0.30777044335E+02  0.50528857307E+02  0.29999992269E+02 0.  0.
         12    1    3    3    0    0 -0.15161791620E+02 -0.21818787809E+02  0.30777044335E+02  0.40659142693E+02  0.00000000000E+00 0. -1.
         11    1    4    4    0    0  0.46031340796E+01 -0.33434948581E+01 -0.18355535985E+01  0.59780480506E+01  0.51100000000E-03 0. -1.
        -11    1    4    4    0    0  0.40750352105E+00 -0.21321150461E+01  0.13302993926E+01  0.25459124935E+01  0.51100000000E-03 0.  1.
        -12    1    4    4    0    0  0.10151154020E+02  0.27294397713E+02 -0.30271790129E+02  0.42004896763E+02  0.00000000000E+00 0.  1.
</event>
<event>
 8    1  0.1615837E-013  0.9118800E+02  0.7816164E-02  0.1184000E+00
        -11   -1    0    0    0    0  0.00000000000E+00  0.00000000000E+00  0.45593999997E+02  0.45594000000E+02  0.51100000000E-03 0. -1.
         11   -1    0    0    0    0 -0.00000000000E+00 -0.00000000000E+00 -0.45593999997E+02  0.45594000000E+02  0.51100000000E-03 0.  1.
         23    2    1    2    0    0  0.71054273576E-14 -0.17763568394E-14  0.00000000000E+00  0.91188000000E+02  0.91188000000E+02 0.  0.
    9900012    2    3    3    0    0  0.40124164978E+02 -0.48866028468E+01  0.43974984802E+01  0.50528862092E+02  0.30000006814E+02 0.  0.
        -12    1    3    3    0    0 -0.40124164978E+02  0.48866028468E+01 -0.43974984802E+01  0.40659137908E+02  0.00000000000E+00 0.  1.
         11    1    4    4    0    0 -0.12896901090E+01 -0.15437767897E+01  0.60937607965E+00  0.21018769758E+01  0.51100000000E-03 0.  1.
        -11    1    4    4    0    0  0.38130446146E+01 -0.71534456996E+01  0.67068056071E+01  0.10521042549E+02  0.51100000000E-03 0. -1.
         12    1    4    4    0    0  0.37600810472E+02  0.38106196425E+01 -0.29186832065E+01  0.37905942567E+02  0.00000000000E+00 0. -1.
</event>
<event>
 8    1  0.1615837E-013  0.9118800E+02  0.7816164E-02  0.1184000E+00
        -11   -1    0    0    0    0  0.00000000000E+00  0.00000000000E+00  0.45593999997E+02  0.45594000000E+02  0.51100000000E-03 0. -1.
         11   -1    0    0    0    0 -0.00000000000E+00 -0.00000000000E+00 -0.45593999997E+02  0.45594000000E+02  0.51100000000E-03 0.  1.
         23    2    1    2    0    0  0.00000000000E+00  0.00000000000E+00 -0.88817841970E-15  0.91188000000E+02  0.91188000000E+02 0.  0.
    9900012    2    3    3    0    0  0.24904480237E+02 -0.31417466869E+02 -0.67728872587E+01  0.50528900623E+02  0.30000123933E+02 0.  0.
         12    1    3    3    0    0 -0.24904480237E+02  0.31417466869E+02  0.67728872587E+01  0.40659099377E+02  0.00000000000E+00 0. -1.
         11    1    4    4    0    0  0.15836825863E+02 -0.11657118116E+02  0.24502001736E+01  0.19816582383E+02  0.51100000000E-03 0. -1.
        -11    1    4    4    0    0  0.14597643370E+02 -0.89965425530E+01 -0.62538709542E+01  0.18252119659E+02  0.51100000000E-03 0.  1.
         12    1    4    4    0    0 -0.55299889957E+01 -0.10763806199E+02 -0.29692164782E+01  0.12460198581E+02  0.00000000000E+00 0. -1.
</event>
<event>
 8    1  0.1860311E-013  0.9118800E+02  0.7816164E-02  0.1184000E+00
        -11   -1    0    0    0    0  0.00000000000E+00  0.00000000000E+00  0.45593999997E+02  0.45594000000E+02  0.51100000000E-03 0. -1.
         11   -1    0    0    0    0 -0.00000000000E+00 -0.00000000000E+00 -0.45593999997E+02  0.45594000000E+02  0.51100000000E-03 0.  1.
         23    2    1    2    0    0  0.00000000000E+00  0.00000000000E+00  0.00000000000E+00  0.91188000000E+02  0.91188000000E+02 0.  0.
    9900012    2    3    3    0    0 -0.22342060675E+02  0.11759845668E+01  0.33950206465E+02  0.50528841942E+02  0.29999945568E+02 0.  0.
        -12    1    3    3    0    0  0.22342060675E+02 -0.11759845668E+01 -0.33950206465E+02  0.40659158058E+02  0.00000000000E+00 0.  1.
         11    1    4    4    0    0 -0.57785073368E+01  0.50332131084E+01  0.22406067934E+02  0.23680292687E+02  0.51100000000E-03 0. -1.
        -11    1    4    4    0    0  0.11266452878E+01  0.27457549773E+01  0.67402024366E+01  0.73647015654E+01  0.51100000000E-03 0.  1.
        -12    1    4    4    0    0 -0.17690198626E+02 -0.66029835190E+01  0.48039360947E+01  0.19483847690E+02  0.00000000000E+00 0.  1.
</event>
<event>
 8    1  0.1615837E-013  0.9118800E+02  0.7816164E-02  0.1184000E+00
        -11   -1    0    0    0    0  0.00000000000E+00  0.00000000000E+00  0.45593999997E+02  0.45594000000E+02  0.51100000000E-03 0. -1.
         11   -1    0    0    0    0 -0.00000000000E+00 -0.00000000000E+00 -0.45593999997E+02  0.45594000000E+02  0.51100000000E-03 0.  1.
         23    2    1    2    0    0  0.00000000000E+00  0.00000000000E+00  0.00000000000E+00  0.91188000000E+02  0.91188000000E+02 0.  0.
    9900012    2    3    3    0    0  0.97441345509E+01  0.83090651079E+01 -0.38589872345E+02  0.50528843974E+02  0.29999951743E+02 0.  0.
         12    1    3    3    0    0 -0.97441345509E+01 -0.83090651079E+01  0.38589872345E+02  0.40659156026E+02  0.00000000000E+00 0. -1.
         11    1    4    4    0    0  0.33160017005E+01  0.23475442030E+01 -0.80443816647E+01  0.90121533327E+01  0.51100000000E-03 0. -1.
        -11    1    4    4    0    0  0.13841385045E+02  0.12614203988E+01 -0.29584406115E+02  0.32686575330E+02  0.51100000000E-03 0.  1.
        -12    1    4    4    0    0 -0.74132521944E+01  0.47001005061E+01 -0.96108456577E+00  0.88301153111E+01  0.00000000000E+00 0.  1.
</event>
<event>
 8    1  0.1615837E-013  0.9118800E+02  0.7816164E-02  0.1184000E+00
        -11   -1    0    0    0    0  0.00000000000E+00  0.00000000000E+00  0.45593999997E+02  0.45594000000E+02  0.51100000000E-03 0.  1.
         11   -1    0    0    0    0 -0.00000000000E+00 -0.00000000000E+00 -0.45593999997E+02  0.45594000000E+02  0.51100000000E-03 0. -1.
         23    2    1    2    0    0  0.00000000000E+00 -0.35527136788E-14  0.00000000000E+00  0.91188000000E+02  0.91188000000E+02 0.  0.
    9900012    2    3    3    0    0 -0.30280090404E+02  0.20403230320E+02 -0.17888264444E+02  0.50528859734E+02  0.29999999647E+02 0.  0.
         12    1    3    3    0    0  0.30280090404E+02 -0.20403230320E+02  0.17888264444E+02  0.40659140266E+02  0.00000000000E+00 0. -1.
         11    1    4    4    0    0  0.15945922588E+01 -0.14507964980E+01 -0.44251639642E+01  0.49223583090E+01  0.51100000000E-03 0. -1.
        -11    1    4    4    0    0 -0.82608005591E+01 -0.33918202648E+01 -0.38641969492E+01  0.97302255323E+01  0.51100000000E-03 0.  1.
        -12    1    4    4    0    0 -0.23613882104E+02  0.25245847083E+02 -0.95989035307E+01  0.35876275893E+02  0.00000000000E+00 0.  1.
</event>
<event>
 8    1  0.1615837E-013  0.9118800E+02  0.7816164E-02  0.1184000E+00
        -11   -1    0    0    0    0  0.00000000000E+00  0.00000000000E+00  0.45593999997E+02  0.45594000000E+02  0.51100000000E-03 0. -1.
         11   -1    0    0    0    0 -0.00000000000E+00 -0.00000000000E+00 -0.45593999997E+02  0.45594000000E+02  0.51100000000E-03 0.  1.
         23    2    1    2    0    0  0.35527136788E-14  0.00000000000E+00  0.00000000000E+00  0.91188000000E+02  0.91188000000E+02 0.  0.
    9900012    2    3    3    0    0 -0.28979288580E+02 -0.27788812423E+01  0.28383987616E+02  0.50528780866E+02  0.29999759921E+02 0.  0.
        -12    1    3    3    0    0  0.28979288580E+02  0.27788812423E+01 -0.28383987616E+02  0.40659219134E+02  0.00000000000E+00 0.  1.
         11    1    4    4    0    0 -0.97691722310E+01 -0.48627869736E+01  0.13024076894E+02  0.16991468519E+02  0.51100000000E-03 0. -1.
        -11    1    4    4    0    0 -0.12822765186E+02 -0.21031647011E+01  0.20542714524E+02  0.24307400705E+02  0.51100000000E-03 0.  1.
        -12    1    4    4    0    0 -0.63873511623E+01  0.41870704323E+01 -0.51828038015E+01  0.92299116421E+01  0.00000000000E+00 0.  1.
</event>
<event>
 8    1  0.1615837E-013  0.9118800E+02  0.7816164E-02  0.1184000E+00
        -11   -1    0    0    0    0  0.00000000000E+00  0.00000000000E+00  0.45593999997E+02  0.45594000000E+02  0.51100000000E-03 0.  1.
         11   -1    0    0    0    0 -0.00000000000E+00 -0.00000000000E+00 -0.45593999997E+02  0.45594000000E+02  0.51100000000E-03 0. -1.
         23    2    1    2    0    0  0.00000000000E+00  0.00000000000E+00  0.00000000000E+00  0.91188000000E+02  0.91188000000E+02 0.  0.
    9900012    2    3    3    0    0 -0.36239275332E+02 -0.14691449575E+02  0.11137412135E+02  0.50528859376E+02  0.29999998560E+02 0.  0.
        -12    1    3    3    0    0  0.36239275332E+02  0.14691449575E+02 -0.11137412135E+02  0.40659140624E+02  0.00000000000E+00 0.  1.
         11    1    4    4    0    0 -0.11087662027E+02 -0.91419432268E+01  0.53837023015E+01  0.15345866737E+02  0.51100000000E-03 0. -1.
        -11    1    4    4    0    0 -0.10539597884E+02 -0.12353965301E+02 -0.34788709700E+01  0.16607411771E+02  0.51100000000E-03 0.  1.
        -12    1    4    4    0    0 -0.14612015421E+02  0.68044589533E+01  0.92325808034E+01  0.18575580869E+02  0.00000000000E+00 0.  1.
</event>
<event>
 8    1  0.1615837E-013  0.9118800E+02  0.7816164E-02  0.1184000E+00
        -11   -1    0    0    0    0  0.00000000000E+00  0.00000000000E+00  0.45593999997E+02  0.45594000000E+02  0.51100000000E-03 0. -1.
         11   -1    0    0    0    0 -0.00000000000E+00 -0.00000000000E+00 -0.45593999997E+02  0.45594000000E+02  0.51100000000E-03 0.  1.
         23    2    1    2    0    0  0.17763568394E-14  0.00000000000E+00  0.00000000000E+00  0.91188000000E+02  0.91188000000E+02 0.  0.
    9900012    2    3    3    0    0 -0.12555867705E+02 -0.49755161498E+01 -0.38350486770E+02  0.50528863139E+02  0.30000009998E+02 0.  0.
         12    1    3    3    0    0  0.12555867705E+02  0.49755161498E+01  0.38350486770E+02  0.40659136861E+02  0.00000000000E+00 0. -1.
         11    1    4    4    0    0 -0.16048460127E+01 -0.29181470155E+01 -0.79405728531E+01  0.86106800094E+01  0.51100000000E-03 0. -1.
        -11    1    4    4    0    0 -0.13939468317E+02 -0.12461820565E+01 -0.34241868186E+02  0.36991448793E+02  0.51100000000E-03 0.  1.
         12    1    4    4    0    0  0.29884466249E+01 -0.81118707777E+00  0.38319542692E+01  0.49267343369E+01  0.00000000000E+00 0. -1.
</event>
<event>
 8    1  0.1615837E-013  0.9118800E+02  0.7816164E-02  0.1184000E+00
        -11   -1    0    0    0    0  0.00000000000E+00  0.00000000000E+00  0.45593999997E+02  0.45594000000E+02  0.51100000000E-03 0. -1.
         11   -1    0    0    0    0 -0.00000000000E+00 -0.00000000000E+00 -0.45593999997E+02  0.45594000000E+02  0.51100000000E-03 0.  1.
         23    2    1    2    0    0  0.71054273576E-14  0.17763568394E-14  0.35527136788E-14  0.91188000000E+02  0.91188000000E+02 0.  0.
    9900012    2    3    3    0    0 -0.27102102971E+02 -0.75342052393E+01 -0.29357741035E+02  0.50528865814E+02  0.30000018129E+02 0.  0.
         12    1    3    3    0    0  0.27102102971E+02  0.75342052393E+01  0.29357741035E+02  0.40659134186E+02  0.00000000000E+00 0. -1.
         11    1    4    4    0    0  0.49917952819E+00  0.14939027425E+01 -0.37831413637E+00  0.16198911854E+01  0.51100000000E-03 0. -1.
        -11    1    4    4    0    0 -0.29654377069E+02 -0.12554982972E+02 -0.30689409515E+02  0.44484261637E+02  0.51100000000E-03 0.  1.
        -12    1    4    4    0    0  0.20530945698E+01  0.35268749901E+01  0.17099826162E+01  0.44247129913E+01  0.00000000000E+00 0.  1.
</event>
<event>
 8    1  0.1615837E-013  0.9118800E+02  0.7816164E-02  0.1184000E+00
        -11   -1    0    0    0    0  0.00000000000E+00  0.00000000000E+00  0.45593999997E+02  0.45594000000E+02  0.51100000000E-03 0. -1.
         11   -1    0    0    0    0 -0.00000000000E+00 -0.00000000000E+00 -0.45593999997E+02  0.45594000000E+02  0.51100000000E-03 0.  1.
         23    2    1    2    0    0 -0.71054273576E-14 -0.88817841970E-15 -0.71054273576E-14  0.91188000000E+02  0.91188000000E+02 0.  0.
    9900012    2    3    3    0    0  0.26117518432E+02  0.67631317819E+01  0.30418764110E+02  0.50528856741E+02  0.29999990551E+02 0.  0.
        -12    1    3    3    0    0 -0.26117518432E+02 -0.67631317819E+01 -0.30418764110E+02  0.40659143259E+02  0.00000000000E+00 0.  1.
         11    1    4    4    0    0  0.18306000406E+01  0.18767472251E+01  0.54292774791E+01  0.60291235567E+01  0.51100000000E-03 0. -1.
        -11    1    4    4    0    0 -0.22696711791E+01 -0.69539475805E+01  0.79279988747E+01  0.10787120127E+02  0.51100000000E-03 0.  1.
         12    1    4    4    0    0  0.26556589571E+02  0.11840332137E+02  0.17061487756E+02  0.33712613058E+02  0.00000000000E+00 0. -1.
</event>
<event>
 8    1  0.1615837E-013  0.9118800E+02  0.7816164E-02  0.1184000E+00
        -11   -1    0    0    0    0  0.00000000000E+00  0.00000000000E+00  0.45593999997E+02  0.45594000000E+02  0.51100000000E-03 0. -1.
         11   -1    0    0    0    0 -0.00000000000E+00 -0.00000000000E+00 -0.45593999997E+02  0.45594000000E+02  0.51100000000E-03 0.  1.
         23    2    1    2    0    0  0.00000000000E+00  0.00000000000E+00 -0.35527136788E-14  0.91188000000E+02  0.91188000000E+02 0.  0.
    9900012    2    3    3    0    0  0.12719129828E+02  0.34273273626E+02  0.17796947077E+02  0.50528869735E+02  0.30000030048E+02 0.  0.
        -12    1    3    3    0    0 -0.12719129828E+02 -0.34273273626E+02 -0.17796947077E+02  0.40659130265E+02  0.00000000000E+00 0.  1.
         11    1    4    4    0    0  0.21772138943E+01  0.76642163898E+01 -0.48583308470E+01  0.93318729145E+01  0.51100000000E-03 0. -1.
        -11    1    4    4    0    0 -0.22764389441E+01  0.10643627711E+02  0.30830963639E+00  0.10888711595E+02  0.51100000000E-03 0.  1.
         12    1    4    4    0    0  0.12818354877E+02  0.15965429526E+02  0.22346968287E+02  0.30308285226E+02  0.00000000000E+00 0. -1.
</event>
<event>
 8    1  0.1615837E-013  0.9118800E+02  0.7816164E-02  0.1184000E+00
        -11   -1    0    0    0    0  0.00000000000E+00  0.00000000000E+00  0.45593999997E+02  0.45594000000E+02  0.51100000000E-03 0. -1.
         11   -1    0    0    0    0 -0.00000000000E+00 -0.00000000000E+00 -0.45593999997E+02  0.45594000000E+02  0.51100000000E-03 0.  1.
         23    2    1    2    0    0  0.00000000000E+00  0.00000000000E+00  0.00000000000E+00  0.91188000000E+02  0.91188000000E+02 0.  0.
    9900012    2    3    3    0    0  0.12939415226E+02  0.20176936834E+02 -0.32842486961E+02  0.50528853474E+02  0.29999980621E+02 0.  0.
         12    1    3    3    0    0 -0.12939415226E+02 -0.20176936834E+02  0.32842486961E+02  0.40659146526E+02  0.00000000000E+00 0. -1.
         11    1    4    4    0    0  0.21677765179E+01  0.11480847933E+02 -0.95808391746E+01  0.15109652671E+02  0.51100000000E-03 0. -1.
        -11    1    4    4    0    0 -0.22038237216E+01  0.11590138010E+02 -0.17078791559E+02  0.20757486829E+02  0.51100000000E-03 0.  1.
         12    1    4    4    0    0  0.12975462430E+02 -0.28940491096E+01 -0.61828562278E+01  0.14661713974E+02  0.00000000000E+00 0. -1.
</event>
<event>
 8    1  0.1615837E-013  0.9118800E+02  0.7816164E-02  0.1184000E+00
        -11   -1    0    0    0    0  0.00000000000E+00  0.00000000000E+00  0.45593999997E+02  0.45594000000E+02  0.51100000000E-03 0. -1.
         11   -1    0    0    0    0 -0.00000000000E+00 -0.00000000000E+00 -0.45593999997E+02  0.45594000000E+02  0.51100000000E-03 0.  1.
         23    2    1    2    0    0  0.00000000000E+00  0.35527136788E-14  0.00000000000E+00  0.91188000000E+02  0.91188000000E+02 0.  0.
    9900012    2    3    3    0    0 -0.25622698789E+02  0.25869148261E+02 -0.18095000812E+02  0.50528873357E+02  0.30000041056E+02 0.  0.
         12    1    3    3    0    0  0.25622698789E+02 -0.25869148261E+02  0.18095000812E+02  0.40659126643E+02  0.00000000000E+00 0. -1.
         11    1    4    4    0    0 -0.12493119186E+02  0.97674815215E+01  0.65725159888E+01  0.17166236889E+02  0.51100000000E-03 0. -1.
        -11    1    4    4    0    0 -0.81524247064E+01  0.74841293587E+01 -0.70286945003E+01  0.13110178011E+02  0.51100000000E-03 0.  1.
        -12    1    4    4    0    0 -0.49771548967E+01  0.86175373811E+01 -0.17638822300E+02  0.20252458456E+02  0.00000000000E+00 0.  1.
</event>
<event>
 8    1  0.1615837E-013  0.9118800E+02  0.7816164E-02  0.1184000E+00
        -11   -1    0    0    0    0  0.00000000000E+00  0.00000000000E+00  0.45593999997E+02  0.45594000000E+02  0.51100000000E-03 0. -1.
         11   -1    0    0    0    0 -0.00000000000E+00 -0.00000000000E+00 -0.45593999997E+02  0.45594000000E+02  0.51100000000E-03 0.  1.
         23    2    1    2    0    0 -0.17763568394E-14  0.35527136788E-14  0.00000000000E+00  0.91188000000E+02  0.91188000000E+02 0.  0.
    9900012    2    3    3    0    0 -0.15200532746E+02  0.69290208949E+01 -0.37068827707E+02  0.50528861865E+02  0.30000006125E+02 0.  0.
         12    1    3    3    0    0  0.15200532746E+02 -0.69290208949E+01  0.37068827707E+02  0.40659138135E+02  0.00000000000E+00 0. -1.
         11    1    4    4    0    0 -0.81901490743E+00  0.11550665622E+02 -0.19125806841E+02  0.22358111488E+02  0.51100000000E-03 0. -1.
        -11    1    4    4    0    0 -0.14416854438E+01  0.50080686156E+01 -0.67950589659E+01  0.85634125668E+01  0.51100000000E-03 0.  1.
         12    1    4    4    0    0 -0.12939832395E+02 -0.96297133429E+01 -0.11147961900E+02  0.19607337810E+02  0.00000000000E+00 0. -1.
</event>
<event>
 8    1  0.1615837E-013  0.9118800E+02  0.7816164E-02  0.1184000E+00
        -11   -1    0    0    0    0  0.00000000000E+00  0.00000000000E+00  0.45593999997E+02  0.45594000000E+02  0.51100000000E-03 0. -1.
         11   -1    0    0    0    0 -0.00000000000E+00 -0.00000000000E+00 -0.45593999997E+02  0.45594000000E+02  0.51100000000E-03 0.  1.
         23    2    1    2    0    0  0.00000000000E+00  0.00000000000E+00  0.00000000000E+00  0.91188000000E+02  0.91188000000E+02 0.  0.
    9900012    2    3    3    0    0  0.83219322773E+01 -0.20652689446E+02 -0.34020254409E+02  0.50528857753E+02  0.29999993626E+02 0.  0.
         12    1    3    3    0    0 -0.83219322773E+01  0.20652689446E+02  0.34020254409E+02  0.40659142247E+02  0.00000000000E+00 0. -1.
         11    1    4    4    0    0 -0.21101094667E+01 -0.50767555476E+01 -0.35565525655E-01  0.54979336136E+01  0.51100000000E-03 0. -1.
        -11    1    4    4    0    0  0.21741081160E+01  0.45709513772E+01 -0.49562201076E+00  0.50858611888E+01  0.51100000000E-03 0.  1.
        -12    1    4    4    0    0  0.82579336281E+01 -0.20146885276E+02 -0.33489066873E+02  0.39945062951E+02  0.00000000000E+00 0.  1.
</event>
<event>
 8    1  0.1615837E-013  0.9118800E+02  0.7816164E-02  0.1184000E+00
        -11   -1    0    0    0    0  0.00000000000E+00  0.00000000000E+00  0.45593999997E+02  0.45594000000E+02  0.51100000000E-03 0. -1.
         11   -1    0    0    0    0 -0.00000000000E+00 -0.00000000000E+00 -0.45593999997E+02  0.45594000000E+02  0.51100000000E-03 0.  1.
         23    2    1    2    0    0 -0.71054273576E-14 -0.44408920985E-15  0.17763568394E-14  0.91188000000E+02  0.91188000000E+02 0.  0.
    9900012    2    3    3    0    0  0.38806582330E+02  0.38594022107E+01 -0.11503023053E+02  0.50528863795E+02  0.30000011991E+02 0.  0.
        -12    1    3    3    0    0 -0.38806582330E+02 -0.38594022107E+01  0.11503023053E+02  0.40659136205E+02  0.00000000000E+00 0.  1.
         11    1    4    4    0    0  0.88926577015E+01  0.29731361679E-01 -0.56504546990E+01  0.10536027881E+02  0.51100000000E-03 0. -1.
        -11    1    4    4    0    0  0.26474511296E+02  0.39325385497E+01 -0.14674314086E+02  0.30523762907E+02  0.51100000000E-03 0.  1.
        -12    1    4    4    0    0  0.34394133325E+01 -0.10286770067E+00  0.88217457328E+01  0.94690730069E+01  0.00000000000E+00 0.  1.
</event>
<event>
 8    1  0.1615837E-013  0.9118800E+02  0.7816164E-02  0.1184000E+00
        -11   -1    0    0    0    0  0.00000000000E+00  0.00000000000E+00  0.45593999997E+02  0.45594000000E+02  0.51100000000E-03 0. -1.
         11   -1    0    0    0    0 -0.00000000000E+00 -0.00000000000E+00 -0.45593999997E+02  0.45594000000E+02  0.51100000000E-03 0.  1.
         23    2    1    2    0    0  0.00000000000E+00  0.71054273576E-14  0.35527136788E-14  0.91188000000E+02  0.91188000000E+02 0.  0.
    9900012    2    3    3    0    0  0.12653788258E+02 -0.34715166417E+02 -0.16967758134E+02  0.50528856468E+02  0.29999989721E+02 0.  0.
         12    1    3    3    0    0 -0.12653788258E+02  0.34715166417E+02  0.16967758134E+02  0.40659143532E+02  0.00000000000E+00 0. -1.
         11    1    4    4    0    0 -0.37072076487E+01 -0.14384389962E+01 -0.57952631564E+00  0.40185005049E+01  0.51100000000E-03 0. -1.
        -11    1    4    4    0    0  0.61828700569E+01 -0.22529808467E+02 -0.20571491562E+02  0.31128867905E+02  0.51100000000E-03 0.  1.
         12    1    4    4    0    0  0.10178125850E+02 -0.10746918954E+02  0.41832597430E+01  0.15381488059E+02  0.00000000000E+00 0. -1.
</event>
<event>
 8    1  0.1615837E-013  0.9118800E+02  0.7816164E-02  0.1184000E+00
        -11   -1    0    0    0    0  0.00000000000E+00  0.00000000000E+00  0.45593999997E+02  0.45594000000E+02  0.51100000000E-03 0.  1.
         11   -1    0    0    0    0 -0.00000000000E+00 -0.00000000000E+00 -0.45593999997E+02  0.45594000000E+02  0.51100000000E-03 0. -1.
         23    2    1    2    0    0  0.35527136788E-14  0.00000000000E+00  0.44408920985E-15  0.91188000000E+02  0.91188000000E+02 0.  0.
    9900012    2    3    3    0    0 -0.16126226641E+02 -0.37253648836E+02 -0.22969949367E+01  0.50528859293E+02  0.29999998306E+02 0.  0.
         12    1    3    3    0    0  0.16126226641E+02  0.37253648836E+02  0.22969949367E+01  0.40659140707E+02  0.00000000000E+00 0. -1.
         11    1    4    4    0    0 -0.17733634252E+02 -0.69286730171E+01 -0.33209244718E+01  0.19326583588E+02  0.51100000000E-03 0. -1.
        -11    1    4    4    0    0 -0.16925874592E+01 -0.10951092799E+02  0.29163180918E+01  0.11458455275E+02  0.51100000000E-03 0.  1.
        -12    1    4    4    0    0  0.32999950702E+01 -0.19373883020E+02 -0.18923885568E+01  0.19743820430E+02  0.00000000000E+00 0.  1.
</event>
<event>
 8    1  0.1615837E-013  0.9118800E+02  0.7816164E-02  0.1184000E+00
        -11   -1    0    0    0    0  0.00000000000E+00  0.00000000000E+00  0.45593999997E+02  0.45594000000E+02  0.51100000000E-03 0. -1.
         11   -1    0    0    0    0 -0.00000000000E+00 -0.00000000000E+00 -0.45593999997E+02  0.45594000000E+02  0.51100000000E-03 0.  1.
         23    2    1    2    0    0 -0.71054273576E-14  0.35527136788E-14  0.35527136788E-14  0.91188000000E+02  0.91188000000E+02 0.  0.
    9900012    2    3    3    0    0  0.27673626069E+02 -0.27226599790E+02 -0.12085228674E+02  0.50528805861E+02  0.29999835894E+02 0.  0.
         12    1    3    3    0    0 -0.27673626069E+02  0.27226599790E+02  0.12085228674E+02  0.40659194139E+02  0.00000000000E+00 0. -1.
         11    1    4    4    0    0  0.63754276364E+01 -0.51352827005E+01 -0.29280291209E+01  0.86942832226E+01  0.51100000000E-03 0. -1.
        -11    1    4    4    0    0  0.45680111980E+01 -0.17883266934E+02 -0.14827157413E+02  0.23675357648E+02  0.51100000000E-03 0.  1.
         12    1    4    4    0    0  0.16730187235E+02 -0.42080501557E+01  0.56699578597E+01  0.18159164991E+02  0.00000000000E+00 0. -1.
</event>
<event>
 8    1  0.1615837E-013  0.9118800E+02  0.7816164E-02  0.1184000E+00
        -11   -1    0    0    0    0  0.00000000000E+00  0.00000000000E+00  0.45593999997E+02  0.45594000000E+02  0.51100000000E-03 0. -1.
         11   -1    0    0    0    0 -0.00000000000E+00 -0.00000000000E+00 -0.45593999997E+02  0.45594000000E+02  0.51100000000E-03 0.  1.
         23    2    1    2    0    0  0.00000000000E+00  0.00000000000E+00 -0.71054273576E-14  0.91188000000E+02  0.91188000000E+02 0.  0.
    9900012    2    3    3    0    0  0.49139486337E+01  0.31482195101E+02  0.25256542803E+02  0.50528825710E+02  0.29999896229E+02 0.  0.
        -12    1    3    3    0    0 -0.49139486337E+01 -0.31482195101E+02 -0.25256542803E+02  0.40659174290E+02  0.00000000000E+00 0.  1.
         11    1    4    4    0    0 -0.41128438908E+01  0.17079900539E+02 -0.26451507698E+01  0.17766128170E+02  0.51100000000E-03 0. -1.
        -11    1    4    4    0    0  0.38878757218E+01  0.54938190711E+01  0.89238192015E+01  0.11177306250E+02  0.51100000000E-03 0.  1.
        -12    1    4    4    0    0  0.51389168027E+01  0.89084754906E+01  0.18977874372E+02  0.21585391290E+02  0.00000000000E+00 0.  1.
</event>
<event>
 8    1  0.1615837E-013  0.9118800E+02  0.7816164E-02  0.1184000E+00
        -11   -1    0    0    0    0  0.00000000000E+00  0.00000000000E+00  0.45593999997E+02  0.45594000000E+02  0.51100000000E-03 0. -1.
         11   -1    0    0    0    0 -0.00000000000E+00 -0.00000000000E+00 -0.45593999997E+02  0.45594000000E+02  0.51100000000E-03 0.  1.
         23    2    1    2    0    0  0.00000000000E+00  0.26645352591E-14 -0.71054273576E-14  0.91188000000E+02  0.91188000000E+02 0.  0.
    9900012    2    3    3    0    0 -0.59423275737E+01 -0.46479831628E+01  0.39953103939E+02  0.50528861804E+02  0.30000005940E+02 0.  0.
        -12    1    3    3    0    0  0.59423275737E+01  0.46479831628E+01 -0.39953103939E+02  0.40659138196E+02  0.00000000000E+00 0.  1.
         11    1    4    4    0    0 -0.79258650588E+01 -0.94933544032E+01  0.16705391379E+02  0.20784927619E+02  0.51100000000E-03 0. -1.
        -11    1    4    4    0    0 -0.36972730073E+01 -0.30319858688E+01  0.25974346332E+00  0.47885522788E+01  0.51100000000E-03 0.  1.
         12    1    4    4    0    0  0.56808104924E+01  0.78773571092E+01  0.22987969097E+02  0.24955381906E+02  0.00000000000E+00 0. -1.
</event>
<event>
 8    1  0.1615837E-013  0.9118800E+02  0.7816164E-02  0.1184000E+00
        -11   -1    0    0    0    0  0.00000000000E+00  0.00000000000E+00  0.45593999997E+02  0.45594000000E+02  0.51100000000E-03 0. -1.
         11   -1    0    0    0    0 -0.00000000000E+00 -0.00000000000E+00 -0.45593999997E+02  0.45594000000E+02  0.51100000000E-03 0.  1.
         23    2    1    2    0    0  0.35527136788E-14  0.11102230246E-15  0.71054273576E-14  0.91188000000E+02  0.91188000000E+02 0.  0.
    9900012    2    3    3    0    0  0.22932246416E+02  0.91232742187E+00  0.33562473971E+02  0.50528930580E+02  0.30000214991E+02 0.  0.
        -12    1    3    3    0    0 -0.22932246416E+02 -0.91232742187E+00 -0.33562473971E+02  0.40659069420E+02  0.00000000000E+00 0.  1.
         11    1    4    4    0    0  0.72660919900E+01 -0.89511417557E+00 -0.25733643244E+00  0.73255405599E+01  0.51100000000E-03 0. -1.
        -11    1    4    4    0    0  0.40180349956E+00  0.40496144749E+01 -0.17514776958E+01  0.44304060567E+01  0.51100000000E-03 0.  1.
         12    1    4    4    0    0  0.15264350927E+02 -0.22421728775E+01  0.35571288099E+02  0.38772983964E+02  0.00000000000E+00 0. -1.
</event>
<event>
 8    1  0.1615837E-013  0.9118800E+02  0.7816164E-02  0.1184000E+00
        -11   -1    0    0    0    0  0.00000000000E+00  0.00000000000E+00  0.45593999997E+02  0.45594000000E+02  0.51100000000E-03 0. -1.
         11   -1    0    0    0    0 -0.00000000000E+00 -0.00000000000E+00 -0.45593999997E+02  0.45594000000E+02  0.51100000000E-03 0.  1.
         23    2    1    2    0    0 -0.35527136788E-14  0.00000000000E+00  0.00000000000E+00  0.91188000000E+02  0.91188000000E+02 0.  0.
    9900012    2    3    3    0    0 -0.26381166204E+02 -0.79415572017E+01  0.29902033782E+02  0.50528857297E+02  0.29999992239E+02 0.  0.
        -12    1    3    3    0    0  0.26381166204E+02  0.79415572017E+01 -0.29902033782E+02  0.40659142703E+02  0.00000000000E+00 0.  1.
         11    1    4    4    0    0 -0.67974487985E+00 -0.26683081152E+01 -0.24783730761E+01  0.37046261167E+01  0.51100000000E-03 0. -1.
        -11    1    4    4    0    0  0.12940025275E+01 -0.29656160109E+00 -0.22630347160E+01  0.26236839961E+01  0.51100000000E-03 0.  1.
         12    1    4    4    0    0 -0.26995423851E+02 -0.49766874854E+01  0.34643441574E+02  0.44200547184E+02  0.00000000000E+00 0. -1.
</event>
<event>
 8    1  0.1615837E-013  0.9118800E+02  0.7816164E-02  0.1184000E+00
        -11   -1    0    0    0    0  0.00000000000E+00  0.00000000000E+00  0.45593999997E+02  0.45594000000E+02  0.51100000000E-03 0. -1.
         11   -1    0    0    0    0 -0.00000000000E+00 -0.00000000000E+00 -0.45593999997E+02  0.45594000000E+02  0.51100000000E-03 0.  1.
         23    2    1    2    0    0  0.00000000000E+00  0.00000000000E+00  0.00000000000E+00  0.91188000000E+02  0.91188000000E+02 0.  0.
    9900012    2    3    3    0    0 -0.35210826307E+02 -0.16165921367E+02  0.12329921371E+02  0.50528852642E+02  0.29999978091E+02 0.  0.
        -12    1    3    3    0    0  0.35210826307E+02  0.16165921367E+02 -0.12329921371E+02  0.40659147358E+02  0.00000000000E+00 0.  1.
         11    1    4    4    0    0 -0.13551463840E+02 -0.16571349559E+02  0.11622794179E+02  0.24358594852E+02  0.51100000000E-03 0. -1.
        -11    1    4    4    0    0 -0.78942889995E+01 -0.15573609385E+01  0.72249300518E+01  0.10814101276E+02  0.51100000000E-03 0.  1.
         12    1    4    4    0    0 -0.13765073468E+02  0.19627891307E+01 -0.65178028595E+01  0.15356156513E+02  0.00000000000E+00 0. -1.
</event>
<event>
 8    1  0.1615837E-013  0.9118800E+02  0.7816164E-02  0.1184000E+00
        -11   -1    0    0    0    0  0.00000000000E+00  0.00000000000E+00  0.45593999997E+02  0.45594000000E+02  0.51100000000E-03 0. -1.
         11   -1    0    0    0    0 -0.00000000000E+00 -0.00000000000E+00 -0.45593999997E+02  0.45594000000E+02  0.51100000000E-03 0.  1.
         23    2    1    2    0    0 -0.71054273576E-14  0.00000000000E+00 -0.35527136788E-14  0.91188000000E+02  0.91188000000E+02 0.  0.
    9900012    2    3    3    0    0  0.35726041672E+02  0.59317106084E+01  0.18483240445E+02  0.50528863000E+02  0.30000009574E+02 0.  0.
        -12    1    3    3    0    0 -0.35726041672E+02 -0.59317106084E+01 -0.18483240445E+02  0.40659137000E+02  0.00000000000E+00 0.  1.
         11    1    4    4    0    0  0.19345772621E+02  0.10395870854E+01  0.26854801569E+01  0.19558922863E+02  0.51100000000E-03 0. -1.
        -11    1    4    4    0    0  0.76772174624E+01 -0.51330979678E+01  0.15069383684E+02  0.17674124804E+02  0.51100000000E-03 0.  1.
         12    1    4    4    0    0  0.87030515884E+01  0.10025221491E+02  0.72837660371E+00  0.13295815333E+02  0.00000000000E+00 0. -1.
</event>
<event>
 8    1  0.1615837E-013  0.9118800E+02  0.7816164E-02  0.1184000E+00
        -11   -1    0    0    0    0  0.00000000000E+00  0.00000000000E+00  0.45593999997E+02  0.45594000000E+02  0.51100000000E-03 0.  1.
         11   -1    0    0    0    0 -0.00000000000E+00 -0.00000000000E+00 -0.45593999997E+02  0.45594000000E+02  0.51100000000E-03 0. -1.
         23    2    1    2    0    0 -0.35527136788E-14  0.00000000000E+00  0.00000000000E+00  0.91188000000E+02  0.91188000000E+02 0.  0.
    9900012    2    3    3    0    0 -0.25983565134E+02 -0.27258073552E+02  0.15330251721E+02  0.50528870046E+02  0.30000030991E+02 0.  0.
        -12    1    3    3    0    0  0.25983565134E+02  0.27258073552E+02 -0.15330251721E+02  0.40659129954E+02  0.00000000000E+00 0.  1.
         11    1    4    4    0    0 -0.20411212721E+01 -0.12389535033E+01 -0.33728139411E+01  0.41324394699E+01  0.51100000000E-03 0. -1.
        -11    1    4    4    0    0 -0.87969640357E+01 -0.49774980697E+01  0.17782732017E+02  0.20454525698E+02  0.51100000000E-03 0.  1.
         12    1    4    4    0    0 -0.15145479826E+02 -0.21041621979E+02  0.92033364528E+00  0.25941904877E+02  0.00000000000E+00 0. -1.
</event>
<event>
 8    1  0.1615837E-013  0.9118800E+02  0.7816164E-02  0.1184000E+00
        -11   -1    0    0    0    0  0.00000000000E+00  0.00000000000E+00  0.45593999997E+02  0.45594000000E+02  0.51100000000E-03 0. -1.
         11   -1    0    0    0    0 -0.00000000000E+00 -0.00000000000E+00 -0.45593999997E+02  0.45594000000E+02  0.51100000000E-03 0.  1.
         23    2    1    2    0    0  0.00000000000E+00  0.00000000000E+00  0.00000000000E+00  0.91188000000E+02  0.91188000000E+02 0.  0.
    9900012    2    3    3    0    0  0.30921434504E+02 -0.24414238045E+02  0.10048720604E+02  0.50528844612E+02  0.29999953681E+02 0.  0.
        -12    1    3    3    0    0 -0.30921434504E+02  0.24414238045E+02 -0.10048720604E+02  0.40659155388E+02  0.00000000000E+00 0.  1.
         11    1    4    4    0    0  0.29479784308E+02 -0.83215620746E+01  0.61362388962E+01  0.31240350610E+02  0.51100000000E-03 0. -1.
        -11    1    4    4    0    0  0.36156998292E+01 -0.39565536991E+01  0.44222287692E+01  0.69486480683E+01  0.51100000000E-03 0.  1.
         12    1    4    4    0    0 -0.21740496325E+01 -0.12136122271E+02 -0.50974706126E+00  0.12339845933E+02  0.00000000000E+00 0. -1.
</event>
<event>
 8    1  0.1615837E-013  0.9118800E+02  0.7816164E-02  0.1184000E+00
        -11   -1    0    0    0    0  0.00000000000E+00  0.00000000000E+00  0.45593999997E+02  0.45594000000E+02  0.51100000000E-03 0. -1.
         11   -1    0    0    0    0 -0.00000000000E+00 -0.00000000000E+00 -0.45593999997E+02  0.45594000000E+02  0.51100000000E-03 0.  1.
         23    2    1    2    0    0  0.00000000000E+00  0.00000000000E+00  0.71054273576E-14  0.91188000000E+02  0.91188000000E+02 0.  0.
    9900012    2    3    3    0    0  0.16301226034E+02 -0.16673305872E+02 -0.33308204860E+02  0.50528860684E+02  0.30000002536E+02 0.  0.
         12    1    3    3    0    0 -0.16301226034E+02  0.16673305872E+02  0.33308204860E+02  0.40659139316E+02  0.00000000000E+00 0. -1.
         11    1    4    4    0    0  0.14442423644E+02  0.10991785415E+01 -0.60276529535E+01  0.15688352194E+02  0.51100000000E-03 0. -1.
        -11    1    4    4    0    0  0.45168480753E+01 -0.34819546707E+01 -0.27611875680E+01  0.63364092285E+01  0.51100000000E-03 0.  1.
         12    1    4    4    0    0 -0.26580456849E+01 -0.14290529743E+02 -0.24519364338E+02  0.28504099262E+02  0.00000000000E+00 0. -1.
</event>
<event>
 8    1  0.1615837E-013  0.9118800E+02  0.7816164E-02  0.1184000E+00
        -11   -1    0    0    0    0  0.00000000000E+00  0.00000000000E+00  0.45593999997E+02  0.45594000000E+02  0.51100000000E-03 0. -1.
         11   -1    0    0    0    0 -0.00000000000E+00 -0.00000000000E+00 -0.45593999997E+02  0.45594000000E+02  0.51100000000E-03 0.  1.
         23    2    1    2    0    0 -0.35527136788E-14  0.00000000000E+00  0.17763568394E-14  0.91188000000E+02  0.91188000000E+02 0.  0.
    9900012    2    3    3    0    0  0.27491953457E+02 -0.29687216479E+02 -0.40034792781E+01  0.50528853754E+02  0.29999981469E+02 0.  0.
         12    1    3    3    0    0 -0.27491953457E+02  0.29687216479E+02  0.40034792781E+01  0.40659146246E+02  0.00000000000E+00 0. -1.
         11    1    4    4    0    0  0.36319790726E+01 -0.24211102082E+01 -0.43809440601E+01  0.61843122287E+01  0.51100000000E-03 0. -1.
        -11    1    4    4    0    0  0.16865609709E+02 -0.95026582456E+01 -0.10855233867E+02  0.22194265186E+02  0.51100000000E-03 0.  1.
         12    1    4    4    0    0  0.69943646755E+01 -0.17763448026E+02  0.11232698649E+02  0.22150276339E+02  0.00000000000E+00 0. -1.
</event>
<event>
 8    1  0.1615837E-013  0.9118800E+02  0.7816164E-02  0.1184000E+00
        -11   -1    0    0    0    0  0.00000000000E+00  0.00000000000E+00  0.45593999997E+02  0.45594000000E+02  0.51100000000E-03 0. -1.
         11   -1    0    0    0    0 -0.00000000000E+00 -0.00000000000E+00 -0.45593999997E+02  0.45594000000E+02  0.51100000000E-03 0.  1.
         23    2    1    2    0    0 -0.35527136788E-14  0.00000000000E+00  0.00000000000E+00  0.91188000000E+02  0.91188000000E+02 0.  0.
    9900012    2    3    3    0    0  0.21678011936E+02  0.23582225759E+02 -0.25042098815E+02  0.50528876961E+02  0.30000052010E+02 0.  0.
         12    1    3    3    0    0 -0.21678011936E+02 -0.23582225759E+02  0.25042098815E+02  0.40659123039E+02  0.00000000000E+00 0. -1.
         11    1    4    4    0    0 -0.28256238320E+01  0.38591352074E+01 -0.42590951368E+01  0.64044489407E+01  0.51100000000E-03 0. -1.
        -11    1    4    4    0    0 -0.20761546710E+01 -0.32054181934E+01 -0.19197615230E+01  0.42744132438E+01  0.51100000000E-03 0.  1.
        -12    1    4    4    0    0  0.26579790439E+02  0.22928508745E+02 -0.18863242155E+02  0.39850014776E+02  0.00000000000E+00 0.  1.
</event>
<event>
 8    1  0.1615837E-013  0.9118800E+02  0.7816164E-02  0.1184000E+00
        -11   -1    0    0    0    0  0.00000000000E+00  0.00000000000E+00  0.45593999997E+02  0.45594000000E+02  0.51100000000E-03 0. -1.
         11   -1    0    0    0    0 -0.00000000000E+00 -0.00000000000E+00 -0.45593999997E+02  0.45594000000E+02  0.51100000000E-03 0.  1.
         23    2    1    2    0    0  0.44408920985E-15 -0.88817841970E-15  0.00000000000E+00  0.91188000000E+02  0.91188000000E+02 0.  0.
    9900012    2    3    3    0    0  0.16358417684E+01 -0.69061360968E+01 -0.40034916253E+02  0.50528865560E+02  0.30000017355E+02 0.  0.
         12    1    3    3    0    0 -0.16358417684E+01  0.69061360968E+01  0.40034916253E+02  0.40659134440E+02  0.00000000000E+00 0. -1.
         11    1    4    4    0    0 -0.21479557300E+01 -0.28248386841E+01 -0.15108405265E+01  0.38569504491E+01  0.51100000000E-03 0. -1.
        -11    1    4    4    0    0  0.56064496626E+01 -0.13870861971E+02 -0.15280835847E+02  0.21385439768E+02  0.51100000000E-03 0.  1.
        -12    1    4    4    0    0 -0.18226521641E+01  0.97895645582E+01 -0.23243239879E+02  0.25286475342E+02  0.00000000000E+00 0.  1.
</event>
<event>
 8    1  0.1615837E-013  0.9118800E+02  0.7816164E-02  0.1184000E+00
        -11   -1    0    0    0    0  0.00000000000E+00  0.00000000000E+00  0.45593999997E+02  0.45594000000E+02  0.51100000000E-03 0. -1.
         11   -1    0    0    0    0 -0.00000000000E+00 -0.00000000000E+00 -0.45593999997E+02  0.45594000000E+02  0.51100000000E-03 0.  1.
         23    2    1    2    0    0  0.00000000000E+00  0.35527136788E-14  0.71054273576E-14  0.91188000000E+02  0.91188000000E+02 0.  0.
    9900012    2    3    3    0    0  0.50307859909E+01 -0.10032188737E+02 -0.39079556909E+02  0.50528863428E+02  0.30000010877E+02 0.  0.
         12    1    3    3    0    0 -0.50307859909E+01  0.10032188737E+02  0.39079556909E+02  0.40659136572E+02  0.00000000000E+00 0. -1.
         11    1    4    4    0    0  0.42926635102E+01 -0.80864611034E+01 -0.17998329972E+02  0.20193011049E+02  0.51100000000E-03 0. -1.
        -11    1    4    4    0    0 -0.55894205718E+01 -0.28883828565E+01  0.18266884678E+01  0.65514249498E+01  0.51100000000E-03 0.  1.
         12    1    4    4    0    0  0.63275430525E+01  0.94265522329E+00 -0.22907915405E+02  0.23784427430E+02  0.00000000000E+00 0. -1.
</event>
<event>
 8    1  0.1615837E-013  0.9118800E+02  0.7816164E-02  0.1184000E+00
        -11   -1    0    0    0    0  0.00000000000E+00  0.00000000000E+00  0.45593999997E+02  0.45594000000E+02  0.51100000000E-03 0. -1.
         11   -1    0    0    0    0 -0.00000000000E+00 -0.00000000000E+00 -0.45593999997E+02  0.45594000000E+02  0.51100000000E-03 0.  1.
         23    2    1    2    0    0  0.00000000000E+00  0.00000000000E+00  0.00000000000E+00  0.91188000000E+02  0.91188000000E+02 0.  0.
    9900012    2    3    3    0    0 -0.31383400613E+01  0.15281827933E+02  0.37547069934E+02  0.50528857068E+02  0.29999991543E+02 0.  0.
        -12    1    3    3    0    0  0.31383400613E+01 -0.15281827933E+02 -0.37547069934E+02  0.40659142932E+02  0.00000000000E+00 0.  1.
         11    1    4    4    0    0 -0.53161146760E+01  0.46716230694E+01  0.43251091092E+01  0.82940765863E+01  0.51100000000E-03 0. -1.
        -11    1    4    4    0    0 -0.15316999475E+01  0.27829433172E+01 -0.33702607333E+01  0.46313643678E+01  0.51100000000E-03 0.  1.
         12    1    4    4    0    0  0.37094745622E+01  0.78272615469E+01  0.36592221558E+02  0.37603416114E+02  0.00000000000E+00 0. -1.
</event>
<event>
 8    1  0.1615837E-013  0.9118800E+02  0.7816164E-02  0.1184000E+00
        -11   -1    0    0    0    0  0.00000000000E+00  0.00000000000E+00  0.45593999997E+02  0.45594000000E+02  0.51100000000E-03 0. -1.
         11   -1    0    0    0    0 -0.00000000000E+00 -0.00000000000E+00 -0.45593999997E+02  0.45594000000E+02  0.51100000000E-03 0.  1.
         23    2    1    2    0    0  0.00000000000E+00 -0.71054273576E-14 -0.17763568394E-14  0.91188000000E+02  0.91188000000E+02 0.  0.
    9900012    2    3    3    0    0  0.11746553857E+02 -0.36563980847E+02 -0.13351388815E+02  0.50528858271E+02  0.29999995200E+02 0.  0.
         12    1    3    3    0    0 -0.11746553857E+02  0.36563980847E+02  0.13351388815E+02  0.40659141729E+02  0.00000000000E+00 0. -1.
         11    1    4    4    0    0  0.11851566678E+02 -0.15719331162E+02 -0.43864246979E+01  0.20169227224E+02  0.51100000000E-03 0.  1.
        -11    1    4    4    0    0  0.95695172522E+00  0.38541571275E+01 -0.28643241751E+01  0.48963902019E+01  0.51100000000E-03 0. -1.
         12    1    4    4    0    0 -0.10619645471E+01 -0.24698806812E+02 -0.61006399419E+01  0.25463240845E+02  0.00000000000E+00 0. -1.
</event>
<event>
 8    1  0.1615837E-013  0.9118800E+02  0.7816164E-02  0.1184000E+00
        -11   -1    0    0    0    0  0.00000000000E+00  0.00000000000E+00  0.45593999997E+02  0.45594000000E+02  0.51100000000E-03 0. -1.
         11   -1    0    0    0    0 -0.00000000000E+00 -0.00000000000E+00 -0.45593999997E+02  0.45594000000E+02  0.51100000000E-03 0.  1.
         23    2    1    2    0    0  0.00000000000E+00  0.88817841970E-15  0.00000000000E+00  0.91188000000E+02  0.91188000000E+02 0.  0.
    9900012    2    3    3    0    0 -0.16242055819E+02 -0.40174329504E+01  0.37057003220E+02  0.50528860407E+02  0.30000001694E+02 0.  0.
        -12    1    3    3    0    0  0.16242055819E+02  0.40174329504E+01 -0.37057003220E+02  0.40659139593E+02  0.00000000000E+00 0.  1.
         11    1    4    4    0    0 -0.62352920147E+01  0.30940977288E+00  0.79815069299E+01  0.10133067356E+02  0.51100000000E-03 0. -1.
        -11    1    4    4    0    0 -0.70058237964E+01  0.10363163021E+02  0.93420421784E+01  0.15612509958E+02  0.51100000000E-03 0.  1.
         12    1    4    4    0    0 -0.30009400075E+01 -0.14690005744E+02  0.19733454112E+02  0.24783283093E+02  0.00000000000E+00 0. -1.
</event>
<event>
 8    1  0.1615837E-013  0.9118800E+02  0.7816164E-02  0.1184000E+00
        -11   -1    0    0    0    0  0.00000000000E+00  0.00000000000E+00  0.45593999997E+02  0.45594000000E+02  0.51100000000E-03 0. -1.
         11   -1    0    0    0    0 -0.00000000000E+00 -0.00000000000E+00 -0.45593999997E+02  0.45594000000E+02  0.51100000000E-03 0.  1.
         23    2    1    2    0    0  0.17763568394E-14  0.00000000000E+00 -0.35527136788E-14  0.91188000000E+02  0.91188000000E+02 0.  0.
    9900012    2    3    3    0    0  0.85227455090E+01  0.31706488842E+02 -0.23984059101E+02  0.50528760993E+02  0.29999699512E+02 0.  0.
         12    1    3    3    0    0 -0.85227455090E+01 -0.31706488842E+02  0.23984059101E+02  0.40659239007E+02  0.00000000000E+00 0. -1.
         11    1    4    4    0    0 -0.34590440094E+01  0.52885085845E+01 -0.10085030593E+01  0.63992489551E+01  0.51100000000E-03 0. -1.
        -11    1    4    4    0    0 -0.42647658680E+01 -0.11755346330E+01 -0.71580181199E+01  0.84147093383E+01  0.51100000000E-03 0.  1.
        -12    1    4    4    0    0  0.16246555386E+02  0.27593514890E+02 -0.15817537922E+02  0.35714802699E+02  0.00000000000E+00 0.  1.
</event>
<event>
 8    1  0.1615837E-013  0.9118800E+02  0.7816164E-02  0.1184000E+00
        -11   -1    0    0    0    0  0.00000000000E+00  0.00000000000E+00  0.45593999997E+02  0.45594000000E+02  0.51100000000E-03 0. -1.
         11   -1    0    0    0    0 -0.00000000000E+00 -0.00000000000E+00 -0.45593999997E+02  0.45594000000E+02  0.51100000000E-03 0.  1.
         23    2    1    2    0    0  0.00000000000E+00  0.35527136788E-14  0.00000000000E+00  0.91188000000E+02  0.91188000000E+02 0.  0.
    9900012    2    3    3    0    0 -0.13184988880E+02  0.29991603351E+02  0.24079536933E+02  0.50528876765E+02  0.30000051414E+02 0.  0.
        -12    1    3    3    0    0  0.13184988880E+02 -0.29991603351E+02 -0.24079536933E+02  0.40659123235E+02  0.00000000000E+00 0.  1.
         11    1    4    4    0    0 -0.35508795567E+01  0.95666629410E+01  0.60045361011E+01  0.11839942546E+02  0.51100000000E-03 0. -1.
        -11    1    4    4    0    0 -0.48697432921E+01  0.15568320243E+02 -0.29622317274E+01  0.16578956903E+02  0.51100000000E-03 0.  1.
         12    1    4    4    0    0 -0.47643660310E+01  0.48566201671E+01  0.21037232559E+02  0.22109977315E+02  0.00000000000E+00 0. -1.
</event>
<event>
 8    1  0.1615837E-013  0.9118800E+02  0.7816164E-02  0.1184000E+00
        -11   -1    0    0    0    0  0.00000000000E+00  0.00000000000E+00  0.45593999997E+02  0.45594000000E+02  0.51100000000E-03 0. -1.
         11   -1    0    0    0    0 -0.00000000000E+00 -0.00000000000E+00 -0.45593999997E+02  0.45594000000E+02  0.51100000000E-03 0.  1.
         23    2    1    2    0    0 -0.35527136788E-14  0.00000000000E+00  0.00000000000E+00  0.91188000000E+02  0.91188000000E+02 0.  0.
    9900012    2    3    3    0    0 -0.29253710387E+02 -0.13665681037E+02  0.24711034343E+02  0.50528860463E+02  0.30000001863E+02 0.  0.
        -12    1    3    3    0    0  0.29253710387E+02  0.13665681037E+02 -0.24711034343E+02  0.40659139537E+02  0.00000000000E+00 0.  1.
         11    1    4    4    0    0 -0.20173093506E+01 -0.40865373607E+01  0.49832684072E+01  0.67529466824E+01  0.51100000000E-03 0. -1.
        -11    1    4    4    0    0  0.47843888005E+01 -0.38965046773E+01  0.55484016895E+01  0.82980652241E+01  0.51100000000E-03 0.  1.
         12    1    4    4    0    0 -0.32020789836E+02 -0.56826389991E+01  0.14179364247E+02  0.35477848556E+02  0.00000000000E+00 0. -1.
</event>
<event>
 8    1  0.1615837E-013  0.9118800E+02  0.7816164E-02  0.1184000E+00
        -11   -1    0    0    0    0  0.00000000000E+00  0.00000000000E+00  0.45593999997E+02  0.45594000000E+02  0.51100000000E-03 0. -1.
         11   -1    0    0    0    0 -0.00000000000E+00 -0.00000000000E+00 -0.45593999997E+02  0.45594000000E+02  0.51100000000E-03 0.  1.
         23    2    1    2    0    0 -0.88817841970E-15  0.00000000000E+00  0.71054273576E-14  0.91188000000E+02  0.91188000000E+02 0.  0.
    9900012    2    3    3    0    0  0.63044445722E+01  0.15436330130E+02 -0.37082958274E+02  0.50528780829E+02  0.29999759807E+02 0.  0.
         12    1    3    3    0    0 -0.63044445722E+01 -0.15436330130E+02  0.37082958274E+02  0.40659219171E+02  0.00000000000E+00 0. -1.
         11    1    4    4    0    0  0.23735148474E+01  0.60111236847E+01 -0.19856562190E+02  0.20881816083E+02  0.51100000000E-03 0.  1.
        -11    1    4    4    0    0  0.68215338829E+01 -0.63382427138E+00 -0.17892925873E+02  0.19159641288E+02  0.51100000000E-03 0. -1.
         12    1    4    4    0    0 -0.28906041581E+01  0.10059030716E+02  0.66652978834E+00  0.10487323458E+02  0.00000000000E+00 0. -1.
</event>
<event>
 8    1  0.1615837E-013  0.9118800E+02  0.7816164E-02  0.1184000E+00
        -11   -1    0    0    0    0  0.00000000000E+00  0.00000000000E+00  0.45593999997E+02  0.45594000000E+02  0.51100000000E-03 0.  1.
         11   -1    0    0    0    0 -0.00000000000E+00 -0.00000000000E+00 -0.45593999997E+02  0.45594000000E+02  0.51100000000E-03 0. -1.
         23    2    1    2    0    0  0.00000000000E+00  0.00000000000E+00  0.00000000000E+00  0.91188000000E+02  0.91188000000E+02 0.  0.
    9900012    2    3    3    0    0 -0.22485953569E+02  0.14184267673E+02 -0.30762865190E+02  0.50528862872E+02  0.30000009186E+02 0.  0.
         12    1    3    3    0    0  0.22485953569E+02 -0.14184267673E+02  0.30762865190E+02  0.40659137128E+02  0.00000000000E+00 0. -1.
         11    1    4    4    0    0  0.61252683649E+00 -0.32439411338E+01 -0.82355809524E+00  0.34024390373E+01  0.51100000000E-03 0. -1.
        -11    1    4    4    0    0 -0.66160728918E+01  0.11566443643E+02 -0.10666943112E+01  0.13367605472E+02  0.51100000000E-03 0.  1.
         12    1    4    4    0    0 -0.16482407514E+02  0.58617651635E+01 -0.28872612783E+02  0.33758818362E+02  0.00000000000E+00 0. -1.
</event>
<event>
 8    1  0.1615837E-013  0.9118800E+02  0.7816164E-02  0.1184000E+00
        -11   -1    0    0    0    0  0.00000000000E+00  0.00000000000E+00  0.45593999997E+02  0.45594000000E+02  0.51100000000E-03 0.  1.
         11   -1    0    0    0    0 -0.00000000000E+00 -0.00000000000E+00 -0.45593999997E+02  0.45594000000E+02  0.51100000000E-03 0. -1.
         23    2    1    2    0    0  0.00000000000E+00 -0.71054273576E-14  0.00000000000E+00  0.91188000000E+02  0.91188000000E+02 0.  0.
    9900012    2    3    3    0    0 -0.10787906133E+02  0.39093210448E+02  0.29167837109E+01  0.50528860202E+02  0.30000001070E+02 0.  0.
        -12    1    3    3    0    0  0.10787906133E+02 -0.39093210448E+02 -0.29167837109E+01  0.40659139798E+02  0.00000000000E+00 0.  1.
         11    1    4    4    0    0  0.47986770344E+01 -0.11732669187E+01 -0.34807715483E+01  0.60431471416E+01  0.51100000000E-03 0. -1.
        -11    1    4    4    0    0 -0.69362385647E+01  0.82080940426E+01  0.26631579949E+01  0.11071432789E+02  0.51100000000E-03 0.  1.
        -12    1    4    4    0    0 -0.86503446030E+01  0.32058383324E+02  0.37343972644E+01  0.33414280271E+02  0.00000000000E+00 0.  1.
</event>
<event>
 8    1  0.1615837E-013  0.9118800E+02  0.7816164E-02  0.1184000E+00
        -11   -1    0    0    0    0  0.00000000000E+00  0.00000000000E+00  0.45593999997E+02  0.45594000000E+02  0.51100000000E-03 0. -1.
         11   -1    0    0    0    0 -0.00000000000E+00 -0.00000000000E+00 -0.45593999997E+02  0.45594000000E+02  0.51100000000E-03 0.  1.
         23    2    1    2    0    0 -0.88817841970E-15  0.44408920985E-15  0.71054273576E-14  0.91188000000E+02  0.91188000000E+02 0.  0.
    9900012    2    3    3    0    0 -0.70254084663E+01 -0.32324709988E+01  0.39916920967E+02  0.50528858195E+02  0.29999994969E+02 0.  0.
        -12    1    3    3    0    0  0.70254084663E+01  0.32324709988E+01 -0.39916920967E+02  0.40659141805E+02  0.00000000000E+00 0.  1.
         11    1    4    4    0    0 -0.91139995909E+01 -0.35733799442E+01  0.61123395314E+01  0.11541002018E+02  0.51100000000E-03 0. -1.
        -11    1    4    4    0    0 -0.11627142668E+00 -0.87616824375E+01  0.23410233871E+02  0.24996392706E+02  0.51100000000E-03 0.  1.
        -12    1    4    4    0    0  0.22048625513E+01  0.91025913830E+01  0.10394347565E+02  0.13991463471E+02  0.00000000000E+00 0.  1.
</event>
<event>
 8    1  0.1615837E-013  0.9118800E+02  0.7816164E-02  0.1184000E+00
        -11   -1    0    0    0    0  0.00000000000E+00  0.00000000000E+00  0.45593999997E+02  0.45594000000E+02  0.51100000000E-03 0. -1.
         11   -1    0    0    0    0 -0.00000000000E+00 -0.00000000000E+00 -0.45593999997E+02  0.45594000000E+02  0.51100000000E-03 0.  1.
         23    2    1    2    0    0  0.00000000000E+00  0.00000000000E+00  0.00000000000E+00  0.91188000000E+02  0.91188000000E+02 0.  0.
    9900012    2    3    3    0    0 -0.25742116656E+02  0.16704252768E+02  0.26673533629E+02  0.50528855559E+02  0.29999986957E+02 0.  0.
        -12    1    3    3    0    0  0.25742116656E+02 -0.16704252768E+02 -0.26673533629E+02  0.40659144441E+02  0.00000000000E+00 0.  1.
         11    1    4    4    0    0 -0.67667561880E+01  0.16565573243E+02  0.84745404826E+01  0.19799622290E+02  0.51100000000E-03 0. -1.
        -11    1    4    4    0    0  0.16299091929E+01 -0.34323896028E+01  0.21292415183E+01  0.43556368153E+01  0.51100000000E-03 0.  1.
        -12    1    4    4    0    0 -0.20605269661E+02  0.35710691272E+01  0.16069751628E+02  0.26373596453E+02  0.00000000000E+00 0.  1.
</event>
<event>
 8    1  0.1615837E-013  0.9118800E+02  0.7816164E-02  0.1184000E+00
        -11   -1    0    0    0    0  0.00000000000E+00  0.00000000000E+00  0.45593999997E+02  0.45594000000E+02  0.51100000000E-03 0. -1.
         11   -1    0    0    0    0 -0.00000000000E+00 -0.00000000000E+00 -0.45593999997E+02  0.45594000000E+02  0.51100000000E-03 0.  1.
         23    2    1    2    0    0  0.00000000000E+00  0.35527136788E-14  0.00000000000E+00  0.91188000000E+02  0.91188000000E+02 0.  0.
    9900012    2    3    3    0    0  0.18701311509E+02 -0.31724605159E+02 -0.17233020738E+02  0.50528848160E+02  0.29999964466E+02 0.  0.
         12    1    3    3    0    0 -0.18701311509E+02  0.31724605159E+02  0.17233020738E+02  0.40659151840E+02  0.00000000000E+00 0. -1.
         11    1    4    4    0    0  0.84427986608E+01  0.26611843373E+01 -0.37250787391E+01  0.96041117849E+01  0.51100000000E-03 0. -1.
        -11    1    4    4    0    0  0.59682217795E+01 -0.11830261730E+02  0.17379802310E+01  0.13363956725E+02  0.51100000000E-03 0.  1.
        -12    1    4    4    0    0  0.42902910688E+01 -0.22555527766E+02 -0.15245922229E+02  0.27560779650E+02  0.00000000000E+00 0.  1.
</event>
<event>
 8    1  0.1615837E-013  0.9118800E+02  0.7816164E-02  0.1184000E+00
        -11   -1    0    0    0    0  0.00000000000E+00  0.00000000000E+00  0.45593999997E+02  0.45594000000E+02  0.51100000000E-03 0. -1.
         11   -1    0    0    0    0 -0.00000000000E+00 -0.00000000000E+00 -0.45593999997E+02  0.45594000000E+02  0.51100000000E-03 0.  1.
         23    2    1    2    0    0 -0.88817841970E-15  0.35527136788E-14  0.00000000000E+00  0.91188000000E+02  0.91188000000E+02 0.  0.
    9900012    2    3    3    0    0 -0.69803810107E+01  0.30310252431E+02  0.26186418180E+02  0.50528860577E+02  0.30000002211E+02 0.  0.
        -12    1    3    3    0    0  0.69803810107E+01 -0.30310252431E+02 -0.26186418180E+02  0.40659139423E+02  0.00000000000E+00 0.  1.
         11    1    4    4    0    0  0.56963961434E+01  0.82647279055E+01  0.35570858489E+01  0.10649296520E+02  0.51100000000E-03 0. -1.
        -11    1    4    4    0    0 -0.44063521109E+01  0.90058168774E+01  0.22282676471E+02  0.24434368163E+02  0.51100000000E-03 0.  1.
        -12    1    4    4    0    0 -0.82704250433E+01  0.13039707648E+02  0.34665586048E+00  0.15445195895E+02  0.00000000000E+00 0.  1.
</event>
<event>
 8    1  0.1615837E-013  0.9118800E+02  0.7816164E-02  0.1184000E+00
        -11   -1    0    0    0    0  0.00000000000E+00  0.00000000000E+00  0.45593999997E+02  0.45594000000E+02  0.51100000000E-03 0. -1.
         11   -1    0    0    0    0 -0.00000000000E+00 -0.00000000000E+00 -0.45593999997E+02  0.45594000000E+02  0.51100000000E-03 0.  1.
         23    2    1    2    0    0  0.00000000000E+00  0.00000000000E+00  0.00000000000E+00  0.91188000000E+02  0.91188000000E+02 0.  0.
    9900012    2    3    3    0    0  0.90325426687E+01 -0.54226322985E+00 -0.39639439971E+02  0.50528854931E+02  0.29999985049E+02 0.  0.
         12    1    3    3    0    0 -0.90325426687E+01  0.54226322985E+00  0.39639439971E+02  0.40659145069E+02  0.00000000000E+00 0. -1.
         11    1    4    4    0    0 -0.60777642279E+01 -0.76825273574E+01 -0.10276199016E+02  0.14197207863E+02  0.51100000000E-03 0. -1.
        -11    1    4    4    0    0  0.68299344450E+00 -0.10984647652E+01  0.10568520889E+01  0.16703417269E+01  0.51100000000E-03 0.  1.
        -12    1    4    4    0    0  0.14427313452E+02  0.82387288928E+01 -0.30420093044E+02  0.34661305342E+02  0.00000000000E+00 0.  1.
</event>
<event>
 8    1  0.1615837E-013  0.9118800E+02  0.7816164E-02  0.1184000E+00
        -11   -1    0    0    0    0  0.00000000000E+00  0.00000000000E+00  0.45593999997E+02  0.45594000000E+02  0.51100000000E-03 0.  1.
         11   -1    0    0    0    0 -0.00000000000E+00 -0.00000000000E+00 -0.45593999997E+02  0.45594000000E+02  0.51100000000E-03 0. -1.
         23    2    1    2    0    0  0.00000000000E+00  0.35527136788E-14 -0.22204460493E-15  0.91188000000E+02  0.91188000000E+02 0.  0.
    9900012    2    3    3    0    0 -0.27372246636E+02  0.30024659242E+02 -0.15639998743E+01  0.50528854115E+02  0.29999982569E+02 0.  0.
        -12    1    3    3    0    0  0.27372246636E+02 -0.30024659242E+02  0.15639998743E+01  0.40659145885E+02  0.00000000000E+00 0.  1.
         11    1    4    4    0    0  0.15576715245E+01  0.10276934559E+02  0.45432086168E+01  0.11343829570E+02  0.51100000000E-03 0. -1.
        -11    1    4    4    0    0  0.12579270121E+01 -0.11214112858E+01 -0.13889337902E+01  0.21838225601E+01  0.51100000000E-03 0.  1.
         12    1    4    4    0    0 -0.30187845172E+02  0.20869135968E+02 -0.47182747009E+01  0.37001201985E+02  0.00000000000E+00 0. -1.
</event>
<event>
 8    1  0.1615837E-013  0.9118800E+02  0.7816164E-02  0.1184000E+00
        -11   -1    0    0    0    0  0.00000000000E+00  0.00000000000E+00  0.45593999997E+02  0.45594000000E+02  0.51100000000E-03 0. -1.
         11   -1    0    0    0    0 -0.00000000000E+00 -0.00000000000E+00 -0.45593999997E+02  0.45594000000E+02  0.51100000000E-03 0.  1.
         23    2    1    2    0    0  0.35527136788E-14 -0.88817841970E-15  0.00000000000E+00  0.91188000000E+02  0.91188000000E+02 0.  0.
    9900012    2    3    3    0    0 -0.23372923045E+02  0.64376237214E+01  0.32640899900E+02  0.50528869695E+02  0.30000029926E+02 0.  0.
        -12    1    3    3    0    0  0.23372923045E+02 -0.64376237214E+01 -0.32640899900E+02  0.40659130305E+02  0.00000000000E+00 0.  1.
         11    1    4    4    0    0 -0.13800686913E+02 -0.30693174326E+01  0.60673521667E+01  0.15384811710E+02  0.51100000000E-03 0. -1.
        -11    1    4    4    0    0  0.53146488136E+00 -0.51600215225E+01  0.58335248897E+01  0.78062980940E+01  0.51100000000E-03 0.  1.
         12    1    4    4    0    0 -0.10103701014E+02  0.14666962677E+02  0.20740022844E+02  0.27337759891E+02  0.00000000000E+00 0. -1.
</event>
<event>
 8    1  0.1615837E-013  0.9118800E+02  0.7816164E-02  0.1184000E+00
        -11   -1    0    0    0    0  0.00000000000E+00  0.00000000000E+00  0.45593999997E+02  0.45594000000E+02  0.51100000000E-03 0. -1.
         11   -1    0    0    0    0 -0.00000000000E+00 -0.00000000000E+00 -0.45593999997E+02  0.45594000000E+02  0.51100000000E-03 0.  1.
         23    2    1    2    0    0  0.00000000000E+00  0.88817841970E-15  0.00000000000E+00  0.91188000000E+02  0.91188000000E+02 0.  0.
    9900012    2    3    3    0    0 -0.36806786402E+02  0.34544569880E+01 -0.16926103912E+02  0.50528858445E+02  0.29999995730E+02 0.  0.
         12    1    3    3    0    0  0.36806786402E+02 -0.34544569880E+01  0.16926103912E+02  0.40659141555E+02  0.00000000000E+00 0. -1.
         11    1    4    4    0    0 -0.47205946030E+01 -0.81819589866E+01  0.67775562113E+00  0.94703653155E+01  0.51100000000E-03 0. -1.
        -11    1    4    4    0    0 -0.13137382174E+02  0.74302488561E+01 -0.36352893700E+00  0.15097402492E+02  0.51100000000E-03 0.  1.
         12    1    4    4    0    0 -0.18948809625E+02  0.42061671185E+01 -0.17240330596E+02  0.25961090638E+02  0.00000000000E+00 0. -1.
</event>
<event>
 8    1  0.1615837E-013  0.9118800E+02  0.7816164E-02  0.1184000E+00
        -11   -1    0    0    0    0  0.00000000000E+00  0.00000000000E+00  0.45593999997E+02  0.45594000000E+02  0.51100000000E-03 0.  1.
         11   -1    0    0    0    0 -0.00000000000E+00 -0.00000000000E+00 -0.45593999997E+02  0.45594000000E+02  0.51100000000E-03 0. -1.
         23    2    1    2    0    0 -0.35527136788E-14 -0.22204460493E-14  0.00000000000E+00  0.91188000000E+02  0.91188000000E+02 0.  0.
    9900012    2    3    3    0    0  0.27430579574E+02 -0.19218107921E+01  0.29950546942E+02  0.50528864316E+02  0.30000013574E+02 0.  0.
        -12    1    3    3    0    0 -0.27430579574E+02  0.19218107921E+01 -0.29950546942E+02  0.40659135684E+02  0.00000000000E+00 0.  1.
         11    1    4    4    0    0  0.80392551388E+01  0.62622034137E+01  0.27455250170E+01  0.10553801337E+02  0.51100000000E-03 0. -1.
        -11    1    4    4    0    0  0.91797983209E+01  0.37993343408E+01  0.20660204890E+02  0.22924827262E+02  0.51100000000E-03 0.  1.
         12    1    4    4    0    0  0.10211526114E+02 -0.11983348547E+02  0.65448170351E+01  0.17050235716E+02  0.00000000000E+00 0. -1.
</event>
<event>
 8    1  0.3086360E-013  0.9118800E+02  0.7816164E-02  0.1184000E+00
        -11   -1    0    0    0    0  0.00000000000E+00  0.00000000000E+00  0.45593999997E+02  0.45594000000E+02  0.51100000000E-03 0. -1.
         11   -1    0    0    0    0 -0.00000000000E+00 -0.00000000000E+00 -0.45593999997E+02  0.45594000000E+02  0.51100000000E-03 0.  1.
         23    2    1    2    0    0 -0.44408920985E-15  0.00000000000E+00  0.00000000000E+00  0.91188000000E+02  0.91188000000E+02 0.  0.
    9900012    2    3    3    0    0 -0.18125036594E+01 -0.12869590453E+02  0.38526015322E+02  0.50528863455E+02  0.30000010959E+02 0.  0.
        -12    1    3    3    0    0  0.18125036594E+01  0.12869590453E+02 -0.38526015322E+02  0.40659136545E+02  0.00000000000E+00 0.  1.
         11    1    4    4    0    0  0.17756603745E+01 -0.46933283314E+01  0.16756000064E+02  0.17491250355E+02  0.51100000000E-03 0. -1.
        -11    1    4    4    0    0  0.34280066221E+01 -0.13925920683E+01  0.22914572952E+02  0.23211380741E+02  0.51100000000E-03 0.  1.
        -12    1    4    4    0    0 -0.70161706560E+01 -0.67836700535E+01 -0.11445576934E+01  0.98262323595E+01  0.00000000000E+00 0.  1.
</event>
<event>
 8    1  0.1615837E-013  0.9118800E+02  0.7816164E-02  0.1184000E+00
        -11   -1    0    0    0    0  0.00000000000E+00  0.00000000000E+00  0.45593999997E+02  0.45594000000E+02  0.51100000000E-03 0.  1.
         11   -1    0    0    0    0 -0.00000000000E+00 -0.00000000000E+00 -0.45593999997E+02  0.45594000000E+02  0.51100000000E-03 0. -1.
         23    2    1    2    0    0  0.00000000000E+00  0.00000000000E+00  0.44408920985E-15  0.91188000000E+02  0.91188000000E+02 0.  0.
    9900012    2    3    3    0    0 -0.22721592282E+02 -0.33555725749E+02  0.33034826854E+01  0.50528800744E+02  0.29999820339E+02 0.  0.
         12    1    3    3    0    0  0.22721592282E+02  0.33555725749E+02 -0.33034826854E+01  0.40659199256E+02  0.00000000000E+00 0. -1.
         11    1    4    4    0    0  0.24300486917E+01 -0.32075316837E+01 -0.13002733898E-01  0.40241229452E+01  0.51100000000E-03 0. -1.
        -11    1    4    4    0    0 -0.14125831800E+02 -0.26277217919E+01 -0.55180145109E+01  0.15391313467E+02  0.51100000000E-03 0.  1.
         12    1    4    4    0    0 -0.11025809174E+02 -0.27720472273E+02  0.88344999302E+01  0.31113364331E+02  0.00000000000E+00 0. -1.
</event>
<event>
 8    1  0.1615837E-013  0.9118800E+02  0.7816164E-02  0.1184000E+00
        -11   -1    0    0    0    0  0.00000000000E+00  0.00000000000E+00  0.45593999997E+02  0.45594000000E+02  0.51100000000E-03 0. -1.
         11   -1    0    0    0    0 -0.00000000000E+00 -0.00000000000E+00 -0.45593999997E+02  0.45594000000E+02  0.51100000000E-03 0.  1.
         23    2    1    2    0    0 -0.88817841970E-15  0.88817841970E-15  0.00000000000E+00  0.91188000000E+02  0.91188000000E+02 0.  0.
    9900012    2    3    3    0    0 -0.47295259528E+01  0.61057092205E+01 -0.39918889168E+02  0.50528858183E+02  0.29999994934E+02 0.  0.
         12    1    3    3    0    0  0.47295259528E+01 -0.61057092205E+01  0.39918889168E+02  0.40659141817E+02  0.00000000000E+00 0. -1.
         11    1    4    4    0    0  0.56340072415E+01  0.12555387573E+02 -0.87791099484E+01  0.16323374849E+02  0.51100000000E-03 0. -1.
        -11    1    4    4    0    0 -0.39596202350E+01 -0.23593055272E+01 -0.42743665795E+01  0.62861057017E+01  0.51100000000E-03 0.  1.
        -12    1    4    4    0    0 -0.64039129593E+01 -0.40903728255E+01 -0.26865412641E+02  0.27919377633E+02  0.00000000000E+00 0.  1.
</event>
<event>
 8    1  0.1615837E-013  0.9118800E+02  0.7816164E-02  0.1184000E+00
        -11   -1    0    0    0    0  0.00000000000E+00  0.00000000000E+00  0.45593999997E+02  0.45594000000E+02  0.51100000000E-03 0. -1.
         11   -1    0    0    0    0 -0.00000000000E+00 -0.00000000000E+00 -0.45593999997E+02  0.45594000000E+02  0.51100000000E-03 0.  1.
         23    2    1    2    0    0  0.00000000000E+00  0.00000000000E+00  0.00000000000E+00  0.91188000000E+02  0.91188000000E+02 0.  0.
    9900012    2    3    3    0    0  0.17754729690E+02  0.70103610672E+01  0.35899722804E+02  0.50528859747E+02  0.29999999687E+02 0.  0.
        -12    1    3    3    0    0 -0.17754729690E+02 -0.70103610672E+01 -0.35899722804E+02  0.40659140253E+02  0.00000000000E+00 0.  1.
         11    1    4    4    0    0 -0.47362171918E+01  0.14357433113E+01  0.16258933882E+01  0.52092841845E+01  0.51100000000E-03 0. -1.
        -11    1    4    4    0    0  0.18737214084E+02 -0.36842049022E+01  0.18113191302E+02  0.26320035273E+02  0.51100000000E-03 0.  1.
         12    1    4    4    0    0  0.37537327985E+01  0.92588226582E+01  0.16160638115E+02  0.18999540289E+02  0.00000000000E+00 0. -1.
</event>
<event>
 8    1  0.1615837E-013  0.9118800E+02  0.7816164E-02  0.1184000E+00
        -11   -1    0    0    0    0  0.00000000000E+00  0.00000000000E+00  0.45593999997E+02  0.45594000000E+02  0.51100000000E-03 0. -1.
         11   -1    0    0    0    0 -0.00000000000E+00 -0.00000000000E+00 -0.45593999997E+02  0.45594000000E+02  0.51100000000E-03 0.  1.
         23    2    1    2    0    0 -0.35527136788E-14  0.88817841970E-15  0.00000000000E+00  0.91188000000E+02  0.91188000000E+02 0.  0.
    9900012    2    3    3    0    0  0.22296014254E+02 -0.73047671648E+01 -0.33206830209E+02  0.50528862682E+02  0.30000008608E+02 0.  0.
         12    1    3    3    0    0 -0.22296014254E+02  0.73047671648E+01  0.33206830209E+02  0.40659137318E+02  0.00000000000E+00 0. -1.
         11    1    4    4    0    0 -0.31790554557E+01 -0.79397908422E+01 -0.25675351139E+01  0.89296645531E+01  0.51100000000E-03 0. -1.
        -11    1    4    4    0    0  0.67551816405E+01 -0.15373074858E+00 -0.14450649242E+01  0.69097268424E+01  0.51100000000E-03 0.  1.
        -12    1    4    4    0    0  0.18719888070E+02  0.78875442595E+00 -0.29194230170E+02  0.34689471286E+02  0.00000000000E+00 0.  1.
</event>
<event>
 8    1  0.1615837E-013  0.9118800E+02  0.7816164E-02  0.1184000E+00
        -11   -1    0    0    0    0  0.00000000000E+00  0.00000000000E+00  0.45593999997E+02  0.45594000000E+02  0.51100000000E-03 0. -1.
         11   -1    0    0    0    0 -0.00000000000E+00 -0.00000000000E+00 -0.45593999997E+02  0.45594000000E+02  0.51100000000E-03 0.  1.
         23    2    1    2    0    0 -0.35527136788E-14  0.00000000000E+00  0.00000000000E+00  0.91188000000E+02  0.91188000000E+02 0.  0.
    9900012    2    3    3    0    0 -0.22747339981E+02 -0.20024186818E+02 -0.27106385938E+02  0.50528859668E+02  0.29999999446E+02 0.  0.
         12    1    3    3    0    0  0.22747339981E+02  0.20024186818E+02  0.27106385938E+02  0.40659140332E+02  0.00000000000E+00 0. -1.
         11    1    4    4    0    0 -0.30744616773E+01 -0.38517686173E+01 -0.19632638462E+01  0.53049826840E+01  0.51100000000E-03 0. -1.
        -11    1    4    4    0    0 -0.25326811311E+02 -0.11829190341E+02 -0.12310715800E+02  0.30543916564E+02  0.51100000000E-03 0.  1.
         12    1    4    4    0    0  0.56539330070E+01 -0.43432278599E+01 -0.12832406292E+02  0.14679960420E+02  0.00000000000E+00 0. -1.
</event>
<event>
 8    1  0.1615837E-013  0.9118800E+02  0.7816164E-02  0.1184000E+00
        -11   -1    0    0    0    0  0.00000000000E+00  0.00000000000E+00  0.45593999997E+02  0.45594000000E+02  0.51100000000E-03 0. -1.
         11   -1    0    0    0    0 -0.00000000000E+00 -0.00000000000E+00 -0.45593999997E+02  0.45594000000E+02  0.51100000000E-03 0.  1.
         23    2    1    2    0    0  0.00000000000E+00 -0.35527136788E-14  0.35527136788E-14  0.91188000000E+02  0.91188000000E+02 0.  0.
    9900012    2    3    3    0    0 -0.16610903049E+02  0.25281066982E+02 -0.27168205228E+02  0.50528858062E+02  0.29999994564E+02 0.  0.
         12    1    3    3    0    0  0.16610903049E+02 -0.25281066982E+02  0.27168205228E+02  0.40659141938E+02  0.00000000000E+00 0. -1.
         11    1    4    4    0    0 -0.11596892513E+02  0.91393287979E+01  0.21282490353E+00  0.14766873113E+02  0.51100000000E-03 0. -1.
        -11    1    4    4    0    0 -0.70357216851E+01  0.62113118034E+00 -0.11266899220E+02  0.13297751760E+02  0.51100000000E-03 0.  1.
        -12    1    4    4    0    0  0.20217111486E+01  0.15520607004E+02 -0.16114130912E+02  0.22464233189E+02  0.00000000000E+00 0.  1.
</event>
<event>
 8    1  0.1615837E-013  0.9118800E+02  0.7816164E-02  0.1184000E+00
        -11   -1    0    0    0    0  0.00000000000E+00  0.00000000000E+00  0.45593999997E+02  0.45594000000E+02  0.51100000000E-03 0.  1.
         11   -1    0    0    0    0 -0.00000000000E+00 -0.00000000000E+00 -0.45593999997E+02  0.45594000000E+02  0.51100000000E-03 0. -1.
         23    2    1    2    0    0  0.00000000000E+00  0.00000000000E+00  0.00000000000E+00  0.91188000000E+02  0.91188000000E+02 0.  0.
    9900012    2    3    3    0    0  0.85092223242E+01  0.21259038434E+02 -0.33597808115E+02  0.50528852322E+02  0.29999977119E+02 0.  0.
         12    1    3    3    0    0 -0.85092223242E+01 -0.21259038434E+02  0.33597808115E+02  0.40659147678E+02  0.00000000000E+00 0. -1.
         11    1    4    4    0    0 -0.85918105960E+00 -0.34359516344E+01 -0.30852664332E+01  0.46971081478E+01  0.51100000000E-03 0. -1.
        -11    1    4    4    0    0 -0.33169887151E+01  0.10838507357E+02 -0.17374168319E+01  0.11467095246E+02  0.51100000000E-03 0.  1.
         12    1    4    4    0    0  0.12685392099E+02  0.13856482712E+02 -0.28775124850E+02  0.34364648929E+02  0.00000000000E+00 0. -1.
</event>
<event>
 8    1  0.1615837E-013  0.9118800E+02  0.7816164E-02  0.1184000E+00
        -11   -1    0    0    0    0  0.00000000000E+00  0.00000000000E+00  0.45593999997E+02  0.45594000000E+02  0.51100000000E-03 0. -1.
         11   -1    0    0    0    0 -0.00000000000E+00 -0.00000000000E+00 -0.45593999997E+02  0.45594000000E+02  0.51100000000E-03 0.  1.
         23    2    1    2    0    0  0.17763568394E-14  0.00000000000E+00  0.00000000000E+00  0.91188000000E+02  0.91188000000E+02 0.  0.
    9900012    2    3    3    0    0  0.15207615398E+02 -0.13796014740E+02 -0.35093644136E+02  0.50528862681E+02  0.30000008605E+02 0.  0.
         12    1    3    3    0    0 -0.15207615398E+02  0.13796014740E+02  0.35093644136E+02  0.40659137319E+02  0.00000000000E+00 0. -1.
         11    1    4    4    0    0  0.37654405093E+01  0.48299335010E+01 -0.52478394017E+01  0.80651483868E+01  0.51100000000E-03 0. -1.
        -11    1    4    4    0    0  0.11295645913E+01 -0.60199156694E+01 -0.24602778040E+02  0.25353737168E+02  0.51100000000E-03 0.  1.
        -12    1    4    4    0    0  0.10312610297E+02 -0.12606032572E+02 -0.52430266936E+01  0.17109977126E+02  0.00000000000E+00 0.  1.
</event>
<event>
 8    1  0.1615837E-013  0.9118800E+02  0.7816164E-02  0.1184000E+00
        -11   -1    0    0    0    0  0.00000000000E+00  0.00000000000E+00  0.45593999997E+02  0.45594000000E+02  0.51100000000E-03 0. -1.
         11   -1    0    0    0    0 -0.00000000000E+00 -0.00000000000E+00 -0.45593999997E+02  0.45594000000E+02  0.51100000000E-03 0.  1.
         23    2    1    2    0    0  0.17763568394E-14  0.35527136788E-14  0.35527136788E-14  0.91188000000E+02  0.91188000000E+02 0.  0.
    9900012    2    3    3    0    0  0.74734371386E+01  0.28026631152E+02  0.28492492040E+02  0.50528850734E+02  0.29999972292E+02 0.  0.
        -12    1    3    3    0    0 -0.74734371386E+01 -0.28026631152E+02 -0.28492492040E+02  0.40659149266E+02  0.00000000000E+00 0.  1.
         11    1    4    4    0    0 -0.14110383027E+01 -0.15357724974E+01 -0.19773596540E+01  0.28739481063E+01  0.51100000000E-03 0. -1.
        -11    1    4    4    0    0 -0.60221059702E+01  0.50702596316E+01  0.80369081223E+01  0.11250119354E+02  0.51100000000E-03 0.  1.
         12    1    4    4    0    0  0.14906581411E+02  0.24492144018E+02  0.22432943572E+02  0.36404783274E+02  0.00000000000E+00 0. -1.
</event>
<event>
 8    1  0.1615837E-013  0.9118800E+02  0.7816164E-02  0.1184000E+00
        -11   -1    0    0    0    0  0.00000000000E+00  0.00000000000E+00  0.45593999997E+02  0.45594000000E+02  0.51100000000E-03 0. -1.
         11   -1    0    0    0    0 -0.00000000000E+00 -0.00000000000E+00 -0.45593999997E+02  0.45594000000E+02  0.51100000000E-03 0.  1.
         23    2    1    2    0    0 -0.17763568394E-14  0.35527136788E-14  0.00000000000E+00  0.91188000000E+02  0.91188000000E+02 0.  0.
    9900012    2    3    3    0    0 -0.15270728016E+02 -0.17416509655E+02  0.33416098514E+02  0.50528861020E+02  0.30000003557E+02 0.  0.
        -12    1    3    3    0    0  0.15270728016E+02  0.17416509655E+02 -0.33416098514E+02  0.40659138980E+02  0.00000000000E+00 0.  1.
         11    1    4    4    0    0 -0.40201950858E+01 -0.71610794754E+01  0.11060094927E+02  0.13775657075E+02  0.51100000000E-03 0. -1.
        -11    1    4    4    0    0 -0.19185140742E+02 -0.87409495214E+01  0.15694678810E+02  0.26283012899E+02  0.51100000000E-03 0.  1.
         12    1    4    4    0    0  0.79346078110E+01 -0.15144806582E+01  0.66613247765E+01  0.10470191047E+02  0.00000000000E+00 0. -1.
</event>
<event>
 8    1  0.1615837E-013  0.9118800E+02  0.7816164E-02  0.1184000E+00
        -11   -1    0    0    0    0  0.00000000000E+00  0.00000000000E+00  0.45593999997E+02  0.45594000000E+02  0.51100000000E-03 0. -1.
         11   -1    0    0    0    0 -0.00000000000E+00 -0.00000000000E+00 -0.45593999997E+02  0.45594000000E+02  0.51100000000E-03 0.  1.
         23    2    1    2    0    0  0.00000000000E+00 -0.35527136788E-14  0.00000000000E+00  0.91188000000E+02  0.91188000000E+02 0.  0.
    9900012    2    3    3    0    0 -0.88895362917E+01 -0.22552233481E+02 -0.32642575902E+02  0.50528870004E+02  0.30000030865E+02 0.  0.
         12    1    3    3    0    0  0.88895362917E+01  0.22552233481E+02  0.32642575902E+02  0.40659129996E+02  0.00000000000E+00 0. -1.
         11    1    4    4    0    0 -0.41053824869E+01  0.38428679955E+01 -0.67231351259E+01  0.87648357644E+01  0.51100000000E-03 0.  1.
        -11    1    4    4    0    0  0.96466415071E+00  0.27998385471E+01 -0.28871373152E+01  0.41358475493E+01  0.51100000000E-03 0. -1.
        -12    1    4    4    0    0 -0.57488179555E+01 -0.29194940024E+02 -0.23032303461E+02  0.37628186690E+02  0.00000000000E+00 0.  1.
</event>
<event>
 8    1  0.1615837E-013  0.9118800E+02  0.7816164E-02  0.1184000E+00
        -11   -1    0    0    0    0  0.00000000000E+00  0.00000000000E+00  0.45593999997E+02  0.45594000000E+02  0.51100000000E-03 0. -1.
         11   -1    0    0    0    0 -0.00000000000E+00 -0.00000000000E+00 -0.45593999997E+02  0.45594000000E+02  0.51100000000E-03 0.  1.
         23    2    1    2    0    0 -0.17763568394E-14  0.00000000000E+00  0.00000000000E+00  0.91188000000E+02  0.91188000000E+02 0.  0.
    9900012    2    3    3    0    0 -0.13639507947E+02  0.93754964302E+01  0.37138014833E+02  0.50528828143E+02  0.29999903622E+02 0.  0.
        -12    1    3    3    0    0  0.13639507947E+02 -0.93754964302E+01 -0.37138014833E+02  0.40659171857E+02  0.00000000000E+00 0.  1.
         11    1    4    4    0    0  0.93028411032E+00  0.66923909564E+01  0.82821757625E+01  0.10688683776E+02  0.51100000000E-03 0. -1.
        -11    1    4    4    0    0 -0.40895493674E+00 -0.52012909425E+00 -0.39290317286E+01  0.39843530216E+01  0.51100000000E-03 0.  1.
         12    1    4    4    0    0 -0.14160837120E+02  0.32032345681E+01  0.32784870800E+02  0.35855791345E+02  0.00000000000E+00 0. -1.
</event>
<event>
 8    1  0.1615837E-013  0.9118800E+02  0.7816164E-02  0.1184000E+00
        -11   -1    0    0    0    0  0.00000000000E+00  0.00000000000E+00  0.45593999997E+02  0.45594000000E+02  0.51100000000E-03 0. -1.
         11   -1    0    0    0    0 -0.00000000000E+00 -0.00000000000E+00 -0.45593999997E+02  0.45594000000E+02  0.51100000000E-03 0.  1.
         23    2    1    2    0    0  0.00000000000E+00 -0.35527136788E-14  0.00000000000E+00  0.91188000000E+02  0.91188000000E+02 0.  0.
    9900012    2    3    3    0    0 -0.30634741453E+02  0.18527464462E+02 -0.19272034851E+02  0.50528860184E+02  0.30000001016E+02 0.  0.
         12    1    3    3    0    0  0.30634741453E+02 -0.18527464462E+02  0.19272034851E+02  0.40659139816E+02  0.00000000000E+00 0. -1.
         11    1    4    4    0    0 -0.11877795124E+02  0.16661831275E+02 -0.49693354470E+01  0.21056897527E+02  0.51100000000E-03 0. -1.
        -11    1    4    4    0    0 -0.10962528236E+02  0.96614150991E+01 -0.66641327965E+01  0.16060218966E+02  0.51100000000E-03 0.  1.
         12    1    4    4    0    0 -0.77944180932E+01 -0.77957819117E+01 -0.76385666072E+01  0.13411743691E+02  0.00000000000E+00 0. -1.
</event>
<event>
 8    1  0.1615837E-013  0.9118800E+02  0.7816164E-02  0.1184000E+00
        -11   -1    0    0    0    0  0.00000000000E+00  0.00000000000E+00  0.45593999997E+02  0.45594000000E+02  0.51100000000E-03 0. -1.
         11   -1    0    0    0    0 -0.00000000000E+00 -0.00000000000E+00 -0.45593999997E+02  0.45594000000E+02  0.51100000000E-03 0.  1.
         23    2    1    2    0    0  0.17763568394E-14  0.00000000000E+00  0.35527136788E-14  0.91188000000E+02  0.91188000000E+02 0.  0.
    9900012    2    3    3    0    0  0.15158203546E+02  0.20065373951E+02  0.31949502985E+02  0.50528916052E+02  0.30000170830E+02 0.  0.
        -12    1    3    3    0    0 -0.15158203546E+02 -0.20065373951E+02 -0.31949502985E+02  0.40659083948E+02  0.00000000000E+00 0.  1.
         11    1    4    4    0    0  0.57858713773E+01  0.27255873632E+01 -0.88650112953E+00  0.64568582595E+01  0.51100000000E-03 0. -1.
        -11    1    4    4    0    0 -0.52126560028E+01  0.75689869970E-01  0.14782649659E+01  0.54187433165E+01  0.51100000000E-03 0.  1.
         12    1    4    4    0    0  0.14584988171E+02  0.17264096718E+02  0.31357739149E+02  0.38653314476E+02  0.00000000000E+00 0. -1.
</event>
<event>
 8    1  0.1615837E-013  0.9118800E+02  0.7816164E-02  0.1184000E+00
        -11   -1    0    0    0    0  0.00000000000E+00  0.00000000000E+00  0.45593999997E+02  0.45594000000E+02  0.51100000000E-03 0. -1.
         11   -1    0    0    0    0 -0.00000000000E+00 -0.00000000000E+00 -0.45593999997E+02  0.45594000000E+02  0.51100000000E-03 0.  1.
         23    2    1    2    0    0  0.00000000000E+00  0.88817841970E-15  0.00000000000E+00  0.91188000000E+02  0.91188000000E+02 0.  0.
    9900012    2    3    3    0    0  0.10646012434E+02  0.24143621869E+01  0.39166324388E+02  0.50528835085E+02  0.29999924725E+02 0.  0.
        -12    1    3    3    0    0 -0.10646012434E+02 -0.24143621869E+01 -0.39166324388E+02  0.40659164915E+02  0.00000000000E+00 0.  1.
         11    1    4    4    0    0  0.12735997007E+02  0.56406421147E+01  0.13469012562E+02  0.19376190618E+02  0.51100000000E-03 0. -1.
        -11    1    4    4    0    0  0.20371983982E+01  0.64453845669E+01  0.72041750664E+01  0.98789320363E+01  0.51100000000E-03 0.  1.
        -12    1    4    4    0    0 -0.41271829713E+01 -0.96716644947E+01  0.18493136760E+02  0.21273712431E+02  0.00000000000E+00 0.  1.
</event>
<event>
 8    1  0.1615837E-013  0.9118800E+02  0.7816164E-02  0.1184000E+00
        -11   -1    0    0    0    0  0.00000000000E+00  0.00000000000E+00  0.45593999997E+02  0.45594000000E+02  0.51100000000E-03 0. -1.
         11   -1    0    0    0    0 -0.00000000000E+00 -0.00000000000E+00 -0.45593999997E+02  0.45594000000E+02  0.51100000000E-03 0.  1.
         23    2    1    2    0    0  0.00000000000E+00 -0.12836953722E-15  0.00000000000E+00  0.91188000000E+02  0.91188000000E+02 0.  0.
    9900012    2    3    3    0    0  0.22274908701E+02  0.27014981876E-01  0.34014610492E+02  0.50528855710E+02  0.29999987417E+02 0.  0.
        -12    1    3    3    0    0 -0.22274908701E+02 -0.27014981876E-01 -0.34014610492E+02  0.40659144290E+02  0.00000000000E+00 0.  1.
         11    1    4    4    0    0  0.19327143277E+02 -0.46914439360E+01  0.83606928921E+01  0.21574274017E+02  0.51100000000E-03 0.  1.
        -11    1    4    4    0    0  0.23184362672E+01  0.18217827979E+01 -0.17725074210E+00  0.29538885176E+01  0.51100000000E-03 0. -1.
        -12    1    4    4    0    0  0.62932915683E+00  0.28966761200E+01  0.25831168342E+02  0.26000693176E+02  0.00000000000E+00 0.  1.
</event>
<event>
 8    1  0.1615837E-013  0.9118800E+02  0.7816164E-02  0.1184000E+00
        -11   -1    0    0    0    0  0.00000000000E+00  0.00000000000E+00  0.45593999997E+02  0.45594000000E+02  0.51100000000E-03 0. -1.
         11   -1    0    0    0    0 -0.00000000000E+00 -0.00000000000E+00 -0.45593999997E+02  0.45594000000E+02  0.51100000000E-03 0.  1.
         23    2    1    2    0    0  0.35527136788E-14  0.00000000000E+00 -0.35527136788E-14  0.91188000000E+02  0.91188000000E+02 0.  0.
    9900012    2    3    3    0    0  0.28418891689E+02 -0.12047406049E+02  0.26464927101E+02  0.50528858791E+02  0.29999996782E+02 0.  0.
        -12    1    3    3    0    0 -0.28418891689E+02  0.12047406049E+02 -0.26464927101E+02  0.40659141209E+02  0.00000000000E+00 0.  1.
         11    1    4    4    0    0  0.26994662075E+02 -0.10483609656E+02  0.12438747317E+02  0.31517301392E+02  0.51100000000E-03 0. -1.
        -11    1    4    4    0    0  0.22817277959E+01  0.33617155900E+01 -0.61108864805E-01  0.40633911942E+01  0.51100000000E-03 0.  1.
        -12    1    4    4    0    0 -0.85749818119E+00 -0.49255119823E+01  0.14087288649E+02  0.14948166205E+02  0.00000000000E+00 0.  1.
</event>
<event>
 8    1  0.1615837E-013  0.9118800E+02  0.7816164E-02  0.1184000E+00
        -11   -1    0    0    0    0  0.00000000000E+00  0.00000000000E+00  0.45593999997E+02  0.45594000000E+02  0.51100000000E-03 0. -1.
         11   -1    0    0    0    0 -0.00000000000E+00 -0.00000000000E+00 -0.45593999997E+02  0.45594000000E+02  0.51100000000E-03 0.  1.
         23    2    1    2    0    0 -0.88817841970E-15  0.00000000000E+00 -0.35527136788E-14  0.91188000000E+02  0.91188000000E+02 0.  0.
    9900012    2    3    3    0    0  0.46099310070E+01  0.27700751635E+02 -0.29403804487E+02  0.50528845762E+02  0.29999957177E+02 0.  0.
         12    1    3    3    0    0 -0.46099310070E+01 -0.27700751635E+02  0.29403804487E+02  0.40659154238E+02  0.00000000000E+00 0. -1.
         11    1    4    4    0    0  0.69848555423E+01  0.17868307870E+02 -0.41724699339E+01  0.19633495326E+02  0.51100000000E-03 0. -1.
        -11    1    4    4    0    0  0.51684931479E+01  0.71651519337E+01 -0.18252807940E+02  0.20278503929E+02  0.51100000000E-03 0.  1.
        -12    1    4    4    0    0 -0.75434176831E+01  0.26672918315E+01 -0.69785266130E+01  0.10616846507E+02  0.00000000000E+00 0.  1.
</event>
<event>
 8    1  0.1615837E-013  0.9118800E+02  0.7816164E-02  0.1184000E+00
        -11   -1    0    0    0    0  0.00000000000E+00  0.00000000000E+00  0.45593999997E+02  0.45594000000E+02  0.51100000000E-03 0. -1.
         11   -1    0    0    0    0 -0.00000000000E+00 -0.00000000000E+00 -0.45593999997E+02  0.45594000000E+02  0.51100000000E-03 0.  1.
         23    2    1    2    0    0  0.00000000000E+00 -0.88817841970E-15 -0.71054273576E-14  0.91188000000E+02  0.91188000000E+02 0.  0.
    9900012    2    3    3    0    0  0.77077236130E+01  0.67639108186E+01 -0.39344708232E+02  0.50528861314E+02  0.30000004449E+02 0.  0.
         12    1    3    3    0    0 -0.77077236130E+01 -0.67639108186E+01  0.39344708232E+02  0.40659138686E+02  0.00000000000E+00 0. -1.
         11    1    4    4    0    0 -0.65109400366E+01  0.61372700350E+00 -0.94708270700E+00  0.66080229199E+01  0.51100000000E-03 0. -1.
        -11    1    4    4    0    0  0.20503363806E+01  0.85630479070E+01 -0.18194664614E+02  0.20213250343E+02  0.51100000000E-03 0.  1.
         12    1    4    4    0    0  0.12168327269E+02 -0.24128640920E+01 -0.20202960911E+02  0.23707588051E+02  0.00000000000E+00 0. -1.
</event>
<event>
 8    1  0.1615837E-013  0.9118800E+02  0.7816164E-02  0.1184000E+00
        -11   -1    0    0    0    0  0.00000000000E+00  0.00000000000E+00  0.45593999997E+02  0.45594000000E+02  0.51100000000E-03 0.  1.
         11   -1    0    0    0    0 -0.00000000000E+00 -0.00000000000E+00 -0.45593999997E+02  0.45594000000E+02  0.51100000000E-03 0. -1.
         23    2    1    2    0    0  0.35527136788E-14  0.00000000000E+00  0.44408920985E-15  0.91188000000E+02  0.91188000000E+02 0.  0.
    9900012    2    3    3    0    0  0.24615326957E+02  0.32346069878E+02 -0.99110057368E+00  0.50528870176E+02  0.30000031386E+02 0.  0.
        -12    1    3    3    0    0 -0.24615326957E+02 -0.32346069878E+02  0.99110057368E+00  0.40659129824E+02  0.00000000000E+00 0.  1.
         11    1    4    4    0    0  0.11874059701E+02  0.69637995432E+01 -0.28416004754E+01  0.14055692490E+02  0.51100000000E-03 0. -1.
        -11    1    4    4    0    0  0.40474499267E+01 -0.34264781969E+01 -0.28434843318E+01  0.60173089624E+01  0.51100000000E-03 0.  1.
         12    1    4    4    0    0  0.86938173291E+01  0.28808748531E+02  0.46939842335E+01  0.30455868723E+02  0.00000000000E+00 0. -1.
</event>
<event>
 8    1  0.1615837E-013  0.9118800E+02  0.7816164E-02  0.1184000E+00
        -11   -1    0    0    0    0  0.00000000000E+00  0.00000000000E+00  0.45593999997E+02  0.45594000000E+02  0.51100000000E-03 0. -1.
         11   -1    0    0    0    0 -0.00000000000E+00 -0.00000000000E+00 -0.45593999997E+02  0.45594000000E+02  0.51100000000E-03 0.  1.
         23    2    1    2    0    0 -0.35527136788E-14  0.00000000000E+00 -0.35527136788E-14  0.91188000000E+02  0.91188000000E+02 0.  0.
    9900012    2    3    3    0    0  0.30820172648E+02  0.17941956532E+02  0.19528663243E+02  0.50528861614E+02  0.30000005362E+02 0.  0.
        -12    1    3    3    0    0 -0.30820172648E+02 -0.17941956532E+02 -0.19528663243E+02  0.40659138386E+02  0.00000000000E+00 0.  1.
         11    1    4    4    0    0  0.20444848595E+02  0.22766893262E+00  0.16525543314E+01  0.20512791212E+02  0.51100000000E-03 0. -1.
        -11    1    4    4    0    0  0.53610328102E+01  0.21134579340E+01 -0.41180215305E-02  0.57625857434E+01  0.51100000000E-03 0.  1.
        -12    1    4    4    0    0  0.50142912427E+01  0.15600829665E+02  0.17880226933E+02  0.24253484659E+02  0.00000000000E+00 0.  1.
</event>
<event>
 8    1  0.1615837E-013  0.9118800E+02  0.7816164E-02  0.1184000E+00
        -11   -1    0    0    0    0  0.00000000000E+00  0.00000000000E+00  0.45593999997E+02  0.45594000000E+02  0.51100000000E-03 0. -1.
         11   -1    0    0    0    0 -0.00000000000E+00 -0.00000000000E+00 -0.45593999997E+02  0.45594000000E+02  0.51100000000E-03 0.  1.
         23    2    1    2    0    0  0.35527136788E-14 -0.88817841970E-15 -0.71054273576E-14  0.91188000000E+02  0.91188000000E+02 0.  0.
    9900012    2    3    3    0    0 -0.17670682145E+02 -0.38563676806E+01  0.36414820916E+02  0.50528883415E+02  0.30000071627E+02 0.  0.
        -12    1    3    3    0    0  0.17670682145E+02  0.38563676806E+01 -0.36414820916E+02  0.40659116585E+02  0.00000000000E+00 0.  1.
         11    1    4    4    0    0 -0.86250603476E+01  0.82550542400E+01  0.21321522323E+02  0.24436548466E+02  0.51100000000E-03 0. -1.
        -11    1    4    4    0    0 -0.40638529949E+01 -0.34261063726E+00 -0.21650930830E+01  0.46173489723E+01  0.51100000000E-03 0.  1.
         12    1    4    4    0    0 -0.49817688022E+01 -0.11768811283E+02  0.17258391676E+02  0.21474985976E+02  0.00000000000E+00 0. -1.
</event>
<event>
 8    1  0.1615837E-013  0.9118800E+02  0.7816164E-02  0.1184000E+00
        -11   -1    0    0    0    0  0.00000000000E+00  0.00000000000E+00  0.45593999997E+02  0.45594000000E+02  0.51100000000E-03 0.  1.
         11   -1    0    0    0    0 -0.00000000000E+00 -0.00000000000E+00 -0.45593999997E+02  0.45594000000E+02  0.51100000000E-03 0. -1.
         23    2    1    2    0    0 -0.35527136788E-14 -0.35527136788E-14  0.15543122345E-14  0.91188000000E+02  0.91188000000E+02 0.  0.
    9900012    2    3    3    0    0  0.31044975398E+02  0.26185918226E+02 -0.19165215558E+01  0.50528857539E+02  0.29999992975E+02 0.  0.
         12    1    3    3    0    0 -0.31044975398E+02 -0.26185918226E+02  0.19165215558E+01  0.40659142461E+02  0.00000000000E+00 0. -1.
         11    1    4    4    0    0  0.78171295873E+01  0.24457603831E+01  0.21728587633E+01  0.84741120067E+01  0.51100000000E-03 0. -1.
        -11    1    4    4    0    0  0.23132682215E+02  0.19683348323E+02  0.61948390711E+01  0.30998890610E+02  0.51100000000E-03 0.  1.
         12    1    4    4    0    0  0.95163595585E-01  0.40568095200E+01 -0.10284219390E+02  0.11055854922E+02  0.00000000000E+00 0. -1.
</event>
<event>
 8    1  0.1615837E-013  0.9118800E+02  0.7816164E-02  0.1184000E+00
        -11   -1    0    0    0    0  0.00000000000E+00  0.00000000000E+00  0.45593999997E+02  0.45594000000E+02  0.51100000000E-03 0. -1.
         11   -1    0    0    0    0 -0.00000000000E+00 -0.00000000000E+00 -0.45593999997E+02  0.45594000000E+02  0.51100000000E-03 0.  1.
         23    2    1    2    0    0  0.17763568394E-14 -0.35527136788E-14  0.35527136788E-14  0.91188000000E+02  0.91188000000E+02 0.  0.
    9900012    2    3    3    0    0  0.12010222823E+02 -0.30715865619E+02  0.23779267686E+02  0.50528887557E+02  0.30000084218E+02 0.  0.
        -12    1    3    3    0    0 -0.12010222823E+02  0.30715865619E+02 -0.23779267686E+02  0.40659112443E+02  0.00000000000E+00 0.  1.
         11    1    4    4    0    0  0.26564058706E+01 -0.55841720300E+01  0.10859797854E+02  0.12496986801E+02  0.51100000000E-03 0. -1.
        -11    1    4    4    0    0 -0.48673202706E+00 -0.64491030921E+01  0.15465361607E+02  0.16763211168E+02  0.51100000000E-03 0.  1.
         12    1    4    4    0    0  0.98405489798E+01 -0.18682590497E+02 -0.25458917749E+01  0.21268689589E+02  0.00000000000E+00 0. -1.
</event>
<event>
 8    1  0.1615837E-013  0.9118800E+02  0.7816164E-02  0.1184000E+00
        -11   -1    0    0    0    0  0.00000000000E+00  0.00000000000E+00  0.45593999997E+02  0.45594000000E+02  0.51100000000E-03 0. -1.
         11   -1    0    0    0    0 -0.00000000000E+00 -0.00000000000E+00 -0.45593999997E+02  0.45594000000E+02  0.51100000000E-03 0.  1.
         23    2    1    2    0    0  0.88817841970E-15  0.00000000000E+00  0.00000000000E+00  0.91188000000E+02  0.91188000000E+02 0.  0.
    9900012    2    3    3    0    0  0.44135132554E+01 -0.33585578892E+02 -0.22487674367E+02  0.50528859488E+02  0.29999998900E+02 0.  0.
         12    1    3    3    0    0 -0.44135132554E+01  0.33585578892E+02  0.22487674367E+02  0.40659140512E+02  0.00000000000E+00 0. -1.
         11    1    4    4    0    0  0.17436647168E+01 -0.40491010758E+01  0.34181219776E+01  0.55784535744E+01  0.51100000000E-03 0. -1.
        -11    1    4    4    0    0 -0.16828385173E+01  0.31993941397E+01 -0.16389810667E+01  0.39691721473E+01  0.51100000000E-03 0.  1.
        -12    1    4    4    0    0  0.43526870559E+01 -0.32735871956E+02 -0.24266815278E+02  0.40981233766E+02  0.00000000000E+00 0.  1.
</event>
<event>
 8    1  0.1615837E-013  0.9118800E+02  0.7816164E-02  0.1184000E+00
        -11   -1    0    0    0    0  0.00000000000E+00  0.00000000000E+00  0.45593999997E+02  0.45594000000E+02  0.51100000000E-03 0. -1.
         11   -1    0    0    0    0 -0.00000000000E+00 -0.00000000000E+00 -0.45593999997E+02  0.45594000000E+02  0.51100000000E-03 0.  1.
         23    2    1    2    0    0  0.00000000000E+00 -0.17763568394E-14 -0.35527136788E-14  0.91188000000E+02  0.91188000000E+02 0.  0.
    9900012    2    3    3    0    0 -0.34568430984E+02 -0.83794128119E+01 -0.19697074176E+02  0.50528859443E+02  0.29999998762E+02 0.  0.
         12    1    3    3    0    0  0.34568430984E+02  0.83794128119E+01  0.19697074176E+02  0.40659140557E+02  0.00000000000E+00 0. -1.
         11    1    4    4    0    0 -0.10132116072E+02 -0.17041548355E+01 -0.12174732506E+02  0.15930726024E+02  0.51100000000E-03 0. -1.
        -11    1    4    4    0    0 -0.99089933274E+01 -0.40497986506E+01 -0.14698772008E+02  0.18183589213E+02  0.51100000000E-03 0.  1.
         12    1    4    4    0    0 -0.14527321584E+02 -0.26254593257E+01  0.71764303377E+01  0.16414544206E+02  0.00000000000E+00 0. -1.
</event>
<event>
 8    1  0.1615837E-013  0.9118800E+02  0.7816164E-02  0.1184000E+00
        -11   -1    0    0    0    0  0.00000000000E+00  0.00000000000E+00  0.45593999997E+02  0.45594000000E+02  0.51100000000E-03 0. -1.
         11   -1    0    0    0    0 -0.00000000000E+00 -0.00000000000E+00 -0.45593999997E+02  0.45594000000E+02  0.51100000000E-03 0.  1.
         23    2    1    2    0    0  0.35527136788E-14  0.00000000000E+00 -0.35527136788E-14  0.91188000000E+02  0.91188000000E+02 0.  0.
    9900012    2    3    3    0    0  0.22757200717E+02  0.12906370004E+02  0.31123962454E+02  0.50528860684E+02  0.30000002534E+02 0.  0.
        -12    1    3    3    0    0 -0.22757200717E+02 -0.12906370004E+02 -0.31123962454E+02  0.40659139316E+02  0.00000000000E+00 0.  1.
         11    1    4    4    0    0  0.22119152704E+02  0.14651506660E+02  0.26598090137E+02  0.37568363857E+02  0.51100000000E-03 0. -1.
        -11    1    4    4    0    0 -0.26365891716E+01  0.12236889460E+01  0.72206286833E+01  0.77837327768E+01  0.51100000000E-03 0.  1.
        -12    1    4    4    0    0  0.32746371847E+01 -0.29688256025E+01 -0.26947563664E+01  0.51767640494E+01  0.00000000000E+00 0.  1.
</event>
<event>
 8    1  0.1615837E-013  0.9118800E+02  0.7816164E-02  0.1184000E+00
        -11   -1    0    0    0    0  0.00000000000E+00  0.00000000000E+00  0.45593999997E+02  0.45594000000E+02  0.51100000000E-03 0. -1.
         11   -1    0    0    0    0 -0.00000000000E+00 -0.00000000000E+00 -0.45593999997E+02  0.45594000000E+02  0.51100000000E-03 0.  1.
         23    2    1    2    0    0  0.00000000000E+00  0.00000000000E+00 -0.35527136788E-14  0.91188000000E+02  0.91188000000E+02 0.  0.
    9900012    2    3    3    0    0  0.62061238341E+01  0.35964458566E+02  0.17922239068E+02  0.50528869338E+02  0.30000028840E+02 0.  0.
        -12    1    3    3    0    0 -0.62061238341E+01 -0.35964458566E+02 -0.17922239068E+02  0.40659130662E+02  0.00000000000E+00 0.  1.
         11    1    4    4    0    0  0.44044825948E+01  0.83996567536E+01  0.12928754359E+01  0.95721067514E+01  0.51100000000E-03 0.  1.
        -11    1    4    4    0    0  0.90548229706E+01  0.22868675959E+02  0.19980547471E+02  0.31688932400E+02  0.51100000000E-03 0. -1.
         12    1    4    4    0    0 -0.72531817313E+01  0.46961258527E+01 -0.33511838380E+01  0.92678301866E+01  0.00000000000E+00 0. -1.
</event>
<event>
 8    1  0.1615837E-013  0.9118800E+02  0.7816164E-02  0.1184000E+00
        -11   -1    0    0    0    0  0.00000000000E+00  0.00000000000E+00  0.45593999997E+02  0.45594000000E+02  0.51100000000E-03 0. -1.
         11   -1    0    0    0    0 -0.00000000000E+00 -0.00000000000E+00 -0.45593999997E+02  0.45594000000E+02  0.51100000000E-03 0.  1.
         23    2    1    2    0    0 -0.35527136788E-14  0.35527136788E-14  0.00000000000E+00  0.91188000000E+02  0.91188000000E+02 0.  0.
    9900012    2    3    3    0    0 -0.23966274005E+02  0.21745597495E+02 -0.24615286561E+02  0.50528860406E+02  0.30000001689E+02 0.  0.
         12    1    3    3    0    0  0.23966274005E+02 -0.21745597495E+02  0.24615286561E+02  0.40659139594E+02  0.00000000000E+00 0. -1.
         11    1    4    4    0    0  0.29958362432E+01  0.15821683303E+01  0.13035391525E+01  0.36300834708E+01  0.51100000000E-03 0. -1.
        -11    1    4    4    0    0 -0.75780134464E+01  0.20412820597E+01 -0.17302198109E+02  0.18998925756E+02  0.51100000000E-03 0.  1.
        -12    1    4    4    0    0 -0.19384096801E+02  0.18122147105E+02 -0.86166276047E+01  0.27899851178E+02  0.00000000000E+00 0.  1.
</event>
<event>
 8    1  0.1615837E-013  0.9118800E+02  0.7816164E-02  0.1184000E+00
        -11   -1    0    0    0    0  0.00000000000E+00  0.00000000000E+00  0.45593999997E+02  0.45594000000E+02  0.51100000000E-03 0. -1.
         11   -1    0    0    0    0 -0.00000000000E+00 -0.00000000000E+00 -0.45593999997E+02  0.45594000000E+02  0.51100000000E-03 0.  1.
         23    2    1    2    0    0  0.35527136788E-14  0.35527136788E-14 -0.35527136788E-14  0.91188000000E+02  0.91188000000E+02 0.  0.
    9900012    2    3    3    0    0 -0.91331393884E+01 -0.31736068184E+02  0.23718649571E+02  0.50528848554E+02  0.29999965665E+02 0.  0.
        -12    1    3    3    0    0  0.91331393884E+01  0.31736068184E+02 -0.23718649571E+02  0.40659151446E+02  0.00000000000E+00 0.  1.
         11    1    4    4    0    0 -0.14192956371E+01 -0.39903588191E+01  0.76663549534E+01  0.87584451898E+01  0.51100000000E-03 0. -1.
        -11    1    4    4    0    0 -0.15151430342E+02 -0.25322884741E+02  0.16724410895E+02  0.33919319761E+02  0.51100000000E-03 0.  1.
        -12    1    4    4    0    0  0.74375865910E+01 -0.24228246239E+01 -0.67211627688E+00  0.78510836034E+01  0.00000000000E+00 0.  1.
</event>
<event>
 8    1  0.1615837E-013  0.9118800E+02  0.7816164E-02  0.1184000E+00
        -11   -1    0    0    0    0  0.00000000000E+00  0.00000000000E+00  0.45593999997E+02  0.45594000000E+02  0.51100000000E-03 0.  1.
         11   -1    0    0    0    0 -0.00000000000E+00 -0.00000000000E+00 -0.45593999997E+02  0.45594000000E+02  0.51100000000E-03 0. -1.
         23    2    1    2    0    0  0.00000000000E+00  0.35527136788E-14 -0.17763568394E-14  0.91188000000E+02  0.91188000000E+02 0.  0.
    9900012    2    3    3    0    0 -0.28553248285E+02 -0.28194805577E+02  0.65521768708E+01  0.50528855016E+02  0.29999985305E+02 0.  0.
         12    1    3    3    0    0  0.28553248285E+02  0.28194805577E+02 -0.65521768708E+01  0.40659144984E+02  0.00000000000E+00 0. -1.
         11    1    4    4    0    0 -0.78923831898E+01 -0.13812674009E+02  0.50232123428E+00  0.15916406711E+02  0.51100000000E-03 0. -1.
        -11    1    4    4    0    0 -0.23473320538E+02 -0.59591572038E+01  0.80295312454E+01  0.25514343103E+02  0.51100000000E-03 0.  1.
         12    1    4    4    0    0  0.28124554434E+01 -0.84229743636E+01 -0.19796756089E+01  0.90981052021E+01  0.00000000000E+00 0. -1.
</event>
<event>
 8    1  0.1615837E-013  0.9118800E+02  0.7816164E-02  0.1184000E+00
        -11   -1    0    0    0    0  0.00000000000E+00  0.00000000000E+00  0.45593999997E+02  0.45594000000E+02  0.51100000000E-03 0. -1.
         11   -1    0    0    0    0 -0.00000000000E+00 -0.00000000000E+00 -0.45593999997E+02  0.45594000000E+02  0.51100000000E-03 0.  1.
         23    2    1    2    0    0  0.00000000000E+00  0.00000000000E+00  0.00000000000E+00  0.91188000000E+02  0.91188000000E+02 0.  0.
    9900012    2    3    3    0    0  0.38524026542E+02  0.21216416261E+01 -0.12828258337E+02  0.50528853475E+02  0.29999980621E+02 0.  0.
         12    1    3    3    0    0 -0.38524026542E+02 -0.21216416261E+01  0.12828258337E+02  0.40659146525E+02  0.00000000000E+00 0. -1.
         11    1    4    4    0    0 -0.37781136402E+01  0.35301577432E+01 -0.28469942878E+01  0.59026716923E+01  0.51100000000E-03 0.  1.
        -11    1    4    4    0    0  0.19821593840E+01 -0.24509700187E+01 -0.47712459219E+00  0.31880806128E+01  0.51100000000E-03 0. -1.
        -12    1    4    4    0    0  0.40319980798E+02  0.10424539017E+01 -0.95041394571E+01  0.41438101170E+02  0.00000000000E+00 0.  1.
</event>
<event>
 8    1  0.1615837E-013  0.9118800E+02  0.7816164E-02  0.1184000E+00
        -11   -1    0    0    0    0  0.00000000000E+00  0.00000000000E+00  0.45593999997E+02  0.45594000000E+02  0.51100000000E-03 0. -1.
         11   -1    0    0    0    0 -0.00000000000E+00 -0.00000000000E+00 -0.45593999997E+02  0.45594000000E+02  0.51100000000E-03 0.  1.
         23    2    1    2    0    0  0.00000000000E+00  0.00000000000E+00  0.00000000000E+00  0.91188000000E+02  0.91188000000E+02 0.  0.
    9900012    2    3    3    0    0  0.95311026419E+01 -0.37666602301E+02 -0.11981198244E+02  0.50528881000E+02  0.30000064288E+02 0.  0.
         12    1    3    3    0    0 -0.95311026419E+01  0.37666602301E+02  0.11981198244E+02  0.40659119000E+02  0.00000000000E+00 0. -1.
         11    1    4    4    0    0 -0.45559321892E+01 -0.29326266729E+01  0.54833529876E+01  0.77086949326E+01  0.51100000000E-03 0. -1.
        -11    1    4    4    0    0  0.67314544167E+01 -0.49024756060E+01 -0.28998512955E+01  0.88179296566E+01  0.51100000000E-03 0.  1.
        -12    1    4    4    0    0  0.73555804143E+01 -0.29831500022E+02 -0.14564699936E+02  0.34002256411E+02  0.00000000000E+00 0.  1.
</event>
<event>
 8    1  0.1831889E-013  0.9118800E+02  0.7816164E-02  0.1184000E+00
        -11   -1    0    0    0    0  0.00000000000E+00  0.00000000000E+00  0.45593999997E+02  0.45594000000E+02  0.51100000000E-03 0. -1.
         11   -1    0    0    0    0 -0.00000000000E+00 -0.00000000000E+00 -0.45593999997E+02  0.45594000000E+02  0.51100000000E-03 0.  1.
         23    2    1    2    0    0  0.00000000000E+00  0.88817841970E-15  0.00000000000E+00  0.91188000000E+02  0.91188000000E+02 0.  0.
    9900012    2    3    3    0    0 -0.30209384465E+02 -0.26533319205E+01  0.27083551047E+02  0.50528858133E+02  0.29999994780E+02 0.  0.
        -12    1    3    3    0    0  0.30209384465E+02  0.26533319205E+01 -0.27083551047E+02  0.40659141867E+02  0.00000000000E+00 0.  1.
         11    1    4    4    0    0 -0.21008869988E+02  0.84857951654E+01  0.13929751470E+02  0.26597355395E+02  0.51100000000E-03 0. -1.
        -11    1    4    4    0    0 -0.86961713980E+01 -0.71784513240E+01  0.15600253210E+02  0.19248934019E+02  0.51100000000E-03 0.  1.
        -12    1    4    4    0    0 -0.50434307912E+00 -0.39606757619E+01 -0.24464536319E+01  0.46825687187E+01  0.00000000000E+00 0.  1.
</event>
<event>
 8    1  0.1615837E-013  0.9118800E+02  0.7816164E-02  0.1184000E+00
        -11   -1    0    0    0    0  0.00000000000E+00  0.00000000000E+00  0.45593999997E+02  0.45594000000E+02  0.51100000000E-03 0.  1.
         11   -1    0    0    0    0 -0.00000000000E+00 -0.00000000000E+00 -0.45593999997E+02  0.45594000000E+02  0.51100000000E-03 0. -1.
         23    2    1    2    0    0  0.35527136788E-14  0.00000000000E+00  0.35527136788E-14  0.91188000000E+02  0.91188000000E+02 0.  0.
    9900012    2    3    3    0    0 -0.24332372699E+02  0.10672169453E+02 -0.30776716732E+02  0.50528857673E+02  0.29999993382E+02 0.  0.
         12    1    3    3    0    0  0.24332372699E+02 -0.10672169453E+02  0.30776716732E+02  0.40659142327E+02  0.00000000000E+00 0. -1.
         11    1    4    4    0    0 -0.17633848510E+02  0.32329607475E+01 -0.22070996263E+01  0.18063109851E+02  0.51100000000E-03 0. -1.
        -11    1    4    4    0    0 -0.87518631702E+01  0.16428021672E+01 -0.13313880713E+02  0.16017282161E+02  0.51100000000E-03 0.  1.
         12    1    4    4    0    0  0.20533389813E+01  0.57964065388E+01 -0.15255736392E+02  0.16448465661E+02  0.00000000000E+00 0. -1.
</event>
<event>
 8    1  0.1615837E-013  0.9118800E+02  0.7816164E-02  0.1184000E+00
        -11   -1    0    0    0    0  0.00000000000E+00  0.00000000000E+00  0.45593999997E+02  0.45594000000E+02  0.51100000000E-03 0. -1.
         11   -1    0    0    0    0 -0.00000000000E+00 -0.00000000000E+00 -0.45593999997E+02  0.45594000000E+02  0.51100000000E-03 0.  1.
         23    2    1    2    0    0  0.44408920985E-15  0.17763568394E-14  0.00000000000E+00  0.91188000000E+02  0.91188000000E+02 0.  0.
    9900012    2    3    3    0    0 -0.31777087510E+01 -0.12291219085E+02  0.38626350293E+02  0.50528845601E+02  0.29999956689E+02 0.  0.
        -12    1    3    3    0    0  0.31777087510E+01  0.12291219085E+02 -0.38626350293E+02  0.40659154399E+02  0.00000000000E+00 0.  1.
         11    1    4    4    0    0 -0.27580443089E+01  0.34359812028E+00 -0.19957944651E+01  0.34217048216E+01  0.51100000000E-03 0. -1.
        -11    1    4    4    0    0  0.35261496119E+01  0.39666611412E+01  0.38129429274E+01  0.65350337201E+01  0.51100000000E-03 0.  1.
         12    1    4    4    0    0 -0.39458140541E+01 -0.16601478347E+02  0.36809201830E+02  0.40572107059E+02  0.00000000000E+00 0. -1.
</event>
<event>
 8    1  0.1615837E-013  0.9118800E+02  0.7816164E-02  0.1184000E+00
        -11   -1    0    0    0    0  0.00000000000E+00  0.00000000000E+00  0.45593999997E+02  0.45594000000E+02  0.51100000000E-03 0. -1.
         11   -1    0    0    0    0 -0.00000000000E+00 -0.00000000000E+00 -0.45593999997E+02  0.45594000000E+02  0.51100000000E-03 0.  1.
         23    2    1    2    0    0  0.35527136788E-14  0.00000000000E+00  0.00000000000E+00  0.91188000000E+02  0.91188000000E+02 0.  0.
    9900012    2    3    3    0    0 -0.17596150641E+02 -0.13358807447E+02 -0.34133321223E+02  0.50528857468E+02  0.29999992758E+02 0.  0.
         12    1    3    3    0    0  0.17596150641E+02  0.13358807447E+02  0.34133321223E+02  0.40659142532E+02  0.00000000000E+00 0. -1.
         11    1    4    4    0    0 -0.67839171965E+01  0.19097962001E+01 -0.30822795317E+01  0.76921584375E+01  0.51100000000E-03 0. -1.
        -11    1    4    4    0    0 -0.16249205989E+02 -0.38357605108E+01 -0.19802503389E+02  0.25901523019E+02  0.51100000000E-03 0.  1.
        -12    1    4    4    0    0  0.54369725436E+01 -0.11432843136E+02 -0.11248538301E+02  0.16935176011E+02  0.00000000000E+00 0.  1.
</event>
<event>
 8    1  0.1615837E-013  0.9118800E+02  0.7816164E-02  0.1184000E+00
        -11   -1    0    0    0    0  0.00000000000E+00  0.00000000000E+00  0.45593999997E+02  0.45594000000E+02  0.51100000000E-03 0. -1.
         11   -1    0    0    0    0 -0.00000000000E+00 -0.00000000000E+00 -0.45593999997E+02  0.45594000000E+02  0.51100000000E-03 0.  1.
         23    2    1    2    0    0  0.00000000000E+00 -0.44408920985E-15  0.00000000000E+00  0.91188000000E+02  0.91188000000E+02 0.  0.
    9900012    2    3    3    0    0 -0.23607789308E+02 -0.22718442355E+01  0.33025405534E+02  0.50528850933E+02  0.29999972895E+02 0.  0.
        -12    1    3    3    0    0  0.23607789308E+02  0.22718442355E+01 -0.33025405534E+02  0.40659149067E+02  0.00000000000E+00 0.  1.
         11    1    4    4    0    0 -0.12621423566E+02  0.64912044505E+01  0.29596242684E+02  0.32823370475E+02  0.51100000000E-03 0. -1.
        -11    1    4    4    0    0  0.13774612375E+01 -0.35984417955E+01  0.16393273662E+01  0.41873114634E+01  0.51100000000E-03 0.  1.
        -12    1    4    4    0    0 -0.12363826979E+02 -0.51646068905E+01  0.17898354834E+01  0.13518168994E+02  0.00000000000E+00 0.  1.
</event>
<event>
 8    1  0.1615837E-013  0.9118800E+02  0.7816164E-02  0.1184000E+00
        -11   -1    0    0    0    0  0.00000000000E+00  0.00000000000E+00  0.45593999997E+02  0.45594000000E+02  0.51100000000E-03 0.  1.
         11   -1    0    0    0    0 -0.00000000000E+00 -0.00000000000E+00 -0.45593999997E+02  0.45594000000E+02  0.51100000000E-03 0. -1.
         23    2    1    2    0    0 -0.71054273576E-14 -0.44408920985E-15  0.17763568394E-14  0.91188000000E+02  0.91188000000E+02 0.  0.
    9900012    2    3    3    0    0 -0.39487566023E+02  0.27081104752E+01  0.93039880049E+01  0.50528856802E+02  0.29999990737E+02 0.  0.
        -12    1    3    3    0    0  0.39487566023E+02 -0.27081104752E+01 -0.93039880049E+01  0.40659143198E+02  0.00000000000E+00 0.  1.
         11    1    4    4    0    0 -0.27563330469E+02  0.94992336401E+01  0.93209406914E+01  0.30608047340E+02  0.51100000000E-03 0. -1.
        -11    1    4    4    0    0 -0.18081859000E+01  0.23920036199E+01  0.46071371595E+01  0.54969928719E+01  0.51100000000E-03 0.  1.
         12    1    4    4    0    0 -0.10116049654E+02 -0.91831267849E+01 -0.46240898460E+01  0.14423816591E+02  0.00000000000E+00 0. -1.
</event>
<event>
 8    1  0.1615837E-013  0.9118800E+02  0.7816164E-02  0.1184000E+00
        -11   -1    0    0    0    0  0.00000000000E+00  0.00000000000E+00  0.45593999997E+02  0.45594000000E+02  0.51100000000E-03 0. -1.
         11   -1    0    0    0    0 -0.00000000000E+00 -0.00000000000E+00 -0.45593999997E+02  0.45594000000E+02  0.51100000000E-03 0.  1.
         23    2    1    2    0    0  0.00000000000E+00  0.88817841970E-15 -0.71054273576E-14  0.91188000000E+02  0.91188000000E+02 0.  0.
    9900012    2    3    3    0    0 -0.37292024987E+01  0.73981669811E+01  0.39806100588E+02  0.50528862405E+02  0.30000007765E+02 0.  0.
        -12    1    3    3    0    0  0.37292024987E+01 -0.73981669811E+01 -0.39806100588E+02  0.40659137595E+02  0.00000000000E+00 0.  1.
         11    1    4    4    0    0 -0.14356327814E+01  0.49538892270E+01  0.16976251908E+01  0.54299163443E+01  0.51100000000E-03 0. -1.
        -11    1    4    4    0    0 -0.22199944908E+01  0.12551777492E+02  0.28188835900E+02  0.30936805967E+02  0.51100000000E-03 0.  1.
         12    1    4    4    0    0 -0.73575226468E-01 -0.10107499738E+02  0.99196394973E+01  0.14162140094E+02  0.00000000000E+00 0. -1.
</event>
<event>
 8    1  0.1664922E-013  0.9118800E+02  0.7816164E-02  0.1184000E+00
        -11   -1    0    0    0    0  0.00000000000E+00  0.00000000000E+00  0.45593999997E+02  0.45594000000E+02  0.51100000000E-03 0. -1.
         11   -1    0    0    0    0 -0.00000000000E+00 -0.00000000000E+00 -0.45593999997E+02  0.45594000000E+02  0.51100000000E-03 0.  1.
         23    2    1    2    0    0  0.00000000000E+00  0.00000000000E+00 -0.35527136788E-14  0.91188000000E+02  0.91188000000E+02 0.  0.
    9900012    2    3    3    0    0  0.25249780654E+02  0.11285550240E+02  0.29803538263E+02  0.50528856376E+02  0.29999989440E+02 0.  0.
        -12    1    3    3    0    0 -0.25249780654E+02 -0.11285550240E+02 -0.29803538263E+02  0.40659143624E+02  0.00000000000E+00 0.  1.
         11    1    4    4    0    0  0.91922958017E+01  0.32052263727E+01  0.17230095228E+02  0.19790097525E+02  0.51100000000E-03 0. -1.
        -11    1    4    4    0    0  0.37427395679E+01 -0.39022357170E+01  0.12430744233E+02  0.13555771667E+02  0.51100000000E-03 0.  1.
        -12    1    4    4    0    0  0.12314745284E+02  0.11982559584E+02  0.14269880201E+00  0.17182987183E+02  0.00000000000E+00 0.  1.
</event>
<event>
 8    1  0.1615837E-013  0.9118800E+02  0.7816164E-02  0.1184000E+00
        -11   -1    0    0    0    0  0.00000000000E+00  0.00000000000E+00  0.45593999997E+02  0.45594000000E+02  0.51100000000E-03 0. -1.
         11   -1    0    0    0    0 -0.00000000000E+00 -0.00000000000E+00 -0.45593999997E+02  0.45594000000E+02  0.51100000000E-03 0.  1.
         23    2    1    2    0    0  0.00000000000E+00  0.71054273576E-14  0.71054273576E-14  0.91188000000E+02  0.91188000000E+02 0.  0.
    9900012    2    3    3    0    0  0.38534368717E+01  0.32194566261E+02  0.24532166648E+02  0.50528852531E+02  0.29999977754E+02 0.  0.
        -12    1    3    3    0    0 -0.38534368717E+01 -0.32194566261E+02 -0.24532166648E+02  0.40659147469E+02  0.00000000000E+00 0.  1.
         11    1    4    4    0    0 -0.26913889495E+01  0.15745920054E+02  0.12745048177E+02  0.20435601927E+02  0.51100000000E-03 0. -1.
        -11    1    4    4    0    0  0.23522582382E+01 -0.57562713817E+00  0.12316517890E+02  0.12552333593E+02  0.51100000000E-03 0.  1.
         12    1    4    4    0    0  0.41925675830E+01  0.17024273345E+02 -0.52939941955E+00  0.17540917012E+02  0.00000000000E+00 0. -1.
</event>
<event>
 8    1  0.1615837E-013  0.9118800E+02  0.7816164E-02  0.1184000E+00
        -11   -1    0    0    0    0  0.00000000000E+00  0.00000000000E+00  0.45593999997E+02  0.45594000000E+02  0.51100000000E-03 0. -1.
         11   -1    0    0    0    0 -0.00000000000E+00 -0.00000000000E+00 -0.45593999997E+02  0.45594000000E+02  0.51100000000E-03 0.  1.
         23    2    1    2    0    0  0.00000000000E+00  0.88817841970E-15  0.35527136788E-14  0.91188000000E+02  0.91188000000E+02 0.  0.
    9900012    2    3    3    0    0 -0.29288732153E+02  0.68200281144E+01  0.27364628066E+02  0.50528862235E+02  0.30000007249E+02 0.  0.
        -12    1    3    3    0    0  0.29288732153E+02 -0.68200281144E+01 -0.27364628066E+02  0.40659137765E+02  0.00000000000E+00 0.  1.
         11    1    4    4    0    0 -0.63299602476E+01 -0.11788933968E+01 -0.29717188695E+01  0.70914948831E+01  0.51100000000E-03 0. -1.
        -11    1    4    4    0    0 -0.34433191158E+01  0.52097884797E+01 -0.10902751854E+01  0.63393251043E+01  0.51100000000E-03 0.  1.
         12    1    4    4    0    0 -0.19515452790E+02  0.27891330315E+01  0.31426622121E+02  0.37098042247E+02  0.00000000000E+00 0. -1.
</event>
<event>
 8    1  0.1615837E-013  0.9118800E+02  0.7816164E-02  0.1184000E+00
        -11   -1    0    0    0    0  0.00000000000E+00  0.00000000000E+00  0.45593999997E+02  0.45594000000E+02  0.51100000000E-03 0. -1.
         11   -1    0    0    0    0 -0.00000000000E+00 -0.00000000000E+00 -0.45593999997E+02  0.45594000000E+02  0.51100000000E-03 0.  1.
         23    2    1    2    0    0  0.00000000000E+00 -0.17763568394E-14  0.00000000000E+00  0.91188000000E+02  0.91188000000E+02 0.  0.
    9900012    2    3    3    0    0  0.25353148075E+01 -0.12458049171E+02 -0.38620403550E+02  0.50528851206E+02  0.29999973726E+02 0.  0.
         12    1    3    3    0    0 -0.25353148075E+01  0.12458049171E+02  0.38620403550E+02  0.40659148794E+02  0.00000000000E+00 0. -1.
         11    1    4    4    0    0  0.73917495465E+01 -0.28288416241E+01 -0.72903495007E+01  0.10760553071E+02  0.51100000000E-03 0. -1.
        -11    1    4    4    0    0  0.22111832141E+01 -0.50646453352E+01 -0.30850084806E+02  0.31341150208E+02  0.51100000000E-03 0.  1.
        -12    1    4    4    0    0 -0.70676179531E+01 -0.45645622114E+01 -0.47996924340E+00  0.84271479272E+01  0.00000000000E+00 0.  1.
</event>
<event>
 8    1  0.1615837E-013  0.9118800E+02  0.7816164E-02  0.1184000E+00
        -11   -1    0    0    0    0  0.00000000000E+00  0.00000000000E+00  0.45593999997E+02  0.45594000000E+02  0.51100000000E-03 0. -1.
         11   -1    0    0    0    0 -0.00000000000E+00 -0.00000000000E+00 -0.45593999997E+02  0.45594000000E+02  0.51100000000E-03 0.  1.
         23    2    1    2    0    0  0.17763568394E-14  0.35527136788E-14  0.00000000000E+00  0.91188000000E+02  0.91188000000E+02 0.  0.
    9900012    2    3    3    0    0  0.15334860082E+02  0.14857223785E+02  0.34601601864E+02  0.50528857315E+02  0.29999992295E+02 0.  0.
        -12    1    3    3    0    0 -0.15334860082E+02 -0.14857223785E+02 -0.34601601864E+02  0.40659142685E+02  0.00000000000E+00 0.  1.
         11    1    4    4    0    0  0.81551697028E+01  0.10878622496E+01  0.30813190746E+01  0.87854860227E+01  0.51100000000E-03 0. -1.
        -11    1    4    4    0    0 -0.13771395555E+01 -0.42712340347E+01  0.67773900520E-01  0.44882677168E+01  0.51100000000E-03 0.  1.
         12    1    4    4    0    0  0.85568299345E+01  0.18040595570E+02  0.31452508889E+02  0.37255103576E+02  0.00000000000E+00 0. -1.
</event>
<event>
 8    1  0.1615837E-013  0.9118800E+02  0.7816164E-02  0.1184000E+00
        -11   -1    0    0    0    0  0.00000000000E+00  0.00000000000E+00  0.45593999997E+02  0.45594000000E+02  0.51100000000E-03 0. -1.
         11   -1    0    0    0    0 -0.00000000000E+00 -0.00000000000E+00 -0.45593999997E+02  0.45594000000E+02  0.51100000000E-03 0.  1.
         23    2    1    2    0    0  0.00000000000E+00  0.00000000000E+00 -0.35527136788E-14  0.91188000000E+02  0.91188000000E+02 0.  0.
    9900012    2    3    3    0    0  0.35171092675E+02  0.86995670295E+01 -0.18452184625E+02  0.50528790171E+02  0.29999788203E+02 0.  0.
         12    1    3    3    0    0 -0.35171092675E+02 -0.86995670295E+01  0.18452184625E+02  0.40659209829E+02  0.00000000000E+00 0. -1.
         11    1    4    4    0    0  0.23656192307E+02  0.67652953267E+00 -0.19618894920E+02  0.30740432086E+02  0.51100000000E-03 0.  1.
        -11    1    4    4    0    0  0.28250843908E+01  0.57050714399E+01 -0.56432303761E+01  0.85073492516E+01  0.51100000000E-03 0. -1.
        -12    1    4    4    0    0  0.86898159777E+01  0.23179660569E+01  0.68099406708E+01  0.11281008834E+02  0.00000000000E+00 0.  1.
</event>
<event>
 8    1  0.1615837E-013  0.9118800E+02  0.7816164E-02  0.1184000E+00
        -11   -1    0    0    0    0  0.00000000000E+00  0.00000000000E+00  0.45593999997E+02  0.45594000000E+02  0.51100000000E-03 0. -1.
         11   -1    0    0    0    0 -0.00000000000E+00 -0.00000000000E+00 -0.45593999997E+02  0.45594000000E+02  0.51100000000E-03 0.  1.
         23    2    1    2    0    0 -0.17763568394E-14  0.35527136788E-14  0.00000000000E+00  0.91188000000E+02  0.91188000000E+02 0.  0.
    9900012    2    3    3    0    0  0.15482866316E+02 -0.17023234226E+02 -0.33520977177E+02  0.50528861252E+02  0.30000004260E+02 0.  0.
         12    1    3    3    0    0 -0.15482866316E+02  0.17023234226E+02  0.33520977177E+02  0.40659138748E+02  0.00000000000E+00 0. -1.
         11    1    4    4    0    0  0.15167675638E+02 -0.89911460059E+01 -0.18478294037E+02  0.25541073618E+02  0.51100000000E-03 0. -1.
        -11    1    4    4    0    0  0.35844713535E+01 -0.12458773715E+02 -0.57372818559E+01  0.14176948922E+02  0.51100000000E-03 0.  1.
        -12    1    4    4    0    0 -0.32692806758E+01  0.44266854951E+01 -0.93054012839E+01  0.10810838712E+02  0.00000000000E+00 0.  1.
</event>
<event>
 8    1  0.1615837E-013  0.9118800E+02  0.7816164E-02  0.1184000E+00
        -11   -1    0    0    0    0  0.00000000000E+00  0.00000000000E+00  0.45593999997E+02  0.45594000000E+02  0.51100000000E-03 0. -1.
         11   -1    0    0    0    0 -0.00000000000E+00 -0.00000000000E+00 -0.45593999997E+02  0.45594000000E+02  0.51100000000E-03 0.  1.
         23    2    1    2    0    0  0.00000000000E+00  0.17763568394E-14  0.00000000000E+00  0.91188000000E+02  0.91188000000E+02 0.  0.
    9900012    2    3    3    0    0  0.27619182277E+02  0.15847982957E+02 -0.25282142081E+02  0.50528874313E+02  0.30000043961E+02 0.  0.
         12    1    3    3    0    0 -0.27619182277E+02 -0.15847982957E+02  0.25282142081E+02  0.40659125687E+02  0.00000000000E+00 0. -1.
         11    1    4    4    0    0  0.65033217218E+01  0.81866020353E+01 -0.26707736785E+01  0.10791046224E+02  0.51100000000E-03 0. -1.
        -11    1    4    4    0    0  0.10977661127E+02  0.13123141836E+01  0.30128245142E+01  0.11458984430E+02  0.51100000000E-03 0.  1.
        -12    1    4    4    0    0  0.10138199428E+02  0.63490667381E+01 -0.25624192917E+02  0.28278843659E+02  0.00000000000E+00 0.  1.
</event>
<event>
 8    1  0.1615837E-013  0.9118800E+02  0.7816164E-02  0.1184000E+00
        -11   -1    0    0    0    0  0.00000000000E+00  0.00000000000E+00  0.45593999997E+02  0.45594000000E+02  0.51100000000E-03 0. -1.
         11   -1    0    0    0    0 -0.00000000000E+00 -0.00000000000E+00 -0.45593999997E+02  0.45594000000E+02  0.51100000000E-03 0.  1.
         23    2    1    2    0    0  0.17763568394E-14  0.44408920985E-15 -0.71054273576E-14  0.91188000000E+02  0.91188000000E+02 0.  0.
    9900012    2    3    3    0    0  0.13219308370E+02 -0.31266989092E+01 -0.38322825135E+02  0.50528864665E+02  0.30000014635E+02 0.  0.
         12    1    3    3    0    0 -0.13219308370E+02  0.31266989092E+01  0.38322825135E+02  0.40659135335E+02  0.00000000000E+00 0. -1.
         11    1    4    4    0    0  0.59716870163E+01 -0.10886815097E+02 -0.12722437175E+02  0.17777631921E+02  0.51100000000E-03 0. -1.
        -11    1    4    4    0    0  0.57618667251E+01 -0.35297320928E+01 -0.28964829979E+01  0.73517161822E+01  0.51100000000E-03 0.  1.
         12    1    4    4    0    0  0.14857546290E+01  0.11289848281E+02 -0.22703904962E+02  0.25399516562E+02  0.00000000000E+00 0. -1.
</event>
<event>
 8    1  0.1615837E-013  0.9118800E+02  0.7816164E-02  0.1184000E+00
        -11   -1    0    0    0    0  0.00000000000E+00  0.00000000000E+00  0.45593999997E+02  0.45594000000E+02  0.51100000000E-03 0. -1.
         11   -1    0    0    0    0 -0.00000000000E+00 -0.00000000000E+00 -0.45593999997E+02  0.45594000000E+02  0.51100000000E-03 0.  1.
         23    2    1    2    0    0 -0.35527136788E-14 -0.44408920985E-15  0.00000000000E+00  0.91188000000E+02  0.91188000000E+02 0.  0.
    9900012    2    3    3    0    0 -0.18966834363E+02 -0.29201436035E+01  0.35845456329E+02  0.50528870842E+02  0.30000033412E+02 0.  0.
        -12    1    3    3    0    0  0.18966834363E+02  0.29201436035E+01 -0.35845456329E+02  0.40659129158E+02  0.00000000000E+00 0.  1.
         11    1    4    4    0    0 -0.24050243028E+01  0.10575225518E+01 -0.69129545559E+00  0.27166864951E+01  0.51100000000E-03 0. -1.
        -11    1    4    4    0    0 -0.74599043442E+01 -0.29261884299E+01 -0.19522226357E+01  0.82476617918E+01  0.51100000000E-03 0.  1.
         12    1    4    4    0    0 -0.91019057165E+01 -0.10514777254E+01  0.38488974420E+02  0.39564522555E+02  0.00000000000E+00 0. -1.
</event>
<event>
 8    1  0.1615837E-013  0.9118800E+02  0.7816164E-02  0.1184000E+00
        -11   -1    0    0    0    0  0.00000000000E+00  0.00000000000E+00  0.45593999997E+02  0.45594000000E+02  0.51100000000E-03 0. -1.
         11   -1    0    0    0    0 -0.00000000000E+00 -0.00000000000E+00 -0.45593999997E+02  0.45594000000E+02  0.51100000000E-03 0.  1.
         23    2    1    2    0    0  0.00000000000E+00  0.00000000000E+00  0.00000000000E+00  0.91188000000E+02  0.91188000000E+02 0.  0.
    9900012    2    3    3    0    0  0.18607716282E+02  0.31635677556E+02  0.17495774833E+02  0.50528864044E+02  0.30000012748E+02 0.  0.
        -12    1    3    3    0    0 -0.18607716282E+02 -0.31635677556E+02 -0.17495774833E+02  0.40659135956E+02  0.00000000000E+00 0.  1.
         11    1    4    4    0    0 -0.12153570840E+01  0.19566454288E+02  0.52792895568E+01  0.20302564486E+02  0.51100000000E-03 0. -1.
        -11    1    4    4    0    0  0.77388484349E+00  0.50636041705E+01  0.79952591744E+01  0.94954280827E+01  0.51100000000E-03 0.  1.
         12    1    4    4    0    0  0.19049188522E+02  0.70056190983E+01  0.42212261016E+01  0.20730871475E+02  0.00000000000E+00 0. -1.
</event>
<event>
 8    1  0.1615837E-013  0.9118800E+02  0.7816164E-02  0.1184000E+00
        -11   -1    0    0    0    0  0.00000000000E+00  0.00000000000E+00  0.45593999997E+02  0.45594000000E+02  0.51100000000E-03 0.  1.
         11   -1    0    0    0    0 -0.00000000000E+00 -0.00000000000E+00 -0.45593999997E+02  0.45594000000E+02  0.51100000000E-03 0. -1.
         23    2    1    2    0    0  0.00000000000E+00  0.00000000000E+00  0.00000000000E+00  0.91188000000E+02  0.91188000000E+02 0.  0.
    9900012    2    3    3    0    0 -0.17041568905E+02  0.36289501498E+02  0.67691901892E+01  0.50528869100E+02  0.30000028118E+02 0.  0.
        -12    1    3    3    0    0  0.17041568905E+02 -0.36289501498E+02 -0.67691901892E+01  0.40659130900E+02  0.00000000000E+00 0.  1.
         11    1    4    4    0    0 -0.12017968193E+02  0.14493013032E+02 -0.39972670249E+01  0.19247262927E+02  0.51100000000E-03 0. -1.
        -11    1    4    4    0    0 -0.10808522694E+02  0.18584870527E+02  0.40958134269E+01  0.21886006105E+02  0.51100000000E-03 0.  1.
        -12    1    4    4    0    0  0.57849219821E+01  0.32116179387E+01  0.66706437872E+01  0.93956000692E+01  0.00000000000E+00 0.  1.
</event>
<event>
 8    1  0.1615837E-013  0.9118800E+02  0.7816164E-02  0.1184000E+00
        -11   -1    0    0    0    0  0.00000000000E+00  0.00000000000E+00  0.45593999997E+02  0.45594000000E+02  0.51100000000E-03 0. -1.
         11   -1    0    0    0    0 -0.00000000000E+00 -0.00000000000E+00 -0.45593999997E+02  0.45594000000E+02  0.51100000000E-03 0.  1.
         23    2    1    2    0    0  0.00000000000E+00  0.00000000000E+00  0.00000000000E+00  0.91188000000E+02  0.91188000000E+02 0.  0.
    9900012    2    3    3    0    0 -0.13612233672E+02 -0.13358217431E+02  0.35908647116E+02  0.50528858147E+02  0.29999994824E+02 0.  0.
        -12    1    3    3    0    0  0.13612233672E+02  0.13358217431E+02 -0.35908647116E+02  0.40659141853E+02  0.00000000000E+00 0.  1.
         11    1    4    4    0    0 -0.43908337546E+01 -0.75777665258E+01  0.84605598118E+01  0.12177152342E+02  0.51100000000E-03 0. -1.
        -11    1    4    4    0    0 -0.35584258935E+01 -0.11508291391E+02  0.27258695682E+01  0.12350446581E+02  0.51100000000E-03 0.  1.
         12    1    4    4    0    0 -0.56629740241E+01  0.57278404858E+01  0.24722217736E+02  0.26001259224E+02  0.00000000000E+00 0. -1.
</event>
<event>
 8    1  0.1615837E-013  0.9118800E+02  0.7816164E-02  0.1184000E+00
        -11   -1    0    0    0    0  0.00000000000E+00  0.00000000000E+00  0.45593999997E+02  0.45594000000E+02  0.51100000000E-03 0. -1.
         11   -1    0    0    0    0 -0.00000000000E+00 -0.00000000000E+00 -0.45593999997E+02  0.45594000000E+02  0.51100000000E-03 0.  1.
         23    2    1    2    0    0  0.35527136788E-14  0.00000000000E+00 -0.35527136788E-14  0.91188000000E+02  0.91188000000E+02 0.  0.
    9900012    2    3    3    0    0  0.26760282048E+02 -0.41995093815E+01 -0.30321897268E+02  0.50528855540E+02  0.29999986898E+02 0.  0.
         12    1    3    3    0    0 -0.26760282048E+02  0.41995093815E+01  0.30321897268E+02  0.40659144460E+02  0.00000000000E+00 0. -1.
         11    1    4    4    0    0  0.49774849521E+00  0.24660111528E+01 -0.12145782849E+02  0.12403588426E+02  0.51100000000E-03 0. -1.
        -11    1    4    4    0    0  0.25153084692E+02  0.57846007299E+00 -0.17737669341E+02  0.30783716467E+02  0.51100000000E-03 0.  1.
         12    1    4    4    0    0  0.11094488602E+01 -0.72439806073E+01 -0.43844507832E+00  0.73415506468E+01  0.00000000000E+00 0. -1.
</event>
<event>
 8    1  0.1615837E-013  0.9118800E+02  0.7816164E-02  0.1184000E+00
        -11   -1    0    0    0    0  0.00000000000E+00  0.00000000000E+00  0.45593999997E+02  0.45594000000E+02  0.51100000000E-03 0. -1.
         11   -1    0    0    0    0 -0.00000000000E+00 -0.00000000000E+00 -0.45593999997E+02  0.45594000000E+02  0.51100000000E-03 0.  1.
         23    2    1    2    0    0  0.88817841970E-15  0.00000000000E+00  0.00000000000E+00  0.91188000000E+02  0.91188000000E+02 0.  0.
    9900012    2    3    3    0    0 -0.71597998804E+01 -0.39940362436E+01  0.39823995325E+02  0.50528860025E+02  0.30000000533E+02 0.  0.
        -12    1    3    3    0    0  0.71597998804E+01  0.39940362436E+01 -0.39823995325E+02  0.40659139975E+02  0.00000000000E+00 0.  1.
         11    1    4    4    0    0 -0.16248740390E+01  0.70608203604E+01  0.10430947928E+02  0.12700396637E+02  0.51100000000E-03 0. -1.
        -11    1    4    4    0    0 -0.29751807345E+01  0.58879563416E+01  0.68203717075E+01  0.94887934308E+01  0.51100000000E-03 0.  1.
        -12    1    4    4    0    0 -0.25597451070E+01 -0.16942812946E+02  0.22572675689E+02  0.28339669958E+02  0.00000000000E+00 0.  1.
</event>
<event>
 8    1  0.1615837E-013  0.9118800E+02  0.7816164E-02  0.1184000E+00
        -11   -1    0    0    0    0  0.00000000000E+00  0.00000000000E+00  0.45593999997E+02  0.45594000000E+02  0.51100000000E-03 0. -1.
         11   -1    0    0    0    0 -0.00000000000E+00 -0.00000000000E+00 -0.45593999997E+02  0.45594000000E+02  0.51100000000E-03 0.  1.
         23    2    1    2    0    0  0.00000000000E+00  0.35527136788E-14  0.00000000000E+00  0.91188000000E+02  0.91188000000E+02 0.  0.
    9900012    2    3    3    0    0 -0.11895805198E+02 -0.26812158617E+02 -0.28156056738E+02  0.50528861273E+02  0.30000004324E+02 0.  0.
         12    1    3    3    0    0  0.11895805198E+02  0.26812158617E+02  0.28156056738E+02  0.40659138727E+02  0.00000000000E+00 0. -1.
         11    1    4    4    0    0 -0.74792459766E+01  0.86543985295E+00 -0.11083739341E+02  0.13399156113E+02  0.51100000000E-03 0.  1.
        -11    1    4    4    0    0  0.17782152336E+00  0.24694349943E+01 -0.12050912485E+01  0.27535386076E+01  0.51100000000E-03 0. -1.
         12    1    4    4    0    0 -0.45943807444E+01 -0.30147033464E+02 -0.15867226149E+02  0.34376166552E+02  0.00000000000E+00 0. -1.
</event>
<event>
 8    1  0.1615837E-013  0.9118800E+02  0.7816164E-02  0.1184000E+00
        -11   -1    0    0    0    0  0.00000000000E+00  0.00000000000E+00  0.45593999997E+02  0.45594000000E+02  0.51100000000E-03 0. -1.
         11   -1    0    0    0    0 -0.00000000000E+00 -0.00000000000E+00 -0.45593999997E+02  0.45594000000E+02  0.51100000000E-03 0.  1.
         23    2    1    2    0    0  0.13183898417E-14 -0.35527136788E-14  0.00000000000E+00  0.91188000000E+02  0.91188000000E+02 0.  0.
    9900012    2    3    3    0    0  0.65815236832E-01 -0.16261425260E+02  0.37265626392E+02  0.50528865805E+02  0.30000018100E+02 0.  0.
        -12    1    3    3    0    0 -0.65815236832E-01  0.16261425260E+02 -0.37265626392E+02  0.40659134195E+02  0.00000000000E+00 0.  1.
         11    1    4    4    0    0  0.50288480362E+01 -0.36918791356E+01  0.40300042997E+01  0.74269925973E+01  0.51100000000E-03 0. -1.
        -11    1    4    4    0    0  0.68411622573E+01  0.29308620179E+01  0.57197998929E+01  0.93865629638E+01  0.51100000000E-03 0.  1.
        -12    1    4    4    0    0 -0.11804195057E+02 -0.15500408142E+02  0.27515822199E+02  0.33715310244E+02  0.00000000000E+00 0.  1.
</event>
<event>
 8    1  0.1615837E-013  0.9118800E+02  0.7816164E-02  0.1184000E+00
        -11   -1    0    0    0    0  0.00000000000E+00  0.00000000000E+00  0.45593999997E+02  0.45594000000E+02  0.51100000000E-03 0. -1.
         11   -1    0    0    0    0 -0.00000000000E+00 -0.00000000000E+00 -0.45593999997E+02  0.45594000000E+02  0.51100000000E-03 0.  1.
         23    2    1    2    0    0  0.00000000000E+00  0.00000000000E+00  0.00000000000E+00  0.91188000000E+02  0.91188000000E+02 0.  0.
    9900012    2    3    3    0    0  0.24053751089E+02 -0.18964852327E+02  0.26737931874E+02  0.50528861222E+02  0.30000004171E+02 0.  0.
        -12    1    3    3    0    0 -0.24053751089E+02  0.18964852327E+02 -0.26737931874E+02  0.40659138778E+02  0.00000000000E+00 0.  1.
         11    1    4    4    0    0  0.10572811515E+01  0.15642187875E+00 -0.13108163254E+01  0.16913163328E+01  0.51100000000E-03 0. -1.
        -11    1    4    4    0    0 -0.31928779609E+01  0.26136496279E+01 -0.82267009276E+00  0.42074244370E+01  0.51100000000E-03 0.  1.
        -12    1    4    4    0    0  0.26189347899E+02 -0.21734923834E+02  0.28871418292E+02  0.44630120453E+02  0.00000000000E+00 0.  1.
</event>
<event>
 8    1  0.1615837E-013  0.9118800E+02  0.7816164E-02  0.1184000E+00
        -11   -1    0    0    0    0  0.00000000000E+00  0.00000000000E+00  0.45593999997E+02  0.45594000000E+02  0.51100000000E-03 0. -1.
         11   -1    0    0    0    0 -0.00000000000E+00 -0.00000000000E+00 -0.45593999997E+02  0.45594000000E+02  0.51100000000E-03 0.  1.
         23    2    1    2    0    0  0.35527136788E-14 -0.35527136788E-14  0.35527136788E-14  0.91188000000E+02  0.91188000000E+02 0.  0.
    9900012    2    3    3    0    0  0.26979490554E+02 -0.16829314023E+02  0.25338646226E+02  0.50528859409E+02  0.29999998658E+02 0.  0.
        -12    1    3    3    0    0 -0.26979490554E+02  0.16829314023E+02 -0.25338646226E+02  0.40659140591E+02  0.00000000000E+00 0.  1.
         11    1    4    4    0    0  0.46267999431E+01 -0.47637097029E+01  0.64749075785E+01  0.92749466984E+01  0.51100000000E-03 0. -1.
        -11    1    4    4    0    0  0.23628960305E+02 -0.16054143288E+02  0.21971479606E+02  0.36038995521E+02  0.51100000000E-03 0.  1.
        -12    1    4    4    0    0 -0.12762696941E+01  0.39885389677E+01 -0.31077409580E+01  0.52149171893E+01  0.00000000000E+00 0.  1.
</event>
<event>
 8    1  0.1615837E-013  0.9118800E+02  0.7816164E-02  0.1184000E+00
        -11   -1    0    0    0    0  0.00000000000E+00  0.00000000000E+00  0.45593999997E+02  0.45594000000E+02  0.51100000000E-03 0. -1.
         11   -1    0    0    0    0 -0.00000000000E+00 -0.00000000000E+00 -0.45593999997E+02  0.45594000000E+02  0.51100000000E-03 0.  1.
         23    2    1    2    0    0 -0.35527136788E-14  0.29976021665E-14  0.00000000000E+00  0.91188000000E+02  0.91188000000E+02 0.  0.
    9900012    2    3    3    0    0 -0.28769924430E+02 -0.78211837096E+00 -0.28720113754E+02  0.50528865788E+02  0.30000018048E+02 0.  0.
         12    1    3    3    0    0  0.28769924430E+02  0.78211837096E+00  0.28720113754E+02  0.40659134212E+02  0.00000000000E+00 0. -1.
         11    1    4    4    0    0 -0.79600565484E+01 -0.96442637385E+01 -0.10659739423E+02  0.16431809643E+02  0.51100000000E-03 0. -1.
        -11    1    4    4    0    0 -0.14295107640E+02 -0.34232192819E+01 -0.11787712475E+02  0.18841939877E+02  0.51100000000E-03 0.  1.
         12    1    4    4    0    0 -0.65147602418E+01  0.12285364649E+02 -0.62726618557E+01  0.15255116267E+02  0.00000000000E+00 0. -1.
</event>
<event>
 8    1  0.1615837E-013  0.9118800E+02  0.7816164E-02  0.1184000E+00
        -11   -1    0    0    0    0  0.00000000000E+00  0.00000000000E+00  0.45593999997E+02  0.45594000000E+02  0.51100000000E-03 0.  1.
         11   -1    0    0    0    0 -0.00000000000E+00 -0.00000000000E+00 -0.45593999997E+02  0.45594000000E+02  0.51100000000E-03 0. -1.
         23    2    1    2    0    0  0.44408920985E-15  0.71054273576E-14  0.88817841970E-15  0.91188000000E+02  0.91188000000E+02 0.  0.
    9900012    2    3    3    0    0 -0.35237495783E+00 -0.39891321026E+02  0.78567555849E+01  0.50528803382E+02  0.29999828360E+02 0.  0.
         12    1    3    3    0    0  0.35237495783E+00  0.39891321026E+02 -0.78567555849E+01  0.40659196618E+02  0.00000000000E+00 0. -1.
         11    1    4    4    0    0 -0.59192891270E+01 -0.25918861771E+02  0.53160787986E+01  0.27112470809E+02  0.51100000000E-03 0. -1.
        -11    1    4    4    0    0 -0.74006091591E+00 -0.16254519332E+02  0.34926052504E+01  0.16641976462E+02  0.51100000000E-03 0.  1.
         12    1    4    4    0    0  0.63069750851E+01  0.22820600779E+01 -0.95192846407E+00  0.67743561114E+01  0.00000000000E+00 0. -1.
</event>
<event>
 8    1  0.1615837E-013  0.9118800E+02  0.7816164E-02  0.1184000E+00
        -11   -1    0    0    0    0  0.00000000000E+00  0.00000000000E+00  0.45593999997E+02  0.45594000000E+02  0.51100000000E-03 0. -1.
         11   -1    0    0    0    0 -0.00000000000E+00 -0.00000000000E+00 -0.45593999997E+02  0.45594000000E+02  0.51100000000E-03 0.  1.
         23    2    1    2    0    0  0.00000000000E+00  0.00000000000E+00  0.00000000000E+00  0.91188000000E+02  0.91188000000E+02 0.  0.
    9900012    2    3    3    0    0  0.24898666075E+02 -0.21688941861E+02  0.23723676636E+02  0.50528848453E+02  0.29999965359E+02 0.  0.
        -12    1    3    3    0    0 -0.24898666075E+02  0.21688941861E+02 -0.23723676636E+02  0.40659151547E+02  0.00000000000E+00 0.  1.
         11    1    4    4    0    0  0.14796789029E+02  0.81434877584E+00  0.27511464619E+01  0.15072389877E+02  0.51100000000E-03 0. -1.
        -11    1    4    4    0    0  0.38163750346E+01 -0.67550341036E+00 -0.83864429385E+00  0.39653937730E+01  0.51100000000E-03 0.  1.
         12    1    4    4    0    0  0.62855020112E+01 -0.21827787227E+02  0.21811174468E+02  0.31491064803E+02  0.00000000000E+00 0. -1.
</event>
<event>
 8    1  0.1615837E-013  0.9118800E+02  0.7816164E-02  0.1184000E+00
        -11   -1    0    0    0    0  0.00000000000E+00  0.00000000000E+00  0.45593999997E+02  0.45594000000E+02  0.51100000000E-03 0. -1.
         11   -1    0    0    0    0 -0.00000000000E+00 -0.00000000000E+00 -0.45593999997E+02  0.45594000000E+02  0.51100000000E-03 0.  1.
         23    2    1    2    0    0  0.35527136788E-14  0.17763568394E-14  0.00000000000E+00  0.91188000000E+02  0.91188000000E+02 0.  0.
    9900012    2    3    3    0    0 -0.26833285806E+02 -0.13335511720E+02  0.27482808378E+02  0.50528857654E+02  0.29999993326E+02 0.  0.
        -12    1    3    3    0    0  0.26833285806E+02  0.13335511720E+02 -0.27482808378E+02  0.40659142346E+02  0.00000000000E+00 0.  1.
         11    1    4    4    0    0 -0.53849248720E+01 -0.80130877608E+01  0.12041847536E+01  0.97291856042E+01  0.51100000000E-03 0. -1.
        -11    1    4    4    0    0  0.28054557156E+00 -0.34543150628E+01 -0.27971220920E+01  0.44536379095E+01  0.51100000000E-03 0.  1.
         12    1    4    4    0    0 -0.21728906505E+02 -0.18681088959E+01  0.29075745717E+02  0.36346034140E+02  0.00000000000E+00 0. -1.
</event>
<event>
 8    1  0.1615837E-013  0.9118800E+02  0.7816164E-02  0.1184000E+00
        -11   -1    0    0    0    0  0.00000000000E+00  0.00000000000E+00  0.45593999997E+02  0.45594000000E+02  0.51100000000E-03 0. -1.
         11   -1    0    0    0    0 -0.00000000000E+00 -0.00000000000E+00 -0.45593999997E+02  0.45594000000E+02  0.51100000000E-03 0.  1.
         23    2    1    2    0    0  0.00000000000E+00 -0.17763568394E-14  0.00000000000E+00  0.91188000000E+02  0.91188000000E+02 0.  0.
    9900012    2    3    3    0    0 -0.82947031441E+01 -0.14567450902E+02 -0.37042611243E+02  0.50528834075E+02  0.29999921653E+02 0.  0.
         12    1    3    3    0    0  0.82947031441E+01  0.14567450902E+02  0.37042611243E+02  0.40659165925E+02  0.00000000000E+00 0. -1.
         11    1    4    4    0    0  0.35501218940E+01  0.24899753584E+01 -0.10925671616E+01  0.44718056769E+01  0.51100000000E-03 0. -1.
        -11    1    4    4    0    0  0.48610935977E+01 -0.34908013292E+01 -0.14433748142E+02  0.15625268336E+02  0.51100000000E-03 0.  1.
         12    1    4    4    0    0 -0.16705918636E+02 -0.13566624932E+02 -0.21516295940E+02  0.30431760062E+02  0.00000000000E+00 0. -1.
</event>
<event>
 8    1  0.1615837E-013  0.9118800E+02  0.7816164E-02  0.1184000E+00
        -11   -1    0    0    0    0  0.00000000000E+00  0.00000000000E+00  0.45593999997E+02  0.45594000000E+02  0.51100000000E-03 0. -1.
         11   -1    0    0    0    0 -0.00000000000E+00 -0.00000000000E+00 -0.45593999997E+02  0.45594000000E+02  0.51100000000E-03 0.  1.
         23    2    1    2    0    0  0.17763568394E-14  0.88817841970E-15  0.00000000000E+00  0.91188000000E+02  0.91188000000E+02 0.  0.
    9900012    2    3    3    0    0  0.13221531762E+02  0.78703786721E+01 -0.37635270289E+02  0.50528864098E+02  0.30000012911E+02 0.  0.
         12    1    3    3    0    0 -0.13221531762E+02 -0.78703786721E+01  0.37635270289E+02  0.40659135902E+02  0.00000000000E+00 0. -1.
         11    1    4    4    0    0 -0.26709827972E+01  0.15986095586E+01 -0.12929995487E+02  0.13299416723E+02  0.51100000000E-03 0. -1.
        -11    1    4    4    0    0  0.10597124197E+01  0.54865978046E+01  0.25863980650E+01  0.61575320620E+01  0.51100000000E-03 0.  1.
        -12    1    4    4    0    0  0.14832802140E+02  0.78517130887E+00 -0.27291672867E+02  0.31071915313E+02  0.00000000000E+00 0.  1.
</event>
<event>
 8    1  0.1615837E-013  0.9118800E+02  0.7816164E-02  0.1184000E+00
        -11   -1    0    0    0    0  0.00000000000E+00  0.00000000000E+00  0.45593999997E+02  0.45594000000E+02  0.51100000000E-03 0.  1.
         11   -1    0    0    0    0 -0.00000000000E+00 -0.00000000000E+00 -0.45593999997E+02  0.45594000000E+02  0.51100000000E-03 0. -1.
         23    2    1    2    0    0 -0.17763568394E-14  0.00000000000E+00  0.00000000000E+00  0.91188000000E+02  0.91188000000E+02 0.  0.
    9900012    2    3    3    0    0 -0.80953369547E+01 -0.37847459082E+02 -0.12458014819E+02  0.50528846386E+02  0.29999959074E+02 0.  0.
         12    1    3    3    0    0  0.80953369547E+01  0.37847459082E+02  0.12458014819E+02  0.40659153614E+02  0.00000000000E+00 0. -1.
         11    1    4    4    0    0 -0.14236701970E+01 -0.38652747600E+01 -0.43394184703E+01  0.59831211522E+01  0.51100000000E-03 0. -1.
        -11    1    4    4    0    0 -0.99996809441E+01 -0.13239584528E+02 -0.15073718425E+02  0.22416449426E+02  0.51100000000E-03 0.  1.
        -12    1    4    4    0    0  0.33280141865E+01 -0.20742599794E+02  0.69551220762E+01  0.22129275807E+02  0.00000000000E+00 0.  1.
</event>
<event>
 8    1  0.1615837E-013  0.9118800E+02  0.7816164E-02  0.1184000E+00
        -11   -1    0    0    0    0  0.00000000000E+00  0.00000000000E+00  0.45593999997E+02  0.45594000000E+02  0.51100000000E-03 0.  1.
         11   -1    0    0    0    0 -0.00000000000E+00 -0.00000000000E+00 -0.45593999997E+02  0.45594000000E+02  0.51100000000E-03 0. -1.
         23    2    1    2    0    0  0.00000000000E+00  0.00000000000E+00 -0.35527136788E-14  0.91188000000E+02  0.91188000000E+02 0.  0.
    9900012    2    3    3    0    0  0.19326633147E+02  0.21893768532E+02  0.28289754503E+02  0.50528855159E+02  0.29999985743E+02 0.  0.
        -12    1    3    3    0    0 -0.19326633147E+02 -0.21893768532E+02 -0.28289754503E+02  0.40659144841E+02  0.00000000000E+00 0.  1.
         11    1    4    4    0    0  0.11320114605E+00  0.41921346690E+01  0.10102880811E+02  0.10938693182E+02  0.51100000000E-03 0. -1.
        -11    1    4    4    0    0  0.52441253113E+01 -0.41906213012E+01  0.10579361383E+02  0.12529367291E+02  0.51100000000E-03 0.  1.
         12    1    4    4    0    0  0.13969306690E+02  0.21892255164E+02  0.76075123089E+01  0.27060794687E+02  0.00000000000E+00 0. -1.
</event>
<event>
 8    1  0.1615837E-013  0.9118800E+02  0.7816164E-02  0.1184000E+00
        -11   -1    0    0    0    0  0.00000000000E+00  0.00000000000E+00  0.45593999997E+02  0.45594000000E+02  0.51100000000E-03 0. -1.
         11   -1    0    0    0    0 -0.00000000000E+00 -0.00000000000E+00 -0.45593999997E+02  0.45594000000E+02  0.51100000000E-03 0.  1.
         23    2    1    2    0    0  0.35527136788E-14  0.35527136788E-14  0.00000000000E+00  0.91188000000E+02  0.91188000000E+02 0.  0.
    9900012    2    3    3    0    0  0.18182215712E+02  0.27252744035E+02 -0.24080294888E+02  0.50528860467E+02  0.30000001877E+02 0.  0.
         12    1    3    3    0    0 -0.18182215712E+02 -0.27252744035E+02  0.24080294888E+02  0.40659139533E+02  0.00000000000E+00 0. -1.
         11    1    4    4    0    0  0.19674932841E+01  0.60377867652E+01 -0.15043547554E+02  0.16328938181E+02  0.51100000000E-03 0. -1.
        -11    1    4    4    0    0  0.17957047504E+02  0.19505574908E+02 -0.13013159608E+02  0.29534138396E+02  0.51100000000E-03 0.  1.
         12    1    4    4    0    0 -0.17423250763E+01  0.17093823615E+01  0.39764122744E+01  0.46657838897E+01  0.00000000000E+00 0. -1.
</event>
<event>
 8    1  0.1615837E-013  0.9118800E+02  0.7816164E-02  0.1184000E+00
        -11   -1    0    0    0    0  0.00000000000E+00  0.00000000000E+00  0.45593999997E+02  0.45594000000E+02  0.51100000000E-03 0. -1.
         11   -1    0    0    0    0 -0.00000000000E+00 -0.00000000000E+00 -0.45593999997E+02  0.45594000000E+02  0.51100000000E-03 0.  1.
         23    2    1    2    0    0 -0.35527136788E-14 -0.44408920985E-15 -0.71054273576E-14  0.91188000000E+02  0.91188000000E+02 0.  0.
    9900012    2    3    3    0    0  0.23041632753E+02  0.22854715399E+01  0.33421956001E+02  0.50528839125E+02  0.29999937004E+02 0.  0.
        -12    1    3    3    0    0 -0.23041632753E+02 -0.22854715399E+01 -0.33421956001E+02  0.40659160875E+02  0.00000000000E+00 0.  1.
         11    1    4    4    0    0  0.15501876419E+02 -0.11958868237E+01  0.15809834686E+02  0.22174065727E+02  0.51100000000E-03 0. -1.
        -11    1    4    4    0    0  0.12638546491E+02  0.76797430935E+01  0.83638528198E+01  0.16990154373E+02  0.51100000000E-03 0.  1.
        -12    1    4    4    0    0 -0.50987901567E+01 -0.41983847299E+01  0.92482684957E+01  0.11364619024E+02  0.00000000000E+00 0.  1.
</event>
<event>
 8    1  0.1615837E-013  0.9118800E+02  0.7816164E-02  0.1184000E+00
        -11   -1    0    0    0    0  0.00000000000E+00  0.00000000000E+00  0.45593999997E+02  0.45594000000E+02  0.51100000000E-03 0. -1.
         11   -1    0    0    0    0 -0.00000000000E+00 -0.00000000000E+00 -0.45593999997E+02  0.45594000000E+02  0.51100000000E-03 0.  1.
         23    2    1    2    0    0  0.00000000000E+00 -0.88817841970E-15  0.00000000000E+00  0.91188000000E+02  0.91188000000E+02 0.  0.
    9900012    2    3    3    0    0 -0.16157614642E+02 -0.40692608269E+01 -0.37088256847E+02  0.50528853544E+02  0.29999980831E+02 0.  0.
         12    1    3    3    0    0  0.16157614642E+02  0.40692608269E+01  0.37088256847E+02  0.40659146456E+02  0.00000000000E+00 0. -1.
         11    1    4    4    0    0 -0.50795481295E+01 -0.81552703361E+01 -0.56810578441E+01  0.11161749950E+02  0.51100000000E-03 0. -1.
        -11    1    4    4    0    0  0.33515051885E+01 -0.21720567689E+01  0.26713730430E+00  0.40027216037E+01  0.51100000000E-03 0.  1.
        -12    1    4    4    0    0 -0.14429571701E+02  0.62580662782E+01 -0.31674336308E+02  0.35364381990E+02  0.00000000000E+00 0.  1.
</event>
<event>
 8    1  0.1615837E-013  0.9118800E+02  0.7816164E-02  0.1184000E+00
        -11   -1    0    0    0    0  0.00000000000E+00  0.00000000000E+00  0.45593999997E+02  0.45594000000E+02  0.51100000000E-03 0.  1.
         11   -1    0    0    0    0 -0.00000000000E+00 -0.00000000000E+00 -0.45593999997E+02  0.45594000000E+02  0.51100000000E-03 0. -1.
         23    2    1    2    0    0 -0.88817841970E-15 -0.35527136788E-14  0.35527136788E-14  0.91188000000E+02  0.91188000000E+02 0.  0.
    9900012    2    3    3    0    0 -0.74452658717E+01 -0.28904262642E+02  0.27609374155E+02  0.50528856821E+02  0.29999990794E+02 0.  0.
        -12    1    3    3    0    0  0.74452658717E+01  0.28904262642E+02 -0.27609374155E+02  0.40659143179E+02  0.00000000000E+00 0.  1.
         11    1    4    4    0    0 -0.38894103487E+01 -0.12127902290E+02 -0.10336326226E+01  0.12778181540E+02  0.51100000000E-03 0. -1.
        -11    1    4    4    0    0 -0.18523371564E+01 -0.13658386819E+02  0.63491167699E+01  0.15175439613E+02  0.51100000000E-03 0.  1.
        -12    1    4    4    0    0 -0.17035183666E+01 -0.31179735334E+01  0.22293890008E+02  0.22575235668E+02  0.00000000000E+00 0.  1.
</event>
<event>
 8    1  0.1615837E-013  0.9118800E+02  0.7816164E-02  0.1184000E+00
        -11   -1    0    0    0    0  0.00000000000E+00  0.00000000000E+00  0.45593999997E+02  0.45594000000E+02  0.51100000000E-03 0. -1.
         11   -1    0    0    0    0 -0.00000000000E+00 -0.00000000000E+00 -0.45593999997E+02  0.45594000000E+02  0.51100000000E-03 0.  1.
         23    2    1    2    0    0  0.88817841970E-15 -0.22204460493E-15  0.71054273576E-14  0.91188000000E+02  0.91188000000E+02 0.  0.
    9900012    2    3    3    0    0 -0.46643900367E+01  0.13515779286E+01 -0.40368091815E+02  0.50528854238E+02  0.29999982942E+02 0.  0.
         12    1    3    3    0    0  0.46643900367E+01 -0.13515779286E+01  0.40368091815E+02  0.40659145762E+02  0.00000000000E+00 0. -1.
         11    1    4    4    0    0 -0.53516476898E+01  0.82538237980E+01 -0.26922195903E+02  0.28663048909E+02  0.51100000000E-03 0. -1.
        -11    1    4    4    0    0 -0.48252875567E+01  0.11821683093E+00  0.95751846278E+00  0.49207943558E+01  0.51100000000E-03 0.  1.
        -12    1    4    4    0    0  0.55125452098E+01 -0.70204627003E+01 -0.14403414375E+02  0.16945010973E+02  0.00000000000E+00 0.  1.
</event>
<event>
 8    1  0.1615837E-013  0.9118800E+02  0.7816164E-02  0.1184000E+00
        -11   -1    0    0    0    0  0.00000000000E+00  0.00000000000E+00  0.45593999997E+02  0.45594000000E+02  0.51100000000E-03 0. -1.
         11   -1    0    0    0    0 -0.00000000000E+00 -0.00000000000E+00 -0.45593999997E+02  0.45594000000E+02  0.51100000000E-03 0.  1.
         23    2    1    2    0    0  0.00000000000E+00  0.00000000000E+00  0.00000000000E+00  0.91188000000E+02  0.91188000000E+02 0.  0.
    9900012    2    3    3    0    0  0.36747978132E+02  0.14549631355E+02 -0.95425843724E+01  0.50528848682E+02  0.29999966055E+02 0.  0.
         12    1    3    3    0    0 -0.36747978132E+02 -0.14549631355E+02  0.95425843724E+01  0.40659151318E+02  0.00000000000E+00 0. -1.
         11    1    4    4    0    0  0.87786228515E+01  0.61408567166E+01  0.86619685361E+01  0.13776938686E+02  0.51100000000E-03 0. -1.
        -11    1    4    4    0    0  0.39796462637E+01  0.37456505546E+00  0.19107056619E+01  0.44304265881E+01  0.51100000000E-03 0.  1.
        -12    1    4    4    0    0  0.23989709017E+02  0.80342095826E+01 -0.20115258570E+02  0.32321483408E+02  0.00000000000E+00 0.  1.
</event>
<event>
 8    1  0.1615837E-013  0.9118800E+02  0.7816164E-02  0.1184000E+00
        -11   -1    0    0    0    0  0.00000000000E+00  0.00000000000E+00  0.45593999997E+02  0.45594000000E+02  0.51100000000E-03 0.  1.
         11   -1    0    0    0    0 -0.00000000000E+00 -0.00000000000E+00 -0.45593999997E+02  0.45594000000E+02  0.51100000000E-03 0. -1.
         23    2    1    2    0    0  0.35527136788E-14 -0.71054273576E-14  0.00000000000E+00  0.91188000000E+02  0.91188000000E+02 0.  0.
    9900012    2    3    3    0    0 -0.16263888217E+02  0.35867236941E+02  0.10109058006E+02  0.50528858353E+02  0.29999995449E+02 0.  0.
        -12    1    3    3    0    0  0.16263888217E+02 -0.35867236941E+02 -0.10109058006E+02  0.40659141647E+02  0.00000000000E+00 0.  1.
         11    1    4    4    0    0 -0.16605957700E+02  0.90688147185E+01  0.17051890467E+01  0.18997602519E+02  0.51100000000E-03 0. -1.
        -11    1    4    4    0    0 -0.23939537193E+01  0.14949212265E+02 -0.23211500084E+01  0.15316582497E+02  0.51100000000E-03 0.  1.
        -12    1    4    4    0    0  0.27360232022E+01  0.11849209957E+02  0.10725018967E+02  0.16214673337E+02  0.00000000000E+00 0.  1.
</event>
<event>
 8    1  0.1615837E-013  0.9118800E+02  0.7816164E-02  0.1184000E+00
        -11   -1    0    0    0    0  0.00000000000E+00  0.00000000000E+00  0.45593999997E+02  0.45594000000E+02  0.51100000000E-03 0. -1.
         11   -1    0    0    0    0 -0.00000000000E+00 -0.00000000000E+00 -0.45593999997E+02  0.45594000000E+02  0.51100000000E-03 0.  1.
         23    2    1    2    0    0  0.00000000000E+00  0.00000000000E+00  0.35527136788E-14  0.91188000000E+02  0.91188000000E+02 0.  0.
    9900012    2    3    3    0    0 -0.82789008819E+01  0.24979268715E+02 -0.30994535295E+02  0.50528864698E+02  0.30000014736E+02 0.  0.
         12    1    3    3    0    0  0.82789008819E+01 -0.24979268715E+02  0.30994535295E+02  0.40659135302E+02  0.00000000000E+00 0. -1.
         11    1    4    4    0    0  0.34395558401E+01  0.12147072705E+02 -0.67223362303E+01  0.14302857208E+02  0.51100000000E-03 0.  1.
        -11    1    4    4    0    0 -0.11761582596E+02  0.23110492303E+01 -0.27917976631E+01  0.12307311167E+02  0.51100000000E-03 0. -1.
         12    1    4    4    0    0  0.43125873955E-01  0.10521146780E+02 -0.21480401401E+02  0.23918696323E+02  0.00000000000E+00 0. -1.
</event>
<event>
 8    1  0.2757662E-013  0.9118800E+02  0.7816164E-02  0.1184000E+00
        -11   -1    0    0    0    0  0.00000000000E+00  0.00000000000E+00  0.45593999997E+02  0.45594000000E+02  0.51100000000E-03 0. -1.
         11   -1    0    0    0    0 -0.00000000000E+00 -0.00000000000E+00 -0.45593999997E+02  0.45594000000E+02  0.51100000000E-03 0.  1.
         23    2    1    2    0    0  0.17763568394E-14  0.00000000000E+00  0.00000000000E+00  0.91188000000E+02  0.91188000000E+02 0.  0.
    9900012    2    3    3    0    0 -0.13944314044E+02  0.13730951394E+02  0.35639624801E+02  0.50528858638E+02  0.29999996316E+02 0.  0.
        -12    1    3    3    0    0  0.13944314044E+02 -0.13730951394E+02 -0.35639624801E+02  0.40659141362E+02  0.00000000000E+00 0.  1.
         11    1    4    4    0    0 -0.10561355925E+02  0.25314687308E+01  0.25927645671E+02  0.28110378567E+02  0.51100000000E-03 0. -1.
        -11    1    4    4    0    0 -0.10067699892E+02  0.66049865518E+01  0.50004037141E+01  0.13037962495E+02  0.51100000000E-03 0.  1.
        -12    1    4    4    0    0  0.66847417725E+01  0.45944961115E+01  0.47115754159E+01  0.93805175755E+01  0.00000000000E+00 0.  1.
</event>
<event>
 8    1  0.1615837E-013  0.9118800E+02  0.7816164E-02  0.1184000E+00
        -11   -1    0    0    0    0  0.00000000000E+00  0.00000000000E+00  0.45593999997E+02  0.45594000000E+02  0.51100000000E-03 0. -1.
         11   -1    0    0    0    0 -0.00000000000E+00 -0.00000000000E+00 -0.45593999997E+02  0.45594000000E+02  0.51100000000E-03 0.  1.
         23    2    1    2    0    0  0.17763568394E-14  0.00000000000E+00 -0.17763568394E-14  0.91188000000E+02  0.91188000000E+02 0.  0.
    9900012    2    3    3    0    0 -0.12590826443E+02 -0.37341817899E+02 -0.10011300690E+02  0.50528850771E+02  0.29999972404E+02 0.  0.
         12    1    3    3    0    0  0.12590826443E+02  0.37341817899E+02  0.10011300690E+02  0.40659149229E+02  0.00000000000E+00 0. -1.
         11    1    4    4    0    0 -0.28828067187E+01  0.16625813576E+01 -0.46919544750E+01  0.57523202627E+01  0.51100000000E-03 0. -1.
        -11    1    4    4    0    0 -0.14361835928E+02 -0.20658588507E+02 -0.16678558716E+00  0.25160831226E+02  0.51100000000E-03 0.  1.
         12    1    4    4    0    0  0.46538162032E+01 -0.18345810749E+02 -0.51525606277E+01  0.19615699282E+02  0.00000000000E+00 0. -1.
</event>
<event>
 8    1  0.1615837E-013  0.9118800E+02  0.7816164E-02  0.1184000E+00
        -11   -1    0    0    0    0  0.00000000000E+00  0.00000000000E+00  0.45593999997E+02  0.45594000000E+02  0.51100000000E-03 0. -1.
         11   -1    0    0    0    0 -0.00000000000E+00 -0.00000000000E+00 -0.45593999997E+02  0.45594000000E+02  0.51100000000E-03 0.  1.
         23    2    1    2    0    0 -0.88817841970E-15 -0.44408920985E-15  0.00000000000E+00  0.91188000000E+02  0.91188000000E+02 0.  0.
    9900012    2    3    3    0    0 -0.79527030016E+01 -0.31498027488E+01 -0.39749203984E+02  0.50528856382E+02  0.29999989458E+02 0.  0.
         12    1    3    3    0    0  0.79527030016E+01  0.31498027488E+01  0.39749203984E+02  0.40659143618E+02  0.00000000000E+00 0. -1.
         11    1    4    4    0    0  0.50370301908E+01 -0.71580816531E+01 -0.13613144338E+02  0.16184174527E+02  0.51100000000E-03 0. -1.
        -11    1    4    4    0    0  0.42836967957E+01 -0.29450825466E+00 -0.69749471853E+01  0.81906459970E+01  0.51100000000E-03 0.  1.
        -12    1    4    4    0    0 -0.17273429988E+02  0.43027871590E+01 -0.19161112461E+02  0.26154035858E+02  0.00000000000E+00 0.  1.
</event>
<event>
 8    1  0.1615837E-013  0.9118800E+02  0.7816164E-02  0.1184000E+00
        -11   -1    0    0    0    0  0.00000000000E+00  0.00000000000E+00  0.45593999997E+02  0.45594000000E+02  0.51100000000E-03 0. -1.
         11   -1    0    0    0    0 -0.00000000000E+00 -0.00000000000E+00 -0.45593999997E+02  0.45594000000E+02  0.51100000000E-03 0.  1.
         23    2    1    2    0    0  0.00000000000E+00 -0.17763568394E-14 -0.17763568394E-14  0.91188000000E+02  0.91188000000E+02 0.  0.
    9900012    2    3    3    0    0 -0.36083805198E+02  0.13260698030E+02  0.13239293934E+02  0.50528855718E+02  0.29999987441E+02 0.  0.
        -12    1    3    3    0    0  0.36083805198E+02 -0.13260698030E+02 -0.13239293934E+02  0.40659144282E+02  0.00000000000E+00 0.  1.
         11    1    4    4    0    0  0.26937088446E+01  0.25273202123E+01  0.46872244232E+00  0.37233205320E+01  0.51100000000E-03 0. -1.
        -11    1    4    4    0    0 -0.73115043185E+01  0.74390106266E+01 -0.37869997856E+01  0.11096771699E+02  0.51100000000E-03 0.  1.
         12    1    4    4    0    0 -0.31466009725E+02  0.32943671916E+01  0.16557571277E+02  0.35708763487E+02  0.00000000000E+00 0. -1.
</event>
<event>
 8    1  0.1615837E-013  0.9118800E+02  0.7816164E-02  0.1184000E+00
        -11   -1    0    0    0    0  0.00000000000E+00  0.00000000000E+00  0.45593999997E+02  0.45594000000E+02  0.51100000000E-03 0. -1.
         11   -1    0    0    0    0 -0.00000000000E+00 -0.00000000000E+00 -0.45593999997E+02  0.45594000000E+02  0.51100000000E-03 0.  1.
         23    2    1    2    0    0  0.17763568394E-14  0.17763568394E-14 -0.71054273576E-14  0.91188000000E+02  0.91188000000E+02 0.  0.
    9900012    2    3    3    0    0 -0.10055625397E+02  0.14388252119E+02 -0.36674629327E+02  0.50528857886E+02  0.29999994031E+02 0.  0.
         12    1    3    3    0    0  0.10055625397E+02 -0.14388252119E+02  0.36674629327E+02  0.40659142114E+02  0.00000000000E+00 0. -1.
         11    1    4    4    0    0  0.35334276626E+01 -0.50098442474E+01 -0.10147757311E+02  0.11855826801E+02  0.51100000000E-03 0. -1.
        -11    1    4    4    0    0 -0.37498607209E+01  0.33009218962E+00 -0.12459833785E+02  0.13016062173E+02  0.51100000000E-03 0.  1.
        -12    1    4    4    0    0 -0.98391923388E+01  0.19068004177E+02 -0.14067038231E+02  0.25656968912E+02  0.00000000000E+00 0.  1.
</event>
<event>
 8    1  0.1615837E-013  0.9118800E+02  0.7816164E-02  0.1184000E+00
        -11   -1    0    0    0    0  0.00000000000E+00  0.00000000000E+00  0.45593999997E+02  0.45594000000E+02  0.51100000000E-03 0. -1.
         11   -1    0    0    0    0 -0.00000000000E+00 -0.00000000000E+00 -0.45593999997E+02  0.45594000000E+02  0.51100000000E-03 0.  1.
         23    2    1    2    0    0  0.00000000000E+00 -0.22204460493E-15 -0.71054273576E-14  0.91188000000E+02  0.91188000000E+02 0.  0.
    9900012    2    3    3    0    0 -0.50074278236E+01  0.11413646900E+01  0.40333469992E+02  0.50528857751E+02  0.29999993621E+02 0.  0.
        -12    1    3    3    0    0  0.50074278236E+01 -0.11413646900E+01 -0.40333469992E+02  0.40659142249E+02  0.00000000000E+00 0.  1.
         11    1    4    4    0    0 -0.33627836732E+01  0.13992534641E+01 -0.25888547623E+01  0.44686008471E+01  0.51100000000E-03 0. -1.
        -11    1    4    4    0    0  0.33985689977E+01  0.28871098728E+01  0.23228621833E+01  0.50280576403E+01  0.51100000000E-03 0.  1.
         12    1    4    4    0    0 -0.50432131481E+01 -0.31449986470E+01  0.40599462571E+02  0.41032199264E+02  0.00000000000E+00 0. -1.
</event>
<event>
 8    1  0.1615837E-013  0.9118800E+02  0.7816164E-02  0.1184000E+00
        -11   -1    0    0    0    0  0.00000000000E+00  0.00000000000E+00  0.45593999997E+02  0.45594000000E+02  0.51100000000E-03 0. -1.
         11   -1    0    0    0    0 -0.00000000000E+00 -0.00000000000E+00 -0.45593999997E+02  0.45594000000E+02  0.51100000000E-03 0.  1.
         23    2    1    2    0    0  0.00000000000E+00  0.88817841970E-15  0.00000000000E+00  0.91188000000E+02  0.91188000000E+02 0.  0.
    9900012    2    3    3    0    0  0.35484354008E+02  0.53376993374E+01 -0.19118960685E+02  0.50528867308E+02  0.30000022669E+02 0.  0.
         12    1    3    3    0    0 -0.35484354008E+02 -0.53376993374E+01  0.19118960685E+02  0.40659132692E+02  0.00000000000E+00 0. -1.
         11    1    4    4    0    0  0.26551198631E+02 -0.21012914402E+01 -0.22452789887E+02  0.34835461077E+02  0.51100000000E-03 0.  1.
        -11    1    4    4    0    0  0.78506595681E+01  0.61702910434E+01 -0.19314248632E+01  0.10170336744E+02  0.51100000000E-03 0. -1.
        -12    1    4    4    0    0  0.10824958095E+01  0.12686997342E+01  0.52652540653E+01  0.55230694877E+01  0.00000000000E+00 0.  1.
</event>
<event>
 8    1  0.1615837E-013  0.9118800E+02  0.7816164E-02  0.1184000E+00
        -11   -1    0    0    0    0  0.00000000000E+00  0.00000000000E+00  0.45593999997E+02  0.45594000000E+02  0.51100000000E-03 0. -1.
         11   -1    0    0    0    0 -0.00000000000E+00 -0.00000000000E+00 -0.45593999997E+02  0.45594000000E+02  0.51100000000E-03 0.  1.
         23    2    1    2    0    0 -0.88817841970E-15 -0.35527136788E-14 -0.71054273576E-14  0.91188000000E+02  0.91188000000E+02 0.  0.
    9900012    2    3    3    0    0  0.67808785132E+01  0.18524466624E+02  0.35553154128E+02  0.50528893449E+02  0.30000102127E+02 0.  0.
        -12    1    3    3    0    0 -0.67808785132E+01 -0.18524466624E+02 -0.35553154128E+02  0.40659106551E+02  0.00000000000E+00 0.  1.
         11    1    4    4    0    0  0.61696679087E+01 -0.52397872394E+00  0.65606646753E+01  0.90211793603E+01  0.51100000000E-03 0.  1.
        -11    1    4    4    0    0 -0.10641526100E+02  0.10920293215E+02  0.19209220609E+02  0.24525273460E+02  0.51100000000E-03 0. -1.
         12    1    4    4    0    0  0.11252736704E+02  0.81281521333E+01  0.97832688432E+01  0.16982440628E+02  0.00000000000E+00 0. -1.
</event>
<event>
 8    1  0.1615837E-013  0.9118800E+02  0.7816164E-02  0.1184000E+00
        -11   -1    0    0    0    0  0.00000000000E+00  0.00000000000E+00  0.45593999997E+02  0.45594000000E+02  0.51100000000E-03 0. -1.
         11   -1    0    0    0    0 -0.00000000000E+00 -0.00000000000E+00 -0.45593999997E+02  0.45594000000E+02  0.51100000000E-03 0.  1.
         23    2    1    2    0    0 -0.35527136788E-14 -0.35527136788E-14 -0.44408920985E-15  0.91188000000E+02  0.91188000000E+02 0.  0.
    9900012    2    3    3    0    0 -0.29555711676E+02 -0.27775522995E+02  0.28539757593E+01  0.50528868824E+02  0.30000027278E+02 0.  0.
        -12    1    3    3    0    0  0.29555711676E+02  0.27775522995E+02 -0.28539757593E+01  0.40659131176E+02  0.00000000000E+00 0.  1.
         11    1    4    4    0    0 -0.11737000867E+02 -0.31228222085E+01 -0.11010905375E+01  0.12195146925E+02  0.51100000000E-03 0. -1.
        -11    1    4    4    0    0 -0.17578164967E+02 -0.16637863496E+02 -0.65915907733E+01  0.25085044439E+02  0.51100000000E-03 0.  1.
        -12    1    4    4    0    0 -0.24054584243E+00 -0.80148372904E+01  0.10546657070E+02  0.13248677460E+02  0.00000000000E+00 0.  1.
</event>
<event>
 8    1  0.1615837E-013  0.9118800E+02  0.7816164E-02  0.1184000E+00
        -11   -1    0    0    0    0  0.00000000000E+00  0.00000000000E+00  0.45593999997E+02  0.45594000000E+02  0.51100000000E-03 0. -1.
         11   -1    0    0    0    0 -0.00000000000E+00 -0.00000000000E+00 -0.45593999997E+02  0.45594000000E+02  0.51100000000E-03 0.  1.
         23    2    1    2    0    0  0.35527136788E-14  0.00000000000E+00  0.00000000000E+00  0.91188000000E+02  0.91188000000E+02 0.  0.
    9900012    2    3    3    0    0  0.25687323674E+02 -0.21129650341E+02 -0.23385210329E+02  0.50528821661E+02  0.29999883921E+02 0.  0.
         12    1    3    3    0    0 -0.25687323674E+02  0.21129650341E+02  0.23385210329E+02  0.40659178339E+02  0.00000000000E+00 0. -1.
         11    1    4    4    0    0  0.19348294881E+01  0.34304732214E+01  0.18786310014E+01  0.43635955783E+01  0.51100000000E-03 0. -1.
        -11    1    4    4    0    0  0.13862152054E+02 -0.94327254666E+01 -0.22221063327E+02  0.27837227321E+02  0.51100000000E-03 0.  1.
        -12    1    4    4    0    0  0.98903421325E+01 -0.15127398095E+02 -0.30427780040E+01  0.18327998762E+02  0.00000000000E+00 0.  1.
</event>
<event>
 8    1  0.1615837E-013  0.9118800E+02  0.7816164E-02  0.1184000E+00
        -11   -1    0    0    0    0  0.00000000000E+00  0.00000000000E+00  0.45593999997E+02  0.45594000000E+02  0.51100000000E-03 0. -1.
         11   -1    0    0    0    0 -0.00000000000E+00 -0.00000000000E+00 -0.45593999997E+02  0.45594000000E+02  0.51100000000E-03 0.  1.
         23    2    1    2    0    0 -0.17763568394E-14 -0.17763568394E-14  0.00000000000E+00  0.91188000000E+02  0.91188000000E+02 0.  0.
    9900012    2    3    3    0    0 -0.11452415085E+02  0.15798285360E+02  0.35671018109E+02  0.50528866161E+02  0.30000019183E+02 0.  0.
        -12    1    3    3    0    0  0.11452415085E+02 -0.15798285360E+02 -0.35671018109E+02  0.40659133839E+02  0.00000000000E+00 0.  1.
         11    1    4    4    0    0 -0.75012537601E+01  0.20718330693E+02  0.20719560288E+02  0.30245961937E+02  0.51100000000E-03 0. -1.
        -11    1    4    4    0    0 -0.78970475037E+01 -0.17911524581E+01  0.62492153072E+01  0.10228601010E+02  0.51100000000E-03 0.  1.
        -12    1    4    4    0    0  0.39458861785E+01 -0.31288928752E+01  0.87022425137E+01  0.10054303214E+02  0.00000000000E+00 0.  1.
</event>
<event>
 8    1  0.1615837E-013  0.9118800E+02  0.7816164E-02  0.1184000E+00
        -11   -1    0    0    0    0  0.00000000000E+00  0.00000000000E+00  0.45593999997E+02  0.45594000000E+02  0.51100000000E-03 0. -1.
         11   -1    0    0    0    0 -0.00000000000E+00 -0.00000000000E+00 -0.45593999997E+02  0.45594000000E+02  0.51100000000E-03 0.  1.
         23    2    1    2    0    0 -0.35527136788E-14  0.71054273576E-14 -0.88817841970E-15  0.91188000000E+02  0.91188000000E+02 0.  0.
    9900012    2    3    3    0    0 -0.16505182848E+02  0.36718485505E+02  0.57006494678E+01  0.50528860278E+02  0.30000001300E+02 0.  0.
         12    1    3    3    0    0  0.16505182848E+02 -0.36718485505E+02 -0.57006494678E+01  0.40659139722E+02  0.00000000000E+00 0. -1.
         11    1    4    4    0    0 -0.15233515986E+02  0.19826751494E+02  0.92542918453E+01  0.26660870240E+02  0.51100000000E-03 0. -1.
        -11    1    4    4    0    0 -0.77816641497E+01  0.73572451963E+01 -0.56903144093E+01  0.12126954777E+02  0.51100000000E-03 0.  1.
        -12    1    4    4    0    0  0.65099972877E+01  0.95344888143E+01  0.21366720318E+01  0.11741035261E+02  0.00000000000E+00 0.  1.
</event>
<event>
 8    1  0.1615837E-013  0.9118800E+02  0.7816164E-02  0.1184000E+00
        -11   -1    0    0    0    0  0.00000000000E+00  0.00000000000E+00  0.45593999997E+02  0.45594000000E+02  0.51100000000E-03 0. -1.
         11   -1    0    0    0    0 -0.00000000000E+00 -0.00000000000E+00 -0.45593999997E+02  0.45594000000E+02  0.51100000000E-03 0.  1.
         23    2    1    2    0    0  0.00000000000E+00 -0.35527136788E-14  0.35527136788E-14  0.91188000000E+02  0.91188000000E+02 0.  0.
    9900012    2    3    3    0    0  0.94079881867E+01  0.29482654135E+02 -0.26370962897E+02  0.50528870390E+02  0.30000032037E+02 0.  0.
         12    1    3    3    0    0 -0.94079881867E+01 -0.29482654135E+02  0.26370962897E+02  0.40659129610E+02  0.00000000000E+00 0. -1.
         11    1    4    4    0    0  0.88482105926E+01  0.93281356595E+01 -0.86949283419E+01  0.15521170211E+02  0.51100000000E-03 0. -1.
        -11    1    4    4    0    0  0.33618773138E+01  0.14543160892E+02  0.13373934835E+01  0.14986472881E+02  0.51100000000E-03 0.  1.
         12    1    4    4    0    0 -0.28020997197E+01  0.56113575831E+01 -0.19013428038E+02  0.20021227298E+02  0.00000000000E+00 0. -1.
</event>
<event>
 8    1  0.1615837E-013  0.9118800E+02  0.7816164E-02  0.1184000E+00
        -11   -1    0    0    0    0  0.00000000000E+00  0.00000000000E+00  0.45593999997E+02  0.45594000000E+02  0.51100000000E-03 0. -1.
         11   -1    0    0    0    0 -0.00000000000E+00 -0.00000000000E+00 -0.45593999997E+02  0.45594000000E+02  0.51100000000E-03 0.  1.
         23    2    1    2    0    0 -0.17763568394E-14  0.00000000000E+00  0.00000000000E+00  0.91188000000E+02  0.91188000000E+02 0.  0.
    9900012    2    3    3    0    0  0.11342379516E+02  0.18559865780E+02  0.34351825643E+02  0.50528854462E+02  0.29999983622E+02 0.  0.
        -12    1    3    3    0    0 -0.11342379516E+02 -0.18559865780E+02 -0.34351825643E+02  0.40659145538E+02  0.00000000000E+00 0.  1.
         11    1    4    4    0    0 -0.58338906745E+00  0.19330688711E+02  0.19031259766E+02  0.27133092662E+02  0.51100000000E-03 0. -1.
        -11    1    4    4    0    0  0.67419194383E+01  0.45848787804E+01  0.24337974085E+01  0.85086991503E+01  0.51100000000E-03 0.  1.
         12    1    4    4    0    0  0.51838491456E+01 -0.53557017111E+01  0.12886768468E+02  0.14887062650E+02  0.00000000000E+00 0. -1.
</event>
<event>
 8    1  0.1615837E-013  0.9118800E+02  0.7816164E-02  0.1184000E+00
        -11   -1    0    0    0    0  0.00000000000E+00  0.00000000000E+00  0.45593999997E+02  0.45594000000E+02  0.51100000000E-03 0. -1.
         11   -1    0    0    0    0 -0.00000000000E+00 -0.00000000000E+00 -0.45593999997E+02  0.45594000000E+02  0.51100000000E-03 0.  1.
         23    2    1    2    0    0  0.00000000000E+00  0.17763568394E-14  0.00000000000E+00  0.91188000000E+02  0.91188000000E+02 0.  0.
    9900012    2    3    3    0    0 -0.21088659671E+02 -0.14775616494E+02  0.31466087748E+02  0.50528867107E+02  0.30000022058E+02 0.  0.
        -12    1    3    3    0    0  0.21088659671E+02  0.14775616494E+02 -0.31466087748E+02  0.40659132893E+02  0.00000000000E+00 0.  1.
         11    1    4    4    0    0 -0.20144954858E+02 -0.16554557240E+02  0.17899876211E+02  0.31627174079E+02  0.51100000000E-03 0. -1.
        -11    1    4    4    0    0 -0.47188472041E+01 -0.16118956798E+01  0.65536163067E+00  0.50294359272E+01  0.51100000000E-03 0.  1.
         12    1    4    4    0    0  0.37751423915E+01  0.33908364260E+01  0.12910849907E+02  0.13872257100E+02  0.00000000000E+00 0. -1.
</event>
<event>
 8    1  0.1615837E-013  0.9118800E+02  0.7816164E-02  0.1184000E+00
        -11   -1    0    0    0    0  0.00000000000E+00  0.00000000000E+00  0.45593999997E+02  0.45594000000E+02  0.51100000000E-03 0. -1.
         11   -1    0    0    0    0 -0.00000000000E+00 -0.00000000000E+00 -0.45593999997E+02  0.45594000000E+02  0.51100000000E-03 0.  1.
         23    2    1    2    0    0  0.00000000000E+00  0.00000000000E+00  0.00000000000E+00  0.91188000000E+02  0.91188000000E+02 0.  0.
    9900012    2    3    3    0    0 -0.13028382243E+02  0.20836434512E+02 -0.32392420888E+02  0.50528872144E+02  0.30000037368E+02 0.  0.
         12    1    3    3    0    0  0.13028382243E+02 -0.20836434512E+02  0.32392420888E+02  0.40659127856E+02  0.00000000000E+00 0. -1.
         11    1    4    4    0    0  0.31828831192E+01  0.10299140836E+02 -0.45911316636E+01  0.11716720408E+02  0.51100000000E-03 0. -1.
        -11    1    4    4    0    0 -0.69047557586E+01 -0.34979479665E+01 -0.19882756483E+01  0.79915287884E+01  0.51100000000E-03 0.  1.
        -12    1    4    4    0    0 -0.93065096034E+01  0.14035241643E+02 -0.25813013576E+02  0.30820622947E+02  0.00000000000E+00 0.  1.
</event>
<event>
 8    1  0.1615837E-013  0.9118800E+02  0.7816164E-02  0.1184000E+00
        -11   -1    0    0    0    0  0.00000000000E+00  0.00000000000E+00  0.45593999997E+02  0.45594000000E+02  0.51100000000E-03 0. -1.
         11   -1    0    0    0    0 -0.00000000000E+00 -0.00000000000E+00 -0.45593999997E+02  0.45594000000E+02  0.51100000000E-03 0.  1.
         23    2    1    2    0    0  0.00000000000E+00  0.22204460493E-15  0.00000000000E+00  0.91188000000E+02  0.91188000000E+02 0.  0.
    9900012    2    3    3    0    0  0.47979585546E+01  0.14832389987E+01  0.40347806535E+02  0.50528857161E+02  0.29999991826E+02 0.  0.
        -12    1    3    3    0    0 -0.47979585546E+01 -0.14832389987E+01 -0.40347806535E+02  0.40659142839E+02  0.00000000000E+00 0.  1.
         11    1    4    4    0    0  0.10335867499E+02 -0.79531802671E+01  0.18168273082E+02  0.22364466914E+02  0.51100000000E-03 0. -1.
        -11    1    4    4    0    0  0.16865899224E+01 -0.25861442099E+01  0.23716263729E+01  0.38932427813E+01  0.51100000000E-03 0.  1.
         12    1    4    4    0    0 -0.72244988664E+01  0.12022563476E+02  0.19807907080E+02  0.24271147465E+02  0.00000000000E+00 0. -1.
</event>
<event>
 8    1  0.1615837E-013  0.9118800E+02  0.7816164E-02  0.1184000E+00
        -11   -1    0    0    0    0  0.00000000000E+00  0.00000000000E+00  0.45593999997E+02  0.45594000000E+02  0.51100000000E-03 0. -1.
         11   -1    0    0    0    0 -0.00000000000E+00 -0.00000000000E+00 -0.45593999997E+02  0.45594000000E+02  0.51100000000E-03 0.  1.
         23    2    1    2    0    0 -0.71054273576E-14 -0.88817841970E-15  0.00000000000E+00  0.91188000000E+02  0.91188000000E+02 0.  0.
    9900012    2    3    3    0    0  0.28059761417E+02  0.76330364818E+01  0.28417462349E+02  0.50528860522E+02  0.30000002044E+02 0.  0.
        -12    1    3    3    0    0 -0.28059761417E+02 -0.76330364818E+01 -0.28417462349E+02  0.40659139478E+02  0.00000000000E+00 0.  1.
         11    1    4    4    0    0  0.89745264790E+01  0.71630002468E+01  0.20305102467E+02  0.23326977612E+02  0.51100000000E-03 0.  1.
        -11    1    4    4    0    0  0.15423690597E+02  0.19106146943E+01  0.13461836046E+02  0.20561169960E+02  0.51100000000E-03 0. -1.
        -12    1    4    4    0    0  0.36615443408E+01 -0.14405784594E+01 -0.53494761640E+01  0.66407129502E+01  0.00000000000E+00 0.  1.
</event>
<event>
 8    1  0.1615837E-013  0.9118800E+02  0.7816164E-02  0.1184000E+00
        -11   -1    0    0    0    0  0.00000000000E+00  0.00000000000E+00  0.45593999997E+02  0.45594000000E+02  0.51100000000E-03 0.  1.
         11   -1    0    0    0    0 -0.00000000000E+00 -0.00000000000E+00 -0.45593999997E+02  0.45594000000E+02  0.51100000000E-03 0. -1.
         23    2    1    2    0    0  0.00000000000E+00  0.00000000000E+00 -0.13322676296E-14  0.91188000000E+02  0.91188000000E+02 0.  0.
    9900012    2    3    3    0    0 -0.17879893540E+02 -0.36446225318E+02 -0.22688784185E+01  0.50528859057E+02  0.29999997589E+02 0.  0.
         12    1    3    3    0    0  0.17879893540E+02  0.36446225318E+02  0.22688784185E+01  0.40659140943E+02  0.00000000000E+00 0. -1.
         11    1    4    4    0    0  0.12093867918E+01 -0.54745066722E+01 -0.27997393141E+01  0.62666881368E+01  0.51100000000E-03 0. -1.
        -11    1    4    4    0    0 -0.57028516216E+01 -0.12316368186E+02 -0.11989003520E+02  0.18109435319E+02  0.51100000000E-03 0.  1.
         12    1    4    4    0    0 -0.13386428710E+02 -0.18655350460E+02  0.12519864416E+02  0.26152735601E+02  0.00000000000E+00 0. -1.
</event>
<event>
 8    1  0.1615837E-013  0.9118800E+02  0.7816164E-02  0.1184000E+00
        -11   -1    0    0    0    0  0.00000000000E+00  0.00000000000E+00  0.45593999997E+02  0.45594000000E+02  0.51100000000E-03 0. -1.
         11   -1    0    0    0    0 -0.00000000000E+00 -0.00000000000E+00 -0.45593999997E+02  0.45594000000E+02  0.51100000000E-03 0.  1.
         23    2    1    2    0    0  0.00000000000E+00 -0.35527136788E-14 -0.17763568394E-14  0.91188000000E+02  0.91188000000E+02 0.  0.
    9900012    2    3    3    0    0  0.35011230291E+02 -0.16387818589E+02  0.12602327689E+02  0.50528861940E+02  0.30000006352E+02 0.  0.
        -12    1    3    3    0    0 -0.35011230291E+02  0.16387818589E+02 -0.12602327689E+02  0.40659138060E+02  0.00000000000E+00 0.  1.
         11    1    4    4    0    0  0.24785127418E+02 -0.13151530392E+02  0.51915045684E+01  0.28534488128E+02  0.51100000000E-03 0. -1.
        -11    1    4    4    0    0 -0.98669172341E+00 -0.82653765092E+01  0.19651920906E+01  0.85528936396E+01  0.51100000000E-03 0.  1.
        -12    1    4    4    0    0  0.11212794596E+02  0.50290883117E+01  0.54456310297E+01  0.13441480172E+02  0.00000000000E+00 0.  1.
</event>
<event>
 8    1  0.1615837E-013  0.9118800E+02  0.7816164E-02  0.1184000E+00
        -11   -1    0    0    0    0  0.00000000000E+00  0.00000000000E+00  0.45593999997E+02  0.45594000000E+02  0.51100000000E-03 0. -1.
         11   -1    0    0    0    0 -0.00000000000E+00 -0.00000000000E+00 -0.45593999997E+02  0.45594000000E+02  0.51100000000E-03 0.  1.
         23    2    1    2    0    0  0.17763568394E-14  0.00000000000E+00 -0.35527136788E-14  0.91188000000E+02  0.91188000000E+02 0.  0.
    9900012    2    3    3    0    0 -0.14663309238E+02 -0.24408258563E+02 -0.29023880939E+02  0.50528912595E+02  0.30000160324E+02 0.  0.
         12    1    3    3    0    0  0.14663309238E+02  0.24408258563E+02  0.29023880939E+02  0.40659087405E+02  0.00000000000E+00 0. -1.
         11    1    4    4    0    0  0.15264137487E+01  0.12950680942E+01 -0.33207085775E+01  0.38774019677E+01  0.51100000000E-03 0. -1.
        -11    1    4    4    0    0  0.30552798184E+01  0.79246597743E+00 -0.97045130166E+01  0.10204915984E+02  0.51100000000E-03 0.  1.
        -12    1    4    4    0    0 -0.19245002805E+02 -0.26495792634E+02 -0.15998659345E+02  0.36446594643E+02  0.00000000000E+00 0.  1.
</event>
<event>
 8    1  0.1615837E-013  0.9118800E+02  0.7816164E-02  0.1184000E+00
        -11   -1    0    0    0    0  0.00000000000E+00  0.00000000000E+00  0.45593999997E+02  0.45594000000E+02  0.51100000000E-03 0. -1.
         11   -1    0    0    0    0 -0.00000000000E+00 -0.00000000000E+00 -0.45593999997E+02  0.45594000000E+02  0.51100000000E-03 0.  1.
         23    2    1    2    0    0 -0.17763568394E-14  0.00000000000E+00 -0.17763568394E-14  0.91188000000E+02  0.91188000000E+02 0.  0.
    9900012    2    3    3    0    0  0.52643807536E+01 -0.37016578838E+02 -0.15975774452E+02  0.50528853637E+02  0.29999981115E+02 0.  0.
         12    1    3    3    0    0 -0.52643807536E+01  0.37016578838E+02  0.15975774452E+02  0.40659146363E+02  0.00000000000E+00 0. -1.
         11    1    4    4    0    0  0.73026700774E+01 -0.97186839511E+01  0.70937343222E+00  0.12177233632E+02  0.51100000000E-03 0. -1.
        -11    1    4    4    0    0  0.93184616744E+01 -0.15046341294E+02 -0.69317857936E+01  0.19007255690E+02  0.51100000000E-03 0.  1.
         12    1    4    4    0    0 -0.11356750998E+02 -0.12251553593E+02 -0.97533620909E+01  0.19344364315E+02  0.00000000000E+00 0. -1.
</event>
<event>
 8    1  0.1615837E-013  0.9118800E+02  0.7816164E-02  0.1184000E+00
        -11   -1    0    0    0    0  0.00000000000E+00  0.00000000000E+00  0.45593999997E+02  0.45594000000E+02  0.51100000000E-03 0. -1.
         11   -1    0    0    0    0 -0.00000000000E+00 -0.00000000000E+00 -0.45593999997E+02  0.45594000000E+02  0.51100000000E-03 0.  1.
         23    2    1    2    0    0  0.00000000000E+00 -0.44408920985E-15  0.00000000000E+00  0.91188000000E+02  0.91188000000E+02 0.  0.
    9900012    2    3    3    0    0  0.42738276287E+01 -0.24445434079E+01 -0.40359925260E+02  0.50528868651E+02  0.30000026751E+02 0.  0.
         12    1    3    3    0    0 -0.42738276287E+01  0.24445434079E+01  0.40359925260E+02  0.40659131349E+02  0.00000000000E+00 0. -1.
         11    1    4    4    0    0  0.29459351314E+01 -0.66472146791E+01  0.44502236635E+00  0.72843697021E+01  0.51100000000E-03 0. -1.
        -11    1    4    4    0    0 -0.33323740000E+01  0.32240517857E+01 -0.39731744240E+01  0.61061724228E+01  0.51100000000E-03 0.  1.
        -12    1    4    4    0    0  0.46602664973E+01  0.97861948552E+00 -0.36831773202E+02  0.37138326526E+02  0.00000000000E+00 0.  1.
</event>
<event>
 8    1  0.1615837E-013  0.9118800E+02  0.7816164E-02  0.1184000E+00
        -11   -1    0    0    0    0  0.00000000000E+00  0.00000000000E+00  0.45593999997E+02  0.45594000000E+02  0.51100000000E-03 0. -1.
         11   -1    0    0    0    0 -0.00000000000E+00 -0.00000000000E+00 -0.45593999997E+02  0.45594000000E+02  0.51100000000E-03 0.  1.
         23    2    1    2    0    0 -0.44408920985E-15 -0.22204460493E-15  0.00000000000E+00  0.91188000000E+02  0.91188000000E+02 0.  0.
    9900012    2    3    3    0    0  0.33337709137E+01 -0.55860900481E+00 -0.40518401617E+02  0.50528844302E+02  0.29999952739E+02 0.  0.
         12    1    3    3    0    0 -0.33337709137E+01  0.55860900481E+00  0.40518401617E+02  0.40659155698E+02  0.00000000000E+00 0. -1.
         11    1    4    4    0    0 -0.68284561930E+01  0.15083362648E+01 -0.33087176649E+01  0.77363108207E+01  0.51100000000E-03 0. -1.
        -11    1    4    4    0    0  0.81897255067E+00 -0.65189262095E+01 -0.28554818662E+02  0.29300934867E+02  0.51100000000E-03 0.  1.
        -12    1    4    4    0    0  0.93432545560E+01  0.44519809399E+01 -0.86548652897E+01  0.13491598614E+02  0.00000000000E+00 0.  1.
</event>
<event>
 8    1  0.1615837E-013  0.9118800E+02  0.7816164E-02  0.1184000E+00
        -11   -1    0    0    0    0  0.00000000000E+00  0.00000000000E+00  0.45593999997E+02  0.45594000000E+02  0.51100000000E-03 0. -1.
         11   -1    0    0    0    0 -0.00000000000E+00 -0.00000000000E+00 -0.45593999997E+02  0.45594000000E+02  0.51100000000E-03 0.  1.
         23    2    1    2    0    0  0.00000000000E+00 -0.35527136788E-14 -0.71054273576E-14  0.91188000000E+02  0.91188000000E+02 0.  0.
    9900012    2    3    3    0    0  0.18790227300E+02  0.25156615563E+02 -0.25830948386E+02  0.50528857817E+02  0.29999993819E+02 0.  0.
         12    1    3    3    0    0 -0.18790227300E+02 -0.25156615563E+02  0.25830948386E+02  0.40659142183E+02  0.00000000000E+00 0. -1.
         11    1    4    4    0    0  0.43544615113E+01  0.11161707718E+02 -0.20043813175E+02  0.23351648787E+02  0.51100000000E-03 0.  1.
        -11    1    4    4    0    0 -0.18551166838E+01  0.45769935957E+01 -0.67167650340E+01  0.83369815322E+01  0.51100000000E-03 0. -1.
         12    1    4    4    0    0  0.16290882472E+02  0.94179142493E+01  0.92962982276E+00  0.18840227497E+02  0.00000000000E+00 0. -1.
</event>
<event>
 8    1  0.1615837E-013  0.9118800E+02  0.7816164E-02  0.1184000E+00
        -11   -1    0    0    0    0  0.00000000000E+00  0.00000000000E+00  0.45593999997E+02  0.45594000000E+02  0.51100000000E-03 0. -1.
         11   -1    0    0    0    0 -0.00000000000E+00 -0.00000000000E+00 -0.45593999997E+02  0.45594000000E+02  0.51100000000E-03 0.  1.
         23    2    1    2    0    0 -0.35527136788E-14  0.00000000000E+00 -0.35527136788E-14  0.91188000000E+02  0.91188000000E+02 0.  0.
    9900012    2    3    3    0    0 -0.31071183794E+02  0.12881524936E+02 -0.22843252719E+02  0.50528851683E+02  0.29999975176E+02 0.  0.
         12    1    3    3    0    0  0.31071183794E+02 -0.12881524936E+02  0.22843252719E+02  0.40659148317E+02  0.00000000000E+00 0. -1.
         11    1    4    4    0    0 -0.29641897057E+01  0.40344525626E+01 -0.51607408199E+00  0.50328481808E+01  0.51100000000E-03 0. -1.
        -11    1    4    4    0    0 -0.56396378222E+01  0.39180013493E+01  0.59211804862E+01  0.90673385263E+01  0.51100000000E-03 0.  1.
        -12    1    4    4    0    0 -0.22467356266E+02  0.49290710239E+01 -0.28248359124E+02  0.36428664976E+02  0.00000000000E+00 0.  1.
</event>
<event>
 8    1  0.1615837E-013  0.9118800E+02  0.7816164E-02  0.1184000E+00
        -11   -1    0    0    0    0  0.00000000000E+00  0.00000000000E+00  0.45593999997E+02  0.45594000000E+02  0.51100000000E-03 0. -1.
         11   -1    0    0    0    0 -0.00000000000E+00 -0.00000000000E+00 -0.45593999997E+02  0.45594000000E+02  0.51100000000E-03 0.  1.
         23    2    1    2    0    0  0.00000000000E+00  0.00000000000E+00  0.35527136788E-14  0.91188000000E+02  0.91188000000E+02 0.  0.
    9900012    2    3    3    0    0  0.25424776448E+02  0.93694358223E+01 -0.30314351704E+02  0.50528861983E+02  0.30000006484E+02 0.  0.
         12    1    3    3    0    0 -0.25424776448E+02 -0.93694358223E+01  0.30314351704E+02  0.40659138017E+02  0.00000000000E+00 0. -1.
         11    1    4    4    0    0 -0.29478056862E+01 -0.18792227208E+01 -0.14022426660E+01  0.37666060523E+01  0.51100000000E-03 0. -1.
        -11    1    4    4    0    0 -0.20092707441E+01 -0.26556192821E+01 -0.29523741380E+01  0.44503927924E+01  0.51100000000E-03 0.  1.
         12    1    4    4    0    0  0.30381852879E+02  0.13904277825E+02 -0.25959734900E+02  0.42311863138E+02  0.00000000000E+00 0. -1.
</event>
<event>
 8    1  0.1615837E-013  0.9118800E+02  0.7816164E-02  0.1184000E+00
        -11   -1    0    0    0    0  0.00000000000E+00  0.00000000000E+00  0.45593999997E+02  0.45594000000E+02  0.51100000000E-03 0. -1.
         11   -1    0    0    0    0 -0.00000000000E+00 -0.00000000000E+00 -0.45593999997E+02  0.45594000000E+02  0.51100000000E-03 0.  1.
         23    2    1    2    0    0  0.26645352591E-14 -0.35527136788E-14  0.35527136788E-14  0.91188000000E+02  0.91188000000E+02 0.  0.
    9900012    2    3    3    0    0 -0.66376670399E+01  0.30121896820E+02  0.26491080002E+02  0.50528872962E+02  0.30000039856E+02 0.  0.
        -12    1    3    3    0    0  0.66376670399E+01 -0.30121896820E+02 -0.26491080002E+02  0.40659127038E+02  0.00000000000E+00 0.  1.
         11    1    4    4    0    0 -0.42566055748E+01  0.58452574640E+01 -0.15066630459E+00  0.72324564593E+01  0.51100000000E-03 0. -1.
        -11    1    4    4    0    0 -0.82457599049E+01  0.21774589903E+02  0.97522690715E+01  0.25243456066E+02  0.51100000000E-03 0.  1.
        -12    1    4    4    0    0  0.58646984399E+01  0.25020494536E+01  0.16889477235E+02  0.18052960437E+02  0.00000000000E+00 0.  1.
</event>
<event>
 8    1  0.1615837E-013  0.9118800E+02  0.7816164E-02  0.1184000E+00
        -11   -1    0    0    0    0  0.00000000000E+00  0.00000000000E+00  0.45593999997E+02  0.45594000000E+02  0.51100000000E-03 0. -1.
         11   -1    0    0    0    0 -0.00000000000E+00 -0.00000000000E+00 -0.45593999997E+02  0.45594000000E+02  0.51100000000E-03 0.  1.
         23    2    1    2    0    0  0.00000000000E+00  0.00000000000E+00  0.00000000000E+00  0.91188000000E+02  0.91188000000E+02 0.  0.
    9900012    2    3    3    0    0  0.19168116654E+02  0.14378107754E+02  0.32848417482E+02  0.50528865606E+02  0.30000017496E+02 0.  0.
        -12    1    3    3    0    0 -0.19168116654E+02 -0.14378107754E+02 -0.32848417482E+02  0.40659134394E+02  0.00000000000E+00 0.  1.
         11    1    4    4    0    0  0.15636005314E+02 -0.38495013663E+01  0.10752859377E+02  0.19363039741E+02  0.51100000000E-03 0. -1.
        -11    1    4    4    0    0  0.60756074744E+01  0.36075193713E+01  0.59599251410E+01  0.92438038785E+01  0.51100000000E-03 0.  1.
        -12    1    4    4    0    0 -0.25434961347E+01  0.14620089749E+02  0.16135632964E+02  0.21922021987E+02  0.00000000000E+00 0.  1.
</event>
<event>
 8    1  0.1615837E-013  0.9118800E+02  0.7816164E-02  0.1184000E+00
        -11   -1    0    0    0    0  0.00000000000E+00  0.00000000000E+00  0.45593999997E+02  0.45594000000E+02  0.51100000000E-03 0. -1.
         11   -1    0    0    0    0 -0.00000000000E+00 -0.00000000000E+00 -0.45593999997E+02  0.45594000000E+02  0.51100000000E-03 0.  1.
         23    2    1    2    0    0  0.00000000000E+00 -0.35527136788E-14 -0.35527136788E-14  0.91188000000E+02  0.91188000000E+02 0.  0.
    9900012    2    3    3    0    0 -0.24235449346E+01  0.30416372315E+02  0.26872608432E+02  0.50528851475E+02  0.29999974542E+02 0.  0.
        -12    1    3    3    0    0  0.24235449346E+01 -0.30416372315E+02 -0.26872608432E+02  0.40659148525E+02  0.00000000000E+00 0.  1.
         11    1    4    4    0    0  0.23325417888E+01  0.16180880583E+02  0.17713310469E+02  0.24104419007E+02  0.51100000000E-03 0. -1.
        -11    1    4    4    0    0  0.66779760971E+01  0.10945640259E+02  0.57153770261E+01  0.14038088910E+02  0.51100000000E-03 0.  1.
         12    1    4    4    0    0 -0.11434062821E+02  0.32898514724E+01  0.34439209372E+01  0.12386343557E+02  0.00000000000E+00 0. -1.
</event>
<event>
 8    1  0.1615837E-013  0.9118800E+02  0.7816164E-02  0.1184000E+00
        -11   -1    0    0    0    0  0.00000000000E+00  0.00000000000E+00  0.45593999997E+02  0.45594000000E+02  0.51100000000E-03 0. -1.
         11   -1    0    0    0    0 -0.00000000000E+00 -0.00000000000E+00 -0.45593999997E+02  0.45594000000E+02  0.51100000000E-03 0.  1.
         23    2    1    2    0    0  0.00000000000E+00  0.00000000000E+00  0.00000000000E+00  0.91188000000E+02  0.91188000000E+02 0.  0.
    9900012    2    3    3    0    0  0.22019507843E+02  0.21186285273E+02  0.26822546718E+02  0.50528850700E+02  0.29999972189E+02 0.  0.
        -12    1    3    3    0    0 -0.22019507843E+02 -0.21186285273E+02 -0.26822546718E+02  0.40659149300E+02  0.00000000000E+00 0.  1.
         11    1    4    4    0    0  0.16515706302E+02  0.15474553571E+02  0.29106963442E+02  0.36870661561E+02  0.51100000000E-03 0. -1.
        -11    1    4    4    0    0  0.44822434083E+01 -0.19985913126E+01  0.13256183416E+01  0.50835162491E+01  0.51100000000E-03 0.  1.
        -12    1    4    4    0    0  0.10215581328E+01  0.77103230144E+01 -0.36100350652E+01  0.85746728904E+01  0.00000000000E+00 0.  1.
</event>
<event>
 8    1  0.1841292E-013  0.9118800E+02  0.7816164E-02  0.1184000E+00
        -11   -1    0    0    0    0  0.00000000000E+00  0.00000000000E+00  0.45593999997E+02  0.45594000000E+02  0.51100000000E-03 0. -1.
         11   -1    0    0    0    0 -0.00000000000E+00 -0.00000000000E+00 -0.45593999997E+02  0.45594000000E+02  0.51100000000E-03 0.  1.
         23    2    1    2    0    0  0.00000000000E+00  0.00000000000E+00  0.00000000000E+00  0.91188000000E+02  0.91188000000E+02 0.  0.
    9900012    2    3    3    0    0  0.37025625719E+02  0.13676941577E+02  0.97574523202E+01  0.50528885812E+02  0.30000078913E+02 0.  0.
        -12    1    3    3    0    0 -0.37025625719E+02 -0.13676941577E+02 -0.97574523202E+01  0.40659114188E+02  0.00000000000E+00 0.  1.
         11    1    4    4    0    0  0.26854559316E+02  0.89329784041E+01 -0.77914497177E+00  0.28312056202E+02  0.51100000000E-03 0. -1.
        -11    1    4    4    0    0  0.13664754173E+02  0.59437248821E+01  0.53155110761E+01  0.15821126077E+02  0.51100000000E-03 0.  1.
        -12    1    4    4    0    0 -0.34936877705E+01 -0.11997617095E+01  0.52210862158E+01  0.63957035321E+01  0.00000000000E+00 0.  1.
</event>
<event>
 8    1  0.1615837E-013  0.9118800E+02  0.7816164E-02  0.1184000E+00
        -11   -1    0    0    0    0  0.00000000000E+00  0.00000000000E+00  0.45593999997E+02  0.45594000000E+02  0.51100000000E-03 0. -1.
         11   -1    0    0    0    0 -0.00000000000E+00 -0.00000000000E+00 -0.45593999997E+02  0.45594000000E+02  0.51100000000E-03 0.  1.
         23    2    1    2    0    0 -0.71054273576E-14  0.00000000000E+00  0.44408920985E-15  0.91188000000E+02  0.91188000000E+02 0.  0.
    9900012    2    3    3    0    0  0.40197061086E+02 -0.53906261225E+01 -0.28816985275E+01  0.50528846586E+02  0.29999959684E+02 0.  0.
        -12    1    3    3    0    0 -0.40197061086E+02  0.53906261225E+01  0.28816985275E+01  0.40659153414E+02  0.00000000000E+00 0.  1.
         11    1    4    4    0    0  0.38768898343E+01  0.63700109843E+01 -0.21312948105E+01  0.77556258650E+01  0.51100000000E-03 0. -1.
        -11    1    4    4    0    0  0.36503019359E+01  0.15071055994E+01 -0.59391417959E+01  0.71322841393E+01  0.51100000000E-03 0.  1.
        -12    1    4    4    0    0  0.32669869315E+02 -0.13267742706E+02  0.51887380789E+01  0.35640936582E+02  0.00000000000E+00 0.  1.
</event>
<event>
 8    1  0.1615837E-013  0.9118800E+02  0.7816164E-02  0.1184000E+00
        -11   -1    0    0    0    0  0.00000000000E+00  0.00000000000E+00  0.45593999997E+02  0.45594000000E+02  0.51100000000E-03 0. -1.
         11   -1    0    0    0    0 -0.00000000000E+00 -0.00000000000E+00 -0.45593999997E+02  0.45594000000E+02  0.51100000000E-03 0.  1.
         23    2    1    2    0    0  0.35527136788E-14  0.17763568394E-14  0.00000000000E+00  0.91188000000E+02  0.91188000000E+02 0.  0.
    9900012    2    3    3    0    0 -0.20377068582E+02  0.80439943882E+01  0.34252510023E+02  0.50528865571E+02  0.30000017388E+02 0.  0.
        -12    1    3    3    0    0  0.20377068582E+02 -0.80439943882E+01 -0.34252510023E+02  0.40659134429E+02  0.00000000000E+00 0.  1.
         11    1    4    4    0    0 -0.65101444897E+00 -0.18365881934E+01 -0.53338485474E+00  0.20202414879E+01  0.51100000000E-03 0. -1.
        -11    1    4    4    0    0 -0.44296082196E+01 -0.86396879795E+01  0.11550948656E+02  0.15089401992E+02  0.51100000000E-03 0.  1.
         12    1    4    4    0    0 -0.15296445913E+02  0.18520270561E+02  0.23234946221E+02  0.33419222090E+02  0.00000000000E+00 0. -1.
</event>
<event>
 8    1  0.1615837E-013  0.9118800E+02  0.7816164E-02  0.1184000E+00
        -11   -1    0    0    0    0  0.00000000000E+00  0.00000000000E+00  0.45593999997E+02  0.45594000000E+02  0.51100000000E-03 0. -1.
         11   -1    0    0    0    0 -0.00000000000E+00 -0.00000000000E+00 -0.45593999997E+02  0.45594000000E+02  0.51100000000E-03 0.  1.
         23    2    1    2    0    0  0.00000000000E+00  0.88817841970E-15  0.00000000000E+00  0.91188000000E+02  0.91188000000E+02 0.  0.
    9900012    2    3    3    0    0  0.12814304566E+00 -0.27530714458E+01  0.40565625452E+02  0.50528858453E+02  0.29999995754E+02 0.  0.
        -12    1    3    3    0    0 -0.12814304566E+00  0.27530714458E+01 -0.40565625452E+02  0.40659141547E+02  0.00000000000E+00 0.  1.
         11    1    4    4    0    0  0.52841204810E+01 -0.66866150369E+01  0.14008302839E+02  0.16397112508E+02  0.51100000000E-03 0. -1.
        -11    1    4    4    0    0 -0.26861169949E+00  0.30779378553E+01 -0.29131904156E+01  0.42464729300E+01  0.51100000000E-03 0.  1.
         12    1    4    4    0    0 -0.48873657358E+01  0.85560573581E+00  0.29470513028E+02  0.29885273015E+02  0.00000000000E+00 0. -1.
</event>
<event>
 8    1  0.1615837E-013  0.9118800E+02  0.7816164E-02  0.1184000E+00
        -11   -1    0    0    0    0  0.00000000000E+00  0.00000000000E+00  0.45593999997E+02  0.45594000000E+02  0.51100000000E-03 0. -1.
         11   -1    0    0    0    0 -0.00000000000E+00 -0.00000000000E+00 -0.45593999997E+02  0.45594000000E+02  0.51100000000E-03 0.  1.
         23    2    1    2    0    0  0.00000000000E+00 -0.88817841970E-15  0.00000000000E+00  0.91188000000E+02  0.91188000000E+02 0.  0.
    9900012    2    3    3    0    0  0.38039235783E+02 -0.46593975816E+01  0.13582067583E+02  0.50528855830E+02  0.29999987782E+02 0.  0.
        -12    1    3    3    0    0 -0.38039235783E+02  0.46593975816E+01 -0.13582067583E+02  0.40659144170E+02  0.00000000000E+00 0.  1.
         11    1    4    4    0    0  0.71597632472E+01  0.42789873809E+01  0.15109710750E+01  0.84767314817E+01  0.51100000000E-03 0. -1.
        -11    1    4    4    0    0  0.11226738005E+02  0.83202068869E+01  0.24691847052E+01  0.14190220656E+02  0.51100000000E-03 0.  1.
        -12    1    4    4    0    0  0.19652734530E+02 -0.17258591849E+02  0.96019118026E+01  0.27861903693E+02  0.00000000000E+00 0.  1.
</event>
<event>
 8    1  0.1615837E-013  0.9118800E+02  0.7816164E-02  0.1184000E+00
        -11   -1    0    0    0    0  0.00000000000E+00  0.00000000000E+00  0.45593999997E+02  0.45594000000E+02  0.51100000000E-03 0. -1.
         11   -1    0    0    0    0 -0.00000000000E+00 -0.00000000000E+00 -0.45593999997E+02  0.45594000000E+02  0.51100000000E-03 0.  1.
         23    2    1    2    0    0 -0.17763568394E-14 -0.44408920985E-15  0.71054273576E-14  0.91188000000E+02  0.91188000000E+02 0.  0.
    9900012    2    3    3    0    0 -0.80574426813E+01  0.85103002753E+00 -0.39843686598E+02  0.50528855931E+02  0.29999988089E+02 0.  0.
         12    1    3    3    0    0  0.80574426813E+01 -0.85103002753E+00  0.39843686598E+02  0.40659144069E+02  0.00000000000E+00 0. -1.
         11    1    4    4    0    0 -0.70997098496E+01  0.40631236311E+01 -0.52167625405E+01  0.97020340782E+01  0.51100000000E-03 0. -1.
        -11    1    4    4    0    0 -0.80141008842E+01 -0.11414603853E+00 -0.31510883611E+02  0.32514221943E+02  0.51100000000E-03 0.  1.
         12    1    4    4    0    0  0.70563680525E+01 -0.30979475651E+01 -0.31160404463E+01  0.83125999105E+01  0.00000000000E+00 0. -1.
</event>
<event>
 8    1  0.1615837E-013  0.9118800E+02  0.7816164E-02  0.1184000E+00
        -11   -1    0    0    0    0  0.00000000000E+00  0.00000000000E+00  0.45593999997E+02  0.45594000000E+02  0.51100000000E-03 0. -1.
         11   -1    0    0    0    0 -0.00000000000E+00 -0.00000000000E+00 -0.45593999997E+02  0.45594000000E+02  0.51100000000E-03 0.  1.
         23    2    1    2    0    0  0.00000000000E+00  0.00000000000E+00  0.00000000000E+00  0.91188000000E+02  0.91188000000E+02 0.  0.
    9900012    2    3    3    0    0  0.92022545572E+01  0.14952296753E+02  0.36673063576E+02  0.50528852700E+02  0.29999978266E+02 0.  0.
        -12    1    3    3    0    0 -0.92022545572E+01 -0.14952296753E+02 -0.36673063576E+02  0.40659147300E+02  0.00000000000E+00 0.  1.
         11    1    4    4    0    0 -0.81615774329E-01  0.14647099094E+01  0.20790266294E+02  0.20841957900E+02  0.51100000000E-03 0. -1.
        -11    1    4    4    0    0 -0.40788589858E+01 -0.15218022628E+01  0.56589703429E+01  0.71398122074E+01  0.51100000000E-03 0.  1.
        -12    1    4    4    0    0  0.13362729317E+02  0.15009389107E+02  0.10223826939E+02  0.22547082593E+02  0.00000000000E+00 0.  1.
</event>
<event>
 8    1  0.1615837E-013  0.9118800E+02  0.7816164E-02  0.1184000E+00
        -11   -1    0    0    0    0  0.00000000000E+00  0.00000000000E+00  0.45593999997E+02  0.45594000000E+02  0.51100000000E-03 0. -1.
         11   -1    0    0    0    0 -0.00000000000E+00 -0.00000000000E+00 -0.45593999997E+02  0.45594000000E+02  0.51100000000E-03 0.  1.
         23    2    1    2    0    0 -0.17763568394E-14  0.00000000000E+00  0.00000000000E+00  0.91188000000E+02  0.91188000000E+02 0.  0.
    9900012    2    3    3    0    0 -0.57320723047E+01  0.35117707425E+02  0.19673753708E+02  0.50528848353E+02  0.29999965053E+02 0.  0.
        -12    1    3    3    0    0  0.57320723047E+01 -0.35117707425E+02 -0.19673753708E+02  0.40659151647E+02  0.00000000000E+00 0.  1.
         11    1    4    4    0    0 -0.37240914982E+01  0.53239276634E+01  0.66204224062E+01  0.92759396478E+01  0.51100000000E-03 0. -1.
        -11    1    4    4    0    0 -0.10189458007E+02  0.97586329074E+01  0.13611713909E+02  0.19604456802E+02  0.51100000000E-03 0.  1.
        -12    1    4    4    0    0  0.81814772006E+01  0.20035146855E+02 -0.55838260714E+00  0.21648451903E+02  0.00000000000E+00 0.  1.
</event>
<event>
 8    1  0.1615837E-013  0.9118800E+02  0.7816164E-02  0.1184000E+00
        -11   -1    0    0    0    0  0.00000000000E+00  0.00000000000E+00  0.45593999997E+02  0.45594000000E+02  0.51100000000E-03 0. -1.
         11   -1    0    0    0    0 -0.00000000000E+00 -0.00000000000E+00 -0.45593999997E+02  0.45594000000E+02  0.51100000000E-03 0.  1.
         23    2    1    2    0    0  0.17763568394E-14  0.71054273576E-14  0.00000000000E+00  0.91188000000E+02  0.91188000000E+02 0.  0.
    9900012    2    3    3    0    0 -0.10138901194E+02 -0.39336835967E+02  0.17267150791E+01  0.50528861712E+02  0.30000005661E+02 0.  0.
        -12    1    3    3    0    0  0.10138901194E+02  0.39336835967E+02 -0.17267150791E+01  0.40659138288E+02  0.00000000000E+00 0.  1.
         11    1    4    4    0    0 -0.68414814169E+01 -0.51581560592E+01  0.24396495918E+00  0.85715786802E+01  0.51100000000E-03 0. -1.
        -11    1    4    4    0    0 -0.92823802579E+01 -0.27277681262E+01  0.22488896930E+01  0.99328146723E+01  0.51100000000E-03 0.  1.
        -12    1    4    4    0    0  0.59849604811E+01 -0.31450911782E+02 -0.76613957305E+00  0.32024468360E+02  0.00000000000E+00 0.  1.
</event>
<event>
 8    1  0.1615837E-013  0.9118800E+02  0.7816164E-02  0.1184000E+00
        -11   -1    0    0    0    0  0.00000000000E+00  0.00000000000E+00  0.45593999997E+02  0.45594000000E+02  0.51100000000E-03 0. -1.
         11   -1    0    0    0    0 -0.00000000000E+00 -0.00000000000E+00 -0.45593999997E+02  0.45594000000E+02  0.51100000000E-03 0.  1.
         23    2    1    2    0    0  0.00000000000E+00  0.00000000000E+00  0.71054273576E-14  0.91188000000E+02  0.91188000000E+02 0.  0.
    9900012    2    3    3    0    0  0.85832612204E+01 -0.99601058929E+01 -0.38474531035E+02  0.50528860548E+02  0.30000002123E+02 0.  0.
         12    1    3    3    0    0 -0.85832612204E+01  0.99601058929E+01  0.38474531035E+02  0.40659139452E+02  0.00000000000E+00 0. -1.
         11    1    4    4    0    0 -0.82309885457E+00  0.98944547254E+00 -0.26093634018E+01  0.29095139957E+01  0.51100000000E-03 0. -1.
        -11    1    4    4    0    0  0.10694629927E+02 -0.15155723014E+02 -0.38325999935E+02  0.42578789563E+02  0.51100000000E-03 0.  1.
        -12    1    4    4    0    0 -0.12882698518E+01  0.42061716483E+01  0.24608323021E+01  0.50405569896E+01  0.00000000000E+00 0.  1.
</event>
<event>
 8    1  0.1615837E-013  0.9118800E+02  0.7816164E-02  0.1184000E+00
        -11   -1    0    0    0    0  0.00000000000E+00  0.00000000000E+00  0.45593999997E+02  0.45594000000E+02  0.51100000000E-03 0. -1.
         11   -1    0    0    0    0 -0.00000000000E+00 -0.00000000000E+00 -0.45593999997E+02  0.45594000000E+02  0.51100000000E-03 0.  1.
         23    2    1    2    0    0 -0.17763568394E-14  0.00000000000E+00  0.00000000000E+00  0.91188000000E+02  0.91188000000E+02 0.  0.
    9900012    2    3    3    0    0  0.96844449454E+01 -0.15421878077E+02 -0.36353023326E+02  0.50528866927E+02  0.30000021511E+02 0.  0.
         12    1    3    3    0    0 -0.96844449454E+01  0.15421878077E+02  0.36353023326E+02  0.40659133073E+02  0.00000000000E+00 0. -1.
         11    1    4    4    0    0  0.91187409846E+01 -0.37364715426E+01 -0.10769537126E+02  0.14597793906E+02  0.51100000000E-03 0.  1.
        -11    1    4    4    0    0  0.10393979256E+02 -0.11337048868E+02 -0.15009576640E+02  0.21490715972E+02  0.51100000000E-03 0. -1.
        -12    1    4    4    0    0 -0.98282752953E+01 -0.34835766630E+00 -0.10573909559E+02  0.14440357049E+02  0.00000000000E+00 0.  1.
</event>
<event>
 8    1  0.1615837E-013  0.9118800E+02  0.7816164E-02  0.1184000E+00
        -11   -1    0    0    0    0  0.00000000000E+00  0.00000000000E+00  0.45593999997E+02  0.45594000000E+02  0.51100000000E-03 0. -1.
         11   -1    0    0    0    0 -0.00000000000E+00 -0.00000000000E+00 -0.45593999997E+02  0.45594000000E+02  0.51100000000E-03 0.  1.
         23    2    1    2    0    0  0.00000000000E+00 -0.88817841970E-15  0.00000000000E+00  0.91188000000E+02  0.91188000000E+02 0.  0.
    9900012    2    3    3    0    0  0.82451295810E+01 -0.75722327883E+01  0.39087657137E+02  0.50528858203E+02  0.29999994994E+02 0.  0.
        -12    1    3    3    0    0 -0.82451295810E+01  0.75722327883E+01 -0.39087657137E+02  0.40659141797E+02  0.00000000000E+00 0.  1.
         11    1    4    4    0    0  0.51643344665E+01 -0.61455742041E+01  0.93916129013E+01  0.12354789595E+02  0.51100000000E-03 0. -1.
        -11    1    4    4    0    0 -0.82270637409E+01 -0.46863267600E+01  0.47529944056E+01  0.10594205604E+02  0.51100000000E-03 0.  1.
         12    1    4    4    0    0  0.11307858855E+02  0.32596681759E+01  0.24943049830E+02  0.27579863004E+02  0.00000000000E+00 0. -1.
</event>
<event>
 8    1  0.1615837E-013  0.9118800E+02  0.7816164E-02  0.1184000E+00
        -11   -1    0    0    0    0  0.00000000000E+00  0.00000000000E+00  0.45593999997E+02  0.45594000000E+02  0.51100000000E-03 0. -1.
         11   -1    0    0    0    0 -0.00000000000E+00 -0.00000000000E+00 -0.45593999997E+02  0.45594000000E+02  0.51100000000E-03 0.  1.
         23    2    1    2    0    0  0.00000000000E+00  0.00000000000E+00 -0.71054273576E-14  0.91188000000E+02  0.91188000000E+02 0.  0.
    9900012    2    3    3    0    0  0.15176536080E+01 -0.17971134764E+02 -0.36440366295E+02  0.50528865074E+02  0.30000015879E+02 0.  0.
         12    1    3    3    0    0 -0.15176536080E+01  0.17971134764E+02  0.36440366295E+02  0.40659134926E+02  0.00000000000E+00 0. -1.
         11    1    4    4    0    0 -0.38180235277E+01 -0.13531192620E+02 -0.86609703551E+01  0.16513112521E+02  0.51100000000E-03 0. -1.
        -11    1    4    4    0    0  0.24721515039E+01 -0.57822884091E+01 -0.23770531416E+00  0.62930832174E+01  0.51100000000E-03 0.  1.
        -12    1    4    4    0    0  0.28635256318E+01  0.13423462648E+01 -0.27541690626E+02  0.27722669335E+02  0.00000000000E+00 0.  1.
</event>
<event>
 8    1  0.1615837E-013  0.9118800E+02  0.7816164E-02  0.1184000E+00
        -11   -1    0    0    0    0  0.00000000000E+00  0.00000000000E+00  0.45593999997E+02  0.45594000000E+02  0.51100000000E-03 0. -1.
         11   -1    0    0    0    0 -0.00000000000E+00 -0.00000000000E+00 -0.45593999997E+02  0.45594000000E+02  0.51100000000E-03 0.  1.
         23    2    1    2    0    0  0.00000000000E+00 -0.44408920985E-15  0.00000000000E+00  0.91188000000E+02  0.91188000000E+02 0.  0.
    9900012    2    3    3    0    0  0.33066821017E+02  0.36702936825E+01 -0.23372629672E+02  0.50528861720E+02  0.30000005684E+02 0.  0.
         12    1    3    3    0    0 -0.33066821017E+02 -0.36702936825E+01  0.23372629672E+02  0.40659138280E+02  0.00000000000E+00 0. -1.
         11    1    4    4    0    0  0.98835605714E+01  0.30824355263E+01 -0.63642202780E+01  0.12152755998E+02  0.51100000000E-03 0. -1.
        -11    1    4    4    0    0  0.27906468594E+02 -0.95252988348E+00 -0.97413398682E+01  0.29573163599E+02  0.51100000000E-03 0.  1.
         12    1    4    4    0    0 -0.47232081482E+01  0.15403880398E+01 -0.72670695259E+01  0.88029421229E+01  0.00000000000E+00 0. -1.
</event>
<event>
 8    1  0.1615837E-013  0.9118800E+02  0.7816164E-02  0.1184000E+00
        -11   -1    0    0    0    0  0.00000000000E+00  0.00000000000E+00  0.45593999997E+02  0.45594000000E+02  0.51100000000E-03 0. -1.
         11   -1    0    0    0    0 -0.00000000000E+00 -0.00000000000E+00 -0.45593999997E+02  0.45594000000E+02  0.51100000000E-03 0.  1.
         23    2    1    2    0    0  0.88817841970E-15  0.35527136788E-14  0.35527136788E-14  0.91188000000E+02  0.91188000000E+02 0.  0.
    9900012    2    3    3    0    0 -0.64272475633E+01  0.28114608183E+02 -0.28660511789E+02  0.50528860307E+02  0.30000001389E+02 0.  0.
         12    1    3    3    0    0  0.64272475633E+01 -0.28114608183E+02  0.28660511789E+02  0.40659139693E+02  0.00000000000E+00 0. -1.
         11    1    4    4    0    0 -0.14027955472E+01  0.19491591483E+01 -0.39352969405E+01  0.46101647480E+01  0.51100000000E-03 0. -1.
        -11    1    4    4    0    0 -0.21107571096E+00  0.29475721816E+02 -0.11829687343E+02  0.31761678677E+02  0.51100000000E-03 0.  1.
        -12    1    4    4    0    0 -0.48133763051E+01 -0.33102727804E+01 -0.12895527506E+02  0.14157016882E+02  0.00000000000E+00 0.  1.
</event>
<event>
 8    1  0.1615837E-013  0.9118800E+02  0.7816164E-02  0.1184000E+00
        -11   -1    0    0    0    0  0.00000000000E+00  0.00000000000E+00  0.45593999997E+02  0.45594000000E+02  0.51100000000E-03 0. -1.
         11   -1    0    0    0    0 -0.00000000000E+00 -0.00000000000E+00 -0.45593999997E+02  0.45594000000E+02  0.51100000000E-03 0.  1.
         23    2    1    2    0    0  0.88817841970E-15 -0.71054273576E-14  0.00000000000E+00  0.91188000000E+02  0.91188000000E+02 0.  0.
    9900012    2    3    3    0    0  0.65981357296E+01 -0.35401845975E+02 -0.18876956843E+02  0.50528860889E+02  0.30000003160E+02 0.  0.
         12    1    3    3    0    0 -0.65981357296E+01  0.35401845975E+02  0.18876956843E+02  0.40659139111E+02  0.00000000000E+00 0. -1.
         11    1    4    4    0    0  0.52893169369E+01 -0.11465703765E+02 -0.32053249410E+01  0.13027407444E+02  0.51100000000E-03 0. -1.
        -11    1    4    4    0    0  0.10037267246E+01 -0.26267415745E+02 -0.52343957111E+01  0.26802677031E+02  0.51100000000E-03 0.  1.
        -12    1    4    4    0    0  0.30509206809E+00  0.23312735350E+01 -0.10437236191E+02  0.10698776415E+02  0.00000000000E+00 0.  1.
</event>
<event>
 8    1  0.1615837E-013  0.9118800E+02  0.7816164E-02  0.1184000E+00
        -11   -1    0    0    0    0  0.00000000000E+00  0.00000000000E+00  0.45593999997E+02  0.45594000000E+02  0.51100000000E-03 0. -1.
         11   -1    0    0    0    0 -0.00000000000E+00 -0.00000000000E+00 -0.45593999997E+02  0.45594000000E+02  0.51100000000E-03 0.  1.
         23    2    1    2    0    0  0.88817841970E-15  0.00000000000E+00  0.00000000000E+00  0.91188000000E+02  0.91188000000E+02 0.  0.
    9900012    2    3    3    0    0 -0.41712845328E+01 -0.38660152401E+02 -0.11880994091E+02  0.50528867952E+02  0.30000024628E+02 0.  0.
         12    1    3    3    0    0  0.41712845328E+01  0.38660152401E+02  0.11880994091E+02  0.40659132048E+02  0.00000000000E+00 0. -1.
         11    1    4    4    0    0  0.16992003064E+01 -0.11362642907E+01  0.60863055529E+01  0.64203966983E+01  0.51100000000E-03 0. -1.
        -11    1    4    4    0    0  0.39493600687E+01 -0.55518737245E+01 -0.24787107292E+01  0.72501554429E+01  0.51100000000E-03 0.  1.
         12    1    4    4    0    0 -0.98198449080E+01 -0.31972014385E+02 -0.15488588914E+02  0.36858315811E+02  0.00000000000E+00 0. -1.
</event>
<event>
 8    1  0.1615837E-013  0.9118800E+02  0.7816164E-02  0.1184000E+00
        -11   -1    0    0    0    0  0.00000000000E+00  0.00000000000E+00  0.45593999997E+02  0.45594000000E+02  0.51100000000E-03 0.  1.
         11   -1    0    0    0    0 -0.00000000000E+00 -0.00000000000E+00 -0.45593999997E+02  0.45594000000E+02  0.51100000000E-03 0. -1.
         23    2    1    2    0    0 -0.44408920985E-15 -0.71054273576E-14 -0.88817841970E-15  0.91188000000E+02  0.91188000000E+02 0.  0.
    9900012    2    3    3    0    0  0.22084702113E+01  0.39908273536E+02  0.74576640994E+01  0.50528875672E+02  0.30000048093E+02 0.  0.
        -12    1    3    3    0    0 -0.22084702113E+01 -0.39908273536E+02 -0.74576640994E+01  0.40659124328E+02  0.00000000000E+00 0.  1.
         11    1    4    4    0    0  0.30158976501E+01  0.24515916493E+02 -0.38424286654E+01  0.24997801072E+02  0.51100000000E-03 0. -1.
        -11    1    4    4    0    0 -0.38026497896E+01  0.53981294357E+01 -0.34608957342E+01  0.74550483815E+01  0.51100000000E-03 0.  1.
         12    1    4    4    0    0  0.29952223509E+01  0.99942276072E+01  0.14760988499E+02  0.18076026219E+02  0.00000000000E+00 0. -1.
</event>
<event>
 8    1  0.1615837E-013  0.9118800E+02  0.7816164E-02  0.1184000E+00
        -11   -1    0    0    0    0  0.00000000000E+00  0.00000000000E+00  0.45593999997E+02  0.45594000000E+02  0.51100000000E-03 0. -1.
         11   -1    0    0    0    0 -0.00000000000E+00 -0.00000000000E+00 -0.45593999997E+02  0.45594000000E+02  0.51100000000E-03 0.  1.
         23    2    1    2    0    0 -0.17763568394E-14  0.00000000000E+00  0.00000000000E+00  0.91188000000E+02  0.91188000000E+02 0.  0.
    9900012    2    3    3    0    0  0.97334051922E+01  0.37215173135E+02  0.13170336236E+02  0.50528855338E+02  0.29999986285E+02 0.  0.
        -12    1    3    3    0    0 -0.97334051922E+01 -0.37215173135E+02 -0.13170336236E+02  0.40659144662E+02  0.00000000000E+00 0.  1.
         11    1    4    4    0    0  0.17925863399E+02  0.19526179914E+02  0.56677825208E+01  0.27105941038E+02  0.51100000000E-03 0. -1.
        -11    1    4    4    0    0 -0.25624813136E+01  0.32170334735E+01 -0.26292035292E+01  0.48814266676E+01  0.51100000000E-03 0.  1.
        -12    1    4    4    0    0 -0.56299768931E+01  0.14471959747E+02  0.10131757244E+02  0.18541487632E+02  0.00000000000E+00 0.  1.
</event>
<event>
 8    1  0.1615837E-013  0.9118800E+02  0.7816164E-02  0.1184000E+00
        -11   -1    0    0    0    0  0.00000000000E+00  0.00000000000E+00  0.45593999997E+02  0.45594000000E+02  0.51100000000E-03 0. -1.
         11   -1    0    0    0    0 -0.00000000000E+00 -0.00000000000E+00 -0.45593999997E+02  0.45594000000E+02  0.51100000000E-03 0.  1.
         23    2    1    2    0    0  0.00000000000E+00  0.00000000000E+00 -0.17763568394E-14  0.91188000000E+02  0.91188000000E+02 0.  0.
    9900012    2    3    3    0    0  0.21460107657E+02 -0.33705490417E+02 -0.75212768468E+01  0.50528856990E+02  0.29999991308E+02 0.  0.
         12    1    3    3    0    0 -0.21460107657E+02  0.33705490417E+02  0.75212768468E+01  0.40659143010E+02  0.00000000000E+00 0. -1.
         11    1    4    4    0    0  0.80705039087E+01 -0.96672420470E+01 -0.49294459666E+01  0.13523610462E+02  0.51100000000E-03 0. -1.
        -11    1    4    4    0    0  0.31185317244E+01 -0.21947524837E+02 -0.98479871014E+01  0.24256997687E+02  0.51100000000E-03 0.  1.
         12    1    4    4    0    0  0.10271072024E+02 -0.20907235331E+01  0.72561562212E+01  0.12748248841E+02  0.00000000000E+00 0. -1.
</event>
<event>
 8    1  0.1615837E-013  0.9118800E+02  0.7816164E-02  0.1184000E+00
        -11   -1    0    0    0    0  0.00000000000E+00  0.00000000000E+00  0.45593999997E+02  0.45594000000E+02  0.51100000000E-03 0. -1.
         11   -1    0    0    0    0 -0.00000000000E+00 -0.00000000000E+00 -0.45593999997E+02  0.45594000000E+02  0.51100000000E-03 0.  1.
         23    2    1    2    0    0  0.00000000000E+00 -0.35527136788E-14  0.00000000000E+00  0.91188000000E+02  0.91188000000E+02 0.  0.
    9900012    2    3    3    0    0 -0.25925606687E+02 -0.17386703529E+02  0.26052473516E+02  0.50528856896E+02  0.29999991020E+02 0.  0.
        -12    1    3    3    0    0  0.25925606687E+02  0.17386703529E+02 -0.26052473516E+02  0.40659143104E+02  0.00000000000E+00 0.  1.
         11    1    4    4    0    0  0.30036324240E+00  0.61355679060E+01  0.43878814143E+01  0.75491002890E+01  0.51100000000E-03 0. -1.
        -11    1    4    4    0    0 -0.39898656755E+00 -0.37103651037E+01  0.54735694126E+01  0.66246480555E+01  0.51100000000E-03 0.  1.
         12    1    4    4    0    0 -0.25826983362E+02 -0.19811906331E+02  0.16191022689E+02  0.36355108551E+02  0.00000000000E+00 0. -1.
</event>
<event>
 8    1  0.1615837E-013  0.9118800E+02  0.7816164E-02  0.1184000E+00
        -11   -1    0    0    0    0  0.00000000000E+00  0.00000000000E+00  0.45593999997E+02  0.45594000000E+02  0.51100000000E-03 0.  1.
         11   -1    0    0    0    0 -0.00000000000E+00 -0.00000000000E+00 -0.45593999997E+02  0.45594000000E+02  0.51100000000E-03 0. -1.
         23    2    1    2    0    0 -0.17763568394E-14 -0.71054273576E-14  0.17763568394E-14  0.91188000000E+02  0.91188000000E+02 0.  0.
    9900012    2    3    3    0    0 -0.13227810917E+02 -0.35185167206E+02  0.15498231094E+02  0.50528854165E+02  0.29999982721E+02 0.  0.
        -12    1    3    3    0    0  0.13227810917E+02  0.35185167206E+02 -0.15498231094E+02  0.40659145835E+02  0.00000000000E+00 0.  1.
         11    1    4    4    0    0 -0.77466564563E+01 -0.13965137513E+02  0.92583902946E+01  0.18459510913E+02  0.51100000000E-03 0. -1.
        -11    1    4    4    0    0 -0.11271558317E+02 -0.66048235557E+01  0.93227129018E+01  0.16049445386E+02  0.51100000000E-03 0.  1.
        -12    1    4    4    0    0  0.57904038566E+01 -0.14615206137E+02 -0.30828721027E+01  0.16019897867E+02  0.00000000000E+00 0.  1.
</event>
<event>
 8    1  0.1615837E-013  0.9118800E+02  0.7816164E-02  0.1184000E+00
        -11   -1    0    0    0    0  0.00000000000E+00  0.00000000000E+00  0.45593999997E+02  0.45594000000E+02  0.51100000000E-03 0. -1.
         11   -1    0    0    0    0 -0.00000000000E+00 -0.00000000000E+00 -0.45593999997E+02  0.45594000000E+02  0.51100000000E-03 0.  1.
         23    2    1    2    0    0 -0.88817841970E-15  0.00000000000E+00  0.71054273576E-14  0.91188000000E+02  0.91188000000E+02 0.  0.
    9900012    2    3    3    0    0 -0.22560025782E+01  0.21921224985E+02  0.34169225267E+02  0.50528860709E+02  0.30000002612E+02 0.  0.
        -12    1    3    3    0    0  0.22560025782E+01 -0.21921224985E+02 -0.34169225267E+02  0.40659139291E+02  0.00000000000E+00 0.  1.
         11    1    4    4    0    0 -0.19601747530E+01  0.13438426695E+01  0.13283474004E+02  0.13494401804E+02  0.51100000000E-03 0. -1.
        -11    1    4    4    0    0 -0.50313812194E+01 -0.18849852997E+01  0.10590474308E+02  0.11875441587E+02  0.51100000000E-03 0.  1.
         12    1    4    4    0    0  0.47355533942E+01  0.22462367616E+02  0.10295276956E+02  0.25159017319E+02  0.00000000000E+00 0. -1.
</event>
<event>
 8    1  0.1615837E-013  0.9118800E+02  0.7816164E-02  0.1184000E+00
        -11   -1    0    0    0    0  0.00000000000E+00  0.00000000000E+00  0.45593999997E+02  0.45594000000E+02  0.51100000000E-03 0.  1.
         11   -1    0    0    0    0 -0.00000000000E+00 -0.00000000000E+00 -0.45593999997E+02  0.45594000000E+02  0.51100000000E-03 0. -1.
         23    2    1    2    0    0  0.00000000000E+00  0.00000000000E+00  0.17763568394E-14  0.91188000000E+02  0.91188000000E+02 0.  0.
    9900012    2    3    3    0    0 -0.39161930651E+02  0.97653789450E+00 -0.10888342316E+02  0.50528850514E+02  0.29999971621E+02 0.  0.
         12    1    3    3    0    0  0.39161930651E+02 -0.97653789450E+00  0.10888342316E+02  0.40659149486E+02  0.00000000000E+00 0. -1.
         11    1    4    4    0    0 -0.91449695164E+00 -0.17814759430E+01 -0.30504177833E+00  0.20255892865E+01  0.51100000000E-03 0. -1.
        -11    1    4    4    0    0 -0.19520719292E+02  0.74345346405E+01 -0.18246732546E+02  0.27735789800E+02  0.51100000000E-03 0.  1.
         12    1    4    4    0    0 -0.18726714408E+02 -0.46765208031E+01  0.76634320083E+01  0.20767471427E+02  0.00000000000E+00 0. -1.
</event>
<event>
 8    1  0.1615837E-013  0.9118800E+02  0.7816164E-02  0.1184000E+00
        -11   -1    0    0    0    0  0.00000000000E+00  0.00000000000E+00  0.45593999997E+02  0.45594000000E+02  0.51100000000E-03 0. -1.
         11   -1    0    0    0    0 -0.00000000000E+00 -0.00000000000E+00 -0.45593999997E+02  0.45594000000E+02  0.51100000000E-03 0.  1.
         23    2    1    2    0    0  0.00000000000E+00 -0.17763568394E-14  0.00000000000E+00  0.91188000000E+02  0.91188000000E+02 0.  0.
    9900012    2    3    3    0    0 -0.27972330735E+02  0.68956194716E+01  0.28690860972E+02  0.50528851485E+02  0.29999974574E+02 0.  0.
        -12    1    3    3    0    0  0.27972330735E+02 -0.68956194716E+01 -0.28690860972E+02  0.40659148515E+02  0.00000000000E+00 0.  1.
         11    1    4    4    0    0 -0.12086548997E+01  0.44257701766E+01  0.94053164368E+01  0.10464619719E+02  0.51100000000E-03 0. -1.
        -11    1    4    4    0    0 -0.61714392025E+01  0.34357727273E+01 -0.46640343309E+01  0.84643022492E+01  0.51100000000E-03 0.  1.
         12    1    4    4    0    0 -0.20592236633E+02 -0.96592343225E+00  0.23949578866E+02  0.31599929517E+02  0.00000000000E+00 0. -1.
</event>
<event>
 8    1  0.1615837E-013  0.9118800E+02  0.7816164E-02  0.1184000E+00
        -11   -1    0    0    0    0  0.00000000000E+00  0.00000000000E+00  0.45593999997E+02  0.45594000000E+02  0.51100000000E-03 0. -1.
         11   -1    0    0    0    0 -0.00000000000E+00 -0.00000000000E+00 -0.45593999997E+02  0.45594000000E+02  0.51100000000E-03 0.  1.
         23    2    1    2    0    0  0.17763568394E-14  0.35527136788E-14  0.00000000000E+00  0.91188000000E+02  0.91188000000E+02 0.  0.
    9900012    2    3    3    0    0  0.11258125804E+02  0.25034415108E+02 -0.29994969549E+02  0.50528861609E+02  0.30000005348E+02 0.  0.
         12    1    3    3    0    0 -0.11258125804E+02 -0.25034415108E+02  0.29994969549E+02  0.40659138391E+02  0.00000000000E+00 0. -1.
         11    1    4    4    0    0 -0.38897052623E+01 -0.72583953397E-01 -0.18425515439E+02  0.18831746996E+02  0.51100000000E-03 0. -1.
        -11    1    4    4    0    0  0.18297645837E+01  0.20097418979E+01 -0.19820663550E+01  0.33638799361E+01  0.51100000000E-03 0.  1.
        -12    1    4    4    0    0  0.13318066483E+02  0.23097257164E+02 -0.95873877550E+01  0.28333234678E+02  0.00000000000E+00 0.  1.
</event>
<event>
 8    1  0.1615837E-013  0.9118800E+02  0.7816164E-02  0.1184000E+00
        -11   -1    0    0    0    0  0.00000000000E+00  0.00000000000E+00  0.45593999997E+02  0.45594000000E+02  0.51100000000E-03 0. -1.
         11   -1    0    0    0    0 -0.00000000000E+00 -0.00000000000E+00 -0.45593999997E+02  0.45594000000E+02  0.51100000000E-03 0.  1.
         23    2    1    2    0    0  0.00000000000E+00 -0.17763568394E-14  0.00000000000E+00  0.91188000000E+02  0.91188000000E+02 0.  0.
    9900012    2    3    3    0    0 -0.62613030268E+01  0.14950756881E+02  0.37288554292E+02  0.50528864149E+02  0.30000013068E+02 0.  0.
        -12    1    3    3    0    0  0.62613030268E+01 -0.14950756881E+02 -0.37288554292E+02  0.40659135851E+02  0.00000000000E+00 0.  1.
         11    1    4    4    0    0  0.22920407798E+01  0.10844956276E+02  0.20001453907E+02  0.22867546572E+02  0.51100000000E-03 0. -1.
        -11    1    4    4    0    0  0.59153750612E+00  0.67378846187E+00 -0.40747620296E+01  0.41722408094E+01  0.51100000000E-03 0.  1.
         12    1    4    4    0    0 -0.91448813127E+01  0.34320121428E+01  0.21361862415E+02  0.23489076768E+02  0.00000000000E+00 0. -1.
</event>
<event>
 8    1  0.1615837E-013  0.9118800E+02  0.7816164E-02  0.1184000E+00
        -11   -1    0    0    0    0  0.00000000000E+00  0.00000000000E+00  0.45593999997E+02  0.45594000000E+02  0.51100000000E-03 0. -1.
         11   -1    0    0    0    0 -0.00000000000E+00 -0.00000000000E+00 -0.45593999997E+02  0.45594000000E+02  0.51100000000E-03 0.  1.
         23    2    1    2    0    0 -0.35527136788E-14  0.44408920985E-15  0.00000000000E+00  0.91188000000E+02  0.91188000000E+02 0.  0.
    9900012    2    3    3    0    0  0.31566755950E+02 -0.28641896040E+01  0.25465693986E+02  0.50528865313E+02  0.30000016605E+02 0.  0.
        -12    1    3    3    0    0 -0.31566755950E+02  0.28641896040E+01 -0.25465693986E+02  0.40659134687E+02  0.00000000000E+00 0.  1.
         11    1    4    4    0    0 -0.24909126162E+01 -0.24802180040E+01  0.17887511950E+01  0.39440788668E+01  0.51100000000E-03 0. -1.
        -11    1    4    4    0    0  0.81581672969E+01 -0.32714211284E+01 -0.30039478838E+01  0.92887885643E+01  0.51100000000E-03 0.  1.
         12    1    4    4    0    0  0.25899501269E+02  0.28874495284E+01  0.26680890675E+02  0.37295997882E+02  0.00000000000E+00 0. -1.
</event>
<event>
 8    1  0.1615837E-013  0.9118800E+02  0.7816164E-02  0.1184000E+00
        -11   -1    0    0    0    0  0.00000000000E+00  0.00000000000E+00  0.45593999997E+02  0.45594000000E+02  0.51100000000E-03 0. -1.
         11   -1    0    0    0    0 -0.00000000000E+00 -0.00000000000E+00 -0.45593999997E+02  0.45594000000E+02  0.51100000000E-03 0.  1.
         23    2    1    2    0    0  0.35527136788E-14 -0.35527136788E-14  0.00000000000E+00  0.91188000000E+02  0.91188000000E+02 0.  0.
    9900012    2    3    3    0    0  0.25539058691E+02 -0.25359900290E+02  0.18915561827E+02  0.50528849237E+02  0.29999967741E+02 0.  0.
        -12    1    3    3    0    0 -0.25539058691E+02  0.25359900290E+02 -0.18915561827E+02  0.40659150763E+02  0.00000000000E+00 0.  1.
         11    1    4    4    0    0  0.16705395404E+02 -0.15886374241E+02  0.11854982980E+02  0.25922726397E+02  0.51100000000E-03 0. -1.
        -11    1    4    4    0    0  0.12457343207E+02 -0.11468146447E+02  0.61007222836E+00  0.16943316413E+02  0.51100000000E-03 0.  1.
        -12    1    4    4    0    0 -0.36236799205E+01  0.19946203974E+01  0.64505066184E+01  0.76628064265E+01  0.00000000000E+00 0.  1.
</event>
<event>
 8    1  0.1615837E-013  0.9118800E+02  0.7816164E-02  0.1184000E+00
        -11   -1    0    0    0    0  0.00000000000E+00  0.00000000000E+00  0.45593999997E+02  0.45594000000E+02  0.51100000000E-03 0. -1.
         11   -1    0    0    0    0 -0.00000000000E+00 -0.00000000000E+00 -0.45593999997E+02  0.45594000000E+02  0.51100000000E-03 0.  1.
         23    2    1    2    0    0  0.00000000000E+00  0.71054273576E-14  0.00000000000E+00  0.91188000000E+02  0.91188000000E+02 0.  0.
    9900012    2    3    3    0    0  0.89822022418E+01  0.34041093888E+02 -0.20339355985E+02  0.50528862870E+02  0.30000009181E+02 0.  0.
         12    1    3    3    0    0 -0.89822022418E+01 -0.34041093888E+02  0.20339355985E+02  0.40659137130E+02  0.00000000000E+00 0. -1.
         11    1    4    4    0    0 -0.89914821147E+00  0.56659689018E+01  0.14801792802E+01  0.59247448945E+01  0.51100000000E-03 0. -1.
        -11    1    4    4    0    0  0.44826248534E+01  0.29886936126E+02 -0.10537135211E+02  0.32005532261E+02  0.51100000000E-03 0.  1.
         12    1    4    4    0    0  0.53987255999E+01 -0.15118111400E+01 -0.11282400054E+02  0.12598585715E+02  0.00000000000E+00 0. -1.
</event>
<event>
 8    1  0.1615837E-013  0.9118800E+02  0.7816164E-02  0.1184000E+00
        -11   -1    0    0    0    0  0.00000000000E+00  0.00000000000E+00  0.45593999997E+02  0.45594000000E+02  0.51100000000E-03 0. -1.
         11   -1    0    0    0    0 -0.00000000000E+00 -0.00000000000E+00 -0.45593999997E+02  0.45594000000E+02  0.51100000000E-03 0.  1.
         23    2    1    2    0    0  0.00000000000E+00  0.88817841970E-15 -0.71054273576E-14  0.91188000000E+02  0.91188000000E+02 0.  0.
    9900012    2    3    3    0    0 -0.11466152038E+02 -0.68212356715E+01 -0.38407861792E+02  0.50528859009E+02  0.29999997445E+02 0.  0.
         12    1    3    3    0    0  0.11466152038E+02  0.68212356715E+01  0.38407861792E+02  0.40659140991E+02  0.00000000000E+00 0. -1.
         11    1    4    4    0    0 -0.20546649866E+01  0.16041194634E+01 -0.93350401190E+01  0.96921525857E+01  0.51100000000E-03 0. -1.
        -11    1    4    4    0    0 -0.98336399061E+01  0.62274261072E+01 -0.21230531354E+02  0.24211913835E+02  0.51100000000E-03 0.  1.
        -12    1    4    4    0    0  0.42215285462E+00 -0.14652781242E+02 -0.78422903194E+01  0.16624792589E+02  0.00000000000E+00 0.  1.
</event>
<event>
 8    1  0.1615837E-013  0.9118800E+02  0.7816164E-02  0.1184000E+00
        -11   -1    0    0    0    0  0.00000000000E+00  0.00000000000E+00  0.45593999997E+02  0.45594000000E+02  0.51100000000E-03 0. -1.
         11   -1    0    0    0    0 -0.00000000000E+00 -0.00000000000E+00 -0.45593999997E+02  0.45594000000E+02  0.51100000000E-03 0.  1.
         23    2    1    2    0    0  0.00000000000E+00  0.17763568394E-14  0.35527136788E-14  0.91188000000E+02  0.91188000000E+02 0.  0.
    9900012    2    3    3    0    0 -0.21365472261E+02 -0.15970673800E+02 -0.30685825802E+02  0.50528859186E+02  0.29999997983E+02 0.  0.
         12    1    3    3    0    0  0.21365472261E+02  0.15970673800E+02  0.30685825802E+02  0.40659140814E+02  0.00000000000E+00 0. -1.
         11    1    4    4    0    0  0.37644309051E+01 -0.83345077419E+01 -0.45805880829E+01  0.10228232828E+02  0.51100000000E-03 0. -1.
        -11    1    4    4    0    0 -0.10016262714E+02 -0.21260631277E+01 -0.21099891675E+02  0.23453168062E+02  0.51100000000E-03 0.  1.
        -12    1    4    4    0    0 -0.15113640452E+02 -0.55101029299E+01 -0.50053460439E+01  0.16847458296E+02  0.00000000000E+00 0.  1.
</event>
<event>
 8    1  0.1615837E-013  0.9118800E+02  0.7816164E-02  0.1184000E+00
        -11   -1    0    0    0    0  0.00000000000E+00  0.00000000000E+00  0.45593999997E+02  0.45594000000E+02  0.51100000000E-03 0. -1.
         11   -1    0    0    0    0 -0.00000000000E+00 -0.00000000000E+00 -0.45593999997E+02  0.45594000000E+02  0.51100000000E-03 0.  1.
         23    2    1    2    0    0  0.00000000000E+00  0.35527136788E-14 -0.71054273576E-14  0.91188000000E+02  0.91188000000E+02 0.  0.
    9900012    2    3    3    0    0  0.38951024933E+01 -0.20704846674E+02  0.34775030106E+02  0.50528865502E+02  0.30000017181E+02 0.  0.
        -12    1    3    3    0    0 -0.38951024933E+01  0.20704846674E+02 -0.34775030106E+02  0.40659134498E+02  0.00000000000E+00 0.  1.
         11    1    4    4    0    0 -0.13398838984E+00 -0.57136316564E+01  0.20584485945E+01  0.60745987910E+01  0.51100000000E-03 0. -1.
        -11    1    4    4    0    0 -0.25982285401E+01 -0.20984201240E+02  0.22307504483E+02  0.30736171684E+02  0.51100000000E-03 0.  1.
        -12    1    4    4    0    0  0.66273194232E+01  0.59929862229E+01  0.10409077028E+02  0.13718095028E+02  0.00000000000E+00 0.  1.
</event>
<event>
 8    1  0.1615837E-013  0.9118800E+02  0.7816164E-02  0.1184000E+00
        -11   -1    0    0    0    0  0.00000000000E+00  0.00000000000E+00  0.45593999997E+02  0.45594000000E+02  0.51100000000E-03 0.  1.
         11   -1    0    0    0    0 -0.00000000000E+00 -0.00000000000E+00 -0.45593999997E+02  0.45594000000E+02  0.51100000000E-03 0. -1.
         23    2    1    2    0    0 -0.17763568394E-14  0.00000000000E+00  0.00000000000E+00  0.91188000000E+02  0.91188000000E+02 0.  0.
    9900012    2    3    3    0    0 -0.10638943896E+02  0.35327095814E+02 -0.17087267364E+02  0.50528861644E+02  0.30000005454E+02 0.  0.
         12    1    3    3    0    0  0.10638943896E+02 -0.35327095814E+02  0.17087267364E+02  0.40659138356E+02  0.00000000000E+00 0. -1.
         11    1    4    4    0    0 -0.54496580460E+01  0.12964709871E+02 -0.21364660943E+01  0.14224871265E+02  0.51100000000E-03 0. -1.
        -11    1    4    4    0    0 -0.10648662949E+01  0.25329832551E+02 -0.60642225616E+01  0.26067396357E+02  0.51100000000E-03 0.  1.
         12    1    4    4    0    0 -0.41244195546E+01 -0.29674466087E+01 -0.88865787083E+01  0.10236594022E+02  0.00000000000E+00 0. -1.
</event>
<event>
 8    1  0.1615837E-013  0.9118800E+02  0.7816164E-02  0.1184000E+00
        -11   -1    0    0    0    0  0.00000000000E+00  0.00000000000E+00  0.45593999997E+02  0.45594000000E+02  0.51100000000E-03 0. -1.
         11   -1    0    0    0    0 -0.00000000000E+00 -0.00000000000E+00 -0.45593999997E+02  0.45594000000E+02  0.51100000000E-03 0.  1.
         23    2    1    2    0    0  0.00000000000E+00  0.00000000000E+00 -0.17763568394E-14  0.91188000000E+02  0.91188000000E+02 0.  0.
    9900012    2    3    3    0    0 -0.33781473423E+02 -0.17266641768E+02 -0.14623295961E+02  0.50528860199E+02  0.30000001061E+02 0.  0.
         12    1    3    3    0    0  0.33781473423E+02  0.17266641768E+02  0.14623295961E+02  0.40659139801E+02  0.00000000000E+00 0. -1.
         11    1    4    4    0    0 -0.24789783870E+02  0.21875466382E+01 -0.60047957428E+01  0.25600318685E+02  0.51100000000E-03 0. -1.
        -11    1    4    4    0    0 -0.19790518913E+01 -0.62845201149E+01 -0.74751684011E+01  0.99644358771E+01  0.51100000000E-03 0.  1.
        -12    1    4    4    0    0 -0.70126376623E+01 -0.13169668291E+02 -0.11433318173E+01  0.14964105637E+02  0.00000000000E+00 0.  1.
</event>
<event>
 8    1  0.1615837E-013  0.9118800E+02  0.7816164E-02  0.1184000E+00
        -11   -1    0    0    0    0  0.00000000000E+00  0.00000000000E+00  0.45593999997E+02  0.45594000000E+02  0.51100000000E-03 0. -1.
         11   -1    0    0    0    0 -0.00000000000E+00 -0.00000000000E+00 -0.45593999997E+02  0.45594000000E+02  0.51100000000E-03 0.  1.
         23    2    1    2    0    0 -0.35527136788E-14 -0.22204460493E-14  0.00000000000E+00  0.91188000000E+02  0.91188000000E+02 0.  0.
    9900012    2    3    3    0    0  0.18435969092E+02 -0.30451387283E+01  0.36111047455E+02  0.50528861119E+02  0.30000003857E+02 0.  0.
        -12    1    3    3    0    0 -0.18435969092E+02  0.30451387283E+01 -0.36111047455E+02  0.40659138881E+02  0.00000000000E+00 0.  1.
         11    1    4    4    0    0  0.64609236844E+00 -0.54858124260E+01  0.34950183294E+01  0.65365684197E+01  0.51100000000E-03 0. -1.
        -11    1    4    4    0    0  0.80922158591E-01 -0.33893323095E+01 -0.25145483264E+01  0.42210277714E+01  0.51100000000E-03 0.  1.
         12    1    4    4    0    0  0.17708954565E+02  0.58300060073E+01  0.35130577452E+02  0.39771264928E+02  0.00000000000E+00 0. -1.
</event>
<event>
 8    1  0.1615837E-013  0.9118800E+02  0.7816164E-02  0.1184000E+00
        -11   -1    0    0    0    0  0.00000000000E+00  0.00000000000E+00  0.45593999997E+02  0.45594000000E+02  0.51100000000E-03 0.  1.
         11   -1    0    0    0    0 -0.00000000000E+00 -0.00000000000E+00 -0.45593999997E+02  0.45594000000E+02  0.51100000000E-03 0. -1.
         23    2    1    2    0    0 -0.17763568394E-14  0.71054273576E-14  0.00000000000E+00  0.91188000000E+02  0.91188000000E+02 0.  0.
    9900012    2    3    3    0    0 -0.15763946654E+02  0.35818672424E+02  0.11031058737E+02  0.50528885829E+02  0.30000078967E+02 0.  0.
        -12    1    3    3    0    0  0.15763946654E+02 -0.35818672424E+02 -0.11031058737E+02  0.40659114171E+02  0.00000000000E+00 0.  1.
         11    1    4    4    0    0 -0.39976595672E+01  0.69291959951E+01  0.20988715871E+01  0.82704474700E+01  0.51100000000E-03 0. -1.
        -11    1    4    4    0    0 -0.17935556738E+01  0.27541588984E+02 -0.16576301226E+01  0.27649660099E+02  0.51100000000E-03 0.  1.
        -12    1    4    4    0    0 -0.99727314125E+01  0.13478874444E+01  0.10589817272E+02  0.14608778260E+02  0.00000000000E+00 0.  1.
</event>
<event>
 8    1  0.1615837E-013  0.9118800E+02  0.7816164E-02  0.1184000E+00
        -11   -1    0    0    0    0  0.00000000000E+00  0.00000000000E+00  0.45593999997E+02  0.45594000000E+02  0.51100000000E-03 0. -1.
         11   -1    0    0    0    0 -0.00000000000E+00 -0.00000000000E+00 -0.45593999997E+02  0.45594000000E+02  0.51100000000E-03 0.  1.
         23    2    1    2    0    0 -0.17763568394E-14  0.00000000000E+00 -0.35527136788E-14  0.91188000000E+02  0.91188000000E+02 0.  0.
    9900012    2    3    3    0    0 -0.13323002900E+02 -0.29457295145E+02 -0.24656258417E+02  0.50528859298E+02  0.29999998322E+02 0.  0.
         12    1    3    3    0    0  0.13323002900E+02  0.29457295145E+02  0.24656258417E+02  0.40659140702E+02  0.00000000000E+00 0. -1.
         11    1    4    4    0    0  0.64900149657E+01 -0.22436830601E+01 -0.17347098297E+00  0.68690974933E+01  0.51100000000E-03 0. -1.
        -11    1    4    4    0    0  0.70258779782E+00 -0.27839684894E+01  0.77049268958E+00  0.29728386114E+01  0.51100000000E-03 0.  1.
        -12    1    4    4    0    0 -0.20515605663E+02 -0.24429643596E+02 -0.25253280123E+02  0.40686923193E+02  0.00000000000E+00 0.  1.
</event>
<event>
 8    1  0.1615837E-013  0.9118800E+02  0.7816164E-02  0.1184000E+00
        -11   -1    0    0    0    0  0.00000000000E+00  0.00000000000E+00  0.45593999997E+02  0.45594000000E+02  0.51100000000E-03 0. -1.
         11   -1    0    0    0    0 -0.00000000000E+00 -0.00000000000E+00 -0.45593999997E+02  0.45594000000E+02  0.51100000000E-03 0.  1.
         23    2    1    2    0    0  0.00000000000E+00  0.48572257327E-15 -0.71054273576E-14  0.91188000000E+02  0.91188000000E+02 0.  0.
    9900012    2    3    3    0    0 -0.20261835932E+01  0.77316161781E-01 -0.40608566781E+02  0.50528842437E+02  0.29999947072E+02 0.  0.
         12    1    3    3    0    0  0.20261835932E+01 -0.77316161781E-01  0.40608566781E+02  0.40659157563E+02  0.00000000000E+00 0. -1.
         11    1    4    4    0    0 -0.45896305774E+01 -0.10043240589E+02 -0.23077476375E+02  0.25583223145E+02  0.51100000000E-03 0. -1.
        -11    1    4    4    0    0  0.31408385758E+01 -0.31588100248E+01 -0.43457554757E+01  0.62232257430E+01  0.51100000000E-03 0.  1.
        -12    1    4    4    0    0 -0.57739159156E+00  0.13279366776E+02 -0.13185334930E+02  0.18722393549E+02  0.00000000000E+00 0.  1.
</event>
<event>
 8    1  0.1615837E-013  0.9118800E+02  0.7816164E-02  0.1184000E+00
        -11   -1    0    0    0    0  0.00000000000E+00  0.00000000000E+00  0.45593999997E+02  0.45594000000E+02  0.51100000000E-03 0. -1.
         11   -1    0    0    0    0 -0.00000000000E+00 -0.00000000000E+00 -0.45593999997E+02  0.45594000000E+02  0.51100000000E-03 0.  1.
         23    2    1    2    0    0  0.00000000000E+00  0.00000000000E+00  0.00000000000E+00  0.91188000000E+02  0.91188000000E+02 0.  0.
    9900012    2    3    3    0    0  0.10338394179E+02  0.11893160108E+02  0.37481147015E+02  0.50528855480E+02  0.29999986718E+02 0.  0.
        -12    1    3    3    0    0 -0.10338394179E+02 -0.11893160108E+02 -0.37481147015E+02  0.40659144520E+02  0.00000000000E+00 0.  1.
         11    1    4    4    0    0 -0.15900985034E+00  0.65128881419E+01 -0.46083154847E+00  0.65311072613E+01  0.51100000000E-03 0. -1.
        -11    1    4    4    0    0 -0.46515274026E+01 -0.80940627645E+00  0.35376961999E+01  0.58997576528E+01  0.51100000000E-03 0.  1.
         12    1    4    4    0    0  0.15148931432E+02  0.61896782423E+01  0.34404282363E+02  0.38097990566E+02  0.00000000000E+00 0. -1.
</event>
<event>
 8    1  0.1615837E-013  0.9118800E+02  0.7816164E-02  0.1184000E+00
        -11   -1    0    0    0    0  0.00000000000E+00  0.00000000000E+00  0.45593999997E+02  0.45594000000E+02  0.51100000000E-03 0.  1.
         11   -1    0    0    0    0 -0.00000000000E+00 -0.00000000000E+00 -0.45593999997E+02  0.45594000000E+02  0.51100000000E-03 0. -1.
         23    2    1    2    0    0  0.44408920985E-15 -0.71054273576E-14  0.00000000000E+00  0.91188000000E+02  0.91188000000E+02 0.  0.
    9900012    2    3    3    0    0  0.32763658891E+01 -0.38909738739E+02 -0.11334182887E+02  0.50528855347E+02  0.29999986314E+02 0.  0.
         12    1    3    3    0    0 -0.32763658891E+01  0.38909738739E+02  0.11334182887E+02  0.40659144653E+02  0.00000000000E+00 0. -1.
         11    1    4    4    0    0 -0.35906842709E+01 -0.15361153661E+01  0.53151031511E+01  0.65956793220E+01  0.51100000000E-03 0. -1.
        -11    1    4    4    0    0 -0.12556171423E+01 -0.17995402022E+02 -0.16446869982E+01  0.18113974272E+02  0.51100000000E-03 0.  1.
         12    1    4    4    0    0  0.81226673023E+01 -0.19378221351E+02 -0.15004599040E+02  0.25819201753E+02  0.00000000000E+00 0. -1.
</event>
<event>
 8    1  0.1615837E-013  0.9118800E+02  0.7816164E-02  0.1184000E+00
        -11   -1    0    0    0    0  0.00000000000E+00  0.00000000000E+00  0.45593999997E+02  0.45594000000E+02  0.51100000000E-03 0. -1.
         11   -1    0    0    0    0 -0.00000000000E+00 -0.00000000000E+00 -0.45593999997E+02  0.45594000000E+02  0.51100000000E-03 0.  1.
         23    2    1    2    0    0  0.88817841970E-15  0.00000000000E+00  0.71054273576E-14  0.91188000000E+02  0.91188000000E+02 0.  0.
    9900012    2    3    3    0    0  0.56859951292E+01  0.16210671496E+02  0.36851718535E+02  0.50528861176E+02  0.30000004030E+02 0.  0.
        -12    1    3    3    0    0 -0.56859951292E+01 -0.16210671496E+02 -0.36851718535E+02  0.40659138824E+02  0.00000000000E+00 0.  1.
         11    1    4    4    0    0  0.78412597573E+00  0.11041864375E+02  0.17839569594E+01  0.11212498612E+02  0.51100000000E-03 0. -1.
        -11    1    4    4    0    0 -0.35812020126E+01  0.10399945395E+01  0.85406301233E+00  0.38257052144E+01  0.51100000000E-03 0.  1.
         12    1    4    4    0    0  0.84830711661E+01  0.41288125817E+01  0.34213698563E+02  0.35490657350E+02  0.00000000000E+00 0. -1.
</event>
<event>
 8    1  0.1615837E-013  0.9118800E+02  0.7816164E-02  0.1184000E+00
        -11   -1    0    0    0    0  0.00000000000E+00  0.00000000000E+00  0.45593999997E+02  0.45594000000E+02  0.51100000000E-03 0. -1.
         11   -1    0    0    0    0 -0.00000000000E+00 -0.00000000000E+00 -0.45593999997E+02  0.45594000000E+02  0.51100000000E-03 0.  1.
         23    2    1    2    0    0  0.00000000000E+00  0.00000000000E+00  0.00000000000E+00  0.91188000000E+02  0.91188000000E+02 0.  0.
    9900012    2    3    3    0    0 -0.72371579022E+01  0.34568568331E+02  0.20144555148E+02  0.50528862367E+02  0.30000007651E+02 0.  0.
        -12    1    3    3    0    0  0.72371579022E+01 -0.34568568331E+02 -0.20144555148E+02  0.40659137633E+02  0.00000000000E+00 0.  1.
         11    1    4    4    0    0 -0.11038386067E+01 -0.94826895017E-01 -0.30446534088E+01  0.32399639582E+01  0.51100000000E-03 0. -1.
        -11    1    4    4    0    0 -0.90216200621E+00  0.10617363105E+02 -0.32785846396E+01  0.11148605881E+02  0.51100000000E-03 0.  1.
         12    1    4    4    0    0 -0.52311572893E+01  0.24046032121E+02  0.26467793196E+02  0.36140292528E+02  0.00000000000E+00 0. -1.
</event>
<event>
 8    1  0.1615837E-013  0.9118800E+02  0.7816164E-02  0.1184000E+00
        -11   -1    0    0    0    0  0.00000000000E+00  0.00000000000E+00  0.45593999997E+02  0.45594000000E+02  0.51100000000E-03 0. -1.
         11   -1    0    0    0    0 -0.00000000000E+00 -0.00000000000E+00 -0.45593999997E+02  0.45594000000E+02  0.51100000000E-03 0.  1.
         23    2    1    2    0    0  0.66613381478E-15  0.44408920985E-15  0.71054273576E-14  0.91188000000E+02  0.91188000000E+02 0.  0.
    9900012    2    3    3    0    0 -0.99773059883E+00 -0.27097474178E+01 -0.40556470320E+02  0.50528862254E+02  0.30000007308E+02 0.  0.
         12    1    3    3    0    0  0.99773059883E+00  0.27097474178E+01  0.40556470320E+02  0.40659137746E+02  0.00000000000E+00 0. -1.
         11    1    4    4    0    0  0.30317437075E+01 -0.20151592953E+01 -0.50293859588E+01  0.62086278900E+01  0.51100000000E-03 0. -1.
        -11    1    4    4    0    0 -0.10878228866E+02  0.62943987045E+01 -0.31170711881E+02  0.33609055294E+02  0.51100000000E-03 0.  1.
        -12    1    4    4    0    0  0.68487545598E+01 -0.69889868269E+01 -0.43563724804E+01  0.10711179070E+02  0.00000000000E+00 0.  1.
</event>
<event>
 8    1  0.1615837E-013  0.9118800E+02  0.7816164E-02  0.1184000E+00
        -11   -1    0    0    0    0  0.00000000000E+00  0.00000000000E+00  0.45593999997E+02  0.45594000000E+02  0.51100000000E-03 0. -1.
         11   -1    0    0    0    0 -0.00000000000E+00 -0.00000000000E+00 -0.45593999997E+02  0.45594000000E+02  0.51100000000E-03 0.  1.
         23    2    1    2    0    0  0.00000000000E+00  0.00000000000E+00 -0.35527136788E-14  0.91188000000E+02  0.91188000000E+02 0.  0.
    9900012    2    3    3    0    0 -0.28206247188E+02 -0.24664529563E+02 -0.15787135448E+02  0.50528867635E+02  0.30000023664E+02 0.  0.
         12    1    3    3    0    0  0.28206247188E+02  0.24664529563E+02  0.15787135448E+02  0.40659132365E+02  0.00000000000E+00 0. -1.
         11    1    4    4    0    0 -0.11218914942E+02 -0.15908933681E+02 -0.41433921449E+01  0.19902912401E+02  0.51100000000E-03 0. -1.
        -11    1    4    4    0    0 -0.13235869431E+02 -0.38812172684E+01 -0.17398538975E+02  0.22202730593E+02  0.51100000000E-03 0.  1.
         12    1    4    4    0    0 -0.37514628147E+01 -0.48743786140E+01  0.57547956715E+01  0.84232246404E+01  0.00000000000E+00 0. -1.
</event>
<event>
 8    1  0.1615837E-013  0.9118800E+02  0.7816164E-02  0.1184000E+00
        -11   -1    0    0    0    0  0.00000000000E+00  0.00000000000E+00  0.45593999997E+02  0.45594000000E+02  0.51100000000E-03 0. -1.
         11   -1    0    0    0    0 -0.00000000000E+00 -0.00000000000E+00 -0.45593999997E+02  0.45594000000E+02  0.51100000000E-03 0.  1.
         23    2    1    2    0    0  0.00000000000E+00  0.00000000000E+00  0.00000000000E+00  0.91188000000E+02  0.91188000000E+02 0.  0.
    9900012    2    3    3    0    0 -0.43090438289E+01 -0.34853674995E+02  0.20489508707E+02  0.50528849906E+02  0.29999969774E+02 0.  0.
        -12    1    3    3    0    0  0.43090438289E+01  0.34853674995E+02 -0.20489508707E+02  0.40659150094E+02  0.00000000000E+00 0.  1.
         11    1    4    4    0    0 -0.38347784050E+01 -0.28196455820E+00  0.76061039191E+01  0.85227839652E+01  0.51100000000E-03 0. -1.
        -11    1    4    4    0    0 -0.46756914698E+01 -0.15585771060E+02  0.15393451719E+02  0.22399480047E+02  0.51100000000E-03 0.  1.
        -12    1    4    4    0    0  0.42014260459E+01 -0.18985939376E+02 -0.25100469321E+01  0.19606585894E+02  0.00000000000E+00 0.  1.
</event>
<event>
 8    1  0.1615837E-013  0.9118800E+02  0.7816164E-02  0.1184000E+00
        -11   -1    0    0    0    0  0.00000000000E+00  0.00000000000E+00  0.45593999997E+02  0.45594000000E+02  0.51100000000E-03 0. -1.
         11   -1    0    0    0    0 -0.00000000000E+00 -0.00000000000E+00 -0.45593999997E+02  0.45594000000E+02  0.51100000000E-03 0.  1.
         23    2    1    2    0    0  0.00000000000E+00 -0.35527136788E-14  0.00000000000E+00  0.91188000000E+02  0.91188000000E+02 0.  0.
    9900012    2    3    3    0    0  0.24143075018E+02  0.26681232611E+02  0.18931165461E+02  0.50528864856E+02  0.30000015216E+02 0.  0.
        -12    1    3    3    0    0 -0.24143075018E+02 -0.26681232611E+02 -0.18931165461E+02  0.40659135144E+02  0.00000000000E+00 0.  1.
         11    1    4    4    0    0 -0.36938174985E+00  0.31666003794E+01 -0.92546346720E+00  0.33196812693E+01  0.51100000000E-03 0. -1.
        -11    1    4    4    0    0 -0.58917232810E+00 -0.10185315975E+00 -0.47971087382E+01  0.48342269915E+01  0.51100000000E-03 0.  1.
         12    1    4    4    0    0  0.25101629096E+02  0.23616485391E+02  0.24653737666E+02  0.42374956595E+02  0.00000000000E+00 0. -1.
</event>
<event>
 8    1  0.1615837E-013  0.9118800E+02  0.7816164E-02  0.1184000E+00
        -11   -1    0    0    0    0  0.00000000000E+00  0.00000000000E+00  0.45593999997E+02  0.45594000000E+02  0.51100000000E-03 0. -1.
         11   -1    0    0    0    0 -0.00000000000E+00 -0.00000000000E+00 -0.45593999997E+02  0.45594000000E+02  0.51100000000E-03 0.  1.
         23    2    1    2    0    0 -0.22204460493E-15  0.00000000000E+00 -0.35527136788E-14  0.91188000000E+02  0.91188000000E+02 0.  0.
    9900012    2    3    3    0    0  0.27023417041E+00 -0.27763651518E+02  0.29703078966E+02  0.50528852540E+02  0.29999977781E+02 0.  0.
        -12    1    3    3    0    0 -0.27023417041E+00  0.27763651518E+02 -0.29703078966E+02  0.40659147460E+02  0.00000000000E+00 0.  1.
         11    1    4    4    0    0 -0.11516330193E+01 -0.80662014901E+01 -0.46141473708E+01  0.93637717460E+01  0.51100000000E-03 0.  1.
        -11    1    4    4    0    0  0.28701892549E+01 -0.10543224957E+02  0.88418013932E+01  0.14056138552E+02  0.51100000000E-03 0. -1.
        -12    1    4    4    0    0 -0.14483220652E+01 -0.91542250711E+01  0.25475424943E+02  0.27108942242E+02  0.00000000000E+00 0.  1.
</event>
<event>
 8    1  0.1615837E-013  0.9118800E+02  0.7816164E-02  0.1184000E+00
        -11   -1    0    0    0    0  0.00000000000E+00  0.00000000000E+00  0.45593999997E+02  0.45594000000E+02  0.51100000000E-03 0. -1.
         11   -1    0    0    0    0 -0.00000000000E+00 -0.00000000000E+00 -0.45593999997E+02  0.45594000000E+02  0.51100000000E-03 0.  1.
         23    2    1    2    0    0  0.00000000000E+00  0.00000000000E+00  0.00000000000E+00  0.91188000000E+02  0.91188000000E+02 0.  0.
    9900012    2    3    3    0    0  0.36541439312E+02  0.12941710332E+02 -0.12263788455E+02  0.50528866210E+02  0.30000019331E+02 0.  0.
         12    1    3    3    0    0 -0.36541439312E+02 -0.12941710332E+02  0.12263788455E+02  0.40659133790E+02  0.00000000000E+00 0. -1.
         11    1    4    4    0    0  0.34338152570E+01 -0.24114733360E+01  0.68784378059E+01  0.80572450491E+01  0.51100000000E-03 0. -1.
        -11    1    4    4    0    0  0.10244712158E+02  0.77138742681E+01 -0.22087669369E+01  0.13012941061E+02  0.51100000000E-03 0.  1.
        -12    1    4    4    0    0  0.22862911897E+02  0.76393093994E+01 -0.16933459324E+02  0.29458680099E+02  0.00000000000E+00 0.  1.
</event>
<event>
 8    1  0.1615837E-013  0.9118800E+02  0.7816164E-02  0.1184000E+00
        -11   -1    0    0    0    0  0.00000000000E+00  0.00000000000E+00  0.45593999997E+02  0.45594000000E+02  0.51100000000E-03 0. -1.
         11   -1    0    0    0    0 -0.00000000000E+00 -0.00000000000E+00 -0.45593999997E+02  0.45594000000E+02  0.51100000000E-03 0.  1.
         23    2    1    2    0    0  0.00000000000E+00  0.00000000000E+00 -0.17763568394E-14  0.91188000000E+02  0.91188000000E+02 0.  0.
    9900012    2    3    3    0    0  0.12145094849E+01 -0.39826444557E+02 -0.80960272213E+01  0.50528851262E+02  0.29999973897E+02 0.  0.
         12    1    3    3    0    0 -0.12145094849E+01  0.39826444557E+02  0.80960272213E+01  0.40659148738E+02  0.00000000000E+00 0. -1.
         11    1    4    4    0    0 -0.18874836753E+01 -0.21668003858E+01  0.25807497999E+01  0.38623682278E+01  0.51100000000E-03 0. -1.
        -11    1    4    4    0    0  0.37062810929E+01 -0.24696605594E+01  0.62002092860E+01  0.76340250373E+01  0.51100000000E-03 0.  1.
        -12    1    4    4    0    0 -0.60428793269E+00 -0.35189983611E+02 -0.16876986307E+02  0.39032457997E+02  0.00000000000E+00 0.  1.
</event>
<event>
 8    1  0.1615837E-013  0.9118800E+02  0.7816164E-02  0.1184000E+00
        -11   -1    0    0    0    0  0.00000000000E+00  0.00000000000E+00  0.45593999997E+02  0.45594000000E+02  0.51100000000E-03 0. -1.
         11   -1    0    0    0    0 -0.00000000000E+00 -0.00000000000E+00 -0.45593999997E+02  0.45594000000E+02  0.51100000000E-03 0.  1.
         23    2    1    2    0    0  0.17763568394E-14  0.00000000000E+00  0.00000000000E+00  0.91188000000E+02  0.91188000000E+02 0.  0.
    9900012    2    3    3    0    0 -0.85142359328E+01 -0.52038065465E+01 -0.39415655666E+02  0.50528859236E+02  0.29999998134E+02 0.  0.
         12    1    3    3    0    0  0.85142359328E+01  0.52038065465E+01  0.39415655666E+02  0.40659140764E+02  0.00000000000E+00 0. -1.
         11    1    4    4    0    0 -0.10283638912E+02  0.41296199458E+01 -0.21155857201E+02  0.23882572817E+02  0.51100000000E-03 0. -1.
        -11    1    4    4    0    0  0.12889735298E+01 -0.33690586182E+00  0.31488963451E+01  0.34191383086E+01  0.51100000000E-03 0.  1.
        -12    1    4    4    0    0  0.48042944932E+00 -0.89965206304E+01 -0.21408694809E+02  0.23227148111E+02  0.00000000000E+00 0.  1.
</event>
<event>
 8    1  0.1615837E-013  0.9118800E+02  0.7816164E-02  0.1184000E+00
        -11   -1    0    0    0    0  0.00000000000E+00  0.00000000000E+00  0.45593999997E+02  0.45594000000E+02  0.51100000000E-03 0.  1.
         11   -1    0    0    0    0 -0.00000000000E+00 -0.00000000000E+00 -0.45593999997E+02  0.45594000000E+02  0.51100000000E-03 0. -1.
         23    2    1    2    0    0  0.35527136788E-14  0.00000000000E+00  0.35527136788E-14  0.91188000000E+02  0.91188000000E+02 0.  0.
    9900012    2    3    3    0    0 -0.30910468496E+02 -0.11290857109E+02 -0.23879382416E+02  0.50528863001E+02  0.30000009577E+02 0.  0.
         12    1    3    3    0    0  0.30910468496E+02  0.11290857109E+02  0.23879382416E+02  0.40659136999E+02  0.00000000000E+00 0. -1.
         11    1    4    4    0    0 -0.12105180760E+01  0.17973116132E+01 -0.63335384935E+01  0.66939818611E+01  0.51100000000E-03 0. -1.
        -11    1    4    4    0    0 -0.14204652900E+02 -0.58274451443E+01 -0.21357451986E+02  0.26303460543E+02  0.51100000000E-03 0.  1.
         12    1    4    4    0    0 -0.15495297520E+02 -0.72607235778E+01  0.38116080633E+01  0.17531420597E+02  0.00000000000E+00 0. -1.
</event>
<event>
 8    1  0.1615837E-013  0.9118800E+02  0.7816164E-02  0.1184000E+00
        -11   -1    0    0    0    0  0.00000000000E+00  0.00000000000E+00  0.45593999997E+02  0.45594000000E+02  0.51100000000E-03 0. -1.
         11   -1    0    0    0    0 -0.00000000000E+00 -0.00000000000E+00 -0.45593999997E+02  0.45594000000E+02  0.51100000000E-03 0.  1.
         23    2    1    2    0    0 -0.35527136788E-14  0.35527136788E-14  0.35527136788E-14  0.91188000000E+02  0.91188000000E+02 0.  0.
    9900012    2    3    3    0    0  0.18928621877E+02 -0.24545070455E+02 -0.26313739050E+02  0.50528854994E+02  0.29999985239E+02 0.  0.
         12    1    3    3    0    0 -0.18928621877E+02  0.24545070455E+02  0.26313739050E+02  0.40659145006E+02  0.00000000000E+00 0. -1.
         11    1    4    4    0    0  0.20467145086E+01  0.17131840255E+01  0.71201320266E+00  0.27624269849E+01  0.51100000000E-03 0. -1.
        -11    1    4    4    0    0  0.82528923037E+01  0.17076835756E+01 -0.12544965667E+02  0.15112993695E+02  0.51100000000E-03 0.  1.
        -12    1    4    4    0    0  0.86290150649E+01 -0.27965938057E+02 -0.14480786586E+02  0.32653434314E+02  0.00000000000E+00 0.  1.
</event>
<event>
 8    1  0.1615837E-013  0.9118800E+02  0.7816164E-02  0.1184000E+00
        -11   -1    0    0    0    0  0.00000000000E+00  0.00000000000E+00  0.45593999997E+02  0.45594000000E+02  0.51100000000E-03 0.  1.
         11   -1    0    0    0    0 -0.00000000000E+00 -0.00000000000E+00 -0.45593999997E+02  0.45594000000E+02  0.51100000000E-03 0. -1.
         23    2    1    2    0    0 -0.71054273576E-14  0.00000000000E+00  0.00000000000E+00  0.91188000000E+02  0.91188000000E+02 0.  0.
    9900012    2    3    3    0    0 -0.36692820692E+02  0.11434961542E+02  0.13268162072E+02  0.50528861291E+02  0.30000004380E+02 0.  0.
        -12    1    3    3    0    0  0.36692820692E+02 -0.11434961542E+02 -0.13268162072E+02  0.40659138709E+02  0.00000000000E+00 0.  1.
         11    1    4    4    0    0 -0.27484539221E+02  0.68649633639E+01  0.37659483290E+01  0.28578138240E+02  0.51100000000E-03 0. -1.
        -11    1    4    4    0    0 -0.74319548498E+01  0.94515980623E-01 -0.34044236442E+01  0.81751444495E+01  0.51100000000E-03 0.  1.
        -12    1    4    4    0    0 -0.17763266210E+01  0.44754821979E+01  0.12906637387E+02  0.13775578601E+02  0.00000000000E+00 0.  1.
</event>
<event>
 8    1  0.1615837E-013  0.9118800E+02  0.7816164E-02  0.1184000E+00
        -11   -1    0    0    0    0  0.00000000000E+00  0.00000000000E+00  0.45593999997E+02  0.45594000000E+02  0.51100000000E-03 0. -1.
         11   -1    0    0    0    0 -0.00000000000E+00 -0.00000000000E+00 -0.45593999997E+02  0.45594000000E+02  0.51100000000E-03 0.  1.
         23    2    1    2    0    0  0.88817841970E-15  0.35527136788E-14 -0.35527136788E-14  0.91188000000E+02  0.91188000000E+02 0.  0.
    9900012    2    3    3    0    0 -0.27984032494E+01  0.27833459355E+02  0.29506495712E+02  0.50528858228E+02  0.29999995070E+02 0.  0.
        -12    1    3    3    0    0  0.27984032494E+01 -0.27833459355E+02 -0.29506495712E+02  0.40659141772E+02  0.00000000000E+00 0.  1.
         11    1    4    4    0    0 -0.87813177098E+00  0.12961017896E+01  0.84626990829E+00  0.17796539762E+01  0.51100000000E-03 0. -1.
        -11    1    4    4    0    0 -0.78463352148E+01  0.30035041643E+02  0.17494115542E+02  0.35633029364E+02  0.51100000000E-03 0.  1.
         12    1    4    4    0    0  0.59260637363E+01 -0.34976840772E+01  0.11166110262E+02  0.13116174888E+02  0.00000000000E+00 0. -1.
</event>
<event>
 8    1  0.2036585E-013  0.9118800E+02  0.7816164E-02  0.1184000E+00
        -11   -1    0    0    0    0  0.00000000000E+00  0.00000000000E+00  0.45593999997E+02  0.45594000000E+02  0.51100000000E-03 0. -1.
         11   -1    0    0    0    0 -0.00000000000E+00 -0.00000000000E+00 -0.45593999997E+02  0.45594000000E+02  0.51100000000E-03 0.  1.
         23    2    1    2    0    0  0.00000000000E+00  0.00000000000E+00  0.71054273576E-14  0.91188000000E+02  0.91188000000E+02 0.  0.
    9900012    2    3    3    0    0  0.10448486966E+02  0.48397825269E+01  0.38994543607E+02  0.50528821381E+02  0.29999883071E+02 0.  0.
        -12    1    3    3    0    0 -0.10448486966E+02 -0.48397825269E+01 -0.38994543607E+02  0.40659178619E+02  0.00000000000E+00 0.  1.
         11    1    4    4    0    0  0.75675898120E+01  0.76689517115E+01  0.28310045623E+02  0.30290921401E+02  0.51100000000E-03 0. -1.
        -11    1    4    4    0    0 -0.58828961074E+01  0.96389668974E-01  0.91406880649E+01  0.10870599622E+02  0.51100000000E-03 0.  1.
        -12    1    4    4    0    0  0.87637932613E+01 -0.29255588536E+01  0.15438099197E+01  0.93673003582E+01  0.00000000000E+00 0.  1.
</event>
<event>
 8    1  0.1615837E-013  0.9118800E+02  0.7816164E-02  0.1184000E+00
        -11   -1    0    0    0    0  0.00000000000E+00  0.00000000000E+00  0.45593999997E+02  0.45594000000E+02  0.51100000000E-03 0. -1.
         11   -1    0    0    0    0 -0.00000000000E+00 -0.00000000000E+00 -0.45593999997E+02  0.45594000000E+02  0.51100000000E-03 0.  1.
         23    2    1    2    0    0 -0.66613381478E-15  0.71054273576E-14 -0.71054273576E-14  0.91188000000E+02  0.91188000000E+02 0.  0.
    9900012    2    3    3    0    0 -0.99540830861E+00  0.24045937559E+02 -0.32771512066E+02  0.50528807264E+02  0.29999840161E+02 0.  0.
         12    1    3    3    0    0  0.99540830861E+00 -0.24045937559E+02  0.32771512066E+02  0.40659192736E+02  0.00000000000E+00 0. -1.
         11    1    4    4    0    0  0.13078441608E+01  0.13990375197E+02 -0.24190233662E+02  0.27975140024E+02  0.51100000000E-03 0. -1.
        -11    1    4    4    0    0  0.15893241069E+01  0.13674368840E+02 -0.10044196166E+02  0.17041132333E+02  0.51100000000E-03 0.  1.
         12    1    4    4    0    0 -0.38925765763E+01 -0.36188064785E+01  0.14629177612E+01  0.55125349075E+01  0.00000000000E+00 0. -1.
</event>
<event>
 8    1  0.1615837E-013  0.9118800E+02  0.7816164E-02  0.1184000E+00
        -11   -1    0    0    0    0  0.00000000000E+00  0.00000000000E+00  0.45593999997E+02  0.45594000000E+02  0.51100000000E-03 0. -1.
         11   -1    0    0    0    0 -0.00000000000E+00 -0.00000000000E+00 -0.45593999997E+02  0.45594000000E+02  0.51100000000E-03 0.  1.
         23    2    1    2    0    0  0.44408920985E-15 -0.33306690739E-15  0.00000000000E+00  0.91188000000E+02  0.91188000000E+02 0.  0.
    9900012    2    3    3    0    0  0.24785664368E+01 -0.38430705792E+00 -0.40581703772E+02  0.50528860012E+02  0.30000000493E+02 0.  0.
         12    1    3    3    0    0 -0.24785664368E+01  0.38430705792E+00  0.40581703772E+02  0.40659139988E+02  0.00000000000E+00 0. -1.
         11    1    4    4    0    0 -0.68593946842E+01  0.20965170651E+00 -0.86963104048E+01  0.11077953971E+02  0.51100000000E-03 0. -1.
        -11    1    4    4    0    0  0.22216164162E+01  0.10063676439E+02 -0.16137121298E+02  0.19147319578E+02  0.51100000000E-03 0.  1.
         12    1    4    4    0    0  0.71163447048E+01 -0.10657635203E+02 -0.15748272069E+02  0.20303586463E+02  0.00000000000E+00 0. -1.
</event>
<event>
 8    1  0.1615837E-013  0.9118800E+02  0.7816164E-02  0.1184000E+00
        -11   -1    0    0    0    0  0.00000000000E+00  0.00000000000E+00  0.45593999997E+02  0.45594000000E+02  0.51100000000E-03 0. -1.
         11   -1    0    0    0    0 -0.00000000000E+00 -0.00000000000E+00 -0.45593999997E+02  0.45594000000E+02  0.51100000000E-03 0.  1.
         23    2    1    2    0    0  0.00000000000E+00  0.00000000000E+00  0.00000000000E+00  0.91188000000E+02  0.91188000000E+02 0.  0.
    9900012    2    3    3    0    0  0.19756807842E+02 -0.19293037734E+02  0.29843150805E+02  0.50528850831E+02  0.29999972587E+02 0.  0.
        -12    1    3    3    0    0 -0.19756807842E+02  0.19293037734E+02 -0.29843150805E+02  0.40659149169E+02  0.00000000000E+00 0.  1.
         11    1    4    4    0    0 -0.47497286504E+01 -0.67543553319E+01  0.49734684411E+01  0.96393270926E+01  0.51100000000E-03 0. -1.
        -11    1    4    4    0    0  0.24628641977E+01 -0.68099515282E+01  0.10297195212E+00  0.72423575827E+01  0.51100000000E-03 0.  1.
        -12    1    4    4    0    0  0.22043672295E+02 -0.57287308743E+01  0.24766710412E+02  0.33647166156E+02  0.00000000000E+00 0.  1.
</event>
<event>
 8    1  0.1615837E-013  0.9118800E+02  0.7816164E-02  0.1184000E+00
        -11   -1    0    0    0    0  0.00000000000E+00  0.00000000000E+00  0.45593999997E+02  0.45594000000E+02  0.51100000000E-03 0. -1.
         11   -1    0    0    0    0 -0.00000000000E+00 -0.00000000000E+00 -0.45593999997E+02  0.45594000000E+02  0.51100000000E-03 0.  1.
         23    2    1    2    0    0  0.35527136788E-14  0.88817841970E-15  0.00000000000E+00  0.91188000000E+02  0.91188000000E+02 0.  0.
    9900012    2    3    3    0    0 -0.12316023920E+02 -0.64636151141E+01  0.38206051368E+02  0.50528866627E+02  0.30000020598E+02 0.  0.
        -12    1    3    3    0    0  0.12316023920E+02  0.64636151141E+01 -0.38206051368E+02  0.40659133373E+02  0.00000000000E+00 0.  1.
         11    1    4    4    0    0 -0.29484161502E+01  0.12532606379E+00  0.21936471189E+02  0.22134083060E+02  0.51100000000E-03 0. -1.
        -11    1    4    4    0    0 -0.14539329985E+02 -0.85836358654E+01  0.15264618129E+02  0.22761359537E+02  0.51100000000E-03 0.  1.
        -12    1    4    4    0    0  0.51717222158E+01  0.19946946875E+01  0.10049620500E+01  0.56334240295E+01  0.00000000000E+00 0.  1.
</event>
<event>
 8    1  0.1829504E-013  0.9118800E+02  0.7816164E-02  0.1184000E+00
        -11   -1    0    0    0    0  0.00000000000E+00  0.00000000000E+00  0.45593999997E+02  0.45594000000E+02  0.51100000000E-03 0. -1.
         11   -1    0    0    0    0 -0.00000000000E+00 -0.00000000000E+00 -0.45593999997E+02  0.45594000000E+02  0.51100000000E-03 0.  1.
         23    2    1    2    0    0  0.00000000000E+00 -0.11102230246E-14  0.00000000000E+00  0.91188000000E+02  0.91188000000E+02 0.  0.
    9900012    2    3    3    0    0 -0.34324507898E+02 -0.14106110430E+01  0.21748584178E+02  0.50528897948E+02  0.30000115803E+02 0.  0.
        -12    1    3    3    0    0  0.34324507898E+02  0.14106110430E+01 -0.21748584178E+02  0.40659102052E+02  0.00000000000E+00 0.  1.
         11    1    4    4    0    0 -0.14171520304E+02 -0.52824959150E+00  0.10294999516E+02  0.17524213268E+02  0.51100000000E-03 0. -1.
        -11    1    4    4    0    0 -0.18089511582E+02  0.50432117516E+01  0.16464416852E+02  0.24974816047E+02  0.51100000000E-03 0.  1.
        -12    1    4    4    0    0 -0.20634760109E+01 -0.59255732031E+01 -0.50108321897E+01  0.80298686331E+01  0.00000000000E+00 0.  1.
</event>
<event>
 8    1  0.1615837E-013  0.9118800E+02  0.7816164E-02  0.1184000E+00
        -11   -1    0    0    0    0  0.00000000000E+00  0.00000000000E+00  0.45593999997E+02  0.45594000000E+02  0.51100000000E-03 0.  1.
         11   -1    0    0    0    0 -0.00000000000E+00 -0.00000000000E+00 -0.45593999997E+02  0.45594000000E+02  0.51100000000E-03 0. -1.
         23    2    1    2    0    0  0.00000000000E+00 -0.71054273576E-14 -0.88817841970E-15  0.91188000000E+02  0.91188000000E+02 0.  0.
    9900012    2    3    3    0    0 -0.13270931260E+02  0.37867946326E+02  0.65625503226E+01  0.50528855368E+02  0.29999986376E+02 0.  0.
         12    1    3    3    0    0  0.13270931260E+02 -0.37867946326E+02 -0.65625503226E+01  0.40659144632E+02  0.00000000000E+00 0. -1.
         11    1    4    4    0    0 -0.18334110085E+01  0.15690163510E+02  0.56682560983E+01  0.16783079406E+02  0.51100000000E-03 0. -1.
        -11    1    4    4    0    0 -0.62782313946E+01  0.26337820106E+02  0.12896803275E+01  0.27106461093E+02  0.51100000000E-03 0.  1.
        -12    1    4    4    0    0 -0.51592888564E+01 -0.41600372896E+01 -0.39538610311E+00  0.66393148687E+01  0.00000000000E+00 0.  1.
</event>
<event>
 8    1  0.1615837E-013  0.9118800E+02  0.7816164E-02  0.1184000E+00
        -11   -1    0    0    0    0  0.00000000000E+00  0.00000000000E+00  0.45593999997E+02  0.45594000000E+02  0.51100000000E-03 0. -1.
         11   -1    0    0    0    0 -0.00000000000E+00 -0.00000000000E+00 -0.45593999997E+02  0.45594000000E+02  0.51100000000E-03 0.  1.
         23    2    1    2    0    0 -0.17763568394E-14  0.00000000000E+00  0.00000000000E+00  0.91188000000E+02  0.91188000000E+02 0.  0.
    9900012    2    3    3    0    0  0.10859363712E+02 -0.33530317685E+02  0.20272084068E+02  0.50528863551E+02  0.30000011251E+02 0.  0.
        -12    1    3    3    0    0 -0.10859363712E+02  0.33530317685E+02 -0.20272084068E+02  0.40659136449E+02  0.00000000000E+00 0.  1.
         11    1    4    4    0    0  0.64499557907E+01 -0.21827361890E+00  0.25979981026E+01  0.69569510187E+01  0.51100000000E-03 0. -1.
        -11    1    4    4    0    0  0.82859780010E+00 -0.11021042734E+02  0.17849844714E+02  0.20994449596E+02  0.51100000000E-03 0.  1.
        -12    1    4    4    0    0  0.35808101217E+01 -0.22291001332E+02 -0.17575874938E+00  0.22577462936E+02  0.00000000000E+00 0.  1.
</event>
<event>
 8    1  0.1615837E-013  0.9118800E+02  0.7816164E-02  0.1184000E+00
        -11   -1    0    0    0    0  0.00000000000E+00  0.00000000000E+00  0.45593999997E+02  0.45594000000E+02  0.51100000000E-03 0. -1.
         11   -1    0    0    0    0 -0.00000000000E+00 -0.00000000000E+00 -0.45593999997E+02  0.45594000000E+02  0.51100000000E-03 0.  1.
         23    2    1    2    0    0 -0.88817841970E-15  0.88817841970E-15  0.00000000000E+00  0.91188000000E+02  0.91188000000E+02 0.  0.
    9900012    2    3    3    0    0  0.39051897433E+01  0.31659156570E+01 -0.40347149320E+02  0.50528856045E+02  0.29999988434E+02 0.  0.
         12    1    3    3    0    0 -0.39051897433E+01 -0.31659156570E+01  0.40347149320E+02  0.40659143955E+02  0.00000000000E+00 0. -1.
         11    1    4    4    0    0 -0.17151374566E+01 -0.46386408696E+01 -0.11106500663E+02  0.12157838740E+02  0.51100000000E-03 0. -1.
        -11    1    4    4    0    0  0.70484644194E-01 -0.59449524455E+01 -0.20080971755E+02  0.20942608589E+02  0.51100000000E-03 0.  1.
         12    1    4    4    0    0  0.55498425557E+01  0.13749508972E+02 -0.91596769033E+01  0.17428408715E+02  0.00000000000E+00 0. -1.
</event>
<event>
 8    1  0.1703274E-013  0.9118800E+02  0.7816164E-02  0.1184000E+00
        -11   -1    0    0    0    0  0.00000000000E+00  0.00000000000E+00  0.45593999997E+02  0.45594000000E+02  0.51100000000E-03 0. -1.
         11   -1    0    0    0    0 -0.00000000000E+00 -0.00000000000E+00 -0.45593999997E+02  0.45594000000E+02  0.51100000000E-03 0.  1.
         23    2    1    2    0    0  0.00000000000E+00  0.00000000000E+00  0.00000000000E+00  0.91188000000E+02  0.91188000000E+02 0.  0.
    9900012    2    3    3    0    0 -0.15001694285E+02 -0.28884703580E+02  0.24367775070E+02  0.50528863337E+02  0.30000010600E+02 0.  0.
        -12    1    3    3    0    0  0.15001694285E+02  0.28884703580E+02 -0.24367775070E+02  0.40659136663E+02  0.00000000000E+00 0.  1.
         11    1    4    4    0    0 -0.60222303448E+01 -0.25618769737E+02  0.17368170257E+02  0.31531602552E+02  0.51100000000E-03 0. -1.
        -11    1    4    4    0    0  0.29362796027E+01 -0.46282915734E+01  0.35017097216E+01  0.65042134059E+01  0.51100000000E-03 0.  1.
        -12    1    4    4    0    0 -0.11915743543E+02  0.13623577303E+01  0.34978950912E+01  0.12493047380E+02  0.00000000000E+00 0.  1.
</event>
<event>
 8    1  0.1615837E-013  0.9118800E+02  0.7816164E-02  0.1184000E+00
        -11   -1    0    0    0    0  0.00000000000E+00  0.00000000000E+00  0.45593999997E+02  0.45594000000E+02  0.51100000000E-03 0. -1.
         11   -1    0    0    0    0 -0.00000000000E+00 -0.00000000000E+00 -0.45593999997E+02  0.45594000000E+02  0.51100000000E-03 0.  1.
         23    2    1    2    0    0  0.00000000000E+00  0.00000000000E+00  0.71054273576E-14  0.91188000000E+02  0.91188000000E+02 0.  0.
    9900012    2    3    3    0    0  0.20814203220E+02 -0.64634201194E+01 -0.34324323944E+02  0.50528855032E+02  0.29999985356E+02 0.  0.
         12    1    3    3    0    0 -0.20814203220E+02  0.64634201194E+01  0.34324323944E+02  0.40659144968E+02  0.00000000000E+00 0. -1.
         11    1    4    4    0    0  0.92662246935E+01 -0.15031874422E+02 -0.16965928027E+02  0.24488015084E+02  0.51100000000E-03 0. -1.
        -11    1    4    4    0    0 -0.20714376203E+01 -0.93401578578E+00 -0.44883526210E+01  0.50307602620E+01  0.51100000000E-03 0.  1.
        -12    1    4    4    0    0  0.13619416147E+02  0.95024700881E+01 -0.12870043296E+02  0.21010079686E+02  0.00000000000E+00 0.  1.
</event>
<event>
 8    1  0.1615837E-013  0.9118800E+02  0.7816164E-02  0.1184000E+00
        -11   -1    0    0    0    0  0.00000000000E+00  0.00000000000E+00  0.45593999997E+02  0.45594000000E+02  0.51100000000E-03 0. -1.
         11   -1    0    0    0    0 -0.00000000000E+00 -0.00000000000E+00 -0.45593999997E+02  0.45594000000E+02  0.51100000000E-03 0.  1.
         23    2    1    2    0    0  0.35527136788E-14 -0.35527136788E-14 -0.35527136788E-14  0.91188000000E+02  0.91188000000E+02 0.  0.
    9900012    2    3    3    0    0 -0.17998981369E+02  0.25444601631E+02  0.26110786195E+02  0.50528877553E+02  0.30000053810E+02 0.  0.
        -12    1    3    3    0    0  0.17998981369E+02 -0.25444601631E+02 -0.26110786195E+02  0.40659122447E+02  0.00000000000E+00 0.  1.
         11    1    4    4    0    0  0.10426087977E+00  0.16350012037E+02  0.16175077739E+02  0.22999280512E+02  0.51100000000E-03 0. -1.
        -11    1    4    4    0    0 -0.24547459818E+01  0.20991693786E+01  0.98736957625E+01  0.10388559004E+02  0.51100000000E-03 0.  1.
        -12    1    4    4    0    0 -0.15648496267E+02  0.69954202156E+01  0.62012692882E-01  0.17141038037E+02  0.00000000000E+00 0.  1.
</event>
<event>
 8    1  0.1615837E-013  0.9118800E+02  0.7816164E-02  0.1184000E+00
        -11   -1    0    0    0    0  0.00000000000E+00  0.00000000000E+00  0.45593999997E+02  0.45594000000E+02  0.51100000000E-03 0. -1.
         11   -1    0    0    0    0 -0.00000000000E+00 -0.00000000000E+00 -0.45593999997E+02  0.45594000000E+02  0.51100000000E-03 0.  1.
         23    2    1    2    0    0 -0.17763568394E-14 -0.44408920985E-15  0.00000000000E+00  0.91188000000E+02  0.91188000000E+02 0.  0.
    9900012    2    3    3    0    0  0.15498485358E+02 -0.58546031047E+00  0.37584834941E+02  0.50528860440E+02  0.30000001795E+02 0.  0.
        -12    1    3    3    0    0 -0.15498485358E+02  0.58546031047E+00 -0.37584834941E+02  0.40659139560E+02  0.00000000000E+00 0.  1.
         11    1    4    4    0    0  0.63880165948E+01  0.71374507352E+01  0.10398555339E+02  0.14137889249E+02  0.51100000000E-03 0. -1.
        -11    1    4    4    0    0 -0.29748492969E+01 -0.80972522391E+01  0.21223206640E+02  0.22909380666E+02  0.51100000000E-03 0.  1.
         12    1    4    4    0    0  0.12085318060E+02  0.37434119344E+00  0.59630729624E+01  0.13481590526E+02  0.00000000000E+00 0. -1.
</event>
<event>
 8    1  0.1615837E-013  0.9118800E+02  0.7816164E-02  0.1184000E+00
        -11   -1    0    0    0    0  0.00000000000E+00  0.00000000000E+00  0.45593999997E+02  0.45594000000E+02  0.51100000000E-03 0. -1.
         11   -1    0    0    0    0 -0.00000000000E+00 -0.00000000000E+00 -0.45593999997E+02  0.45594000000E+02  0.51100000000E-03 0.  1.
         23    2    1    2    0    0 -0.71054273576E-14 -0.35527136788E-14 -0.35527136788E-14  0.91188000000E+02  0.91188000000E+02 0.  0.
    9900012    2    3    3    0    0 -0.30169187755E+02 -0.20595883611E+02 -0.17854832753E+02  0.50528863706E+02  0.30000011721E+02 0.  0.
         12    1    3    3    0    0  0.30169187755E+02  0.20595883611E+02  0.17854832753E+02  0.40659136294E+02  0.00000000000E+00 0. -1.
         11    1    4    4    0    0 -0.86935372226E+01 -0.11195186214E+02 -0.90219380303E+01  0.16801938873E+02  0.51100000000E-03 0. -1.
        -11    1    4    4    0    0 -0.10585424764E+02 -0.16443820831E+02 -0.59449511372E+01  0.20439983005E+02  0.51100000000E-03 0.  1.
         12    1    4    4    0    0 -0.10890225768E+02  0.70431234340E+01 -0.28879435851E+01  0.13286941828E+02  0.00000000000E+00 0. -1.
</event>
<event>
 8    1  0.1615837E-013  0.9118800E+02  0.7816164E-02  0.1184000E+00
        -11   -1    0    0    0    0  0.00000000000E+00  0.00000000000E+00  0.45593999997E+02  0.45594000000E+02  0.51100000000E-03 0. -1.
         11   -1    0    0    0    0 -0.00000000000E+00 -0.00000000000E+00 -0.45593999997E+02  0.45594000000E+02  0.51100000000E-03 0.  1.
         23    2    1    2    0    0  0.00000000000E+00  0.35527136788E-14  0.00000000000E+00  0.91188000000E+02  0.91188000000E+02 0.  0.
    9900012    2    3    3    0    0  0.22251781253E+02  0.21465879806E+02 -0.26405276295E+02  0.50528875797E+02  0.30000048472E+02 0.  0.
         12    1    3    3    0    0 -0.22251781253E+02 -0.21465879806E+02  0.26405276295E+02  0.40659124203E+02  0.00000000000E+00 0. -1.
         11    1    4    4    0    0  0.54498065303E+01  0.13574685596E+01 -0.31491847770E+01  0.64389810629E+01  0.51100000000E-03 0.  1.
        -11    1    4    4    0    0  0.41488239933E+01  0.16702567788E+02 -0.25531434674E+02  0.30790301525E+02  0.51100000000E-03 0. -1.
         12    1    4    4    0    0  0.12653150729E+02  0.34058434581E+01  0.22753431565E+01  0.13299593209E+02  0.00000000000E+00 0. -1.
</event>
<event>
 8    1  0.1615837E-013  0.9118800E+02  0.7816164E-02  0.1184000E+00
        -11   -1    0    0    0    0  0.00000000000E+00  0.00000000000E+00  0.45593999997E+02  0.45594000000E+02  0.51100000000E-03 0. -1.
         11   -1    0    0    0    0 -0.00000000000E+00 -0.00000000000E+00 -0.45593999997E+02  0.45594000000E+02  0.51100000000E-03 0.  1.
         23    2    1    2    0    0  0.17763568394E-14  0.00000000000E+00  0.71054273576E-14  0.91188000000E+02  0.91188000000E+02 0.  0.
    9900012    2    3    3    0    0 -0.15235846270E+02 -0.97833267688E+01 -0.36404957692E+02  0.50528862788E+02  0.30000008931E+02 0.  0.
         12    1    3    3    0    0  0.15235846270E+02  0.97833267688E+01  0.36404957692E+02  0.40659137212E+02  0.00000000000E+00 0. -1.
         11    1    4    4    0    0 -0.70950209186E+01 -0.22415058613E+01 -0.87946242314E+01  0.11519942968E+02  0.51100000000E-03 0. -1.
        -11    1    4    4    0    0 -0.13299328754E+02  0.15033988364E+01 -0.24868236488E+02  0.28241132053E+02  0.51100000000E-03 0.  1.
         12    1    4    4    0    0  0.51585034033E+01 -0.90452197439E+01 -0.27420969735E+01  0.10767787767E+02  0.00000000000E+00 0. -1.
</event>
<event>
 8    1  0.1615837E-013  0.9118800E+02  0.7816164E-02  0.1184000E+00
        -11   -1    0    0    0    0  0.00000000000E+00  0.00000000000E+00  0.45593999997E+02  0.45594000000E+02  0.51100000000E-03 0. -1.
         11   -1    0    0    0    0 -0.00000000000E+00 -0.00000000000E+00 -0.45593999997E+02  0.45594000000E+02  0.51100000000E-03 0.  1.
         23    2    1    2    0    0  0.17763568394E-14  0.00000000000E+00  0.71054273576E-14  0.91188000000E+02  0.91188000000E+02 0.  0.
    9900012    2    3    3    0    0 -0.11006606496E+02 -0.29318592934E+02 -0.25931464041E+02  0.50528854590E+02  0.29999984011E+02 0.  0.
         12    1    3    3    0    0  0.11006606496E+02  0.29318592934E+02  0.25931464041E+02  0.40659145410E+02  0.00000000000E+00 0. -1.
         11    1    4    4    0    0 -0.89219343669E+00 -0.39819031820E+00  0.10355243301E+00  0.98249072539E+00  0.51100000000E-03 0. -1.
        -11    1    4    4    0    0 -0.20313322283E+02 -0.18333743149E+02 -0.15366780603E+02  0.31383039151E+02  0.51100000000E-03 0.  1.
         12    1    4    4    0    0  0.10198909224E+02 -0.10586659467E+02 -0.10668235871E+02  0.18163324713E+02  0.00000000000E+00 0. -1.
</event>
<event>
 8    1  0.1615837E-013  0.9118800E+02  0.7816164E-02  0.1184000E+00
        -11   -1    0    0    0    0  0.00000000000E+00  0.00000000000E+00  0.45593999997E+02  0.45594000000E+02  0.51100000000E-03 0. -1.
         11   -1    0    0    0    0 -0.00000000000E+00 -0.00000000000E+00 -0.45593999997E+02  0.45594000000E+02  0.51100000000E-03 0.  1.
         23    2    1    2    0    0  0.35527136788E-14  0.88817841970E-15  0.00000000000E+00  0.91188000000E+02  0.91188000000E+02 0.  0.
    9900012    2    3    3    0    0 -0.28329719221E+02  0.52729600210E+01 -0.28684287673E+02  0.50528862555E+02  0.30000008221E+02 0.  0.
         12    1    3    3    0    0  0.28329719221E+02 -0.52729600210E+01  0.28684287673E+02  0.40659137445E+02  0.00000000000E+00 0. -1.
         11    1    4    4    0    0 -0.18548833074E+02 -0.11226459872E+00 -0.99854207532E+01  0.21066096924E+02  0.51100000000E-03 0. -1.
        -11    1    4    4    0    0 -0.76378521956E+01 -0.14818212147E+01  0.15858543407E+01  0.79402465028E+01  0.51100000000E-03 0.  1.
        -12    1    4    4    0    0 -0.21430339514E+01  0.68670458344E+01 -0.20284721260E+02  0.21522519128E+02  0.00000000000E+00 0.  1.
</event>
<event>
 8    1  0.1615837E-013  0.9118800E+02  0.7816164E-02  0.1184000E+00
        -11   -1    0    0    0    0  0.00000000000E+00  0.00000000000E+00  0.45593999997E+02  0.45594000000E+02  0.51100000000E-03 0.  1.
         11   -1    0    0    0    0 -0.00000000000E+00 -0.00000000000E+00 -0.45593999997E+02  0.45594000000E+02  0.51100000000E-03 0. -1.
         23    2    1    2    0    0  0.00000000000E+00  0.35527136788E-14  0.00000000000E+00  0.91188000000E+02  0.91188000000E+02 0.  0.
    9900012    2    3    3    0    0 -0.20819445214E+02  0.26311808176E+02  0.22965303592E+02  0.50528859360E+02  0.29999998511E+02 0.  0.
        -12    1    3    3    0    0  0.20819445214E+02 -0.26311808176E+02 -0.22965303592E+02  0.40659140640E+02  0.00000000000E+00 0.  1.
         11    1    4    4    0    0  0.17369634365E+01  0.48530872509E+00  0.14692854496E+01  0.23262344103E+01  0.51100000000E-03 0.  1.
        -11    1    4    4    0    0 -0.12490509981E+02 -0.26770479147E+01  0.81959631117E+01  0.15177392290E+02  0.51100000000E-03 0. -1.
         12    1    4    4    0    0 -0.10065898670E+02  0.28503547366E+02  0.13300055030E+02  0.33025232660E+02  0.00000000000E+00 0. -1.
</event>
<event>
 8    1  0.1615837E-013  0.9118800E+02  0.7816164E-02  0.1184000E+00
        -11   -1    0    0    0    0  0.00000000000E+00  0.00000000000E+00  0.45593999997E+02  0.45594000000E+02  0.51100000000E-03 0. -1.
         11   -1    0    0    0    0 -0.00000000000E+00 -0.00000000000E+00 -0.45593999997E+02  0.45594000000E+02  0.51100000000E-03 0.  1.
         23    2    1    2    0    0 -0.35527136788E-14 -0.88817841970E-15 -0.71054273576E-14  0.91188000000E+02  0.91188000000E+02 0.  0.
    9900012    2    3    3    0    0  0.24316080803E+02  0.40590599696E+01  0.32332922169E+02  0.50528860690E+02  0.30000002553E+02 0.  0.
        -12    1    3    3    0    0 -0.24316080803E+02 -0.40590599696E+01 -0.32332922169E+02  0.40659139310E+02  0.00000000000E+00 0.  1.
         11    1    4    4    0    0  0.47480201295E+01  0.14231212793E-02  0.43343270283E+01  0.64288481258E+01  0.51100000000E-03 0. -1.
        -11    1    4    4    0    0  0.51843631208E+01 -0.34260736709E+01 -0.45732957775E+01  0.77156099108E+01  0.51100000000E-03 0.  1.
        -12    1    4    4    0    0  0.14383697552E+02  0.74837105192E+01  0.32571890919E+02  0.36384402653E+02  0.00000000000E+00 0.  1.
</event>
<event>
 8    1  0.1615837E-013  0.9118800E+02  0.7816164E-02  0.1184000E+00
        -11   -1    0    0    0    0  0.00000000000E+00  0.00000000000E+00  0.45593999997E+02  0.45594000000E+02  0.51100000000E-03 0. -1.
         11   -1    0    0    0    0 -0.00000000000E+00 -0.00000000000E+00 -0.45593999997E+02  0.45594000000E+02  0.51100000000E-03 0.  1.
         23    2    1    2    0    0 -0.35527136788E-14  0.00000000000E+00 -0.35527136788E-14  0.91188000000E+02  0.91188000000E+02 0.  0.
    9900012    2    3    3    0    0 -0.96810521695E+01  0.32848154718E+02 -0.21918986717E+02  0.50528855664E+02  0.29999987275E+02 0.  0.
         12    1    3    3    0    0  0.96810521695E+01 -0.32848154718E+02  0.21918986717E+02  0.40659144336E+02  0.00000000000E+00 0. -1.
         11    1    4    4    0    0 -0.12601584587E+02  0.13483361924E+02 -0.42315621298E+01  0.18934283752E+02  0.51100000000E-03 0. -1.
        -11    1    4    4    0    0 -0.39531955224E+01  0.15044979000E+02 -0.46495320463E+01  0.16235679735E+02  0.51100000000E-03 0.  1.
        -12    1    4    4    0    0  0.68737279396E+01  0.43198137941E+01 -0.13037892541E+02  0.15358892177E+02  0.00000000000E+00 0.  1.
</event>
<event>
 8    1  0.1615837E-013  0.9118800E+02  0.7816164E-02  0.1184000E+00
        -11   -1    0    0    0    0  0.00000000000E+00  0.00000000000E+00  0.45593999997E+02  0.45594000000E+02  0.51100000000E-03 0. -1.
         11   -1    0    0    0    0 -0.00000000000E+00 -0.00000000000E+00 -0.45593999997E+02  0.45594000000E+02  0.51100000000E-03 0.  1.
         23    2    1    2    0    0 -0.35527136788E-14  0.00000000000E+00  0.00000000000E+00  0.91188000000E+02  0.91188000000E+02 0.  0.
    9900012    2    3    3    0    0  0.29479753138E+02  0.24660079968E+02  0.13266140275E+02  0.50528857524E+02  0.29999992929E+02 0.  0.
        -12    1    3    3    0    0 -0.29479753138E+02 -0.24660079968E+02 -0.13266140275E+02  0.40659142476E+02  0.00000000000E+00 0.  1.
         11    1    4    4    0    0  0.20929549169E+01  0.25583563734E+01  0.77821781308E+01  0.84550543663E+01  0.51100000000E-03 0. -1.
        -11    1    4    4    0    0 -0.87816392224E+00  0.13074889064E+01  0.67793428382E+01  0.69598986123E+01  0.51100000000E-03 0.  1.
         12    1    4    4    0    0  0.28264962143E+02  0.20794234689E+02 -0.12953806944E+01  0.35113904545E+02  0.00000000000E+00 0. -1.
</event>
<event>
 8    1  0.1615837E-013  0.9118800E+02  0.7816164E-02  0.1184000E+00
        -11   -1    0    0    0    0  0.00000000000E+00  0.00000000000E+00  0.45593999997E+02  0.45594000000E+02  0.51100000000E-03 0. -1.
         11   -1    0    0    0    0 -0.00000000000E+00 -0.00000000000E+00 -0.45593999997E+02  0.45594000000E+02  0.51100000000E-03 0.  1.
         23    2    1    2    0    0  0.00000000000E+00 -0.88817841970E-15  0.00000000000E+00  0.91188000000E+02  0.91188000000E+02 0.  0.
    9900012    2    3    3    0    0  0.21421146262E+02 -0.33306558689E+01  0.34397838686E+02  0.50528805689E+02  0.29999835373E+02 0.  0.
        -12    1    3    3    0    0 -0.21421146262E+02  0.33306558689E+01 -0.34397838686E+02  0.40659194311E+02  0.00000000000E+00 0.  1.
         11    1    4    4    0    0 -0.32851287349E+00 -0.49389931764E+01  0.13889032450E+02  0.14744720986E+02  0.51100000000E-03 0. -1.
        -11    1    4    4    0    0  0.62223138493E+01  0.97684552856E+01  0.10232565542E+02  0.15454620867E+02  0.51100000000E-03 0.  1.
         12    1    4    4    0    0  0.15527345286E+02 -0.81601179781E+01  0.10276240694E+02  0.20329463836E+02  0.00000000000E+00 0. -1.
</event>
<event>
 8    1  0.1615837E-013  0.9118800E+02  0.7816164E-02  0.1184000E+00
        -11   -1    0    0    0    0  0.00000000000E+00  0.00000000000E+00  0.45593999997E+02  0.45594000000E+02  0.51100000000E-03 0. -1.
         11   -1    0    0    0    0 -0.00000000000E+00 -0.00000000000E+00 -0.45593999997E+02  0.45594000000E+02  0.51100000000E-03 0.  1.
         23    2    1    2    0    0  0.00000000000E+00  0.00000000000E+00  0.00000000000E+00  0.91188000000E+02  0.91188000000E+02 0.  0.
    9900012    2    3    3    0    0  0.34777366008E+02  0.81977784175E+01  0.19403509137E+02  0.50528869116E+02  0.30000028165E+02 0.  0.
        -12    1    3    3    0    0 -0.34777366008E+02 -0.81977784175E+01 -0.19403509137E+02  0.40659130884E+02  0.00000000000E+00 0.  1.
         11    1    4    4    0    0  0.10758369219E+02  0.16300337542E+01  0.20897417317E+02  0.23560593563E+02  0.51100000000E-03 0. -1.
        -11    1    4    4    0    0  0.48667265862E+00 -0.95608726869E-01  0.21805707843E+01  0.22362648573E+01  0.51100000000E-03 0.  1.
        -12    1    4    4    0    0  0.23532324130E+02  0.66633533902E+01 -0.36744789644E+01  0.24732010695E+02  0.00000000000E+00 0.  1.
</event>
<event>
 8    1  0.1615837E-013  0.9118800E+02  0.7816164E-02  0.1184000E+00
        -11   -1    0    0    0    0  0.00000000000E+00  0.00000000000E+00  0.45593999997E+02  0.45594000000E+02  0.51100000000E-03 0. -1.
         11   -1    0    0    0    0 -0.00000000000E+00 -0.00000000000E+00 -0.45593999997E+02  0.45594000000E+02  0.51100000000E-03 0.  1.
         23    2    1    2    0    0 -0.17763568394E-14  0.17763568394E-14  0.00000000000E+00  0.91188000000E+02  0.91188000000E+02 0.  0.
    9900012    2    3    3    0    0 -0.12929214422E+02  0.85611325296E+01 -0.37586012113E+02  0.50528857334E+02  0.29999992352E+02 0.  0.
         12    1    3    3    0    0  0.12929214422E+02 -0.85611325296E+01  0.37586012113E+02  0.40659142666E+02  0.00000000000E+00 0. -1.
         11    1    4    4    0    0 -0.31702407803E+01 -0.62250703070E+00  0.25741251217E+01  0.41308669807E+01  0.51100000000E-03 0. -1.
        -11    1    4    4    0    0 -0.57063797337E+01 -0.50744298076E+01 -0.19736520070E+02  0.21162297425E+02  0.51100000000E-03 0.  1.
        -12    1    4    4    0    0 -0.40525939080E+01  0.14258069368E+02 -0.20423617165E+02  0.25235692929E+02  0.00000000000E+00 0.  1.
</event>
<event>
 8    1  0.1615837E-013  0.9118800E+02  0.7816164E-02  0.1184000E+00
        -11   -1    0    0    0    0  0.00000000000E+00  0.00000000000E+00  0.45593999997E+02  0.45594000000E+02  0.51100000000E-03 0.  1.
         11   -1    0    0    0    0 -0.00000000000E+00 -0.00000000000E+00 -0.45593999997E+02  0.45594000000E+02  0.51100000000E-03 0. -1.
         23    2    1    2    0    0 -0.13322676296E-14  0.00000000000E+00  0.88817841970E-15  0.91188000000E+02  0.91188000000E+02 0.  0.
    9900012    2    3    3    0    0 -0.38406917008E+00  0.40418391144E+02  0.44012678484E+01  0.50528868056E+02  0.30000024943E+02 0.  0.
        -12    1    3    3    0    0  0.38406917008E+00 -0.40418391144E+02 -0.44012678484E+01  0.40659131944E+02  0.00000000000E+00 0.  1.
         11    1    4    4    0    0  0.21494455189E+01  0.11761883860E+02  0.35641926544E+01  0.12476597995E+02  0.51100000000E-03 0. -1.
        -11    1    4    4    0    0  0.76484111100E+01  0.25173105789E+02 -0.33156904905E+01  0.26517489536E+02  0.51100000000E-03 0.  1.
        -12    1    4    4    0    0 -0.10181925799E+02  0.34834014941E+01  0.41527656845E+01  0.11534780526E+02  0.00000000000E+00 0.  1.
</event>
<event>
 8    1  0.1615837E-013  0.9118800E+02  0.7816164E-02  0.1184000E+00
        -11   -1    0    0    0    0  0.00000000000E+00  0.00000000000E+00  0.45593999997E+02  0.45594000000E+02  0.51100000000E-03 0. -1.
         11   -1    0    0    0    0 -0.00000000000E+00 -0.00000000000E+00 -0.45593999997E+02  0.45594000000E+02  0.51100000000E-03 0.  1.
         23    2    1    2    0    0  0.35527136788E-14  0.00000000000E+00 -0.35527136788E-14  0.91188000000E+02  0.91188000000E+02 0.  0.
    9900012    2    3    3    0    0  0.20226116273E+02  0.15245011357E+02 -0.31806596405E+02  0.50528859262E+02  0.29999998211E+02 0.  0.
         12    1    3    3    0    0 -0.20226116273E+02 -0.15245011357E+02  0.31806596405E+02  0.40659140738E+02  0.00000000000E+00 0. -1.
         11    1    4    4    0    0  0.10902923459E+02  0.68184067911E+01  0.29855707175E+01  0.13201440978E+02  0.51100000000E-03 0. -1.
        -11    1    4    4    0    0  0.16325272603E+00  0.20142068152E+01 -0.29220166935E+01  0.35527260470E+01  0.51100000000E-03 0.  1.
         12    1    4    4    0    0  0.91599400870E+01  0.64123977504E+01 -0.31870150429E+02  0.33774692236E+02  0.00000000000E+00 0. -1.
</event>
<event>
 8    1  0.3308437E-013  0.9118800E+02  0.7816164E-02  0.1184000E+00
        -11   -1    0    0    0    0  0.00000000000E+00  0.00000000000E+00  0.45593999997E+02  0.45594000000E+02  0.51100000000E-03 0. -1.
         11   -1    0    0    0    0 -0.00000000000E+00 -0.00000000000E+00 -0.45593999997E+02  0.45594000000E+02  0.51100000000E-03 0.  1.
         23    2    1    2    0    0  0.00000000000E+00  0.35527136788E-14  0.00000000000E+00  0.91188000000E+02  0.91188000000E+02 0.  0.
    9900012    2    3    3    0    0 -0.13782002283E+02 -0.18230062705E+02  0.33628666331E+02  0.50528856227E+02  0.29999988987E+02 0.  0.
        -12    1    3    3    0    0  0.13782002283E+02  0.18230062705E+02 -0.33628666331E+02  0.40659143773E+02  0.00000000000E+00 0.  1.
         11    1    4    4    0    0 -0.10650973810E+02 -0.16693977511E+02  0.21314935106E+02  0.29093961351E+02  0.51100000000E-03 0. -1.
        -11    1    4    4    0    0  0.44342804922E-01 -0.54626630128E+01  0.14821828838E+02  0.15796495302E+02  0.51100000000E-03 0.  1.
        -12    1    4    4    0    0 -0.31753712779E+01  0.39265778192E+01 -0.25080976125E+01  0.56383995740E+01  0.00000000000E+00 0.  1.
</event>
<event>
 8    1  0.1615837E-013  0.9118800E+02  0.7816164E-02  0.1184000E+00
        -11   -1    0    0    0    0  0.00000000000E+00  0.00000000000E+00  0.45593999997E+02  0.45594000000E+02  0.51100000000E-03 0. -1.
         11   -1    0    0    0    0 -0.00000000000E+00 -0.00000000000E+00 -0.45593999997E+02  0.45594000000E+02  0.51100000000E-03 0.  1.
         23    2    1    2    0    0  0.88817841970E-15  0.00000000000E+00  0.00000000000E+00  0.91188000000E+02  0.91188000000E+02 0.  0.
    9900012    2    3    3    0    0 -0.48121237345E+01 -0.38342379107E+02 -0.12644010012E+02  0.50528861303E+02  0.30000004416E+02 0.  0.
         12    1    3    3    0    0  0.48121237345E+01  0.38342379107E+02  0.12644010012E+02  0.40659138697E+02  0.00000000000E+00 0. -1.
         11    1    4    4    0    0  0.97431516137E+01 -0.12537648423E+02 -0.83632610958E+01  0.17946190899E+02  0.51100000000E-03 0. -1.
        -11    1    4    4    0    0 -0.27075114939E+01  0.90631317631E+00 -0.15127322177E+01  0.32311578554E+01  0.51100000000E-03 0.  1.
        -12    1    4    4    0    0 -0.11847763854E+02 -0.26711043860E+02 -0.27680166983E+01  0.29351512549E+02  0.00000000000E+00 0.  1.
</event>
<event>
 8    1  0.1615837E-013  0.9118800E+02  0.7816164E-02  0.1184000E+00
        -11   -1    0    0    0    0  0.00000000000E+00  0.00000000000E+00  0.45593999997E+02  0.45594000000E+02  0.51100000000E-03 0. -1.
         11   -1    0    0    0    0 -0.00000000000E+00 -0.00000000000E+00 -0.45593999997E+02  0.45594000000E+02  0.51100000000E-03 0.  1.
         23    2    1    2    0    0  0.00000000000E+00  0.35527136788E-14  0.35527136788E-14  0.91188000000E+02  0.91188000000E+02 0.  0.
    9900012    2    3    3    0    0 -0.10829138802E+02 -0.27519021063E+02  0.27903500966E+02  0.50528780460E+02  0.29999758685E+02 0.  0.
        -12    1    3    3    0    0  0.10829138802E+02  0.27519021063E+02 -0.27903500966E+02  0.40659219540E+02  0.00000000000E+00 0.  1.
         11    1    4    4    0    0  0.22076550680E+01  0.17334961376E+01  0.12919883068E+02  0.13221275601E+02  0.51100000000E-03 0. -1.
        -11    1    4    4    0    0 -0.82406170996E+00 -0.66146214469E+01 -0.13994966573E+01  0.68110855040E+01  0.51100000000E-03 0.  1.
        -12    1    4    4    0    0 -0.12212732160E+02 -0.22637895753E+02  0.16383114555E+02  0.30496419355E+02  0.00000000000E+00 0.  1.
</event>
<event>
 8    1  0.1615837E-013  0.9118800E+02  0.7816164E-02  0.1184000E+00
        -11   -1    0    0    0    0  0.00000000000E+00  0.00000000000E+00  0.45593999997E+02  0.45594000000E+02  0.51100000000E-03 0. -1.
         11   -1    0    0    0    0 -0.00000000000E+00 -0.00000000000E+00 -0.45593999997E+02  0.45594000000E+02  0.51100000000E-03 0.  1.
         23    2    1    2    0    0  0.88817841970E-15  0.00000000000E+00  0.00000000000E+00  0.91188000000E+02  0.91188000000E+02 0.  0.
    9900012    2    3    3    0    0  0.54333508666E+01 -0.72813458592E+01  0.39631137736E+02  0.50528851246E+02  0.29999973847E+02 0.  0.
        -12    1    3    3    0    0 -0.54333508666E+01  0.72813458592E+01 -0.39631137736E+02  0.40659148754E+02  0.00000000000E+00 0.  1.
         11    1    4    4    0    0 -0.11299095726E+02 -0.37309163589E+01  0.92487394495E+01  0.15070782420E+02  0.51100000000E-03 0. -1.
        -11    1    4    4    0    0 -0.67229933691E-02  0.93944274216E+00  0.18423140196E+01  0.20680229864E+01  0.51100000000E-03 0.  1.
         12    1    4    4    0    0  0.16739169586E+02 -0.44898722424E+01  0.28540084267E+02  0.33390045839E+02  0.00000000000E+00 0. -1.
</event>
<event>
 8    1  0.1615837E-013  0.9118800E+02  0.7816164E-02  0.1184000E+00
        -11   -1    0    0    0    0  0.00000000000E+00  0.00000000000E+00  0.45593999997E+02  0.45594000000E+02  0.51100000000E-03 0.  1.
         11   -1    0    0    0    0 -0.00000000000E+00 -0.00000000000E+00 -0.45593999997E+02  0.45594000000E+02  0.51100000000E-03 0. -1.
         23    2    1    2    0    0  0.35527136788E-14 -0.35527136788E-14 -0.35527136788E-14  0.91188000000E+02  0.91188000000E+02 0.  0.
    9900012    2    3    3    0    0 -0.30975286214E+02  0.23602207157E+02  0.11688988680E+02  0.50528868245E+02  0.30000025516E+02 0.  0.
        -12    1    3    3    0    0  0.30975286214E+02 -0.23602207157E+02 -0.11688988680E+02  0.40659131755E+02  0.00000000000E+00 0.  1.
         11    1    4    4    0    0 -0.26349814192E+02  0.14360095298E+02  0.12011445082E+02  0.32323363967E+02  0.51100000000E-03 0. -1.
        -11    1    4    4    0    0 -0.44838906412E+01  0.32071643606E+01  0.68745899442E+01  0.88119898820E+01  0.51100000000E-03 0.  1.
        -12    1    4    4    0    0 -0.14158138113E+00  0.60349474988E+01 -0.71970463461E+01  0.93935143961E+01  0.00000000000E+00 0.  1.
</event>
<event>
 8    1  0.1615837E-013  0.9118800E+02  0.7816164E-02  0.1184000E+00
        -11   -1    0    0    0    0  0.00000000000E+00  0.00000000000E+00  0.45593999997E+02  0.45594000000E+02  0.51100000000E-03 0. -1.
         11   -1    0    0    0    0 -0.00000000000E+00 -0.00000000000E+00 -0.45593999997E+02  0.45594000000E+02  0.51100000000E-03 0.  1.
         23    2    1    2    0    0  0.17763568394E-14  0.00000000000E+00  0.35527136788E-14  0.91188000000E+02  0.91188000000E+02 0.  0.
    9900012    2    3    3    0    0 -0.10101263636E+02 -0.34792996458E+02 -0.18454754645E+02  0.50528854675E+02  0.29999984271E+02 0.  0.
         12    1    3    3    0    0  0.10101263636E+02  0.34792996458E+02  0.18454754645E+02  0.40659145325E+02  0.00000000000E+00 0. -1.
         11    1    4    4    0    0 -0.36279977248E+01 -0.19228321241E+01 -0.10710785036E+01  0.42434491031E+01  0.51100000000E-03 0. -1.
        -11    1    4    4    0    0 -0.11822546620E+02 -0.25370464044E+02 -0.16315352221E+01  0.28037385075E+02  0.51100000000E-03 0.  1.
         12    1    4    4    0    0  0.53492807089E+01 -0.74997002893E+01 -0.15752140919E+02  0.18248020497E+02  0.00000000000E+00 0. -1.
</event>
<event>
 8    1  0.1615837E-013  0.9118800E+02  0.7816164E-02  0.1184000E+00
        -11   -1    0    0    0    0  0.00000000000E+00  0.00000000000E+00  0.45593999997E+02  0.45594000000E+02  0.51100000000E-03 0. -1.
         11   -1    0    0    0    0 -0.00000000000E+00 -0.00000000000E+00 -0.45593999997E+02  0.45594000000E+02  0.51100000000E-03 0.  1.
         23    2    1    2    0    0  0.00000000000E+00  0.00000000000E+00  0.00000000000E+00  0.91188000000E+02  0.91188000000E+02 0.  0.
    9900012    2    3    3    0    0  0.10230994938E+02  0.22413163208E+02 -0.32344122596E+02  0.50528863156E+02  0.30000010049E+02 0.  0.
         12    1    3    3    0    0 -0.10230994938E+02 -0.22413163208E+02  0.32344122596E+02  0.40659136844E+02  0.00000000000E+00 0. -1.
         11    1    4    4    0    0 -0.65915038939E+01  0.31006605057E+00 -0.63225046324E+01  0.91388253964E+01  0.51100000000E-03 0. -1.
        -11    1    4    4    0    0  0.90361906168E+01  0.87063104651E+00 -0.10899484899E+02  0.14184833824E+02  0.51100000000E-03 0.  1.
        -12    1    4    4    0    0  0.77863082147E+01  0.21232466111E+02 -0.15122133064E+02  0.27205203936E+02  0.00000000000E+00 0.  1.
</event>
<event>
 8    1  0.1615837E-013  0.9118800E+02  0.7816164E-02  0.1184000E+00
        -11   -1    0    0    0    0  0.00000000000E+00  0.00000000000E+00  0.45593999997E+02  0.45594000000E+02  0.51100000000E-03 0.  1.
         11   -1    0    0    0    0 -0.00000000000E+00 -0.00000000000E+00 -0.45593999997E+02  0.45594000000E+02  0.51100000000E-03 0. -1.
         23    2    1    2    0    0 -0.17763568394E-14  0.00000000000E+00 -0.17763568394E-14  0.91188000000E+02  0.91188000000E+02 0.  0.
    9900012    2    3    3    0    0  0.14488998486E+02  0.34835657706E+02 -0.15156588988E+02  0.50528729044E+02  0.29999602400E+02 0.  0.
         12    1    3    3    0    0 -0.14488998486E+02 -0.34835657706E+02  0.15156588988E+02  0.40659270956E+02  0.00000000000E+00 0. -1.
         11    1    4    4    0    0 -0.13169578757E+01  0.18633809126E+02 -0.99816773202E+01  0.21179874952E+02  0.51100000000E-03 0. -1.
        -11    1    4    4    0    0  0.24912978435E+00  0.12220075173E+02 -0.52196322109E+01  0.13290480185E+02  0.51100000000E-03 0.  1.
        -12    1    4    4    0    0  0.15556826577E+02  0.39817734066E+01  0.44720543008E-01  0.16058373907E+02  0.00000000000E+00 0.  1.
</event>
<event>
 8    1  0.1615837E-013  0.9118800E+02  0.7816164E-02  0.1184000E+00
        -11   -1    0    0    0    0  0.00000000000E+00  0.00000000000E+00  0.45593999997E+02  0.45594000000E+02  0.51100000000E-03 0. -1.
         11   -1    0    0    0    0 -0.00000000000E+00 -0.00000000000E+00 -0.45593999997E+02  0.45594000000E+02  0.51100000000E-03 0.  1.
         23    2    1    2    0    0 -0.35527136788E-14 -0.44408920985E-15 -0.35527136788E-14  0.91188000000E+02  0.91188000000E+02 0.  0.
    9900012    2    3    3    0    0 -0.31440346453E+02 -0.30674828483E+01 -0.25598051531E+02  0.50528867222E+02  0.30000022407E+02 0.  0.
         12    1    3    3    0    0  0.31440346453E+02  0.30674828483E+01  0.25598051531E+02  0.40659132778E+02  0.00000000000E+00 0. -1.
         11    1    4    4    0    0  0.26106792331E+01 -0.24115616393E+01  0.16551854353E+01  0.39205758103E+01  0.51100000000E-03 0. -1.
        -11    1    4    4    0    0 -0.24762421156E+02  0.57987770237E-01 -0.94301299977E+01  0.26497324698E+02  0.51100000000E-03 0.  1.
        -12    1    4    4    0    0 -0.92886045301E+01 -0.71390897927E+00 -0.17823106968E+02  0.20110966713E+02  0.00000000000E+00 0.  1.
</event>
<event>
 8    1  0.1615837E-013  0.9118800E+02  0.7816164E-02  0.1184000E+00
        -11   -1    0    0    0    0  0.00000000000E+00  0.00000000000E+00  0.45593999997E+02  0.45594000000E+02  0.51100000000E-03 0. -1.
         11   -1    0    0    0    0 -0.00000000000E+00 -0.00000000000E+00 -0.45593999997E+02  0.45594000000E+02  0.51100000000E-03 0.  1.
         23    2    1    2    0    0  0.00000000000E+00  0.88817841970E-15  0.71054273576E-14  0.91188000000E+02  0.91188000000E+02 0.  0.
    9900012    2    3    3    0    0  0.30249649222E+02  0.48423218628E+01  0.26733430891E+02  0.50528859745E+02  0.29999999682E+02 0.  0.
        -12    1    3    3    0    0 -0.30249649222E+02 -0.48423218628E+01 -0.26733430891E+02  0.40659140255E+02  0.00000000000E+00 0.  1.
         11    1    4    4    0    0  0.17546495970E+02 -0.75743221962E+00  0.18328633721E+02  0.25384878151E+02  0.51100000000E-03 0. -1.
        -11    1    4    4    0    0  0.14058038866E+02  0.48872521724E+01  0.13333890628E+02  0.19982650728E+02  0.51100000000E-03 0.  1.
        -12    1    4    4    0    0 -0.13548856144E+01  0.71250191003E+00 -0.49290934581E+01  0.51613308670E+01  0.00000000000E+00 0.  1.
</event>
<event>
 8    1  0.1615837E-013  0.9118800E+02  0.7816164E-02  0.1184000E+00
        -11   -1    0    0    0    0  0.00000000000E+00  0.00000000000E+00  0.45593999997E+02  0.45594000000E+02  0.51100000000E-03 0. -1.
         11   -1    0    0    0    0 -0.00000000000E+00 -0.00000000000E+00 -0.45593999997E+02  0.45594000000E+02  0.51100000000E-03 0.  1.
         23    2    1    2    0    0 -0.35527136788E-14  0.00000000000E+00  0.00000000000E+00  0.91188000000E+02  0.91188000000E+02 0.  0.
    9900012    2    3    3    0    0 -0.19577936142E+02  0.32548522746E+02  0.14507384256E+02  0.50528854479E+02  0.29999983676E+02 0.  0.
        -12    1    3    3    0    0  0.19577936142E+02 -0.32548522746E+02 -0.14507384256E+02  0.40659145521E+02  0.00000000000E+00 0.  1.
         11    1    4    4    0    0 -0.28433933621E+01  0.74705390552E+01  0.13364089819E+02  0.15572178285E+02  0.51100000000E-03 0. -1.
        -11    1    4    4    0    0  0.98512805439E+00  0.13458346140E+02 -0.16051747224E+01  0.13589486534E+02  0.51100000000E-03 0.  1.
        -12    1    4    4    0    0 -0.17719670834E+02  0.11619637551E+02  0.27484691593E+01  0.21367189661E+02  0.00000000000E+00 0.  1.
</event>
<event>
 8    1  0.1615837E-013  0.9118800E+02  0.7816164E-02  0.1184000E+00
        -11   -1    0    0    0    0  0.00000000000E+00  0.00000000000E+00  0.45593999997E+02  0.45594000000E+02  0.51100000000E-03 0.  1.
         11   -1    0    0    0    0 -0.00000000000E+00 -0.00000000000E+00 -0.45593999997E+02  0.45594000000E+02  0.51100000000E-03 0. -1.
         23    2    1    2    0    0  0.35527136788E-14  0.88817841970E-15  0.00000000000E+00  0.91188000000E+02  0.91188000000E+02 0.  0.
    9900012    2    3    3    0    0  0.22413578402E+02  0.78000564512E+01  0.33014545895E+02  0.50528811394E+02  0.29999852714E+02 0.  0.
        -12    1    3    3    0    0 -0.22413578402E+02 -0.78000564512E+01 -0.33014545895E+02  0.40659188606E+02  0.00000000000E+00 0.  1.
         11    1    4    4    0    0  0.12274877813E+01 -0.42866226528E+01 -0.27913658010E+01  0.52605687256E+01  0.51100000000E-03 0. -1.
        -11    1    4    4    0    0 -0.16023931696E+01  0.24862268393E+01  0.42386879639E+01  0.51687003862E+01  0.51100000000E-03 0.  1.
         12    1    4    4    0    0  0.22788483790E+02  0.96004522647E+01  0.31567223732E+02  0.40099542283E+02  0.00000000000E+00 0. -1.
</event>
<event>
 8    1  0.1615837E-013  0.9118800E+02  0.7816164E-02  0.1184000E+00
        -11   -1    0    0    0    0  0.00000000000E+00  0.00000000000E+00  0.45593999997E+02  0.45594000000E+02  0.51100000000E-03 0. -1.
         11   -1    0    0    0    0 -0.00000000000E+00 -0.00000000000E+00 -0.45593999997E+02  0.45594000000E+02  0.51100000000E-03 0.  1.
         23    2    1    2    0    0  0.00000000000E+00 -0.17763568394E-14  0.00000000000E+00  0.91188000000E+02  0.91188000000E+02 0.  0.
    9900012    2    3    3    0    0 -0.25924087460E+02  0.99167470228E+01 -0.29711364059E+02  0.50528864047E+02  0.30000012757E+02 0.  0.
         12    1    3    3    0    0  0.25924087460E+02 -0.99167470228E+01  0.29711364059E+02  0.40659135953E+02  0.00000000000E+00 0. -1.
         11    1    4    4    0    0  0.22489735082E+01  0.47534584320E+01 -0.32576669399E+00  0.52687164571E+01  0.51100000000E-03 0. -1.
        -11    1    4    4    0    0 -0.10428144069E+02 -0.70220784217E+01 -0.13904617485E+02  0.18745510442E+02  0.51100000000E-03 0.  1.
        -12    1    4    4    0    0 -0.17744916899E+02  0.12185367013E+02 -0.15480979881E+02  0.26514637147E+02  0.00000000000E+00 0.  1.
</event>
<event>
 8    1  0.2462652E-013  0.9118800E+02  0.7816164E-02  0.1184000E+00
        -11   -1    0    0    0    0  0.00000000000E+00  0.00000000000E+00  0.45593999997E+02  0.45594000000E+02  0.51100000000E-03 0. -1.
         11   -1    0    0    0    0 -0.00000000000E+00 -0.00000000000E+00 -0.45593999997E+02  0.45594000000E+02  0.51100000000E-03 0.  1.
         23    2    1    2    0    0 -0.35527136788E-14 -0.35527136788E-14  0.35527136788E-14  0.91188000000E+02  0.91188000000E+02 0.  0.
    9900012    2    3    3    0    0 -0.25324187462E+02 -0.18826047086E+02  0.25640439309E+02  0.50528847925E+02  0.29999963753E+02 0.  0.
        -12    1    3    3    0    0  0.25324187462E+02  0.18826047086E+02 -0.25640439309E+02  0.40659152075E+02  0.00000000000E+00 0.  1.
         11    1    4    4    0    0 -0.97887604651E+01 -0.65625807917E+01  0.11731681439E+02  0.16628879930E+02  0.51100000000E-03 0. -1.
        -11    1    4    4    0    0 -0.21117556639E+02 -0.66835468839E+01  0.65230210371E+01  0.23090491572E+02  0.51100000000E-03 0.  1.
        -12    1    4    4    0    0  0.55821296419E+01 -0.55799194105E+01  0.73857368332E+01  0.10809476423E+02  0.00000000000E+00 0.  1.
</event>
<event>
 8    1  0.1615837E-013  0.9118800E+02  0.7816164E-02  0.1184000E+00
        -11   -1    0    0    0    0  0.00000000000E+00  0.00000000000E+00  0.45593999997E+02  0.45594000000E+02  0.51100000000E-03 0.  1.
         11   -1    0    0    0    0 -0.00000000000E+00 -0.00000000000E+00 -0.45593999997E+02  0.45594000000E+02  0.51100000000E-03 0. -1.
         23    2    1    2    0    0  0.00000000000E+00  0.00000000000E+00 -0.35527136788E-14  0.91188000000E+02  0.91188000000E+02 0.  0.
    9900012    2    3    3    0    0  0.25944019110E+02  0.16682012532E+02 -0.26491201693E+02  0.50528862812E+02  0.30000009003E+02 0.  0.
         12    1    3    3    0    0 -0.25944019110E+02 -0.16682012532E+02  0.26491201693E+02  0.40659137188E+02  0.00000000000E+00 0. -1.
         11    1    4    4    0    0  0.26732580551E+02  0.19171461981E+02 -0.14043112153E+02  0.35768489157E+02  0.51100000000E-03 0.  1.
        -11    1    4    4    0    0  0.31428307475E+01 -0.55138749645E+00 -0.31638310925E+01  0.44934664483E+01  0.51100000000E-03 0. -1.
         12    1    4    4    0    0 -0.39313921879E+01 -0.19380619519E+01 -0.92842584478E+01  0.10266907207E+02  0.00000000000E+00 0. -1.
</event>
<event>
 8    1  0.1615837E-013  0.9118800E+02  0.7816164E-02  0.1184000E+00
        -11   -1    0    0    0    0  0.00000000000E+00  0.00000000000E+00  0.45593999997E+02  0.45594000000E+02  0.51100000000E-03 0. -1.
         11   -1    0    0    0    0 -0.00000000000E+00 -0.00000000000E+00 -0.45593999997E+02  0.45594000000E+02  0.51100000000E-03 0.  1.
         23    2    1    2    0    0  0.00000000000E+00  0.00000000000E+00  0.00000000000E+00  0.91188000000E+02  0.91188000000E+02 0.  0.
    9900012    2    3    3    0    0 -0.20354728888E+02 -0.24045692046E+02 -0.25703222900E+02  0.50528856361E+02  0.29999989394E+02 0.  0.
         12    1    3    3    0    0  0.20354728888E+02  0.24045692046E+02  0.25703222900E+02  0.40659143639E+02  0.00000000000E+00 0. -1.
         11    1    4    4    0    0  0.20807861337E+01 -0.16896324535E+02 -0.11809710294E+02  0.20719187031E+02  0.51100000000E-03 0. -1.
        -11    1    4    4    0    0 -0.55442960073E+01 -0.76817176462E+01 -0.48774111925E+01  0.10655381007E+02  0.51100000000E-03 0.  1.
         12    1    4    4    0    0 -0.16891219014E+02  0.53235013510E+00 -0.90161014134E+01  0.19154288323E+02  0.00000000000E+00 0. -1.
</event>
<event>
 8    1  0.1615837E-013  0.9118800E+02  0.7816164E-02  0.1184000E+00
        -11   -1    0    0    0    0  0.00000000000E+00  0.00000000000E+00  0.45593999997E+02  0.45594000000E+02  0.51100000000E-03 0. -1.
         11   -1    0    0    0    0 -0.00000000000E+00 -0.00000000000E+00 -0.45593999997E+02  0.45594000000E+02  0.51100000000E-03 0.  1.
         23    2    1    2    0    0  0.00000000000E+00  0.00000000000E+00  0.17763568394E-14  0.91188000000E+02  0.91188000000E+02 0.  0.
    9900012    2    3    3    0    0 -0.25242721294E+02 -0.28729303794E+02  0.13805734146E+02  0.50528853795E+02  0.29999981595E+02 0.  0.
        -12    1    3    3    0    0  0.25242721294E+02  0.28729303794E+02 -0.13805734146E+02  0.40659146205E+02  0.00000000000E+00 0.  1.
         11    1    4    4    0    0 -0.98410272261E+01 -0.17560206989E+02 -0.11187372640E+01  0.20160809995E+02  0.51100000000E-03 0. -1.
        -11    1    4    4    0    0 -0.35527690592E+01 -0.24175068711E+01 -0.43463621477E+01  0.61120677058E+01  0.51100000000E-03 0.  1.
         12    1    4    4    0    0 -0.11848925009E+02 -0.87515899341E+01  0.19270833558E+02  0.24255976094E+02  0.00000000000E+00 0. -1.
</event>
<event>
 8    1  0.1615837E-013  0.9118800E+02  0.7816164E-02  0.1184000E+00
        -11   -1    0    0    0    0  0.00000000000E+00  0.00000000000E+00  0.45593999997E+02  0.45594000000E+02  0.51100000000E-03 0. -1.
         11   -1    0    0    0    0 -0.00000000000E+00 -0.00000000000E+00 -0.45593999997E+02  0.45594000000E+02  0.51100000000E-03 0.  1.
         23    2    1    2    0    0 -0.71054273576E-14  0.00000000000E+00  0.00000000000E+00  0.91188000000E+02  0.91188000000E+02 0.  0.
    9900012    2    3    3    0    0 -0.31491764674E+02  0.11109553855E+02 -0.23195081714E+02  0.50528865174E+02  0.30000016182E+02 0.  0.
         12    1    3    3    0    0  0.31491764674E+02 -0.11109553855E+02  0.23195081714E+02  0.40659134826E+02  0.00000000000E+00 0. -1.
         11    1    4    4    0    0 -0.32966350522E+02  0.58782159626E+01 -0.89951859438E+01  0.34673434501E+02  0.51100000000E-03 0. -1.
        -11    1    4    4    0    0 -0.10753280520E+01  0.19570249973E+01 -0.21066261682E+01  0.30698780648E+01  0.51100000000E-03 0.  1.
         12    1    4    4    0    0  0.25499139008E+01  0.32743128950E+01 -0.12093269602E+02  0.12785552608E+02  0.00000000000E+00 0. -1.
</event>
<event>
 8    1  0.1615837E-013  0.9118800E+02  0.7816164E-02  0.1184000E+00
        -11   -1    0    0    0    0  0.00000000000E+00  0.00000000000E+00  0.45593999997E+02  0.45594000000E+02  0.51100000000E-03 0. -1.
         11   -1    0    0    0    0 -0.00000000000E+00 -0.00000000000E+00 -0.45593999997E+02  0.45594000000E+02  0.51100000000E-03 0.  1.
         23    2    1    2    0    0 -0.88817841970E-15  0.00000000000E+00  0.00000000000E+00  0.91188000000E+02  0.91188000000E+02 0.  0.
    9900012    2    3    3    0    0  0.69163677234E+01 -0.10024727572E+02 -0.38792195683E+02  0.50528858945E+02  0.29999997251E+02 0.  0.
         12    1    3    3    0    0 -0.69163677234E+01  0.10024727572E+02  0.38792195683E+02  0.40659141055E+02  0.00000000000E+00 0. -1.
         11    1    4    4    0    0 -0.67879773238E+01 -0.57903166066E+01 -0.12578922596E+02  0.15421857751E+02  0.51100000000E-03 0. -1.
        -11    1    4    4    0    0 -0.21716046760E+01  0.93632842694E+00 -0.14547778591E+02  0.14738739430E+02  0.51100000000E-03 0.  1.
         12    1    4    4    0    0  0.15875949723E+02 -0.51707393921E+01 -0.11665494496E+02  0.20368261765E+02  0.00000000000E+00 0. -1.
</event>
<event>
 8    1  0.1615837E-013  0.9118800E+02  0.7816164E-02  0.1184000E+00
        -11   -1    0    0    0    0  0.00000000000E+00  0.00000000000E+00  0.45593999997E+02  0.45594000000E+02  0.51100000000E-03 0. -1.
         11   -1    0    0    0    0 -0.00000000000E+00 -0.00000000000E+00 -0.45593999997E+02  0.45594000000E+02  0.51100000000E-03 0.  1.
         23    2    1    2    0    0  0.00000000000E+00 -0.17763568394E-14  0.00000000000E+00  0.91188000000E+02  0.91188000000E+02 0.  0.
    9900012    2    3    3    0    0 -0.17931961470E+02  0.10789129839E+02  0.34859809355E+02  0.50528845150E+02  0.29999955317E+02 0.  0.
        -12    1    3    3    0    0  0.17931961470E+02 -0.10789129839E+02 -0.34859809355E+02  0.40659154850E+02  0.00000000000E+00 0.  1.
         11    1    4    4    0    0 -0.14430451142E+02  0.86025199127E+01  0.37366217383E+02  0.40969201490E+02  0.51100000000E-03 0. -1.
        -11    1    4    4    0    0 -0.66134308629E+00 -0.26691595509E+01  0.10055847791E+01  0.29279665973E+01  0.51100000000E-03 0.  1.
        -12    1    4    4    0    0 -0.28401672423E+01  0.48557694775E+01 -0.35119928065E+01  0.66316770621E+01  0.00000000000E+00 0.  1.
</event>
<event>
 8    1  0.1615837E-013  0.9118800E+02  0.7816164E-02  0.1184000E+00
        -11   -1    0    0    0    0  0.00000000000E+00  0.00000000000E+00  0.45593999997E+02  0.45594000000E+02  0.51100000000E-03 0. -1.
         11   -1    0    0    0    0 -0.00000000000E+00 -0.00000000000E+00 -0.45593999997E+02  0.45594000000E+02  0.51100000000E-03 0.  1.
         23    2    1    2    0    0  0.00000000000E+00  0.88817841970E-15  0.00000000000E+00  0.91188000000E+02  0.91188000000E+02 0.  0.
    9900012    2    3    3    0    0  0.16179322380E+02 -0.37532582443E+01  0.37112101544E+02  0.50528862022E+02  0.30000006601E+02 0.  0.
        -12    1    3    3    0    0 -0.16179322380E+02  0.37532582443E+01 -0.37112101544E+02  0.40659137978E+02  0.00000000000E+00 0.  1.
         11    1    4    4    0    0 -0.28554325764E+01 -0.39378336194E+00 -0.13438063251E+01  0.31803107136E+01  0.51100000000E-03 0.  1.
        -11    1    4    4    0    0 -0.27216004900E+01  0.27164332713E+01  0.16954946513E+01  0.42024779974E+01  0.51100000000E-03 0. -1.
        -12    1    4    4    0    0  0.21756355446E+02 -0.60759081537E+01  0.36760413218E+02  0.43146073311E+02  0.00000000000E+00 0.  1.
</event>
<event>
 8    1  0.1615837E-013  0.9118800E+02  0.7816164E-02  0.1184000E+00
        -11   -1    0    0    0    0  0.00000000000E+00  0.00000000000E+00  0.45593999997E+02  0.45594000000E+02  0.51100000000E-03 0. -1.
         11   -1    0    0    0    0 -0.00000000000E+00 -0.00000000000E+00 -0.45593999997E+02  0.45594000000E+02  0.51100000000E-03 0.  1.
         23    2    1    2    0    0 -0.35527136788E-14  0.35527136788E-14  0.35527136788E-14  0.91188000000E+02  0.91188000000E+02 0.  0.
    9900012    2    3    3    0    0 -0.19004035636E+02  0.28789486250E+02  0.21521601651E+02  0.50528840803E+02  0.29999942104E+02 0.  0.
        -12    1    3    3    0    0  0.19004035636E+02 -0.28789486250E+02 -0.21521601651E+02  0.40659159197E+02  0.00000000000E+00 0.  1.
         11    1    4    4    0    0 -0.77793584706E+01  0.17100725929E+02  0.19279041936E+02  0.26919039800E+02  0.51100000000E-03 0. -1.
        -11    1    4    4    0    0 -0.35124663709E+01  0.13020264345E+02 -0.34645175878E+01  0.13923634080E+02  0.51100000000E-03 0.  1.
         12    1    4    4    0    0 -0.77122107949E+01 -0.13315040246E+01  0.57070773030E+01  0.96861669228E+01  0.00000000000E+00 0. -1.
</event>
<event>
 8    1  0.1615837E-013  0.9118800E+02  0.7816164E-02  0.1184000E+00
        -11   -1    0    0    0    0  0.00000000000E+00  0.00000000000E+00  0.45593999997E+02  0.45594000000E+02  0.51100000000E-03 0. -1.
         11   -1    0    0    0    0 -0.00000000000E+00 -0.00000000000E+00 -0.45593999997E+02  0.45594000000E+02  0.51100000000E-03 0.  1.
         23    2    1    2    0    0  0.35527136788E-14 -0.17763568394E-14  0.00000000000E+00  0.91188000000E+02  0.91188000000E+02 0.  0.
    9900012    2    3    3    0    0  0.16829592555E+02 -0.11322758918E+02 -0.35238137127E+02  0.50528851420E+02  0.29999974376E+02 0.  0.
         12    1    3    3    0    0 -0.16829592555E+02  0.11322758918E+02  0.35238137127E+02  0.40659148580E+02  0.00000000000E+00 0. -1.
         11    1    4    4    0    0 -0.38941323098E+01 -0.53887092893E+01 -0.27692243926E+01  0.72021564999E+01  0.51100000000E-03 0. -1.
        -11    1    4    4    0    0  0.16184413330E+02 -0.67273879899E+01 -0.95714021546E+01  0.19970095730E+02  0.51100000000E-03 0.  1.
         12    1    4    4    0    0  0.45393115351E+01  0.79333836147E+00 -0.22897510580E+02  0.23356599190E+02  0.00000000000E+00 0. -1.
</event>
<event>
 8    1  0.1615837E-013  0.9118800E+02  0.7816164E-02  0.1184000E+00
        -11   -1    0    0    0    0  0.00000000000E+00  0.00000000000E+00  0.45593999997E+02  0.45594000000E+02  0.51100000000E-03 0. -1.
         11   -1    0    0    0    0 -0.00000000000E+00 -0.00000000000E+00 -0.45593999997E+02  0.45594000000E+02  0.51100000000E-03 0.  1.
         23    2    1    2    0    0  0.00000000000E+00  0.35527136788E-14 -0.35527136788E-14  0.91188000000E+02  0.91188000000E+02 0.  0.
    9900012    2    3    3    0    0 -0.47970252801E+01 -0.31719565610E+02  0.24980465317E+02  0.50528856607E+02  0.29999990143E+02 0.  0.
        -12    1    3    3    0    0  0.47970252801E+01  0.31719565610E+02 -0.24980465317E+02  0.40659143393E+02  0.00000000000E+00 0.  1.
         11    1    4    4    0    0 -0.22143178381E+01 -0.16299677558E+02  0.13229070249E+02  0.21109026314E+02  0.51100000000E-03 0. -1.
        -11    1    4    4    0    0  0.43756631151E+01 -0.67830276776E+01 -0.48777665626E+01  0.94312511933E+01  0.51100000000E-03 0.  1.
         12    1    4    4    0    0 -0.69583705572E+01 -0.86368603736E+01  0.16629161630E+02  0.19988579100E+02  0.00000000000E+00 0. -1.
</event>
<event>
 8    1  0.1615837E-013  0.9118800E+02  0.7816164E-02  0.1184000E+00
        -11   -1    0    0    0    0  0.00000000000E+00  0.00000000000E+00  0.45593999997E+02  0.45594000000E+02  0.51100000000E-03 0. -1.
         11   -1    0    0    0    0 -0.00000000000E+00 -0.00000000000E+00 -0.45593999997E+02  0.45594000000E+02  0.51100000000E-03 0.  1.
         23    2    1    2    0    0  0.35527136788E-14  0.00000000000E+00  0.00000000000E+00  0.91188000000E+02  0.91188000000E+02 0.  0.
    9900012    2    3    3    0    0 -0.31296527428E+02  0.19415752042E+02 -0.17225641900E+02  0.50528846107E+02  0.29999958227E+02 0.  0.
         12    1    3    3    0    0  0.31296527428E+02 -0.19415752042E+02  0.17225641900E+02  0.40659153893E+02  0.00000000000E+00 0. -1.
         11    1    4    4    0    0 -0.24631018078E+01 -0.36803158038E+01 -0.23281273552E+01  0.50031762086E+01  0.51100000000E-03 0. -1.
        -11    1    4    4    0    0  0.11306460683E+01 -0.28084638507E+01 -0.27645951084E+01  0.40998556203E+01  0.51100000000E-03 0.  1.
        -12    1    4    4    0    0 -0.29964071689E+02  0.25904531696E+02 -0.12132919436E+02  0.41425814278E+02  0.00000000000E+00 0.  1.
</event>
<event>
 8    1  0.1615837E-013  0.9118800E+02  0.7816164E-02  0.1184000E+00
        -11   -1    0    0    0    0  0.00000000000E+00  0.00000000000E+00  0.45593999997E+02  0.45594000000E+02  0.51100000000E-03 0. -1.
         11   -1    0    0    0    0 -0.00000000000E+00 -0.00000000000E+00 -0.45593999997E+02  0.45594000000E+02  0.51100000000E-03 0.  1.
         23    2    1    2    0    0  0.44408920985E-15  0.00000000000E+00  0.00000000000E+00  0.91188000000E+02  0.91188000000E+02 0.  0.
    9900012    2    3    3    0    0  0.21558127896E+01  0.13006613161E+02 -0.38462264261E+02  0.50528864658E+02  0.30000014614E+02 0.  0.
         12    1    3    3    0    0 -0.21558127896E+01 -0.13006613161E+02  0.38462264261E+02  0.40659135342E+02  0.00000000000E+00 0. -1.
         11    1    4    4    0    0 -0.45796820901E+01  0.17853210668E+02 -0.12456955666E+02  0.22246041534E+02  0.51100000000E-03 0.  1.
        -11    1    4    4    0    0 -0.18720331831E+00 -0.30928344641E+01 -0.13784081306E+02  0.14128041896E+02  0.51100000000E-03 0. -1.
        -12    1    4    4    0    0  0.69226981980E+01 -0.17537630437E+01 -0.12221227289E+02  0.14154781228E+02  0.00000000000E+00 0.  1.
</event>
<event>
 8    1  0.1615837E-013  0.9118800E+02  0.7816164E-02  0.1184000E+00
        -11   -1    0    0    0    0  0.00000000000E+00  0.00000000000E+00  0.45593999997E+02  0.45594000000E+02  0.51100000000E-03 0. -1.
         11   -1    0    0    0    0 -0.00000000000E+00 -0.00000000000E+00 -0.45593999997E+02  0.45594000000E+02  0.51100000000E-03 0.  1.
         23    2    1    2    0    0  0.00000000000E+00  0.00000000000E+00  0.00000000000E+00  0.91188000000E+02  0.91188000000E+02 0.  0.
    9900012    2    3    3    0    0  0.19733212232E+02  0.12277194303E+02 -0.33362299658E+02  0.50528779602E+02  0.29999756077E+02 0.  0.
         12    1    3    3    0    0 -0.19733212232E+02 -0.12277194303E+02  0.33362299658E+02  0.40659220398E+02  0.00000000000E+00 0. -1.
         11    1    4    4    0    0  0.11821552654E+01 -0.29850081008E+01  0.31862195182E+01  0.45232465677E+01  0.51100000000E-03 0. -1.
        -11    1    4    4    0    0  0.95692891112E+00  0.32763275141E+01  0.32401930026E+00  0.34285600022E+01  0.51100000000E-03 0.  1.
        -12    1    4    4    0    0  0.17594128055E+02  0.11985874890E+02 -0.36872538476E+02  0.42576973032E+02  0.00000000000E+00 0.  1.
</event>
<event>
 8    1  0.1615837E-013  0.9118800E+02  0.7816164E-02  0.1184000E+00
        -11   -1    0    0    0    0  0.00000000000E+00  0.00000000000E+00  0.45593999997E+02  0.45594000000E+02  0.51100000000E-03 0.  1.
         11   -1    0    0    0    0 -0.00000000000E+00 -0.00000000000E+00 -0.45593999997E+02  0.45594000000E+02  0.51100000000E-03 0. -1.
         23    2    1    2    0    0  0.35527136788E-14  0.35527136788E-14 -0.35527136788E-14  0.91188000000E+02  0.91188000000E+02 0.  0.
    9900012    2    3    3    0    0  0.21670285031E+02  0.30175126696E+02  0.16523509963E+02  0.50528857044E+02  0.29999991470E+02 0.  0.
         12    1    3    3    0    0 -0.21670285031E+02 -0.30175126696E+02 -0.16523509963E+02  0.40659142956E+02  0.00000000000E+00 0. -1.
         11    1    4    4    0    0  0.17410485717E+02  0.27760901915E+02  0.14877244282E+02  0.35987846362E+02  0.51100000000E-03 0. -1.
        -11    1    4    4    0    0  0.43956114902E+01  0.44878128187E+01  0.66348574802E+01  0.91369140475E+01  0.51100000000E-03 0.  1.
         12    1    4    4    0    0 -0.13581217613E+00 -0.20735880380E+01 -0.49885917989E+01  0.54040966345E+01  0.00000000000E+00 0. -1.
</event>
<event>
 8    1  0.1615837E-013  0.9118800E+02  0.7816164E-02  0.1184000E+00
        -11   -1    0    0    0    0  0.00000000000E+00  0.00000000000E+00  0.45593999997E+02  0.45594000000E+02  0.51100000000E-03 0. -1.
         11   -1    0    0    0    0 -0.00000000000E+00 -0.00000000000E+00 -0.45593999997E+02  0.45594000000E+02  0.51100000000E-03 0.  1.
         23    2    1    2    0    0  0.00000000000E+00 -0.35527136788E-14 -0.71054273576E-14  0.91188000000E+02  0.91188000000E+02 0.  0.
    9900012    2    3    3    0    0  0.12000586083E+02 -0.13427621039E+02 -0.36453399728E+02  0.50528862960E+02  0.30000009452E+02 0.  0.
         12    1    3    3    0    0 -0.12000586083E+02  0.13427621039E+02  0.36453399728E+02  0.40659137040E+02  0.00000000000E+00 0. -1.
         11    1    4    4    0    0 -0.18383716373E+01 -0.34032649022E+01  0.78035482171E+00  0.39459822833E+01  0.51100000000E-03 0. -1.
        -11    1    4    4    0    0  0.48954551779E+01 -0.15883597241E+02 -0.27451906468E+02  0.32091452315E+02  0.51100000000E-03 0.  1.
         12    1    4    4    0    0  0.89435025423E+01  0.58592411039E+01 -0.97818480822E+01  0.14491428361E+02  0.00000000000E+00 0. -1.
</event>
<event>
 8    1  0.1615837E-013  0.9118800E+02  0.7816164E-02  0.1184000E+00
        -11   -1    0    0    0    0  0.00000000000E+00  0.00000000000E+00  0.45593999997E+02  0.45594000000E+02  0.51100000000E-03 0. -1.
         11   -1    0    0    0    0 -0.00000000000E+00 -0.00000000000E+00 -0.45593999997E+02  0.45594000000E+02  0.51100000000E-03 0.  1.
         23    2    1    2    0    0  0.00000000000E+00  0.00000000000E+00  0.00000000000E+00  0.91188000000E+02  0.91188000000E+02 0.  0.
    9900012    2    3    3    0    0 -0.11297327313E+02  0.57503829291E+01  0.38632487973E+02  0.50528860373E+02  0.30000001589E+02 0.  0.
        -12    1    3    3    0    0  0.11297327313E+02 -0.57503829291E+01 -0.38632487973E+02  0.40659139627E+02  0.00000000000E+00 0.  1.
         11    1    4    4    0    0  0.91543958701E+01 -0.25433298703E+01  0.12898615846E+02  0.16020167964E+02  0.51100000000E-03 0. -1.
        -11    1    4    4    0    0 -0.96307483527E+01  0.67476324846E+01  0.16107750267E+02  0.19943456994E+02  0.51100000000E-03 0.  1.
        -12    1    4    4    0    0 -0.10820974830E+02  0.15460803149E+01  0.96261218600E+01  0.14565235414E+02  0.00000000000E+00 0.  1.
</event>
<event>
 8    1  0.1615837E-013  0.9118800E+02  0.7816164E-02  0.1184000E+00
        -11   -1    0    0    0    0  0.00000000000E+00  0.00000000000E+00  0.45593999997E+02  0.45594000000E+02  0.51100000000E-03 0. -1.
         11   -1    0    0    0    0 -0.00000000000E+00 -0.00000000000E+00 -0.45593999997E+02  0.45594000000E+02  0.51100000000E-03 0.  1.
         23    2    1    2    0    0  0.17763568394E-14  0.00000000000E+00  0.00000000000E+00  0.91188000000E+02  0.91188000000E+02 0.  0.
    9900012    2    3    3    0    0 -0.15953974372E+02 -0.81580741726E+01 -0.36497713327E+02  0.50528849116E+02  0.29999967374E+02 0.  0.
         12    1    3    3    0    0  0.15953974372E+02  0.81580741726E+01  0.36497713327E+02  0.40659150884E+02  0.00000000000E+00 0. -1.
         11    1    4    4    0    0 -0.89832118838E+01 -0.35203832876E+01 -0.11617162292E+02  0.15101312996E+02  0.51100000000E-03 0.  1.
        -11    1    4    4    0    0 -0.13344426152E+02  0.14742547195E+01 -0.62478481935E+01  0.14808198527E+02  0.51100000000E-03 0. -1.
         12    1    4    4    0    0  0.63736636641E+01 -0.61119456044E+01 -0.18632702842E+02  0.20619337593E+02  0.00000000000E+00 0. -1.
</event>
<event>
 8    1  0.1615837E-013  0.9118800E+02  0.7816164E-02  0.1184000E+00
        -11   -1    0    0    0    0  0.00000000000E+00  0.00000000000E+00  0.45593999997E+02  0.45594000000E+02  0.51100000000E-03 0. -1.
         11   -1    0    0    0    0 -0.00000000000E+00 -0.00000000000E+00 -0.45593999997E+02  0.45594000000E+02  0.51100000000E-03 0.  1.
         23    2    1    2    0    0  0.00000000000E+00  0.35527136788E-14 -0.71054273576E-14  0.91188000000E+02  0.91188000000E+02 0.  0.
    9900012    2    3    3    0    0 -0.58054252092E+01  0.17166890162E+02 -0.36397266581E+02  0.50528854728E+02  0.29999984430E+02 0.  0.
         12    1    3    3    0    0  0.58054252092E+01 -0.17166890162E+02  0.36397266581E+02  0.40659145272E+02  0.00000000000E+00 0. -1.
         11    1    4    4    0    0 -0.10496575423E+02  0.12066688383E+01 -0.28252592280E+01  0.10936920739E+02  0.51100000000E-03 0. -1.
        -11    1    4    4    0    0 -0.32520384555E+01  0.31477386885E+00 -0.73187566957E+01  0.80149258597E+01  0.51100000000E-03 0.  1.
        -12    1    4    4    0    0  0.79431886688E+01  0.15645447455E+02 -0.26253250658E+02  0.31577008129E+02  0.00000000000E+00 0.  1.
</event>
<event>
 8    1  0.1615837E-013  0.9118800E+02  0.7816164E-02  0.1184000E+00
        -11   -1    0    0    0    0  0.00000000000E+00  0.00000000000E+00  0.45593999997E+02  0.45594000000E+02  0.51100000000E-03 0.  1.
         11   -1    0    0    0    0 -0.00000000000E+00 -0.00000000000E+00 -0.45593999997E+02  0.45594000000E+02  0.51100000000E-03 0. -1.
         23    2    1    2    0    0  0.00000000000E+00 -0.27755575616E-15  0.88817841970E-15  0.91188000000E+02  0.91188000000E+02 0.  0.
    9900012    2    3    3    0    0  0.40320519481E+02 -0.42361074107E+00 -0.52193387739E+01  0.50528865300E+02  0.30000016567E+02 0.  0.
         12    1    3    3    0    0 -0.40320519481E+02  0.42361074107E+00  0.52193387739E+01  0.40659134700E+02  0.00000000000E+00 0. -1.
         11    1    4    4    0    0  0.11515941105E+02 -0.34318417357E+01 -0.10405101820E+02  0.15895300607E+02  0.51100000000E-03 0. -1.
        -11    1    4    4    0    0  0.35650603673E+01 -0.56688968870E+01  0.42424881729E+01  0.79274682905E+01  0.51100000000E-03 0.  1.
        -12    1    4    4    0    0  0.25239518009E+02  0.86771278817E+01  0.94327487357E+00  0.26706096403E+02  0.00000000000E+00 0.  1.
</event>
<event>
 8    1  0.1615837E-013  0.9118800E+02  0.7816164E-02  0.1184000E+00
        -11   -1    0    0    0    0  0.00000000000E+00  0.00000000000E+00  0.45593999997E+02  0.45594000000E+02  0.51100000000E-03 0. -1.
         11   -1    0    0    0    0 -0.00000000000E+00 -0.00000000000E+00 -0.45593999997E+02  0.45594000000E+02  0.51100000000E-03 0.  1.
         23    2    1    2    0    0  0.00000000000E+00  0.00000000000E+00 -0.71054273576E-14  0.91188000000E+02  0.91188000000E+02 0.  0.
    9900012    2    3    3    0    0  0.10099417114E+02 -0.68326214332E+01 -0.38787665662E+02  0.50528856511E+02  0.29999989852E+02 0.  0.
         12    1    3    3    0    0 -0.10099417114E+02  0.68326214332E+01  0.38787665662E+02  0.40659143489E+02  0.00000000000E+00 0. -1.
         11    1    4    4    0    0 -0.37991831895E+00  0.72357349956E+00  0.51467720409E+00  0.96581024216E+00  0.51100000000E-03 0. -1.
        -11    1    4    4    0    0 -0.75103984494E+01 -0.59446443361E+01 -0.50208496916E+01  0.10814518623E+02  0.51100000000E-03 0.  1.
        -12    1    4    4    0    0  0.17989733882E+02 -0.16115505967E+01 -0.34281493175E+02  0.38748527647E+02  0.00000000000E+00 0.  1.
</event>
<event>
 8    1  0.1615837E-013  0.9118800E+02  0.7816164E-02  0.1184000E+00
        -11   -1    0    0    0    0  0.00000000000E+00  0.00000000000E+00  0.45593999997E+02  0.45594000000E+02  0.51100000000E-03 0. -1.
         11   -1    0    0    0    0 -0.00000000000E+00 -0.00000000000E+00 -0.45593999997E+02  0.45594000000E+02  0.51100000000E-03 0.  1.
         23    2    1    2    0    0  0.00000000000E+00  0.00000000000E+00 -0.71054273576E-14  0.91188000000E+02  0.91188000000E+02 0.  0.
    9900012    2    3    3    0    0  0.68865323767E+01  0.13517720384E+02  0.37722834245E+02  0.50528864298E+02  0.30000013521E+02 0.  0.
        -12    1    3    3    0    0 -0.68865323767E+01 -0.13517720384E+02 -0.37722834245E+02  0.40659135702E+02  0.00000000000E+00 0.  1.
         11    1    4    4    0    0 -0.47926820225E+01  0.35516124731E+01  0.10780421722E+02  0.12320764785E+02  0.51100000000E-03 0. -1.
        -11    1    4    4    0    0  0.42289366790E+01  0.16301943329E+02  0.13500203676E+02  0.21584549134E+02  0.51100000000E-03 0.  1.
        -12    1    4    4    0    0  0.74502777202E+01 -0.63358354179E+01  0.13442208846E+02  0.16623550379E+02  0.00000000000E+00 0.  1.
</event>
<event>
 8    1  0.1615837E-013  0.9118800E+02  0.7816164E-02  0.1184000E+00
        -11   -1    0    0    0    0  0.00000000000E+00  0.00000000000E+00  0.45593999997E+02  0.45594000000E+02  0.51100000000E-03 0. -1.
         11   -1    0    0    0    0 -0.00000000000E+00 -0.00000000000E+00 -0.45593999997E+02  0.45594000000E+02  0.51100000000E-03 0.  1.
         23    2    1    2    0    0  0.00000000000E+00  0.00000000000E+00 -0.77715611724E-15  0.91188000000E+02  0.91188000000E+02 0.  0.
    9900012    2    3    3    0    0  0.23573729665E+02 -0.33120219739E+02  0.70468734605E+00  0.50528852565E+02  0.29999977858E+02 0.  0.
         12    1    3    3    0    0 -0.23573729665E+02  0.33120219739E+02 -0.70468734605E+00  0.40659147435E+02  0.00000000000E+00 0. -1.
         11    1    4    4    0    0  0.89656263880E+01 -0.13864606055E+02 -0.65470311603E+01  0.17761570169E+02  0.51100000000E-03 0. -1.
        -11    1    4    4    0    0  0.14618145241E+02 -0.73359381618E+01 -0.34874908112E+01  0.16723299657E+02  0.51100000000E-03 0.  1.
         12    1    4    4    0    0 -0.10041963829E-01 -0.11919675522E+02  0.10739209318E+02  0.16043982740E+02  0.00000000000E+00 0. -1.
</event>
<event>
 8    1  0.1615837E-013  0.9118800E+02  0.7816164E-02  0.1184000E+00
        -11   -1    0    0    0    0  0.00000000000E+00  0.00000000000E+00  0.45593999997E+02  0.45594000000E+02  0.51100000000E-03 0. -1.
         11   -1    0    0    0    0 -0.00000000000E+00 -0.00000000000E+00 -0.45593999997E+02  0.45594000000E+02  0.51100000000E-03 0.  1.
         23    2    1    2    0    0  0.00000000000E+00  0.35527136788E-14  0.00000000000E+00  0.91188000000E+02  0.91188000000E+02 0.  0.
    9900012    2    3    3    0    0  0.21732532315E+01 -0.29989794935E+02 -0.27368797510E+02  0.50528906220E+02  0.30000140945E+02 0.  0.
         12    1    3    3    0    0 -0.21732532315E+01  0.29989794935E+02  0.27368797510E+02  0.40659093780E+02  0.00000000000E+00 0. -1.
         11    1    4    4    0    0  0.40301107646E+01 -0.17297909119E+02 -0.14369577937E+02  0.22846098639E+02  0.51100000000E-03 0. -1.
        -11    1    4    4    0    0  0.26998558544E+01 -0.17291333701E+02 -0.69763172038E+01  0.18840075498E+02  0.51100000000E-03 0.  1.
        -12    1    4    4    0    0 -0.45567133875E+01  0.45994478845E+01 -0.60229023695E+01  0.88427320829E+01  0.00000000000E+00 0.  1.
</event>
<event>
 8    1  0.1615837E-013  0.9118800E+02  0.7816164E-02  0.1184000E+00
        -11   -1    0    0    0    0  0.00000000000E+00  0.00000000000E+00  0.45593999997E+02  0.45594000000E+02  0.51100000000E-03 0. -1.
         11   -1    0    0    0    0 -0.00000000000E+00 -0.00000000000E+00 -0.45593999997E+02  0.45594000000E+02  0.51100000000E-03 0.  1.
         23    2    1    2    0    0  0.00000000000E+00  0.00000000000E+00  0.88817841970E-15  0.91188000000E+02  0.91188000000E+02 0.  0.
    9900012    2    3    3    0    0  0.16654006873E+02  0.37074438533E+02 -0.11384133178E+01  0.50528856842E+02  0.29999990858E+02 0.  0.
        -12    1    3    3    0    0 -0.16654006873E+02 -0.37074438533E+02  0.11384133178E+01  0.40659143158E+02  0.00000000000E+00 0.  1.
         11    1    4    4    0    0  0.99767610902E+01  0.32740743519E+02 -0.34958361306E+01  0.34405129247E+02  0.51100000000E-03 0. -1.
        -11    1    4    4    0    0  0.14247971412E+01  0.17495854854E+01 -0.57195890630E+01  0.61485604474E+01  0.51100000000E-03 0.  1.
        -12    1    4    4    0    0  0.52524486412E+01  0.25841095286E+01  0.80770118758E+01  0.99751671478E+01  0.00000000000E+00 0.  1.
</event>
<event>
 8    1  0.1615837E-013  0.9118800E+02  0.7816164E-02  0.1184000E+00
        -11   -1    0    0    0    0  0.00000000000E+00  0.00000000000E+00  0.45593999997E+02  0.45594000000E+02  0.51100000000E-03 0.  1.
         11   -1    0    0    0    0 -0.00000000000E+00 -0.00000000000E+00 -0.45593999997E+02  0.45594000000E+02  0.51100000000E-03 0. -1.
         23    2    1    2    0    0  0.00000000000E+00  0.17763568394E-14  0.00000000000E+00  0.91188000000E+02  0.91188000000E+02 0.  0.
    9900012    2    3    3    0    0 -0.37059823710E+02  0.14609959778E+02  0.81411045780E+01  0.50528941454E+02  0.30000248042E+02 0.  0.
        -12    1    3    3    0    0  0.37059823710E+02 -0.14609959778E+02 -0.81411045780E+01  0.40659058546E+02  0.00000000000E+00 0.  1.
         11    1    4    4    0    0  0.28119584176E+01  0.85163187277E+00  0.36246925520E+01  0.46659172031E+01  0.51100000000E-03 0. -1.
        -11    1    4    4    0    0 -0.43563853590E+01  0.85343514346E+01 -0.60984847256E+00  0.96013104953E+01  0.51100000000E-03 0.  1.
         12    1    4    4    0    0 -0.35515396768E+02  0.52239764702E+01  0.51262604986E+01  0.36261713755E+02  0.00000000000E+00 0. -1.
</event>
<event>
 8    1  0.1615837E-013  0.9118800E+02  0.7816164E-02  0.1184000E+00
        -11   -1    0    0    0    0  0.00000000000E+00  0.00000000000E+00  0.45593999997E+02  0.45594000000E+02  0.51100000000E-03 0. -1.
         11   -1    0    0    0    0 -0.00000000000E+00 -0.00000000000E+00 -0.45593999997E+02  0.45594000000E+02  0.51100000000E-03 0.  1.
         23    2    1    2    0    0  0.00000000000E+00  0.17763568394E-14  0.71054273576E-14  0.91188000000E+02  0.91188000000E+02 0.  0.
    9900012    2    3    3    0    0  0.53825089592E+01  0.12695938803E+02 -0.38249243246E+02  0.50528894333E+02  0.30000104815E+02 0.  0.
         12    1    3    3    0    0 -0.53825089592E+01 -0.12695938803E+02  0.38249243246E+02  0.40659105667E+02  0.00000000000E+00 0. -1.
         11    1    4    4    0    0 -0.17974807257E+01  0.12553234294E+01  0.98596827240E+00  0.24039358492E+01  0.51100000000E-03 0. -1.
        -11    1    4    4    0    0 -0.86772928638E+01  0.76309669830E+01 -0.16665637735E+02  0.20279806456E+02  0.51100000000E-03 0.  1.
         12    1    4    4    0    0  0.15857282549E+02  0.38096483901E+01 -0.22569573783E+02  0.27845152028E+02  0.00000000000E+00 0. -1.
</event>
<event>
 8    1  0.1615837E-013  0.9118800E+02  0.7816164E-02  0.1184000E+00
        -11   -1    0    0    0    0  0.00000000000E+00  0.00000000000E+00  0.45593999997E+02  0.45594000000E+02  0.51100000000E-03 0. -1.
         11   -1    0    0    0    0 -0.00000000000E+00 -0.00000000000E+00 -0.45593999997E+02  0.45594000000E+02  0.51100000000E-03 0.  1.
         23    2    1    2    0    0 -0.15543122345E-14 -0.88817841970E-15  0.00000000000E+00  0.91188000000E+02  0.91188000000E+02 0.  0.
    9900012    2    3    3    0    0 -0.19323018012E+01 -0.39561193902E+01 -0.40420066569E+02  0.50528850325E+02  0.29999971047E+02 0.  0.
         12    1    3    3    0    0  0.19323018012E+01  0.39561193902E+01  0.40420066569E+02  0.40659149675E+02  0.00000000000E+00 0. -1.
         11    1    4    4    0    0  0.45149903949E+00  0.10302448511E+01  0.51195251330E+00  0.12358606203E+01  0.51100000000E-03 0.  1.
        -11    1    4    4    0    0 -0.10921136726E+02 -0.53715588528E+00 -0.48731624834E+01  0.11971110086E+02  0.51100000000E-03 0. -1.
        -12    1    4    4    0    0  0.85373358856E+01 -0.44492083560E+01 -0.36058856599E+02  0.37321879618E+02  0.00000000000E+00 0.  1.
</event>
<event>
 8    1  0.1615837E-013  0.9118800E+02  0.7816164E-02  0.1184000E+00
        -11   -1    0    0    0    0  0.00000000000E+00  0.00000000000E+00  0.45593999997E+02  0.45594000000E+02  0.51100000000E-03 0. -1.
         11   -1    0    0    0    0 -0.00000000000E+00 -0.00000000000E+00 -0.45593999997E+02  0.45594000000E+02  0.51100000000E-03 0.  1.
         23    2    1    2    0    0 -0.35527136788E-14 -0.17763568394E-14  0.00000000000E+00  0.91188000000E+02  0.91188000000E+02 0.  0.
    9900012    2    3    3    0    0  0.26815013339E+02  0.83976702394E+01 -0.29387074987E+02  0.50528856107E+02  0.29999988622E+02 0.  0.
         12    1    3    3    0    0 -0.26815013339E+02 -0.83976702394E+01  0.29387074987E+02  0.40659143893E+02  0.00000000000E+00 0. -1.
         11    1    4    4    0    0  0.21997568269E+02  0.12200597323E+00 -0.20263967704E+02  0.29908799417E+02  0.51100000000E-03 0. -1.
        -11    1    4    4    0    0 -0.50801866856E+00  0.20667074169E+01 -0.11817625214E+02  0.12007732029E+02  0.51100000000E-03 0.  1.
         12    1    4    4    0    0  0.53254637390E+01  0.62089568492E+01  0.26945179307E+01  0.86123246612E+01  0.00000000000E+00 0. -1.
</event>
<event>
 8    1  0.1615837E-013  0.9118800E+02  0.7816164E-02  0.1184000E+00
        -11   -1    0    0    0    0  0.00000000000E+00  0.00000000000E+00  0.45593999997E+02  0.45594000000E+02  0.51100000000E-03 0. -1.
         11   -1    0    0    0    0 -0.00000000000E+00 -0.00000000000E+00 -0.45593999997E+02  0.45594000000E+02  0.51100000000E-03 0.  1.
         23    2    1    2    0    0  0.00000000000E+00  0.00000000000E+00  0.00000000000E+00  0.91188000000E+02  0.91188000000E+02 0.  0.
    9900012    2    3    3    0    0 -0.36889713744E+02 -0.56672329055E+01 -0.16130626151E+02  0.50528860696E+02  0.30000002573E+02 0.  0.
         12    1    3    3    0    0  0.36889713744E+02  0.56672329055E+01  0.16130626151E+02  0.40659139304E+02  0.00000000000E+00 0. -1.
         11    1    4    4    0    0  0.83603845929E+00  0.32938613095E+00 -0.19000596845E+01  0.21018283932E+01  0.51100000000E-03 0. -1.
        -11    1    4    4    0    0 -0.13568688392E+02 -0.56530499993E+01 -0.18774169762E+02  0.23843987281E+02  0.51100000000E-03 0.  1.
         12    1    4    4    0    0 -0.24157063811E+02 -0.34356903719E+00  0.45436032954E+01  0.24583045022E+02  0.00000000000E+00 0. -1.
</event>
<event>
 8    1  0.1615837E-013  0.9118800E+02  0.7816164E-02  0.1184000E+00
        -11   -1    0    0    0    0  0.00000000000E+00  0.00000000000E+00  0.45593999997E+02  0.45594000000E+02  0.51100000000E-03 0. -1.
         11   -1    0    0    0    0 -0.00000000000E+00 -0.00000000000E+00 -0.45593999997E+02  0.45594000000E+02  0.51100000000E-03 0.  1.
         23    2    1    2    0    0  0.00000000000E+00  0.00000000000E+00  0.00000000000E+00  0.91188000000E+02  0.91188000000E+02 0.  0.
    9900012    2    3    3    0    0 -0.36844826872E+02  0.10695931164E+02  0.13461873420E+02  0.50528852854E+02  0.29999978734E+02 0.  0.
        -12    1    3    3    0    0  0.36844826872E+02 -0.10695931164E+02 -0.13461873420E+02  0.40659147146E+02  0.00000000000E+00 0.  1.
         11    1    4    4    0    0 -0.64541387729E-01  0.51059693307E+01  0.92275828568E+00  0.51890819527E+01  0.51100000000E-03 0. -1.
        -11    1    4    4    0    0 -0.70896839533E+01 -0.77162750446E+01  0.62514173228E+01  0.12201833384E+02  0.51100000000E-03 0.  1.
         12    1    4    4    0    0 -0.29690601531E+02  0.13306236878E+02  0.62876978119E+01  0.33137937517E+02  0.00000000000E+00 0. -1.
</event>
<event>
 8    1  0.1615837E-013  0.9118800E+02  0.7816164E-02  0.1184000E+00
        -11   -1    0    0    0    0  0.00000000000E+00  0.00000000000E+00  0.45593999997E+02  0.45594000000E+02  0.51100000000E-03 0. -1.
         11   -1    0    0    0    0 -0.00000000000E+00 -0.00000000000E+00 -0.45593999997E+02  0.45594000000E+02  0.51100000000E-03 0.  1.
         23    2    1    2    0    0  0.44408920985E-15  0.00000000000E+00  0.00000000000E+00  0.91188000000E+02  0.91188000000E+02 0.  0.
    9900012    2    3    3    0    0  0.39885040766E+01  0.33914591869E+02 -0.22069401102E+02  0.50528853779E+02  0.29999981546E+02 0.  0.
         12    1    3    3    0    0 -0.39885040766E+01 -0.33914591869E+02  0.22069401102E+02  0.40659146221E+02  0.00000000000E+00 0. -1.
         11    1    4    4    0    0 -0.87734832001E+01  0.27532917452E+02 -0.14226926230E+02  0.32209330652E+02  0.51100000000E-03 0. -1.
        -11    1    4    4    0    0 -0.10424200054E+01  0.60446884426E+00  0.35578759982E+00  0.12564263324E+01  0.51100000000E-03 0.  1.
        -12    1    4    4    0    0  0.13804407282E+02  0.57772055737E+01 -0.81982624721E+01  0.17063096794E+02  0.00000000000E+00 0.  1.
</event>
<event>
 8    1  0.1615837E-013  0.9118800E+02  0.7816164E-02  0.1184000E+00
        -11   -1    0    0    0    0  0.00000000000E+00  0.00000000000E+00  0.45593999997E+02  0.45594000000E+02  0.51100000000E-03 0. -1.
         11   -1    0    0    0    0 -0.00000000000E+00 -0.00000000000E+00 -0.45593999997E+02  0.45594000000E+02  0.51100000000E-03 0.  1.
         23    2    1    2    0    0 -0.35527136788E-14  0.00000000000E+00  0.00000000000E+00  0.91188000000E+02  0.91188000000E+02 0.  0.
    9900012    2    3    3    0    0 -0.17870411446E+02 -0.27073513760E+01  0.36420931863E+02  0.50528860382E+02  0.30000001616E+02 0.  0.
        -12    1    3    3    0    0  0.17870411446E+02  0.27073513760E+01 -0.36420931863E+02  0.40659139618E+02  0.00000000000E+00 0.  1.
         11    1    4    4    0    0  0.34683314533E+01  0.31845943471E+01  0.12904382893E+02  0.13736595733E+02  0.51100000000E-03 0. -1.
        -11    1    4    4    0    0 -0.16929254253E+01 -0.62422737203E+01  0.43855191383E+00  0.64826156555E+01  0.51100000000E-03 0.  1.
         12    1    4    4    0    0 -0.19645817474E+02  0.35032799721E+00  0.23077997056E+02  0.30309648993E+02  0.00000000000E+00 0. -1.
</event>
<event>
 8    1  0.1615837E-013  0.9118800E+02  0.7816164E-02  0.1184000E+00
        -11   -1    0    0    0    0  0.00000000000E+00  0.00000000000E+00  0.45593999997E+02  0.45594000000E+02  0.51100000000E-03 0. -1.
         11   -1    0    0    0    0 -0.00000000000E+00 -0.00000000000E+00 -0.45593999997E+02  0.45594000000E+02  0.51100000000E-03 0.  1.
         23    2    1    2    0    0  0.00000000000E+00 -0.44408920985E-15  0.00000000000E+00  0.91188000000E+02  0.91188000000E+02 0.  0.
    9900012    2    3    3    0    0  0.92559197402E+01  0.11950808870E+01  0.39573549665E+02  0.50528854637E+02  0.29999984155E+02 0.  0.
        -12    1    3    3    0    0 -0.92559197402E+01 -0.11950808870E+01 -0.39573549665E+02  0.40659145363E+02  0.00000000000E+00 0.  1.
         11    1    4    4    0    0  0.49941422020E+01 -0.59672789100E+01  0.16560246501E+02  0.18297312327E+02  0.51100000000E-03 0. -1.
        -11    1    4    4    0    0 -0.78949989545E+01  0.66426332116E+01  0.11927811115E+02  0.15771121163E+02  0.51100000000E-03 0.  1.
         12    1    4    4    0    0  0.12156776493E+02  0.51972658551E+00  0.11085492048E+02  0.16460421148E+02  0.00000000000E+00 0. -1.
</event>
<event>
 8    1  0.1615837E-013  0.9118800E+02  0.7816164E-02  0.1184000E+00
        -11   -1    0    0    0    0  0.00000000000E+00  0.00000000000E+00  0.45593999997E+02  0.45594000000E+02  0.51100000000E-03 0. -1.
         11   -1    0    0    0    0 -0.00000000000E+00 -0.00000000000E+00 -0.45593999997E+02  0.45594000000E+02  0.51100000000E-03 0.  1.
         23    2    1    2    0    0  0.00000000000E+00  0.22204460493E-15  0.00000000000E+00  0.91188000000E+02  0.91188000000E+02 0.  0.
    9900012    2    3    3    0    0  0.27360194616E+02 -0.19907210668E+01 -0.30010379798E+02  0.50528854468E+02  0.29999983641E+02 0.  0.
         12    1    3    3    0    0 -0.27360194616E+02  0.19907210668E+01  0.30010379798E+02  0.40659145532E+02  0.00000000000E+00 0. -1.
         11    1    4    4    0    0  0.11590432834E+02 -0.11654516725E+01 -0.13353240929E+01  0.11725165311E+02  0.51100000000E-03 0. -1.
        -11    1    4    4    0    0  0.19019253717E+02  0.15714082276E+01 -0.29040075352E+02  0.34749493701E+02  0.51100000000E-03 0.  1.
         12    1    4    4    0    0 -0.32494919345E+01 -0.23966776219E+01  0.36501964703E+00  0.40541954564E+01  0.00000000000E+00 0. -1.
</event>
<event>
 8    1  0.1615837E-013  0.9118800E+02  0.7816164E-02  0.1184000E+00
        -11   -1    0    0    0    0  0.00000000000E+00  0.00000000000E+00  0.45593999997E+02  0.45594000000E+02  0.51100000000E-03 0. -1.
         11   -1    0    0    0    0 -0.00000000000E+00 -0.00000000000E+00 -0.45593999997E+02  0.45594000000E+02  0.51100000000E-03 0.  1.
         23    2    1    2    0    0 -0.35527136788E-14  0.00000000000E+00  0.00000000000E+00  0.91188000000E+02  0.91188000000E+02 0.  0.
    9900012    2    3    3    0    0  0.29947387167E+02  0.21851100990E+02  0.16698782575E+02  0.50528856476E+02  0.29999989744E+02 0.  0.
        -12    1    3    3    0    0 -0.29947387167E+02 -0.21851100990E+02 -0.16698782575E+02  0.40659143524E+02  0.00000000000E+00 0.  1.
         11    1    4    4    0    0  0.23138546776E+01 -0.47439580093E+00  0.14098799539E+01  0.27507701813E+01  0.51100000000E-03 0. -1.
        -11    1    4    4    0    0  0.22329955938E+02  0.15724239916E+01  0.13820229030E+02  0.26307758934E+02  0.51100000000E-03 0.  1.
         12    1    4    4    0    0  0.53035765513E+01  0.20753072800E+02  0.14686735913E+01  0.21470327361E+02  0.00000000000E+00 0. -1.
</event>
<event>
 8    1  0.1615837E-013  0.9118800E+02  0.7816164E-02  0.1184000E+00
        -11   -1    0    0    0    0  0.00000000000E+00  0.00000000000E+00  0.45593999997E+02  0.45594000000E+02  0.51100000000E-03 0. -1.
         11   -1    0    0    0    0 -0.00000000000E+00 -0.00000000000E+00 -0.45593999997E+02  0.45594000000E+02  0.51100000000E-03 0.  1.
         23    2    1    2    0    0 -0.88817841970E-15  0.00000000000E+00 -0.71054273576E-14  0.91188000000E+02  0.91188000000E+02 0.  0.
    9900012    2    3    3    0    0  0.46472654715E+01  0.20345001149E+01  0.40341406540E+02  0.50528863897E+02  0.30000012300E+02 0.  0.
        -12    1    3    3    0    0 -0.46472654715E+01 -0.20345001149E+01 -0.40341406540E+02  0.40659136103E+02  0.00000000000E+00 0.  1.
         11    1    4    4    0    0 -0.59519256727E+01 -0.29960410854E+01  0.51378767503E+01  0.84142414490E+01  0.51100000000E-03 0. -1.
        -11    1    4    4    0    0  0.61269358801E+01  0.12428637078E+02  0.16766217907E+02  0.21751239645E+02  0.51100000000E-03 0.  1.
         12    1    4    4    0    0  0.44722552641E+01 -0.73980958777E+01  0.18437311882E+02  0.20363382803E+02  0.00000000000E+00 0. -1.
</event>
<event>
 8    1  0.1615837E-013  0.9118800E+02  0.7816164E-02  0.1184000E+00
        -11   -1    0    0    0    0  0.00000000000E+00  0.00000000000E+00  0.45593999997E+02  0.45594000000E+02  0.51100000000E-03 0. -1.
         11   -1    0    0    0    0 -0.00000000000E+00 -0.00000000000E+00 -0.45593999997E+02  0.45594000000E+02  0.51100000000E-03 0.  1.
         23    2    1    2    0    0  0.00000000000E+00  0.71054273576E-14  0.35527136788E-14  0.91188000000E+02  0.91188000000E+02 0.  0.
    9900012    2    3    3    0    0 -0.93293265348E+01 -0.33892235786E+02 -0.20431495703E+02  0.50528855926E+02  0.29999988072E+02 0.  0.
         12    1    3    3    0    0  0.93293265348E+01  0.33892235786E+02  0.20431495703E+02  0.40659144074E+02  0.00000000000E+00 0. -1.
         11    1    4    4    0    0 -0.49198770015E+01 -0.74508326792E+01  0.44405195151E+00  0.89396465098E+01  0.51100000000E-03 0. -1.
        -11    1    4    4    0    0 -0.11196256043E+02 -0.26380745771E+02 -0.13881214206E+02  0.31843178311E+02  0.51100000000E-03 0.  1.
        -12    1    4    4    0    0  0.67868065101E+01 -0.60657335646E-01 -0.69943334483E+01  0.97460311052E+01  0.00000000000E+00 0.  1.
</event>
<event>
 8    1  0.1615837E-013  0.9118800E+02  0.7816164E-02  0.1184000E+00
        -11   -1    0    0    0    0  0.00000000000E+00  0.00000000000E+00  0.45593999997E+02  0.45594000000E+02  0.51100000000E-03 0.  1.
         11   -1    0    0    0    0 -0.00000000000E+00 -0.00000000000E+00 -0.45593999997E+02  0.45594000000E+02  0.51100000000E-03 0. -1.
         23    2    1    2    0    0  0.00000000000E+00  0.17763568394E-14  0.35527136788E-14  0.91188000000E+02  0.91188000000E+02 0.  0.
    9900012    2    3    3    0    0 -0.31802052082E+02 -0.27005334284E+01 -0.25189331098E+02  0.50528858364E+02  0.29999995482E+02 0.  0.
        -12    1    3    3    0    0  0.31802052082E+02  0.27005334284E+01  0.25189331098E+02  0.40659141636E+02  0.00000000000E+00 0.  1.
         11    1    4    4    0    0 -0.26087846222E+02 -0.10089579073E+02 -0.15364462438E+02  0.31913038600E+02  0.51100000000E-03 0. -1.
        -11    1    4    4    0    0 -0.15260795326E+01 -0.36712622163E+01 -0.27553065787E+01  0.48372305717E+01  0.51100000000E-03 0.  1.
         12    1    4    4    0    0 -0.41881263274E+01  0.11060307861E+02 -0.70695620807E+01  0.13778589192E+02  0.00000000000E+00 0. -1.
</event>
<event>
 8    1  0.1615837E-013  0.9118800E+02  0.7816164E-02  0.1184000E+00
        -11   -1    0    0    0    0  0.00000000000E+00  0.00000000000E+00  0.45593999997E+02  0.45594000000E+02  0.51100000000E-03 0. -1.
         11   -1    0    0    0    0 -0.00000000000E+00 -0.00000000000E+00 -0.45593999997E+02  0.45594000000E+02  0.51100000000E-03 0.  1.
         23    2    1    2    0    0  0.00000000000E+00  0.71054273576E-14  0.00000000000E+00  0.91188000000E+02  0.91188000000E+02 0.  0.
    9900012    2    3    3    0    0  0.10417717655E+01  0.37223395039E+02  0.16324800330E+02  0.50528861637E+02  0.30000005431E+02 0.  0.
        -12    1    3    3    0    0 -0.10417717655E+01 -0.37223395039E+02 -0.16324800330E+02  0.40659138363E+02  0.00000000000E+00 0.  1.
         11    1    4    4    0    0  0.10528479322E+02  0.13874949252E+02 -0.19488777374E+00  0.17418411956E+02  0.51100000000E-03 0. -1.
        -11    1    4    4    0    0 -0.34560791890E+01  0.16063332731E+02  0.16997741485E+02  0.23641031230E+02  0.51100000000E-03 0.  1.
        -12    1    4    4    0    0 -0.60306283673E+01  0.72851130561E+01 -0.47805338121E+00  0.94694184500E+01  0.00000000000E+00 0.  1.
</event>
<event>
 8    1  0.1615837E-013  0.9118800E+02  0.7816164E-02  0.1184000E+00
        -11   -1    0    0    0    0  0.00000000000E+00  0.00000000000E+00  0.45593999997E+02  0.45594000000E+02  0.51100000000E-03 0. -1.
         11   -1    0    0    0    0 -0.00000000000E+00 -0.00000000000E+00 -0.45593999997E+02  0.45594000000E+02  0.51100000000E-03 0.  1.
         23    2    1    2    0    0 -0.44408920985E-15  0.00000000000E+00 -0.35527136788E-14  0.91188000000E+02  0.91188000000E+02 0.  0.
    9900012    2    3    3    0    0 -0.25244567831E+01  0.32600864769E+02  0.24165586182E+02  0.50528870383E+02  0.30000032016E+02 0.  0.
        -12    1    3    3    0    0  0.25244567831E+01 -0.32600864769E+02 -0.24165586182E+02  0.40659129617E+02  0.00000000000E+00 0.  1.
         11    1    4    4    0    0 -0.54815708033E+01  0.15471108541E+02  0.51664706054E+01  0.17207418073E+02  0.51100000000E-03 0. -1.
        -11    1    4    4    0    0  0.93114136145E+00  0.18265244832E+02  0.47655416376E+01  0.18899644980E+02  0.51100000000E-03 0.  1.
        -12    1    4    4    0    0  0.20259726587E+01 -0.11354886046E+01  0.14233573939E+02  0.14421807329E+02  0.00000000000E+00 0.  1.
</event>
<event>
 8    1  0.1615837E-013  0.9118800E+02  0.7816164E-02  0.1184000E+00
        -11   -1    0    0    0    0  0.00000000000E+00  0.00000000000E+00  0.45593999997E+02  0.45594000000E+02  0.51100000000E-03 0. -1.
         11   -1    0    0    0    0 -0.00000000000E+00 -0.00000000000E+00 -0.45593999997E+02  0.45594000000E+02  0.51100000000E-03 0.  1.
         23    2    1    2    0    0 -0.17763568394E-14  0.00000000000E+00  0.00000000000E+00  0.91188000000E+02  0.91188000000E+02 0.  0.
    9900012    2    3    3    0    0 -0.13435930638E+02  0.16032065007E+02 -0.34865644263E+02  0.50528874451E+02  0.30000044382E+02 0.  0.
         12    1    3    3    0    0  0.13435930638E+02 -0.16032065007E+02  0.34865644263E+02  0.40659125549E+02  0.00000000000E+00 0. -1.
         11    1    4    4    0    0  0.23469165043E+01 -0.63131693781E+00 -0.25014463452E+01  0.34876657284E+01  0.51100000000E-03 0. -1.
        -11    1    4    4    0    0  0.51389042613E+01  0.27693105788E+01 -0.16085344163E+02  0.17111858906E+02  0.51100000000E-03 0.  1.
        -12    1    4    4    0    0 -0.20921751404E+02  0.13894071366E+02 -0.16278853754E+02  0.29929349817E+02  0.00000000000E+00 0.  1.
</event>
<event>
 8    1  0.1615837E-013  0.9118800E+02  0.7816164E-02  0.1184000E+00
        -11   -1    0    0    0    0  0.00000000000E+00  0.00000000000E+00  0.45593999997E+02  0.45594000000E+02  0.51100000000E-03 0. -1.
         11   -1    0    0    0    0 -0.00000000000E+00 -0.00000000000E+00 -0.45593999997E+02  0.45594000000E+02  0.51100000000E-03 0.  1.
         23    2    1    2    0    0  0.00000000000E+00 -0.88817841970E-15  0.00000000000E+00  0.91188000000E+02  0.91188000000E+02 0.  0.
    9900012    2    3    3    0    0 -0.29442690165E+02 -0.57121354711E+01 -0.27452965011E+02  0.50528858547E+02  0.29999996041E+02 0.  0.
         12    1    3    3    0    0  0.29442690165E+02  0.57121354711E+01  0.27452965011E+02  0.40659141453E+02  0.00000000000E+00 0. -1.
         11    1    4    4    0    0 -0.10360811432E+02  0.87627616879E+00 -0.19745895536E+01  0.10583632535E+02  0.51100000000E-03 0.  1.
        -11    1    4    4    0    0 -0.22511275919E+02 -0.98509617693E+01 -0.25209889355E+02  0.35204225781E+02  0.51100000000E-03 0. -1.
         12    1    4    4    0    0  0.34293971867E+01  0.32625501295E+01 -0.26848610212E+00  0.47410002319E+01  0.00000000000E+00 0. -1.
</event>
<event>
 8    1  0.1615837E-013  0.9118800E+02  0.7816164E-02  0.1184000E+00
        -11   -1    0    0    0    0  0.00000000000E+00  0.00000000000E+00  0.45593999997E+02  0.45594000000E+02  0.51100000000E-03 0. -1.
         11   -1    0    0    0    0 -0.00000000000E+00 -0.00000000000E+00 -0.45593999997E+02  0.45594000000E+02  0.51100000000E-03 0.  1.
         23    2    1    2    0    0  0.17763568394E-14  0.00000000000E+00 -0.35527136788E-14  0.91188000000E+02  0.91188000000E+02 0.  0.
    9900012    2    3    3    0    0  0.94848080709E+01 -0.24444022013E+02  0.31075622126E+02  0.50528854819E+02  0.29999984707E+02 0.  0.
        -12    1    3    3    0    0 -0.94848080709E+01  0.24444022013E+02 -0.31075622126E+02  0.40659145181E+02  0.00000000000E+00 0.  1.
         11    1    4    4    0    0  0.14555540644E+02 -0.64781247907E+01  0.72681103378E+01  0.17511575954E+02  0.51100000000E-03 0. -1.
        -11    1    4    4    0    0  0.33161063626E+01 -0.64694037764E+01  0.31272890560E+01  0.79138918195E+01  0.51100000000E-03 0.  1.
         12    1    4    4    0    0 -0.83868389356E+01 -0.11496493446E+02  0.20680222733E+02  0.25103387046E+02  0.00000000000E+00 0. -1.
</event>
<event>
 8    1  0.1615837E-013  0.9118800E+02  0.7816164E-02  0.1184000E+00
        -11   -1    0    0    0    0  0.00000000000E+00  0.00000000000E+00  0.45593999997E+02  0.45594000000E+02  0.51100000000E-03 0. -1.
         11   -1    0    0    0    0 -0.00000000000E+00 -0.00000000000E+00 -0.45593999997E+02  0.45594000000E+02  0.51100000000E-03 0.  1.
         23    2    1    2    0    0  0.00000000000E+00 -0.17763568394E-14  0.00000000000E+00  0.91188000000E+02  0.91188000000E+02 0.  0.
    9900012    2    3    3    0    0 -0.35375443933E+02  0.13902477873E+02  0.14438328690E+02  0.50528852691E+02  0.29999978240E+02 0.  0.
        -12    1    3    3    0    0  0.35375443933E+02 -0.13902477873E+02 -0.14438328690E+02  0.40659147309E+02  0.00000000000E+00 0.  1.
         11    1    4    4    0    0 -0.60818789581E+01 -0.53713639604E+01  0.23344810955E+01  0.84433763805E+01  0.51100000000E-03 0. -1.
        -11    1    4    4    0    0 -0.71132771125E+01 -0.55858680419E+00 -0.40755981313E+01  0.82171303316E+01  0.51100000000E-03 0.  1.
         12    1    4    4    0    0 -0.22180287863E+02  0.19832428638E+02  0.16179445726E+02  0.33868345979E+02  0.00000000000E+00 0. -1.
</event>
<event>
 8    1  0.1615837E-013  0.9118800E+02  0.7816164E-02  0.1184000E+00
        -11   -1    0    0    0    0  0.00000000000E+00  0.00000000000E+00  0.45593999997E+02  0.45594000000E+02  0.51100000000E-03 0. -1.
         11   -1    0    0    0    0 -0.00000000000E+00 -0.00000000000E+00 -0.45593999997E+02  0.45594000000E+02  0.51100000000E-03 0.  1.
         23    2    1    2    0    0  0.00000000000E+00  0.88817841970E-15  0.00000000000E+00  0.91188000000E+02  0.91188000000E+02 0.  0.
    9900012    2    3    3    0    0 -0.22060237088E+02  0.62501446947E+01 -0.33577485001E+02  0.50528857510E+02  0.29999992886E+02 0.  0.
         12    1    3    3    0    0  0.22060237088E+02 -0.62501446947E+01  0.33577485001E+02  0.40659142490E+02  0.00000000000E+00 0. -1.
         11    1    4    4    0    0 -0.10910181262E+02 -0.74274111826E+01 -0.22548947666E+02  0.26127639257E+02  0.51100000000E-03 0. -1.
        -11    1    4    4    0    0 -0.34055449333E+01 -0.22124322812E+01 -0.25592866173E+01  0.48002646951E+01  0.51100000000E-03 0.  1.
         12    1    4    4    0    0 -0.77445108925E+01  0.15889988159E+02 -0.84692507176E+01  0.19600953557E+02  0.00000000000E+00 0. -1.
</event>
<event>
 8    1  0.1615837E-013  0.9118800E+02  0.7816164E-02  0.1184000E+00
        -11   -1    0    0    0    0  0.00000000000E+00  0.00000000000E+00  0.45593999997E+02  0.45594000000E+02  0.51100000000E-03 0. -1.
         11   -1    0    0    0    0 -0.00000000000E+00 -0.00000000000E+00 -0.45593999997E+02  0.45594000000E+02  0.51100000000E-03 0.  1.
         23    2    1    2    0    0  0.00000000000E+00  0.00000000000E+00  0.17763568394E-14  0.91188000000E+02  0.91188000000E+02 0.  0.
    9900012    2    3    3    0    0  0.23213828207E+02 -0.32624761405E+02  0.70645701527E+01  0.50528867838E+02  0.30000024280E+02 0.  0.
         12    1    3    3    0    0 -0.23213828207E+02  0.32624761405E+02 -0.70645701527E+01  0.40659132162E+02  0.00000000000E+00 0. -1.
         11    1    4    4    0    0  0.74724972902E+01 -0.12959825554E+02 -0.19953946501E+00  0.14961119958E+02  0.51100000000E-03 0.  1.
        -11    1    4    4    0    0  0.12535880548E+01 -0.11247190014E+02 -0.72164117139E+01  0.13421898692E+02  0.51100000000E-03 0. -1.
         12    1    4    4    0    0  0.14487742862E+02 -0.84177458365E+01  0.14480521332E+02  0.22145849187E+02  0.00000000000E+00 0. -1.
</event>
<event>
 8    1  0.1615837E-013  0.9118800E+02  0.7816164E-02  0.1184000E+00
        -11   -1    0    0    0    0  0.00000000000E+00  0.00000000000E+00  0.45593999997E+02  0.45594000000E+02  0.51100000000E-03 0. -1.
         11   -1    0    0    0    0 -0.00000000000E+00 -0.00000000000E+00 -0.45593999997E+02  0.45594000000E+02  0.51100000000E-03 0.  1.
         23    2    1    2    0    0  0.00000000000E+00  0.35527136788E-14 -0.35527136788E-14  0.91188000000E+02  0.91188000000E+02 0.  0.
    9900012    2    3    3    0    0  0.78334982976E+01 -0.24325757805E+02  0.31623708793E+02  0.50528866386E+02  0.30000019868E+02 0.  0.
        -12    1    3    3    0    0 -0.78334982976E+01  0.24325757805E+02 -0.31623708793E+02  0.40659133614E+02  0.00000000000E+00 0.  1.
         11    1    4    4    0    0 -0.45568900495E+01 -0.12455243846E+02  0.11462906258E+02  0.17529876393E+02  0.51100000000E-03 0. -1.
        -11    1    4    4    0    0  0.38520334209E+01 -0.55008499518E+01 -0.31139468519E+01  0.74023088915E+01  0.51100000000E-03 0.  1.
         12    1    4    4    0    0  0.85383549262E+01 -0.63696640067E+01  0.23274749387E+02  0.25596681102E+02  0.00000000000E+00 0. -1.
</event>
<event>
 8    1  0.1615837E-013  0.9118800E+02  0.7816164E-02  0.1184000E+00
        -11   -1    0    0    0    0  0.00000000000E+00  0.00000000000E+00  0.45593999997E+02  0.45594000000E+02  0.51100000000E-03 0. -1.
         11   -1    0    0    0    0 -0.00000000000E+00 -0.00000000000E+00 -0.45593999997E+02  0.45594000000E+02  0.51100000000E-03 0.  1.
         23    2    1    2    0    0 -0.71054273576E-14  0.88817841970E-15 -0.35527136788E-14  0.91188000000E+02  0.91188000000E+02 0.  0.
    9900012    2    3    3    0    0  0.35096152408E+02 -0.54007283299E+01  0.19805501076E+02  0.50528860151E+02  0.30000000916E+02 0.  0.
        -12    1    3    3    0    0 -0.35096152408E+02  0.54007283299E+01 -0.19805501076E+02  0.40659139849E+02  0.00000000000E+00 0.  1.
         11    1    4    4    0    0  0.17859456581E+01 -0.94205356823E-01  0.63223410789E+01  0.65704241508E+01  0.51100000000E-03 0. -1.
        -11    1    4    4    0    0  0.16841153251E+02 -0.12825498209E+02  0.14764191019E+02  0.25808897378E+02  0.51100000000E-03 0.  1.
        -12    1    4    4    0    0  0.16469053499E+02  0.75189752364E+01 -0.12810310214E+01  0.18149538623E+02  0.00000000000E+00 0.  1.
</event>
<event>
 8    1  0.1615837E-013  0.9118800E+02  0.7816164E-02  0.1184000E+00
        -11   -1    0    0    0    0  0.00000000000E+00  0.00000000000E+00  0.45593999997E+02  0.45594000000E+02  0.51100000000E-03 0. -1.
         11   -1    0    0    0    0 -0.00000000000E+00 -0.00000000000E+00 -0.45593999997E+02  0.45594000000E+02  0.51100000000E-03 0.  1.
         23    2    1    2    0    0 -0.88817841970E-15  0.17763568394E-14  0.71054273576E-14  0.91188000000E+02  0.91188000000E+02 0.  0.
    9900012    2    3    3    0    0  0.55079977181E+01  0.54357114763E+01 -0.39915860224E+02  0.50528918659E+02  0.30000178754E+02 0.  0.
         12    1    3    3    0    0 -0.55079977181E+01 -0.54357114763E+01  0.39915860224E+02  0.40659081341E+02  0.00000000000E+00 0. -1.
         11    1    4    4    0    0  0.39415350743E+00 -0.73781215616E+01 -0.10886951917E+02  0.13157422128E+02  0.51100000000E-03 0.  1.
        -11    1    4    4    0    0  0.39356441849E+01  0.16908462082E+02 -0.28069138994E+02  0.33003968689E+02  0.51100000000E-03 0. -1.
         12    1    4    4    0    0  0.11782000258E+01 -0.40946290440E+01 -0.95976931359E+00  0.43675278412E+01  0.00000000000E+00 0. -1.
</event>
<event>
 8    1  0.1615837E-013  0.9118800E+02  0.7816164E-02  0.1184000E+00
        -11   -1    0    0    0    0  0.00000000000E+00  0.00000000000E+00  0.45593999997E+02  0.45594000000E+02  0.51100000000E-03 0. -1.
         11   -1    0    0    0    0 -0.00000000000E+00 -0.00000000000E+00 -0.45593999997E+02  0.45594000000E+02  0.51100000000E-03 0.  1.
         23    2    1    2    0    0  0.00000000000E+00 -0.35527136788E-14  0.00000000000E+00  0.91188000000E+02  0.91188000000E+02 0.  0.
    9900012    2    3    3    0    0  0.20566434201E+01 -0.18231407881E+02 -0.36284318855E+02  0.50528858221E+02  0.29999995048E+02 0.  0.
         12    1    3    3    0    0 -0.20566434201E+01  0.18231407881E+02  0.36284318855E+02  0.40659141779E+02  0.00000000000E+00 0. -1.
         11    1    4    4    0    0  0.17984003279E+01  0.16246754666E+01  0.28011397926E+01  0.37040786318E+01  0.51100000000E-03 0. -1.
        -11    1    4    4    0    0 -0.92456743714E+00 -0.10213999866E+01 -0.19779033492E+02  0.19826957633E+02  0.51100000000E-03 0.  1.
         12    1    4    4    0    0  0.11828105293E+01 -0.18834683361E+02 -0.19306425156E+02  0.26997821956E+02  0.00000000000E+00 0. -1.
</event>
<event>
 8    1  0.1615837E-013  0.9118800E+02  0.7816164E-02  0.1184000E+00
        -11   -1    0    0    0    0  0.00000000000E+00  0.00000000000E+00  0.45593999997E+02  0.45594000000E+02  0.51100000000E-03 0. -1.
         11   -1    0    0    0    0 -0.00000000000E+00 -0.00000000000E+00 -0.45593999997E+02  0.45594000000E+02  0.51100000000E-03 0.  1.
         23    2    1    2    0    0  0.17763568394E-14  0.00000000000E+00  0.00000000000E+00  0.91188000000E+02  0.91188000000E+02 0.  0.
    9900012    2    3    3    0    0  0.15238243413E+02 -0.31541062094E+02  0.20642766231E+02  0.50528850255E+02  0.29999970834E+02 0.  0.
         12    1    3    3    0    0 -0.15238243413E+02  0.31541062094E+02 -0.20642766231E+02  0.40659149745E+02  0.00000000000E+00 0. -1.
         11    1    4    4    0    0 -0.19888439737E+01 -0.38426920790E+01 -0.33657656626E+01  0.54818027621E+01  0.51100000000E-03 0. -1.
        -11    1    4    4    0    0  0.94202192254E+01 -0.11773329156E+01  0.10887396459E+02  0.14445139146E+02  0.51100000000E-03 0.  1.
        -12    1    4    4    0    0  0.78068681611E+01 -0.26521037100E+02  0.13121135435E+02  0.30601908346E+02  0.00000000000E+00 0.  1.
</event>
<event>
 8    1  0.1615837E-013  0.9118800E+02  0.7816164E-02  0.1184000E+00
        -11   -1    0    0    0    0  0.00000000000E+00  0.00000000000E+00  0.45593999997E+02  0.45594000000E+02  0.51100000000E-03 0. -1.
         11   -1    0    0    0    0 -0.00000000000E+00 -0.00000000000E+00 -0.45593999997E+02  0.45594000000E+02  0.51100000000E-03 0.  1.
         23    2    1    2    0    0 -0.17763568394E-14  0.00000000000E+00 -0.71054273576E-14  0.91188000000E+02  0.91188000000E+02 0.  0.
    9900012    2    3    3    0    0 -0.33725855777E+01 -0.11203202085E+02 -0.38939431071E+02  0.50528863726E+02  0.30000011781E+02 0.  0.
         12    1    3    3    0    0  0.33725855777E+01  0.11203202085E+02  0.38939431071E+02  0.40659136274E+02  0.00000000000E+00 0. -1.
         11    1    4    4    0    0 -0.87350049455E+01 -0.12708704298E+02 -0.23173822247E+02  0.27835903329E+02  0.51100000000E-03 0. -1.
        -11    1    4    4    0    0 -0.13132021761E+00  0.70126125137E+01 -0.12338502038E+02  0.14192695729E+02  0.51100000000E-03 0.  1.
        -12    1    4    4    0    0  0.54937395855E+01 -0.55071103010E+01 -0.34271067864E+01  0.85002646680E+01  0.00000000000E+00 0.  1.
</event>
<event>
 8    1  0.1615837E-013  0.9118800E+02  0.7816164E-02  0.1184000E+00
        -11   -1    0    0    0    0  0.00000000000E+00  0.00000000000E+00  0.45593999997E+02  0.45594000000E+02  0.51100000000E-03 0. -1.
         11   -1    0    0    0    0 -0.00000000000E+00 -0.00000000000E+00 -0.45593999997E+02  0.45594000000E+02  0.51100000000E-03 0.  1.
         23    2    1    2    0    0  0.00000000000E+00  0.00000000000E+00  0.00000000000E+00  0.91188000000E+02  0.91188000000E+02 0.  0.
    9900012    2    3    3    0    0  0.20179921114E+02  0.10967342811E+02 -0.33550760415E+02  0.50528863893E+02  0.30000012290E+02 0.  0.
         12    1    3    3    0    0 -0.20179921114E+02 -0.10967342811E+02  0.33550760415E+02  0.40659136107E+02  0.00000000000E+00 0. -1.
         11    1    4    4    0    0  0.46549673418E+00  0.14136596713E+01  0.10190426293E+01  0.18037652334E+01  0.51100000000E-03 0. -1.
        -11    1    4    4    0    0  0.24665012817E+01  0.34435067864E+01  0.41309095654E+01  0.59165684023E+01  0.51100000000E-03 0.  1.
        -12    1    4    4    0    0  0.17247923098E+02  0.61101763534E+01 -0.38700712610E+02  0.42808530257E+02  0.00000000000E+00 0.  1.
</event>
<event>
 8    1  0.1615837E-013  0.9118800E+02  0.7816164E-02  0.1184000E+00
        -11   -1    0    0    0    0  0.00000000000E+00  0.00000000000E+00  0.45593999997E+02  0.45594000000E+02  0.51100000000E-03 0. -1.
         11   -1    0    0    0    0 -0.00000000000E+00 -0.00000000000E+00 -0.45593999997E+02  0.45594000000E+02  0.51100000000E-03 0.  1.
         23    2    1    2    0    0  0.35527136788E-14  0.00000000000E+00 -0.35527136788E-14  0.91188000000E+02  0.91188000000E+02 0.  0.
    9900012    2    3    3    0    0  0.30719100695E+02  0.20873582614E+02 -0.16546824482E+02  0.50528843601E+02  0.29999950609E+02 0.  0.
         12    1    3    3    0    0 -0.30719100695E+02 -0.20873582614E+02  0.16546824482E+02  0.40659156399E+02  0.00000000000E+00 0. -1.
         11    1    4    4    0    0  0.82172224536E+00  0.37963811213E+01  0.63361468131E+01  0.74319912382E+01  0.51100000000E-03 0. -1.
        -11    1    4    4    0    0  0.45050298833E+01  0.84931852664E+01 -0.74902655302E+01  0.12187434849E+02  0.51100000000E-03 0.  1.
        -12    1    4    4    0    0  0.25392348566E+02  0.85840162260E+01 -0.15392705765E+02  0.30909417514E+02  0.00000000000E+00 0.  1.
</event>
<event>
 8    1  0.1615837E-013  0.9118800E+02  0.7816164E-02  0.1184000E+00
        -11   -1    0    0    0    0  0.00000000000E+00  0.00000000000E+00  0.45593999997E+02  0.45594000000E+02  0.51100000000E-03 0. -1.
         11   -1    0    0    0    0 -0.00000000000E+00 -0.00000000000E+00 -0.45593999997E+02  0.45594000000E+02  0.51100000000E-03 0.  1.
         23    2    1    2    0    0  0.00000000000E+00  0.00000000000E+00  0.00000000000E+00  0.91188000000E+02  0.91188000000E+02 0.  0.
    9900012    2    3    3    0    0  0.16460055141E+02 -0.15431316215E+02  0.33824646498E+02  0.50528860239E+02  0.30000001183E+02 0.  0.
        -12    1    3    3    0    0 -0.16460055141E+02  0.15431316215E+02 -0.33824646498E+02  0.40659139761E+02  0.00000000000E+00 0.  1.
         11    1    4    4    0    0 -0.15296533370E+01 -0.18390011871E+01  0.88299197932E+01  0.91481827984E+01  0.51100000000E-03 0. -1.
        -11    1    4    4    0    0  0.32695986700E+01 -0.45492125436E+01 -0.45087574784E+01  0.71912797532E+01  0.51100000000E-03 0.  1.
         12    1    4    4    0    0  0.14720109808E+02 -0.90431024847E+01  0.29503484183E+02  0.34189397688E+02  0.00000000000E+00 0. -1.
</event>
<event>
 8    1  0.1615837E-013  0.9118800E+02  0.7816164E-02  0.1184000E+00
        -11   -1    0    0    0    0  0.00000000000E+00  0.00000000000E+00  0.45593999997E+02  0.45594000000E+02  0.51100000000E-03 0.  1.
         11   -1    0    0    0    0 -0.00000000000E+00 -0.00000000000E+00 -0.45593999997E+02  0.45594000000E+02  0.51100000000E-03 0. -1.
         23    2    1    2    0    0  0.00000000000E+00  0.00000000000E+00 -0.17763568394E-14  0.91188000000E+02  0.91188000000E+02 0.  0.
    9900012    2    3    3    0    0 -0.16408635611E+02 -0.35407550172E+02 -0.11411697291E+02  0.50528871052E+02  0.30000034049E+02 0.  0.
         12    1    3    3    0    0  0.16408635611E+02  0.35407550172E+02  0.11411697291E+02  0.40659128948E+02  0.00000000000E+00 0. -1.
         11    1    4    4    0    0 -0.53846616184E+01 -0.11606611613E+02 -0.77356832005E+01  0.14951548706E+02  0.51100000000E-03 0. -1.
        -11    1    4    4    0    0  0.33163701497E+01 -0.14832707293E+02 -0.92215859848E+01  0.17777659152E+02  0.51100000000E-03 0.  1.
         12    1    4    4    0    0 -0.14340344142E+02 -0.89682312659E+01  0.55455718944E+01  0.17799663193E+02  0.00000000000E+00 0. -1.
</event>
<event>
 8    1  0.1615837E-013  0.9118800E+02  0.7816164E-02  0.1184000E+00
        -11   -1    0    0    0    0  0.00000000000E+00  0.00000000000E+00  0.45593999997E+02  0.45594000000E+02  0.51100000000E-03 0. -1.
         11   -1    0    0    0    0 -0.00000000000E+00 -0.00000000000E+00 -0.45593999997E+02  0.45594000000E+02  0.51100000000E-03 0.  1.
         23    2    1    2    0    0  0.44408920985E-15  0.71054273576E-14  0.35527136788E-14  0.91188000000E+02  0.91188000000E+02 0.  0.
    9900012    2    3    3    0    0  0.25745954802E+01  0.34945476782E+02  0.20624014510E+02  0.50528869858E+02  0.30000030420E+02 0.  0.
        -12    1    3    3    0    0 -0.25745954802E+01 -0.34945476782E+02 -0.20624014510E+02  0.40659130142E+02  0.00000000000E+00 0.  1.
         11    1    4    4    0    0 -0.67460156359E+00 -0.28670896695E+01 -0.41201302844E+01  0.50646583561E+01  0.51100000000E-03 0.  1.
        -11    1    4    4    0    0  0.23333402733E+01  0.22800430726E+02  0.12750066137E+02  0.26227243563E+02  0.51100000000E-03 0. -1.
        -12    1    4    4    0    0  0.91585677045E+00  0.15012135725E+02  0.11994078658E+02  0.19236967939E+02  0.00000000000E+00 0.  1.
</event>
<event>
 8    1  0.1615837E-013  0.9118800E+02  0.7816164E-02  0.1184000E+00
        -11   -1    0    0    0    0  0.00000000000E+00  0.00000000000E+00  0.45593999997E+02  0.45594000000E+02  0.51100000000E-03 0. -1.
         11   -1    0    0    0    0 -0.00000000000E+00 -0.00000000000E+00 -0.45593999997E+02  0.45594000000E+02  0.51100000000E-03 0.  1.
         23    2    1    2    0    0  0.44408920985E-15  0.35527136788E-14  0.35527136788E-14  0.91188000000E+02  0.91188000000E+02 0.  0.
    9900012    2    3    3    0    0 -0.24560456902E+01 -0.31927841113E+02 -0.25054873368E+02  0.50528857386E+02  0.29999992512E+02 0.  0.
         12    1    3    3    0    0  0.24560456902E+01  0.31927841113E+02  0.25054873368E+02  0.40659142614E+02  0.00000000000E+00 0. -1.
         11    1    4    4    0    0 -0.76272848720E+01 -0.14249090559E+02 -0.11645747576E+01  0.16203959112E+02  0.51100000000E-03 0.  1.
        -11    1    4    4    0    0 -0.37609985316E+01 -0.11116168976E+02 -0.57542063158E+01  0.13070011983E+02  0.51100000000E-03 0. -1.
         12    1    4    4    0    0  0.89322377134E+01 -0.65625815784E+01 -0.18136092295E+02  0.21254886291E+02  0.00000000000E+00 0. -1.
</event>
<event>
 8    1  0.1615837E-013  0.9118800E+02  0.7816164E-02  0.1184000E+00
        -11   -1    0    0    0    0  0.00000000000E+00  0.00000000000E+00  0.45593999997E+02  0.45594000000E+02  0.51100000000E-03 0. -1.
         11   -1    0    0    0    0 -0.00000000000E+00 -0.00000000000E+00 -0.45593999997E+02  0.45594000000E+02  0.51100000000E-03 0.  1.
         23    2    1    2    0    0  0.00000000000E+00  0.17763568394E-14  0.00000000000E+00  0.91188000000E+02  0.91188000000E+02 0.  0.
    9900012    2    3    3    0    0 -0.13146540567E+01 -0.68672203081E+01 -0.40053447969E+02  0.50528859278E+02  0.29999998261E+02 0.  0.
         12    1    3    3    0    0  0.13146540567E+01  0.68672203081E+01  0.40053447969E+02  0.40659140722E+02  0.00000000000E+00 0. -1.
         11    1    4    4    0    0 -0.49581091003E+01 -0.81651114586E+01 -0.69095442801E+01  0.11789558660E+02  0.51100000000E-03 0. -1.
        -11    1    4    4    0    0 -0.27341796374E+01  0.10674759649E+00 -0.32041826472E+02  0.32158447992E+02  0.51100000000E-03 0.  1.
         12    1    4    4    0    0  0.63776346810E+01  0.11911435539E+01 -0.11020772171E+01  0.65808526258E+01  0.00000000000E+00 0. -1.
</event>
<event>
 8    1  0.1615837E-013  0.9118800E+02  0.7816164E-02  0.1184000E+00
        -11   -1    0    0    0    0  0.00000000000E+00  0.00000000000E+00  0.45593999997E+02  0.45594000000E+02  0.51100000000E-03 0. -1.
         11   -1    0    0    0    0 -0.00000000000E+00 -0.00000000000E+00 -0.45593999997E+02  0.45594000000E+02  0.51100000000E-03 0.  1.
         23    2    1    2    0    0 -0.17763568394E-14  0.00000000000E+00 -0.35527136788E-14  0.91188000000E+02  0.91188000000E+02 0.  0.
    9900012    2    3    3    0    0  0.14392931073E+02 -0.26122731341E+02  0.27633546323E+02  0.50528850476E+02  0.29999971508E+02 0.  0.
        -12    1    3    3    0    0 -0.14392931073E+02  0.26122731341E+02 -0.27633546323E+02  0.40659149524E+02  0.00000000000E+00 0.  1.
         11    1    4    4    0    0  0.57636159588E+01 -0.88245003370E+01 -0.22664055625E+01  0.10780893727E+02  0.51100000000E-03 0.  1.
        -11    1    4    4    0    0  0.55198720943E+01  0.22322311284E+00  0.72166462200E+00  0.55713209012E+01  0.51100000000E-03 0. -1.
         12    1    4    4    0    0  0.31094430198E+01 -0.17521454117E+02  0.29178287263E+02  0.34176635848E+02  0.00000000000E+00 0. -1.
</event>
<event>
 8    1  0.1615837E-013  0.9118800E+02  0.7816164E-02  0.1184000E+00
        -11   -1    0    0    0    0  0.00000000000E+00  0.00000000000E+00  0.45593999997E+02  0.45594000000E+02  0.51100000000E-03 0. -1.
         11   -1    0    0    0    0 -0.00000000000E+00 -0.00000000000E+00 -0.45593999997E+02  0.45594000000E+02  0.51100000000E-03 0.  1.
         23    2    1    2    0    0  0.00000000000E+00  0.00000000000E+00  0.00000000000E+00  0.91188000000E+02  0.91188000000E+02 0.  0.
    9900012    2    3    3    0    0 -0.79840932578E+01 -0.23324931752E+02  0.32332138422E+02  0.50528863741E+02  0.30000011827E+02 0.  0.
        -12    1    3    3    0    0  0.79840932578E+01  0.23324931752E+02 -0.32332138422E+02  0.40659136259E+02  0.00000000000E+00 0.  1.
         11    1    4    4    0    0  0.60913840644E+01 -0.10339286943E+02  0.19541699955E+02  0.22932157589E+02  0.51100000000E-03 0. -1.
        -11    1    4    4    0    0 -0.59431955478E+01  0.26679370974E+01  0.54373981253E+01  0.84855618735E+01  0.51100000000E-03 0.  1.
         12    1    4    4    0    0 -0.81322817744E+01 -0.15653581906E+02  0.73530403418E+01  0.19111144278E+02  0.00000000000E+00 0. -1.
</event>
<event>
 8    1  0.1615837E-013  0.9118800E+02  0.7816164E-02  0.1184000E+00
        -11   -1    0    0    0    0  0.00000000000E+00  0.00000000000E+00  0.45593999997E+02  0.45594000000E+02  0.51100000000E-03 0.  1.
         11   -1    0    0    0    0 -0.00000000000E+00 -0.00000000000E+00 -0.45593999997E+02  0.45594000000E+02  0.51100000000E-03 0. -1.
         23    2    1    2    0    0  0.35527136788E-14  0.00000000000E+00  0.35527136788E-14  0.91188000000E+02  0.91188000000E+02 0.  0.
    9900012    2    3    3    0    0  0.25725543665E+02 -0.25154076830E+02  0.18937627122E+02  0.50528869426E+02  0.30000029108E+02 0.  0.
        -12    1    3    3    0    0 -0.25725543665E+02  0.25154076830E+02 -0.18937627122E+02  0.40659130574E+02  0.00000000000E+00 0.  1.
         11    1    4    4    0    0  0.55901640556E+01 -0.78866556674E+00 -0.84230868819E+00  0.57080129407E+01  0.51100000000E-03 0. -1.
        -11    1    4    4    0    0  0.19310389966E+02 -0.40264304280E+01  0.11595427338E+02  0.22881373168E+02  0.51100000000E-03 0.  1.
        -12    1    4    4    0    0  0.82498964282E+00 -0.20338980835E+02  0.81845084723E+01  0.21939483318E+02  0.00000000000E+00 0.  1.
</event>
<event>
 8    1  0.1615837E-013  0.9118800E+02  0.7816164E-02  0.1184000E+00
        -11   -1    0    0    0    0  0.00000000000E+00  0.00000000000E+00  0.45593999997E+02  0.45594000000E+02  0.51100000000E-03 0. -1.
         11   -1    0    0    0    0 -0.00000000000E+00 -0.00000000000E+00 -0.45593999997E+02  0.45594000000E+02  0.51100000000E-03 0.  1.
         23    2    1    2    0    0  0.35527136788E-14  0.35527136788E-14  0.00000000000E+00  0.91188000000E+02  0.91188000000E+02 0.  0.
    9900012    2    3    3    0    0 -0.26138557336E+02  0.18864055554E+02 -0.24780825795E+02  0.50528854674E+02  0.29999984267E+02 0.  0.
         12    1    3    3    0    0  0.26138557336E+02 -0.18864055554E+02  0.24780825795E+02  0.40659145326E+02  0.00000000000E+00 0. -1.
         11    1    4    4    0    0 -0.26154418519E+01 -0.39598658115E+01 -0.38361627783E+01  0.61022306125E+01  0.51100000000E-03 0. -1.
        -11    1    4    4    0    0 -0.35494645118E+01 -0.26793492826E+01 -0.87465273401E+01  0.98122042208E+01  0.51100000000E-03 0.  1.
        -12    1    4    4    0    0 -0.19973650972E+02  0.25503270648E+02 -0.12198135677E+02  0.34614419841E+02  0.00000000000E+00 0.  1.
</event>
<event>
 8    1  0.1615837E-013  0.9118800E+02  0.7816164E-02  0.1184000E+00
        -11   -1    0    0    0    0  0.00000000000E+00  0.00000000000E+00  0.45593999997E+02  0.45594000000E+02  0.51100000000E-03 0. -1.
         11   -1    0    0    0    0 -0.00000000000E+00 -0.00000000000E+00 -0.45593999997E+02  0.45594000000E+02  0.51100000000E-03 0.  1.
         23    2    1    2    0    0  0.35527136788E-14  0.88817841970E-15  0.00000000000E+00  0.91188000000E+02  0.91188000000E+02 0.  0.
    9900012    2    3    3    0    0  0.30976652880E+02 -0.40321541512E+01  0.26026042316E+02  0.50528853805E+02  0.29999981624E+02 0.  0.
        -12    1    3    3    0    0 -0.30976652880E+02  0.40321541512E+01 -0.26026042316E+02  0.40659146195E+02  0.00000000000E+00 0.  1.
         11    1    4    4    0    0  0.23716878518E+02 -0.84810018313E+01  0.75533088513E+01  0.26295820839E+02  0.51100000000E-03 0. -1.
        -11    1    4    4    0    0  0.55399318649E+01 -0.34728716070E+01  0.40582144542E+01  0.76955043424E+01  0.51100000000E-03 0.  1.
        -12    1    4    4    0    0  0.17198424962E+01  0.79217192871E+01  0.14414519010E+02  0.16537528623E+02  0.00000000000E+00 0.  1.
</event>
<event>
 8    1  0.1615837E-013  0.9118800E+02  0.7816164E-02  0.1184000E+00
        -11   -1    0    0    0    0  0.00000000000E+00  0.00000000000E+00  0.45593999997E+02  0.45594000000E+02  0.51100000000E-03 0.  1.
         11   -1    0    0    0    0 -0.00000000000E+00 -0.00000000000E+00 -0.45593999997E+02  0.45594000000E+02  0.51100000000E-03 0. -1.
         23    2    1    2    0    0  0.00000000000E+00  0.00000000000E+00  0.35527136788E-14  0.91188000000E+02  0.91188000000E+02 0.  0.
    9900012    2    3    3    0    0 -0.10260146592E+02  0.35532461112E+02  0.16892009598E+02  0.50528851103E+02  0.29999973414E+02 0.  0.
        -12    1    3    3    0    0  0.10260146592E+02 -0.35532461112E+02 -0.16892009598E+02  0.40659148897E+02  0.00000000000E+00 0.  1.
         11    1    4    4    0    0 -0.88191205248E+01  0.17996754836E+02  0.17690181300E+02  0.26732051663E+02  0.51100000000E-03 0. -1.
        -11    1    4    4    0    0  0.23377570867E+01  0.77005492198E+01  0.70181673679E+01  0.10677932382E+02  0.51100000000E-03 0.  1.
         12    1    4    4    0    0 -0.37787831542E+01  0.98351570558E+01 -0.78163390700E+01  0.13118867058E+02  0.00000000000E+00 0. -1.
</event>
<event>
 8    1  0.1615837E-013  0.9118800E+02  0.7816164E-02  0.1184000E+00
        -11   -1    0    0    0    0  0.00000000000E+00  0.00000000000E+00  0.45593999997E+02  0.45594000000E+02  0.51100000000E-03 0. -1.
         11   -1    0    0    0    0 -0.00000000000E+00 -0.00000000000E+00 -0.45593999997E+02  0.45594000000E+02  0.51100000000E-03 0.  1.
         23    2    1    2    0    0 -0.44408920985E-15  0.00000000000E+00  0.00000000000E+00  0.91188000000E+02  0.91188000000E+02 0.  0.
    9900012    2    3    3    0    0 -0.23116420750E+01  0.32884165051E+02 -0.23800291971E+02  0.50528857140E+02  0.29999991763E+02 0.  0.
         12    1    3    3    0    0  0.23116420750E+01 -0.32884165051E+02  0.23800291971E+02  0.40659142860E+02  0.00000000000E+00 0. -1.
         11    1    4    4    0    0 -0.12206463182E+01  0.41789332798E+01  0.66734789557E+00  0.44044085036E+01  0.51100000000E-03 0. -1.
        -11    1    4    4    0    0  0.48798256545E+01 -0.13662669169E+01  0.21678429630E+01  0.55117081817E+01  0.51100000000E-03 0.  1.
        -12    1    4    4    0    0 -0.59708214114E+01  0.30071498688E+02 -0.26635482829E+02  0.40612740455E+02  0.00000000000E+00 0.  1.
</event>
<event>
 8    1  0.1615837E-013  0.9118800E+02  0.7816164E-02  0.1184000E+00
        -11   -1    0    0    0    0  0.00000000000E+00  0.00000000000E+00  0.45593999997E+02  0.45594000000E+02  0.51100000000E-03 0. -1.
         11   -1    0    0    0    0 -0.00000000000E+00 -0.00000000000E+00 -0.45593999997E+02  0.45594000000E+02  0.51100000000E-03 0.  1.
         23    2    1    2    0    0  0.17763568394E-14  0.88817841970E-15  0.00000000000E+00  0.91188000000E+02  0.91188000000E+02 0.  0.
    9900012    2    3    3    0    0  0.15975701675E+02 -0.39839287686E+01 -0.37176205728E+02  0.50528868126E+02  0.30000025155E+02 0.  0.
         12    1    3    3    0    0 -0.15975701675E+02  0.39839287686E+01  0.37176205728E+02  0.40659131874E+02  0.00000000000E+00 0. -1.
         11    1    4    4    0    0  0.13019604655E+02 -0.78147228517E+01 -0.22491625058E+02  0.27137671172E+02  0.51100000000E-03 0. -1.
        -11    1    4    4    0    0 -0.31187423125E+01 -0.33492186197E+01  0.13765083439E+01  0.47789742055E+01  0.51100000000E-03 0.  1.
        -12    1    4    4    0    0  0.60748393322E+01  0.71800127028E+01 -0.16061089014E+02  0.18612222749E+02  0.00000000000E+00 0.  1.
</event>
<event>
 8    1  0.1615837E-013  0.9118800E+02  0.7816164E-02  0.1184000E+00
        -11   -1    0    0    0    0  0.00000000000E+00  0.00000000000E+00  0.45593999997E+02  0.45594000000E+02  0.51100000000E-03 0. -1.
         11   -1    0    0    0    0 -0.00000000000E+00 -0.00000000000E+00 -0.45593999997E+02  0.45594000000E+02  0.51100000000E-03 0.  1.
         23    2    1    2    0    0 -0.35527136788E-14  0.00000000000E+00  0.00000000000E+00  0.91188000000E+02  0.91188000000E+02 0.  0.
    9900012    2    3    3    0    0 -0.28082802519E+02 -0.91320223858E+01  0.27948673852E+02  0.50528855884E+02  0.29999987944E+02 0.  0.
        -12    1    3    3    0    0  0.28082802519E+02  0.91320223858E+01 -0.27948673852E+02  0.40659144116E+02  0.00000000000E+00 0.  1.
         11    1    4    4    0    0 -0.58291909958E+01  0.17342349637E+01  0.18864568716E+02  0.19820670818E+02  0.51100000000E-03 0. -1.
        -11    1    4    4    0    0 -0.41914218427E+01  0.33635869691E+01  0.50270355618E+01  0.73588600451E+01  0.51100000000E-03 0.  1.
        -12    1    4    4    0    0 -0.18062189681E+02 -0.14229844319E+02  0.40570695740E+01  0.23349325021E+02  0.00000000000E+00 0.  1.
</event>
<event>
 8    1  0.1615837E-013  0.9118800E+02  0.7816164E-02  0.1184000E+00
        -11   -1    0    0    0    0  0.00000000000E+00  0.00000000000E+00  0.45593999997E+02  0.45594000000E+02  0.51100000000E-03 0. -1.
         11   -1    0    0    0    0 -0.00000000000E+00 -0.00000000000E+00 -0.45593999997E+02  0.45594000000E+02  0.51100000000E-03 0.  1.
         23    2    1    2    0    0  0.00000000000E+00  0.00000000000E+00  0.00000000000E+00  0.91188000000E+02  0.91188000000E+02 0.  0.
    9900012    2    3    3    0    0 -0.32503716970E+02 -0.11470666925E+02  0.21566129890E+02  0.50528858654E+02  0.29999996365E+02 0.  0.
        -12    1    3    3    0    0  0.32503716970E+02  0.11470666925E+02 -0.21566129890E+02  0.40659141346E+02  0.00000000000E+00 0.  1.
         11    1    4    4    0    0 -0.43546323451E+01 -0.76728704674E+00  0.11808109558E+01  0.45766654944E+01  0.51100000000E-03 0.  1.
        -11    1    4    4    0    0  0.38771750188E+01  0.21698413392E+01  0.82391654699E+01  0.93607983348E+01  0.51100000000E-03 0. -1.
         12    1    4    4    0    0 -0.32026259643E+02 -0.12873221218E+02  0.12146153464E+02  0.36591394825E+02  0.00000000000E+00 0. -1.
</event>
<event>
 8    1  0.1615837E-013  0.9118800E+02  0.7816164E-02  0.1184000E+00
        -11   -1    0    0    0    0  0.00000000000E+00  0.00000000000E+00  0.45593999997E+02  0.45594000000E+02  0.51100000000E-03 0. -1.
         11   -1    0    0    0    0 -0.00000000000E+00 -0.00000000000E+00 -0.45593999997E+02  0.45594000000E+02  0.51100000000E-03 0.  1.
         23    2    1    2    0    0 -0.13322676296E-14  0.00000000000E+00  0.00000000000E+00  0.91188000000E+02  0.91188000000E+02 0.  0.
    9900012    2    3    3    0    0  0.22208109882E+01  0.82555473446E+01  0.39750214107E+02  0.50528860991E+02  0.30000003468E+02 0.  0.
        -12    1    3    3    0    0 -0.22208109882E+01 -0.82555473446E+01 -0.39750214107E+02  0.40659139009E+02  0.00000000000E+00 0.  1.
         11    1    4    4    0    0  0.56336906707E+01  0.61507206361E+01  0.12610049290E+02  0.15118967501E+02  0.51100000000E-03 0. -1.
        -11    1    4    4    0    0  0.55895153205E+01  0.61109132388E+01  0.21631461595E+01  0.85595060430E+01  0.51100000000E-03 0.  1.
        -12    1    4    4    0    0 -0.90023950030E+01 -0.40060865303E+01  0.24977018657E+02  0.26850387447E+02  0.00000000000E+00 0.  1.
</event>
<event>
 8    1  0.1615837E-013  0.9118800E+02  0.7816164E-02  0.1184000E+00
        -11   -1    0    0    0    0  0.00000000000E+00  0.00000000000E+00  0.45593999997E+02  0.45594000000E+02  0.51100000000E-03 0. -1.
         11   -1    0    0    0    0 -0.00000000000E+00 -0.00000000000E+00 -0.45593999997E+02  0.45594000000E+02  0.51100000000E-03 0.  1.
         23    2    1    2    0    0  0.00000000000E+00 -0.44408920985E-15  0.00000000000E+00  0.91188000000E+02  0.91188000000E+02 0.  0.
    9900012    2    3    3    0    0  0.37780260130E+02  0.29602020841E+01  0.14732772113E+02  0.50528862946E+02  0.30000009411E+02 0.  0.
        -12    1    3    3    0    0 -0.37780260130E+02 -0.29602020841E+01 -0.14732772113E+02  0.40659137054E+02  0.00000000000E+00 0.  1.
         11    1    4    4    0    0  0.21836341345E+02 -0.62546606670E+01  0.11529349907E+02  0.25472975738E+02  0.51100000000E-03 0.  1.
        -11    1    4    4    0    0  0.13442501259E+02 -0.96410579259E+00  0.50889633149E+01  0.14405828264E+02  0.51100000000E-03 0. -1.
        -12    1    4    4    0    0  0.25014175255E+01  0.10178968544E+02 -0.18855411093E+01  0.10650058945E+02  0.00000000000E+00 0.  1.
</event>
<event>
 8    1  0.1615837E-013  0.9118800E+02  0.7816164E-02  0.1184000E+00
        -11   -1    0    0    0    0  0.00000000000E+00  0.00000000000E+00  0.45593999997E+02  0.45594000000E+02  0.51100000000E-03 0. -1.
         11   -1    0    0    0    0 -0.00000000000E+00 -0.00000000000E+00 -0.45593999997E+02  0.45594000000E+02  0.51100000000E-03 0.  1.
         23    2    1    2    0    0  0.88817841970E-15 -0.17763568394E-14  0.00000000000E+00  0.91188000000E+02  0.91188000000E+02 0.  0.
    9900012    2    3    3    0    0  0.33331752344E+01 -0.73083784457E+01 -0.39857791030E+02  0.50528856398E+02  0.29999989509E+02 0.  0.
         12    1    3    3    0    0 -0.33331752344E+01  0.73083784457E+01  0.39857791030E+02  0.40659143602E+02  0.00000000000E+00 0. -1.
         11    1    4    4    0    0 -0.27264121177E+01  0.38637100689E+01 -0.19024125744E+02  0.19603033926E+02  0.51100000000E-03 0. -1.
        -11    1    4    4    0    0 -0.31483386526E+01  0.36411589732E+01 -0.77457989828E+01  0.91196204462E+01  0.51100000000E-03 0.  1.
         12    1    4    4    0    0  0.92079260047E+01 -0.14813247488E+02 -0.13087866303E+02  0.21806202026E+02  0.00000000000E+00 0. -1.
</event>
<event>
 8    1  0.1615837E-013  0.9118800E+02  0.7816164E-02  0.1184000E+00
        -11   -1    0    0    0    0  0.00000000000E+00  0.00000000000E+00  0.45593999997E+02  0.45594000000E+02  0.51100000000E-03 0. -1.
         11   -1    0    0    0    0 -0.00000000000E+00 -0.00000000000E+00 -0.45593999997E+02  0.45594000000E+02  0.51100000000E-03 0.  1.
         23    2    1    2    0    0 -0.35527136788E-14  0.22204460493E-15  0.00000000000E+00  0.91188000000E+02  0.91188000000E+02 0.  0.
    9900012    2    3    3    0    0 -0.17472510603E+02 -0.18732913945E+01 -0.36665633868E+02  0.50528849070E+02  0.29999967232E+02 0.  0.
         12    1    3    3    0    0  0.17472510603E+02  0.18732913945E+01  0.36665633868E+02  0.40659150930E+02  0.00000000000E+00 0. -1.
         11    1    4    4    0    0  0.72576269272E+01 -0.16954466231E+01 -0.72085809329E+01  0.10368766908E+02  0.51100000000E-03 0.  1.
        -11    1    4    4    0    0  0.90048932824E-01 -0.20861289769E+01 -0.89324267356E+00  0.22711067024E+01  0.51100000000E-03 0. -1.
        -12    1    4    4    0    0 -0.24820186463E+02  0.19082842055E+01 -0.28563810262E+02  0.37888975459E+02  0.00000000000E+00 0.  1.
</event>
<event>
 8    1  0.1615837E-013  0.9118800E+02  0.7816164E-02  0.1184000E+00
        -11   -1    0    0    0    0  0.00000000000E+00  0.00000000000E+00  0.45593999997E+02  0.45594000000E+02  0.51100000000E-03 0. -1.
         11   -1    0    0    0    0 -0.00000000000E+00 -0.00000000000E+00 -0.45593999997E+02  0.45594000000E+02  0.51100000000E-03 0.  1.
         23    2    1    2    0    0  0.00000000000E+00 -0.71054273576E-14 -0.35527136788E-14  0.91188000000E+02  0.91188000000E+02 0.  0.
    9900012    2    3    3    0    0 -0.11084613996E+02 -0.32844830609E+02 -0.21248854947E+02  0.50528863244E+02  0.30000010317E+02 0.  0.
         12    1    3    3    0    0  0.11084613996E+02  0.32844830609E+02  0.21248854947E+02  0.40659136756E+02  0.00000000000E+00 0. -1.
         11    1    4    4    0    0  0.36898218194E+01 -0.94313189659E+01 -0.99355272810E+01  0.14187292381E+02  0.51100000000E-03 0. -1.
        -11    1    4    4    0    0 -0.10918723406E+02 -0.25921877389E+02 -0.13556370032E+02  0.31223987844E+02  0.51100000000E-03 0.  1.
         12    1    4    4    0    0 -0.38557124092E+01  0.25083657457E+01  0.22430423666E+01  0.51175830188E+01  0.00000000000E+00 0. -1.
</event>
<event>
 8    1  0.1615837E-013  0.9118800E+02  0.7816164E-02  0.1184000E+00
        -11   -1    0    0    0    0  0.00000000000E+00  0.00000000000E+00  0.45593999997E+02  0.45594000000E+02  0.51100000000E-03 0. -1.
         11   -1    0    0    0    0 -0.00000000000E+00 -0.00000000000E+00 -0.45593999997E+02  0.45594000000E+02  0.51100000000E-03 0.  1.
         23    2    1    2    0    0 -0.88817841970E-15  0.00000000000E+00  0.00000000000E+00  0.91188000000E+02  0.91188000000E+02 0.  0.
    9900012    2    3    3    0    0  0.72064036098E+01  0.16350803207E+02 -0.36522408380E+02  0.50528839502E+02  0.29999938151E+02 0.  0.
         12    1    3    3    0    0 -0.72064036098E+01 -0.16350803207E+02  0.36522408380E+02  0.40659160498E+02  0.00000000000E+00 0. -1.
         11    1    4    4    0    0 -0.71887385382E+01  0.66843653967E+01 -0.14316854006E+02  0.17358888542E+02  0.51100000000E-03 0. -1.
        -11    1    4    4    0    0  0.11340992195E+01  0.67296230810E+01 -0.17519794381E+02  0.18802053167E+02  0.51100000000E-03 0.  1.
         12    1    4    4    0    0  0.13261042928E+02  0.29368147290E+01 -0.46857599934E+01  0.14367897794E+02  0.00000000000E+00 0. -1.
</event>
<event>
 8    1  0.1615837E-013  0.9118800E+02  0.7816164E-02  0.1184000E+00
        -11   -1    0    0    0    0  0.00000000000E+00  0.00000000000E+00  0.45593999997E+02  0.45594000000E+02  0.51100000000E-03 0. -1.
         11   -1    0    0    0    0 -0.00000000000E+00 -0.00000000000E+00 -0.45593999997E+02  0.45594000000E+02  0.51100000000E-03 0.  1.
         23    2    1    2    0    0  0.00000000000E+00  0.00000000000E+00  0.00000000000E+00  0.91188000000E+02  0.91188000000E+02 0.  0.
    9900012    2    3    3    0    0  0.18197928676E+02 -0.86694793850E+01 -0.35310625358E+02  0.50528871332E+02  0.30000034901E+02 0.  0.
         12    1    3    3    0    0 -0.18197928676E+02  0.86694793850E+01  0.35310625358E+02  0.40659128668E+02  0.00000000000E+00 0. -1.
         11    1    4    4    0    0 -0.27990028575E+01 -0.34764721720E+01  0.79196731870E+00  0.45329337359E+01  0.51100000000E-03 0. -1.
        -11    1    4    4    0    0  0.60205716256E+01 -0.10086308498E+02 -0.21572546013E+02  0.24563298711E+02  0.51100000000E-03 0.  1.
        -12    1    4    4    0    0  0.14976359907E+02  0.48933012850E+01 -0.14530046663E+02  0.21432638885E+02  0.00000000000E+00 0.  1.
</event>
<event>
 8    1  0.1615837E-013  0.9118800E+02  0.7816164E-02  0.1184000E+00
        -11   -1    0    0    0    0  0.00000000000E+00  0.00000000000E+00  0.45593999997E+02  0.45594000000E+02  0.51100000000E-03 0. -1.
         11   -1    0    0    0    0 -0.00000000000E+00 -0.00000000000E+00 -0.45593999997E+02  0.45594000000E+02  0.51100000000E-03 0.  1.
         23    2    1    2    0    0  0.00000000000E+00  0.00000000000E+00  0.00000000000E+00  0.91188000000E+02  0.91188000000E+02 0.  0.
    9900012    2    3    3    0    0 -0.62804018928E+01  0.27664374247E+02  0.29127384921E+02  0.50528860772E+02  0.30000002803E+02 0.  0.
        -12    1    3    3    0    0  0.62804018928E+01 -0.27664374247E+02 -0.29127384921E+02  0.40659139228E+02  0.00000000000E+00 0.  1.
         11    1    4    4    0    0  0.18774818459E+01  0.11384937072E+02 -0.46891515478E+00  0.11548229817E+02  0.51100000000E-03 0. -1.
        -11    1    4    4    0    0 -0.32027026601E+01  0.73986471133E+01  0.40910011167E+00  0.80724622389E+01  0.51100000000E-03 0.  1.
         12    1    4    4    0    0 -0.49551810787E+01  0.88807900613E+01  0.29187199964E+02  0.30908168716E+02  0.00000000000E+00 0. -1.
</event>
<event>
 8    1  0.1615837E-013  0.9118800E+02  0.7816164E-02  0.1184000E+00
        -11   -1    0    0    0    0  0.00000000000E+00  0.00000000000E+00  0.45593999997E+02  0.45594000000E+02  0.51100000000E-03 0. -1.
         11   -1    0    0    0    0 -0.00000000000E+00 -0.00000000000E+00 -0.45593999997E+02  0.45594000000E+02  0.51100000000E-03 0.  1.
         23    2    1    2    0    0  0.00000000000E+00 -0.17763568394E-14  0.00000000000E+00  0.91188000000E+02  0.91188000000E+02 0.  0.
    9900012    2    3    3    0    0 -0.11294483795E+02 -0.94889306481E+01 -0.37888784971E+02  0.50528865778E+02  0.30000018020E+02 0.  0.
         12    1    3    3    0    0  0.11294483795E+02  0.94889306481E+01  0.37888784971E+02  0.40659134222E+02  0.00000000000E+00 0. -1.
         11    1    4    4    0    0  0.18825623597E+01 -0.86944938866E+01 -0.36534586286E+01  0.96169654879E+01  0.51100000000E-03 0. -1.
        -11    1    4    4    0    0 -0.12068457803E+01 -0.82002468887E+01 -0.13801905774E+02  0.16099476048E+02  0.51100000000E-03 0.  1.
        -12    1    4    4    0    0 -0.11970200374E+02  0.74058101272E+01 -0.20433420569E+02  0.24812424242E+02  0.00000000000E+00 0.  1.
</event>
<event>
 8    1  0.2071617E-013  0.9118800E+02  0.7816164E-02  0.1184000E+00
        -11   -1    0    0    0    0  0.00000000000E+00  0.00000000000E+00  0.45593999997E+02  0.45594000000E+02  0.51100000000E-03 0. -1.
         11   -1    0    0    0    0 -0.00000000000E+00 -0.00000000000E+00 -0.45593999997E+02  0.45594000000E+02  0.51100000000E-03 0.  1.
         23    2    1    2    0    0  0.17763568394E-14 -0.44408920985E-15  0.00000000000E+00  0.91188000000E+02  0.91188000000E+02 0.  0.
    9900012    2    3    3    0    0 -0.11416980437E+01  0.24886323466E+01  0.40566844080E+02  0.50528860757E+02  0.30000002756E+02 0.  0.
        -12    1    3    3    0    0  0.11416980437E+01 -0.24886323466E+01 -0.40566844080E+02  0.40659139243E+02  0.00000000000E+00 0.  1.
         11    1    4    4    0    0 -0.68150062961E+00  0.81026611826E+01  0.25711719129E+02  0.26966832632E+02  0.51100000000E-03 0. -1.
        -11    1    4    4    0    0  0.81272729626E+01 -0.19876579361E+00  0.69340565218E+01  0.10685186651E+02  0.51100000000E-03 0.  1.
        -12    1    4    4    0    0 -0.85874703767E+01 -0.54152630424E+01  0.79210684292E+01  0.12876841474E+02  0.00000000000E+00 0.  1.
</event>
<event>
 8    1  0.1615837E-013  0.9118800E+02  0.7816164E-02  0.1184000E+00
        -11   -1    0    0    0    0  0.00000000000E+00  0.00000000000E+00  0.45593999997E+02  0.45594000000E+02  0.51100000000E-03 0.  1.
         11   -1    0    0    0    0 -0.00000000000E+00 -0.00000000000E+00 -0.45593999997E+02  0.45594000000E+02  0.51100000000E-03 0. -1.
         23    2    1    2    0    0  0.00000000000E+00  0.35527136788E-14 -0.88817841970E-15  0.91188000000E+02  0.91188000000E+02 0.  0.
    9900012    2    3    3    0    0  0.27700600451E+02  0.29631543059E+02 -0.27956998639E+01  0.50528836862E+02  0.29999930125E+02 0.  0.
         12    1    3    3    0    0 -0.27700600451E+02 -0.29631543059E+02  0.27956998639E+01  0.40659163138E+02  0.00000000000E+00 0. -1.
         11    1    4    4    0    0 -0.17365978249E+01  0.10382349073E+01 -0.12783640631E+01  0.23933070566E+01  0.51100000000E-03 0. -1.
        -11    1    4    4    0    0  0.13863301886E+02  0.26900452166E+01 -0.93199205458E+01  0.16920059151E+02  0.51100000000E-03 0.  1.
         12    1    4    4    0    0  0.15573896390E+02  0.25903262935E+02  0.78025847450E+01  0.31215470654E+02  0.00000000000E+00 0. -1.
</event>
<event>
 8    1  0.1615837E-013  0.9118800E+02  0.7816164E-02  0.1184000E+00
        -11   -1    0    0    0    0  0.00000000000E+00  0.00000000000E+00  0.45593999997E+02  0.45594000000E+02  0.51100000000E-03 0. -1.
         11   -1    0    0    0    0 -0.00000000000E+00 -0.00000000000E+00 -0.45593999997E+02  0.45594000000E+02  0.51100000000E-03 0.  1.
         23    2    1    2    0    0  0.00000000000E+00  0.66613381478E-15  0.00000000000E+00  0.91188000000E+02  0.91188000000E+02 0.  0.
    9900012    2    3    3    0    0  0.21350181609E+02  0.13849453781E+01 -0.34574805150E+02  0.50528862287E+02  0.30000007407E+02 0.  0.
         12    1    3    3    0    0 -0.21350181609E+02 -0.13849453781E+01  0.34574805150E+02  0.40659137713E+02  0.00000000000E+00 0. -1.
         11    1    4    4    0    0  0.78592308609E+01 -0.10686884452E+02 -0.18448259347E+02  0.22722572086E+02  0.51100000000E-03 0. -1.
        -11    1    4    4    0    0 -0.44588748220E+00  0.57427306916E+01 -0.26877172489E+00  0.57662821596E+01  0.51100000000E-03 0.  1.
        -12    1    4    4    0    0  0.13936838230E+02  0.63290991382E+01 -0.15857774078E+02  0.22040008042E+02  0.00000000000E+00 0.  1.
</event>
<event>
 8    1  0.1615837E-013  0.9118800E+02  0.7816164E-02  0.1184000E+00
        -11   -1    0    0    0    0  0.00000000000E+00  0.00000000000E+00  0.45593999997E+02  0.45594000000E+02  0.51100000000E-03 0. -1.
         11   -1    0    0    0    0 -0.00000000000E+00 -0.00000000000E+00 -0.45593999997E+02  0.45594000000E+02  0.51100000000E-03 0.  1.
         23    2    1    2    0    0  0.35527136788E-14 -0.17763568394E-14 -0.71054273576E-14  0.91188000000E+02  0.91188000000E+02 0.  0.
    9900012    2    3    3    0    0  0.31788784262E+02 -0.61474108100E+01 -0.24593655677E+02  0.50528863707E+02  0.30000011725E+02 0.  0.
         12    1    3    3    0    0 -0.31788784262E+02  0.61474108100E+01  0.24593655677E+02  0.40659136293E+02  0.00000000000E+00 0. -1.
         11    1    4    4    0    0  0.15764061867E+02  0.36299683073E+01 -0.18351435566E+02  0.24463391099E+02  0.51100000000E-03 0. -1.
        -11    1    4    4    0    0  0.15035864354E+02 -0.23486925062E+00 -0.66960170174E+01  0.16461136795E+02  0.51100000000E-03 0.  1.
         12    1    4    4    0    0  0.98885804086E+00 -0.95425098667E+01  0.45379690624E+00  0.96043358132E+01  0.00000000000E+00 0. -1.
</event>
<event>
 8    1  0.1615837E-013  0.9118800E+02  0.7816164E-02  0.1184000E+00
        -11   -1    0    0    0    0  0.00000000000E+00  0.00000000000E+00  0.45593999997E+02  0.45594000000E+02  0.51100000000E-03 0. -1.
         11   -1    0    0    0    0 -0.00000000000E+00 -0.00000000000E+00 -0.45593999997E+02  0.45594000000E+02  0.51100000000E-03 0.  1.
         23    2    1    2    0    0  0.00000000000E+00 -0.88817841970E-15  0.00000000000E+00  0.91188000000E+02  0.91188000000E+02 0.  0.
    9900012    2    3    3    0    0  0.13112371982E+02 -0.67860345023E+01  0.37883793359E+02  0.50528851429E+02  0.29999974404E+02 0.  0.
        -12    1    3    3    0    0 -0.13112371982E+02  0.67860345023E+01 -0.37883793359E+02  0.40659148571E+02  0.00000000000E+00 0.  1.
         11    1    4    4    0    0  0.74406802037E+00 -0.15301577038E+01  0.42858580357E+01  0.46112470309E+01  0.51100000000E-03 0. -1.
        -11    1    4    4    0    0  0.59613194831E+01 -0.14420671055E+02  0.30586472330E+02  0.34336938907E+02  0.51100000000E-03 0.  1.
         12    1    4    4    0    0  0.64069844784E+01  0.91647942560E+01  0.30114629933E+01  0.11580665491E+02  0.00000000000E+00 0. -1.
</event>
<event>
 8    1  0.1615837E-013  0.9118800E+02  0.7816164E-02  0.1184000E+00
        -11   -1    0    0    0    0  0.00000000000E+00  0.00000000000E+00  0.45593999997E+02  0.45594000000E+02  0.51100000000E-03 0. -1.
         11   -1    0    0    0    0 -0.00000000000E+00 -0.00000000000E+00 -0.45593999997E+02  0.45594000000E+02  0.51100000000E-03 0.  1.
         23    2    1    2    0    0 -0.44408920985E-15 -0.17763568394E-14  0.00000000000E+00  0.91188000000E+02  0.91188000000E+02 0.  0.
    9900012    2    3    3    0    0 -0.21453893024E+01 -0.13387579282E+02 -0.38331906989E+02  0.50528867351E+02  0.30000022801E+02 0.  0.
         12    1    3    3    0    0  0.21453893024E+01  0.13387579282E+02  0.38331906989E+02  0.40659132649E+02  0.00000000000E+00 0. -1.
         11    1    4    4    0    0  0.30633755177E+01 -0.20371338156E+01 -0.26555291918E+02  0.26808911072E+02  0.51100000000E-03 0.  1.
        -11    1    4    4    0    0 -0.76971427183E+01  0.11753607666E+01 -0.38135845954E+01  0.86701157250E+01  0.51100000000E-03 0. -1.
         12    1    4    4    0    0  0.24883778983E+01 -0.12525806233E+02 -0.79630304758E+01  0.15049840554E+02  0.00000000000E+00 0. -1.
</event>
<event>
 8    1  0.1615837E-013  0.9118800E+02  0.7816164E-02  0.1184000E+00
        -11   -1    0    0    0    0  0.00000000000E+00  0.00000000000E+00  0.45593999997E+02  0.45594000000E+02  0.51100000000E-03 0. -1.
         11   -1    0    0    0    0 -0.00000000000E+00 -0.00000000000E+00 -0.45593999997E+02  0.45594000000E+02  0.51100000000E-03 0.  1.
         23    2    1    2    0    0  0.88817841970E-15  0.17763568394E-14 -0.71054273576E-14  0.91188000000E+02  0.91188000000E+02 0.  0.
    9900012    2    3    3    0    0 -0.16629216666E+01  0.12072971398E+02 -0.38789764899E+02  0.50528833656E+02  0.29999920381E+02 0.  0.
         12    1    3    3    0    0  0.16629216666E+01 -0.12072971398E+02  0.38789764899E+02  0.40659166344E+02  0.00000000000E+00 0. -1.
         11    1    4    4    0    0  0.40204145602E+01 -0.29098476703E+01 -0.11135613990E+01  0.50863509465E+01  0.51100000000E-03 0. -1.
        -11    1    4    4    0    0 -0.11045009566E+01 -0.20977263798E+01  0.12556206948E+01  0.26827154001E+01  0.51100000000E-03 0.  1.
        -12    1    4    4    0    0 -0.45788352702E+01  0.17080545448E+02 -0.38931824195E+02  0.42759767310E+02  0.00000000000E+00 0.  1.
</event>
<event>
 8    1  0.1615837E-013  0.9118800E+02  0.7816164E-02  0.1184000E+00
        -11   -1    0    0    0    0  0.00000000000E+00  0.00000000000E+00  0.45593999997E+02  0.45594000000E+02  0.51100000000E-03 0.  1.
         11   -1    0    0    0    0 -0.00000000000E+00 -0.00000000000E+00 -0.45593999997E+02  0.45594000000E+02  0.51100000000E-03 0. -1.
         23    2    1    2    0    0  0.00000000000E+00  0.00000000000E+00  0.88817841970E-15  0.91188000000E+02  0.91188000000E+02 0.  0.
    9900012    2    3    3    0    0  0.22520462777E+02 -0.33544430493E+02 -0.45569641025E+01  0.50528856100E+02  0.29999988603E+02 0.  0.
        -12    1    3    3    0    0 -0.22520462777E+02  0.33544430493E+02  0.45569641025E+01  0.40659143900E+02  0.00000000000E+00 0.  1.
         11    1    4    4    0    0  0.80960665184E+00  0.11278685642E+01  0.23887376069E+01  0.27629002958E+01  0.51100000000E-03 0. -1.
        -11    1    4    4    0    0  0.40550415275E+01 -0.12888603643E+02  0.82919027467E+01  0.15852921405E+02  0.51100000000E-03 0.  1.
         12    1    4    4    0    0  0.17655814598E+02 -0.21783695414E+02 -0.15237604456E+02  0.31913034399E+02  0.00000000000E+00 0. -1.
</event>
<event>
 8    1  0.1615837E-013  0.9118800E+02  0.7816164E-02  0.1184000E+00
        -11   -1    0    0    0    0  0.00000000000E+00  0.00000000000E+00  0.45593999997E+02  0.45594000000E+02  0.51100000000E-03 0. -1.
         11   -1    0    0    0    0 -0.00000000000E+00 -0.00000000000E+00 -0.45593999997E+02  0.45594000000E+02  0.51100000000E-03 0.  1.
         23    2    1    2    0    0  0.35527136788E-14  0.00000000000E+00  0.35527136788E-14  0.91188000000E+02  0.91188000000E+02 0.  0.
    9900012    2    3    3    0    0  0.30489826751E+02 -0.60308572785E+01 -0.26213844538E+02  0.50528850718E+02  0.29999972244E+02 0.  0.
         12    1    3    3    0    0 -0.30489826751E+02  0.60308572785E+01  0.26213844538E+02  0.40659149282E+02  0.00000000000E+00 0. -1.
         11    1    4    4    0    0  0.19261735576E+01  0.23652941663E+01 -0.13806429465E+01  0.33482736259E+01  0.51100000000E-03 0. -1.
        -11    1    4    4    0    0 -0.43368258830E+01 -0.55625478717E+01 -0.51964441196E+01  0.87608806243E+01  0.51100000000E-03 0.  1.
        -12    1    4    4    0    0  0.32900479077E+02 -0.28336035731E+01 -0.19636757472E+02  0.38419696468E+02  0.00000000000E+00 0.  1.
</event>
<event>
 8    1  0.1615837E-013  0.9118800E+02  0.7816164E-02  0.1184000E+00
        -11   -1    0    0    0    0  0.00000000000E+00  0.00000000000E+00  0.45593999997E+02  0.45594000000E+02  0.51100000000E-03 0. -1.
         11   -1    0    0    0    0 -0.00000000000E+00 -0.00000000000E+00 -0.45593999997E+02  0.45594000000E+02  0.51100000000E-03 0.  1.
         23    2    1    2    0    0  0.88817841970E-15  0.00000000000E+00  0.00000000000E+00  0.91188000000E+02  0.91188000000E+02 0.  0.
    9900012    2    3    3    0    0  0.71563418094E+01 -0.22859172647E+02 -0.32854398001E+02  0.50528850105E+02  0.29999970378E+02 0.  0.
         12    1    3    3    0    0 -0.71563418094E+01  0.22859172647E+02  0.32854398001E+02  0.40659149895E+02  0.00000000000E+00 0. -1.
         11    1    4    4    0    0  0.90861179891E+01 -0.32128933957E+01 -0.12713877632E+02  0.15953774124E+02  0.51100000000E-03 0. -1.
        -11    1    4    4    0    0 -0.82581839249E+01 -0.76065962665E+01 -0.17387926163E+02  0.20697774881E+02  0.51100000000E-03 0.  1.
         12    1    4    4    0    0  0.63284077453E+01 -0.12039682984E+02 -0.27525942055E+01  0.13877301100E+02  0.00000000000E+00 0. -1.
</event>
<event>
 8    1  0.1615837E-013  0.9118800E+02  0.7816164E-02  0.1184000E+00
        -11   -1    0    0    0    0  0.00000000000E+00  0.00000000000E+00  0.45593999997E+02  0.45594000000E+02  0.51100000000E-03 0. -1.
         11   -1    0    0    0    0 -0.00000000000E+00 -0.00000000000E+00 -0.45593999997E+02  0.45594000000E+02  0.51100000000E-03 0.  1.
         23    2    1    2    0    0  0.00000000000E+00 -0.17763568394E-14  0.71054273576E-14  0.91188000000E+02  0.91188000000E+02 0.  0.
    9900012    2    3    3    0    0  0.20496485491E+02 -0.80607324564E+01  0.34177213815E+02  0.50528889467E+02  0.30000090023E+02 0.  0.
        -12    1    3    3    0    0 -0.20496485491E+02  0.80607324564E+01 -0.34177213815E+02  0.40659110533E+02  0.00000000000E+00 0.  1.
         11    1    4    4    0    0  0.96388217909E+01  0.16799975181E+01 -0.12406086273E+01  0.98624736859E+01  0.51100000000E-03 0. -1.
        -11    1    4    4    0    0 -0.64529158383E+00  0.22703733015E+01  0.12611051399E+01  0.26760759689E+01  0.51100000000E-03 0.  1.
         12    1    4    4    0    0  0.11502955284E+02 -0.12011103276E+02  0.34156717302E+02  0.37990339812E+02  0.00000000000E+00 0. -1.
</event>
<event>
 8    1  0.1615837E-013  0.9118800E+02  0.7816164E-02  0.1184000E+00
        -11   -1    0    0    0    0  0.00000000000E+00  0.00000000000E+00  0.45593999997E+02  0.45594000000E+02  0.51100000000E-03 0. -1.
         11   -1    0    0    0    0 -0.00000000000E+00 -0.00000000000E+00 -0.45593999997E+02  0.45594000000E+02  0.51100000000E-03 0.  1.
         23    2    1    2    0    0  0.33306690739E-15  0.00000000000E+00 -0.35527136788E-14  0.91188000000E+02  0.91188000000E+02 0.  0.
    9900012    2    3    3    0    0  0.56261698781E+00 -0.25500845422E+02 -0.31663162654E+02  0.50528861736E+02  0.30000005734E+02 0.  0.
         12    1    3    3    0    0 -0.56261698781E+00  0.25500845422E+02  0.31663162654E+02  0.40659138264E+02  0.00000000000E+00 0. -1.
         11    1    4    4    0    0 -0.63275322312E+01 -0.25341182886E+01 -0.16450584687E+02  0.17806772768E+02  0.51100000000E-03 0. -1.
        -11    1    4    4    0    0 -0.42941680704E+01 -0.72988269304E+01 -0.48133428414E+00  0.84820066571E+01  0.51100000000E-03 0.  1.
         12    1    4    4    0    0  0.11184317289E+02 -0.15667900203E+02 -0.14731243683E+02  0.24240082311E+02  0.00000000000E+00 0. -1.
</event>
<event>
 8    1  0.1615837E-013  0.9118800E+02  0.7816164E-02  0.1184000E+00
        -11   -1    0    0    0    0  0.00000000000E+00  0.00000000000E+00  0.45593999997E+02  0.45594000000E+02  0.51100000000E-03 0. -1.
         11   -1    0    0    0    0 -0.00000000000E+00 -0.00000000000E+00 -0.45593999997E+02  0.45594000000E+02  0.51100000000E-03 0.  1.
         23    2    1    2    0    0 -0.35527136788E-14  0.35527136788E-14  0.35527136788E-14  0.91188000000E+02  0.91188000000E+02 0.  0.
    9900012    2    3    3    0    0 -0.30788846797E+02 -0.14617218233E+02 -0.22170926332E+02  0.50528854284E+02  0.29999983080E+02 0.  0.
         12    1    3    3    0    0  0.30788846797E+02  0.14617218233E+02  0.22170926332E+02  0.40659145716E+02  0.00000000000E+00 0. -1.
         11    1    4    4    0    0 -0.62060481927E+01 -0.40288566959E+01 -0.61591167043E+01  0.96271199891E+01  0.51100000000E-03 0. -1.
        -11    1    4    4    0    0 -0.29526504656E+02 -0.12181813699E+02 -0.15962549055E+02  0.35707338668E+02  0.51100000000E-03 0.  1.
         12    1    4    4    0    0  0.49437060514E+01  0.15934521621E+01 -0.49260572976E-01  0.51943956260E+01  0.00000000000E+00 0. -1.
</event>
<event>
 8    1  0.1615837E-013  0.9118800E+02  0.7816164E-02  0.1184000E+00
        -11   -1    0    0    0    0  0.00000000000E+00  0.00000000000E+00  0.45593999997E+02  0.45594000000E+02  0.51100000000E-03 0. -1.
         11   -1    0    0    0    0 -0.00000000000E+00 -0.00000000000E+00 -0.45593999997E+02  0.45594000000E+02  0.51100000000E-03 0.  1.
         23    2    1    2    0    0 -0.35527136788E-14  0.00000000000E+00  0.71054273576E-14  0.91188000000E+02  0.91188000000E+02 0.  0.
    9900012    2    3    3    0    0 -0.21210014365E+02  0.69098521359E+01  0.33993464023E+02  0.50528851433E+02  0.29999974415E+02 0.  0.
        -12    1    3    3    0    0  0.21210014365E+02 -0.69098521359E+01 -0.33993464023E+02  0.40659148567E+02  0.00000000000E+00 0.  1.
         11    1    4    4    0    0 -0.14833322446E+00 -0.21122969064E+01  0.56354251835E+01  0.60201177917E+01  0.51100000000E-03 0. -1.
        -11    1    4    4    0    0 -0.30294492428E+01 -0.52650300664E+01 -0.20206519410E+01  0.64016512590E+01  0.51100000000E-03 0.  1.
        -12    1    4    4    0    0 -0.18032231898E+02  0.14287179109E+02  0.30378690781E+02  0.38107082382E+02  0.00000000000E+00 0.  1.
</event>
<event>
 8    1  0.1615837E-013  0.9118800E+02  0.7816164E-02  0.1184000E+00
        -11   -1    0    0    0    0  0.00000000000E+00  0.00000000000E+00  0.45593999997E+02  0.45594000000E+02  0.51100000000E-03 0. -1.
         11   -1    0    0    0    0 -0.00000000000E+00 -0.00000000000E+00 -0.45593999997E+02  0.45594000000E+02  0.51100000000E-03 0.  1.
         23    2    1    2    0    0 -0.17763568394E-14 -0.88817841970E-15  0.00000000000E+00  0.91188000000E+02  0.91188000000E+02 0.  0.
    9900012    2    3    3    0    0  0.26165166747E+01 -0.78956258477E+01 -0.39799235539E+02  0.50528853224E+02  0.29999979861E+02 0.  0.
         12    1    3    3    0    0 -0.26165166747E+01  0.78956258477E+01  0.39799235539E+02  0.40659146776E+02  0.00000000000E+00 0. -1.
         11    1    4    4    0    0  0.66631165023E+00  0.77649194499E+00  0.92139893614E+00  0.13769122036E+01  0.51100000000E-03 0. -1.
        -11    1    4    4    0    0  0.91787530238E+01 -0.13417762246E+02 -0.35514612111E+02  0.39058590917E+02  0.51100000000E-03 0.  1.
        -12    1    4    4    0    0 -0.72285479993E+01  0.47456444535E+01 -0.52060223640E+01  0.10093350103E+02  0.00000000000E+00 0.  1.
</event>
<event>
 8    1  0.1615837E-013  0.9118800E+02  0.7816164E-02  0.1184000E+00
        -11   -1    0    0    0    0  0.00000000000E+00  0.00000000000E+00  0.45593999997E+02  0.45594000000E+02  0.51100000000E-03 0. -1.
         11   -1    0    0    0    0 -0.00000000000E+00 -0.00000000000E+00 -0.45593999997E+02  0.45594000000E+02  0.51100000000E-03 0.  1.
         23    2    1    2    0    0 -0.26645352591E-14  0.00000000000E+00  0.00000000000E+00  0.91188000000E+02  0.91188000000E+02 0.  0.
    9900012    2    3    3    0    0 -0.79408787396E+01 -0.11713839943E+02 -0.38116862547E+02  0.50528845904E+02  0.29999957609E+02 0.  0.
         12    1    3    3    0    0  0.79408787396E+01  0.11713839943E+02  0.38116862547E+02  0.40659154096E+02  0.00000000000E+00 0. -1.
         11    1    4    4    0    0 -0.45126086915E+01 -0.30831932571E+01 -0.80789032120E+00  0.55247085802E+01  0.51100000000E-03 0. -1.
        -11    1    4    4    0    0 -0.98599822991E+01  0.76055575550E+00 -0.57140346544E+01  0.11421378563E+02  0.51100000000E-03 0.  1.
        -12    1    4    4    0    0  0.64317122511E+01 -0.93912024419E+01 -0.31594937572E+02  0.33582758760E+02  0.00000000000E+00 0.  1.
</event>
<event>
 8    1  0.1615837E-013  0.9118800E+02  0.7816164E-02  0.1184000E+00
        -11   -1    0    0    0    0  0.00000000000E+00  0.00000000000E+00  0.45593999997E+02  0.45594000000E+02  0.51100000000E-03 0. -1.
         11   -1    0    0    0    0 -0.00000000000E+00 -0.00000000000E+00 -0.45593999997E+02  0.45594000000E+02  0.51100000000E-03 0.  1.
         23    2    1    2    0    0  0.00000000000E+00  0.00000000000E+00  0.35527136788E-14  0.91188000000E+02  0.91188000000E+02 0.  0.
    9900012    2    3    3    0    0 -0.29635517461E+01 -0.29840021428E+02 -0.27458271047E+02  0.50528853838E+02  0.29999981725E+02 0.  0.
         12    1    3    3    0    0  0.29635517461E+01  0.29840021428E+02  0.27458271047E+02  0.40659146162E+02  0.00000000000E+00 0. -1.
         11    1    4    4    0    0  0.17445984656E+01 -0.42963684118E+01 -0.41599241092E+01  0.62295565004E+01  0.51100000000E-03 0. -1.
        -11    1    4    4    0    0  0.20630295142E+01 -0.94067500800E+01 -0.24928070736E+02  0.26723617808E+02  0.51100000000E-03 0.  1.
         12    1    4    4    0    0 -0.67711797260E+01 -0.16136902936E+02  0.16297237988E+01  0.17575679529E+02  0.00000000000E+00 0. -1.
</event>
<event>
 8    1  0.1615837E-013  0.9118800E+02  0.7816164E-02  0.1184000E+00
        -11   -1    0    0    0    0  0.00000000000E+00  0.00000000000E+00  0.45593999997E+02  0.45594000000E+02  0.51100000000E-03 0. -1.
         11   -1    0    0    0    0 -0.00000000000E+00 -0.00000000000E+00 -0.45593999997E+02  0.45594000000E+02  0.51100000000E-03 0.  1.
         23    2    1    2    0    0  0.00000000000E+00 -0.10547118734E-14  0.00000000000E+00  0.91188000000E+02  0.91188000000E+02 0.  0.
    9900012    2    3    3    0    0 -0.18920833471E+02  0.29666497470E+00 -0.35987220402E+02  0.50528856113E+02  0.29999988640E+02 0.  0.
         12    1    3    3    0    0  0.18920833471E+02 -0.29666497470E+00  0.35987220402E+02  0.40659143887E+02  0.00000000000E+00 0. -1.
         11    1    4    4    0    0 -0.48083706523E+01  0.54351940619E+01 -0.76835112873E+01  0.10568732601E+02  0.51100000000E-03 0. -1.
        -11    1    4    4    0    0 -0.48188555819E+01  0.42829761997E+01 -0.25669326015E+02  0.26466574251E+02  0.51100000000E-03 0.  1.
         12    1    4    4    0    0 -0.92936072369E+01 -0.94215052868E+01 -0.26343830997E+01  0.13493549261E+02  0.00000000000E+00 0. -1.
</event>
<event>
 8    1  0.1615837E-013  0.9118800E+02  0.7816164E-02  0.1184000E+00
        -11   -1    0    0    0    0  0.00000000000E+00  0.00000000000E+00  0.45593999997E+02  0.45594000000E+02  0.51100000000E-03 0. -1.
         11   -1    0    0    0    0 -0.00000000000E+00 -0.00000000000E+00 -0.45593999997E+02  0.45594000000E+02  0.51100000000E-03 0.  1.
         23    2    1    2    0    0  0.00000000000E+00  0.00000000000E+00 -0.35527136788E-14  0.91188000000E+02  0.91188000000E+02 0.  0.
    9900012    2    3    3    0    0 -0.26064480325E+02  0.71045846800E+01  0.30386382406E+02  0.50528874409E+02  0.30000044255E+02 0.  0.
        -12    1    3    3    0    0  0.26064480325E+02 -0.71045846800E+01 -0.30386382406E+02  0.40659125591E+02  0.00000000000E+00 0.  1.
         11    1    4    4    0    0 -0.11400595990E+01  0.38233123811E+00 -0.10012274966E+01  0.15647267576E+01  0.51100000000E-03 0. -1.
        -11    1    4    4    0    0 -0.32964984150E+01  0.11317977459E+02  0.16438816732E+01  0.11902346944E+02  0.51100000000E-03 0.  1.
         12    1    4    4    0    0 -0.21627922311E+02 -0.45957240170E+01  0.29743728229E+02  0.37061800708E+02  0.00000000000E+00 0. -1.
</event>
<event>
 8    1  0.1615837E-013  0.9118800E+02  0.7816164E-02  0.1184000E+00
        -11   -1    0    0    0    0  0.00000000000E+00  0.00000000000E+00  0.45593999997E+02  0.45594000000E+02  0.51100000000E-03 0. -1.
         11   -1    0    0    0    0 -0.00000000000E+00 -0.00000000000E+00 -0.45593999997E+02  0.45594000000E+02  0.51100000000E-03 0.  1.
         23    2    1    2    0    0  0.00000000000E+00 -0.88817841970E-15  0.00000000000E+00  0.91188000000E+02  0.91188000000E+02 0.  0.
    9900012    2    3    3    0    0  0.24045860104E+02 -0.45488769192E+01 -0.32469516281E+02  0.50528866255E+02  0.30000019469E+02 0.  0.
         12    1    3    3    0    0 -0.24045860104E+02  0.45488769192E+01  0.32469516281E+02  0.40659133745E+02  0.00000000000E+00 0. -1.
         11    1    4    4    0    0  0.44527006775E+01 -0.13774573275E+02 -0.69518532103E+01  0.16059068328E+02  0.51100000000E-03 0. -1.
        -11    1    4    4    0    0  0.40588299714E+01  0.43894841874E+01 -0.11639295640E+02  0.13084910218E+02  0.51100000000E-03 0.  1.
        -12    1    4    4    0    0  0.15534329455E+02  0.48362121689E+01 -0.13878367431E+02  0.21384887709E+02  0.00000000000E+00 0.  1.
</event>
<event>
 8    1  0.1615837E-013  0.9118800E+02  0.7816164E-02  0.1184000E+00
        -11   -1    0    0    0    0  0.00000000000E+00  0.00000000000E+00  0.45593999997E+02  0.45594000000E+02  0.51100000000E-03 0. -1.
         11   -1    0    0    0    0 -0.00000000000E+00 -0.00000000000E+00 -0.45593999997E+02  0.45594000000E+02  0.51100000000E-03 0.  1.
         23    2    1    2    0    0  0.22204460493E-15 -0.35527136788E-14  0.71054273576E-14  0.91188000000E+02  0.91188000000E+02 0.  0.
    9900012    2    3    3    0    0 -0.17001253503E+01 -0.22357207220E+02  0.33918005800E+02  0.50528852710E+02  0.29999978299E+02 0.  0.
        -12    1    3    3    0    0  0.17001253503E+01  0.22357207220E+02 -0.33918005800E+02  0.40659147290E+02  0.00000000000E+00 0.  1.
         11    1    4    4    0    0  0.14180822276E+01 -0.91947062703E+01  0.31483422984E+01  0.98216923231E+01  0.51100000000E-03 0. -1.
        -11    1    4    4    0    0  0.17608894547E+00 -0.89490203489E+01 -0.51792104459E+00  0.89657244543E+01  0.51100000000E-03 0.  1.
         12    1    4    4    0    0 -0.32942965234E+01 -0.42134806004E+01  0.31287584546E+02  0.31741435933E+02  0.00000000000E+00 0. -1.
</event>
<event>
 8    1  0.1615837E-013  0.9118800E+02  0.7816164E-02  0.1184000E+00
        -11   -1    0    0    0    0  0.00000000000E+00  0.00000000000E+00  0.45593999997E+02  0.45594000000E+02  0.51100000000E-03 0. -1.
         11   -1    0    0    0    0 -0.00000000000E+00 -0.00000000000E+00 -0.45593999997E+02  0.45594000000E+02  0.51100000000E-03 0.  1.
         23    2    1    2    0    0 -0.17763568394E-14  0.17763568394E-14  0.00000000000E+00  0.91188000000E+02  0.91188000000E+02 0.  0.
    9900012    2    3    3    0    0  0.94539920074E+01 -0.13398155544E+02  0.37205864585E+02  0.50528869459E+02  0.30000029207E+02 0.  0.
        -12    1    3    3    0    0 -0.94539920074E+01  0.13398155544E+02 -0.37205864585E+02  0.40659130541E+02  0.00000000000E+00 0.  1.
         11    1    4    4    0    0 -0.36728928712E+01  0.38471313186E+01  0.34812508362E+01  0.63568600009E+01  0.51100000000E-03 0. -1.
        -11    1    4    4    0    0  0.34902525315E+01  0.35961068674E+01  0.98269768118E+01  0.11031016311E+02  0.51100000000E-03 0.  1.
        -12    1    4    4    0    0  0.96366323471E+01 -0.20841393730E+02  0.23897636937E+02  0.33140993147E+02  0.00000000000E+00 0.  1.
</event>
<event>
 8    1  0.1615837E-013  0.9118800E+02  0.7816164E-02  0.1184000E+00
        -11   -1    0    0    0    0  0.00000000000E+00  0.00000000000E+00  0.45593999997E+02  0.45594000000E+02  0.51100000000E-03 0. -1.
         11   -1    0    0    0    0 -0.00000000000E+00 -0.00000000000E+00 -0.45593999997E+02  0.45594000000E+02  0.51100000000E-03 0.  1.
         23    2    1    2    0    0 -0.71054273576E-14 -0.44408920985E-15  0.00000000000E+00  0.91188000000E+02  0.91188000000E+02 0.  0.
    9900012    2    3    3    0    0 -0.28521067246E+02 -0.21143490337E+01 -0.28900589735E+02  0.50528857907E+02  0.29999994094E+02 0.  0.
         12    1    3    3    0    0  0.28521067246E+02  0.21143490337E+01  0.28900589735E+02  0.40659142093E+02  0.00000000000E+00 0. -1.
         11    1    4    4    0    0  0.76252272015E+00  0.36471638443E+01 -0.30902328656E+01  0.48407421363E+01  0.51100000000E-03 0. -1.
        -11    1    4    4    0    0 -0.17018448685E+02  0.77223741204E+01 -0.84285634418E+01  0.20501300926E+02  0.51100000000E-03 0.  1.
        -12    1    4    4    0    0 -0.12265141281E+02 -0.13483886998E+02 -0.17381793428E+02  0.25186814844E+02  0.00000000000E+00 0.  1.
</event>
<event>
 8    1  0.1615837E-013  0.9118800E+02  0.7816164E-02  0.1184000E+00
        -11   -1    0    0    0    0  0.00000000000E+00  0.00000000000E+00  0.45593999997E+02  0.45594000000E+02  0.51100000000E-03 0. -1.
         11   -1    0    0    0    0 -0.00000000000E+00 -0.00000000000E+00 -0.45593999997E+02  0.45594000000E+02  0.51100000000E-03 0.  1.
         23    2    1    2    0    0 -0.11102230246E-14  0.35527136788E-14  0.71054273576E-14  0.91188000000E+02  0.91188000000E+02 0.  0.
    9900012    2    3    3    0    0  0.18972303343E+01  0.23318192207E+02  0.33254007488E+02  0.50528848696E+02  0.29999966097E+02 0.  0.
        -12    1    3    3    0    0 -0.18972303343E+01 -0.23318192207E+02 -0.33254007488E+02  0.40659151304E+02  0.00000000000E+00 0.  1.
         11    1    4    4    0    0  0.24985215299E+01  0.13123249206E+02  0.16330091886E+02  0.21098203261E+02  0.51100000000E-03 0. -1.
        -11    1    4    4    0    0  0.57024063569E+01  0.15066321616E+02  0.11149494050E+02  0.19591393599E+02  0.51100000000E-03 0.  1.
         12    1    4    4    0    0 -0.63036975524E+01 -0.48713786156E+01  0.57744215517E+01  0.98392518367E+01  0.00000000000E+00 0. -1.
</event>
<event>
 8    1  0.1615837E-013  0.9118800E+02  0.7816164E-02  0.1184000E+00
        -11   -1    0    0    0    0  0.00000000000E+00  0.00000000000E+00  0.45593999997E+02  0.45594000000E+02  0.51100000000E-03 0. -1.
         11   -1    0    0    0    0 -0.00000000000E+00 -0.00000000000E+00 -0.45593999997E+02  0.45594000000E+02  0.51100000000E-03 0.  1.
         23    2    1    2    0    0  0.00000000000E+00  0.00000000000E+00 -0.35527136788E-14  0.91188000000E+02  0.91188000000E+02 0.  0.
    9900012    2    3    3    0    0 -0.43756628970E+01 -0.28322076255E+02 -0.28842328716E+02  0.50528851522E+02  0.29999974687E+02 0.  0.
         12    1    3    3    0    0  0.43756628970E+01  0.28322076255E+02  0.28842328716E+02  0.40659148478E+02  0.00000000000E+00 0. -1.
         11    1    4    4    0    0 -0.19954101890E+01 -0.16709667859E+01  0.43385080072E+01  0.50592928173E+01  0.51100000000E-03 0. -1.
        -11    1    4    4    0    0 -0.84799595288E+00 -0.12509623588E+01  0.17119958029E+01  0.22836229657E+01  0.51100000000E-03 0.  1.
        -12    1    4    4    0    0 -0.15322567552E+01 -0.25400147110E+02 -0.34892832526E+02  0.43185935739E+02  0.00000000000E+00 0.  1.
</event>
<event>
 8    1  0.1615837E-013  0.9118800E+02  0.7816164E-02  0.1184000E+00
        -11   -1    0    0    0    0  0.00000000000E+00  0.00000000000E+00  0.45593999997E+02  0.45594000000E+02  0.51100000000E-03 0. -1.
         11   -1    0    0    0    0 -0.00000000000E+00 -0.00000000000E+00 -0.45593999997E+02  0.45594000000E+02  0.51100000000E-03 0.  1.
         23    2    1    2    0    0 -0.17763568394E-14  0.00000000000E+00  0.00000000000E+00  0.91188000000E+02  0.91188000000E+02 0.  0.
    9900012    2    3    3    0    0  0.10740798048E+02 -0.38483102032E+02  0.75400131246E+01  0.50528859790E+02  0.29999999817E+02 0.  0.
        -12    1    3    3    0    0 -0.10740798048E+02  0.38483102032E+02 -0.75400131246E+01  0.40659140210E+02  0.00000000000E+00 0.  1.
         11    1    4    4    0    0  0.90480391363E+01 -0.33391334304E+02  0.16063438917E+01  0.34632767140E+02  0.51100000000E-03 0. -1.
        -11    1    4    4    0    0  0.19384229641E+01 -0.60665409576E+01 -0.29053425067E+01  0.70001012936E+01  0.51100000000E-03 0.  1.
         12    1    4    4    0    0 -0.24566405241E+00  0.97477322984E+00  0.88390117396E+01  0.88959913561E+01  0.00000000000E+00 0. -1.
</event>
<event>
 8    1  0.1615837E-013  0.9118800E+02  0.7816164E-02  0.1184000E+00
        -11   -1    0    0    0    0  0.00000000000E+00  0.00000000000E+00  0.45593999997E+02  0.45594000000E+02  0.51100000000E-03 0. -1.
         11   -1    0    0    0    0 -0.00000000000E+00 -0.00000000000E+00 -0.45593999997E+02  0.45594000000E+02  0.51100000000E-03 0.  1.
         23    2    1    2    0    0  0.00000000000E+00  0.00000000000E+00 -0.71054273576E-14  0.91188000000E+02  0.91188000000E+02 0.  0.
    9900012    2    3    3    0    0  0.10976616027E+02 -0.21024179667E+02  0.33025197422E+02  0.50528857181E+02  0.29999991886E+02 0.  0.
        -12    1    3    3    0    0 -0.10976616027E+02  0.21024179667E+02 -0.33025197422E+02  0.40659142819E+02  0.00000000000E+00 0.  1.
         11    1    4    4    0    0  0.40152108852E+01 -0.17645037834E+02  0.11305206255E+02  0.21337220234E+02  0.51100000000E-03 0. -1.
        -11    1    4    4    0    0 -0.15457104214E+01 -0.90861261841E+01  0.11256094317E+02  0.14548077855E+02  0.51100000000E-03 0.  1.
         12    1    4    4    0    0  0.85071155629E+01  0.57069843506E+01  0.10463896850E+02  0.14643559091E+02  0.00000000000E+00 0. -1.
</event>
<event>
 8    1  0.1615837E-013  0.9118800E+02  0.7816164E-02  0.1184000E+00
        -11   -1    0    0    0    0  0.00000000000E+00  0.00000000000E+00  0.45593999997E+02  0.45594000000E+02  0.51100000000E-03 0. -1.
         11   -1    0    0    0    0 -0.00000000000E+00 -0.00000000000E+00 -0.45593999997E+02  0.45594000000E+02  0.51100000000E-03 0.  1.
         23    2    1    2    0    0  0.00000000000E+00  0.00000000000E+00  0.00000000000E+00  0.91188000000E+02  0.91188000000E+02 0.  0.
    9900012    2    3    3    0    0 -0.82462170856E+01  0.20297831263E+02 -0.34251428331E+02  0.50528900245E+02  0.30000122785E+02 0.  0.
         12    1    3    3    0    0  0.82462170856E+01 -0.20297831263E+02  0.34251428331E+02  0.40659099755E+02  0.00000000000E+00 0. -1.
         11    1    4    4    0    0  0.11848037740E+01  0.26186032553E+01 -0.96174679705E+00  0.30308084984E+01  0.51100000000E-03 0. -1.
        -11    1    4    4    0    0 -0.12716216837E+02  0.23723778458E+02 -0.27809435705E+02  0.38702513477E+02  0.51100000000E-03 0.  1.
         12    1    4    4    0    0  0.32851959772E+01 -0.60445504505E+01 -0.54802458289E+01  0.87955782699E+01  0.00000000000E+00 0. -1.
</event>
<event>
 8    1  0.1615837E-013  0.9118800E+02  0.7816164E-02  0.1184000E+00
        -11   -1    0    0    0    0  0.00000000000E+00  0.00000000000E+00  0.45593999997E+02  0.45594000000E+02  0.51100000000E-03 0. -1.
         11   -1    0    0    0    0 -0.00000000000E+00 -0.00000000000E+00 -0.45593999997E+02  0.45594000000E+02  0.51100000000E-03 0.  1.
         23    2    1    2    0    0  0.00000000000E+00  0.17763568394E-14  0.88817841970E-15  0.91188000000E+02  0.91188000000E+02 0.  0.
    9900012    2    3    3    0    0 -0.38592840250E+02 -0.11615130808E+02 -0.53709177629E+01  0.50528864005E+02  0.30000012630E+02 0.  0.
        -12    1    3    3    0    0  0.38592840250E+02  0.11615130808E+02  0.53709177629E+01  0.40659135995E+02  0.00000000000E+00 0.  1.
         11    1    4    4    0    0 -0.24629900710E+01  0.51399716761E+00  0.67591826098E+00  0.26052598594E+01  0.51100000000E-03 0. -1.
        -11    1    4    4    0    0 -0.23933912313E+02  0.67078228388E+01 -0.55980239404E+01  0.25478715001E+02  0.51100000000E-03 0.  1.
         12    1    4    4    0    0 -0.12195937866E+02 -0.18836950814E+02 -0.44881208347E+00  0.22444889144E+02  0.00000000000E+00 0. -1.
</event>
<event>
 8    1  0.1615837E-013  0.9118800E+02  0.7816164E-02  0.1184000E+00
        -11   -1    0    0    0    0  0.00000000000E+00  0.00000000000E+00  0.45593999997E+02  0.45594000000E+02  0.51100000000E-03 0. -1.
         11   -1    0    0    0    0 -0.00000000000E+00 -0.00000000000E+00 -0.45593999997E+02  0.45594000000E+02  0.51100000000E-03 0.  1.
         23    2    1    2    0    0 -0.44408920985E-15  0.00000000000E+00 -0.35527136788E-14  0.91188000000E+02  0.91188000000E+02 0.  0.
    9900012    2    3    3    0    0 -0.34567476219E+01  0.35591441772E+02 -0.19351127259E+02  0.50528856407E+02  0.29999989534E+02 0.  0.
         12    1    3    3    0    0  0.34567476219E+01 -0.35591441772E+02  0.19351127259E+02  0.40659143593E+02  0.00000000000E+00 0. -1.
         11    1    4    4    0    0 -0.97394192244E+01  0.10743673988E+02 -0.13237564370E+02  0.19634559539E+02  0.51100000000E-03 0. -1.
        -11    1    4    4    0    0 -0.40022581695E+01  0.10864829395E+02 -0.69709786188E+01  0.13515070529E+02  0.51100000000E-03 0.  1.
         12    1    4    4    0    0  0.10284929772E+02  0.13982938389E+02  0.85741572965E+00  0.17379226339E+02  0.00000000000E+00 0. -1.
</event>
<event>
 8    1  0.1615837E-013  0.9118800E+02  0.7816164E-02  0.1184000E+00
        -11   -1    0    0    0    0  0.00000000000E+00  0.00000000000E+00  0.45593999997E+02  0.45594000000E+02  0.51100000000E-03 0. -1.
         11   -1    0    0    0    0 -0.00000000000E+00 -0.00000000000E+00 -0.45593999997E+02  0.45594000000E+02  0.51100000000E-03 0.  1.
         23    2    1    2    0    0  0.00000000000E+00  0.17763568394E-14  0.00000000000E+00  0.91188000000E+02  0.91188000000E+02 0.  0.
    9900012    2    3    3    0    0  0.34238328340E+02 -0.12748530886E+02  0.17843139546E+02  0.50528858394E+02  0.29999995575E+02 0.  0.
        -12    1    3    3    0    0 -0.34238328340E+02  0.12748530886E+02 -0.17843139546E+02  0.40659141606E+02  0.00000000000E+00 0.  1.
         11    1    4    4    0    0  0.93965467920E+01 -0.19767259085E+01  0.21933412499E+01  0.98495321225E+01  0.51100000000E-03 0. -1.
        -11    1    4    4    0    0  0.11866926981E+02  0.81336322806E+01  0.38563137536E+01  0.14894666363E+02  0.51100000000E-03 0.  1.
        -12    1    4    4    0    0  0.12974854567E+02 -0.18905437258E+02  0.11793484542E+02  0.25784659908E+02  0.00000000000E+00 0.  1.
</event>
<event>
 8    1  0.1615837E-013  0.9118800E+02  0.7816164E-02  0.1184000E+00
        -11   -1    0    0    0    0  0.00000000000E+00  0.00000000000E+00  0.45593999997E+02  0.45594000000E+02  0.51100000000E-03 0. -1.
         11   -1    0    0    0    0 -0.00000000000E+00 -0.00000000000E+00 -0.45593999997E+02  0.45594000000E+02  0.51100000000E-03 0.  1.
         23    2    1    2    0    0 -0.44408920985E-15  0.00000000000E+00  0.00000000000E+00  0.91188000000E+02  0.91188000000E+02 0.  0.
    9900012    2    3    3    0    0 -0.27713585550E+01 -0.20180138407E+02 -0.35188739162E+02  0.50528858615E+02  0.29999996247E+02 0.  0.
         12    1    3    3    0    0  0.27713585550E+01  0.20180138407E+02  0.35188739162E+02  0.40659141385E+02  0.00000000000E+00 0. -1.
         11    1    4    4    0    0 -0.50717491006E+00 -0.12836728787E+02 -0.32433001647E+02  0.34884644594E+02  0.51100000000E-03 0.  1.
        -11    1    4    4    0    0  0.45774923356E+01 -0.48590459335E+01 -0.46347843745E+01  0.81268068714E+01  0.51100000000E-03 0. -1.
         12    1    4    4    0    0 -0.68416759806E+01 -0.24843636864E+01  0.18790468601E+01  0.75174071495E+01  0.00000000000E+00 0. -1.
</event>
<event>
 8    1  0.1615837E-013  0.9118800E+02  0.7816164E-02  0.1184000E+00
        -11   -1    0    0    0    0  0.00000000000E+00  0.00000000000E+00  0.45593999997E+02  0.45594000000E+02  0.51100000000E-03 0. -1.
         11   -1    0    0    0    0 -0.00000000000E+00 -0.00000000000E+00 -0.45593999997E+02  0.45594000000E+02  0.51100000000E-03 0.  1.
         23    2    1    2    0    0 -0.35527136788E-14  0.00000000000E+00 -0.35527136788E-14  0.91188000000E+02  0.91188000000E+02 0.  0.
    9900012    2    3    3    0    0  0.25058395137E+02 -0.94456443938E+01  0.30594484190E+02  0.50528858005E+02  0.29999994393E+02 0.  0.
        -12    1    3    3    0    0 -0.25058395137E+02  0.94456443938E+01 -0.30594484190E+02  0.40659141995E+02  0.00000000000E+00 0.  1.
         11    1    4    4    0    0  0.99547655262E+01 -0.11438780908E+02  0.22086041616E+01  0.15323870201E+02  0.51100000000E-03 0. -1.
        -11    1    4    4    0    0 -0.58376126930E+00  0.40730182517E+01  0.23534937626E+01  0.47401675129E+01  0.51100000000E-03 0.  1.
         12    1    4    4    0    0  0.15687390881E+02 -0.20798817376E+01  0.26032386266E+02  0.30464820291E+02  0.00000000000E+00 0. -1.
</event>
<event>
 8    1  0.1615837E-013  0.9118800E+02  0.7816164E-02  0.1184000E+00
        -11   -1    0    0    0    0  0.00000000000E+00  0.00000000000E+00  0.45593999997E+02  0.45594000000E+02  0.51100000000E-03 0. -1.
         11   -1    0    0    0    0 -0.00000000000E+00 -0.00000000000E+00 -0.45593999997E+02  0.45594000000E+02  0.51100000000E-03 0.  1.
         23    2    1    2    0    0  0.00000000000E+00  0.00000000000E+00 -0.13322676296E-14  0.91188000000E+02  0.91188000000E+02 0.  0.
    9900012    2    3    3    0    0 -0.17644926367E+02  0.36559676416E+02 -0.22835521698E+01  0.50528831580E+02  0.29999914069E+02 0.  0.
         12    1    3    3    0    0  0.17644926367E+02 -0.36559676416E+02  0.22835521698E+01  0.40659168420E+02  0.00000000000E+00 0. -1.
         11    1    4    4    0    0  0.28928170441E+01  0.17180256824E+01 -0.10910113952E+01  0.35369914930E+01  0.51100000000E-03 0. -1.
        -11    1    4    4    0    0 -0.72318979450E+01  0.21519413550E+02  0.10303512217E+02  0.24930861832E+02  0.51100000000E-03 0.  1.
        -12    1    4    4    0    0 -0.13305845466E+02  0.13322237183E+02 -0.11496052992E+02  0.22060978254E+02  0.00000000000E+00 0.  1.
</event>
<event>
 8    1  0.1615837E-013  0.9118800E+02  0.7816164E-02  0.1184000E+00
        -11   -1    0    0    0    0  0.00000000000E+00  0.00000000000E+00  0.45593999997E+02  0.45594000000E+02  0.51100000000E-03 0. -1.
         11   -1    0    0    0    0 -0.00000000000E+00 -0.00000000000E+00 -0.45593999997E+02  0.45594000000E+02  0.51100000000E-03 0.  1.
         23    2    1    2    0    0  0.88817841970E-15 -0.35527136788E-14 -0.35527136788E-14  0.91188000000E+02  0.91188000000E+02 0.  0.
    9900012    2    3    3    0    0  0.75508452597E+01 -0.30850279934E+02 -0.25385225247E+02  0.50528871911E+02  0.30000036661E+02 0.  0.
         12    1    3    3    0    0 -0.75508452597E+01  0.30850279934E+02  0.25385225247E+02  0.40659128089E+02  0.00000000000E+00 0. -1.
         11    1    4    4    0    0  0.17192505946E+01 -0.58526987384E-01 -0.13448698289E+01  0.21835574490E+01  0.51100000000E-03 0. -1.
        -11    1    4    4    0    0  0.26638766500E+01 -0.44929199935E+01 -0.21049733607E+02  0.21688103976E+02  0.51100000000E-03 0.  1.
         12    1    4    4    0    0  0.31677180151E+01 -0.26298832953E+02 -0.29906218110E+01  0.26657210486E+02  0.00000000000E+00 0. -1.
</event>
<event>
 8    1  0.1615837E-013  0.9118800E+02  0.7816164E-02  0.1184000E+00
        -11   -1    0    0    0    0  0.00000000000E+00  0.00000000000E+00  0.45593999997E+02  0.45594000000E+02  0.51100000000E-03 0. -1.
         11   -1    0    0    0    0 -0.00000000000E+00 -0.00000000000E+00 -0.45593999997E+02  0.45594000000E+02  0.51100000000E-03 0.  1.
         23    2    1    2    0    0  0.00000000000E+00  0.00000000000E+00  0.00000000000E+00  0.91188000000E+02  0.91188000000E+02 0.  0.
    9900012    2    3    3    0    0  0.21741698326E+02  0.32445318080E+02 -0.11303324879E+02  0.50528864929E+02  0.30000015438E+02 0.  0.
         12    1    3    3    0    0 -0.21741698326E+02 -0.32445318080E+02  0.11303324879E+02  0.40659135071E+02  0.00000000000E+00 0. -1.
         11    1    4    4    0    0  0.29700687394E+00 -0.39813083694E+01 -0.17706670819E+01  0.43674124594E+01  0.51100000000E-03 0. -1.
        -11    1    4    4    0    0  0.94229616067E+01  0.15422488597E+02 -0.12212136871E+02  0.21812419563E+02  0.51100000000E-03 0.  1.
         12    1    4    4    0    0  0.12021729845E+02  0.21004137852E+02  0.26794790734E+01  0.24349032907E+02  0.00000000000E+00 0. -1.
</event>
<event>
 8    1  0.1615837E-013  0.9118800E+02  0.7816164E-02  0.1184000E+00
        -11   -1    0    0    0    0  0.00000000000E+00  0.00000000000E+00  0.45593999997E+02  0.45594000000E+02  0.51100000000E-03 0. -1.
         11   -1    0    0    0    0 -0.00000000000E+00 -0.00000000000E+00 -0.45593999997E+02  0.45594000000E+02  0.51100000000E-03 0.  1.
         23    2    1    2    0    0  0.22204460493E-15 -0.35527136788E-14 -0.71054273576E-14  0.91188000000E+02  0.91188000000E+02 0.  0.
    9900012    2    3    3    0    0  0.10281399427E+01  0.23833906009E+02  0.32924965171E+02  0.50528862295E+02  0.30000007431E+02 0.  0.
        -12    1    3    3    0    0 -0.10281399427E+01 -0.23833906009E+02 -0.32924965171E+02  0.40659137705E+02  0.00000000000E+00 0.  1.
         11    1    4    4    0    0  0.90332851812E+01  0.14547975463E+02  0.11598776989E+02  0.20682733357E+02  0.51100000000E-03 0. -1.
        -11    1    4    4    0    0 -0.74948497104E+01 -0.15498065148E+01  0.23812164104E+01  0.80152894065E+01  0.51100000000E-03 0.  1.
         12    1    4    4    0    0 -0.51029552799E+00  0.10835737062E+02  0.18944971772E+02  0.21830839531E+02  0.00000000000E+00 0. -1.
</event>
<event>
 8    1  0.1615837E-013  0.9118800E+02  0.7816164E-02  0.1184000E+00
        -11   -1    0    0    0    0  0.00000000000E+00  0.00000000000E+00  0.45593999997E+02  0.45594000000E+02  0.51100000000E-03 0. -1.
         11   -1    0    0    0    0 -0.00000000000E+00 -0.00000000000E+00 -0.45593999997E+02  0.45594000000E+02  0.51100000000E-03 0.  1.
         23    2    1    2    0    0  0.88817841970E-15  0.00000000000E+00  0.00000000000E+00  0.91188000000E+02  0.91188000000E+02 0.  0.
    9900012    2    3    3    0    0  0.40772576384E+01  0.24525903120E+01 -0.40379773373E+02  0.50528864167E+02  0.30000013121E+02 0.  0.
         12    1    3    3    0    0 -0.40772576384E+01 -0.24525903120E+01  0.40379773373E+02  0.40659135833E+02  0.00000000000E+00 0. -1.
         11    1    4    4    0    0 -0.31796765618E+01  0.29397886674E+01 -0.15106854634E+02  0.15715271479E+02  0.51100000000E-03 0. -1.
        -11    1    4    4    0    0 -0.77093279394E+01  0.22005203853E+01 -0.12998013246E+02  0.15271685429E+02  0.51100000000E-03 0.  1.
        -12    1    4    4    0    0  0.14966262140E+02 -0.26877187407E+01 -0.12274905493E+02  0.19541907259E+02  0.00000000000E+00 0.  1.
</event>
<event>
 8    1  0.1615837E-013  0.9118800E+02  0.7816164E-02  0.1184000E+00
        -11   -1    0    0    0    0  0.00000000000E+00  0.00000000000E+00  0.45593999997E+02  0.45594000000E+02  0.51100000000E-03 0. -1.
         11   -1    0    0    0    0 -0.00000000000E+00 -0.00000000000E+00 -0.45593999997E+02  0.45594000000E+02  0.51100000000E-03 0.  1.
         23    2    1    2    0    0  0.00000000000E+00  0.00000000000E+00  0.00000000000E+00  0.91188000000E+02  0.91188000000E+02 0.  0.
    9900012    2    3    3    0    0 -0.90800316767E+01 -0.80585613632E+01  0.38804360317E+02  0.50528858763E+02  0.29999996696E+02 0.  0.
        -12    1    3    3    0    0  0.90800316767E+01  0.80585613632E+01 -0.38804360317E+02  0.40659141237E+02  0.00000000000E+00 0.  1.
         11    1    4    4    0    0  0.62414832212E+01 -0.13099819829E+02  0.14388329022E+02  0.20434906525E+02  0.51100000000E-03 0.  1.
        -11    1    4    4    0    0  0.16303475219E+00  0.99669779081E+00  0.14339935027E+00  0.10200737480E+01  0.51100000000E-03 0. -1.
        -12    1    4    4    0    0 -0.15484549650E+02  0.40445606754E+01  0.24272631945E+02  0.29073878490E+02  0.00000000000E+00 0.  1.
</event>
<event>
 8    1  0.1694362E-013  0.9118800E+02  0.7816164E-02  0.1184000E+00
        -11   -1    0    0    0    0  0.00000000000E+00  0.00000000000E+00  0.45593999997E+02  0.45594000000E+02  0.51100000000E-03 0. -1.
         11   -1    0    0    0    0 -0.00000000000E+00 -0.00000000000E+00 -0.45593999997E+02  0.45594000000E+02  0.51100000000E-03 0.  1.
         23    2    1    2    0    0  0.00000000000E+00 -0.83266726847E-15  0.00000000000E+00  0.91188000000E+02  0.91188000000E+02 0.  0.
    9900012    2    3    3    0    0  0.17651656744E+02 -0.29992821173E+00  0.36626380791E+02  0.50528896314E+02  0.30000110836E+02 0.  0.
        -12    1    3    3    0    0 -0.17651656744E+02  0.29992821173E+00 -0.36626380791E+02  0.40659103686E+02  0.00000000000E+00 0.  1.
         11    1    4    4    0    0 -0.17796698566E+00  0.27875936402E+01  0.11364193228E+02  0.11702445835E+02  0.51100000000E-03 0. -1.
        -11    1    4    4    0    0  0.10595822965E+02  0.97886070556E+01  0.15200806794E+02  0.20955973369E+02  0.51100000000E-03 0.  1.
        -12    1    4    4    0    0  0.72338007642E+01 -0.12876128908E+02  0.10061380769E+02  0.17870477109E+02  0.00000000000E+00 0.  1.
</event>
<event>
 8    1  0.1615837E-013  0.9118800E+02  0.7816164E-02  0.1184000E+00
        -11   -1    0    0    0    0  0.00000000000E+00  0.00000000000E+00  0.45593999997E+02  0.45594000000E+02  0.51100000000E-03 0. -1.
         11   -1    0    0    0    0 -0.00000000000E+00 -0.00000000000E+00 -0.45593999997E+02  0.45594000000E+02  0.51100000000E-03 0.  1.
         23    2    1    2    0    0 -0.71054273576E-14  0.13322676296E-14  0.00000000000E+00  0.91188000000E+02  0.91188000000E+02 0.  0.
    9900012    2    3    3    0    0  0.35967703425E+02  0.19021486920E+01 -0.18864462112E+02  0.50528907658E+02  0.30000145317E+02 0.  0.
         12    1    3    3    0    0 -0.35967703425E+02 -0.19021486920E+01  0.18864462112E+02  0.40659092342E+02  0.00000000000E+00 0. -1.
         11    1    4    4    0    0  0.11153604452E+01  0.16852373357E+01 -0.48409456456E+00  0.20780764204E+01  0.51100000000E-03 0. -1.
        -11    1    4    4    0    0  0.28417129966E+01  0.10567961007E+02 -0.23893353563E+01  0.11201163168E+02  0.51100000000E-03 0.  1.
         12    1    4    4    0    0  0.32010629983E+02 -0.10351049651E+02 -0.15991032191E+02  0.37249668070E+02  0.00000000000E+00 0. -1.
</event>
<event>
 8    1  0.1615837E-013  0.9118800E+02  0.7816164E-02  0.1184000E+00
        -11   -1    0    0    0    0  0.00000000000E+00  0.00000000000E+00  0.45593999997E+02  0.45594000000E+02  0.51100000000E-03 0.  1.
         11   -1    0    0    0    0 -0.00000000000E+00 -0.00000000000E+00 -0.45593999997E+02  0.45594000000E+02  0.51100000000E-03 0. -1.
         23    2    1    2    0    0  0.00000000000E+00 -0.88817841970E-15  0.13322676296E-14  0.91188000000E+02  0.91188000000E+02 0.  0.
    9900012    2    3    3    0    0 -0.40380857429E+02 -0.43039595299E+01  0.20070063181E+01  0.50528858485E+02  0.29999995852E+02 0.  0.
        -12    1    3    3    0    0  0.40380857429E+02  0.43039595299E+01 -0.20070063181E+01  0.40659141515E+02  0.00000000000E+00 0.  1.
         11    1    4    4    0    0 -0.87733593431E+01 -0.52199676530E+01 -0.86647725170E+01  0.13390227014E+02  0.51100000000E-03 0. -1.
        -11    1    4    4    0    0 -0.16853633486E+01 -0.28265692924E+01 -0.25979990587E+01  0.41927965550E+01  0.51100000000E-03 0.  1.
        -12    1    4    4    0    0 -0.29922134738E+02  0.37425774154E+01  0.13269777894E+02  0.32945834916E+02  0.00000000000E+00 0.  1.
</event>
<event>
 8    1  0.1615837E-013  0.9118800E+02  0.7816164E-02  0.1184000E+00
        -11   -1    0    0    0    0  0.00000000000E+00  0.00000000000E+00  0.45593999997E+02  0.45594000000E+02  0.51100000000E-03 0. -1.
         11   -1    0    0    0    0 -0.00000000000E+00 -0.00000000000E+00 -0.45593999997E+02  0.45594000000E+02  0.51100000000E-03 0.  1.
         23    2    1    2    0    0  0.17763568394E-14 -0.13322676296E-14  0.00000000000E+00  0.91188000000E+02  0.91188000000E+02 0.  0.
    9900012    2    3    3    0    0 -0.15020524912E+02  0.20781155643E+01 -0.37725725106E+02  0.50528867352E+02  0.30000022804E+02 0.  0.
         12    1    3    3    0    0  0.15020524912E+02 -0.20781155643E+01  0.37725725106E+02  0.40659132648E+02  0.00000000000E+00 0. -1.
         11    1    4    4    0    0 -0.52280951984E+01  0.11583905702E+02 -0.79009991290E+01  0.14964813337E+02  0.51100000000E-03 0. -1.
        -11    1    4    4    0    0  0.45556286561E+00  0.26408652478E+01 -0.88611022516E+01  0.92574748261E+01  0.51100000000E-03 0.  1.
         12    1    4    4    0    0 -0.10247992579E+02 -0.12146655385E+02 -0.20963623725E+02  0.26306579189E+02  0.00000000000E+00 0. -1.
</event>
<event>
 8    1  0.1615837E-013  0.9118800E+02  0.7816164E-02  0.1184000E+00
        -11   -1    0    0    0    0  0.00000000000E+00  0.00000000000E+00  0.45593999997E+02  0.45594000000E+02  0.51100000000E-03 0. -1.
         11   -1    0    0    0    0 -0.00000000000E+00 -0.00000000000E+00 -0.45593999997E+02  0.45594000000E+02  0.51100000000E-03 0.  1.
         23    2    1    2    0    0  0.00000000000E+00 -0.35527136788E-14  0.00000000000E+00  0.91188000000E+02  0.91188000000E+02 0.  0.
    9900012    2    3    3    0    0  0.20885532492E+02  0.20727991308E+02 -0.28059056816E+02  0.50528858831E+02  0.29999996904E+02 0.  0.
         12    1    3    3    0    0 -0.20885532492E+02 -0.20727991308E+02  0.28059056816E+02  0.40659141169E+02  0.00000000000E+00 0. -1.
         11    1    4    4    0    0 -0.38809700554E+01  0.24189373542E+00 -0.71688995614E+01  0.81555847327E+01  0.51100000000E-03 0. -1.
        -11    1    4    4    0    0  0.93401861091E+01  0.72878470519E+01 -0.18448886028E+02  0.21925172454E+02  0.51100000000E-03 0.  1.
         12    1    4    4    0    0  0.15426316439E+02  0.13198250521E+02 -0.24412712269E+01  0.20448101645E+02  0.00000000000E+00 0. -1.
</event>
<event>
 8    1  0.1615837E-013  0.9118800E+02  0.7816164E-02  0.1184000E+00
        -11   -1    0    0    0    0  0.00000000000E+00  0.00000000000E+00  0.45593999997E+02  0.45594000000E+02  0.51100000000E-03 0. -1.
         11   -1    0    0    0    0 -0.00000000000E+00 -0.00000000000E+00 -0.45593999997E+02  0.45594000000E+02  0.51100000000E-03 0.  1.
         23    2    1    2    0    0  0.35527136788E-14 -0.35527136788E-14  0.00000000000E+00  0.91188000000E+02  0.91188000000E+02 0.  0.
    9900012    2    3    3    0    0 -0.25535779490E+02 -0.29992787540E+02 -0.10075801324E+02  0.50528866821E+02  0.30000021188E+02 0.  0.
         12    1    3    3    0    0  0.25535779490E+02  0.29992787540E+02  0.10075801324E+02  0.40659133179E+02  0.00000000000E+00 0. -1.
         11    1    4    4    0    0 -0.92746448669E+01 -0.64440639985E+01  0.86777228500E+01  0.14242467214E+02  0.51100000000E-03 0.  1.
        -11    1    4    4    0    0 -0.76399086070E+01 -0.12960838749E+02 -0.28270648650E+01  0.15308293197E+02  0.51100000000E-03 0. -1.
        -12    1    4    4    0    0 -0.86212260162E+01 -0.10587884793E+02 -0.15926459309E+02  0.20978106409E+02  0.00000000000E+00 0.  1.
</event>
<event>
 8    1  0.1615837E-013  0.9118800E+02  0.7816164E-02  0.1184000E+00
        -11   -1    0    0    0    0  0.00000000000E+00  0.00000000000E+00  0.45593999997E+02  0.45594000000E+02  0.51100000000E-03 0. -1.
         11   -1    0    0    0    0 -0.00000000000E+00 -0.00000000000E+00 -0.45593999997E+02  0.45594000000E+02  0.51100000000E-03 0.  1.
         23    2    1    2    0    0 -0.17763568394E-14 -0.88817841970E-15 -0.71054273576E-14  0.91188000000E+02  0.91188000000E+02 0.  0.
    9900012    2    3    3    0    0 -0.14319416681E+02 -0.64252252266E+01 -0.37507816191E+02  0.50528862174E+02  0.30000007065E+02 0.  0.
         12    1    3    3    0    0  0.14319416681E+02  0.64252252266E+01  0.37507816191E+02  0.40659137826E+02  0.00000000000E+00 0. -1.
         11    1    4    4    0    0 -0.13882104858E+01  0.22510594893E+01 -0.92267959087E+01  0.95983415327E+01  0.51100000000E-03 0. -1.
        -11    1    4    4    0    0 -0.16531313677E+02 -0.12403494515E+02 -0.29091672132E+02  0.35685520814E+02  0.51100000000E-03 0.  1.
         12    1    4    4    0    0  0.36001074816E+01  0.37272097989E+01  0.81065185015E+00  0.52449998271E+01  0.00000000000E+00 0. -1.
</event>
<event>
 8    1  0.1615837E-013  0.9118800E+02  0.7816164E-02  0.1184000E+00
        -11   -1    0    0    0    0  0.00000000000E+00  0.00000000000E+00  0.45593999997E+02  0.45594000000E+02  0.51100000000E-03 0. -1.
         11   -1    0    0    0    0 -0.00000000000E+00 -0.00000000000E+00 -0.45593999997E+02  0.45594000000E+02  0.51100000000E-03 0.  1.
         23    2    1    2    0    0  0.00000000000E+00  0.00000000000E+00  0.00000000000E+00  0.91188000000E+02  0.91188000000E+02 0.  0.
    9900012    2    3    3    0    0 -0.25465488836E+02  0.23226446200E+02  0.21568650571E+02  0.50528860656E+02  0.30000002449E+02 0.  0.
        -12    1    3    3    0    0  0.25465488836E+02 -0.23226446200E+02 -0.21568650571E+02  0.40659139344E+02  0.00000000000E+00 0.  1.
         11    1    4    4    0    0  0.15034532671E+01 -0.27335232424E+01 -0.25764496545E+00  0.31303198291E+01  0.51100000000E-03 0.  1.
        -11    1    4    4    0    0 -0.10878720277E+02  0.17998755424E+02  0.27609049507E+01  0.21211420228E+02  0.51100000000E-03 0. -1.
        -12    1    4    4    0    0 -0.16090221826E+02  0.79612140191E+01  0.19065390586E+02  0.26187120599E+02  0.00000000000E+00 0.  1.
</event>
<event>
 8    1  0.1615837E-013  0.9118800E+02  0.7816164E-02  0.1184000E+00
        -11   -1    0    0    0    0  0.00000000000E+00  0.00000000000E+00  0.45593999997E+02  0.45594000000E+02  0.51100000000E-03 0. -1.
         11   -1    0    0    0    0 -0.00000000000E+00 -0.00000000000E+00 -0.45593999997E+02  0.45594000000E+02  0.51100000000E-03 0.  1.
         23    2    1    2    0    0  0.00000000000E+00 -0.71054273576E-14  0.35527136788E-14  0.91188000000E+02  0.91188000000E+02 0.  0.
    9900012    2    3    3    0    0  0.10955087993E+02 -0.33996359213E+02  0.19426742437E+02  0.50528871697E+02  0.30000036009E+02 0.  0.
        -12    1    3    3    0    0 -0.10955087993E+02  0.33996359213E+02 -0.19426742437E+02  0.40659128303E+02  0.00000000000E+00 0.  1.
         11    1    4    4    0    0  0.61120441586E+01 -0.14374417010E+02  0.15623028471E+01  0.15697825920E+02  0.51100000000E-03 0. -1.
        -11    1    4    4    0    0  0.12429830797E+02 -0.53358613494E+01  0.61504758687E+01  0.14859356098E+02  0.51100000000E-03 0.  1.
         12    1    4    4    0    0 -0.75867869617E+01 -0.14286080853E+02  0.11713963722E+02  0.19971689679E+02  0.00000000000E+00 0. -1.
</event>
<event>
 8    1  0.1615837E-013  0.9118800E+02  0.7816164E-02  0.1184000E+00
        -11   -1    0    0    0    0  0.00000000000E+00  0.00000000000E+00  0.45593999997E+02  0.45594000000E+02  0.51100000000E-03 0. -1.
         11   -1    0    0    0    0 -0.00000000000E+00 -0.00000000000E+00 -0.45593999997E+02  0.45594000000E+02  0.51100000000E-03 0.  1.
         23    2    1    2    0    0  0.00000000000E+00  0.00000000000E+00  0.00000000000E+00  0.91188000000E+02  0.91188000000E+02 0.  0.
    9900012    2    3    3    0    0 -0.22995592693E+02 -0.17456541730E+02  0.28629317891E+02  0.50528856190E+02  0.29999988875E+02 0.  0.
        -12    1    3    3    0    0  0.22995592693E+02  0.17456541730E+02 -0.28629317891E+02  0.40659143810E+02  0.00000000000E+00 0.  1.
         11    1    4    4    0    0 -0.14070274422E+01 -0.13614361311E+02  0.12216696184E+02  0.18346068408E+02  0.51100000000E-03 0. -1.
        -11    1    4    4    0    0 -0.32302369245E+01  0.24303462226E+01 -0.27697534163E+01  0.49002599521E+01  0.51100000000E-03 0.  1.
         12    1    4    4    0    0 -0.18358328326E+02 -0.62725266415E+01  0.19182375124E+02  0.27282527830E+02  0.00000000000E+00 0. -1.
</event>
<event>
 8    1  0.1615837E-013  0.9118800E+02  0.7816164E-02  0.1184000E+00
        -11   -1    0    0    0    0  0.00000000000E+00  0.00000000000E+00  0.45593999997E+02  0.45594000000E+02  0.51100000000E-03 0. -1.
         11   -1    0    0    0    0 -0.00000000000E+00 -0.00000000000E+00 -0.45593999997E+02  0.45594000000E+02  0.51100000000E-03 0.  1.
         23    2    1    2    0    0  0.00000000000E+00  0.24424906542E-14  0.00000000000E+00  0.91188000000E+02  0.91188000000E+02 0.  0.
    9900012    2    3    3    0    0  0.18701421366E+02 -0.11366969943E+01  0.36085041069E+02  0.50528862895E+02  0.30000009256E+02 0.  0.
        -12    1    3    3    0    0 -0.18701421366E+02  0.11366969943E+01 -0.36085041069E+02  0.40659137105E+02  0.00000000000E+00 0.  1.
         11    1    4    4    0    0 -0.28585161017E+01 -0.88556732660E+01  0.83741625235E+01  0.12518812305E+02  0.51100000000E-03 0. -1.
        -11    1    4    4    0    0  0.66497152435E+01 -0.18842025279E+01  0.28603916754E+01  0.74800249186E+01  0.51100000000E-03 0.  1.
         12    1    4    4    0    0  0.14910222224E+02  0.96031787996E+01  0.24850486870E+02  0.30530025672E+02  0.00000000000E+00 0. -1.
</event>
<event>
 8    1  0.1615837E-013  0.9118800E+02  0.7816164E-02  0.1184000E+00
        -11   -1    0    0    0    0  0.00000000000E+00  0.00000000000E+00  0.45593999997E+02  0.45594000000E+02  0.51100000000E-03 0. -1.
         11   -1    0    0    0    0 -0.00000000000E+00 -0.00000000000E+00 -0.45593999997E+02  0.45594000000E+02  0.51100000000E-03 0.  1.
         23    2    1    2    0    0 -0.35527136788E-14 -0.35527136788E-14  0.00000000000E+00  0.91188000000E+02  0.91188000000E+02 0.  0.
    9900012    2    3    3    0    0  0.14371464559E+02  0.16374343839E+02 -0.34329390639E+02  0.50528865831E+02  0.30000018180E+02 0.  0.
         12    1    3    3    0    0 -0.14371464559E+02 -0.16374343839E+02  0.34329390639E+02  0.40659134169E+02  0.00000000000E+00 0. -1.
         11    1    4    4    0    0  0.22095762419E+01  0.48858603093E+01 -0.46447636275E+01  0.70942009802E+01  0.51100000000E-03 0. -1.
        -11    1    4    4    0    0  0.10480755218E+02  0.13717945637E+02 -0.34093987072E+02  0.38215549416E+02  0.51100000000E-03 0.  1.
        -12    1    4    4    0    0  0.16811330991E+01 -0.22294621071E+01  0.44093600604E+01  0.52191154352E+01  0.00000000000E+00 0.  1.
</event>
<event>
 8    1  0.1615837E-013  0.9118800E+02  0.7816164E-02  0.1184000E+00
        -11   -1    0    0    0    0  0.00000000000E+00  0.00000000000E+00  0.45593999997E+02  0.45594000000E+02  0.51100000000E-03 0. -1.
         11   -1    0    0    0    0 -0.00000000000E+00 -0.00000000000E+00 -0.45593999997E+02  0.45594000000E+02  0.51100000000E-03 0.  1.
         23    2    1    2    0    0 -0.71054273576E-14 -0.88817841970E-15  0.35527136788E-14  0.91188000000E+02  0.91188000000E+02 0.  0.
    9900012    2    3    3    0    0  0.34243728230E+02 -0.36293434365E+01 -0.21618528909E+02  0.50528857743E+02  0.29999993596E+02 0.  0.
         12    1    3    3    0    0 -0.34243728230E+02  0.36293434365E+01  0.21618528909E+02  0.40659142257E+02  0.00000000000E+00 0. -1.
         11    1    4    4    0    0  0.10305186961E+02 -0.76952601527E+01 -0.15557686705E+02  0.20185527563E+02  0.51100000000E-03 0. -1.
        -11    1    4    4    0    0  0.10927154117E+02 -0.40755848551E+01 -0.89805284893E+01  0.14719476255E+02  0.51100000000E-03 0.  1.
         12    1    4    4    0    0  0.13011387153E+02  0.81415015714E+01  0.29196862860E+01  0.15623853926E+02  0.00000000000E+00 0. -1.
</event>
<event>
 8    1  0.1615837E-013  0.9118800E+02  0.7816164E-02  0.1184000E+00
        -11   -1    0    0    0    0  0.00000000000E+00  0.00000000000E+00  0.45593999997E+02  0.45594000000E+02  0.51100000000E-03 0. -1.
         11   -1    0    0    0    0 -0.00000000000E+00 -0.00000000000E+00 -0.45593999997E+02  0.45594000000E+02  0.51100000000E-03 0.  1.
         23    2    1    2    0    0  0.00000000000E+00 -0.88817841970E-15  0.71054273576E-14  0.91188000000E+02  0.91188000000E+02 0.  0.
    9900012    2    3    3    0    0  0.66991924591E+01 -0.63510575340E+01  0.39597355809E+02  0.50528859595E+02  0.29999999226E+02 0.  0.
        -12    1    3    3    0    0 -0.66991924591E+01  0.63510575340E+01 -0.39597355809E+02  0.40659140405E+02  0.00000000000E+00 0.  1.
         11    1    4    4    0    0  0.13192606001E+02 -0.87794242043E+01  0.12156410730E+02  0.19972517732E+02  0.51100000000E-03 0. -1.
        -11    1    4    4    0    0  0.28444002734E+01  0.15443182806E+01  0.31458192784E+01  0.45135031916E+01  0.51100000000E-03 0.  1.
        -12    1    4    4    0    0 -0.93378138155E+01  0.88404838969E+00  0.24295125801E+02  0.26042838672E+02  0.00000000000E+00 0.  1.
</event>
<event>
 8    1  0.1615837E-013  0.9118800E+02  0.7816164E-02  0.1184000E+00
        -11   -1    0    0    0    0  0.00000000000E+00  0.00000000000E+00  0.45593999997E+02  0.45594000000E+02  0.51100000000E-03 0. -1.
         11   -1    0    0    0    0 -0.00000000000E+00 -0.00000000000E+00 -0.45593999997E+02  0.45594000000E+02  0.51100000000E-03 0.  1.
         23    2    1    2    0    0  0.00000000000E+00 -0.17763568394E-14  0.00000000000E+00  0.91188000000E+02  0.91188000000E+02 0.  0.
    9900012    2    3    3    0    0 -0.14512723604E+02  0.11175474218E+02 -0.36299518123E+02  0.50528863433E+02  0.30000010891E+02 0.  0.
         12    1    3    3    0    0  0.14512723604E+02 -0.11175474218E+02  0.36299518123E+02  0.40659136567E+02  0.00000000000E+00 0. -1.
         11    1    4    4    0    0 -0.23851687380E+01  0.22966770309E+01 -0.33359821205E+02  0.33523744218E+02  0.51100000000E-03 0.  1.
        -11    1    4    4    0    0 -0.24913227382E+01  0.53204022841E+01  0.10820716660E+01  0.59736294497E+01  0.51100000000E-03 0. -1.
        -12    1    4    4    0    0 -0.96362321274E+01  0.35583949034E+01 -0.40217685843E+01  0.11031489766E+02  0.00000000000E+00 0.  1.
</event>
<event>
 8    1  0.1615837E-013  0.9118800E+02  0.7816164E-02  0.1184000E+00
        -11   -1    0    0    0    0  0.00000000000E+00  0.00000000000E+00  0.45593999997E+02  0.45594000000E+02  0.51100000000E-03 0. -1.
         11   -1    0    0    0    0 -0.00000000000E+00 -0.00000000000E+00 -0.45593999997E+02  0.45594000000E+02  0.51100000000E-03 0.  1.
         23    2    1    2    0    0  0.00000000000E+00  0.35527136788E-14  0.00000000000E+00  0.91188000000E+02  0.91188000000E+02 0.  0.
    9900012    2    3    3    0    0 -0.23874016219E+02 -0.15856154079E+02 -0.28840589656E+02  0.50528857310E+02  0.29999992278E+02 0.  0.
         12    1    3    3    0    0  0.23874016219E+02  0.15856154079E+02  0.28840589656E+02  0.40659142690E+02  0.00000000000E+00 0. -1.
         11    1    4    4    0    0  0.12126729588E+01 -0.34708534266E+01 -0.19328925590E+00  0.36816789936E+01  0.51100000000E-03 0. -1.
        -11    1    4    4    0    0 -0.53028526833E+01 -0.13051435231E+02 -0.21693303774E+02  0.25866187139E+02  0.51100000000E-03 0.  1.
         12    1    4    4    0    0 -0.19783836494E+02  0.66613457871E+00 -0.69539966260E+01  0.20980991177E+02  0.00000000000E+00 0. -1.
</event>
<event>
 8    1  0.1615837E-013  0.9118800E+02  0.7816164E-02  0.1184000E+00
        -11   -1    0    0    0    0  0.00000000000E+00  0.00000000000E+00  0.45593999997E+02  0.45594000000E+02  0.51100000000E-03 0. -1.
         11   -1    0    0    0    0 -0.00000000000E+00 -0.00000000000E+00 -0.45593999997E+02  0.45594000000E+02  0.51100000000E-03 0.  1.
         23    2    1    2    0    0  0.00000000000E+00 -0.35527136788E-14 -0.35527136788E-14  0.91188000000E+02  0.91188000000E+02 0.  0.
    9900012    2    3    3    0    0  0.19603679940E+02 -0.21910102084E+02 -0.28085743021E+02  0.50528858327E+02  0.29999995370E+02 0.  0.
         12    1    3    3    0    0 -0.19603679940E+02  0.21910102084E+02  0.28085743021E+02  0.40659141673E+02  0.00000000000E+00 0. -1.
         11    1    4    4    0    0  0.68295305253E+01 -0.13679641205E+02  0.75086111711E+00  0.15308130630E+02  0.51100000000E-03 0. -1.
        -11    1    4    4    0    0  0.26646766028E+01 -0.96194271349E+01 -0.15315681956E+02  0.18281247054E+02  0.51100000000E-03 0.  1.
        -12    1    4    4    0    0  0.10109472812E+02  0.13889662558E+01 -0.13520922183E+02  0.16939480643E+02  0.00000000000E+00 0.  1.
</event>
<event>
 8    1  0.1615837E-013  0.9118800E+02  0.7816164E-02  0.1184000E+00
        -11   -1    0    0    0    0  0.00000000000E+00  0.00000000000E+00  0.45593999997E+02  0.45594000000E+02  0.51100000000E-03 0. -1.
         11   -1    0    0    0    0 -0.00000000000E+00 -0.00000000000E+00 -0.45593999997E+02  0.45594000000E+02  0.51100000000E-03 0.  1.
         23    2    1    2    0    0  0.17763568394E-14  0.00000000000E+00 -0.71054273576E-14  0.91188000000E+02  0.91188000000E+02 0.  0.
    9900012    2    3    3    0    0  0.12435318328E+02 -0.77698599411E+01  0.37923050533E+02  0.50528860472E+02  0.30000001892E+02 0.  0.
        -12    1    3    3    0    0 -0.12435318328E+02  0.77698599411E+01 -0.37923050533E+02  0.40659139528E+02  0.00000000000E+00 0.  1.
         11    1    4    4    0    0  0.76358373379E+01  0.27548774839E+01  0.18522413337E+02  0.20223134225E+02  0.51100000000E-03 0. -1.
        -11    1    4    4    0    0  0.10311830033E+01 -0.13867259540E+01 -0.42957990468E+01  0.46303603498E+01  0.51100000000E-03 0.  1.
         12    1    4    4    0    0  0.37682979865E+01 -0.91380114710E+01  0.23696436242E+02  0.25675365897E+02  0.00000000000E+00 0. -1.
</event>
<event>
 8    1  0.1615837E-013  0.9118800E+02  0.7816164E-02  0.1184000E+00
        -11   -1    0    0    0    0  0.00000000000E+00  0.00000000000E+00  0.45593999997E+02  0.45594000000E+02  0.51100000000E-03 0. -1.
         11   -1    0    0    0    0 -0.00000000000E+00 -0.00000000000E+00 -0.45593999997E+02  0.45594000000E+02  0.51100000000E-03 0.  1.
         23    2    1    2    0    0  0.00000000000E+00  0.17763568394E-14  0.35527136788E-14  0.91188000000E+02  0.91188000000E+02 0.  0.
    9900012    2    3    3    0    0  0.25194062275E+02  0.15637146389E+02  0.27819133558E+02  0.50528864335E+02  0.30000013633E+02 0.  0.
        -12    1    3    3    0    0 -0.25194062275E+02 -0.15637146389E+02 -0.27819133558E+02  0.40659135665E+02  0.00000000000E+00 0.  1.
         11    1    4    4    0    0  0.35171440904E+01 -0.26536577869E+01 -0.33704336146E+00  0.44188008205E+01  0.51100000000E-03 0. -1.
        -11    1    4    4    0    0  0.43953895429E+01  0.42753790293E+01 -0.37679396398E+01  0.71969218745E+01  0.51100000000E-03 0.  1.
        -12    1    4    4    0    0  0.17281528642E+02  0.14015425146E+02  0.31924116559E+02  0.38913141640E+02  0.00000000000E+00 0.  1.
</event>
<event>
 8    1  0.1615837E-013  0.9118800E+02  0.7816164E-02  0.1184000E+00
        -11   -1    0    0    0    0  0.00000000000E+00  0.00000000000E+00  0.45593999997E+02  0.45594000000E+02  0.51100000000E-03 0.  1.
         11   -1    0    0    0    0 -0.00000000000E+00 -0.00000000000E+00 -0.45593999997E+02  0.45594000000E+02  0.51100000000E-03 0. -1.
         23    2    1    2    0    0 -0.35527136788E-14  0.00000000000E+00  0.13322676296E-14  0.91188000000E+02  0.91188000000E+02 0.  0.
    9900012    2    3    3    0    0 -0.22872358672E+02  0.33604682418E+02 -0.86393117890E+00  0.50528857747E+02  0.29999993609E+02 0.  0.
        -12    1    3    3    0    0  0.22872358672E+02 -0.33604682418E+02  0.86393117890E+00  0.40659142253E+02  0.00000000000E+00 0.  1.
         11    1    4    4    0    0 -0.12072108832E+02  0.23120625358E+01 -0.14360767773E+01  0.12375126730E+02  0.51100000000E-03 0. -1.
        -11    1    4    4    0    0 -0.55081456552E+01  0.35185303858E+01 -0.62771786299E+01  0.90621573837E+01  0.51100000000E-03 0.  1.
         12    1    4    4    0    0 -0.52921041847E+01  0.27774089497E+02  0.68493242283E+01  0.29091573633E+02  0.00000000000E+00 0. -1.
</event>
<event>
 8    1  0.1615837E-013  0.9118800E+02  0.7816164E-02  0.1184000E+00
        -11   -1    0    0    0    0  0.00000000000E+00  0.00000000000E+00  0.45593999997E+02  0.45594000000E+02  0.51100000000E-03 0. -1.
         11   -1    0    0    0    0 -0.00000000000E+00 -0.00000000000E+00 -0.45593999997E+02  0.45594000000E+02  0.51100000000E-03 0.  1.
         23    2    1    2    0    0  0.44408920985E-15  0.00000000000E+00  0.00000000000E+00  0.91188000000E+02  0.91188000000E+02 0.  0.
    9900012    2    3    3    0    0  0.26618862087E+01  0.78309775954E+01 -0.39808995618E+02  0.50528856128E+02  0.29999988687E+02 0.  0.
         12    1    3    3    0    0 -0.26618862087E+01 -0.78309775954E+01  0.39808995618E+02  0.40659143872E+02  0.00000000000E+00 0. -1.
         11    1    4    4    0    0  0.35862160511E+01 -0.48067435512E+01 -0.22170088813E+01  0.63938140240E+01  0.51100000000E-03 0. -1.
        -11    1    4    4    0    0  0.12576485653E+00  0.67750505430E+01 -0.75326759662E+00  0.68179570981E+01  0.51100000000E-03 0.  1.
        -12    1    4    4    0    0 -0.10500946989E+01  0.58626706037E+01 -0.36838719140E+02  0.37317085006E+02  0.00000000000E+00 0.  1.
</event>
<event>
 8    1  0.1615837E-013  0.9118800E+02  0.7816164E-02  0.1184000E+00
        -11   -1    0    0    0    0  0.00000000000E+00  0.00000000000E+00  0.45593999997E+02  0.45594000000E+02  0.51100000000E-03 0. -1.
         11   -1    0    0    0    0 -0.00000000000E+00 -0.00000000000E+00 -0.45593999997E+02  0.45594000000E+02  0.51100000000E-03 0.  1.
         23    2    1    2    0    0  0.00000000000E+00 -0.88817841970E-15  0.35527136788E-14  0.91188000000E+02  0.91188000000E+02 0.  0.
    9900012    2    3    3    0    0  0.24591032108E+02  0.63401499106E+01 -0.31752958080E+02  0.50528847182E+02  0.29999961494E+02 0.  0.
         12    1    3    3    0    0 -0.24591032108E+02 -0.63401499106E+01  0.31752958080E+02  0.40659152818E+02  0.00000000000E+00 0. -1.
         11    1    4    4    0    0  0.19111003396E+02  0.15533221364E+01 -0.11871404424E+02  0.22551574307E+02  0.51100000000E-03 0. -1.
        -11    1    4    4    0    0  0.65554711501E+01  0.64577235851E+00 -0.22168157492E+02  0.23126141719E+02  0.51100000000E-03 0.  1.
         12    1    4    4    0    0 -0.10754424378E+01  0.41410554157E+01  0.22866038356E+01  0.48511311561E+01  0.00000000000E+00 0. -1.
</event>
<event>
 8    1  0.1615837E-013  0.9118800E+02  0.7816164E-02  0.1184000E+00
        -11   -1    0    0    0    0  0.00000000000E+00  0.00000000000E+00  0.45593999997E+02  0.45594000000E+02  0.51100000000E-03 0. -1.
         11   -1    0    0    0    0 -0.00000000000E+00 -0.00000000000E+00 -0.45593999997E+02  0.45594000000E+02  0.51100000000E-03 0.  1.
         23    2    1    2    0    0  0.17763568394E-14  0.35527136788E-14 -0.35527136788E-14  0.91188000000E+02  0.91188000000E+02 0.  0.
    9900012    2    3    3    0    0  0.88760937125E+01  0.28111651763E+02 -0.28002064702E+02  0.50528860412E+02  0.30000001709E+02 0.  0.
         12    1    3    3    0    0 -0.88760937125E+01 -0.28111651763E+02  0.28002064702E+02  0.40659139588E+02  0.00000000000E+00 0. -1.
         11    1    4    4    0    0 -0.29072203649E+01  0.43999756918E+01 -0.29652200624E+01  0.60501443469E+01  0.51100000000E-03 0. -1.
        -11    1    4    4    0    0  0.15944866238E+02  0.26486178103E+02 -0.17774768409E+02  0.35660885885E+02  0.51100000000E-03 0.  1.
         12    1    4    4    0    0 -0.41615521607E+01 -0.27745020314E+01 -0.72620762307E+01  0.88178301803E+01  0.00000000000E+00 0. -1.
</event>
<event>
 8    1  0.1615837E-013  0.9118800E+02  0.7816164E-02  0.1184000E+00
        -11   -1    0    0    0    0  0.00000000000E+00  0.00000000000E+00  0.45593999997E+02  0.45594000000E+02  0.51100000000E-03 0. -1.
         11   -1    0    0    0    0 -0.00000000000E+00 -0.00000000000E+00 -0.45593999997E+02  0.45594000000E+02  0.51100000000E-03 0.  1.
         23    2    1    2    0    0  0.00000000000E+00  0.00000000000E+00 -0.35527136788E-14  0.91188000000E+02  0.91188000000E+02 0.  0.
    9900012    2    3    3    0    0 -0.96568620559E+01  0.32185723116E+02  0.22890829617E+02  0.50528857881E+02  0.29999994016E+02 0.  0.
        -12    1    3    3    0    0  0.96568620559E+01 -0.32185723116E+02 -0.22890829617E+02  0.40659142119E+02  0.00000000000E+00 0.  1.
         11    1    4    4    0    0 -0.56023035394E+01  0.12508844627E+02  0.77129051280E+01  0.15727234487E+02  0.51100000000E-03 0. -1.
        -11    1    4    4    0    0 -0.47712432181E+01  0.23933674698E+02  0.17375049941E+02  0.29957935628E+02  0.51100000000E-03 0.  1.
        -12    1    4    4    0    0  0.71668470156E+00 -0.42567962089E+01 -0.21971254513E+01  0.48436877660E+01  0.00000000000E+00 0.  1.
</event>
<event>
 8    1  0.1615837E-013  0.9118800E+02  0.7816164E-02  0.1184000E+00
        -11   -1    0    0    0    0  0.00000000000E+00  0.00000000000E+00  0.45593999997E+02  0.45594000000E+02  0.51100000000E-03 0. -1.
         11   -1    0    0    0    0 -0.00000000000E+00 -0.00000000000E+00 -0.45593999997E+02  0.45594000000E+02  0.51100000000E-03 0.  1.
         23    2    1    2    0    0  0.00000000000E+00  0.00000000000E+00 -0.13322676296E-14  0.91188000000E+02  0.91188000000E+02 0.  0.
    9900012    2    3    3    0    0 -0.20371145290E+02 -0.35045682605E+02 -0.31598837752E+01  0.50528827663E+02  0.29999902164E+02 0.  0.
        -12    1    3    3    0    0  0.20371145290E+02  0.35045682605E+02  0.31598837752E+01  0.40659172337E+02  0.00000000000E+00 0.  1.
         11    1    4    4    0    0 -0.16752607134E+01 -0.62497759935E+00 -0.46134582521E+01  0.49478371803E+01  0.51100000000E-03 0.  1.
        -11    1    4    4    0    0 -0.82500986382E+01 -0.17980148195E+02 -0.10829889120E+02  0.22552967771E+02  0.51100000000E-03 0. -1.
         12    1    4    4    0    0 -0.10445785938E+02 -0.16440556810E+02  0.12283463597E+02  0.23028022712E+02  0.00000000000E+00 0. -1.
</event>
<event>
 8    1  0.1615837E-013  0.9118800E+02  0.7816164E-02  0.1184000E+00
        -11   -1    0    0    0    0  0.00000000000E+00  0.00000000000E+00  0.45593999997E+02  0.45594000000E+02  0.51100000000E-03 0. -1.
         11   -1    0    0    0    0 -0.00000000000E+00 -0.00000000000E+00 -0.45593999997E+02  0.45594000000E+02  0.51100000000E-03 0.  1.
         23    2    1    2    0    0  0.88817841970E-15  0.71054273576E-14 -0.35527136788E-14  0.91188000000E+02  0.91188000000E+02 0.  0.
    9900012    2    3    3    0    0 -0.44898685100E+01  0.29481251459E+02 -0.27638063019E+02  0.50528860384E+02  0.30000001624E+02 0.  0.
         12    1    3    3    0    0  0.44898685100E+01 -0.29481251459E+02  0.27638063019E+02  0.40659139616E+02  0.00000000000E+00 0. -1.
         11    1    4    4    0    0  0.71295942262E+01  0.13561403255E+02 -0.15022437774E+02  0.21457315979E+02  0.51100000000E-03 0. -1.
        -11    1    4    4    0    0  0.21680045925E+01  0.95013458881E+01 -0.73575663541E+00  0.97732878647E+01  0.51100000000E-03 0.  1.
         12    1    4    4    0    0 -0.13787467329E+02  0.64185023160E+01 -0.11879868610E+02  0.19298256541E+02  0.00000000000E+00 0. -1.
</event>
<event>
 8    1  0.1615837E-013  0.9118800E+02  0.7816164E-02  0.1184000E+00
        -11   -1    0    0    0    0  0.00000000000E+00  0.00000000000E+00  0.45593999997E+02  0.45594000000E+02  0.51100000000E-03 0. -1.
         11   -1    0    0    0    0 -0.00000000000E+00 -0.00000000000E+00 -0.45593999997E+02  0.45594000000E+02  0.51100000000E-03 0.  1.
         23    2    1    2    0    0  0.00000000000E+00  0.00000000000E+00  0.00000000000E+00  0.91188000000E+02  0.91188000000E+02 0.  0.
    9900012    2    3    3    0    0 -0.28262192753E+02  0.14890880138E+02 -0.25153042936E+02  0.50528863026E+02  0.30000009655E+02 0.  0.
         12    1    3    3    0    0  0.28262192753E+02 -0.14890880138E+02  0.25153042936E+02  0.40659136974E+02  0.00000000000E+00 0. -1.
         11    1    4    4    0    0  0.19291073820E+01 -0.20771675729E+01 -0.10956670387E+01  0.30391720810E+01  0.51100000000E-03 0. -1.
        -11    1    4    4    0    0  0.14571836870E+01  0.15684179005E+01  0.25780247425E+01  0.33510492151E+01  0.51100000000E-03 0.  1.
        -12    1    4    4    0    0 -0.31648483822E+02  0.15399629811E+02 -0.26635400639E+02  0.44138641730E+02  0.00000000000E+00 0.  1.
</event>
<event>
 8    1  0.2810801E-013  0.9118800E+02  0.7816164E-02  0.1184000E+00
        -11   -1    0    0    0    0  0.00000000000E+00  0.00000000000E+00  0.45593999997E+02  0.45594000000E+02  0.51100000000E-03 0. -1.
         11   -1    0    0    0    0 -0.00000000000E+00 -0.00000000000E+00 -0.45593999997E+02  0.45594000000E+02  0.51100000000E-03 0.  1.
         23    2    1    2    0    0 -0.44408920985E-15  0.35527136788E-14  0.00000000000E+00  0.91188000000E+02  0.91188000000E+02 0.  0.
    9900012    2    3    3    0    0 -0.26689730729E+01 -0.20391821072E+02  0.35074430730E+02  0.50528862344E+02  0.30000007581E+02 0.  0.
        -12    1    3    3    0    0  0.26689730729E+01  0.20391821072E+02 -0.35074430730E+02  0.40659137656E+02  0.00000000000E+00 0.  1.
         11    1    4    4    0    0  0.27837388736E+01 -0.11150480703E+02  0.14087557335E+02  0.18180805646E+02  0.51100000000E-03 0. -1.
        -11    1    4    4    0    0  0.53393806472E+01  0.26718298272E+01  0.13198302887E+02  0.14485953875E+02  0.51100000000E-03 0.  1.
        -12    1    4    4    0    0 -0.10792092594E+02 -0.11913170197E+02  0.77885705083E+01  0.17862102823E+02  0.00000000000E+00 0.  1.
</event>
<event>
 8    1  0.1615837E-013  0.9118800E+02  0.7816164E-02  0.1184000E+00
        -11   -1    0    0    0    0  0.00000000000E+00  0.00000000000E+00  0.45593999997E+02  0.45594000000E+02  0.51100000000E-03 0.  1.
         11   -1    0    0    0    0 -0.00000000000E+00 -0.00000000000E+00 -0.45593999997E+02  0.45594000000E+02  0.51100000000E-03 0. -1.
         23    2    1    2    0    0  0.00000000000E+00  0.17763568394E-14  0.00000000000E+00  0.91188000000E+02  0.91188000000E+02 0.  0.
    9900012    2    3    3    0    0  0.30285605900E+02 -0.13070604071E+02  0.23772040507E+02  0.50528824832E+02  0.29999893558E+02 0.  0.
        -12    1    3    3    0    0 -0.30285605900E+02  0.13070604071E+02 -0.23772040507E+02  0.40659175168E+02  0.00000000000E+00 0.  1.
         11    1    4    4    0    0  0.21265374781E+02 -0.85204205608E+01  0.22677431733E+02  0.32234758281E+02  0.51100000000E-03 0. -1.
        -11    1    4    4    0    0  0.11347260602E+02 -0.52263207337E+01  0.51958628293E+01  0.13530400674E+02  0.51100000000E-03 0.  1.
        -12    1    4    4    0    0 -0.23270294842E+01  0.67613722365E+00 -0.41012540553E+01  0.47636658774E+01  0.00000000000E+00 0.  1.
</event>
<event>
 8    1  0.1615837E-013  0.9118800E+02  0.7816164E-02  0.1184000E+00
        -11   -1    0    0    0    0  0.00000000000E+00  0.00000000000E+00  0.45593999997E+02  0.45594000000E+02  0.51100000000E-03 0. -1.
         11   -1    0    0    0    0 -0.00000000000E+00 -0.00000000000E+00 -0.45593999997E+02  0.45594000000E+02  0.51100000000E-03 0.  1.
         23    2    1    2    0    0  0.00000000000E+00  0.35527136788E-14 -0.35527136788E-14  0.91188000000E+02  0.91188000000E+02 0.  0.
    9900012    2    3    3    0    0  0.17376356374E+02 -0.25324683798E+02  0.26643728747E+02  0.50528860169E+02  0.30000000969E+02 0.  0.
        -12    1    3    3    0    0 -0.17376356374E+02  0.25324683798E+02 -0.26643728747E+02  0.40659139831E+02  0.00000000000E+00 0.  1.
         11    1    4    4    0    0  0.26258518007E+01 -0.25212197512E+01 -0.60950708949E+00  0.36909546009E+01  0.51100000000E-03 0. -1.
        -11    1    4    4    0    0  0.28949072356E+01 -0.31878045251E+01 -0.54229847153E+01  0.69246912622E+01  0.51100000000E-03 0.  1.
         12    1    4    4    0    0  0.11855597338E+02 -0.19615659521E+02  0.32676220551E+02  0.39913214306E+02  0.00000000000E+00 0. -1.
</event>
<event>
 8    1  0.1615837E-013  0.9118800E+02  0.7816164E-02  0.1184000E+00
        -11   -1    0    0    0    0  0.00000000000E+00  0.00000000000E+00  0.45593999997E+02  0.45594000000E+02  0.51100000000E-03 0. -1.
         11   -1    0    0    0    0 -0.00000000000E+00 -0.00000000000E+00 -0.45593999997E+02  0.45594000000E+02  0.51100000000E-03 0.  1.
         23    2    1    2    0    0  0.17763568394E-14 -0.88817841970E-15  0.71054273576E-14  0.91188000000E+02  0.91188000000E+02 0.  0.
    9900012    2    3    3    0    0 -0.10214631022E+02  0.27629099036E+01 -0.39258033470E+02  0.50528861421E+02  0.30000004776E+02 0.  0.
         12    1    3    3    0    0  0.10214631022E+02 -0.27629099036E+01  0.39258033470E+02  0.40659138579E+02  0.00000000000E+00 0. -1.
         11    1    4    4    0    0 -0.68267777510E+01 -0.70392799847E+01 -0.18824828323E+02  0.21225704201E+02  0.51100000000E-03 0. -1.
        -11    1    4    4    0    0 -0.74925572059E+01 -0.24920811887E+01 -0.60947814886E+01  0.99747302615E+01  0.51100000000E-03 0.  1.
         12    1    4    4    0    0  0.41047039344E+01  0.12294271077E+02 -0.14338423658E+02  0.19328426959E+02  0.00000000000E+00 0. -1.
</event>
<event>
 8    1  0.1615837E-013  0.9118800E+02  0.7816164E-02  0.1184000E+00
        -11   -1    0    0    0    0  0.00000000000E+00  0.00000000000E+00  0.45593999997E+02  0.45594000000E+02  0.51100000000E-03 0. -1.
         11   -1    0    0    0    0 -0.00000000000E+00 -0.00000000000E+00 -0.45593999997E+02  0.45594000000E+02  0.51100000000E-03 0.  1.
         23    2    1    2    0    0  0.17763568394E-14  0.17763568394E-14  0.00000000000E+00  0.91188000000E+02  0.91188000000E+02 0.  0.
    9900012    2    3    3    0    0 -0.12943249953E+02  0.93066300663E+01  0.37403539868E+02  0.50528857397E+02  0.29999992544E+02 0.  0.
        -12    1    3    3    0    0  0.12943249953E+02 -0.93066300663E+01 -0.37403539868E+02  0.40659142603E+02  0.00000000000E+00 0.  1.
         11    1    4    4    0    0 -0.60441881702E+00 -0.28429448355E+01  0.27847517023E+02  0.27998783225E+02  0.51100000000E-03 0. -1.
        -11    1    4    4    0    0 -0.10773786473E+02  0.77660062126E+01  0.11420382894E+02  0.17516006199E+02  0.51100000000E-03 0.  1.
        -12    1    4    4    0    0 -0.15650446622E+01  0.43835686893E+01 -0.18643600488E+01  0.50140679732E+01  0.00000000000E+00 0.  1.
</event>
<event>
 8    1  0.1615837E-013  0.9118800E+02  0.7816164E-02  0.1184000E+00
        -11   -1    0    0    0    0  0.00000000000E+00  0.00000000000E+00  0.45593999997E+02  0.45594000000E+02  0.51100000000E-03 0. -1.
         11   -1    0    0    0    0 -0.00000000000E+00 -0.00000000000E+00 -0.45593999997E+02  0.45594000000E+02  0.51100000000E-03 0.  1.
         23    2    1    2    0    0  0.00000000000E+00  0.00000000000E+00  0.71054273576E-14  0.91188000000E+02  0.91188000000E+02 0.  0.
    9900012    2    3    3    0    0 -0.14656330163E+02  0.12635839548E+02 -0.35758820547E+02  0.50528859554E+02  0.29999999099E+02 0.  0.
         12    1    3    3    0    0  0.14656330163E+02 -0.12635839548E+02  0.35758820547E+02  0.40659140446E+02  0.00000000000E+00 0. -1.
         11    1    4    4    0    0 -0.53974100172E+01 -0.13791246663E+01 -0.22920473776E+02  0.23587753986E+02  0.51100000000E-03 0. -1.
        -11    1    4    4    0    0 -0.89624429430E+01  0.10753775133E+02 -0.16756583918E+02  0.21834655206E+02  0.51100000000E-03 0.  1.
         12    1    4    4    0    0 -0.29647720262E+00  0.32611890813E+01  0.39182371465E+01  0.51064503612E+01  0.00000000000E+00 0. -1.
</event>
<event>
 8    1  0.1615837E-013  0.9118800E+02  0.7816164E-02  0.1184000E+00
        -11   -1    0    0    0    0  0.00000000000E+00  0.00000000000E+00  0.45593999997E+02  0.45594000000E+02  0.51100000000E-03 0.  1.
         11   -1    0    0    0    0 -0.00000000000E+00 -0.00000000000E+00 -0.45593999997E+02  0.45594000000E+02  0.51100000000E-03 0. -1.
         23    2    1    2    0    0  0.17763568394E-14  0.00000000000E+00  0.00000000000E+00  0.91188000000E+02  0.91188000000E+02 0.  0.
    9900012    2    3    3    0    0  0.14577891694E+02  0.36591161811E+02  0.10086501621E+02  0.50528861250E+02  0.30000004256E+02 0.  0.
         12    1    3    3    0    0 -0.14577891694E+02 -0.36591161811E+02 -0.10086501621E+02  0.40659138750E+02  0.00000000000E+00 0. -1.
         11    1    4    4    0    0  0.15265369847E+01  0.10086734825E+02 -0.88941160067E+01  0.13534320611E+02  0.51100000000E-03 0. -1.
        -11    1    4    4    0    0 -0.58765454557E+00  0.74103993173E+01  0.85097238386E+01  0.11299325466E+02  0.51100000000E-03 0.  1.
        -12    1    4    4    0    0  0.13639009255E+02  0.19094027669E+02  0.10470893789E+02  0.25695215174E+02  0.00000000000E+00 0.  1.
</event>
<event>
 8    1  0.1615837E-013  0.9118800E+02  0.7816164E-02  0.1184000E+00
        -11   -1    0    0    0    0  0.00000000000E+00  0.00000000000E+00  0.45593999997E+02  0.45594000000E+02  0.51100000000E-03 0.  1.
         11   -1    0    0    0    0 -0.00000000000E+00 -0.00000000000E+00 -0.45593999997E+02  0.45594000000E+02  0.51100000000E-03 0. -1.
         23    2    1    2    0    0 -0.88817841970E-15  0.00000000000E+00  0.26645352591E-14  0.91188000000E+02  0.91188000000E+02 0.  0.
    9900012    2    3    3    0    0  0.33756837262E+01 -0.39742759729E+02 -0.78919901657E+01  0.50528859573E+02  0.29999999158E+02 0.  0.
         12    1    3    3    0    0 -0.33756837262E+01  0.39742759729E+02  0.78919901657E+01  0.40659140427E+02  0.00000000000E+00 0. -1.
         11    1    4    4    0    0 -0.15829377573E+00 -0.27424746098E+02 -0.14087399733E+02  0.30831746415E+02  0.51100000000E-03 0. -1.
        -11    1    4    4    0    0  0.30911959926E+01 -0.11345289773E+02 -0.15657974817E+01  0.11862664740E+02  0.51100000000E-03 0.  1.
         12    1    4    4    0    0  0.44278150933E+00 -0.97272385733E+00  0.77612070490E+01  0.78344484187E+01  0.00000000000E+00 0. -1.
</event>
<event>
 8    1  0.1615837E-013  0.9118800E+02  0.7816164E-02  0.1184000E+00
        -11   -1    0    0    0    0  0.00000000000E+00  0.00000000000E+00  0.45593999997E+02  0.45594000000E+02  0.51100000000E-03 0. -1.
         11   -1    0    0    0    0 -0.00000000000E+00 -0.00000000000E+00 -0.45593999997E+02  0.45594000000E+02  0.51100000000E-03 0.  1.
         23    2    1    2    0    0  0.00000000000E+00  0.00000000000E+00  0.00000000000E+00  0.91188000000E+02  0.91188000000E+02 0.  0.
    9900012    2    3    3    0    0 -0.16414985760E+02 -0.12059711574E+02  0.35189112704E+02  0.50528904416E+02  0.30000135464E+02 0.  0.
        -12    1    3    3    0    0  0.16414985760E+02  0.12059711574E+02 -0.35189112704E+02  0.40659095584E+02  0.00000000000E+00 0.  1.
         11    1    4    4    0    0 -0.16802420738E+02 -0.54712550686E+01  0.28885221608E+02  0.33861659769E+02  0.51100000000E-03 0. -1.
        -11    1    4    4    0    0 -0.64280400603E+01 -0.12983165901E+01  0.41975840256E+01  0.77862081207E+01  0.51100000000E-03 0.  1.
         12    1    4    4    0    0  0.68154750379E+01 -0.52901399155E+01  0.21063070703E+01  0.88810365269E+01  0.00000000000E+00 0. -1.
</event>
<event>
 8    1  0.1615837E-013  0.9118800E+02  0.7816164E-02  0.1184000E+00
        -11   -1    0    0    0    0  0.00000000000E+00  0.00000000000E+00  0.45593999997E+02  0.45594000000E+02  0.51100000000E-03 0.  1.
         11   -1    0    0    0    0 -0.00000000000E+00 -0.00000000000E+00 -0.45593999997E+02  0.45594000000E+02  0.51100000000E-03 0. -1.
         23    2    1    2    0    0  0.00000000000E+00  0.00000000000E+00 -0.12767564783E-14  0.91188000000E+02  0.91188000000E+02 0.  0.
    9900012    2    3    3    0    0  0.37563441937E+01  0.40485208169E+02 -0.68319208892E-01  0.50528845192E+02  0.29999955445E+02 0.  0.
         12    1    3    3    0    0 -0.37563441937E+01 -0.40485208169E+02  0.68319208892E-01  0.40659154808E+02  0.00000000000E+00 0. -1.
         11    1    4    4    0    0 -0.36830100943E+01  0.53870890691E+01  0.41228914911E+01  0.77190366304E+01  0.51100000000E-03 0. -1.
        -11    1    4    4    0    0  0.48806079926E+01  0.41535792731E+01  0.72885878613E+01  0.97054659048E+01  0.51100000000E-03 0.  1.
         12    1    4    4    0    0  0.25587462954E+01  0.30944539827E+02 -0.11479798561E+02  0.33104342657E+02  0.00000000000E+00 0. -1.
</event>
<event>
 8    1  0.1615837E-013  0.9118800E+02  0.7816164E-02  0.1184000E+00
        -11   -1    0    0    0    0  0.00000000000E+00  0.00000000000E+00  0.45593999997E+02  0.45594000000E+02  0.51100000000E-03 0. -1.
         11   -1    0    0    0    0 -0.00000000000E+00 -0.00000000000E+00 -0.45593999997E+02  0.45594000000E+02  0.51100000000E-03 0.  1.
         23    2    1    2    0    0  0.00000000000E+00 -0.35527136788E-14  0.00000000000E+00  0.91188000000E+02  0.91188000000E+02 0.  0.
    9900012    2    3    3    0    0  0.24855051764E+02  0.25577936052E+02  0.19523346339E+02  0.50528862489E+02  0.30000008022E+02 0.  0.
        -12    1    3    3    0    0 -0.24855051764E+02 -0.25577936052E+02 -0.19523346339E+02  0.40659137511E+02  0.00000000000E+00 0.  1.
         11    1    4    4    0    0  0.15933704222E+01  0.14746832806E+01  0.23821123661E+00  0.21840936186E+01  0.51100000000E-03 0. -1.
        -11    1    4    4    0    0  0.69259756935E+01  0.26103463740E+02  0.72707203788E+01  0.27968255820E+02  0.51100000000E-03 0.  1.
         12    1    4    4    0    0  0.16335705648E+02 -0.20002109684E+01  0.12014414724E+02  0.20376513050E+02  0.00000000000E+00 0. -1.
</event>
<event>
 8    1  0.1615837E-013  0.9118800E+02  0.7816164E-02  0.1184000E+00
        -11   -1    0    0    0    0  0.00000000000E+00  0.00000000000E+00  0.45593999997E+02  0.45594000000E+02  0.51100000000E-03 0. -1.
         11   -1    0    0    0    0 -0.00000000000E+00 -0.00000000000E+00 -0.45593999997E+02  0.45594000000E+02  0.51100000000E-03 0.  1.
         23    2    1    2    0    0  0.00000000000E+00 -0.66613381478E-15  0.00000000000E+00  0.91188000000E+02  0.91188000000E+02 0.  0.
    9900012    2    3    3    0    0  0.26852735888E+02 -0.43224963796E+00  0.30527191140E+02  0.50528860028E+02  0.30000000541E+02 0.  0.
        -12    1    3    3    0    0 -0.26852735888E+02  0.43224963796E+00 -0.30527191140E+02  0.40659139972E+02  0.00000000000E+00 0.  1.
         11    1    4    4    0    0 -0.16506098100E+01  0.67541652051E+01  0.78798630570E+01  0.10508829736E+02  0.51100000000E-03 0. -1.
        -11    1    4    4    0    0 -0.78756401734E+00 -0.44681070211E+00 -0.13040883785E+01  0.15876220095E+01  0.51100000000E-03 0.  1.
         12    1    4    4    0    0  0.29290909715E+02 -0.67396041410E+01  0.23951416461E+02  0.38432408282E+02  0.00000000000E+00 0. -1.
</event>
<event>
 8    1  0.1615837E-013  0.9118800E+02  0.7816164E-02  0.1184000E+00
        -11   -1    0    0    0    0  0.00000000000E+00  0.00000000000E+00  0.45593999997E+02  0.45594000000E+02  0.51100000000E-03 0. -1.
         11   -1    0    0    0    0 -0.00000000000E+00 -0.00000000000E+00 -0.45593999997E+02  0.45594000000E+02  0.51100000000E-03 0.  1.
         23    2    1    2    0    0 -0.35527136788E-14  0.00000000000E+00 -0.35527136788E-14  0.91188000000E+02  0.91188000000E+02 0.  0.
    9900012    2    3    3    0    0  0.21889963304E+02 -0.28907618457E+02  0.18394159741E+02  0.50528855753E+02  0.29999987546E+02 0.  0.
         12    1    3    3    0    0 -0.21889963304E+02  0.28907618457E+02 -0.18394159741E+02  0.40659144247E+02  0.00000000000E+00 0. -1.
         11    1    4    4    0    0  0.25655942084E+01 -0.14536369141E+02  0.16629501665E+02  0.22235751108E+02  0.51100000000E-03 0. -1.
        -11    1    4    4    0    0  0.23709497776E+01  0.10637135179E+01  0.45069863672E+01  0.52024816839E+01  0.51100000000E-03 0.  1.
        -12    1    4    4    0    0  0.16953419318E+02 -0.15434962834E+02 -0.27423282914E+01  0.23090622961E+02  0.00000000000E+00 0.  1.
</event>
<event>
 8    1  0.1615837E-013  0.9118800E+02  0.7816164E-02  0.1184000E+00
        -11   -1    0    0    0    0  0.00000000000E+00  0.00000000000E+00  0.45593999997E+02  0.45594000000E+02  0.51100000000E-03 0. -1.
         11   -1    0    0    0    0 -0.00000000000E+00 -0.00000000000E+00 -0.45593999997E+02  0.45594000000E+02  0.51100000000E-03 0.  1.
         23    2    1    2    0    0  0.00000000000E+00  0.44408920985E-15  0.00000000000E+00  0.91188000000E+02  0.91188000000E+02 0.  0.
    9900012    2    3    3    0    0  0.31448144560E+02 -0.37726242146E+01 -0.25494063387E+02  0.50528858867E+02  0.29999997011E+02 0.  0.
         12    1    3    3    0    0 -0.31448144560E+02  0.37726242146E+01  0.25494063387E+02  0.40659141133E+02  0.00000000000E+00 0. -1.
         11    1    4    4    0    0  0.12480507680E+02 -0.15114792684E+02 -0.69138910222E+01  0.20785136977E+02  0.51100000000E-03 0. -1.
        -11    1    4    4    0    0  0.10301923007E+02  0.32941575433E+01 -0.12207323269E+02  0.16309501317E+02  0.51100000000E-03 0.  1.
        -12    1    4    4    0    0  0.86657138726E+01  0.80480109259E+01 -0.63728490959E+01  0.13434220572E+02  0.00000000000E+00 0.  1.
</event>
<event>
 8    1  0.1615837E-013  0.9118800E+02  0.7816164E-02  0.1184000E+00
        -11   -1    0    0    0    0  0.00000000000E+00  0.00000000000E+00  0.45593999997E+02  0.45594000000E+02  0.51100000000E-03 0. -1.
         11   -1    0    0    0    0 -0.00000000000E+00 -0.00000000000E+00 -0.45593999997E+02  0.45594000000E+02  0.51100000000E-03 0.  1.
         23    2    1    2    0    0  0.35527136788E-14  0.99920072216E-15  0.00000000000E+00  0.91188000000E+02  0.91188000000E+02 0.  0.
    9900012    2    3    3    0    0  0.28809737631E+02 -0.66987683335E+00 -0.28683021436E+02  0.50528862823E+02  0.30000009035E+02 0.  0.
         12    1    3    3    0    0 -0.28809737631E+02  0.66987683335E+00  0.28683021436E+02  0.40659137177E+02  0.00000000000E+00 0. -1.
         11    1    4    4    0    0 -0.46819425587E+00  0.47210063120E+01 -0.67631047341E+01  0.82611556313E+01  0.51100000000E-03 0. -1.
        -11    1    4    4    0    0  0.22522851078E+02 -0.12441004718E+02 -0.12149002475E+02  0.28454449221E+02  0.51100000000E-03 0.  1.
         12    1    4    4    0    0  0.67550808088E+01  0.70501215727E+01 -0.97709142275E+01  0.13813257971E+02  0.00000000000E+00 0. -1.
</event>
<event>
 8    1  0.1615837E-013  0.9118800E+02  0.7816164E-02  0.1184000E+00
        -11   -1    0    0    0    0  0.00000000000E+00  0.00000000000E+00  0.45593999997E+02  0.45594000000E+02  0.51100000000E-03 0. -1.
         11   -1    0    0    0    0 -0.00000000000E+00 -0.00000000000E+00 -0.45593999997E+02  0.45594000000E+02  0.51100000000E-03 0.  1.
         23    2    1    2    0    0  0.00000000000E+00  0.00000000000E+00  0.00000000000E+00  0.91188000000E+02  0.91188000000E+02 0.  0.
    9900012    2    3    3    0    0 -0.11417937070E+02 -0.38551772518E+02 -0.60462450552E+01  0.50528861661E+02  0.30000005504E+02 0.  0.
         12    1    3    3    0    0  0.11417937070E+02  0.38551772518E+02  0.60462450552E+01  0.40659138339E+02  0.00000000000E+00 0. -1.
         11    1    4    4    0    0  0.17558958755E+01 -0.25236177537E+01  0.58441691001E+01  0.66034937438E+01  0.51100000000E-03 0. -1.
        -11    1    4    4    0    0 -0.12566130975E+02 -0.95188536453E+01 -0.47519984034E+01  0.16465045141E+02  0.51100000000E-03 0.  1.
        -12    1    4    4    0    0 -0.60770197064E+00 -0.26509301119E+02 -0.71384157520E+01  0.27460322776E+02  0.00000000000E+00 0.  1.
</event>
<event>
 8    1  0.1615837E-013  0.9118800E+02  0.7816164E-02  0.1184000E+00
        -11   -1    0    0    0    0  0.00000000000E+00  0.00000000000E+00  0.45593999997E+02  0.45594000000E+02  0.51100000000E-03 0. -1.
         11   -1    0    0    0    0 -0.00000000000E+00 -0.00000000000E+00 -0.45593999997E+02  0.45594000000E+02  0.51100000000E-03 0.  1.
         23    2    1    2    0    0  0.00000000000E+00  0.17763568394E-14  0.71054273576E-14  0.91188000000E+02  0.91188000000E+02 0.  0.
    9900012    2    3    3    0    0 -0.75318929288E+01 -0.12443418155E+02  0.37968374114E+02  0.50528862044E+02  0.30000006670E+02 0.  0.
        -12    1    3    3    0    0  0.75318929288E+01  0.12443418155E+02 -0.37968374114E+02  0.40659137956E+02  0.00000000000E+00 0.  1.
         11    1    4    4    0    0 -0.25630798700E+01  0.26878081616E+01 -0.87992447129E+00  0.38167995062E+01  0.51100000000E-03 0.  1.
        -11    1    4    4    0    0 -0.70559541297E+00  0.18996493893E+01 -0.16233720861E+01  0.25965110976E+01  0.51100000000E-03 0. -1.
         12    1    4    4    0    0 -0.42632176458E+01 -0.17030875706E+02  0.40471670671E+02  0.44115551441E+02  0.00000000000E+00 0. -1.
</event>
<event>
 8    1  0.1615837E-013  0.9118800E+02  0.7816164E-02  0.1184000E+00
        -11   -1    0    0    0    0  0.00000000000E+00  0.00000000000E+00  0.45593999997E+02  0.45594000000E+02  0.51100000000E-03 0.  1.
         11   -1    0    0    0    0 -0.00000000000E+00 -0.00000000000E+00 -0.45593999997E+02  0.45594000000E+02  0.51100000000E-03 0. -1.
         23    2    1    2    0    0  0.71054273576E-14 -0.55511151231E-16  0.00000000000E+00  0.91188000000E+02  0.91188000000E+02 0.  0.
    9900012    2    3    3    0    0  0.36274919843E+02  0.36860161181E+00 -0.18361916200E+02  0.50528860274E+02  0.30000001288E+02 0.  0.
         12    1    3    3    0    0 -0.36274919843E+02 -0.36860161181E+00  0.18361916200E+02  0.40659139726E+02  0.00000000000E+00 0. -1.
         11    1    4    4    0    0  0.26297494774E+01 -0.45636158344E+01  0.21885096066E+01  0.57036607856E+01  0.51100000000E-03 0. -1.
        -11    1    4    4    0    0 -0.56783226840E+00  0.27804991632E+01  0.22780008740E+01  0.36390791863E+01  0.51100000000E-03 0.  1.
        -12    1    4    4    0    0  0.34213002634E+02  0.21517182830E+01 -0.22828426681E+02  0.41186120302E+02  0.00000000000E+00 0.  1.
</event>
<event>
 8    1  0.1615837E-013  0.9118800E+02  0.7816164E-02  0.1184000E+00
        -11   -1    0    0    0    0  0.00000000000E+00  0.00000000000E+00  0.45593999997E+02  0.45594000000E+02  0.51100000000E-03 0. -1.
         11   -1    0    0    0    0 -0.00000000000E+00 -0.00000000000E+00 -0.45593999997E+02  0.45594000000E+02  0.51100000000E-03 0.  1.
         23    2    1    2    0    0 -0.17763568394E-14 -0.71054273576E-14  0.00000000000E+00  0.91188000000E+02  0.91188000000E+02 0.  0.
    9900012    2    3    3    0    0  0.12339861809E+02  0.31757309861E+02 -0.22189333567E+02  0.50528862734E+02  0.30000008766E+02 0.  0.
         12    1    3    3    0    0 -0.12339861809E+02 -0.31757309861E+02  0.22189333567E+02  0.40659137266E+02  0.00000000000E+00 0. -1.
         11    1    4    4    0    0  0.80956840763E+01  0.13859270083E+02  0.19671797472E+01  0.16170629682E+02  0.51100000000E-03 0. -1.
        -11    1    4    4    0    0 -0.21342657233E+00  0.18085688797E+02 -0.12803547299E+02  0.22160065746E+02  0.51100000000E-03 0.  1.
        -12    1    4    4    0    0  0.44576043052E+01 -0.18764901829E+00 -0.11352966015E+02  0.12198167306E+02  0.00000000000E+00 0.  1.
</event>
<event>
 8    1  0.1615837E-013  0.9118800E+02  0.7816164E-02  0.1184000E+00
        -11   -1    0    0    0    0  0.00000000000E+00  0.00000000000E+00  0.45593999997E+02  0.45594000000E+02  0.51100000000E-03 0. -1.
         11   -1    0    0    0    0 -0.00000000000E+00 -0.00000000000E+00 -0.45593999997E+02  0.45594000000E+02  0.51100000000E-03 0.  1.
         23    2    1    2    0    0 -0.33306690739E-15  0.00000000000E+00  0.00000000000E+00  0.91188000000E+02  0.91188000000E+02 0.  0.
    9900012    2    3    3    0    0 -0.83932932934E+00  0.19820064606E+02 -0.35491218058E+02  0.50528855962E+02  0.29999988182E+02 0.  0.
         12    1    3    3    0    0  0.83932932934E+00 -0.19820064606E+02  0.35491218058E+02  0.40659144038E+02  0.00000000000E+00 0. -1.
         11    1    4    4    0    0  0.37973750873E+01 -0.42720841626E+01 -0.55973524523E+01  0.80000697111E+01  0.51100000000E-03 0. -1.
        -11    1    4    4    0    0  0.97460620317E-01  0.65020224249E+01 -0.21518451561E+02  0.22479536295E+02  0.51100000000E-03 0.  1.
         12    1    4    4    0    0 -0.47341650370E+01  0.17590126344E+02 -0.83754140440E+01  0.20049249956E+02  0.00000000000E+00 0. -1.
</event>
<event>
 8    1  0.1615837E-013  0.9118800E+02  0.7816164E-02  0.1184000E+00
        -11   -1    0    0    0    0  0.00000000000E+00  0.00000000000E+00  0.45593999997E+02  0.45594000000E+02  0.51100000000E-03 0. -1.
         11   -1    0    0    0    0 -0.00000000000E+00 -0.00000000000E+00 -0.45593999997E+02  0.45594000000E+02  0.51100000000E-03 0.  1.
         23    2    1    2    0    0  0.00000000000E+00  0.35527136788E-14 -0.35527136788E-14  0.91188000000E+02  0.91188000000E+02 0.  0.
    9900012    2    3    3    0    0  0.18681005010E+02 -0.23835708911E+02 -0.27130143575E+02  0.50528860094E+02  0.30000000743E+02 0.  0.
         12    1    3    3    0    0 -0.18681005010E+02  0.23835708911E+02  0.27130143575E+02  0.40659139906E+02  0.00000000000E+00 0. -1.
         11    1    4    4    0    0  0.13723648759E+02 -0.12816008062E+02 -0.17891530316E+02  0.25936373208E+02  0.51100000000E-03 0. -1.
        -11    1    4    4    0    0  0.36219655335E+01 -0.93503565874E+01 -0.15228053713E+02  0.18232976246E+02  0.51100000000E-03 0.  1.
         12    1    4    4    0    0  0.13353907179E+01 -0.16693442616E+01  0.59894404538E+01  0.63595106402E+01  0.00000000000E+00 0. -1.
</event>
<event>
 8    1  0.1615837E-013  0.9118800E+02  0.7816164E-02  0.1184000E+00
        -11   -1    0    0    0    0  0.00000000000E+00  0.00000000000E+00  0.45593999997E+02  0.45594000000E+02  0.51100000000E-03 0. -1.
         11   -1    0    0    0    0 -0.00000000000E+00 -0.00000000000E+00 -0.45593999997E+02  0.45594000000E+02  0.51100000000E-03 0.  1.
         23    2    1    2    0    0  0.00000000000E+00 -0.35527136788E-14  0.00000000000E+00  0.91188000000E+02  0.91188000000E+02 0.  0.
    9900012    2    3    3    0    0 -0.19365260186E+02 -0.23390690942E+02 -0.27037530053E+02  0.50528858885E+02  0.29999997068E+02 0.  0.
         12    1    3    3    0    0  0.19365260186E+02  0.23390690942E+02  0.27037530053E+02  0.40659141115E+02  0.00000000000E+00 0. -1.
         11    1    4    4    0    0 -0.73255492467E+01 -0.77489367653E+01 -0.16606366929E+02  0.19735275919E+02  0.51100000000E-03 0. -1.
        -11    1    4    4    0    0 -0.87473126361E+01 -0.16350314723E+02  0.12999212762E+01  0.18588654214E+02  0.51100000000E-03 0.  1.
         12    1    4    4    0    0 -0.32923983033E+01  0.70856054690E+00 -0.11731084400E+02  0.12204928752E+02  0.00000000000E+00 0. -1.
</event>
<event>
 8    1  0.1615837E-013  0.9118800E+02  0.7816164E-02  0.1184000E+00
        -11   -1    0    0    0    0  0.00000000000E+00  0.00000000000E+00  0.45593999997E+02  0.45594000000E+02  0.51100000000E-03 0. -1.
         11   -1    0    0    0    0 -0.00000000000E+00 -0.00000000000E+00 -0.45593999997E+02  0.45594000000E+02  0.51100000000E-03 0.  1.
         23    2    1    2    0    0  0.17763568394E-14  0.00000000000E+00  0.35527136788E-14  0.91188000000E+02  0.91188000000E+02 0.  0.
    9900012    2    3    3    0    0  0.15903973894E+02  0.33254522801E+02 -0.17157152792E+02  0.50528836650E+02  0.29999929482E+02 0.  0.
         12    1    3    3    0    0 -0.15903973894E+02 -0.33254522801E+02  0.17157152792E+02  0.40659163350E+02  0.00000000000E+00 0. -1.
         11    1    4    4    0    0  0.13492671645E+02  0.11177366895E+02  0.16586861795E+01  0.17599345412E+02  0.51100000000E-03 0. -1.
        -11    1    4    4    0    0  0.30986988383E+00  0.52588441967E+01  0.23880976778E+01  0.57839841294E+01  0.51100000000E-03 0.  1.
        -12    1    4    4    0    0  0.21014323650E+01  0.16818311710E+02 -0.21203936650E+02  0.27145507109E+02  0.00000000000E+00 0.  1.
</event>
<event>
 8    1  0.1615837E-013  0.9118800E+02  0.7816164E-02  0.1184000E+00
        -11   -1    0    0    0    0  0.00000000000E+00  0.00000000000E+00  0.45593999997E+02  0.45594000000E+02  0.51100000000E-03 0. -1.
         11   -1    0    0    0    0 -0.00000000000E+00 -0.00000000000E+00 -0.45593999997E+02  0.45594000000E+02  0.51100000000E-03 0.  1.
         23    2    1    2    0    0  0.17763568394E-14  0.00000000000E+00  0.00000000000E+00  0.91188000000E+02  0.91188000000E+02 0.  0.
    9900012    2    3    3    0    0 -0.42340171426E+01  0.24921556606E+02 -0.31845793652E+02  0.50528862550E+02  0.30000008206E+02 0.  0.
         12    1    3    3    0    0  0.42340171426E+01 -0.24921556606E+02  0.31845793652E+02  0.40659137450E+02  0.00000000000E+00 0. -1.
         11    1    4    4    0    0  0.55890706792E+01  0.38213813929E+01 -0.38250328009E+01  0.77763450924E+01  0.51100000000E-03 0. -1.
        -11    1    4    4    0    0  0.52016945401E+01  0.12334056865E+01 -0.11999349913E+02  0.13136335649E+02  0.51100000000E-03 0.  1.
         12    1    4    4    0    0 -0.15024782362E+02  0.19866769527E+02 -0.16021410938E+02  0.29616181809E+02  0.00000000000E+00 0. -1.
</event>
<event>
 8    1  0.1615837E-013  0.9118800E+02  0.7816164E-02  0.1184000E+00
        -11   -1    0    0    0    0  0.00000000000E+00  0.00000000000E+00  0.45593999997E+02  0.45594000000E+02  0.51100000000E-03 0.  1.
         11   -1    0    0    0    0 -0.00000000000E+00 -0.00000000000E+00 -0.45593999997E+02  0.45594000000E+02  0.51100000000E-03 0. -1.
         23    2    1    2    0    0 -0.17763568394E-14  0.00000000000E+00  0.77715611724E-15  0.91188000000E+02  0.91188000000E+02 0.  0.
    9900012    2    3    3    0    0 -0.79380971818E+01 -0.39874149574E+02 -0.44998053705E+00  0.50528884496E+02  0.30000074914E+02 0.  0.
         12    1    3    3    0    0  0.79380971818E+01  0.39874149574E+02  0.44998053705E+00  0.40659115504E+02  0.00000000000E+00 0. -1.
         11    1    4    4    0    0  0.10859106882E+01 -0.14886310340E+02  0.55374566784E+01  0.15919951768E+02  0.51100000000E-03 0.  1.
        -11    1    4    4    0    0 -0.14661718065E+02 -0.93678373593E+01 -0.18647441157E+01  0.17498560634E+02  0.51100000000E-03 0. -1.
         12    1    4    4    0    0  0.56377101947E+01 -0.15620001874E+02 -0.41226930997E+01  0.17110372094E+02  0.00000000000E+00 0. -1.
</event>
<event>
 8    1  0.1615837E-013  0.9118800E+02  0.7816164E-02  0.1184000E+00
        -11   -1    0    0    0    0  0.00000000000E+00  0.00000000000E+00  0.45593999997E+02  0.45594000000E+02  0.51100000000E-03 0. -1.
         11   -1    0    0    0    0 -0.00000000000E+00 -0.00000000000E+00 -0.45593999997E+02  0.45594000000E+02  0.51100000000E-03 0.  1.
         23    2    1    2    0    0  0.00000000000E+00  0.00000000000E+00  0.00000000000E+00  0.91188000000E+02  0.91188000000E+02 0.  0.
    9900012    2    3    3    0    0  0.29514084286E+01 -0.27332152686E+02 -0.29956774486E+02  0.50528859333E+02  0.29999998429E+02 0.  0.
         12    1    3    3    0    0 -0.29514084286E+01  0.27332152686E+02  0.29956774486E+02  0.40659140667E+02  0.00000000000E+00 0. -1.
         11    1    4    4    0    0  0.69948646400E+01 -0.22053259898E+01 -0.13624302658E+02  0.15472983462E+02  0.51100000000E-03 0. -1.
        -11    1    4    4    0    0 -0.27634455404E+01 -0.26776284052E+01 -0.11405029129E+02  0.12036652974E+02  0.51100000000E-03 0.  1.
         12    1    4    4    0    0 -0.12800106709E+01 -0.22449198291E+02 -0.49274426996E+01  0.23019222897E+02  0.00000000000E+00 0. -1.
</event>
<event>
 8    1  0.1615837E-013  0.9118800E+02  0.7816164E-02  0.1184000E+00
        -11   -1    0    0    0    0  0.00000000000E+00  0.00000000000E+00  0.45593999997E+02  0.45594000000E+02  0.51100000000E-03 0. -1.
         11   -1    0    0    0    0 -0.00000000000E+00 -0.00000000000E+00 -0.45593999997E+02  0.45594000000E+02  0.51100000000E-03 0.  1.
         23    2    1    2    0    0  0.00000000000E+00  0.00000000000E+00  0.00000000000E+00  0.91188000000E+02  0.91188000000E+02 0.  0.
    9900012    2    3    3    0    0 -0.11317341589E+02  0.29612812915E+02  0.25459081295E+02  0.50528859211E+02  0.29999998057E+02 0.  0.
        -12    1    3    3    0    0  0.11317341589E+02 -0.29612812915E+02 -0.25459081295E+02  0.40659140789E+02  0.00000000000E+00 0.  1.
         11    1    4    4    0    0 -0.15276946640E+01  0.15150749841E+02  0.21936963319E+02  0.26704108891E+02  0.51100000000E-03 0. -1.
        -11    1    4    4    0    0 -0.63074369915E+01  0.15823133397E+02  0.72794561439E+01  0.18524194825E+02  0.51100000000E-03 0.  1.
        -12    1    4    4    0    0 -0.34822099329E+01 -0.13610703231E+01 -0.37573381685E+01  0.53005554948E+01  0.00000000000E+00 0.  1.
</event>
<event>
 8    1  0.1615837E-013  0.9118800E+02  0.7816164E-02  0.1184000E+00
        -11   -1    0    0    0    0  0.00000000000E+00  0.00000000000E+00  0.45593999997E+02  0.45594000000E+02  0.51100000000E-03 0. -1.
         11   -1    0    0    0    0 -0.00000000000E+00 -0.00000000000E+00 -0.45593999997E+02  0.45594000000E+02  0.51100000000E-03 0.  1.
         23    2    1    2    0    0 -0.88817841970E-15  0.00000000000E+00 -0.35527136788E-14  0.91188000000E+02  0.91188000000E+02 0.  0.
    9900012    2    3    3    0    0 -0.43890891095E+01  0.27604381560E+02  0.29527940904E+02  0.50528864759E+02  0.30000014920E+02 0.  0.
        -12    1    3    3    0    0  0.43890891095E+01 -0.27604381560E+02 -0.29527940904E+02  0.40659135241E+02  0.00000000000E+00 0.  1.
         11    1    4    4    0    0  0.85166503735E-01 -0.53104260983E+00  0.10005568982E+02  0.10020013498E+02  0.51100000000E-03 0.  1.
        -11    1    4    4    0    0 -0.95854933823E+01  0.89401991562E+01  0.15397407526E+02  0.20221004008E+02  0.51100000000E-03 0. -1.
         12    1    4    4    0    0  0.51112377690E+01  0.19195225014E+02  0.41249643969E+01  0.20287847253E+02  0.00000000000E+00 0. -1.
</event>
<event>
 8    1  0.1615837E-013  0.9118800E+02  0.7816164E-02  0.1184000E+00
        -11   -1    0    0    0    0  0.00000000000E+00  0.00000000000E+00  0.45593999997E+02  0.45594000000E+02  0.51100000000E-03 0. -1.
         11   -1    0    0    0    0 -0.00000000000E+00 -0.00000000000E+00 -0.45593999997E+02  0.45594000000E+02  0.51100000000E-03 0.  1.
         23    2    1    2    0    0  0.00000000000E+00  0.00000000000E+00  0.00000000000E+00  0.91188000000E+02  0.91188000000E+02 0.  0.
    9900012    2    3    3    0    0 -0.33524817053E+02 -0.61825676888E+01  0.22159168941E+02  0.50528852569E+02  0.29999977868E+02 0.  0.
        -12    1    3    3    0    0  0.33524817053E+02  0.61825676888E+01 -0.22159168941E+02  0.40659147431E+02  0.00000000000E+00 0.  1.
         11    1    4    4    0    0 -0.19579273891E+02 -0.11299502802E+02  0.26762211640E+01  0.22763762643E+02  0.51100000000E-03 0. -1.
        -11    1    4    4    0    0 -0.10653870320E+02 -0.13164411657E+01  0.55855619959E+01  0.12101093885E+02  0.51100000000E-03 0.  1.
        -12    1    4    4    0    0 -0.32916728430E+01  0.64333762793E+01  0.13897385781E+02  0.15663996042E+02  0.00000000000E+00 0.  1.
</event>
<event>
 8    1  0.1615837E-013  0.9118800E+02  0.7816164E-02  0.1184000E+00
        -11   -1    0    0    0    0  0.00000000000E+00  0.00000000000E+00  0.45593999997E+02  0.45594000000E+02  0.51100000000E-03 0. -1.
         11   -1    0    0    0    0 -0.00000000000E+00 -0.00000000000E+00 -0.45593999997E+02  0.45594000000E+02  0.51100000000E-03 0.  1.
         23    2    1    2    0    0 -0.35527136788E-14 -0.88817841970E-15  0.00000000000E+00  0.91188000000E+02  0.91188000000E+02 0.  0.
    9900012    2    3    3    0    0  0.29772342436E+02  0.31817600512E+01  0.27507265937E+02  0.50528860185E+02  0.30000001019E+02 0.  0.
        -12    1    3    3    0    0 -0.29772342436E+02 -0.31817600512E+01 -0.27507265937E+02  0.40659139815E+02  0.00000000000E+00 0.  1.
         11    1    4    4    0    0  0.85797685575E+00 -0.20076056206E-01 -0.30120167461E+00  0.90953287073E+00  0.51100000000E-03 0. -1.
        -11    1    4    4    0    0  0.14639604903E+02 -0.81040062958E+01  0.43044223189E+00  0.16738525339E+02  0.51100000000E-03 0.  1.
         12    1    4    4    0    0  0.14274760677E+02  0.11305842403E+02  0.27378025380E+02  0.32880801975E+02  0.00000000000E+00 0. -1.
</event>
<event>
 8    1  0.1615837E-013  0.9118800E+02  0.7816164E-02  0.1184000E+00
        -11   -1    0    0    0    0  0.00000000000E+00  0.00000000000E+00  0.45593999997E+02  0.45594000000E+02  0.51100000000E-03 0. -1.
         11   -1    0    0    0    0 -0.00000000000E+00 -0.00000000000E+00 -0.45593999997E+02  0.45594000000E+02  0.51100000000E-03 0.  1.
         23    2    1    2    0    0  0.00000000000E+00  0.35527136788E-14  0.00000000000E+00  0.91188000000E+02  0.91188000000E+02 0.  0.
    9900012    2    3    3    0    0  0.10259581350E+02 -0.23856249566E+02  0.31285546981E+02  0.50528866921E+02  0.30000021494E+02 0.  0.
        -12    1    3    3    0    0 -0.10259581350E+02  0.23856249566E+02 -0.31285546981E+02  0.40659133079E+02  0.00000000000E+00 0.  1.
         11    1    4    4    0    0 -0.15108403488E+01 -0.13145582950E+01 -0.24595535231E+01  0.31717669940E+01  0.51100000000E-03 0.  1.
        -11    1    4    4    0    0 -0.18796956635E+01  0.27739751296E+01  0.83184847580E+01  0.89680200009E+01  0.51100000000E-03 0. -1.
        -12    1    4    4    0    0  0.13650117363E+02 -0.25315666401E+02  0.25426615746E+02  0.38389079926E+02  0.00000000000E+00 0.  1.
</event>
<event>
 8    1  0.1615837E-013  0.9118800E+02  0.7816164E-02  0.1184000E+00
        -11   -1    0    0    0    0  0.00000000000E+00  0.00000000000E+00  0.45593999997E+02  0.45594000000E+02  0.51100000000E-03 0. -1.
         11   -1    0    0    0    0 -0.00000000000E+00 -0.00000000000E+00 -0.45593999997E+02  0.45594000000E+02  0.51100000000E-03 0.  1.
         23    2    1    2    0    0  0.00000000000E+00  0.00000000000E+00  0.00000000000E+00  0.91188000000E+02  0.91188000000E+02 0.  0.
    9900012    2    3    3    0    0  0.37516497442E+02 -0.92979247600E+01 -0.12618484001E+02  0.50528866664E+02  0.30000020711E+02 0.  0.
         12    1    3    3    0    0 -0.37516497442E+02  0.92979247600E+01  0.12618484001E+02  0.40659133336E+02  0.00000000000E+00 0. -1.
         11    1    4    4    0    0  0.16982457945E+02 -0.42661337191E+01  0.44799932344E+01  0.18074128316E+02  0.51100000000E-03 0. -1.
        -11    1    4    4    0    0  0.18718024680E+02 -0.29985288544E+00 -0.19336797432E+02  0.26914050139E+02  0.51100000000E-03 0.  1.
         12    1    4    4    0    0  0.18160148175E+01 -0.47319381555E+01  0.22383201964E+01  0.55406882087E+01  0.00000000000E+00 0. -1.
</event>
<event>
 8    1  0.1615837E-013  0.9118800E+02  0.7816164E-02  0.1184000E+00
        -11   -1    0    0    0    0  0.00000000000E+00  0.00000000000E+00  0.45593999997E+02  0.45594000000E+02  0.51100000000E-03 0. -1.
         11   -1    0    0    0    0 -0.00000000000E+00 -0.00000000000E+00 -0.45593999997E+02  0.45594000000E+02  0.51100000000E-03 0.  1.
         23    2    1    2    0    0  0.00000000000E+00  0.00000000000E+00  0.44408920985E-15  0.91188000000E+02  0.91188000000E+02 0.  0.
    9900012    2    3    3    0    0  0.27042677959E+02  0.30176140916E+02 -0.33556054855E+01  0.50528855887E+02  0.29999987955E+02 0.  0.
         12    1    3    3    0    0 -0.27042677959E+02 -0.30176140916E+02  0.33556054855E+01  0.40659144113E+02  0.00000000000E+00 0. -1.
         11    1    4    4    0    0 -0.23967141388E+00 -0.19204665516E+01 -0.51627265899E+00  0.20030406591E+01  0.51100000000E-03 0. -1.
        -11    1    4    4    0    0 -0.26405837681E+01  0.10435010825E+02 -0.42146330421E+01  0.11559639505E+02  0.51100000000E-03 0.  1.
         12    1    4    4    0    0  0.29922933141E+02  0.21661596643E+02  0.13753002157E+01  0.36966175723E+02  0.00000000000E+00 0. -1.
</event>
<event>
 8    1  0.1615837E-013  0.9118800E+02  0.7816164E-02  0.1184000E+00
        -11   -1    0    0    0    0  0.00000000000E+00  0.00000000000E+00  0.45593999997E+02  0.45594000000E+02  0.51100000000E-03 0. -1.
         11   -1    0    0    0    0 -0.00000000000E+00 -0.00000000000E+00 -0.45593999997E+02  0.45594000000E+02  0.51100000000E-03 0.  1.
         23    2    1    2    0    0  0.00000000000E+00  0.00000000000E+00  0.00000000000E+00  0.91188000000E+02  0.91188000000E+02 0.  0.
    9900012    2    3    3    0    0 -0.25410172003E+02 -0.12391671145E+02  0.29222120944E+02  0.50528896377E+02  0.30000111027E+02 0.  0.
        -12    1    3    3    0    0  0.25410172003E+02  0.12391671145E+02 -0.29222120944E+02  0.40659103623E+02  0.00000000000E+00 0.  1.
         11    1    4    4    0    0 -0.86661022073E+01 -0.62297614463E+01  0.29030435287E+02  0.30930202527E+02  0.51100000000E-03 0.  1.
        -11    1    4    4    0    0 -0.38390245712E+01 -0.22687532275E+01  0.35584746622E+01  0.57050936056E+01  0.51100000000E-03 0. -1.
        -12    1    4    4    0    0 -0.12905045225E+02 -0.38931564707E+01 -0.33667890053E+01  0.13893600245E+02  0.00000000000E+00 0.  1.
</event>
<event>
 8    1  0.1615837E-013  0.9118800E+02  0.7816164E-02  0.1184000E+00
        -11   -1    0    0    0    0  0.00000000000E+00  0.00000000000E+00  0.45593999997E+02  0.45594000000E+02  0.51100000000E-03 0. -1.
         11   -1    0    0    0    0 -0.00000000000E+00 -0.00000000000E+00 -0.45593999997E+02  0.45594000000E+02  0.51100000000E-03 0.  1.
         23    2    1    2    0    0 -0.71054273576E-14  0.00000000000E+00  0.00000000000E+00  0.91188000000E+02  0.91188000000E+02 0.  0.
    9900012    2    3    3    0    0  0.36025293575E+02  0.13167187087E+02 -0.13489584488E+02  0.50528862249E+02  0.30000007293E+02 0.  0.
         12    1    3    3    0    0 -0.36025293575E+02 -0.13167187087E+02  0.13489584488E+02  0.40659137751E+02  0.00000000000E+00 0. -1.
         11    1    4    4    0    0  0.51237987344E+01  0.16952938529E+01 -0.22394318423E+01  0.58431489760E+01  0.51100000000E-03 0. -1.
        -11    1    4    4    0    0  0.30584439394E+02  0.18805493879E+02 -0.91598159576E+01  0.37053431174E+02  0.51100000000E-03 0.  1.
         12    1    4    4    0    0  0.31705544629E+00 -0.73336006449E+01 -0.20903366884E+01  0.76322820995E+01  0.00000000000E+00 0. -1.
</event>
<event>
 8    1  0.1615837E-013  0.9118800E+02  0.7816164E-02  0.1184000E+00
        -11   -1    0    0    0    0  0.00000000000E+00  0.00000000000E+00  0.45593999997E+02  0.45594000000E+02  0.51100000000E-03 0. -1.
         11   -1    0    0    0    0 -0.00000000000E+00 -0.00000000000E+00 -0.45593999997E+02  0.45594000000E+02  0.51100000000E-03 0.  1.
         23    2    1    2    0    0  0.00000000000E+00  0.00000000000E+00  0.00000000000E+00  0.91188000000E+02  0.91188000000E+02 0.  0.
    9900012    2    3    3    0    0  0.30377127447E+02 -0.25396684384E+02 -0.92414083197E+01  0.50528867233E+02  0.30000022440E+02 0.  0.
         12    1    3    3    0    0 -0.30377127447E+02  0.25396684384E+02  0.92414083197E+01  0.40659132767E+02  0.00000000000E+00 0. -1.
         11    1    4    4    0    0  0.77378483507E+01  0.19260903201E+01  0.11580783509E+01  0.80576216558E+01  0.51100000000E-03 0. -1.
        -11    1    4    4    0    0 -0.21406395546E+01 -0.11135672449E+02 -0.49612249355E+01  0.12377370145E+02  0.51100000000E-03 0.  1.
        -12    1    4    4    0    0  0.24779918651E+02 -0.16187102255E+02 -0.54382617351E+01  0.30093875432E+02  0.00000000000E+00 0.  1.
</event>
<event>
 8    1  0.1615837E-013  0.9118800E+02  0.7816164E-02  0.1184000E+00
        -11   -1    0    0    0    0  0.00000000000E+00  0.00000000000E+00  0.45593999997E+02  0.45594000000E+02  0.51100000000E-03 0. -1.
         11   -1    0    0    0    0 -0.00000000000E+00 -0.00000000000E+00 -0.45593999997E+02  0.45594000000E+02  0.51100000000E-03 0.  1.
         23    2    1    2    0    0 -0.88817841970E-15  0.00000000000E+00  0.00000000000E+00  0.91188000000E+02  0.91188000000E+02 0.  0.
    9900012    2    3    3    0    0 -0.51749891347E+01  0.24110338601E+02 -0.32327650429E+02  0.50528856843E+02  0.29999990860E+02 0.  0.
         12    1    3    3    0    0  0.51749891347E+01 -0.24110338601E+02  0.32327650429E+02  0.40659143157E+02  0.00000000000E+00 0. -1.
         11    1    4    4    0    0  0.22487995310E+01  0.10276455891E+02 -0.18267709583E+01  0.10677065955E+02  0.51100000000E-03 0. -1.
        -11    1    4    4    0    0 -0.63912487883E+01  0.14025705668E+02 -0.80732633631E+01  0.17399599483E+02  0.51100000000E-03 0.  1.
        -12    1    4    4    0    0 -0.10325398774E+01 -0.19182295812E+00 -0.22427616108E+02  0.22452191406E+02  0.00000000000E+00 0.  1.
</event>
<event>
 8    1  0.1615837E-013  0.9118800E+02  0.7816164E-02  0.1184000E+00
        -11   -1    0    0    0    0  0.00000000000E+00  0.00000000000E+00  0.45593999997E+02  0.45594000000E+02  0.51100000000E-03 0. -1.
         11   -1    0    0    0    0 -0.00000000000E+00 -0.00000000000E+00 -0.45593999997E+02  0.45594000000E+02  0.51100000000E-03 0.  1.
         23    2    1    2    0    0  0.00000000000E+00  0.00000000000E+00  0.00000000000E+00  0.91188000000E+02  0.91188000000E+02 0.  0.
    9900012    2    3    3    0    0 -0.71167051146E+01 -0.17644066726E+02 -0.35933344491E+02  0.50528857994E+02  0.29999994360E+02 0.  0.
         12    1    3    3    0    0  0.71167051146E+01  0.17644066726E+02  0.35933344491E+02  0.40659142006E+02  0.00000000000E+00 0. -1.
         11    1    4    4    0    0 -0.79868719121E+01 -0.13753286841E+02 -0.17113446417E+02  0.23362642625E+02  0.51100000000E-03 0. -1.
        -11    1    4    4    0    0  0.67901226856E+01 -0.35942976027E+01 -0.26474430482E+00  0.76873162515E+01  0.51100000000E-03 0.  1.
         12    1    4    4    0    0 -0.59199558881E+01 -0.29648228227E+00 -0.18555153769E+02  0.19478899118E+02  0.00000000000E+00 0. -1.
</event>
<event>
 8    1  0.1615837E-013  0.9118800E+02  0.7816164E-02  0.1184000E+00
        -11   -1    0    0    0    0  0.00000000000E+00  0.00000000000E+00  0.45593999997E+02  0.45594000000E+02  0.51100000000E-03 0. -1.
         11   -1    0    0    0    0 -0.00000000000E+00 -0.00000000000E+00 -0.45593999997E+02  0.45594000000E+02  0.51100000000E-03 0.  1.
         23    2    1    2    0    0  0.00000000000E+00  0.00000000000E+00  0.00000000000E+00  0.91188000000E+02  0.91188000000E+02 0.  0.
    9900012    2    3    3    0    0  0.10529634340E+02  0.26689069234E+02 -0.28809449565E+02  0.50528880480E+02  0.30000062707E+02 0.  0.
         12    1    3    3    0    0 -0.10529634340E+02 -0.26689069234E+02  0.28809449565E+02  0.40659119520E+02  0.00000000000E+00 0. -1.
         11    1    4    4    0    0  0.48245221693E+01  0.40652718561E+01  0.45890670004E+01  0.78014092074E+01  0.51100000000E-03 0. -1.
        -11    1    4    4    0    0  0.83096130283E+01  0.71658913041E+01 -0.13604121079E+02  0.17477750927E+02  0.51100000000E-03 0.  1.
        -12    1    4    4    0    0 -0.26045008571E+01  0.15457906073E+02 -0.19794395486E+02  0.25249720346E+02  0.00000000000E+00 0.  1.
</event>
<event>
 8    1  0.1615837E-013  0.9118800E+02  0.7816164E-02  0.1184000E+00
        -11   -1    0    0    0    0  0.00000000000E+00  0.00000000000E+00  0.45593999997E+02  0.45594000000E+02  0.51100000000E-03 0. -1.
         11   -1    0    0    0    0 -0.00000000000E+00 -0.00000000000E+00 -0.45593999997E+02  0.45594000000E+02  0.51100000000E-03 0.  1.
         23    2    1    2    0    0  0.00000000000E+00  0.00000000000E+00 -0.35527136788E-14  0.91188000000E+02  0.91188000000E+02 0.  0.
    9900012    2    3    3    0    0 -0.27400124458E+02 -0.24581631433E+01 -0.29939208804E+02  0.50528860680E+02  0.30000002524E+02 0.  0.
         12    1    3    3    0    0  0.27400124458E+02  0.24581631433E+01  0.29939208804E+02  0.40659139320E+02  0.00000000000E+00 0. -1.
         11    1    4    4    0    0 -0.91778568959E+00  0.11255680243E+01  0.25670346997E+01  0.29493899979E+01  0.51100000000E-03 0. -1.
        -11    1    4    4    0    0  0.36691284956E+01  0.34806457108E-01 -0.70732002634E+01  0.79683045646E+01  0.51100000000E-03 0.  1.
        -12    1    4    4    0    0 -0.30151467264E+02 -0.36185376247E+01 -0.25433043241E+02  0.39611166118E+02  0.00000000000E+00 0.  1.
</event>
<event>
 8    1  0.1615837E-013  0.9118800E+02  0.7816164E-02  0.1184000E+00
        -11   -1    0    0    0    0  0.00000000000E+00  0.00000000000E+00  0.45593999997E+02  0.45594000000E+02  0.51100000000E-03 0. -1.
         11   -1    0    0    0    0 -0.00000000000E+00 -0.00000000000E+00 -0.45593999997E+02  0.45594000000E+02  0.51100000000E-03 0.  1.
         23    2    1    2    0    0  0.00000000000E+00 -0.17763568394E-14  0.00000000000E+00  0.91188000000E+02  0.91188000000E+02 0.  0.
    9900012    2    3    3    0    0  0.89972417007E+01  0.13998957201E+02  0.37097770914E+02  0.50528858744E+02  0.29999996637E+02 0.  0.
        -12    1    3    3    0    0 -0.89972417007E+01 -0.13998957201E+02 -0.37097770914E+02  0.40659141256E+02  0.00000000000E+00 0.  1.
         11    1    4    4    0    0  0.30612826559E+01  0.10092420755E+01  0.53242229856E+01  0.62239353891E+01  0.51100000000E-03 0. -1.
        -11    1    4    4    0    0 -0.64274189776E-01 -0.76412245637E+01  0.25968121287E+01  0.80706801137E+01  0.51100000000E-03 0.  1.
         12    1    4    4    0    0  0.60002332346E+01  0.20630939689E+02  0.29176735799E+02  0.36234243241E+02  0.00000000000E+00 0. -1.
</event>
<event>
 8    1  0.1615837E-013  0.9118800E+02  0.7816164E-02  0.1184000E+00
        -11   -1    0    0    0    0  0.00000000000E+00  0.00000000000E+00  0.45593999997E+02  0.45594000000E+02  0.51100000000E-03 0. -1.
         11   -1    0    0    0    0 -0.00000000000E+00 -0.00000000000E+00 -0.45593999997E+02  0.45594000000E+02  0.51100000000E-03 0.  1.
         23    2    1    2    0    0  0.00000000000E+00  0.17763568394E-14  0.00000000000E+00  0.91188000000E+02  0.91188000000E+02 0.  0.
    9900012    2    3    3    0    0  0.28001301073E+02  0.79313400916E+01  0.28393409632E+02  0.50528871530E+02  0.30000035501E+02 0.  0.
        -12    1    3    3    0    0 -0.28001301073E+02 -0.79313400916E+01 -0.28393409632E+02  0.40659128470E+02  0.00000000000E+00 0.  1.
         11    1    4    4    0    0  0.17448051691E+01  0.38370141525E+01  0.87505494750E+01  0.97128337297E+01  0.51100000000E-03 0.  1.
        -11    1    4    4    0    0  0.45675232934E+01  0.10336796802E+02  0.13134222541E+02  0.17326841581E+02  0.51100000000E-03 0. -1.
        -12    1    4    4    0    0  0.21688972611E+02 -0.62424708627E+01  0.65086376158E+01  0.23489196219E+02  0.00000000000E+00 0.  1.
</event>
<event>
 8    1  0.1615837E-013  0.9118800E+02  0.7816164E-02  0.1184000E+00
        -11   -1    0    0    0    0  0.00000000000E+00  0.00000000000E+00  0.45593999997E+02  0.45594000000E+02  0.51100000000E-03 0. -1.
         11   -1    0    0    0    0 -0.00000000000E+00 -0.00000000000E+00 -0.45593999997E+02  0.45594000000E+02  0.51100000000E-03 0.  1.
         23    2    1    2    0    0 -0.35527136788E-14 -0.88817841970E-15 -0.14210854715E-13  0.91188000000E+02  0.91188000000E+02 0.  0.
    9900012    2    3    3    0    0 -0.19401974192E+02 -0.43979286273E+01 -0.35459615317E+02  0.50528896503E+02  0.30000111411E+02 0.  0.
         12    1    3    3    0    0  0.19401974192E+02  0.43979286273E+01  0.35459615317E+02  0.40659103497E+02  0.00000000000E+00 0. -1.
         11    1    4    4    0    0 -0.11034378615E+02 -0.49080258219E+00 -0.65383689362E-01  0.11045482057E+02  0.51100000000E-03 0. -1.
        -11    1    4    4    0    0 -0.81135708869E+01  0.37884115537E+01 -0.24946726122E+02  0.26505117225E+02  0.51100000000E-03 0.  1.
        -12    1    4    4    0    0 -0.25402469070E+00 -0.76955375989E+01 -0.10447505505E+02  0.12978297221E+02  0.00000000000E+00 0.  1.
</event>
<event>
 8    1  0.1615837E-013  0.9118800E+02  0.7816164E-02  0.1184000E+00
        -11   -1    0    0    0    0  0.00000000000E+00  0.00000000000E+00  0.45593999997E+02  0.45594000000E+02  0.51100000000E-03 0. -1.
         11   -1    0    0    0    0 -0.00000000000E+00 -0.00000000000E+00 -0.45593999997E+02  0.45594000000E+02  0.51100000000E-03 0.  1.
         23    2    1    2    0    0  0.71054273576E-14 -0.17763568394E-14 -0.35527136788E-14  0.91188000000E+02  0.91188000000E+02 0.  0.
    9900012    2    3    3    0    0 -0.26642701303E+02  0.53298248325E+01  0.30247730310E+02  0.50528858908E+02  0.29999997136E+02 0.  0.
        -12    1    3    3    0    0  0.26642701303E+02 -0.53298248325E+01 -0.30247730310E+02  0.40659141092E+02  0.00000000000E+00 0.  1.
         11    1    4    4    0    0 -0.23514936865E+02  0.10693139397E+02  0.20631020292E+02  0.33059559653E+02  0.51100000000E-03 0.  1.
        -11    1    4    4    0    0 -0.67045818929E+01  0.91558961061E-01  0.11852616871E+01  0.68091590472E+01  0.51100000000E-03 0. -1.
         12    1    4    4    0    0  0.35768174548E+01 -0.54548735255E+01  0.84314483310E+01  0.10660140207E+02  0.00000000000E+00 0. -1.
</event>
<event>
 8    1  0.1615837E-013  0.9118800E+02  0.7816164E-02  0.1184000E+00
        -11   -1    0    0    0    0  0.00000000000E+00  0.00000000000E+00  0.45593999997E+02  0.45594000000E+02  0.51100000000E-03 0. -1.
         11   -1    0    0    0    0 -0.00000000000E+00 -0.00000000000E+00 -0.45593999997E+02  0.45594000000E+02  0.51100000000E-03 0.  1.
         23    2    1    2    0    0  0.00000000000E+00 -0.17763568394E-14  0.00000000000E+00  0.91188000000E+02  0.91188000000E+02 0.  0.
    9900012    2    3    3    0    0 -0.83430166656E+01  0.40032611728E+01 -0.39592075752E+02  0.50528874463E+02  0.30000044417E+02 0.  0.
         12    1    3    3    0    0  0.83430166656E+01 -0.40032611728E+01  0.39592075752E+02  0.40659125537E+02  0.00000000000E+00 0. -1.
         11    1    4    4    0    0  0.73078338003E+00  0.29755472133E+01 -0.12485266641E+01  0.33085865047E+01  0.51100000000E-03 0. -1.
        -11    1    4    4    0    0 -0.65095509678E+01  0.13206129887E+02 -0.16785678390E+02  0.22327900028E+02  0.51100000000E-03 0.  1.
         12    1    4    4    0    0 -0.25642490779E+01 -0.12178415927E+02 -0.21557870698E+02  0.24892387930E+02  0.00000000000E+00 0. -1.
</event>
<event>
 8    1  0.1615837E-013  0.9118800E+02  0.7816164E-02  0.1184000E+00
        -11   -1    0    0    0    0  0.00000000000E+00  0.00000000000E+00  0.45593999997E+02  0.45594000000E+02  0.51100000000E-03 0. -1.
         11   -1    0    0    0    0 -0.00000000000E+00 -0.00000000000E+00 -0.45593999997E+02  0.45594000000E+02  0.51100000000E-03 0.  1.
         23    2    1    2    0    0  0.00000000000E+00  0.88817841970E-15  0.00000000000E+00  0.91188000000E+02  0.91188000000E+02 0.  0.
    9900012    2    3    3    0    0 -0.34283415292E+02 -0.46855133286E+01  0.21350845814E+02  0.50528865525E+02  0.30000017251E+02 0.  0.
        -12    1    3    3    0    0  0.34283415292E+02  0.46855133286E+01 -0.21350845814E+02  0.40659134475E+02  0.00000000000E+00 0.  1.
         11    1    4    4    0    0 -0.79145762442E+01 -0.21016125034E+01  0.18056091984E+02  0.19826238933E+02  0.51100000000E-03 0. -1.
        -11    1    4    4    0    0 -0.16702396808E+02 -0.18126548046E+01  0.93923881904E+01  0.19247668242E+02  0.51100000000E-03 0.  1.
        -12    1    4    4    0    0 -0.96664422399E+01 -0.77124602053E+00 -0.60976343608E+01  0.11454958350E+02  0.00000000000E+00 0.  1.
</event>
<event>
 8    1  0.1615837E-013  0.9118800E+02  0.7816164E-02  0.1184000E+00
        -11   -1    0    0    0    0  0.00000000000E+00  0.00000000000E+00  0.45593999997E+02  0.45594000000E+02  0.51100000000E-03 0. -1.
         11   -1    0    0    0    0 -0.00000000000E+00 -0.00000000000E+00 -0.45593999997E+02  0.45594000000E+02  0.51100000000E-03 0.  1.
         23    2    1    2    0    0 -0.88817841970E-15 -0.88817841970E-15  0.71054273576E-14  0.91188000000E+02  0.91188000000E+02 0.  0.
    9900012    2    3    3    0    0 -0.47600623627E+01 -0.79823006191E+01  0.39582704198E+02  0.50528858488E+02  0.29999995860E+02 0.  0.
        -12    1    3    3    0    0  0.47600623627E+01  0.79823006191E+01 -0.39582704198E+02  0.40659141512E+02  0.00000000000E+00 0.  1.
         11    1    4    4    0    0  0.79576026989E+01 -0.86015906292E+01  0.11983242169E+02  0.16760336966E+02  0.51100000000E-03 0.  1.
        -11    1    4    4    0    0 -0.20409207783E+00 -0.12816507225E+01 -0.15310400151E+01  0.20070789570E+01  0.51100000000E-03 0. -1.
         12    1    4    4    0    0 -0.12513572984E+02  0.19009407325E+01  0.29130502044E+02  0.31761442565E+02  0.00000000000E+00 0. -1.
</event>
<event>
 8    1  0.1615837E-013  0.9118800E+02  0.7816164E-02  0.1184000E+00
        -11   -1    0    0    0    0  0.00000000000E+00  0.00000000000E+00  0.45593999997E+02  0.45594000000E+02  0.51100000000E-03 0.  1.
         11   -1    0    0    0    0 -0.00000000000E+00 -0.00000000000E+00 -0.45593999997E+02  0.45594000000E+02  0.51100000000E-03 0. -1.
         23    2    1    2    0    0 -0.35527136788E-14  0.00000000000E+00  0.00000000000E+00  0.91188000000E+02  0.91188000000E+02 0.  0.
    9900012    2    3    3    0    0  0.17140004228E+02 -0.36205051449E+02  0.69698870565E+01  0.50528870387E+02  0.30000032028E+02 0.  0.
         12    1    3    3    0    0 -0.17140004228E+02  0.36205051449E+02 -0.69698870565E+01  0.40659129613E+02  0.00000000000E+00 0. -1.
         11    1    4    4    0    0  0.24625203042E+01 -0.16790528508E+02 -0.24212528338E+00  0.16971873165E+02  0.51100000000E-03 0. -1.
        -11    1    4    4    0    0  0.46364338587E+01 -0.20503215117E+02  0.97063459103E+01  0.23153649826E+02  0.51100000000E-03 0.  1.
         12    1    4    4    0    0  0.10041050065E+02  0.10886921769E+01 -0.24943335704E+01  0.10403347395E+02  0.00000000000E+00 0. -1.
</event>
<event>
 8    1  0.1615837E-013  0.9118800E+02  0.7816164E-02  0.1184000E+00
        -11   -1    0    0    0    0  0.00000000000E+00  0.00000000000E+00  0.45593999997E+02  0.45594000000E+02  0.51100000000E-03 0. -1.
         11   -1    0    0    0    0 -0.00000000000E+00 -0.00000000000E+00 -0.45593999997E+02  0.45594000000E+02  0.51100000000E-03 0.  1.
         23    2    1    2    0    0  0.17763568394E-14 -0.35527136788E-14  0.00000000000E+00  0.91188000000E+02  0.91188000000E+02 0.  0.
    9900012    2    3    3    0    0 -0.12713182014E+02  0.16927892371E+02 -0.34712990211E+02  0.50528803913E+02  0.29999829973E+02 0.  0.
         12    1    3    3    0    0  0.12713182014E+02 -0.16927892371E+02  0.34712990211E+02  0.40659196087E+02  0.00000000000E+00 0. -1.
         11    1    4    4    0    0  0.91513983289E+00  0.81146715927E+00  0.74564666594E-01  0.12253652578E+01  0.51100000000E-03 0.  1.
        -11    1    4    4    0    0  0.76527465475E+01 -0.84038952014E+00 -0.68618021498E+01  0.10312861546E+02  0.51100000000E-03 0. -1.
        -12    1    4    4    0    0 -0.21281068394E+02  0.16956814732E+02 -0.27925752728E+02  0.38990577109E+02  0.00000000000E+00 0.  1.
</event>
<event>
 8    1  0.1615837E-013  0.9118800E+02  0.7816164E-02  0.1184000E+00
        -11   -1    0    0    0    0  0.00000000000E+00  0.00000000000E+00  0.45593999997E+02  0.45594000000E+02  0.51100000000E-03 0. -1.
         11   -1    0    0    0    0 -0.00000000000E+00 -0.00000000000E+00 -0.45593999997E+02  0.45594000000E+02  0.51100000000E-03 0.  1.
         23    2    1    2    0    0  0.00000000000E+00  0.00000000000E+00 -0.17763568394E-14  0.91188000000E+02  0.91188000000E+02 0.  0.
    9900012    2    3    3    0    0  0.37767554824E+02 -0.10156482488E+02  0.11118632095E+02  0.50528852031E+02  0.29999976233E+02 0.  0.
        -12    1    3    3    0    0 -0.37767554824E+02  0.10156482488E+02 -0.11118632095E+02  0.40659147969E+02  0.00000000000E+00 0.  1.
         11    1    4    4    0    0  0.26779584933E+02  0.50425700590E+01  0.23039878904E+01  0.27347432100E+02  0.51100000000E-03 0.  1.
        -11    1    4    4    0    0  0.64383690000E+01 -0.52306215984E+01 -0.11449247721E+01  0.83739387794E+01  0.51100000000E-03 0. -1.
        -12    1    4    4    0    0  0.45496008907E+01 -0.99684309486E+01  0.99595689770E+01  0.14807481151E+02  0.00000000000E+00 0.  1.
</event>
<event>
 8    1  0.1615837E-013  0.9118800E+02  0.7816164E-02  0.1184000E+00
        -11   -1    0    0    0    0  0.00000000000E+00  0.00000000000E+00  0.45593999997E+02  0.45594000000E+02  0.51100000000E-03 0. -1.
         11   -1    0    0    0    0 -0.00000000000E+00 -0.00000000000E+00 -0.45593999997E+02  0.45594000000E+02  0.51100000000E-03 0.  1.
         23    2    1    2    0    0  0.00000000000E+00 -0.17763568394E-14  0.00000000000E+00  0.91188000000E+02  0.91188000000E+02 0.  0.
    9900012    2    3    3    0    0  0.32146157872E+02  0.13559116464E+02 -0.20879212500E+02  0.50528848265E+02  0.29999964785E+02 0.  0.
         12    1    3    3    0    0 -0.32146157872E+02 -0.13559116464E+02  0.20879212500E+02  0.40659151735E+02  0.00000000000E+00 0. -1.
         11    1    4    4    0    0  0.11010464329E+02  0.44751592523E+01 -0.75719077511E+01  0.14092237662E+02  0.51100000000E-03 0. -1.
        -11    1    4    4    0    0  0.24816297210E+02  0.79068962108E+01 -0.16991222769E+02  0.31097737319E+02  0.51100000000E-03 0.  1.
         12    1    4    4    0    0 -0.36806036671E+01  0.11770610007E+01  0.36839180205E+01  0.53388732833E+01  0.00000000000E+00 0. -1.
</event>
<event>
 8    1  0.1615837E-013  0.9118800E+02  0.7816164E-02  0.1184000E+00
        -11   -1    0    0    0    0  0.00000000000E+00  0.00000000000E+00  0.45593999997E+02  0.45594000000E+02  0.51100000000E-03 0. -1.
         11   -1    0    0    0    0 -0.00000000000E+00 -0.00000000000E+00 -0.45593999997E+02  0.45594000000E+02  0.51100000000E-03 0.  1.
         23    2    1    2    0    0  0.00000000000E+00  0.44408920985E-15  0.00000000000E+00  0.91188000000E+02  0.91188000000E+02 0.  0.
    9900012    2    3    3    0    0 -0.28460816740E+02 -0.23068047976E+01 -0.28945236162E+02  0.50528854235E+02  0.29999982932E+02 0.  0.
         12    1    3    3    0    0  0.28460816740E+02  0.23068047976E+01  0.28945236162E+02  0.40659145765E+02  0.00000000000E+00 0. -1.
         11    1    4    4    0    0 -0.47747550612E+01  0.39846691572E+01 -0.11898160677E+02  0.13425427440E+02  0.51100000000E-03 0. -1.
        -11    1    4    4    0    0 -0.27094559162E+02 -0.74347140520E+01 -0.18020867742E+02  0.33378762465E+02  0.51100000000E-03 0.  1.
         12    1    4    4    0    0  0.34084974833E+01  0.11432400972E+01  0.97379225675E+00  0.37246643303E+01  0.00000000000E+00 0. -1.
</event>
<event>
 8    1  0.1615837E-013  0.9118800E+02  0.7816164E-02  0.1184000E+00
        -11   -1    0    0    0    0  0.00000000000E+00  0.00000000000E+00  0.45593999997E+02  0.45594000000E+02  0.51100000000E-03 0.  1.
         11   -1    0    0    0    0 -0.00000000000E+00 -0.00000000000E+00 -0.45593999997E+02  0.45594000000E+02  0.51100000000E-03 0. -1.
         23    2    1    2    0    0 -0.17763568394E-14  0.71054273576E-14  0.00000000000E+00  0.91188000000E+02  0.91188000000E+02 0.  0.
    9900012    2    3    3    0    0  0.84646332160E+01  0.32871762345E+02  0.22382196853E+02  0.50528861899E+02  0.30000006228E+02 0.  0.
        -12    1    3    3    0    0 -0.84646332160E+01 -0.32871762345E+02 -0.22382196853E+02  0.40659138101E+02  0.00000000000E+00 0.  1.
         11    1    4    4    0    0 -0.40375249016E+01  0.21695790564E+02  0.21634301396E+02  0.30903914520E+02  0.51100000000E-03 0. -1.
        -11    1    4    4    0    0  0.20717706415E+01  0.78176115577E+01  0.26350240678E+01  0.85059177140E+01  0.51100000000E-03 0.  1.
        -12    1    4    4    0    0  0.10430387476E+02  0.33583602233E+01 -0.18871286107E+01  0.11119029665E+02  0.00000000000E+00 0.  1.
</event>
<event>
 8    1  0.1615837E-013  0.9118800E+02  0.7816164E-02  0.1184000E+00
        -11   -1    0    0    0    0  0.00000000000E+00  0.00000000000E+00  0.45593999997E+02  0.45594000000E+02  0.51100000000E-03 0. -1.
         11   -1    0    0    0    0 -0.00000000000E+00 -0.00000000000E+00 -0.45593999997E+02  0.45594000000E+02  0.51100000000E-03 0.  1.
         23    2    1    2    0    0 -0.17763568394E-14  0.00000000000E+00  0.00000000000E+00  0.91188000000E+02  0.91188000000E+02 0.  0.
    9900012    2    3    3    0    0 -0.13352575139E+02 -0.99763623983E+01  0.37085662978E+02  0.50528862429E+02  0.30000007838E+02 0.  0.
        -12    1    3    3    0    0  0.13352575139E+02  0.99763623983E+01 -0.37085662978E+02  0.40659137571E+02  0.00000000000E+00 0.  1.
         11    1    4    4    0    0 -0.54078635480E+01  0.12744414466E+01  0.56020863825E+01  0.78900292301E+01  0.51100000000E-03 0. -1.
        -11    1    4    4    0    0 -0.15277433475E+02 -0.11324453505E+02  0.13804063798E+02  0.23498838234E+02  0.51100000000E-03 0.  1.
        -12    1    4    4    0    0  0.73327218837E+01  0.73649659648E-01  0.17679512797E+02  0.19139994964E+02  0.00000000000E+00 0.  1.
</event>
<event>
 8    1  0.1615837E-013  0.9118800E+02  0.7816164E-02  0.1184000E+00
        -11   -1    0    0    0    0  0.00000000000E+00  0.00000000000E+00  0.45593999997E+02  0.45594000000E+02  0.51100000000E-03 0. -1.
         11   -1    0    0    0    0 -0.00000000000E+00 -0.00000000000E+00 -0.45593999997E+02  0.45594000000E+02  0.51100000000E-03 0.  1.
         23    2    1    2    0    0  0.00000000000E+00  0.00000000000E+00  0.00000000000E+00  0.91188000000E+02  0.91188000000E+02 0.  0.
    9900012    2    3    3    0    0  0.76795831596E+01  0.29885128813E+02 -0.26477663469E+02  0.50528885592E+02  0.30000078244E+02 0.  0.
         12    1    3    3    0    0 -0.76795831596E+01 -0.29885128813E+02  0.26477663469E+02  0.40659114408E+02  0.00000000000E+00 0. -1.
         11    1    4    4    0    0 -0.55280980129E+01  0.55671471498E+01 -0.17687256864E+02  0.19349213180E+02  0.51100000000E-03 0. -1.
        -11    1    4    4    0    0  0.55862566627E+01  0.16614079590E+01 -0.38485673547E+00  0.58407751947E+01  0.51100000000E-03 0.  1.
        -12    1    4    4    0    0  0.76214245098E+01  0.22656573704E+02 -0.84055498697E+01  0.25338897217E+02  0.00000000000E+00 0.  1.
</event>
<event>
 8    1  0.1615837E-013  0.9118800E+02  0.7816164E-02  0.1184000E+00
        -11   -1    0    0    0    0  0.00000000000E+00  0.00000000000E+00  0.45593999997E+02  0.45594000000E+02  0.51100000000E-03 0. -1.
         11   -1    0    0    0    0 -0.00000000000E+00 -0.00000000000E+00 -0.45593999997E+02  0.45594000000E+02  0.51100000000E-03 0.  1.
         23    2    1    2    0    0  0.00000000000E+00 -0.17763568394E-14  0.00000000000E+00  0.91188000000E+02  0.91188000000E+02 0.  0.
    9900012    2    3    3    0    0 -0.12043318029E+02 -0.13769196216E+02  0.36311626754E+02  0.50528849602E+02  0.29999968850E+02 0.  0.
        -12    1    3    3    0    0  0.12043318029E+02  0.13769196216E+02 -0.36311626754E+02  0.40659150398E+02  0.00000000000E+00 0.  1.
         11    1    4    4    0    0  0.14912254821E+01 -0.18252636961E+02  0.19772076441E+02  0.26950278598E+02  0.51100000000E-03 0. -1.
        -11    1    4    4    0    0 -0.28396240766E+01  0.10591138663E+01  0.10289816837E+02  0.10726859647E+02  0.51100000000E-03 0.  1.
        -12    1    4    4    0    0 -0.10694919435E+02  0.34243268789E+01  0.62497334759E+01  0.12851711357E+02  0.00000000000E+00 0.  1.
</event>
<event>
 8    1  0.1615837E-013  0.9118800E+02  0.7816164E-02  0.1184000E+00
        -11   -1    0    0    0    0  0.00000000000E+00  0.00000000000E+00  0.45593999997E+02  0.45594000000E+02  0.51100000000E-03 0. -1.
         11   -1    0    0    0    0 -0.00000000000E+00 -0.00000000000E+00 -0.45593999997E+02  0.45594000000E+02  0.51100000000E-03 0.  1.
         23    2    1    2    0    0 -0.35527136788E-14  0.00000000000E+00  0.00000000000E+00  0.91188000000E+02  0.91188000000E+02 0.  0.
    9900012    2    3    3    0    0 -0.24868487564E+02  0.25251121218E+01  0.32067875646E+02  0.50528849573E+02  0.29999968763E+02 0.  0.
        -12    1    3    3    0    0  0.24868487564E+02 -0.25251121218E+01 -0.32067875646E+02  0.40659150427E+02  0.00000000000E+00 0.  1.
         11    1    4    4    0    0 -0.39217478458E+01 -0.79698010678E+01  0.41063914602E+01  0.97857184873E+01  0.51100000000E-03 0. -1.
        -11    1    4    4    0    0 -0.20757022776E+02  0.36508531514E+01  0.14321272974E+02  0.25481004359E+02  0.51100000000E-03 0.  1.
         12    1    4    4    0    0 -0.18971694215E+00  0.68440600382E+01  0.13640211212E+02  0.15262126727E+02  0.00000000000E+00 0. -1.
</event>
<event>
 8    1  0.1615837E-013  0.9118800E+02  0.7816164E-02  0.1184000E+00
        -11   -1    0    0    0    0  0.00000000000E+00  0.00000000000E+00  0.45593999997E+02  0.45594000000E+02  0.51100000000E-03 0. -1.
         11   -1    0    0    0    0 -0.00000000000E+00 -0.00000000000E+00 -0.45593999997E+02  0.45594000000E+02  0.51100000000E-03 0.  1.
         23    2    1    2    0    0  0.00000000000E+00  0.88817841970E-15 -0.35527136788E-14  0.91188000000E+02  0.91188000000E+02 0.  0.
    9900012    2    3    3    0    0  0.27867984772E+02  0.40600516261E+01  0.29326729912E+02  0.50528859800E+02  0.29999999849E+02 0.  0.
        -12    1    3    3    0    0 -0.27867984772E+02 -0.40600516261E+01 -0.29326729912E+02  0.40659140200E+02  0.00000000000E+00 0.  1.
         11    1    4    4    0    0  0.80613597608E+01 -0.76139813521E+01  0.89472028710E+01  0.14248181382E+02  0.51100000000E-03 0. -1.
        -11    1    4    4    0    0  0.34724896799E+01  0.86922001505E+01  0.16895474508E+02  0.19315009375E+02  0.51100000000E-03 0.  1.
         12    1    4    4    0    0  0.16334135331E+02  0.29818328277E+01  0.34840525325E+01  0.16965669043E+02  0.00000000000E+00 0. -1.
</event>
<event>
 8    1  0.1615837E-013  0.9118800E+02  0.7816164E-02  0.1184000E+00
        -11   -1    0    0    0    0  0.00000000000E+00  0.00000000000E+00  0.45593999997E+02  0.45594000000E+02  0.51100000000E-03 0. -1.
         11   -1    0    0    0    0 -0.00000000000E+00 -0.00000000000E+00 -0.45593999997E+02  0.45594000000E+02  0.51100000000E-03 0.  1.
         23    2    1    2    0    0 -0.35527136788E-14  0.88817841970E-15  0.35527136788E-14  0.91188000000E+02  0.91188000000E+02 0.  0.
    9900012    2    3    3    0    0  0.31215449764E+02  0.28765253222E+01  0.25893757815E+02  0.50528863318E+02  0.30000010541E+02 0.  0.
        -12    1    3    3    0    0 -0.31215449764E+02 -0.28765253222E+01 -0.25893757815E+02  0.40659136682E+02  0.00000000000E+00 0.  1.
         11    1    4    4    0    0 -0.27691160340E+00 -0.69176607362E+01  0.31813369508E+01  0.76191610531E+01  0.51100000000E-03 0.  1.
        -11    1    4    4    0    0 -0.92070828816E+00  0.31983158726E+01  0.20254452960E+01  0.38960694399E+01  0.51100000000E-03 0. -1.
         12    1    4    4    0    0  0.32413069656E+02  0.65958701858E+01  0.20686975569E+02  0.39013632825E+02  0.00000000000E+00 0. -1.
</event>
<event>
 8    1  0.1615837E-013  0.9118800E+02  0.7816164E-02  0.1184000E+00
        -11   -1    0    0    0    0  0.00000000000E+00  0.00000000000E+00  0.45593999997E+02  0.45594000000E+02  0.51100000000E-03 0. -1.
         11   -1    0    0    0    0 -0.00000000000E+00 -0.00000000000E+00 -0.45593999997E+02  0.45594000000E+02  0.51100000000E-03 0.  1.
         23    2    1    2    0    0  0.88817841970E-15  0.00000000000E+00 -0.71054273576E-14  0.91188000000E+02  0.91188000000E+02 0.  0.
    9900012    2    3    3    0    0 -0.69613628100E+01 -0.21350416056E+02 -0.33894903929E+02  0.50528863876E+02  0.30000012239E+02 0.  0.
         12    1    3    3    0    0  0.69613628100E+01  0.21350416056E+02  0.33894903929E+02  0.40659136124E+02  0.00000000000E+00 0. -1.
         11    1    4    4    0    0 -0.38097788375E+01 -0.22416148613E+01 -0.21655574065E+02  0.22102107147E+02  0.51100000000E-03 0. -1.
        -11    1    4    4    0    0  0.46607352884E+01 -0.33409690768E+01 -0.87894383456E+01  0.10494701258E+02  0.51100000000E-03 0.  1.
         12    1    4    4    0    0 -0.78123192610E+01 -0.15767832118E+02 -0.34498915182E+01  0.17932055471E+02  0.00000000000E+00 0. -1.
</event>
<event>
 8    1  0.1615837E-013  0.9118800E+02  0.7816164E-02  0.1184000E+00
        -11   -1    0    0    0    0  0.00000000000E+00  0.00000000000E+00  0.45593999997E+02  0.45594000000E+02  0.51100000000E-03 0. -1.
         11   -1    0    0    0    0 -0.00000000000E+00 -0.00000000000E+00 -0.45593999997E+02  0.45594000000E+02  0.51100000000E-03 0.  1.
         23    2    1    2    0    0  0.17763568394E-14  0.00000000000E+00  0.71054273576E-14  0.91188000000E+02  0.91188000000E+02 0.  0.
    9900012    2    3    3    0    0 -0.94850189038E+01 -0.16446587241E+02 -0.35954275148E+02  0.50528859368E+02  0.29999998536E+02 0.  0.
         12    1    3    3    0    0  0.94850189038E+01  0.16446587241E+02  0.35954275148E+02  0.40659140632E+02  0.00000000000E+00 0. -1.
         11    1    4    4    0    0 -0.10010062851E+02 -0.46375618347E+01 -0.50820932918E+01  0.12146440242E+02  0.51100000000E-03 0. -1.
        -11    1    4    4    0    0 -0.28884930607E+01  0.25369142401E+01 -0.19184599007E+02  0.19565995127E+02  0.51100000000E-03 0.  1.
         12    1    4    4    0    0  0.34135370082E+01 -0.14345939647E+02 -0.11687582850E+02  0.18816423999E+02  0.00000000000E+00 0. -1.
</event>
<event>
 8    1  0.1615837E-013  0.9118800E+02  0.7816164E-02  0.1184000E+00
        -11   -1    0    0    0    0  0.00000000000E+00  0.00000000000E+00  0.45593999997E+02  0.45594000000E+02  0.51100000000E-03 0.  1.
         11   -1    0    0    0    0 -0.00000000000E+00 -0.00000000000E+00 -0.45593999997E+02  0.45594000000E+02  0.51100000000E-03 0. -1.
         23    2    1    2    0    0  0.00000000000E+00  0.00000000000E+00 -0.17763568394E-14  0.91188000000E+02  0.91188000000E+02 0.  0.
    9900012    2    3    3    0    0  0.26733030401E+02 -0.26265941981E+02 -0.15767399444E+02  0.50528861940E+02  0.30000006353E+02 0.  0.
         12    1    3    3    0    0 -0.26733030401E+02  0.26265941981E+02  0.15767399444E+02  0.40659138060E+02  0.00000000000E+00 0. -1.
         11    1    4    4    0    0  0.72280972504E+01 -0.25675558596E+01 -0.16103133252E+01  0.78377829914E+01  0.51100000000E-03 0. -1.
        -11    1    4    4    0    0  0.23045696105E+02 -0.15182730888E+02 -0.17728567085E+02  0.32801242618E+02  0.51100000000E-03 0.  1.
        -12    1    4    4    0    0 -0.35407629542E+01 -0.85156552332E+01  0.35714809658E+01  0.98898363302E+01  0.00000000000E+00 0.  1.
</event>
<event>
 8    1  0.1615837E-013  0.9118800E+02  0.7816164E-02  0.1184000E+00
        -11   -1    0    0    0    0  0.00000000000E+00  0.00000000000E+00  0.45593999997E+02  0.45594000000E+02  0.51100000000E-03 0. -1.
         11   -1    0    0    0    0 -0.00000000000E+00 -0.00000000000E+00 -0.45593999997E+02  0.45594000000E+02  0.51100000000E-03 0.  1.
         23    2    1    2    0    0 -0.17763568394E-14  0.00000000000E+00 -0.71054273576E-14  0.91188000000E+02  0.91188000000E+02 0.  0.
    9900012    2    3    3    0    0 -0.14195012118E+02  0.18858275563E+02  0.33106385677E+02  0.50528859591E+02  0.29999999212E+02 0.  0.
        -12    1    3    3    0    0  0.14195012118E+02 -0.18858275563E+02 -0.33106385677E+02  0.40659140409E+02  0.00000000000E+00 0.  1.
         11    1    4    4    0    0  0.16453084209E-01  0.25404134957E+01 -0.29610656907E+01  0.39015229999E+01  0.51100000000E-03 0. -1.
        -11    1    4    4    0    0 -0.12490250061E+02 -0.62098924827E+00  0.16103075851E+02  0.20388747543E+02  0.51100000000E-03 0.  1.
         12    1    4    4    0    0 -0.17212151411E+01  0.16938851315E+02  0.19964375516E+02  0.26238589048E+02  0.00000000000E+00 0. -1.
</event>
<event>
 8    1  0.1615837E-013  0.9118800E+02  0.7816164E-02  0.1184000E+00
        -11   -1    0    0    0    0  0.00000000000E+00  0.00000000000E+00  0.45593999997E+02  0.45594000000E+02  0.51100000000E-03 0. -1.
         11   -1    0    0    0    0 -0.00000000000E+00 -0.00000000000E+00 -0.45593999997E+02  0.45594000000E+02  0.51100000000E-03 0.  1.
         23    2    1    2    0    0  0.44408920985E-15  0.00000000000E+00  0.00000000000E+00  0.91188000000E+02  0.91188000000E+02 0.  0.
    9900012    2    3    3    0    0  0.20026316578E+01 -0.49590416272E+01  0.40305864627E+02  0.50528863871E+02  0.30000012223E+02 0.  0.
        -12    1    3    3    0    0 -0.20026316578E+01  0.49590416272E+01 -0.40305864627E+02  0.40659136129E+02  0.00000000000E+00 0.  1.
         11    1    4    4    0    0 -0.57591874069E+01 -0.22759427480E+01  0.94408245532E+01  0.11290585613E+02  0.51100000000E-03 0. -1.
        -11    1    4    4    0    0 -0.77067555318E+01 -0.39680845468E+01  0.12123699245E+02  0.14903820297E+02  0.51100000000E-03 0.  1.
        -12    1    4    4    0    0  0.15468574597E+02  0.12849856676E+01  0.18741340829E+02  0.24334457961E+02  0.00000000000E+00 0.  1.
</event>
