<event>
 7    1  0.2879200E-015  0.9000773E+02  0.7816164E-02  0.1186339E+00
        -11   -1    0    0    0    0  0.00000000000E+00  0.00000000000E+00  0.45593999997E+02  0.45594000000E+02  0.51100000000E-03 0. -1.
         11   -1    0    0    0    0 -0.00000000000E+00 -0.00000000000E+00 -0.45593999997E+02  0.45594000000E+02  0.51100000000E-03 0.  1.
    9900012    2    1    2    0    0 -0.32279921335E+00 -0.98627270888E+00  0.56223125807E+00  0.90007730041E+02  0.89999991278E+02 0.  0.
        -12    1    1    2    0    0  0.32279921335E+00  0.98627270888E+00 -0.56223125807E+00  0.11802699589E+01  0.00000000000E+00 0.  1.
         11    1    3    3    0    0 -0.37898822498E+01  0.62794003169E+01 -0.72234582773E+01  0.10294290920E+02  0.51100000000E-03 0. -1.
        -11    1    3    3    0    0  0.51461415444E+01  0.34813919478E+02 -0.53561285447E+01  0.35597470071E+02  0.51100000000E-03 0.  1.
         12    1    3    3    0    0 -0.16790585080E+01 -0.42079592504E+02  0.13141818080E+02  0.44115969050E+02  0.00000000000E+00 0. -1.
</event>
<event>
 7    1  0.2879200E-015  0.9000774E+02  0.7816164E-02  0.1186339E+00
        -11   -1    0    0    0    0  0.00000000000E+00  0.00000000000E+00  0.45593999997E+02  0.45594000000E+02  0.51100000000E-03 0.  1.
         11   -1    0    0    0    0 -0.00000000000E+00 -0.00000000000E+00 -0.45593999997E+02  0.45594000000E+02  0.51100000000E-03 0. -1.
    9900012    2    1    2    0    0 -0.15937809644E+00  0.81297035610E+00 -0.84065331475E+00  0.90007737244E+02  0.89999998576E+02 0.  0.
        -12    1    1    2    0    0  0.15937809644E+00 -0.81297035610E+00  0.84065331475E+00  0.11802627560E+01  0.00000000000E+00 0.  1.
         11    1    3    3    0    0  0.38796005855E+02 -0.30400244604E+01 -0.27616073339E+01  0.39012796547E+02  0.51100000000E-03 0. -1.
        -11    1    3    3    0    0  0.33434857903E+01  0.91450600869E+00 -0.68676815743E+01  0.76928713064E+01  0.51100000000E-03 0.  1.
        -12    1    3    3    0    0 -0.42298869742E+02  0.29384888078E+01  0.87886355935E+01  0.43302069391E+02  0.00000000000E+00 0.  1.
</event>
<event>
 7    1  0.2879200E-015  0.9000751E+02  0.7816164E-02  0.1186339E+00
        -11   -1    0    0    0    0  0.00000000000E+00  0.00000000000E+00  0.45593999997E+02  0.45594000000E+02  0.51100000000E-03 0.  1.
         11   -1    0    0    0    0 -0.00000000000E+00 -0.00000000000E+00 -0.45593999997E+02  0.45594000000E+02  0.51100000000E-03 0. -1.
    9900012    2    1    2    0    0 -0.14429389929E+00 -0.10135854278E+01 -0.58768354588E+00  0.90007513618E+02  0.89999771997E+02 0.  0.
        -12    1    1    2    0    0  0.14429389929E+00  0.10135854278E+01  0.58768354588E+00  0.11804863823E+01  0.00000000000E+00 0.  1.
         11    1    3    3    0    0  0.24354693819E+02 -0.15138311783E+02 -0.14735752916E+02  0.32240688717E+02  0.51100000000E-03 0. -1.
        -11    1    3    3    0    0 -0.62803722397E+00  0.17490891107E+02 -0.12744696260E+02  0.21650704041E+02  0.51100000000E-03 0.  1.
        -12    1    3    3    0    0 -0.23870950495E+02 -0.33661647511E+01  0.26892765631E+02  0.36116120859E+02  0.00000000000E+00 0.  1.
</event>
<event>
 7    1  0.2879200E-015  0.9000778E+02  0.7816164E-02  0.1186339E+00
        -11   -1    0    0    0    0  0.00000000000E+00  0.00000000000E+00  0.45593999997E+02  0.45594000000E+02  0.51100000000E-03 0. -1.
         11   -1    0    0    0    0 -0.00000000000E+00 -0.00000000000E+00 -0.45593999997E+02  0.45594000000E+02  0.51100000000E-03 0.  1.
    9900012    2    1    2    0    0 -0.94698258017E+00 -0.63363840950E+00  0.30766168851E+00  0.90007775718E+02  0.90000037558E+02 0.  0.
        -12    1    1    2    0    0  0.94698258017E+00  0.63363840950E+00 -0.30766168851E+00  0.11802242820E+01  0.00000000000E+00 0.  1.
         11    1    3    3    0    0  0.73012533715E+01  0.41524438866E+01 -0.99451011012E+01  0.13017531532E+02  0.51100000000E-03 0. -1.
        -11    1    3    3    0    0  0.15268627677E+02 -0.27891881457E+02 -0.15291855527E+02  0.35283549822E+02  0.51100000000E-03 0.  1.
         12    1    3    3    0    0 -0.23516863629E+02  0.23105799160E+02  0.25544618317E+02  0.41706694363E+02  0.00000000000E+00 0. -1.
</event>
<event>
 7    1  0.2879200E-015  0.9000773E+02  0.7816164E-02  0.1186339E+00
        -11   -1    0    0    0    0  0.00000000000E+00  0.00000000000E+00  0.45593999997E+02  0.45594000000E+02  0.51100000000E-03 0.  1.
         11   -1    0    0    0    0 -0.00000000000E+00 -0.00000000000E+00 -0.45593999997E+02  0.45594000000E+02  0.51100000000E-03 0. -1.
    9900012    2    1    2    0    0  0.10148721491E+01  0.47620921582E+00 -0.36916992246E+00  0.90007734298E+02  0.89999995590E+02 0.  0.
        -12    1    1    2    0    0 -0.10148721491E+01 -0.47620921582E+00  0.36916992246E+00  0.11802657022E+01  0.00000000000E+00 0.  1.
         11    1    3    3    0    0 -0.38011754861E+02  0.57494522774E+01  0.39379423604E+01  0.38645272666E+02  0.51100000000E-03 0. -1.
        -11    1    3    3    0    0  0.17449342236E+01  0.65046480839E+01  0.79209939534E+01  0.10396989353E+02  0.51100000000E-03 0.  1.
        -12    1    3    3    0    0  0.37281692787E+02 -0.11777891145E+02 -0.12228106236E+02  0.40965472279E+02  0.00000000000E+00 0.  1.
</event>
<event>
 7    1  0.2879200E-015  0.9000779E+02  0.7816164E-02  0.1186339E+00
        -11   -1    0    0    0    0  0.00000000000E+00  0.00000000000E+00  0.45593999997E+02  0.45594000000E+02  0.51100000000E-03 0.  1.
         11   -1    0    0    0    0 -0.00000000000E+00 -0.00000000000E+00 -0.45593999997E+02  0.45594000000E+02  0.51100000000E-03 0. -1.
    9900012    2    1    2    0    0 -0.10137300297E+01  0.56209338815E+00  0.22201617981E+00  0.90007792927E+02  0.90000054994E+02 0.  0.
        -12    1    1    2    0    0  0.10137300297E+01 -0.56209338815E+00 -0.22201617981E+00  0.11802070726E+01  0.00000000000E+00 0.  1.
         11    1    3    3    0    0  0.15689518672E+02  0.18742117314E+02 -0.23611505009E+01  0.24556119187E+02  0.51100000000E-03 0. -1.
        -11    1    3    3    0    0 -0.14666865604E+02  0.19860354198E+02 -0.79324593864E+01  0.25932113830E+02  0.51100000000E-03 0.  1.
         12    1    3    3    0    0 -0.20363830973E+01 -0.38040378124E+02  0.10515626067E+02  0.39519559910E+02  0.00000000000E+00 0. -1.
</event>
<event>
 7    1  0.3385722E-015  0.9000769E+02  0.7816164E-02  0.1186339E+00
        -11   -1    0    0    0    0  0.00000000000E+00  0.00000000000E+00  0.45593999997E+02  0.45594000000E+02  0.51100000000E-03 0.  1.
         11   -1    0    0    0    0 -0.00000000000E+00 -0.00000000000E+00 -0.45593999997E+02  0.45594000000E+02  0.51100000000E-03 0. -1.
    9900012    2    1    2    0    0  0.81712742801E+00 -0.61311280812E+00 -0.59121722603E+00  0.90007685484E+02  0.89999946132E+02 0.  0.
        -12    1    1    2    0    0 -0.81712742801E+00  0.61311280812E+00  0.59121722603E+00  0.11803145163E+01  0.00000000000E+00 0.  1.
         11    1    3    3    0    0 -0.86566644767E+01  0.11718416100E+02 -0.37640955304E+02  0.40362118778E+02  0.51100000000E-03 0. -1.
        -11    1    3    3    0    0 -0.35461227134E+01  0.70973183299E+01  0.33199837333E+01  0.86005352174E+01  0.51100000000E-03 0.  1.
        -12    1    3    3    0    0  0.13019914618E+02 -0.19428847238E+02  0.33729754345E+02  0.41045031488E+02  0.00000000000E+00 0.  1.
</event>
<event>
 7    1  0.2879200E-015  0.9000769E+02  0.7816164E-02  0.1186339E+00
        -11   -1    0    0    0    0  0.00000000000E+00  0.00000000000E+00  0.45593999997E+02  0.45594000000E+02  0.51100000000E-03 0.  1.
         11   -1    0    0    0    0 -0.00000000000E+00 -0.00000000000E+00 -0.45593999997E+02  0.45594000000E+02  0.51100000000E-03 0. -1.
    9900012    2    1    2    0    0  0.15395613187E+00  0.48170560963E-02 -0.11702162452E+01  0.90007689975E+02  0.89999950683E+02 0.  0.
        -12    1    1    2    0    0 -0.15395613187E+00 -0.48170560963E-02  0.11702162452E+01  0.11803100250E+01  0.00000000000E+00 0.  1.
         11    1    3    3    0    0  0.15783218932E+02 -0.25727868233E+02 -0.24962198948E+02  0.39168157733E+02  0.51100000000E-03 0. -1.
        -11    1    3    3    0    0  0.50951966242E+01  0.64002336359E+01 -0.56738779162E+01  0.99557475913E+01  0.51100000000E-03 0.  1.
        -12    1    3    3    0    0 -0.20724459424E+02  0.19332451653E+02  0.29465860619E+02  0.40883784650E+02  0.00000000000E+00 0.  1.
</event>
<event>
 7    1  0.2879200E-015  0.9000798E+02  0.7816164E-02  0.1186339E+00
        -11   -1    0    0    0    0  0.00000000000E+00  0.00000000000E+00  0.45593999997E+02  0.45594000000E+02  0.51100000000E-03 0.  1.
         11   -1    0    0    0    0 -0.00000000000E+00 -0.00000000000E+00 -0.45593999997E+02  0.45594000000E+02  0.51100000000E-03 0. -1.
    9900012    2    1    2    0    0 -0.10835374338E+01 -0.37716154698E+00  0.27592279009E+00  0.90007984073E+02  0.90000248662E+02 0.  0.
        -12    1    1    2    0    0  0.10835374338E+01  0.37716154698E+00 -0.27592279009E+00  0.11800159274E+01  0.00000000000E+00 0.  1.
         11    1    3    3    0    0 -0.93197114405E+00 -0.91021347130E+01  0.35153145619E+01  0.98017785772E+01  0.51100000000E-03 0. -1.
        -11    1    3    3    0    0  0.26057386248E+02  0.33318108383E+02 -0.10404146384E+02  0.43558351513E+02  0.51100000000E-03 0.  1.
         12    1    3    3    0    0 -0.26208952537E+02 -0.24593135217E+02  0.71647546118E+01  0.36647853983E+02  0.00000000000E+00 0. -1.
</event>
<event>
 7    1  0.2879200E-015  0.9000762E+02  0.7816164E-02  0.1186339E+00
        -11   -1    0    0    0    0  0.00000000000E+00  0.00000000000E+00  0.45593999997E+02  0.45594000000E+02  0.51100000000E-03 0.  1.
         11   -1    0    0    0    0 -0.00000000000E+00 -0.00000000000E+00 -0.45593999997E+02  0.45594000000E+02  0.51100000000E-03 0. -1.
    9900012    2    1    2    0    0  0.49311415832E-01 -0.11206124414E+01 -0.36756349272E+00  0.90007615833E+02  0.89999875562E+02 0.  0.
        -12    1    1    2    0    0 -0.49311415832E-01  0.11206124414E+01  0.36756349272E+00  0.11803841666E+01  0.00000000000E+00 0.  1.
         11    1    3    3    0    0  0.51208327817E+01  0.88373935722E+00 -0.63299055759E+01  0.81897270095E+01  0.51100000000E-03 0. -1.
        -11    1    3    3    0    0  0.17326834318E+02 -0.10769889125E+02  0.37179705767E+02  0.42409199715E+02  0.51100000000E-03 0.  1.
         12    1    3    3    0    0 -0.22398355683E+02  0.87655373265E+01 -0.31217363684E+02  0.39408689109E+02  0.00000000000E+00 0. -1.
</event>
<event>
 7    1  0.2879200E-015  0.9000751E+02  0.7816164E-02  0.1186340E+00
        -11   -1    0    0    0    0  0.00000000000E+00  0.00000000000E+00  0.45593999997E+02  0.45594000000E+02  0.51100000000E-03 0. -1.
         11   -1    0    0    0    0 -0.00000000000E+00 -0.00000000000E+00 -0.45593999997E+02  0.45594000000E+02  0.51100000000E-03 0.  1.
    9900012    2    1    2    0    0 -0.54366701724E+00  0.10465689774E+01  0.51804145372E-01  0.90007506832E+02  0.89999765122E+02 0.  0.
        -12    1    1    2    0    0  0.54366701724E+00 -0.10465689774E+01 -0.51804145372E-01  0.11804931679E+01  0.00000000000E+00 0.  1.
         11    1    3    3    0    0  0.40498733904E+01  0.12482808309E+01  0.10186008604E+02  0.11032427251E+02  0.51100000000E-03 0. -1.
        -11    1    3    3    0    0  0.83389999936E+01 -0.37616083022E+02 -0.78635215163E+01  0.39323575546E+02  0.51100000000E-03 0.  1.
         12    1    3    3    0    0 -0.12932540401E+02  0.37414371169E+02 -0.22706829426E+01  0.39651504035E+02  0.00000000000E+00 0. -1.
</event>
<event>
 7    1  0.2879200E-015  0.9000778E+02  0.7816164E-02  0.1186339E+00
        -11   -1    0    0    0    0  0.00000000000E+00  0.00000000000E+00  0.45593999997E+02  0.45594000000E+02  0.51100000000E-03 0.  1.
         11   -1    0    0    0    0 -0.00000000000E+00 -0.00000000000E+00 -0.45593999997E+02  0.45594000000E+02  0.51100000000E-03 0. -1.
    9900012    2    1    2    0    0  0.80821310338E+00 -0.56302596132E+00 -0.65016813481E+00  0.90007777454E+02  0.90000039317E+02 0.  0.
        -12    1    1    2    0    0 -0.80821310338E+00  0.56302596132E+00  0.65016813481E+00  0.11802225456E+01  0.00000000000E+00 0.  1.
         11    1    3    3    0    0 -0.38641010580E+02  0.82922707228E+00  0.20233635940E+02  0.43625856322E+02  0.51100000000E-03 0. -1.
        -11    1    3    3    0    0  0.84348950493E+01  0.34974493309E+01 -0.92555677883E+00  0.91780314843E+01  0.51100000000E-03 0.  1.
        -12    1    3    3    0    0  0.31014328634E+02 -0.48897023645E+01 -0.19958247296E+02  0.37203889648E+02  0.00000000000E+00 0.  1.
</event>
<event>
 7    1  0.2879200E-015  0.9000767E+02  0.7816164E-02  0.1186339E+00
        -11   -1    0    0    0    0  0.00000000000E+00  0.00000000000E+00  0.45593999997E+02  0.45594000000E+02  0.51100000000E-03 0.  1.
         11   -1    0    0    0    0 -0.00000000000E+00 -0.00000000000E+00 -0.45593999997E+02  0.45594000000E+02  0.51100000000E-03 0. -1.
    9900012    2    1    2    0    0 -0.30723260174E+00  0.13799831248E+00 -0.11312567617E+01  0.90007670696E+02  0.89999931149E+02 0.  0.
        -12    1    1    2    0    0  0.30723260174E+00 -0.13799831248E+00  0.11312567617E+01  0.11803293043E+01  0.00000000000E+00 0.  1.
         11    1    3    3    0    0 -0.10462610734E+01  0.88274264670E+01  0.37572562015E+01  0.96506525525E+01  0.51100000000E-03 0. -1.
        -11    1    3    3    0    0  0.25603194397E+02  0.80360147790E+01 -0.30722880357E+02  0.40792112897E+02  0.51100000000E-03 0.  1.
         12    1    3    3    0    0 -0.24864165926E+02 -0.16725442934E+02  0.25834367394E+02  0.39564905246E+02  0.00000000000E+00 0. -1.
</event>
<event>
 7    1  0.2879200E-015  0.9000769E+02  0.7816164E-02  0.1186339E+00
        -11   -1    0    0    0    0  0.00000000000E+00  0.00000000000E+00  0.45593999997E+02  0.45594000000E+02  0.51100000000E-03 0.  1.
         11   -1    0    0    0    0 -0.00000000000E+00 -0.00000000000E+00 -0.45593999997E+02  0.45594000000E+02  0.51100000000E-03 0. -1.
    9900012    2    1    2    0    0 -0.36652330149E+00 -0.10664127081E+01 -0.34865167154E+00  0.90007689286E+02  0.89999949984E+02 0.  0.
        -12    1    1    2    0    0  0.36652330149E+00  0.10664127081E+01  0.34865167154E+00  0.11803107145E+01  0.00000000000E+00 0.  1.
         11    1    3    3    0    0 -0.37325096346E+01 -0.23741276743E+01  0.88726022244E+01  0.99141908838E+01  0.51100000000E-03 0. -1.
        -11    1    3    3    0    0  0.44245791806E+01  0.11060811677E+02  0.33867725693E+02  0.35901828641E+02  0.51100000000E-03 0.  1.
         12    1    3    3    0    0 -0.10585928475E+01 -0.97530967106E+01 -0.43088979589E+02  0.44191669761E+02  0.00000000000E+00 0. -1.
</event>
<event>
 7    1  0.2879200E-015  0.9000718E+02  0.7816164E-02  0.1186340E+00
        -11   -1    0    0    0    0  0.00000000000E+00  0.00000000000E+00  0.45593999997E+02  0.45594000000E+02  0.51100000000E-03 0.  1.
         11   -1    0    0    0    0 -0.00000000000E+00 -0.00000000000E+00 -0.45593999997E+02  0.45594000000E+02  0.51100000000E-03 0. -1.
    9900012    2    1    2    0    0  0.37748411261E+00 -0.48162373966E+00 -0.10098966155E+01  0.90007175349E+02  0.89999429262E+02 0.  0.
        -12    1    1    2    0    0 -0.37748411261E+00  0.48162373966E+00  0.10098966155E+01  0.11808246508E+01  0.00000000000E+00 0.  1.
         11    1    3    3    0    0  0.97640436141E+01 -0.26088341653E+01 -0.64830978492E-01  0.10106768362E+02  0.51100000000E-03 0. -1.
        -11    1    3    3    0    0  0.27742665486E+02 -0.11880201440E+01  0.22606572686E+02  0.35806759264E+02  0.51100000000E-03 0.  1.
         12    1    3    3    0    0 -0.37129224987E+02  0.33152305697E+01 -0.23551638323E+02  0.44093647724E+02  0.00000000000E+00 0. -1.
</event>
<event>
 7    1  0.2879200E-015  0.9000770E+02  0.7816164E-02  0.1186339E+00
        -11   -1    0    0    0    0  0.00000000000E+00  0.00000000000E+00  0.45593999997E+02  0.45594000000E+02  0.51100000000E-03 0. -1.
         11   -1    0    0    0    0 -0.00000000000E+00 -0.00000000000E+00 -0.45593999997E+02  0.45594000000E+02  0.51100000000E-03 0.  1.
    9900012    2    1    2    0    0 -0.98230011362E+00 -0.54801858446E+00  0.35760193072E+00  0.90007696216E+02  0.89999957006E+02 0.  0.
        -12    1    1    2    0    0  0.98230011362E+00  0.54801858446E+00 -0.35760193072E+00  0.11803037842E+01  0.00000000000E+00 0.  1.
         11    1    3    3    0    0 -0.25602297267E+02 -0.30410068436E+02  0.42464653750E+01  0.39978523685E+02  0.51100000000E-03 0. -1.
        -11    1    3    3    0    0 -0.87659328499E+00  0.10739904754E+01  0.92787417627E+01  0.93817333307E+01  0.51100000000E-03 0.  1.
        -12    1    3    3    0    0  0.25496590439E+02  0.28788059376E+02 -0.13167605207E+02  0.40647439200E+02  0.00000000000E+00 0.  1.
</event>
<event>
 7    1  0.2879200E-015  0.9000783E+02  0.7816164E-02  0.1186339E+00
        -11   -1    0    0    0    0  0.00000000000E+00  0.00000000000E+00  0.45593999997E+02  0.45594000000E+02  0.51100000000E-03 0.  1.
         11   -1    0    0    0    0 -0.00000000000E+00 -0.00000000000E+00 -0.45593999997E+02  0.45594000000E+02  0.51100000000E-03 0. -1.
    9900012    2    1    2    0    0 -0.21456148728E+00 -0.11560174126E+01 -0.10194751666E+00  0.90007827900E+02  0.90000090428E+02 0.  0.
        -12    1    1    2    0    0  0.21456148728E+00  0.11560174126E+01  0.10194751666E+00  0.11801721002E+01  0.00000000000E+00 0.  1.
         11    1    3    3    0    0  0.23483953124E+01  0.85967749928E+01 -0.28602440397E+01  0.93595137186E+01  0.51100000000E-03 0. -1.
        -11    1    3    3    0    0  0.26394942472E+02 -0.28384780974E+02  0.18306904619E+02  0.42866438341E+02  0.51100000000E-03 0.  1.
         12    1    3    3    0    0 -0.28957899272E+02  0.18631988569E+02 -0.15548608096E+02  0.37781875840E+02  0.00000000000E+00 0. -1.
</event>
<event>
 7    1  0.2879200E-015  0.9000769E+02  0.7816164E-02  0.1186339E+00
        -11   -1    0    0    0    0  0.00000000000E+00  0.00000000000E+00  0.45593999997E+02  0.45594000000E+02  0.51100000000E-03 0. -1.
         11   -1    0    0    0    0 -0.00000000000E+00 -0.00000000000E+00 -0.45593999997E+02  0.45594000000E+02  0.51100000000E-03 0.  1.
    9900012    2    1    2    0    0  0.86164410726E+00 -0.51709841245E+00  0.61911188953E+00  0.90007694587E+02  0.89999955356E+02 0.  0.
        -12    1    1    2    0    0 -0.86164410726E+00  0.51709841245E+00 -0.61911188953E+00  0.11803054128E+01  0.00000000000E+00 0.  1.
         11    1    3    3    0    0 -0.35384220280E+01 -0.10871195253E+02  0.32553521533E+02  0.34502682231E+02  0.51100000000E-03 0. -1.
        -11    1    3    3    0    0 -0.18867564923E+01 -0.10148107052E+02  0.59924613352E+01  0.11935389391E+02  0.51100000000E-03 0.  1.
        -12    1    3    3    0    0  0.62868226275E+01  0.20502203892E+02 -0.37926870978E+02  0.43569622966E+02  0.00000000000E+00 0.  1.
</event>
<event>
 7    1  0.2879200E-015  0.9000763E+02  0.7816164E-02  0.1186339E+00
        -11   -1    0    0    0    0  0.00000000000E+00  0.00000000000E+00  0.45593999997E+02  0.45594000000E+02  0.51100000000E-03 0.  1.
         11   -1    0    0    0    0 -0.00000000000E+00 -0.00000000000E+00 -0.45593999997E+02  0.45594000000E+02  0.51100000000E-03 0. -1.
    9900012    2    1    2    0    0 -0.94459373293E+00  0.24668820876E+00 -0.66344343696E+00  0.90007631589E+02  0.89999891525E+02 0.  0.
        -12    1    1    2    0    0  0.94459373293E+00 -0.24668820876E+00  0.66344343696E+00  0.11803684114E+01  0.00000000000E+00 0.  1.
         11    1    3    3    0    0  0.81840289926E+01 -0.97443544262E+01 -0.38302773007E+02  0.40361283355E+02  0.51100000000E-03 0. -1.
        -11    1    3    3    0    0 -0.36367075361E+01 -0.10522536222E+02  0.13326921411E+02  0.17365374883E+02  0.51100000000E-03 0.  1.
        -12    1    3    3    0    0 -0.54919151895E+01  0.20513578857E+02  0.24312408159E+02  0.32280973351E+02  0.00000000000E+00 0.  1.
</event>
<event>
 7    1  0.2879200E-015  0.9000774E+02  0.7816164E-02  0.1186339E+00
        -11   -1    0    0    0    0  0.00000000000E+00  0.00000000000E+00  0.45593999997E+02  0.45594000000E+02  0.51100000000E-03 0. -1.
         11   -1    0    0    0    0 -0.00000000000E+00 -0.00000000000E+00 -0.45593999997E+02  0.45594000000E+02  0.51100000000E-03 0.  1.
    9900012    2    1    2    0    0  0.34789478086E+00  0.65912778092E+00 -0.91516221049E+00  0.90007744908E+02  0.90000006341E+02 0.  0.
        -12    1    1    2    0    0 -0.34789478086E+00 -0.65912778092E+00  0.91516221049E+00  0.11802550918E+01  0.00000000000E+00 0.  1.
         11    1    3    3    0    0 -0.50671650778E+01  0.53440531969E+01 -0.66103746354E+01  0.98960658637E+01  0.51100000000E-03 0. -1.
        -11    1    3    3    0    0  0.72519797382E+01 -0.33653429981E+02 -0.21291430720E+02  0.40478013562E+02  0.51100000000E-03 0.  1.
         12    1    3    3    0    0 -0.18369198795E+01  0.28968504565E+02  0.26986643145E+02  0.39633665482E+02  0.00000000000E+00 0. -1.
</event>
<event>
 7    1  0.2879200E-015  0.9000775E+02  0.7816164E-02  0.1186339E+00
        -11   -1    0    0    0    0  0.00000000000E+00  0.00000000000E+00  0.45593999997E+02  0.45594000000E+02  0.51100000000E-03 0.  1.
         11   -1    0    0    0    0 -0.00000000000E+00 -0.00000000000E+00 -0.45593999997E+02  0.45594000000E+02  0.51100000000E-03 0. -1.
    9900012    2    1    2    0    0 -0.31078525853E+00  0.93860072548E+00 -0.64454282041E+00  0.90007748228E+02  0.90000009704E+02 0.  0.
        -12    1    1    2    0    0  0.31078525853E+00 -0.93860072548E+00  0.64454282041E+00  0.11802517724E+01  0.00000000000E+00 0.  1.
         11    1    3    3    0    0  0.31677409171E+01  0.80371662869E+01  0.39588540064E+00  0.86479679667E+01  0.51100000000E-03 0. -1.
        -11    1    3    3    0    0 -0.31217684544E+02  0.22713333734E+02  0.85115405760E+01  0.39533348971E+02  0.51100000000E-03 0.  1.
         12    1    3    3    0    0  0.27739158368E+02 -0.29811899296E+02 -0.95519687971E+01  0.41826431290E+02  0.00000000000E+00 0. -1.
</event>
<event>
 7    1  0.2879200E-015  0.9000738E+02  0.7816164E-02  0.1186340E+00
        -11   -1    0    0    0    0  0.00000000000E+00  0.00000000000E+00  0.45593999997E+02  0.45594000000E+02  0.51100000000E-03 0.  1.
         11   -1    0    0    0    0 -0.00000000000E+00 -0.00000000000E+00 -0.45593999997E+02  0.45594000000E+02  0.51100000000E-03 0. -1.
    9900012    2    1    2    0    0  0.53481305780E+00 -0.67674244957E+00 -0.80613089350E+00  0.90007384751E+02  0.89999641429E+02 0.  0.
        -12    1    1    2    0    0 -0.53481305780E+00  0.67674244957E+00  0.80613089350E+00  0.11806152495E+01  0.00000000000E+00 0.  1.
         11    1    3    3    0    0  0.13623528175E+02 -0.12946691840E+02 -0.12492081439E+02  0.22566999102E+02  0.51100000000E-03 0. -1.
        -11    1    3    3    0    0  0.18977236077E+02 -0.88162357268E+01 -0.10180592921E+02  0.23270280918E+02  0.51100000000E-03 0.  1.
         12    1    3    3    0    0 -0.32065951194E+02  0.21086185117E+02  0.21866543466E+02  0.44170104731E+02  0.00000000000E+00 0. -1.
</event>
<event>
 7    1  0.3227569E-015  0.9000779E+02  0.7816164E-02  0.1186339E+00
        -11   -1    0    0    0    0  0.00000000000E+00  0.00000000000E+00  0.45593999997E+02  0.45594000000E+02  0.51100000000E-03 0. -1.
         11   -1    0    0    0    0 -0.00000000000E+00 -0.00000000000E+00 -0.45593999997E+02  0.45594000000E+02  0.51100000000E-03 0.  1.
    9900012    2    1    2    0    0  0.77845321243E+00  0.67586758047E+00  0.57455310646E+00  0.90007789145E+02  0.90000051162E+02 0.  0.
        -12    1    1    2    0    0 -0.77845321243E+00 -0.67586758047E+00 -0.57455310646E+00  0.11802108551E+01  0.00000000000E+00 0.  1.
         11    1    3    3    0    0  0.15228821149E+02  0.19619167073E+02  0.29225458678E+02  0.38353046104E+02  0.51100000000E-03 0. -1.
        -11    1    3    3    0    0 -0.57610437014E+01  0.71765029079E+01  0.30267934792E+01  0.96877911592E+01  0.51100000000E-03 0.  1.
        -12    1    3    3    0    0 -0.86893242353E+01 -0.26119802400E+02 -0.31677699051E+02  0.41966951882E+02  0.00000000000E+00 0.  1.
</event>
<event>
 7    1  0.2879200E-015  0.9000786E+02  0.7816164E-02  0.1186339E+00
        -11   -1    0    0    0    0  0.00000000000E+00  0.00000000000E+00  0.45593999997E+02  0.45594000000E+02  0.51100000000E-03 0.  1.
         11   -1    0    0    0    0 -0.00000000000E+00 -0.00000000000E+00 -0.45593999997E+02  0.45594000000E+02  0.51100000000E-03 0. -1.
    9900012    2    1    2    0    0  0.37347570601E+00 -0.44784891264E+00 -0.10260056278E+01  0.90007855814E+02  0.90000118711E+02 0.  0.
        -12    1    1    2    0    0 -0.37347570601E+00  0.44784891264E+00  0.10260056278E+01  0.11801441860E+01  0.00000000000E+00 0.  1.
         11    1    3    3    0    0  0.92381883115E+01  0.37562177933E+01 -0.74796554261E+01  0.12465895112E+02  0.51100000000E-03 0. -1.
        -11    1    3    3    0    0  0.27176158572E+02 -0.85601759872E+01 -0.18063095150E+02  0.33735672727E+02  0.51100000000E-03 0.  1.
         12    1    3    3    0    0 -0.36040871177E+02  0.43561092812E+01  0.24516744948E+02  0.43806287975E+02  0.00000000000E+00 0. -1.
</event>
<event>
 7    1  0.2879200E-015  0.9000772E+02  0.7816164E-02  0.1186339E+00
        -11   -1    0    0    0    0  0.00000000000E+00  0.00000000000E+00  0.45593999997E+02  0.45594000000E+02  0.51100000000E-03 0.  1.
         11   -1    0    0    0    0 -0.00000000000E+00 -0.00000000000E+00 -0.45593999997E+02  0.45594000000E+02  0.51100000000E-03 0. -1.
    9900012    2    1    2    0    0  0.13161026475E+00  0.43411008086E+00 -0.10896228785E+01  0.90007724252E+02  0.89999985412E+02 0.  0.
        -12    1    1    2    0    0 -0.13161026475E+00 -0.43411008086E+00  0.10896228785E+01  0.11802757481E+01  0.00000000000E+00 0.  1.
         11    1    3    3    0    0  0.60110714600E+01 -0.10044118392E+02 -0.55385944718E+01  0.12949645684E+02  0.51100000000E-03 0. -1.
        -11    1    3    3    0    0 -0.27556148029E+01 -0.15479591782E+02 -0.29964700257E+02  0.33839244029E+02  0.51100000000E-03 0.  1.
         12    1    3    3    0    0 -0.31238463924E+01  0.25957820255E+02  0.34413671850E+02  0.43218834539E+02  0.00000000000E+00 0. -1.
</event>
<event>
 7    1  0.2879200E-015  0.9000780E+02  0.7816164E-02  0.1186339E+00
        -11   -1    0    0    0    0  0.00000000000E+00  0.00000000000E+00  0.45593999997E+02  0.45594000000E+02  0.51100000000E-03 0.  1.
         11   -1    0    0    0    0 -0.00000000000E+00 -0.00000000000E+00 -0.45593999997E+02  0.45594000000E+02  0.51100000000E-03 0. -1.
    9900012    2    1    2    0    0 -0.41610075289E+00  0.71629112798E+00 -0.84062995111E+00  0.90007800216E+02  0.90000062378E+02 0.  0.
        -12    1    1    2    0    0  0.41610075289E+00 -0.71629112798E+00  0.84062995111E+00  0.11801997845E+01  0.00000000000E+00 0.  1.
         11    1    3    3    0    0 -0.35907505840E+02  0.11435699732E+01 -0.62289470008E+01  0.36461712918E+02  0.51100000000E-03 0. -1.
        -11    1    3    3    0    0 -0.57061745529E+01  0.67299342195E+01 -0.54225775731E+01  0.10356485428E+02  0.51100000000E-03 0.  1.
        -12    1    3    3    0    0  0.41197579640E+02 -0.71572130647E+01  0.10810894623E+02  0.43189601869E+02  0.00000000000E+00 0.  1.
</event>
<event>
 7    1  0.2879200E-015  0.9000776E+02  0.7816164E-02  0.1186339E+00
        -11   -1    0    0    0    0  0.00000000000E+00  0.00000000000E+00  0.45593999997E+02  0.45594000000E+02  0.51100000000E-03 0.  1.
         11   -1    0    0    0    0 -0.00000000000E+00 -0.00000000000E+00 -0.45593999997E+02  0.45594000000E+02  0.51100000000E-03 0. -1.
    9900012    2    1    2    0    0  0.47263011559E+00 -0.99591205016E+00 -0.42158771100E+00  0.90007764330E+02  0.90000026020E+02 0.  0.
        -12    1    1    2    0    0 -0.47263011559E+00  0.99591205016E+00  0.42158771100E+00  0.11802356696E+01  0.00000000000E+00 0.  1.
         11    1    3    3    0    0  0.30042647932E+02  0.30203758507E+02  0.70294401675E-01  0.42600852858E+02  0.51100000000E-03 0. -1.
        -11    1    3    3    0    0 -0.65002297412E+01 -0.93008237621E+00  0.58850313146E+01  0.88176886852E+01  0.51100000000E-03 0.  1.
        -12    1    3    3    0    0 -0.23069788075E+02 -0.30269588181E+02 -0.63769134273E+01  0.38589222787E+02  0.00000000000E+00 0.  1.
</event>
<event>
 7    1  0.2879200E-015  0.9000796E+02  0.7816164E-02  0.1186339E+00
        -11   -1    0    0    0    0  0.00000000000E+00  0.00000000000E+00  0.45593999997E+02  0.45594000000E+02  0.51100000000E-03 0.  1.
         11   -1    0    0    0    0 -0.00000000000E+00 -0.00000000000E+00 -0.45593999997E+02  0.45594000000E+02  0.51100000000E-03 0. -1.
    9900012    2    1    2    0    0  0.11559178525E+01 -0.18018657913E+00 -0.15455744866E+00  0.90007957081E+02  0.90000221315E+02 0.  0.
        -12    1    1    2    0    0 -0.11559178525E+01  0.18018657913E+00  0.15455744866E+00  0.11800429187E+01  0.00000000000E+00 0.  1.
         11    1    3    3    0    0  0.14075322681E+02  0.22660257422E+02 -0.29232435445E+02  0.39574452079E+02  0.51100000000E-03 0. -1.
        -11    1    3    3    0    0 -0.86917088352E+01  0.60182992273E+01  0.22583831436E+01  0.10810458952E+02  0.51100000000E-03 0.  1.
        -12    1    3    3    0    0 -0.42276959932E+01 -0.28858743229E+02  0.26819494853E+02  0.39623046051E+02  0.00000000000E+00 0.  1.
</event>
<event>
 7    1  0.2879200E-015  0.9000775E+02  0.7816164E-02  0.1186339E+00
        -11   -1    0    0    0    0  0.00000000000E+00  0.00000000000E+00  0.45593999997E+02  0.45594000000E+02  0.51100000000E-03 0. -1.
         11   -1    0    0    0    0 -0.00000000000E+00 -0.00000000000E+00 -0.45593999997E+02  0.45594000000E+02  0.51100000000E-03 0.  1.
    9900012    2    1    2    0    0  0.76236409291E+00  0.10256238662E+00  0.89514441015E+00  0.90007745126E+02  0.90000006561E+02 0.  0.
        -12    1    1    2    0    0 -0.76236409291E+00 -0.10256238662E+00 -0.89514441015E+00  0.11802548743E+01  0.00000000000E+00 0.  1.
         11    1    3    3    0    0 -0.44611462831E+01  0.44610942863E+01  0.66770635666E+01  0.91862052298E+01  0.51100000000E-03 0. -1.
        -11    1    3    3    0    0  0.26210159260E+02 -0.18748051829E+02  0.25070940573E+02  0.40829082249E+02  0.51100000000E-03 0.  1.
         12    1    3    3    0    0 -0.20986648884E+02  0.14389519929E+02 -0.30852859729E+02  0.39992457647E+02  0.00000000000E+00 0. -1.
</event>
<event>
 7    1  0.3930382E-015  0.9000770E+02  0.7816164E-02  0.1186339E+00
        -11   -1    0    0    0    0  0.00000000000E+00  0.00000000000E+00  0.45593999997E+02  0.45594000000E+02  0.51100000000E-03 0. -1.
         11   -1    0    0    0    0 -0.00000000000E+00 -0.00000000000E+00 -0.45593999997E+02  0.45594000000E+02  0.51100000000E-03 0.  1.
    9900012    2    1    2    0    0 -0.24673904631E-01 -0.10133387790E+01  0.60468791900E+00  0.90007698444E+02  0.89999959264E+02 0.  0.
        -12    1    1    2    0    0  0.24673904631E-01  0.10133387790E+01 -0.60468791900E+00  0.11803015556E+01  0.00000000000E+00 0.  1.
         11    1    3    3    0    0 -0.27098827979E+02 -0.95814930791E+01  0.26566297489E+02  0.39139745144E+02  0.51100000000E-03 0. -1.
        -11    1    3    3    0    0  0.42468738225E+01  0.23410836963E+01  0.80724358766E+01  0.94170500360E+01  0.51100000000E-03 0.  1.
        -12    1    3    3    0    0  0.22827280252E+02  0.62270706038E+01 -0.34034045446E+02  0.41450903264E+02  0.00000000000E+00 0.  1.
</event>
<event>
 7    1  0.2879200E-015  0.9000779E+02  0.7816164E-02  0.1186339E+00
        -11   -1    0    0    0    0  0.00000000000E+00  0.00000000000E+00  0.45593999997E+02  0.45594000000E+02  0.51100000000E-03 0. -1.
         11   -1    0    0    0    0 -0.00000000000E+00 -0.00000000000E+00 -0.45593999997E+02  0.45594000000E+02  0.51100000000E-03 0.  1.
    9900012    2    1    2    0    0 -0.57899761105E+00 -0.24330355606E+00  0.99922478295E+00  0.90007794501E+02  0.90000056588E+02 0.  0.
        -12    1    1    2    0    0  0.57899761105E+00  0.24330355606E+00 -0.99922478295E+00  0.11802054994E+01  0.00000000000E+00 0.  1.
         11    1    3    3    0    0 -0.20802646584E+02  0.31046660979E+01 -0.29792255913E+02  0.36468720421E+02  0.51100000000E-03 0. -1.
        -11    1    3    3    0    0 -0.15974527186E+01  0.14593837141E+02  0.15761110552E+02  0.21539371945E+02  0.51100000000E-03 0.  1.
        -12    1    3    3    0    0  0.21821101691E+02 -0.17941806795E+02  0.15030370144E+02  0.31999702135E+02  0.00000000000E+00 0.  1.
</event>
<event>
 7    1  0.2879200E-015  0.9000769E+02  0.7816164E-02  0.1186339E+00
        -11   -1    0    0    0    0  0.00000000000E+00  0.00000000000E+00  0.45593999997E+02  0.45594000000E+02  0.51100000000E-03 0.  1.
         11   -1    0    0    0    0 -0.00000000000E+00 -0.00000000000E+00 -0.45593999997E+02  0.45594000000E+02  0.51100000000E-03 0. -1.
    9900012    2    1    2    0    0 -0.49499515508E+00  0.84720701720E+00 -0.65601023884E+00  0.90007690987E+02  0.89999951708E+02 0.  0.
        -12    1    1    2    0    0  0.49499515508E+00 -0.84720701720E+00  0.65601023884E+00  0.11803090134E+01  0.00000000000E+00 0.  1.
         11    1    3    3    0    0  0.29569133971E+02 -0.17611096715E+02  0.16645853462E+01  0.34456570577E+02  0.51100000000E-03 0. -1.
        -11    1    3    3    0    0  0.10341616554E+02  0.48414908997E+01 -0.57313077914E+01  0.12776421891E+02  0.51100000000E-03 0.  1.
        -12    1    3    3    0    0 -0.40405745679E+02  0.13616812833E+02  0.34107122064E+01  0.42774698519E+02  0.00000000000E+00 0.  1.
</event>
<event>
 7    1  0.2879200E-015  0.9000713E+02  0.7816164E-02  0.1186340E+00
        -11   -1    0    0    0    0  0.00000000000E+00  0.00000000000E+00  0.45593999997E+02  0.45594000000E+02  0.51100000000E-03 0.  1.
         11   -1    0    0    0    0 -0.00000000000E+00 -0.00000000000E+00 -0.45593999997E+02  0.45594000000E+02  0.51100000000E-03 0. -1.
    9900012    2    1    2    0    0 -0.30829289491E+00 -0.39038256589E+00 -0.10709904693E+01  0.90007125899E+02  0.89999379159E+02 0.  0.
        -12    1    1    2    0    0  0.30829289491E+00  0.39038256589E+00  0.10709904693E+01  0.11808741009E+01  0.00000000000E+00 0.  1.
         11    1    3    3    0    0 -0.23070351229E+01 -0.56140926026E+01 -0.82529753176E+01  0.10244610713E+02  0.51100000000E-03 0. -1.
        -11    1    3    3    0    0  0.26178862642E+02 -0.24153174483E+02 -0.11427225600E+02  0.37407087189E+02  0.51100000000E-03 0.  1.
         12    1    3    3    0    0 -0.24180120414E+02  0.29376884519E+02  0.18609210448E+02  0.42355427997E+02  0.00000000000E+00 0. -1.
</event>
<event>
 7    1  0.2879200E-015  0.9000775E+02  0.7816164E-02  0.1186339E+00
        -11   -1    0    0    0    0  0.00000000000E+00  0.00000000000E+00  0.45593999997E+02  0.45594000000E+02  0.51100000000E-03 0. -1.
         11   -1    0    0    0    0 -0.00000000000E+00 -0.00000000000E+00 -0.45593999997E+02  0.45594000000E+02  0.51100000000E-03 0.  1.
    9900012    2    1    2    0    0  0.36991308997E+00 -0.11120431104E+01  0.13968277579E+00  0.90007751360E+02  0.90000012878E+02 0.  0.
        -12    1    1    2    0    0 -0.36991308997E+00  0.11120431104E+01 -0.13968277579E+00  0.11802486397E+01  0.00000000000E+00 0.  1.
         11    1    3    3    0    0 -0.12721942037E+02  0.94068356913E+01 -0.33163882171E+01  0.16165852838E+02  0.51100000000E-03 0. -1.
        -11    1    3    3    0    0 -0.82245189541E+01  0.89777803271E+01 -0.28362836698E+02  0.30865737598E+02  0.51100000000E-03 0.  1.
         12    1    3    3    0    0  0.21316374081E+02 -0.19496659129E+02  0.31818907691E+02  0.42976160924E+02  0.00000000000E+00 0. -1.
</event>
<event>
 7    1  0.2879200E-015  0.9000843E+02  0.7816164E-02  0.1186338E+00
        -11   -1    0    0    0    0  0.00000000000E+00  0.00000000000E+00  0.45593999997E+02  0.45594000000E+02  0.51100000000E-03 0. -1.
         11   -1    0    0    0    0 -0.00000000000E+00 -0.00000000000E+00 -0.45593999997E+02  0.45594000000E+02  0.51100000000E-03 0.  1.
    9900012    2    1    2    0    0  0.75720410425E-01  0.10249104696E+01  0.57897124879E+00  0.90008431113E+02  0.90000701601E+02 0.  0.
        -12    1    1    2    0    0 -0.75720410425E-01 -0.10249104696E+01 -0.57897124879E+00  0.11795688866E+01  0.00000000000E+00 0.  1.
         11    1    3    3    0    0  0.21738238126E+02  0.27299827858E+02 -0.11288584074E+02  0.36677837021E+02  0.51100000000E-03 0. -1.
        -11    1    3    3    0    0 -0.29134813702E+01  0.61805691710E+01 -0.83134870416E+01  0.10761128009E+02  0.51100000000E-03 0.  1.
         12    1    3    3    0    0 -0.18749036346E+02 -0.32455486560E+02  0.20181042364E+02  0.42569466083E+02  0.00000000000E+00 0. -1.
</event>
<event>
 7    1  0.2879200E-015  0.9000759E+02  0.7816164E-02  0.1186339E+00
        -11   -1    0    0    0    0  0.00000000000E+00  0.00000000000E+00  0.45593999997E+02  0.45594000000E+02  0.51100000000E-03 0. -1.
         11   -1    0    0    0    0 -0.00000000000E+00 -0.00000000000E+00 -0.45593999997E+02  0.45594000000E+02  0.51100000000E-03 0.  1.
    9900012    2    1    2    0    0  0.55498228485E+00 -0.63371298685E+00  0.82690411570E+00  0.90007589943E+02  0.89999849330E+02 0.  0.
        -12    1    1    2    0    0 -0.55498228485E+00  0.63371298685E+00 -0.82690411570E+00  0.11804100570E+01  0.00000000000E+00 0.  1.
         11    1    3    3    0    0 -0.12139722271E+02 -0.10476529980E+02  0.21639831197E+02  0.26933489037E+02  0.51100000000E-03 0. -1.
        -11    1    3    3    0    0 -0.16700979092E+02 -0.13628929890E+02 -0.42447737852E+01  0.21970173812E+02  0.51100000000E-03 0.  1.
        -12    1    3    3    0    0  0.29395683648E+02  0.23471746884E+02 -0.16568153296E+02  0.41103927094E+02  0.00000000000E+00 0.  1.
</event>
<event>
 7    1  0.2879200E-015  0.9000776E+02  0.7816164E-02  0.1186339E+00
        -11   -1    0    0    0    0  0.00000000000E+00  0.00000000000E+00  0.45593999997E+02  0.45594000000E+02  0.51100000000E-03 0. -1.
         11   -1    0    0    0    0 -0.00000000000E+00 -0.00000000000E+00 -0.45593999997E+02  0.45594000000E+02  0.51100000000E-03 0.  1.
    9900012    2    1    2    0    0  0.11300562965E+00  0.23815398521E+00  0.11504288995E+01  0.90007756701E+02  0.90000018289E+02 0.  0.
        -12    1    1    2    0    0 -0.11300562965E+00 -0.23815398521E+00 -0.11504288995E+01  0.11802432994E+01  0.00000000000E+00 0.  1.
         11    1    3    3    0    0 -0.11877536898E+02  0.11004474585E+02  0.32386195689E+02  0.36208286554E+02  0.51100000000E-03 0. -1.
        -11    1    3    3    0    0  0.56254359318E+01  0.90190110582E+01  0.52147210899E+01  0.11839822896E+02  0.51100000000E-03 0.  1.
        -12    1    3    3    0    0  0.63651065958E+01 -0.19785331658E+02 -0.36450487880E+02  0.41959647251E+02  0.00000000000E+00 0.  1.
</event>
<event>
 7    1  0.2879200E-015  0.9000761E+02  0.7816164E-02  0.1186339E+00
        -11   -1    0    0    0    0  0.00000000000E+00  0.00000000000E+00  0.45593999997E+02  0.45594000000E+02  0.51100000000E-03 0.  1.
         11   -1    0    0    0    0 -0.00000000000E+00 -0.00000000000E+00 -0.45593999997E+02  0.45594000000E+02  0.51100000000E-03 0. -1.
    9900012    2    1    2    0    0 -0.13159177041E-01 -0.57093798028E-01 -0.11789351730E+01  0.90007609807E+02  0.89999869456E+02 0.  0.
        -12    1    1    2    0    0  0.13159177041E-01  0.57093798028E-01  0.11789351730E+01  0.11803901931E+01  0.00000000000E+00 0.  1.
         11    1    3    3    0    0 -0.75009314519E+01 -0.64603285220E+01 -0.45712128105E+00  0.99100341768E+01  0.51100000000E-03 0. -1.
        -11    1    3    3    0    0 -0.18901752437E+02 -0.28687638773E+02 -0.87770139217E+01  0.35458325358E+02  0.51100000000E-03 0.  1.
         12    1    3    3    0    0  0.26389524711E+02  0.35090873497E+02  0.80552000297E+01  0.44639250272E+02  0.00000000000E+00 0. -1.
</event>
<event>
 7    1  0.2879200E-015  0.9000771E+02  0.7816164E-02  0.1186339E+00
        -11   -1    0    0    0    0  0.00000000000E+00  0.00000000000E+00  0.45593999997E+02  0.45594000000E+02  0.51100000000E-03 0.  1.
         11   -1    0    0    0    0 -0.00000000000E+00 -0.00000000000E+00 -0.45593999997E+02  0.45594000000E+02  0.51100000000E-03 0. -1.
    9900012    2    1    2    0    0 -0.15763334242E+00 -0.46453352281E+00 -0.10735247104E+01  0.90007705559E+02  0.89999966472E+02 0.  0.
        -12    1    1    2    0    0  0.15763334242E+00  0.46453352281E+00  0.10735247104E+01  0.11802944414E+01  0.00000000000E+00 0.  1.
         11    1    3    3    0    0  0.32660631957E+02 -0.16846033019E+02 -0.16325706356E+02  0.40212366214E+02  0.51100000000E-03 0. -1.
        -11    1    3    3    0    0  0.45161465783E+01  0.20566753214E+01  0.76075098700E+01  0.90829345466E+01  0.51100000000E-03 0.  1.
        -12    1    3    3    0    0 -0.37334411877E+02  0.14324824175E+02  0.76446717752E+01  0.40712404798E+02  0.00000000000E+00 0.  1.
</event>
<event>
 7    1  0.2879200E-015  0.9000763E+02  0.7816164E-02  0.1186339E+00
        -11   -1    0    0    0    0  0.00000000000E+00  0.00000000000E+00  0.45593999997E+02  0.45594000000E+02  0.51100000000E-03 0. -1.
         11   -1    0    0    0    0 -0.00000000000E+00 -0.00000000000E+00 -0.45593999997E+02  0.45594000000E+02  0.51100000000E-03 0.  1.
    9900012    2    1    2    0    0 -0.85754476394E+00 -0.30694937939E-01  0.81052697967E+00  0.90007627522E+02  0.89999887406E+02 0.  0.
        -12    1    1    2    0    0  0.85754476394E+00  0.30694937939E-01 -0.81052697967E+00  0.11803724777E+01  0.00000000000E+00 0.  1.
         11    1    3    3    0    0  0.18318051260E+02 -0.25478917430E+02  0.11604832988E+02  0.33457411500E+02  0.51100000000E-03 0. -1.
        -11    1    3    3    0    0  0.15011573391E+02  0.64427609276E+01 -0.19875226305E+01  0.16456207052E+02  0.51100000000E-03 0.  1.
        -12    1    3    3    0    0 -0.34187169415E+02  0.19005461564E+02 -0.88067833777E+01  0.40094008971E+02  0.00000000000E+00 0.  1.
</event>
<event>
 7    1  0.2879200E-015  0.9000776E+02  0.7816164E-02  0.1186339E+00
        -11   -1    0    0    0    0  0.00000000000E+00  0.00000000000E+00  0.45593999997E+02  0.45594000000E+02  0.51100000000E-03 0.  1.
         11   -1    0    0    0    0 -0.00000000000E+00 -0.00000000000E+00 -0.45593999997E+02  0.45594000000E+02  0.51100000000E-03 0. -1.
    9900012    2    1    2    0    0 -0.11157169344E+01 -0.98421042026E-01 -0.37209632116E+00  0.90007759918E+02  0.90000021549E+02 0.  0.
        -12    1    1    2    0    0  0.11157169344E+01  0.98421042026E-01  0.37209632116E+00  0.11802400821E+01  0.00000000000E+00 0.  1.
         11    1    3    3    0    0 -0.59648201308E+01  0.28260074734E+00  0.12815062309E+02  0.14138060851E+02  0.51100000000E-03 0. -1.
        -11    1    3    3    0    0 -0.20055196323E+02 -0.20123042816E+02  0.16097919382E+02  0.32654107864E+02  0.51100000000E-03 0.  1.
         12    1    3    3    0    0  0.24904299519E+02  0.19742021027E+02 -0.29285078013E+02  0.43215591202E+02  0.00000000000E+00 0. -1.
</event>
<event>
 7    1  0.2926053E-015  0.9000766E+02  0.7816164E-02  0.1186339E+00
        -11   -1    0    0    0    0  0.00000000000E+00  0.00000000000E+00  0.45593999997E+02  0.45594000000E+02  0.51100000000E-03 0.  1.
         11   -1    0    0    0    0 -0.00000000000E+00 -0.00000000000E+00 -0.45593999997E+02  0.45594000000E+02  0.51100000000E-03 0. -1.
    9900012    2    1    2    0    0 -0.55375187780E+00  0.27931689831E+00 -0.10042613653E+01  0.90007661082E+02  0.89999921408E+02 0.  0.
        -12    1    1    2    0    0  0.55375187780E+00 -0.27931689831E+00  0.10042613653E+01  0.11803389181E+01  0.00000000000E+00 0.  1.
         11    1    3    3    0    0  0.17116326545E+01 -0.39551902144E+02 -0.15672169304E+02  0.42578158021E+02  0.51100000000E-03 0. -1.
        -11    1    3    3    0    0 -0.23394223552E+01  0.72123954788E+01 -0.52387245921E+01  0.92160610410E+01  0.51100000000E-03 0.  1.
        -12    1    3    3    0    0  0.74037822872E-01  0.32618823563E+02  0.19906632531E+02  0.38213442020E+02  0.00000000000E+00 0.  1.
</event>
<event>
 7    1  0.2879200E-015  0.9000775E+02  0.7816164E-02  0.1186339E+00
        -11   -1    0    0    0    0  0.00000000000E+00  0.00000000000E+00  0.45593999997E+02  0.45594000000E+02  0.51100000000E-03 0. -1.
         11   -1    0    0    0    0 -0.00000000000E+00 -0.00000000000E+00 -0.45593999997E+02  0.45594000000E+02  0.51100000000E-03 0.  1.
    9900012    2    1    2    0    0 -0.16841486057E-01  0.70310670304E-01  0.11780357702E+01  0.90007747696E+02  0.90000009165E+02 0.  0.
        -12    1    1    2    0    0  0.16841486057E-01 -0.70310670304E-01 -0.11780357702E+01  0.11802523043E+01  0.00000000000E+00 0.  1.
         11    1    3    3    0    0  0.10133807386E+02  0.31498669094E+02  0.53038976027E+01  0.33511065887E+02  0.51100000000E-03 0. -1.
        -11    1    3    3    0    0 -0.24937269946E+02 -0.12042306890E+02 -0.12945241018E+02  0.30569001503E+02  0.51100000000E-03 0.  1.
         12    1    3    3    0    0  0.14786621074E+02 -0.19386051534E+02  0.88193791853E+01  0.25927680306E+02  0.00000000000E+00 0. -1.
</event>
<event>
 7    1  0.2879200E-015  0.9000775E+02  0.7816164E-02  0.1186339E+00
        -11   -1    0    0    0    0  0.00000000000E+00  0.00000000000E+00  0.45593999997E+02  0.45594000000E+02  0.51100000000E-03 0. -1.
         11   -1    0    0    0    0 -0.00000000000E+00 -0.00000000000E+00 -0.45593999997E+02  0.45594000000E+02  0.51100000000E-03 0.  1.
    9900012    2    1    2    0    0 -0.50159022949E+00  0.68814626318E+00  0.81722535598E+00  0.90007747773E+02  0.90000009243E+02 0.  0.
        -12    1    1    2    0    0  0.50159022949E+00 -0.68814626318E+00 -0.81722535598E+00  0.11802522274E+01  0.00000000000E+00 0.  1.
         11    1    3    3    0    0 -0.52231203200E+01  0.74287792947E+01 -0.10171010743E+01  0.91379561470E+01  0.51100000000E-03 0. -1.
        -11    1    3    3    0    0  0.60238641132E+00  0.24924823184E+02 -0.27774027734E+02  0.37322999571E+02  0.51100000000E-03 0.  1.
         12    1    3    3    0    0  0.41191436792E+01 -0.31665456215E+02  0.29608354164E+02  0.43546792055E+02  0.00000000000E+00 0. -1.
</event>
<event>
 7    1  0.2879200E-015  0.9000726E+02  0.7816164E-02  0.1186340E+00
        -11   -1    0    0    0    0  0.00000000000E+00  0.00000000000E+00  0.45593999997E+02  0.45594000000E+02  0.51100000000E-03 0. -1.
         11   -1    0    0    0    0 -0.00000000000E+00 -0.00000000000E+00 -0.45593999997E+02  0.45594000000E+02  0.51100000000E-03 0.  1.
    9900012    2    1    2    0    0 -0.11566332656E+01 -0.23621833774E+00 -0.23288611603E-01  0.90007262106E+02  0.89999517165E+02 0.  0.
        -12    1    1    2    0    0  0.11566332656E+01  0.23621833774E+00  0.23288611603E-01  0.11807378937E+01  0.00000000000E+00 0.  1.
         11    1    3    3    0    0  0.45888667401E+01 -0.35059609129E+01 -0.70637720326E+01  0.91239429783E+01  0.51100000000E-03 0. -1.
        -11    1    3    3    0    0  0.26731705247E+02  0.19366418736E+02 -0.17254339124E+02  0.37247207398E+02  0.51100000000E-03 0.  1.
         12    1    3    3    0    0 -0.32477205253E+02 -0.16096676161E+02  0.24294822545E+02  0.43636111730E+02  0.00000000000E+00 0. -1.
</event>
<event>
 7    1  0.2879200E-015  0.9000773E+02  0.7816164E-02  0.1186339E+00
        -11   -1    0    0    0    0  0.00000000000E+00  0.00000000000E+00  0.45593999997E+02  0.45594000000E+02  0.51100000000E-03 0.  1.
         11   -1    0    0    0    0 -0.00000000000E+00 -0.00000000000E+00 -0.45593999997E+02  0.45594000000E+02  0.51100000000E-03 0. -1.
    9900012    2    1    2    0    0  0.60383083892E+00  0.73917670075E+00  0.69428664892E+00  0.90007734001E+02  0.89999995290E+02 0.  0.
        -12    1    1    2    0    0 -0.60383083892E+00 -0.73917670075E+00 -0.69428664892E+00  0.11802659988E+01  0.00000000000E+00 0.  1.
         11    1    3    3    0    0  0.11335221858E+02 -0.39464429658E+02 -0.64069816456E+01  0.41556923333E+02  0.51100000000E-03 0. -1.
        -11    1    3    3    0    0  0.28667909930E+01  0.60002663443E+01 -0.64154270078E+01  0.92400969018E+01  0.51100000000E-03 0.  1.
        -12    1    3    3    0    0 -0.13598182012E+02  0.34203340015E+02  0.13516695302E+02  0.39210713767E+02  0.00000000000E+00 0.  1.
</event>
<event>
 7    1  0.2879200E-015  0.9000778E+02  0.7816164E-02  0.1186339E+00
        -11   -1    0    0    0    0  0.00000000000E+00  0.00000000000E+00  0.45593999997E+02  0.45594000000E+02  0.51100000000E-03 0.  1.
         11   -1    0    0    0    0 -0.00000000000E+00 -0.00000000000E+00 -0.45593999997E+02  0.45594000000E+02  0.51100000000E-03 0. -1.
    9900012    2    1    2    0    0 -0.10702531164E+01  0.15314864911E+00  0.47332060276E+00  0.90007776023E+02  0.90000037867E+02 0.  0.
        -12    1    1    2    0    0  0.10702531164E+01 -0.15314864911E+00 -0.47332060276E+00  0.11802239766E+01  0.00000000000E+00 0.  1.
         11    1    3    3    0    0 -0.10808959238E+02  0.35443438328E+02  0.21172632586E+02  0.42677292454E+02  0.51100000000E-03 0. -1.
        -11    1    3    3    0    0  0.83348221461E+01 -0.11885271028E+01 -0.45911411900E+01  0.95896003342E+01  0.51100000000E-03 0.  1.
        -12    1    3    3    0    0  0.14038839757E+01 -0.34101762577E+02 -0.16108170793E+02  0.37740883235E+02  0.00000000000E+00 0.  1.
</event>
<event>
 7    1  0.2879200E-015  0.9000769E+02  0.7816164E-02  0.1186339E+00
        -11   -1    0    0    0    0  0.00000000000E+00  0.00000000000E+00  0.45593999997E+02  0.45594000000E+02  0.51100000000E-03 0. -1.
         11   -1    0    0    0    0 -0.00000000000E+00 -0.00000000000E+00 -0.45593999997E+02  0.45594000000E+02  0.51100000000E-03 0.  1.
    9900012    2    1    2    0    0  0.10777462566E+01 -0.46232506291E+00  0.13362518634E+00  0.90007687691E+02  0.89999948368E+02 0.  0.
        -12    1    1    2    0    0 -0.10777462566E+01  0.46232506291E+00 -0.13362518634E+00  0.11803123094E+01  0.00000000000E+00 0.  1.
         11    1    3    3    0    0  0.54465165050E+01 -0.25886999267E+02 -0.25576735693E+02  0.36796340607E+02  0.51100000000E-03 0. -1.
        -11    1    3    3    0    0 -0.23544364972E+01 -0.88300238804E+01 -0.16978693553E+01  0.92949154680E+01  0.51100000000E-03 0.  1.
        -12    1    3    3    0    0 -0.20143337512E+01  0.34254698084E+02  0.27408230235E+02  0.43916431616E+02  0.00000000000E+00 0.  1.
</event>
<event>
 7    1  0.2879200E-015  0.9000770E+02  0.7816164E-02  0.1186339E+00
        -11   -1    0    0    0    0  0.00000000000E+00  0.00000000000E+00  0.45593999997E+02  0.45594000000E+02  0.51100000000E-03 0. -1.
         11   -1    0    0    0    0 -0.00000000000E+00 -0.00000000000E+00 -0.45593999997E+02  0.45594000000E+02  0.51100000000E-03 0.  1.
    9900012    2    1    2    0    0  0.76689168994E+00  0.52357295869E+00  0.72859989687E+00  0.90007699480E+02  0.89999960313E+02 0.  0.
        -12    1    1    2    0    0 -0.76689168994E+00 -0.52357295869E+00 -0.72859989687E+00  0.11803005197E+01  0.00000000000E+00 0.  1.
         11    1    3    3    0    0 -0.58076749056E+01 -0.12339063588E+01  0.78161244122E+01  0.98154680886E+01  0.51100000000E-03 0. -1.
        -11    1    3    3    0    0  0.21506304574E+01  0.39936928301E+02 -0.11212067738E+02  0.41536657506E+02  0.51100000000E-03 0.  1.
         12    1    3    3    0    0  0.44239361381E+01 -0.38179448984E+02  0.41245432231E+01  0.38655573886E+02  0.00000000000E+00 0. -1.
</event>
<event>
 7    1  0.2879200E-015  0.9000772E+02  0.7816164E-02  0.1186339E+00
        -11   -1    0    0    0    0  0.00000000000E+00  0.00000000000E+00  0.45593999997E+02  0.45594000000E+02  0.51100000000E-03 0.  1.
         11   -1    0    0    0    0 -0.00000000000E+00 -0.00000000000E+00 -0.45593999997E+02  0.45594000000E+02  0.51100000000E-03 0. -1.
    9900012    2    1    2    0    0 -0.61747666804E+00 -0.76904295707E+00 -0.64835070486E+00  0.90007719041E+02  0.89999980132E+02 0.  0.
        -12    1    1    2    0    0  0.61747666804E+00  0.76904295707E+00  0.64835070486E+00  0.11802809589E+01  0.00000000000E+00 0.  1.
         11    1    3    3    0    0  0.35222171357E+01 -0.71987217828E+01  0.25429211987E+01  0.84079758171E+01  0.51100000000E-03 0. -1.
        -11    1    3    3    0    0 -0.15687587605E+02  0.27193266851E+02  0.28221404944E+02  0.42214000808E+02  0.51100000000E-03 0.  1.
         12    1    3    3    0    0  0.11547893801E+02 -0.20763588026E+02 -0.31412676848E+02  0.39385742416E+02  0.00000000000E+00 0. -1.
</event>
<event>
 7    1  0.2879200E-015  0.9000775E+02  0.7816164E-02  0.1186339E+00
        -11   -1    0    0    0    0  0.00000000000E+00  0.00000000000E+00  0.45593999997E+02  0.45594000000E+02  0.51100000000E-03 0. -1.
         11   -1    0    0    0    0 -0.00000000000E+00 -0.00000000000E+00 -0.45593999997E+02  0.45594000000E+02  0.51100000000E-03 0.  1.
    9900012    2    1    2    0    0 -0.12860044333E+00 -0.11715372912E+01 -0.62924087790E-01  0.90007747002E+02  0.90000008462E+02 0.  0.
        -12    1    1    2    0    0  0.12860044333E+00  0.11715372912E+01  0.62924087790E-01  0.11802529981E+01  0.00000000000E+00 0.  1.
         11    1    3    3    0    0  0.20631889088E+01 -0.73413134759E+01  0.56856038818E+01  0.95119779114E+01  0.51100000000E-03 0. -1.
        -11    1    3    3    0    0  0.16014679349E+02 -0.23761932941E+02 -0.27123323194E+02  0.39455976393E+02  0.51100000000E-03 0.  1.
         12    1    3    3    0    0 -0.18206468701E+02  0.29931709126E+02  0.21374795225E+02  0.41039792698E+02  0.00000000000E+00 0. -1.
</event>
<event>
 7    1  0.2879200E-015  0.9000779E+02  0.7816164E-02  0.1186339E+00
        -11   -1    0    0    0    0  0.00000000000E+00  0.00000000000E+00  0.45593999997E+02  0.45594000000E+02  0.51100000000E-03 0. -1.
         11   -1    0    0    0    0 -0.00000000000E+00 -0.00000000000E+00 -0.45593999997E+02  0.45594000000E+02  0.51100000000E-03 0.  1.
    9900012    2    1    2    0    0  0.41417990083E+00 -0.19619416363E+00  0.10875968102E+01  0.90007786476E+02  0.90000048458E+02 0.  0.
        -12    1    1    2    0    0 -0.41417990083E+00  0.19619416363E+00 -0.10875968102E+01  0.11802135237E+01  0.00000000000E+00 0.  1.
         11    1    3    3    0    0  0.20170421695E+01 -0.45211668095E+01  0.14394859192E+02  0.15222397310E+02  0.51100000000E-03 0. -1.
        -11    1    3    3    0    0  0.21107520482E+01  0.36932223436E+02  0.48013596772E+01  0.37302780823E+02  0.51100000000E-03 0.  1.
         12    1    3    3    0    0 -0.37136143169E+01 -0.32607250790E+02 -0.18108622059E+02  0.37482608344E+02  0.00000000000E+00 0. -1.
</event>
<event>
 7    1  0.2879200E-015  0.9000774E+02  0.7816164E-02  0.1186339E+00
        -11   -1    0    0    0    0  0.00000000000E+00  0.00000000000E+00  0.45593999997E+02  0.45594000000E+02  0.51100000000E-03 0.  1.
         11   -1    0    0    0    0 -0.00000000000E+00 -0.00000000000E+00 -0.45593999997E+02  0.45594000000E+02  0.51100000000E-03 0. -1.
    9900012    2    1    2    0    0 -0.13427217406E+00 -0.21864483259E+00 -0.11520312202E+01  0.90007741337E+02  0.90000002723E+02 0.  0.
        -12    1    1    2    0    0  0.13427217406E+00  0.21864483259E+00  0.11520312202E+01  0.11802586631E+01  0.00000000000E+00 0.  1.
         11    1    3    3    0    0  0.67291947175E+01  0.83000426230E+01 -0.11607903146E+01  0.10748032541E+02  0.51100000000E-03 0. -1.
        -11    1    3    3    0    0 -0.90956547165E+01  0.29531887487E+02  0.19408860018E+02  0.36490644838E+02  0.51100000000E-03 0.  1.
         12    1    3    3    0    0  0.22321878249E+01 -0.38050574943E+02 -0.19400100923E+02  0.42769063957E+02  0.00000000000E+00 0. -1.
</event>
<event>
 7    1  0.2879200E-015  0.9000768E+02  0.7816164E-02  0.1186339E+00
        -11   -1    0    0    0    0  0.00000000000E+00  0.00000000000E+00  0.45593999997E+02  0.45594000000E+02  0.51100000000E-03 0.  1.
         11   -1    0    0    0    0 -0.00000000000E+00 -0.00000000000E+00 -0.45593999997E+02  0.45594000000E+02  0.51100000000E-03 0. -1.
    9900012    2    1    2    0    0  0.15233848576E-01  0.10202197246E+01  0.59336673243E+00  0.90007676131E+02  0.89999936656E+02 0.  0.
        -12    1    1    2    0    0 -0.15233848576E-01 -0.10202197246E+01 -0.59336673243E+00  0.11803238690E+01  0.00000000000E+00 0.  1.
         11    1    3    3    0    0 -0.79000756867E+01  0.22808894850E+01 -0.35906013801E+02  0.36835519272E+02  0.51100000000E-03 0. -1.
        -11    1    3    3    0    0  0.37942844542E+01  0.32117316804E+01 -0.73663917217E+01  0.88868184501E+01  0.51100000000E-03 0.  1.
        -12    1    3    3    0    0  0.41210250811E+01 -0.44724014407E+01  0.43865772256E+02  0.44285338408E+02  0.00000000000E+00 0.  1.
</event>
<event>
 7    1  0.2879200E-015  0.9000771E+02  0.7816164E-02  0.1186339E+00
        -11   -1    0    0    0    0  0.00000000000E+00  0.00000000000E+00  0.45593999997E+02  0.45594000000E+02  0.51100000000E-03 0.  1.
         11   -1    0    0    0    0 -0.00000000000E+00 -0.00000000000E+00 -0.45593999997E+02  0.45594000000E+02  0.51100000000E-03 0. -1.
    9900012    2    1    2    0    0  0.68473667778E+00 -0.67269462410E+00 -0.68680332472E+00  0.90007711399E+02  0.89999972389E+02 0.  0.
        -12    1    1    2    0    0 -0.68473667778E+00  0.67269462410E+00  0.68680332472E+00  0.11802886012E+01  0.00000000000E+00 0.  1.
         11    1    3    3    0    0 -0.33610636315E+02  0.40952027072E+00 -0.24156763400E+02  0.41393137095E+02  0.51100000000E-03 0. -1.
        -11    1    3    3    0    0  0.43094295593E+01  0.14198950933E+01  0.17317278096E+02  0.17901826893E+02  0.51100000000E-03 0.  1.
        -12    1    3    3    0    0  0.29985943433E+02 -0.25021099881E+01  0.61526819797E+01  0.30712747411E+02  0.00000000000E+00 0.  1.
</event>
<event>
 7    1  0.2879200E-015  0.9000775E+02  0.7816164E-02  0.1186339E+00
        -11   -1    0    0    0    0  0.00000000000E+00  0.00000000000E+00  0.45593999997E+02  0.45594000000E+02  0.51100000000E-03 0. -1.
         11   -1    0    0    0    0 -0.00000000000E+00 -0.00000000000E+00 -0.45593999997E+02  0.45594000000E+02  0.51100000000E-03 0.  1.
    9900012    2    1    2    0    0  0.10075878893E+01 -0.48761040780E+00  0.37416784368E+00  0.90007746282E+02  0.90000007733E+02 0.  0.
        -12    1    1    2    0    0 -0.10075878893E+01  0.48761040780E+00 -0.37416784368E+00  0.11802537183E+01  0.00000000000E+00 0.  1.
         11    1    3    3    0    0 -0.59530666591E+01 -0.19131631534E+02  0.30096960720E+02  0.36156401544E+02  0.51100000000E-03 0. -1.
        -11    1    3    3    0    0  0.15946092615E+01 -0.97997195474E+01  0.27973408270E+01  0.10315153798E+02  0.51100000000E-03 0.  1.
        -12    1    3    3    0    0  0.53660452868E+01  0.28443740673E+02 -0.32520133703E+02  0.43536190940E+02  0.00000000000E+00 0.  1.
</event>
<event>
 7    1  0.2879200E-015  0.9000768E+02  0.7816164E-02  0.1186339E+00
        -11   -1    0    0    0    0  0.00000000000E+00  0.00000000000E+00  0.45593999997E+02  0.45594000000E+02  0.51100000000E-03 0.  1.
         11   -1    0    0    0    0 -0.00000000000E+00 -0.00000000000E+00 -0.45593999997E+02  0.45594000000E+02  0.51100000000E-03 0. -1.
    9900012    2    1    2    0    0  0.99995651412E+00  0.69304698009E-01  0.62324729056E+00  0.90007680824E+02  0.89999941411E+02 0.  0.
        -12    1    1    2    0    0 -0.99995651412E+00 -0.69304698009E-01 -0.62324729056E+00  0.11803191757E+01  0.00000000000E+00 0.  1.
         11    1    3    3    0    0 -0.10058144590E+02 -0.18985784520E+00  0.14800141473E+01  0.10168223086E+02  0.51100000000E-03 0. -1.
        -11    1    3    3    0    0  0.30932353738E+02 -0.30244812925E+02  0.21000671329E+01  0.43312463551E+02  0.51100000000E-03 0.  1.
         12    1    3    3    0    0 -0.19874252634E+02  0.30503975468E+02 -0.29568339897E+01  0.36526994187E+02  0.00000000000E+00 0. -1.
</event>
<event>
 7    1  0.2879200E-015  0.9000772E+02  0.7816164E-02  0.1186339E+00
        -11   -1    0    0    0    0  0.00000000000E+00  0.00000000000E+00  0.45593999997E+02  0.45594000000E+02  0.51100000000E-03 0. -1.
         11   -1    0    0    0    0 -0.00000000000E+00 -0.00000000000E+00 -0.45593999997E+02  0.45594000000E+02  0.51100000000E-03 0.  1.
    9900012    2    1    2    0    0 -0.89150480142E+00  0.69208077485E+00  0.34540548719E+00  0.90007719711E+02  0.89999980811E+02 0.  0.
        -12    1    1    2    0    0  0.89150480142E+00 -0.69208077485E+00 -0.34540548719E+00  0.11802802889E+01  0.00000000000E+00 0.  1.
         11    1    3    3    0    0 -0.28420320369E+02  0.16859679609E+01  0.10318244076E+02  0.30282391895E+02  0.51100000000E-03 0. -1.
        -11    1    3    3    0    0 -0.95290165753E+01  0.50905221247E+01  0.12055041894E+02  0.16187637497E+02  0.51100000000E-03 0.  1.
        -12    1    3    3    0    0  0.37057832143E+02 -0.60844093108E+01 -0.22027880483E+02  0.43537690319E+02  0.00000000000E+00 0.  1.
</event>
<event>
 7    1  0.2879200E-015  0.9000773E+02  0.7816164E-02  0.1186339E+00
        -11   -1    0    0    0    0  0.00000000000E+00  0.00000000000E+00  0.45593999997E+02  0.45594000000E+02  0.51100000000E-03 0.  1.
         11   -1    0    0    0    0 -0.00000000000E+00 -0.00000000000E+00 -0.45593999997E+02  0.45594000000E+02  0.51100000000E-03 0. -1.
    9900012    2    1    2    0    0 -0.37080183391E+00  0.11204942371E+01 -0.67229073841E-02  0.90007726077E+02  0.89999987261E+02 0.  0.
        -12    1    1    2    0    0  0.37080183391E+00 -0.11204942371E+01  0.67229073841E-02  0.11802739228E+01  0.00000000000E+00 0.  1.
         11    1    3    3    0    0  0.57951647080E+01  0.25263998288E+01 -0.62671288748E+01  0.89018837715E+01  0.51100000000E-03 0. -1.
        -11    1    3    3    0    0 -0.28531111462E+02  0.27669022158E+02  0.16482517433E+02  0.43026416184E+02  0.51100000000E-03 0.  1.
         12    1    3    3    0    0  0.22365144920E+02 -0.29074927750E+02 -0.10222111465E+02  0.38079426122E+02  0.00000000000E+00 0. -1.
</event>
<event>
 7    1  0.2879200E-015  0.9000714E+02  0.7816164E-02  0.1186340E+00
        -11   -1    0    0    0    0  0.00000000000E+00  0.00000000000E+00  0.45593999997E+02  0.45594000000E+02  0.51100000000E-03 0. -1.
         11   -1    0    0    0    0 -0.00000000000E+00 -0.00000000000E+00 -0.45593999997E+02  0.45594000000E+02  0.51100000000E-03 0.  1.
    9900012    2    1    2    0    0  0.68971517533E+00  0.87992787084E+00  0.38005274475E+00  0.90007144306E+02  0.89999397809E+02 0.  0.
        -12    1    1    2    0    0 -0.68971517533E+00 -0.87992787084E+00 -0.38005274475E+00  0.11808556939E+01  0.00000000000E+00 0.  1.
         11    1    3    3    0    0 -0.33485962514E+02 -0.20166382967E+02  0.68658310830E+01  0.39687936759E+02  0.51100000000E-03 0. -1.
        -11    1    3    3    0    0  0.17823180448E+01 -0.54093686387E+01 -0.63029141485E+01  0.84949781464E+01  0.51100000000E-03 0.  1.
        -12    1    3    3    0    0  0.32393359644E+02  0.26455679477E+02 -0.18286418969E+00  0.41824229401E+02  0.00000000000E+00 0.  1.
</event>
<event>
 7    1  0.2879200E-015  0.9000762E+02  0.7816164E-02  0.1186339E+00
        -11   -1    0    0    0    0  0.00000000000E+00  0.00000000000E+00  0.45593999997E+02  0.45594000000E+02  0.51100000000E-03 0. -1.
         11   -1    0    0    0    0 -0.00000000000E+00 -0.00000000000E+00 -0.45593999997E+02  0.45594000000E+02  0.51100000000E-03 0.  1.
    9900012    2    1    2    0    0  0.98976576111E+00  0.56522586478E+00  0.30690496779E+00  0.90007615656E+02  0.89999875383E+02 0.  0.
        -12    1    1    2    0    0 -0.98976576111E+00 -0.56522586478E+00 -0.30690496779E+00  0.11803843439E+01  0.00000000000E+00 0.  1.
         11    1    3    3    0    0 -0.24169889753E+02 -0.12626013769E+02  0.26896128514E+02  0.38301455895E+02  0.51100000000E-03 0. -1.
        -11    1    3    3    0    0 -0.16687626827E+01  0.45982931607E+01  0.65731173157E+01  0.81935914220E+01  0.51100000000E-03 0.  1.
        -12    1    3    3    0    0  0.26828418197E+02  0.85929464727E+01 -0.33162340862E+02  0.43512568339E+02  0.00000000000E+00 0.  1.
</event>
<event>
 7    1  0.2879200E-015  0.9000770E+02  0.7816164E-02  0.1186339E+00
        -11   -1    0    0    0    0  0.00000000000E+00  0.00000000000E+00  0.45593999997E+02  0.45594000000E+02  0.51100000000E-03 0.  1.
         11   -1    0    0    0    0 -0.00000000000E+00 -0.00000000000E+00 -0.45593999997E+02  0.45594000000E+02  0.51100000000E-03 0. -1.
    9900012    2    1    2    0    0 -0.34032819660E+00 -0.72100407778E+00 -0.87030625660E+00  0.90007702096E+02  0.89999962964E+02 0.  0.
        -12    1    1    2    0    0  0.34032819660E+00  0.72100407778E+00  0.87030625660E+00  0.11802979039E+01  0.00000000000E+00 0.  1.
         11    1    3    3    0    0  0.79990386483E+01  0.20328000663E+01 -0.50669053559E+01  0.96845457071E+01  0.51100000000E-03 0. -1.
        -11    1    3    3    0    0 -0.16135725623E+02  0.34486423047E+02  0.14761552111E+02  0.40835994379E+02  0.51100000000E-03 0.  1.
         12    1    3    3    0    0  0.77963587778E+01 -0.37240227191E+02 -0.10564953012E+02  0.39487162010E+02  0.00000000000E+00 0. -1.
</event>
<event>
 7    1  0.2879200E-015  0.9000776E+02  0.7816164E-02  0.1186339E+00
        -11   -1    0    0    0    0  0.00000000000E+00  0.00000000000E+00  0.45593999997E+02  0.45594000000E+02  0.51100000000E-03 0. -1.
         11   -1    0    0    0    0 -0.00000000000E+00 -0.00000000000E+00 -0.45593999997E+02  0.45594000000E+02  0.51100000000E-03 0.  1.
    9900012    2    1    2    0    0 -0.85001227924E+00 -0.71859111309E+00  0.39252412366E+00  0.90007758817E+02  0.90000020433E+02 0.  0.
        -12    1    1    2    0    0  0.85001227924E+00  0.71859111309E+00 -0.39252412366E+00  0.11802411831E+01  0.00000000000E+00 0.  1.
         11    1    3    3    0    0  0.86894961276E+00 -0.14338465627E+01 -0.96632877410E+01  0.98076561737E+01  0.51100000000E-03 0. -1.
        -11    1    3    3    0    0  0.27053532720E+02  0.17750534173E+01 -0.23575025177E+02  0.35928070636E+02  0.51100000000E-03 0.  1.
         12    1    3    3    0    0 -0.28772494612E+02 -0.10597979677E+01  0.33630837042E+02  0.44272032007E+02  0.00000000000E+00 0. -1.
</event>
<event>
 7    1  0.3159966E-015  0.9000769E+02  0.7816164E-02  0.1186339E+00
        -11   -1    0    0    0    0  0.00000000000E+00  0.00000000000E+00  0.45593999997E+02  0.45594000000E+02  0.51100000000E-03 0. -1.
         11   -1    0    0    0    0 -0.00000000000E+00 -0.00000000000E+00 -0.45593999997E+02  0.45594000000E+02  0.51100000000E-03 0.  1.
    9900012    2    1    2    0    0 -0.17264719958E+00 -0.89196271881E+00  0.75347899188E+00  0.90007688542E+02  0.89999949230E+02 0.  0.
        -12    1    1    2    0    0  0.17264719958E+00  0.89196271881E+00 -0.75347899188E+00  0.11803114582E+01  0.00000000000E+00 0.  1.
         11    1    3    3    0    0 -0.14105526673E+01 -0.38567500140E+02  0.19065899694E+01  0.38640352114E+02  0.51100000000E-03 0. -1.
        -11    1    3    3    0    0 -0.54228902114E+01 -0.38514326670E+01 -0.60931942961E+01  0.90204372857E+01  0.51100000000E-03 0.  1.
        -12    1    3    3    0    0  0.66607956791E+01  0.41526970088E+02  0.49400833185E+01  0.42346899143E+02  0.00000000000E+00 0.  1.
</event>
<event>
 7    1  0.2879200E-015  0.9000775E+02  0.7816164E-02  0.1186339E+00
        -11   -1    0    0    0    0  0.00000000000E+00  0.00000000000E+00  0.45593999997E+02  0.45594000000E+02  0.51100000000E-03 0. -1.
         11   -1    0    0    0    0 -0.00000000000E+00 -0.00000000000E+00 -0.45593999997E+02  0.45594000000E+02  0.51100000000E-03 0.  1.
    9900012    2    1    2    0    0  0.10475635055E+01 -0.51522004503E+00  0.17362171340E+00  0.90007751936E+02  0.90000013462E+02 0.  0.
        -12    1    1    2    0    0 -0.10475635055E+01  0.51522004503E+00 -0.17362171340E+00  0.11802480638E+01  0.00000000000E+00 0.  1.
         11    1    3    3    0    0 -0.19564179264E+02 -0.26756815918E+02  0.17757689562E+02  0.37603455256E+02  0.51100000000E-03 0. -1.
        -11    1    3    3    0    0  0.27588934166E+01  0.11021563221E+01  0.10368817473E+02  0.10786038081E+02  0.51100000000E-03 0.  1.
        -12    1    3    3    0    0  0.17852849353E+02  0.25139439551E+02 -0.27952885322E+02  0.41618258599E+02  0.00000000000E+00 0.  1.
</event>
<event>
 7    1  0.2879200E-015  0.9000790E+02  0.7816164E-02  0.1186339E+00
        -11   -1    0    0    0    0  0.00000000000E+00  0.00000000000E+00  0.45593999997E+02  0.45594000000E+02  0.51100000000E-03 0.  1.
         11   -1    0    0    0    0 -0.00000000000E+00 -0.00000000000E+00 -0.45593999997E+02  0.45594000000E+02  0.51100000000E-03 0. -1.
    9900012    2    1    2    0    0 -0.99205915970E+00 -0.55536051776E+00 -0.31628018902E+00  0.90007898378E+02  0.90000161836E+02 0.  0.
        -12    1    1    2    0    0  0.99205915970E+00  0.55536051776E+00  0.31628018902E+00  0.11801016223E+01  0.00000000000E+00 0.  1.
         11    1    3    3    0    0  0.34525712489E+02  0.81721679235E+01  0.87367671854E+01  0.36539571050E+02  0.51100000000E-03 0. -1.
        -11    1    3    3    0    0  0.52577352150E+01  0.25486394222E+01 -0.95081308825E+01  0.11159923639E+02  0.51100000000E-03 0.  1.
        -12    1    3    3    0    0 -0.40775506863E+02 -0.11276167863E+02  0.45508350799E+00  0.42308403688E+02  0.00000000000E+00 0.  1.
</event>
<event>
 7    1  0.2879200E-015  0.9000773E+02  0.7816164E-02  0.1186339E+00
        -11   -1    0    0    0    0  0.00000000000E+00  0.00000000000E+00  0.45593999997E+02  0.45594000000E+02  0.51100000000E-03 0. -1.
         11   -1    0    0    0    0 -0.00000000000E+00 -0.00000000000E+00 -0.45593999997E+02  0.45594000000E+02  0.51100000000E-03 0.  1.
    9900012    2    1    2    0    0 -0.71893975765E+00  0.80035422722E+00  0.48538836614E+00  0.90007727519E+02  0.89999988722E+02 0.  0.
        -12    1    1    2    0    0  0.71893975765E+00 -0.80035422722E+00 -0.48538836614E+00  0.11802724813E+01  0.00000000000E+00 0.  1.
         11    1    3    3    0    0 -0.21146426881E+02 -0.14111308959E+02  0.32565890984E+02  0.41313891927E+02  0.51100000000E-03 0. -1.
        -11    1    3    3    0    0  0.31899576306E+01 -0.71513678968E+01 -0.31696573904E+01  0.84477583248E+01  0.51100000000E-03 0.  1.
        -12    1    3    3    0    0  0.17237529493E+02  0.22063031083E+02 -0.28910845227E+02  0.40246077266E+02  0.00000000000E+00 0.  1.
</event>
<event>
 7    1  0.2879200E-015  0.9000775E+02  0.7816164E-02  0.1186339E+00
        -11   -1    0    0    0    0  0.00000000000E+00  0.00000000000E+00  0.45593999997E+02  0.45594000000E+02  0.51100000000E-03 0.  1.
         11   -1    0    0    0    0 -0.00000000000E+00 -0.00000000000E+00 -0.45593999997E+02  0.45594000000E+02  0.51100000000E-03 0. -1.
    9900012    2    1    2    0    0  0.11647328344E+01  0.18541487373E+00 -0.44694588438E-01  0.90007754747E+02  0.90000016310E+02 0.  0.
        -12    1    1    2    0    0 -0.11647328344E+01 -0.18541487373E+00  0.44694588438E-01  0.11802452530E+01  0.00000000000E+00 0.  1.
         11    1    3    3    0    0  0.63404257706E+01  0.59801713850E+01  0.11957590037E+01  0.87973455430E+01  0.51100000000E-03 0. -1.
        -11    1    3    3    0    0 -0.27790364472E+02 -0.24801665531E+02  0.22320718026E+02  0.43423972919E+02  0.51100000000E-03 0.  1.
         12    1    3    3    0    0  0.22614671536E+02  0.19006909020E+02 -0.23561171618E+02  0.37786436285E+02  0.00000000000E+00 0. -1.
</event>
<event>
 7    1  0.2879200E-015  0.9000773E+02  0.7816164E-02  0.1186339E+00
        -11   -1    0    0    0    0  0.00000000000E+00  0.00000000000E+00  0.45593999997E+02  0.45594000000E+02  0.51100000000E-03 0. -1.
         11   -1    0    0    0    0 -0.00000000000E+00 -0.00000000000E+00 -0.45593999997E+02  0.45594000000E+02  0.51100000000E-03 0.  1.
    9900012    2    1    2    0    0 -0.69009704129E-01  0.94573725282E+00  0.70274671424E+00  0.90007731287E+02  0.89999992540E+02 0.  0.
        -12    1    1    2    0    0  0.69009704129E-01 -0.94573725282E+00 -0.70274671424E+00  0.11802687131E+01  0.00000000000E+00 0.  1.
         11    1    3    3    0    0  0.12816128077E+02 -0.14139703740E+02  0.32323053670E+02  0.37536171349E+02  0.51100000000E-03 0. -1.
        -11    1    3    3    0    0  0.63027338581E+01  0.13912560284E+01  0.55124618646E+01  0.84880671235E+01  0.51100000000E-03 0.  1.
        -12    1    3    3    0    0 -0.19187871640E+02  0.13694184965E+02 -0.37132768820E+02  0.43983492814E+02  0.00000000000E+00 0.  1.
</event>
<event>
 7    1  0.2879200E-015  0.9000767E+02  0.7816164E-02  0.1186339E+00
        -11   -1    0    0    0    0  0.00000000000E+00  0.00000000000E+00  0.45593999997E+02  0.45594000000E+02  0.51100000000E-03 0.  1.
         11   -1    0    0    0    0 -0.00000000000E+00 -0.00000000000E+00 -0.45593999997E+02  0.45594000000E+02  0.51100000000E-03 0. -1.
    9900012    2    1    2    0    0 -0.80346335611E+00 -0.78496113914E+00 -0.36258262510E+00  0.90007668049E+02  0.89999928467E+02 0.  0.
        -12    1    1    2    0    0  0.80346335611E+00  0.78496113914E+00  0.36258262510E+00  0.11803319510E+01  0.00000000000E+00 0.  1.
         11    1    3    3    0    0 -0.63755246463E+01 -0.67554403583E-01  0.83561881751E+01  0.10510840080E+02  0.51100000000E-03 0. -1.
        -11    1    3    3    0    0  0.22620747693E+02 -0.34016173872E+02 -0.10030716785E+02  0.42064398136E+02  0.51100000000E-03 0.  1.
         12    1    3    3    0    0 -0.17048686403E+02  0.33298767137E+02  0.13119459845E+01  0.37432429832E+02  0.00000000000E+00 0. -1.
</event>
<event>
 7    1  0.2879200E-015  0.9000768E+02  0.7816164E-02  0.1186339E+00
        -11   -1    0    0    0    0  0.00000000000E+00  0.00000000000E+00  0.45593999997E+02  0.45594000000E+02  0.51100000000E-03 0.  1.
         11   -1    0    0    0    0 -0.00000000000E+00 -0.00000000000E+00 -0.45593999997E+02  0.45594000000E+02  0.51100000000E-03 0. -1.
    9900012    2    1    2    0    0 -0.91155594855E+00 -0.41428600155E+00  0.62497726850E+00  0.90007676432E+02  0.89999936961E+02 0.  0.
        -12    1    1    2    0    0  0.91155594855E+00  0.41428600155E+00 -0.62497726850E+00  0.11803235677E+01  0.00000000000E+00 0.  1.
         11    1    3    3    0    0 -0.10031827934E+02 -0.13419238092E+02 -0.37725284099E+02  0.41278451804E+02  0.51100000000E-03 0. -1.
        -11    1    3    3    0    0  0.28511554368E+01 -0.65258923441E+01  0.27337271577E+01  0.76282122838E+01  0.51100000000E-03 0.  1.
        -12    1    3    3    0    0  0.62691165484E+01  0.19530844435E+02  0.35616534210E+02  0.41101012345E+02  0.00000000000E+00 0.  1.
</event>
<event>
 7    1  0.2879200E-015  0.9000779E+02  0.7816164E-02  0.1186339E+00
        -11   -1    0    0    0    0  0.00000000000E+00  0.00000000000E+00  0.45593999997E+02  0.45594000000E+02  0.51100000000E-03 0.  1.
         11   -1    0    0    0    0 -0.00000000000E+00 -0.00000000000E+00 -0.45593999997E+02  0.45594000000E+02  0.51100000000E-03 0. -1.
    9900012    2    1    2    0    0 -0.99547885329E+00  0.34895249031E+00  0.52928886509E+00  0.90007791251E+02  0.90000053296E+02 0.  0.
        -12    1    1    2    0    0  0.99547885329E+00 -0.34895249031E+00 -0.52928886509E+00  0.11802087487E+01  0.00000000000E+00 0.  1.
         11    1    3    3    0    0 -0.14038695704E+02  0.34079394848E+02  0.16297967325E+02  0.40300296146E+02  0.51100000000E-03 0. -1.
        -11    1    3    3    0    0 -0.82650537821E+01 -0.32970409998E+01  0.98567796750E+00  0.89528294238E+01  0.51100000000E-03 0.  1.
        -12    1    3    3    0    0  0.21308270633E+02 -0.30433401358E+02 -0.16754356427E+02  0.40754665682E+02  0.00000000000E+00 0.  1.
</event>
<event>
 7    1  0.2879200E-015  0.9000788E+02  0.7816164E-02  0.1186339E+00
        -11   -1    0    0    0    0  0.00000000000E+00  0.00000000000E+00  0.45593999997E+02  0.45594000000E+02  0.51100000000E-03 0. -1.
         11   -1    0    0    0    0 -0.00000000000E+00 -0.00000000000E+00 -0.45593999997E+02  0.45594000000E+02  0.51100000000E-03 0.  1.
    9900012    2    1    2    0    0  0.11613601705E+01 -0.17181414221E+00  0.12000203760E+00  0.90007882195E+02  0.90000145440E+02 0.  0.
        -12    1    1    2    0    0 -0.11613601705E+01  0.17181414221E+00 -0.12000203760E+00  0.11801178052E+01  0.00000000000E+00 0.  1.
         11    1    3    3    0    0  0.23263911338E+01  0.73256892021E+01  0.22727579033E+01  0.80151885032E+01  0.51100000000E-03 0. -1.
        -11    1    3    3    0    0 -0.36080148364E+01  0.22076494097E+02 -0.32560946809E+02  0.39504488607E+02  0.51100000000E-03 0.  1.
         12    1    3    3    0    0  0.24429838732E+01 -0.29573997442E+02  0.30408190944E+02  0.42488205085E+02  0.00000000000E+00 0. -1.
</event>
<event>
 7    1  0.2879200E-015  0.9000770E+02  0.7816164E-02  0.1186339E+00
        -11   -1    0    0    0    0  0.00000000000E+00  0.00000000000E+00  0.45593999997E+02  0.45594000000E+02  0.51100000000E-03 0.  1.
         11   -1    0    0    0    0 -0.00000000000E+00 -0.00000000000E+00 -0.45593999997E+02  0.45594000000E+02  0.51100000000E-03 0. -1.
    9900012    2    1    2    0    0 -0.73820350640E+00  0.39130215600E+00 -0.83368897963E+00  0.90007703805E+02  0.89999964695E+02 0.  0.
        -12    1    1    2    0    0  0.73820350640E+00 -0.39130215600E+00  0.83368897963E+00  0.11802961954E+01  0.00000000000E+00 0.  1.
         11    1    3    3    0    0  0.47350237714E+01 -0.88272679959E+00 -0.33556703660E+02  0.33900619722E+02  0.51100000000E-03 0. -1.
        -11    1    3    3    0    0 -0.32164413758E+01 -0.46234283002E+01 -0.10772287083E+02  0.12155811517E+02  0.51100000000E-03 0.  1.
        -12    1    3    3    0    0 -0.22567859020E+01  0.58974572558E+01  0.43495301763E+02  0.43951272566E+02  0.00000000000E+00 0.  1.
</event>
<event>
 7    1  0.2879200E-015  0.9000770E+02  0.7816164E-02  0.1186339E+00
        -11   -1    0    0    0    0  0.00000000000E+00  0.00000000000E+00  0.45593999997E+02  0.45594000000E+02  0.51100000000E-03 0.  1.
         11   -1    0    0    0    0 -0.00000000000E+00 -0.00000000000E+00 -0.45593999997E+02  0.45594000000E+02  0.51100000000E-03 0. -1.
    9900012    2    1    2    0    0  0.54057028236E+00  0.88422876766E+00 -0.56483857425E+00  0.90007695226E+02  0.89999956003E+02 0.  0.
        -12    1    1    2    0    0 -0.54057028236E+00 -0.88422876766E+00  0.56483857425E+00  0.11803047736E+01  0.00000000000E+00 0.  1.
         11    1    3    3    0    0  0.85432648704E+01 -0.24705440979E+01  0.27325951546E+01  0.93036573092E+01  0.51100000000E-03 0. -1.
        -11    1    3    3    0    0  0.88257984756E+00 -0.37079380607E+02  0.76751893528E+01  0.37875690691E+02  0.51100000000E-03 0.  1.
         12    1    3    3    0    0 -0.88852744356E+01  0.40434153473E+02 -0.10972623082E+02  0.42828347227E+02  0.00000000000E+00 0. -1.
</event>
<event>
 7    1  0.2879200E-015  0.9000773E+02  0.7816164E-02  0.1186339E+00
        -11   -1    0    0    0    0  0.00000000000E+00  0.00000000000E+00  0.45593999997E+02  0.45594000000E+02  0.51100000000E-03 0. -1.
         11   -1    0    0    0    0 -0.00000000000E+00 -0.00000000000E+00 -0.45593999997E+02  0.45594000000E+02  0.51100000000E-03 0.  1.
    9900012    2    1    2    0    0 -0.43755516956E-01 -0.10191450139E+01  0.59368000312E+00  0.90007734330E+02  0.89999995624E+02 0.  0.
        -12    1    1    2    0    0  0.43755516956E-01  0.10191450139E+01 -0.59368000312E+00  0.11802656695E+01  0.00000000000E+00 0.  1.
         11    1    3    3    0    0 -0.41168351870E+01 -0.29246385523E+02  0.22770690366E+02  0.37293481175E+02  0.51100000000E-03 0. -1.
        -11    1    3    3    0    0  0.11899091239E+02  0.12599338010E+00  0.49418653051E+01  0.12885118533E+02  0.51100000000E-03 0.  1.
        -12    1    3    3    0    0 -0.78260115689E+01  0.28101247129E+02 -0.27118875668E+02  0.39829134623E+02  0.00000000000E+00 0.  1.
</event>
<event>
 7    1  0.2879200E-015  0.9000824E+02  0.7816164E-02  0.1186338E+00
        -11   -1    0    0    0    0  0.00000000000E+00  0.00000000000E+00  0.45593999997E+02  0.45594000000E+02  0.51100000000E-03 0.  1.
         11   -1    0    0    0    0 -0.00000000000E+00 -0.00000000000E+00 -0.45593999997E+02  0.45594000000E+02  0.51100000000E-03 0. -1.
    9900012    2    1    2    0    0 -0.16754600816E+00  0.74906842508E+00 -0.89591647358E+00  0.90008236677E+02  0.90000504600E+02 0.  0.
        -12    1    1    2    0    0  0.16754600816E+00 -0.74906842508E+00  0.89591647358E+00  0.11797633229E+01  0.00000000000E+00 0.  1.
         11    1    3    3    0    0  0.16024408424E+02 -0.14487667762E+02 -0.33149788603E+02  0.39567444538E+02  0.51100000000E-03 0. -1.
        -11    1    3    3    0    0 -0.19319804526E+01 -0.97160853183E+01  0.10157336153E+02  0.14188246557E+02  0.51100000000E-03 0.  1.
        -12    1    3    3    0    0 -0.14259973980E+02  0.24952821506E+02  0.22096535977E+02  0.36252545582E+02  0.00000000000E+00 0.  1.
</event>
<event>
 7    1  0.2879200E-015  0.9000773E+02  0.7816164E-02  0.1186339E+00
        -11   -1    0    0    0    0  0.00000000000E+00  0.00000000000E+00  0.45593999997E+02  0.45594000000E+02  0.51100000000E-03 0.  1.
         11   -1    0    0    0    0 -0.00000000000E+00 -0.00000000000E+00 -0.45593999997E+02  0.45594000000E+02  0.51100000000E-03 0. -1.
    9900012    2    1    2    0    0 -0.12756304303E+00 -0.82267582430E+00 -0.83664223169E+00  0.90007729664E+02  0.89999990896E+02 0.  0.
        -12    1    1    2    0    0  0.12756304303E+00  0.82267582430E+00  0.83664223169E+00  0.11802703358E+01  0.00000000000E+00 0.  1.
         11    1    3    3    0    0  0.17517312125E+02 -0.22157420747E+02 -0.24931645720E+02  0.37674852048E+02  0.51100000000E-03 0. -1.
        -11    1    3    3    0    0  0.24302584551E+00 -0.85333142433E+01 -0.20673325072E+01  0.87835287609E+01  0.51100000000E-03 0.  1.
        -12    1    3    3    0    0 -0.17887901013E+02  0.29868059166E+02  0.26162335996E+02  0.43549348856E+02  0.00000000000E+00 0.  1.
</event>
<event>
 7    1  0.2879200E-015  0.9000771E+02  0.7816164E-02  0.1186339E+00
        -11   -1    0    0    0    0  0.00000000000E+00  0.00000000000E+00  0.45593999997E+02  0.45594000000E+02  0.51100000000E-03 0.  1.
         11   -1    0    0    0    0 -0.00000000000E+00 -0.00000000000E+00 -0.45593999997E+02  0.45594000000E+02  0.51100000000E-03 0. -1.
    9900012    2    1    2    0    0  0.36843384880E-01 -0.56868244864E+00 -0.10336035976E+01  0.90007706155E+02  0.89999967077E+02 0.  0.
        -12    1    1    2    0    0 -0.36843384880E-01  0.56868244864E+00  0.10336035976E+01  0.11802938445E+01  0.00000000000E+00 0.  1.
         11    1    3    3    0    0 -0.24912060003E+02 -0.24000084078E+02 -0.17728486950E+02  0.38870477475E+02  0.51100000000E-03 0. -1.
        -11    1    3    3    0    0 -0.15893273850E+01 -0.74496707622E+01  0.27063377981E+01  0.80837998825E+01  0.51100000000E-03 0.  1.
        -12    1    3    3    0    0  0.26538230773E+02  0.30881072391E+02  0.13988545554E+02  0.43053428798E+02  0.00000000000E+00 0.  1.
</event>
<event>
 7    1  0.2879200E-015  0.9000771E+02  0.7816164E-02  0.1186339E+00
        -11   -1    0    0    0    0  0.00000000000E+00  0.00000000000E+00  0.45593999997E+02  0.45594000000E+02  0.51100000000E-03 0.  1.
         11   -1    0    0    0    0 -0.00000000000E+00 -0.00000000000E+00 -0.45593999997E+02  0.45594000000E+02  0.51100000000E-03 0. -1.
    9900012    2    1    2    0    0  0.23646906512E+00  0.35273120765E-01 -0.11558223782E+01  0.90007708857E+02  0.89999969814E+02 0.  0.
        -12    1    1    2    0    0 -0.23646906512E+00 -0.35273120765E-01  0.11558223782E+01  0.11802911428E+01  0.00000000000E+00 0.  1.
         11    1    3    3    0    0 -0.10438088178E+02 -0.35895936002E+02 -0.67605110041E+00  0.37388888077E+02  0.51100000000E-03 0. -1.
        -11    1    3    3    0    0 -0.24279126742E+00 -0.59376672867E+01 -0.66431126899E+01  0.89132366108E+01  0.51100000000E-03 0.  1.
        -12    1    3    3    0    0  0.10917348511E+02  0.41868876409E+02  0.61633414122E+01  0.43705584170E+02  0.00000000000E+00 0.  1.
</event>
<event>
 7    1  0.2879200E-015  0.9000774E+02  0.7816164E-02  0.1186339E+00
        -11   -1    0    0    0    0  0.00000000000E+00  0.00000000000E+00  0.45593999997E+02  0.45594000000E+02  0.51100000000E-03 0. -1.
         11   -1    0    0    0    0 -0.00000000000E+00 -0.00000000000E+00 -0.45593999997E+02  0.45594000000E+02  0.51100000000E-03 0.  1.
    9900012    2    1    2    0    0 -0.22883935703E+00 -0.15723275735E+00  0.11471340758E+01  0.90007743172E+02  0.90000004582E+02 0.  0.
        -12    1    1    2    0    0  0.22883935703E+00  0.15723275735E+00 -0.11471340758E+01  0.11802568276E+01  0.00000000000E+00 0.  1.
         11    1    3    3    0    0  0.43713687180E+01 -0.91450084140E+01 -0.42722147984E-01  0.10136166376E+02  0.51100000000E-03 0. -1.
        -11    1    3    3    0    0  0.31801604946E+02  0.71913350092E-01 -0.19258303770E+02  0.37178347368E+02  0.51100000000E-03 0.  1.
         12    1    3    3    0    0 -0.36401813021E+02  0.89158623066E+01  0.20448159994E+02  0.42693229428E+02  0.00000000000E+00 0. -1.
</event>
<event>
 7    1  0.2879200E-015  0.9000769E+02  0.7816164E-02  0.1186339E+00
        -11   -1    0    0    0    0  0.00000000000E+00  0.00000000000E+00  0.45593999997E+02  0.45594000000E+02  0.51100000000E-03 0.  1.
         11   -1    0    0    0    0 -0.00000000000E+00 -0.00000000000E+00 -0.45593999997E+02  0.45594000000E+02  0.51100000000E-03 0. -1.
    9900012    2    1    2    0    0  0.87924573971E+00 -0.23153195219E+00 -0.75263259607E+00  0.90007688202E+02  0.89999948886E+02 0.  0.
        -12    1    1    2    0    0 -0.87924573971E+00  0.23153195219E+00  0.75263259607E+00  0.11803117979E+01  0.00000000000E+00 0.  1.
         11    1    3    3    0    0 -0.20262337455E+02  0.27408899837E+02  0.16912731018E+02  0.38050631797E+02  0.51100000000E-03 0. -1.
        -11    1    3    3    0    0  0.25714901156E+01 -0.21052922677E+01  0.96508230628E+01  0.10207017341E+02  0.51100000000E-03 0.  1.
        -12    1    3    3    0    0  0.18570093079E+02 -0.25535139521E+02 -0.27316186676E+02  0.41750039064E+02  0.00000000000E+00 0.  1.
</event>
<event>
 7    1  0.2879200E-015  0.9000774E+02  0.7816164E-02  0.1186339E+00
        -11   -1    0    0    0    0  0.00000000000E+00  0.00000000000E+00  0.45593999997E+02  0.45594000000E+02  0.51100000000E-03 0.  1.
         11   -1    0    0    0    0 -0.00000000000E+00 -0.00000000000E+00 -0.45593999997E+02  0.45594000000E+02  0.51100000000E-03 0. -1.
    9900012    2    1    2    0    0  0.15411724604E+00 -0.32665579961E+00 -0.11236318211E+01  0.90007743839E+02  0.90000005257E+02 0.  0.
        -12    1    1    2    0    0 -0.15411724604E+00  0.32665579961E+00  0.11236318211E+01  0.11802561613E+01  0.00000000000E+00 0.  1.
         11    1    3    3    0    0 -0.44652343493E+00  0.18900768259E+02 -0.39183891927E+02  0.43506503086E+02  0.51100000000E-03 0. -1.
        -11    1    3    3    0    0 -0.25985599203E+01  0.30352896246E+01  0.81639251700E+01  0.90892888174E+01  0.51100000000E-03 0.  1.
        -12    1    3    3    0    0  0.31992006012E+01 -0.22262713684E+02  0.29896334936E+02  0.37411951935E+02  0.00000000000E+00 0.  1.
</event>
<event>
 7    1  0.2879200E-015  0.9000773E+02  0.7816164E-02  0.1186339E+00
        -11   -1    0    0    0    0  0.00000000000E+00  0.00000000000E+00  0.45593999997E+02  0.45594000000E+02  0.51100000000E-03 0.  1.
         11   -1    0    0    0    0 -0.00000000000E+00 -0.00000000000E+00 -0.45593999997E+02  0.45594000000E+02  0.51100000000E-03 0. -1.
    9900012    2    1    2    0    0  0.98856365658E+00  0.16587664593E+00 -0.62311231727E+00  0.90007727945E+02  0.89999989153E+02 0.  0.
        -12    1    1    2    0    0 -0.98856365658E+00 -0.16587664593E+00  0.62311231727E+00  0.11802720554E+01  0.00000000000E+00 0.  1.
         11    1    3    3    0    0  0.34811439078E+02  0.17534901569E+02 -0.12791476337E+02  0.41023541179E+02  0.51100000000E-03 0. -1.
        -11    1    3    3    0    0  0.93249879225E-01  0.60242302015E+01  0.31845925792E+01  0.68148129261E+01  0.51100000000E-03 0.  1.
        -12    1    3    3    0    0 -0.33916125300E+02 -0.23393255125E+02  0.89837714408E+01  0.42169373840E+02  0.00000000000E+00 0.  1.
</event>
<event>
 7    1  0.2879200E-015  0.9000777E+02  0.7816164E-02  0.1186339E+00
        -11   -1    0    0    0    0  0.00000000000E+00  0.00000000000E+00  0.45593999997E+02  0.45594000000E+02  0.51100000000E-03 0. -1.
         11   -1    0    0    0    0 -0.00000000000E+00 -0.00000000000E+00 -0.45593999997E+02  0.45594000000E+02  0.51100000000E-03 0.  1.
    9900012    2    1    2    0    0 -0.64739529835E+00  0.98556400764E+00  0.49766975040E-01  0.90007773819E+02  0.90000035634E+02 0.  0.
        -12    1    1    2    0    0  0.64739529835E+00 -0.98556400764E+00 -0.49766975040E-01  0.11802261806E+01  0.00000000000E+00 0.  1.
         11    1    3    3    0    0 -0.15175147816E+02  0.32792244496E+02 -0.25337692018E+02  0.44131791799E+02  0.51100000000E-03 0. -1.
        -11    1    3    3    0    0  0.53089094869E+01 -0.83049884372E+01 -0.29789846810E+00  0.98613435515E+01  0.51100000000E-03 0.  1.
        -12    1    3    3    0    0  0.92188430309E+01 -0.23501692052E+02  0.25685357461E+02  0.36014638469E+02  0.00000000000E+00 0.  1.
</event>
<event>
 7    1  0.2879200E-015  0.9000775E+02  0.7816164E-02  0.1186339E+00
        -11   -1    0    0    0    0  0.00000000000E+00  0.00000000000E+00  0.45593999997E+02  0.45594000000E+02  0.51100000000E-03 0. -1.
         11   -1    0    0    0    0 -0.00000000000E+00 -0.00000000000E+00 -0.45593999997E+02  0.45594000000E+02  0.51100000000E-03 0.  1.
    9900012    2    1    2    0    0 -0.78667971518E+00 -0.48772230705E-01  0.87848955785E+00  0.90007751040E+02  0.90000012554E+02 0.  0.
        -12    1    1    2    0    0  0.78667971518E+00  0.48772230705E-01 -0.87848955785E+00  0.11802489602E+01  0.00000000000E+00 0.  1.
         11    1    3    3    0    0  0.39292527982E+01 -0.93031703266E+01  0.53636221295E+01  0.11434878586E+02  0.51100000000E-03 0. -1.
        -11    1    3    3    0    0  0.28651487399E+02  0.80578514409E+00 -0.25398852555E+02  0.38296980707E+02  0.51100000000E-03 0.  1.
         12    1    3    3    0    0 -0.33367419912E+02  0.84486129518E+01  0.20913719984E+02  0.40275891746E+02  0.00000000000E+00 0. -1.
</event>
<event>
 7    1  0.2879200E-015  0.9000785E+02  0.7816164E-02  0.1186339E+00
        -11   -1    0    0    0    0  0.00000000000E+00  0.00000000000E+00  0.45593999997E+02  0.45594000000E+02  0.51100000000E-03 0.  1.
         11   -1    0    0    0    0 -0.00000000000E+00 -0.00000000000E+00 -0.45593999997E+02  0.45594000000E+02  0.51100000000E-03 0. -1.
    9900012    2    1    2    0    0  0.86453791150E+00  0.77882005677E+00  0.19688310313E+00  0.90007851943E+02  0.90000114788E+02 0.  0.
        -12    1    1    2    0    0 -0.86453791150E+00 -0.77882005677E+00 -0.19688310313E+00  0.11801480575E+01  0.00000000000E+00 0.  1.
         11    1    3    3    0    0  0.75069090549E+00 -0.33758324049E+02  0.13610521354E+02  0.36406514132E+02  0.51100000000E-03 0. -1.
        -11    1    3    3    0    0  0.98175565403E+01  0.77327687469E+01  0.10554218627E+02  0.16357617797E+02  0.51100000000E-03 0.  1.
        -12    1    3    3    0    0 -0.97037095343E+01  0.26804375359E+02 -0.23967856878E+02  0.37243720013E+02  0.00000000000E+00 0.  1.
</event>
<event>
 7    1  0.2879200E-015  0.9000787E+02  0.7816164E-02  0.1186339E+00
        -11   -1    0    0    0    0  0.00000000000E+00  0.00000000000E+00  0.45593999997E+02  0.45594000000E+02  0.51100000000E-03 0.  1.
         11   -1    0    0    0    0 -0.00000000000E+00 -0.00000000000E+00 -0.45593999997E+02  0.45594000000E+02  0.51100000000E-03 0. -1.
    9900012    2    1    2    0    0 -0.22525015576E+00 -0.64269714837E-01 -0.11566504538E+01  0.90007869286E+02  0.90000132361E+02 0.  0.
        -12    1    1    2    0    0  0.22525015576E+00  0.64269714837E-01  0.11566504538E+01  0.11801307136E+01  0.00000000000E+00 0.  1.
         11    1    3    3    0    0 -0.25682148421E+02 -0.22269479239E+02 -0.22445333484E+02  0.40734450390E+02  0.51100000000E-03 0. -1.
        -11    1    3    3    0    0  0.35263651840E+01 -0.30511198182E+01 -0.49206511337E+01  0.67791881075E+01  0.51100000000E-03 0.  1.
        -12    1    3    3    0    0  0.21930533081E+02  0.25256329342E+02  0.26209334164E+02  0.42494230789E+02  0.00000000000E+00 0.  1.
</event>
<event>
 7    1  0.2879200E-015  0.9000775E+02  0.7816164E-02  0.1186339E+00
        -11   -1    0    0    0    0  0.00000000000E+00  0.00000000000E+00  0.45593999997E+02  0.45594000000E+02  0.51100000000E-03 0. -1.
         11   -1    0    0    0    0 -0.00000000000E+00 -0.00000000000E+00 -0.45593999997E+02  0.45594000000E+02  0.51100000000E-03 0.  1.
    9900012    2    1    2    0    0 -0.39840695780E+00 -0.11103336579E+01 -0.37583593404E-01  0.90007753643E+02  0.90000015191E+02 0.  0.
        -12    1    1    2    0    0  0.39840695780E+00  0.11103336579E+01  0.37583593404E-01  0.11802463566E+01  0.00000000000E+00 0.  1.
         11    1    3    3    0    0 -0.52940985296E-01 -0.77290084467E+01  0.61274299641E+01  0.98633550349E+01  0.51100000000E-03 0. -1.
        -11    1    3    3    0    0 -0.36214955940E+02 -0.10667844245E+02 -0.12620047603E+02  0.39806928245E+02  0.51100000000E-03 0.  1.
         12    1    3    3    0    0  0.35869489967E+02  0.17286519034E+02  0.64550340458E+01  0.40337470363E+02  0.00000000000E+00 0. -1.
</event>
<event>
 7    1  0.2879200E-015  0.9000782E+02  0.7816164E-02  0.1186339E+00
        -11   -1    0    0    0    0  0.00000000000E+00  0.00000000000E+00  0.45593999997E+02  0.45594000000E+02  0.51100000000E-03 0.  1.
         11   -1    0    0    0    0 -0.00000000000E+00 -0.00000000000E+00 -0.45593999997E+02  0.45594000000E+02  0.51100000000E-03 0. -1.
    9900012    2    1    2    0    0  0.11172805218E+01  0.19176948944E+00  0.32824305882E+00  0.90007815774E+02  0.90000078142E+02 0.  0.
        -12    1    1    2    0    0 -0.11172805218E+01 -0.19176948944E+00 -0.32824305882E+00  0.11801842259E+01  0.00000000000E+00 0.  1.
         11    1    3    3    0    0  0.42855336876E+01  0.68783882695E+01  0.45176593938E+01  0.92783226303E+01  0.51100000000E-03 0. -1.
        -11    1    3    3    0    0 -0.14458264570E+02 -0.15073320766E+02  0.34072421103E+02  0.39964688081E+02  0.51100000000E-03 0.  1.
         12    1    3    3    0    0  0.11290011405E+02  0.83867019857E+01 -0.38261837438E+02  0.40764805063E+02  0.00000000000E+00 0. -1.
</event>
<event>
 7    1  0.2879200E-015  0.9000776E+02  0.7816164E-02  0.1186339E+00
        -11   -1    0    0    0    0  0.00000000000E+00  0.00000000000E+00  0.45593999997E+02  0.45594000000E+02  0.51100000000E-03 0.  1.
         11   -1    0    0    0    0 -0.00000000000E+00 -0.00000000000E+00 -0.45593999997E+02  0.45594000000E+02  0.51100000000E-03 0. -1.
    9900012    2    1    2    0    0  0.30658574059E+00  0.72475277163E+00 -0.87960247096E+00  0.90007761929E+02  0.90000023587E+02 0.  0.
        -12    1    1    2    0    0 -0.30658574059E+00 -0.72475277163E+00  0.87960247096E+00  0.11802380706E+01  0.00000000000E+00 0.  1.
         11    1    3    3    0    0 -0.35062839379E+01  0.16411401300E+01  0.88897414497E+01  0.96961266124E+01  0.51100000000E-03 0. -1.
        -11    1    3    3    0    0 -0.32435643233E+02 -0.11500018114E+02  0.12332655445E+02  0.36557020655E+02  0.51100000000E-03 0.  1.
         12    1    3    3    0    0  0.36248512912E+02  0.10583630756E+02 -0.22101999365E+02  0.43754614662E+02  0.00000000000E+00 0. -1.
</event>
<event>
 7    1  0.2879200E-015  0.9000773E+02  0.7816164E-02  0.1186339E+00
        -11   -1    0    0    0    0  0.00000000000E+00  0.00000000000E+00  0.45593999997E+02  0.45594000000E+02  0.51100000000E-03 0. -1.
         11   -1    0    0    0    0 -0.00000000000E+00 -0.00000000000E+00 -0.45593999997E+02  0.45594000000E+02  0.51100000000E-03 0.  1.
    9900012    2    1    2    0    0 -0.11157840115E+00  0.28732868864E+00  0.11393109022E+01  0.90007730181E+02  0.89999991419E+02 0.  0.
        -12    1    1    2    0    0  0.11157840115E+00 -0.28732868864E+00 -0.11393109022E+01  0.11802698195E+01  0.00000000000E+00 0.  1.
         11    1    3    3    0    0 -0.46427191882E+01  0.86908042838E+01 -0.76594528284E+00  0.98828939586E+01  0.51100000000E-03 0. -1.
        -11    1    3    3    0    0 -0.26493342972E+02 -0.29842083804E+02 -0.89208529718E+01  0.40890448831E+02  0.51100000000E-03 0.  1.
         12    1    3    3    0    0  0.31024483759E+02  0.21438608209E+02  0.10826109157E+02  0.39234387391E+02  0.00000000000E+00 0. -1.
</event>
<event>
 7    1  0.2879200E-015  0.9000776E+02  0.7816164E-02  0.1186339E+00
        -11   -1    0    0    0    0  0.00000000000E+00  0.00000000000E+00  0.45593999997E+02  0.45594000000E+02  0.51100000000E-03 0.  1.
         11   -1    0    0    0    0 -0.00000000000E+00 -0.00000000000E+00 -0.45593999997E+02  0.45594000000E+02  0.51100000000E-03 0. -1.
    9900012    2    1    2    0    0  0.38758534278E+00  0.11132498074E+01  0.58450848075E-01  0.90007761027E+02  0.90000022673E+02 0.  0.
        -12    1    1    2    0    0 -0.38758534278E+00 -0.11132498074E+01 -0.58450848075E-01  0.11802389729E+01  0.00000000000E+00 0.  1.
         11    1    3    3    0    0 -0.30148243396E+02 -0.22629453519E+02 -0.17577605128E+02  0.41593039667E+02  0.51100000000E-03 0. -1.
        -11    1    3    3    0    0 -0.20517328299E+01  0.59001190621E+01 -0.17791020941E+01  0.64950917680E+01  0.51100000000E-03 0.  1.
        -12    1    3    3    0    0  0.32587561569E+02  0.17842584264E+02  0.19415158070E+02  0.41919629592E+02  0.00000000000E+00 0.  1.
</event>
<event>
 7    1  0.2879200E-015  0.9000765E+02  0.7816164E-02  0.1186339E+00
        -11   -1    0    0    0    0  0.00000000000E+00  0.00000000000E+00  0.45593999997E+02  0.45594000000E+02  0.51100000000E-03 0. -1.
         11   -1    0    0    0    0 -0.00000000000E+00 -0.00000000000E+00 -0.45593999997E+02  0.45594000000E+02  0.51100000000E-03 0.  1.
    9900012    2    1    2    0    0 -0.79958362166E+00 -0.72642897148E+00  0.47560231210E+00  0.90007648113E+02  0.89999908268E+02 0.  0.
        -12    1    1    2    0    0  0.79958362166E+00  0.72642897148E+00 -0.47560231210E+00  0.11803518873E+01  0.00000000000E+00 0.  1.
         11    1    3    3    0    0  0.52353796026E+01 -0.29762722186E+02  0.23468562988E+02  0.38262282740E+02  0.51100000000E-03 0. -1.
        -11    1    3    3    0    0  0.75468241757E+01 -0.17713772446E+01  0.38785235333E+01  0.86680607717E+01  0.51100000000E-03 0.  1.
        -12    1    3    3    0    0 -0.13581787400E+02  0.30807670459E+02 -0.26871484209E+02  0.43077304601E+02  0.00000000000E+00 0.  1.
</event>
<event>
 7    1  0.2879200E-015  0.9000778E+02  0.7816164E-02  0.1186339E+00
        -11   -1    0    0    0    0  0.00000000000E+00  0.00000000000E+00  0.45593999997E+02  0.45594000000E+02  0.51100000000E-03 0.  1.
         11   -1    0    0    0    0 -0.00000000000E+00 -0.00000000000E+00 -0.45593999997E+02  0.45594000000E+02  0.51100000000E-03 0. -1.
    9900012    2    1    2    0    0 -0.70114459746E+00  0.25649947388E+00 -0.91406698858E+00  0.90007782145E+02  0.90000044069E+02 0.  0.
        -12    1    1    2    0    0  0.70114459746E+00 -0.25649947388E+00  0.91406698858E+00  0.11802178554E+01  0.00000000000E+00 0.  1.
         11    1    3    3    0    0  0.10562904031E+02 -0.20399794085E+01 -0.61739427555E+01  0.12403790830E+02  0.51100000000E-03 0. -1.
        -11    1    3    3    0    0  0.15896117970E+02 -0.16891331178E+02 -0.23951395647E+02  0.33341760439E+02  0.51100000000E-03 0.  1.
         12    1    3    3    0    0 -0.27160166598E+02  0.19187810060E+02  0.29211271413E+02  0.44262230876E+02  0.00000000000E+00 0. -1.
</event>
<event>
 7    1  0.2879200E-015  0.9000770E+02  0.7816164E-02  0.1186339E+00
        -11   -1    0    0    0    0  0.00000000000E+00  0.00000000000E+00  0.45593999997E+02  0.45594000000E+02  0.51100000000E-03 0. -1.
         11   -1    0    0    0    0 -0.00000000000E+00 -0.00000000000E+00 -0.45593999997E+02  0.45594000000E+02  0.51100000000E-03 0.  1.
    9900012    2    1    2    0    0  0.27457218232E+00  0.68641372204E+00  0.92007966488E+00  0.90007703312E+02  0.89999964196E+02 0.  0.
        -12    1    1    2    0    0 -0.27457218232E+00 -0.68641372204E+00 -0.92007966488E+00  0.11802966876E+01  0.00000000000E+00 0.  1.
         11    1    3    3    0    0 -0.13284545006E+02 -0.29166220975E+02  0.12722759185E+02  0.34482113965E+02  0.51100000000E-03 0. -1.
        -11    1    3    3    0    0 -0.32999863618E+01 -0.10158234472E+02 -0.40402138881E+01  0.11419411811E+02  0.51100000000E-03 0.  1.
        -12    1    3    3    0    0  0.16859103550E+02  0.40010869169E+02 -0.77624656319E+01  0.44106177536E+02  0.00000000000E+00 0.  1.
</event>
<event>
 7    1  0.2879200E-015  0.9000783E+02  0.7816164E-02  0.1186339E+00
        -11   -1    0    0    0    0  0.00000000000E+00  0.00000000000E+00  0.45593999997E+02  0.45594000000E+02  0.51100000000E-03 0. -1.
         11   -1    0    0    0    0 -0.00000000000E+00 -0.00000000000E+00 -0.45593999997E+02  0.45594000000E+02  0.51100000000E-03 0.  1.
    9900012    2    1    2    0    0  0.71477404423E+00  0.90086962467E+00 -0.26518753328E+00  0.90007833722E+02  0.90000096327E+02 0.  0.
        -12    1    1    2    0    0 -0.71477404423E+00 -0.90086962467E+00  0.26518753328E+00  0.11801662776E+01  0.00000000000E+00 0.  1.
         11    1    3    3    0    0  0.30438004587E+02  0.21521578579E+02  0.13837257864E+01  0.37303688358E+02  0.51100000000E-03 0. -1.
        -11    1    3    3    0    0  0.90801169162E+01 -0.14294400761E+01  0.14411194947E+01  0.93042274156E+01  0.51100000000E-03 0.  1.
        -12    1    3    3    0    0 -0.38803347459E+02 -0.19191268878E+02 -0.30900328144E+01  0.43399917949E+02  0.00000000000E+00 0.  1.
</event>
<event>
 7    1  0.2879200E-015  0.9000791E+02  0.7816164E-02  0.1186339E+00
        -11   -1    0    0    0    0  0.00000000000E+00  0.00000000000E+00  0.45593999997E+02  0.45594000000E+02  0.51100000000E-03 0.  1.
         11   -1    0    0    0    0 -0.00000000000E+00 -0.00000000000E+00 -0.45593999997E+02  0.45594000000E+02  0.51100000000E-03 0. -1.
    9900012    2    1    2    0    0 -0.57174735045E+00  0.36854828737E+00 -0.96430658105E+00  0.90007910997E+02  0.90000174622E+02 0.  0.
        -12    1    1    2    0    0  0.57174735045E+00 -0.36854828737E+00  0.96430658105E+00  0.11800890031E+01  0.00000000000E+00 0.  1.
         11    1    3    3    0    0 -0.29985859500E+02 -0.15599194557E+02  0.16943852189E+02  0.37809797249E+02  0.51100000000E-03 0. -1.
        -11    1    3    3    0    0 -0.64616180754E+01  0.61770531793E+01  0.31307316352E+01  0.94715349846E+01  0.51100000000E-03 0.  1.
        -12    1    3    3    0    0  0.35875730225E+02  0.97906896648E+01 -0.21038890405E+02  0.42726578763E+02  0.00000000000E+00 0.  1.
</event>
<event>
 7    1  0.2879200E-015  0.9000780E+02  0.7816164E-02  0.1186339E+00
        -11   -1    0    0    0    0  0.00000000000E+00  0.00000000000E+00  0.45593999997E+02  0.45594000000E+02  0.51100000000E-03 0.  1.
         11   -1    0    0    0    0 -0.00000000000E+00 -0.00000000000E+00 -0.45593999997E+02  0.45594000000E+02  0.51100000000E-03 0. -1.
    9900012    2    1    2    0    0 -0.56811876892E+00 -0.10147187438E+01  0.20116794514E+00  0.90007795947E+02  0.90000058053E+02 0.  0.
        -12    1    1    2    0    0  0.56811876892E+00  0.10147187438E+01 -0.20116794514E+00  0.11802040530E+01  0.00000000000E+00 0.  1.
         11    1    3    3    0    0 -0.29428223135E+01 -0.12893680076E+02 -0.55312936241E+01  0.14335354844E+02  0.51100000000E-03 0. -1.
        -11    1    3    3    0    0 -0.18448190838E+02 -0.17017479972E+02 -0.19700536133E+02  0.31906762512E+02  0.51100000000E-03 0.  1.
         12    1    3    3    0    0  0.20822894382E+02  0.28896441304E+02  0.25432997702E+02  0.43765678592E+02  0.00000000000E+00 0. -1.
</event>
<event>
 7    1  0.2879200E-015  0.9000755E+02  0.7816164E-02  0.1186339E+00
        -11   -1    0    0    0    0  0.00000000000E+00  0.00000000000E+00  0.45593999997E+02  0.45594000000E+02  0.51100000000E-03 0. -1.
         11   -1    0    0    0    0 -0.00000000000E+00 -0.00000000000E+00 -0.45593999997E+02  0.45594000000E+02  0.51100000000E-03 0.  1.
    9900012    2    1    2    0    0 -0.11466443555E+00 -0.11160472008E+01  0.36709067520E+00  0.90007548878E+02  0.89999807723E+02 0.  0.
        -12    1    1    2    0    0  0.11466443555E+00  0.11160472008E+01 -0.36709067520E+00  0.11804511218E+01  0.00000000000E+00 0.  1.
         11    1    3    3    0    0 -0.18548614492E+01  0.35126699974E+01  0.78769671399E+01  0.88219030312E+01  0.51100000000E-03 0. -1.
        -11    1    3    3    0    0 -0.39437179067E+02 -0.75722829424E+00 -0.48452745123E+01  0.39740925667E+02  0.51100000000E-03 0.  1.
         12    1    3    3    0    0  0.41177376081E+02 -0.38714889040E+01 -0.26646019524E+01  0.41444720180E+02  0.00000000000E+00 0. -1.
</event>
<event>
 7    1  0.2879200E-015  0.9000775E+02  0.7816164E-02  0.1186339E+00
        -11   -1    0    0    0    0  0.00000000000E+00  0.00000000000E+00  0.45593999997E+02  0.45594000000E+02  0.51100000000E-03 0.  1.
         11   -1    0    0    0    0 -0.00000000000E+00 -0.00000000000E+00 -0.45593999997E+02  0.45594000000E+02  0.51100000000E-03 0. -1.
    9900012    2    1    2    0    0 -0.71734204903E+00 -0.90207319415E+00 -0.25430640307E+00  0.90007751124E+02  0.90000012639E+02 0.  0.
        -12    1    1    2    0    0  0.71734204903E+00  0.90207319415E+00  0.25430640307E+00  0.11802488761E+01  0.00000000000E+00 0.  1.
         11    1    3    3    0    0 -0.70400742061E+01 -0.66216824390E+00 -0.63763282336E+01  0.95214848429E+01  0.51100000000E-03 0. -1.
        -11    1    3    3    0    0 -0.30518764479E+02 -0.11999451885E+02  0.21121657074E+02  0.39006489571E+02  0.51100000000E-03 0.  1.
         12    1    3    3    0    0  0.36841496636E+02  0.11759546934E+02 -0.14999635244E+02  0.41479776710E+02  0.00000000000E+00 0. -1.
</event>
<event>
 7    1  0.2879200E-015  0.9000774E+02  0.7816164E-02  0.1186339E+00
        -11   -1    0    0    0    0  0.00000000000E+00  0.00000000000E+00  0.45593999997E+02  0.45594000000E+02  0.51100000000E-03 0. -1.
         11   -1    0    0    0    0 -0.00000000000E+00 -0.00000000000E+00 -0.45593999997E+02  0.45594000000E+02  0.51100000000E-03 0.  1.
    9900012    2    1    2    0    0 -0.90115584262E+00 -0.72384657991E+00 -0.23870439993E+00  0.90007739218E+02  0.90000000575E+02 0.  0.
        -12    1    1    2    0    0  0.90115584262E+00  0.72384657991E+00  0.23870439993E+00  0.11802607824E+01  0.00000000000E+00 0.  1.
         11    1    3    3    0    0  0.42231274021E+02 -0.35190629887E+01 -0.66213693946E+01  0.42891803910E+02  0.51100000000E-03 0. -1.
        -11    1    3    3    0    0 -0.26853794999E+01  0.12432031718E+01  0.59404562947E+01  0.66367038833E+01  0.51100000000E-03 0.  1.
        -12    1    3    3    0    0 -0.40447050363E+02  0.15520132371E+01  0.44220869997E+00  0.40479231424E+02  0.00000000000E+00 0.  1.
</event>
<event>
 7    1  0.2879200E-015  0.9000788E+02  0.7816164E-02  0.1186339E+00
        -11   -1    0    0    0    0  0.00000000000E+00  0.00000000000E+00  0.45593999997E+02  0.45594000000E+02  0.51100000000E-03 0. -1.
         11   -1    0    0    0    0 -0.00000000000E+00 -0.00000000000E+00 -0.45593999997E+02  0.45594000000E+02  0.51100000000E-03 0.  1.
    9900012    2    1    2    0    0  0.54622881112E+00 -0.10651988711E+00  0.10406590792E+01  0.90007879786E+02  0.90000142999E+02 0.  0.
        -12    1    1    2    0    0 -0.54622881112E+00  0.10651988711E+00 -0.10406590792E+01  0.11801202140E+01  0.00000000000E+00 0.  1.
         11    1    3    3    0    0 -0.10394748487E+01  0.10004545113E+02  0.32908924573E+01  0.10583071592E+02  0.51100000000E-03 0. -1.
        -11    1    3    3    0    0 -0.33628254005E+02  0.13118026396E+02 -0.76414104659E+01  0.36896249649E+02  0.51100000000E-03 0.  1.
         12    1    3    3    0    0  0.35213957665E+02 -0.23229091397E+02  0.53911770878E+01  0.42528558545E+02  0.00000000000E+00 0. -1.
</event>
<event>
 7    1  0.2879200E-015  0.9000777E+02  0.7816164E-02  0.1186339E+00
        -11   -1    0    0    0    0  0.00000000000E+00  0.00000000000E+00  0.45593999997E+02  0.45594000000E+02  0.51100000000E-03 0.  1.
         11   -1    0    0    0    0 -0.00000000000E+00 -0.00000000000E+00 -0.45593999997E+02  0.45594000000E+02  0.51100000000E-03 0. -1.
    9900012    2    1    2    0    0  0.20624662606E+00  0.11201790502E+01  0.30919220501E+00  0.90007771804E+02  0.90000033592E+02 0.  0.
        -12    1    1    2    0    0 -0.20624662606E+00 -0.11201790502E+01 -0.30919220501E+00  0.11802281961E+01  0.00000000000E+00 0.  1.
         11    1    3    3    0    0 -0.23935072888E+02  0.39918297018E+01 -0.27489219025E+02  0.36667145804E+02  0.51100000000E-03 0. -1.
        -11    1    3    3    0    0 -0.48145512761E+01 -0.73731913545E+01 -0.43662049773E+01  0.98289165682E+01  0.51100000000E-03 0.  1.
        -12    1    3    3    0    0  0.28955870791E+02  0.45015407030E+01  0.32164616207E+02  0.43511709432E+02  0.00000000000E+00 0.  1.
</event>
<event>
 7    1  0.2879200E-015  0.9000794E+02  0.7816164E-02  0.1186339E+00
        -11   -1    0    0    0    0  0.00000000000E+00  0.00000000000E+00  0.45593999997E+02  0.45594000000E+02  0.51100000000E-03 0. -1.
         11   -1    0    0    0    0 -0.00000000000E+00 -0.00000000000E+00 -0.45593999997E+02  0.45594000000E+02  0.51100000000E-03 0.  1.
    9900012    2    1    2    0    0 -0.60845983747E+00  0.75433295952E+00  0.67327329850E+00  0.90007941306E+02  0.90000205331E+02 0.  0.
        -12    1    1    2    0    0  0.60845983747E+00 -0.75433295952E+00 -0.67327329850E+00  0.11800586943E+01  0.00000000000E+00 0.  1.
         11    1    3    3    0    0 -0.11243752848E+02 -0.12030821748E+02 -0.22433067139E+01  0.16619117766E+02  0.51100000000E-03 0. -1.
        -11    1    3    3    0    0 -0.85246924845E+01  0.45955390802E+01 -0.31610907448E+02  0.33061137781E+02  0.51100000000E-03 0.  1.
         12    1    3    3    0    0  0.19159985495E+02  0.81896156274E+01  0.34527487461E+02  0.40327685759E+02  0.00000000000E+00 0. -1.
</event>
<event>
 7    1  0.2879200E-015  0.9000785E+02  0.7816164E-02  0.1186339E+00
        -11   -1    0    0    0    0  0.00000000000E+00  0.00000000000E+00  0.45593999997E+02  0.45594000000E+02  0.51100000000E-03 0.  1.
         11   -1    0    0    0    0 -0.00000000000E+00 -0.00000000000E+00 -0.45593999997E+02  0.45594000000E+02  0.51100000000E-03 0. -1.
    9900012    2    1    2    0    0 -0.25834777850E-02 -0.89335079052E+00  0.77114525150E+00  0.90007852845E+02  0.90000115702E+02 0.  0.
        -12    1    1    2    0    0  0.25834777850E-02  0.89335079052E+00 -0.77114525150E+00  0.11801471553E+01  0.00000000000E+00 0.  1.
         11    1    3    3    0    0 -0.68878933392E+01 -0.34429859035E+02 -0.16663426099E+02  0.38865512186E+02  0.51100000000E-03 0. -1.
        -11    1    3    3    0    0  0.37272610611E+01  0.53718051499E+00 -0.83402682572E+01  0.91510170357E+01  0.51100000000E-03 0.  1.
        -12    1    3    3    0    0  0.31580488003E+01  0.32999327730E+02  0.25774839608E+02  0.41991323623E+02  0.00000000000E+00 0.  1.
</event>
<event>
 7    1  0.2879200E-015  0.9000771E+02  0.7816164E-02  0.1186339E+00
        -11   -1    0    0    0    0  0.00000000000E+00  0.00000000000E+00  0.45593999997E+02  0.45594000000E+02  0.51100000000E-03 0. -1.
         11   -1    0    0    0    0 -0.00000000000E+00 -0.00000000000E+00 -0.45593999997E+02  0.45594000000E+02  0.51100000000E-03 0.  1.
    9900012    2    1    2    0    0  0.31387714275E+00  0.45762000703E+00  0.10417040754E+01  0.90007710920E+02  0.89999971904E+02 0.  0.
        -12    1    1    2    0    0 -0.31387714275E+00 -0.45762000703E+00 -0.10417040754E+01  0.11802890800E+01  0.00000000000E+00 0.  1.
         11    1    3    3    0    0 -0.13380795422E+01 -0.54152455362E+01 -0.66241597420E+01  0.86599557520E+01  0.51100000000E-03 0. -1.
        -11    1    3    3    0    0 -0.57165023214E+01  0.37559533073E+02 -0.15891747522E+02  0.41181847494E+02  0.51100000000E-03 0.  1.
         12    1    3    3    0    0  0.73684590064E+01 -0.31686667530E+02  0.23557611339E+02  0.40165907674E+02  0.00000000000E+00 0. -1.
</event>
<event>
 7    1  0.2879200E-015  0.9000768E+02  0.7816164E-02  0.1186339E+00
        -11   -1    0    0    0    0  0.00000000000E+00  0.00000000000E+00  0.45593999997E+02  0.45594000000E+02  0.51100000000E-03 0. -1.
         11   -1    0    0    0    0 -0.00000000000E+00 -0.00000000000E+00 -0.45593999997E+02  0.45594000000E+02  0.51100000000E-03 0.  1.
    9900012    2    1    2    0    0  0.18315913069E+00  0.87666713207E+00 -0.76880259267E+00  0.90007682266E+02  0.89999942872E+02 0.  0.
        -12    1    1    2    0    0 -0.18315913069E+00 -0.87666713207E+00  0.76880259267E+00  0.11803177344E+01  0.00000000000E+00 0.  1.
         11    1    3    3    0    0 -0.21935313922E+02  0.24213417645E+02  0.21917793705E+02  0.39342563110E+02  0.51100000000E-03 0. -1.
        -11    1    3    3    0    0 -0.68214623254E+01  0.16429645382E+01 -0.44486931793E+01  0.83079812226E+01  0.51100000000E-03 0.  1.
        -12    1    3    3    0    0  0.28939935378E+02 -0.24979715051E+02 -0.18237903119E+02  0.42357137933E+02  0.00000000000E+00 0.  1.
</event>
<event>
 7    1  0.2879200E-015  0.9000773E+02  0.7816164E-02  0.1186339E+00
        -11   -1    0    0    0    0  0.00000000000E+00  0.00000000000E+00  0.45593999997E+02  0.45594000000E+02  0.51100000000E-03 0. -1.
         11   -1    0    0    0    0 -0.00000000000E+00 -0.00000000000E+00 -0.45593999997E+02  0.45594000000E+02  0.51100000000E-03 0.  1.
    9900012    2    1    2    0    0  0.53738877732E+00 -0.98005264127E+00  0.37913421439E+00  0.90007731967E+02  0.89999993229E+02 0.  0.
        -12    1    1    2    0    0 -0.53738877732E+00  0.98005264127E+00 -0.37913421439E+00  0.11802680332E+01  0.00000000000E+00 0.  1.
         11    1    3    3    0    0  0.36891286133E+00 -0.94562081941E+00  0.41170397024E+02  0.41182907702E+02  0.51100000000E-03 0. -1.
        -11    1    3    3    0    0  0.50241446024E+01 -0.77759882571E+01 -0.26867621303E+01  0.96398502771E+01  0.51100000000E-03 0.  1.
        -12    1    3    3    0    0 -0.48556686864E+01  0.77415564352E+01 -0.38104500679E+02  0.39184973988E+02  0.00000000000E+00 0.  1.
</event>
<event>
 7    1  0.2879200E-015  0.9000779E+02  0.7816164E-02  0.1186339E+00
        -11   -1    0    0    0    0  0.00000000000E+00  0.00000000000E+00  0.45593999997E+02  0.45594000000E+02  0.51100000000E-03 0.  1.
         11   -1    0    0    0    0 -0.00000000000E+00 -0.00000000000E+00 -0.45593999997E+02  0.45594000000E+02  0.51100000000E-03 0. -1.
    9900012    2    1    2    0    0  0.98493285239E+00  0.98568359345E-01 -0.64271585031E+00  0.90007791497E+02  0.90000053545E+02 0.  0.
        -12    1    1    2    0    0 -0.98493285239E+00 -0.98568359345E-01  0.64271585031E+00  0.11802085025E+01  0.00000000000E+00 0.  1.
         11    1    3    3    0    0 -0.25600181994E+01 -0.11586306697E+01  0.91605575183E+01  0.95818543361E+01  0.51100000000E-03 0. -1.
        -11    1    3    3    0    0  0.11893782963E+02  0.36732688776E+01  0.33771604381E+02  0.35992724823E+02  0.51100000000E-03 0.  1.
         12    1    3    3    0    0 -0.83488319111E+01 -0.24160698486E+01 -0.43574877750E+02  0.44433212339E+02  0.00000000000E+00 0. -1.
</event>
<event>
 7    1  0.2879200E-015  0.9000677E+02  0.7816164E-02  0.1186341E+00
        -11   -1    0    0    0    0  0.00000000000E+00  0.00000000000E+00  0.45593999997E+02  0.45594000000E+02  0.51100000000E-03 0.  1.
         11   -1    0    0    0    0 -0.00000000000E+00 -0.00000000000E+00 -0.45593999997E+02  0.45594000000E+02  0.51100000000E-03 0. -1.
    9900012    2    1    2    0    0 -0.90636920816E+00  0.33948010026E+00 -0.67715668237E+00  0.90006774766E+02  0.89999023388E+02 0.  0.
        -12    1    1    2    0    0  0.90636920816E+00 -0.33948010026E+00  0.67715668237E+00  0.11812252336E+01  0.00000000000E+00 0.  1.
         11    1    3    3    0    0 -0.21303345224E+02  0.24223677549E+02 -0.17306895593E+02  0.36608027905E+02  0.51100000000E-03 0. -1.
        -11    1    3    3    0    0 -0.56427770751E+00  0.60130615803E+01 -0.75025014587E+01  0.96313471176E+01  0.51100000000E-03 0.  1.
        -12    1    3    3    0    0  0.20961253723E+02 -0.29897259029E+02  0.24132240370E+02  0.43767399744E+02  0.00000000000E+00 0.  1.
</event>
<event>
 7    1  0.2879200E-015  0.9000768E+02  0.7816164E-02  0.1186339E+00
        -11   -1    0    0    0    0  0.00000000000E+00  0.00000000000E+00  0.45593999997E+02  0.45594000000E+02  0.51100000000E-03 0. -1.
         11   -1    0    0    0    0 -0.00000000000E+00 -0.00000000000E+00 -0.45593999997E+02  0.45594000000E+02  0.51100000000E-03 0.  1.
    9900012    2    1    2    0    0  0.47973749187E+00 -0.69187922016E+00 -0.82723081327E+00  0.90007679817E+02  0.89999940390E+02 0.  0.
        -12    1    1    2    0    0 -0.47973749187E+00  0.69187922016E+00  0.82723081327E+00  0.11803201832E+01  0.00000000000E+00 0.  1.
         11    1    3    3    0    0 -0.73168332109E+01 -0.43121719891E+01  0.26559047489E+01  0.88985788638E+01  0.51100000000E-03 0. -1.
        -11    1    3    3    0    0 -0.23410852021E+02 -0.12670936435E+02 -0.27670917463E+02  0.38396618289E+02  0.51100000000E-03 0.  1.
         12    1    3    3    0    0  0.31207422724E+02  0.16291229204E+02  0.24187781901E+02  0.42712482664E+02  0.00000000000E+00 0. -1.
</event>
<event>
 7    1  0.2879200E-015  0.9000769E+02  0.7816164E-02  0.1186339E+00
        -11   -1    0    0    0    0  0.00000000000E+00  0.00000000000E+00  0.45593999997E+02  0.45594000000E+02  0.51100000000E-03 0.  1.
         11   -1    0    0    0    0 -0.00000000000E+00 -0.00000000000E+00 -0.45593999997E+02  0.45594000000E+02  0.51100000000E-03 0. -1.
    9900012    2    1    2    0    0  0.34703233599E+00 -0.93734198499E+00 -0.62776440381E+00  0.90007690894E+02  0.89999951614E+02 0.  0.
        -12    1    1    2    0    0 -0.34703233599E+00  0.93734198499E+00  0.62776440381E+00  0.11803091060E+01  0.00000000000E+00 0.  1.
         11    1    3    3    0    0  0.97332521084E+01 -0.30340190715E+01 -0.19021979462E+01  0.10371105323E+02  0.51100000000E-03 0. -1.
        -11    1    3    3    0    0 -0.41359298853E+02 -0.12532495477E+02 -0.62884466424E+01  0.43671496492E+02  0.51100000000E-03 0.  1.
         12    1    3    3    0    0  0.31973079080E+02  0.14629172563E+02  0.75628801847E+01  0.35965089079E+02  0.00000000000E+00 0. -1.
</event>
<event>
 7    1  0.2879200E-015  0.9000781E+02  0.7816164E-02  0.1186339E+00
        -11   -1    0    0    0    0  0.00000000000E+00  0.00000000000E+00  0.45593999997E+02  0.45594000000E+02  0.51100000000E-03 0.  1.
         11   -1    0    0    0    0 -0.00000000000E+00 -0.00000000000E+00 -0.45593999997E+02  0.45594000000E+02  0.51100000000E-03 0. -1.
    9900012    2    1    2    0    0 -0.68734944260E+00  0.86677824983E+00  0.41120731587E+00  0.90007811351E+02  0.90000073661E+02 0.  0.
        -12    1    1    2    0    0  0.68734944260E+00 -0.86677824983E+00 -0.41120731587E+00  0.11801886490E+01  0.00000000000E+00 0.  1.
         11    1    3    3    0    0  0.94740397140E+01 -0.25362363454E+02 -0.28777675910E+02  0.39511536790E+02  0.51100000000E-03 0. -1.
        -11    1    3    3    0    0 -0.52228776611E+01 -0.57989645443E+01  0.16679444651E+01  0.79805062401E+01  0.51100000000E-03 0.  1.
        -12    1    3    3    0    0 -0.49385114956E+01  0.32028106248E+02  0.27520938760E+02  0.42515768321E+02  0.00000000000E+00 0.  1.
</event>
<event>
 7    1  0.2879200E-015  0.9000775E+02  0.7816164E-02  0.1186339E+00
        -11   -1    0    0    0    0  0.00000000000E+00  0.00000000000E+00  0.45593999997E+02  0.45594000000E+02  0.51100000000E-03 0. -1.
         11   -1    0    0    0    0 -0.00000000000E+00 -0.00000000000E+00 -0.45593999997E+02  0.45594000000E+02  0.51100000000E-03 0.  1.
    9900012    2    1    2    0    0 -0.39079005594E+00 -0.55172057617E+00  0.96741098074E+00  0.90007747287E+02  0.90000008751E+02 0.  0.
        -12    1    1    2    0    0  0.39079005594E+00  0.55172057617E+00 -0.96741098074E+00  0.11802527135E+01  0.00000000000E+00 0.  1.
         11    1    3    3    0    0  0.20266930894E+01  0.29752488349E+02  0.25697371960E+02  0.39365885914E+02  0.51100000000E-03 0. -1.
        -11    1    3    3    0    0  0.68814819330E+01 -0.58459558197E+01  0.55685415415E+01  0.10608423455E+02  0.51100000000E-03 0.  1.
        -12    1    3    3    0    0 -0.92989650783E+01 -0.24458253106E+02 -0.30298502521E+02  0.40033437918E+02  0.00000000000E+00 0.  1.
</event>
<event>
 7    1  0.2879200E-015  0.9000742E+02  0.7816164E-02  0.1186340E+00
        -11   -1    0    0    0    0  0.00000000000E+00  0.00000000000E+00  0.45593999997E+02  0.45594000000E+02  0.51100000000E-03 0.  1.
         11   -1    0    0    0    0 -0.00000000000E+00 -0.00000000000E+00 -0.45593999997E+02  0.45594000000E+02  0.51100000000E-03 0. -1.
    9900012    2    1    2    0    0 -0.31519973725E+00  0.69957672516E+00 -0.89722507374E+00  0.90007419083E+02  0.89999676214E+02 0.  0.
        -12    1    1    2    0    0  0.31519973725E+00 -0.69957672516E+00  0.89722507374E+00  0.11805809170E+01  0.00000000000E+00 0.  1.
         11    1    3    3    0    0 -0.17985153062E+02  0.35613908522E+02  0.47239952898E+01  0.40176265913E+02  0.51100000000E-03 0. -1.
        -11    1    3    3    0    0  0.48578992253E+01  0.53566631464E+01 -0.13451386684E+01  0.73554349461E+01  0.51100000000E-03 0.  1.
        -12    1    3    3    0    0  0.12812054100E+02 -0.40270994944E+02 -0.42760816951E+01  0.42475718224E+02  0.00000000000E+00 0.  1.
</event>
<event>
 7    1  0.2879200E-015  0.9000769E+02  0.7816164E-02  0.1186339E+00
        -11   -1    0    0    0    0  0.00000000000E+00  0.00000000000E+00  0.45593999997E+02  0.45594000000E+02  0.51100000000E-03 0. -1.
         11   -1    0    0    0    0 -0.00000000000E+00 -0.00000000000E+00 -0.45593999997E+02  0.45594000000E+02  0.51100000000E-03 0.  1.
    9900012    2    1    2    0    0 -0.90221987047E+00  0.28966063230E+00 -0.70372261401E+00  0.90007690933E+02  0.89999951653E+02 0.  0.
        -12    1    1    2    0    0  0.90221987047E+00 -0.28966063230E+00  0.70372261401E+00  0.11803090672E+01  0.00000000000E+00 0.  1.
         11    1    3    3    0    0 -0.11263814639E+02  0.34300627213E+02 -0.10882229868E+02  0.37707154156E+02  0.51100000000E-03 0. -1.
        -11    1    3    3    0    0 -0.35322246266E+01  0.67531585959E+01  0.45275019497E+01  0.88645381154E+01  0.51100000000E-03 0.  1.
        -12    1    3    3    0    0  0.13893819395E+02 -0.40764125176E+02  0.56510053042E+01  0.43435998661E+02  0.00000000000E+00 0.  1.
</event>
<event>
 7    1  0.2879200E-015  0.9000774E+02  0.7816164E-02  0.1186339E+00
        -11   -1    0    0    0    0  0.00000000000E+00  0.00000000000E+00  0.45593999997E+02  0.45594000000E+02  0.51100000000E-03 0.  1.
         11   -1    0    0    0    0 -0.00000000000E+00 -0.00000000000E+00 -0.45593999997E+02  0.45594000000E+02  0.51100000000E-03 0. -1.
    9900012    2    1    2    0    0  0.72669980754E+00  0.53441684437E+00 -0.76113485201E+00  0.90007737217E+02  0.89999998548E+02 0.  0.
        -12    1    1    2    0    0 -0.72669980754E+00 -0.53441684437E+00  0.76113485201E+00  0.11802627829E+01  0.00000000000E+00 0.  1.
         11    1    3    3    0    0  0.24703227859E+01  0.19384184283E+02  0.10683680523E+02  0.22270835745E+02  0.51100000000E-03 0. -1.
        -11    1    3    3    0    0  0.15378850469E+02 -0.76454527456E+01  0.22376247412E+02  0.28207418137E+02  0.51100000000E-03 0.  1.
         12    1    3    3    0    0 -0.17122473447E+02 -0.11204314693E+02 -0.33821062788E+02  0.39529483336E+02  0.00000000000E+00 0. -1.
</event>
<event>
 7    1  0.2879200E-015  0.9000779E+02  0.7816164E-02  0.1186339E+00
        -11   -1    0    0    0    0  0.00000000000E+00  0.00000000000E+00  0.45593999997E+02  0.45594000000E+02  0.51100000000E-03 0. -1.
         11   -1    0    0    0    0 -0.00000000000E+00 -0.00000000000E+00 -0.45593999997E+02  0.45594000000E+02  0.51100000000E-03 0.  1.
    9900012    2    1    2    0    0  0.82374263228E+00  0.59953896059E+00  0.59573817736E+00  0.90007786941E+02  0.90000048928E+02 0.  0.
        -12    1    1    2    0    0 -0.82374263228E+00 -0.59953896059E+00 -0.59573817736E+00  0.11802130594E+01  0.00000000000E+00 0.  1.
         11    1    3    3    0    0  0.30101142026E+02 -0.15222882939E+02 -0.85238777850E+01  0.34791829630E+02  0.51100000000E-03 0. -1.
        -11    1    3    3    0    0  0.90744870190E+01 -0.40019365526E+01 -0.30230497287E+01  0.10368251576E+02  0.51100000000E-03 0.  1.
        -12    1    3    3    0    0 -0.38351886413E+02  0.19824358452E+02  0.12142665691E+02  0.44847705734E+02  0.00000000000E+00 0.  1.
</event>
<event>
 7    1  0.2879200E-015  0.9000801E+02  0.7816164E-02  0.1186338E+00
        -11   -1    0    0    0    0  0.00000000000E+00  0.00000000000E+00  0.45593999997E+02  0.45594000000E+02  0.51100000000E-03 0.  1.
         11   -1    0    0    0    0 -0.00000000000E+00 -0.00000000000E+00 -0.45593999997E+02  0.45594000000E+02  0.51100000000E-03 0. -1.
    9900012    2    1    2    0    0 -0.11614622654E+01  0.20824485260E+00 -0.28572990918E-02  0.90008013273E+02  0.90000278247E+02 0.  0.
        -12    1    1    2    0    0  0.11614622654E+01 -0.20824485260E+00  0.28572990918E-02  0.11799867274E+01  0.00000000000E+00 0.  1.
         11    1    3    3    0    0 -0.17468598958E+02 -0.72421940266E+01 -0.38164203796E+02  0.42592344095E+02  0.51100000000E-03 0. -1.
        -11    1    3    3    0    0  0.53134036733E+01 -0.46599376549E+01  0.14345994973E+01  0.72114737413E+01  0.51100000000E-03 0.  1.
        -12    1    3    3    0    0  0.10993733019E+02  0.12110376534E+02  0.36726747000E+02  0.40204195436E+02  0.00000000000E+00 0.  1.
</event>
<event>
 7    1  0.2879200E-015  0.9000866E+02  0.7816164E-02  0.1186337E+00
        -11   -1    0    0    0    0  0.00000000000E+00  0.00000000000E+00  0.45593999997E+02  0.45594000000E+02  0.51100000000E-03 0.  1.
         11   -1    0    0    0    0 -0.00000000000E+00 -0.00000000000E+00 -0.45593999997E+02  0.45594000000E+02  0.51100000000E-03 0. -1.
    9900012    2    1    2    0    0 -0.29608865269E+00  0.11346755099E+01 -0.12526174074E+00  0.90008658020E+02  0.90000931501E+02 0.  0.
        -12    1    1    2    0    0  0.29608865269E+00 -0.11346755099E+01  0.12526174074E+00  0.11793419804E+01  0.00000000000E+00 0.  1.
         11    1    3    3    0    0 -0.61796717182E+01 -0.51700648094E+01  0.49641979701E+01  0.94636765808E+01  0.51100000000E-03 0. -1.
        -11    1    3    3    0    0  0.63031365553E+01 -0.27143192553E+02  0.23569336635E+02  0.36496521233E+02  0.51100000000E-03 0.  1.
         12    1    3    3    0    0 -0.41955348981E+00  0.33447932872E+02 -0.28658796346E+02  0.44048460206E+02  0.00000000000E+00 0. -1.
</event>
<event>
 7    1  0.2879200E-015  0.9000774E+02  0.7816164E-02  0.1186339E+00
        -11   -1    0    0    0    0  0.00000000000E+00  0.00000000000E+00  0.45593999997E+02  0.45594000000E+02  0.51100000000E-03 0.  1.
         11   -1    0    0    0    0 -0.00000000000E+00 -0.00000000000E+00 -0.45593999997E+02  0.45594000000E+02  0.51100000000E-03 0. -1.
    9900012    2    1    2    0    0  0.34822137443E+00 -0.67741474365E-01 -0.11256857343E+01  0.90007739264E+02  0.90000000622E+02 0.  0.
        -12    1    1    2    0    0 -0.34822137443E+00  0.67741474365E-01  0.11256857343E+01  0.11802607361E+01  0.00000000000E+00 0.  1.
         11    1    3    3    0    0  0.20328649276E+01  0.50095013226E+01  0.71898146851E+01  0.89956144194E+01  0.51100000000E-03 0. -1.
        -11    1    3    3    0    0  0.15707490933E+02 -0.45724664066E+01  0.32641968504E+02  0.36512064150E+02  0.51100000000E-03 0.  1.
         12    1    3    3    0    0 -0.17392134487E+02 -0.50477639042E+00 -0.40957468923E+02  0.44500060694E+02  0.00000000000E+00 0. -1.
</event>
<event>
 7    1  0.2879200E-015  0.9000766E+02  0.7816164E-02  0.1186339E+00
        -11   -1    0    0    0    0  0.00000000000E+00  0.00000000000E+00  0.45593999997E+02  0.45594000000E+02  0.51100000000E-03 0.  1.
         11   -1    0    0    0    0 -0.00000000000E+00 -0.00000000000E+00 -0.45593999997E+02  0.45594000000E+02  0.51100000000E-03 0. -1.
    9900012    2    1    2    0    0  0.74891604374E+00 -0.79250959673E+00 -0.45193758467E+00  0.90007663488E+02  0.89999923846E+02 0.  0.
        -12    1    1    2    0    0 -0.74891604374E+00  0.79250959673E+00  0.45193758467E+00  0.11803365122E+01  0.00000000000E+00 0.  1.
         11    1    3    3    0    0  0.42996751780E+01  0.78204946601E+01  0.21717610310E+01  0.91849817420E+01  0.51100000000E-03 0. -1.
        -11    1    3    3    0    0  0.11362849296E+02 -0.22598566342E+02  0.31892540325E+02  0.40705573003E+02  0.51100000000E-03 0.  1.
         12    1    3    3    0    0 -0.14913608431E+02  0.13985562085E+02 -0.34516238941E+02  0.40117108743E+02  0.00000000000E+00 0. -1.
</event>
<event>
 7    1  0.2879200E-015  0.9000774E+02  0.7816164E-02  0.1186339E+00
        -11   -1    0    0    0    0  0.00000000000E+00  0.00000000000E+00  0.45593999997E+02  0.45594000000E+02  0.51100000000E-03 0. -1.
         11   -1    0    0    0    0 -0.00000000000E+00 -0.00000000000E+00 -0.45593999997E+02  0.45594000000E+02  0.51100000000E-03 0.  1.
    9900012    2    1    2    0    0  0.14220375524E+00  0.30843533408E+00  0.11303394656E+01  0.90007736652E+02  0.89999997976E+02 0.  0.
        -12    1    1    2    0    0 -0.14220375524E+00 -0.30843533408E+00 -0.11303394656E+01  0.11802633480E+01  0.00000000000E+00 0.  1.
         11    1    3    3    0    0  0.61720941931E+01 -0.28218015991E+01 -0.75097255014E+01  0.10121921179E+02  0.51100000000E-03 0. -1.
        -11    1    3    3    0    0 -0.20633588126E+02 -0.28406013375E+02 -0.14657509303E+02  0.38045881958E+02  0.51100000000E-03 0.  1.
         12    1    3    3    0    0  0.14603697688E+02  0.31536250308E+02  0.23297574270E+02  0.41839933514E+02  0.00000000000E+00 0. -1.
</event>
<event>
 7    1  0.2879200E-015  0.9000777E+02  0.7816164E-02  0.1186339E+00
        -11   -1    0    0    0    0  0.00000000000E+00  0.00000000000E+00  0.45593999997E+02  0.45594000000E+02  0.51100000000E-03 0. -1.
         11   -1    0    0    0    0 -0.00000000000E+00 -0.00000000000E+00 -0.45593999997E+02  0.45594000000E+02  0.51100000000E-03 0.  1.
    9900012    2    1    2    0    0 -0.46140748132E+00 -0.38324966799E+00  0.10164447694E+01  0.90007772420E+02  0.90000034216E+02 0.  0.
        -12    1    1    2    0    0  0.46140748132E+00  0.38324966799E+00 -0.10164447694E+01  0.11802275802E+01  0.00000000000E+00 0.  1.
         11    1    3    3    0    0  0.90019504409E+01 -0.27880505390E+01  0.47846190868E+01  0.10568865484E+02  0.51100000000E-03 0. -1.
        -11    1    3    3    0    0 -0.64608755269E+01  0.40170130799E+02  0.35971151558E+01  0.40845092223E+02  0.51100000000E-03 0.  1.
         12    1    3    3    0    0 -0.30024823954E+01 -0.37765329928E+02 -0.73652894732E+01  0.38593814713E+02  0.00000000000E+00 0. -1.
</event>
<event>
 7    1  0.2879200E-015  0.9000777E+02  0.7816164E-02  0.1186339E+00
        -11   -1    0    0    0    0  0.00000000000E+00  0.00000000000E+00  0.45593999997E+02  0.45594000000E+02  0.51100000000E-03 0. -1.
         11   -1    0    0    0    0 -0.00000000000E+00 -0.00000000000E+00 -0.45593999997E+02  0.45594000000E+02  0.51100000000E-03 0.  1.
    9900012    2    1    2    0    0  0.58017889320E+00  0.48337157587E+00  0.90702223873E+00  0.90007769103E+02  0.90000030855E+02 0.  0.
        -12    1    1    2    0    0 -0.58017889320E+00 -0.48337157587E+00 -0.90702223873E+00  0.11802308969E+01  0.00000000000E+00 0.  1.
         11    1    3    3    0    0  0.73782097985E+01 -0.94281502586E+01  0.60460523708E+01  0.13412037379E+02  0.51100000000E-03 0. -1.
        -11    1    3    3    0    0  0.11268615650E+02 -0.36826843126E+01 -0.36248510076E+02  0.38137885959E+02  0.51100000000E-03 0.  1.
         12    1    3    3    0    0 -0.18066646555E+02  0.13594206147E+02  0.31109479944E+02  0.38457845765E+02  0.00000000000E+00 0. -1.
</event>
<event>
 7    1  0.2879200E-015  0.9000765E+02  0.7816164E-02  0.1186339E+00
        -11   -1    0    0    0    0  0.00000000000E+00  0.00000000000E+00  0.45593999997E+02  0.45594000000E+02  0.51100000000E-03 0. -1.
         11   -1    0    0    0    0 -0.00000000000E+00 -0.00000000000E+00 -0.45593999997E+02  0.45594000000E+02  0.51100000000E-03 0.  1.
    9900012    2    1    2    0    0 -0.31781569494E+00 -0.95619087878E+00  0.61475240328E+00  0.90007649065E+02  0.89999909233E+02 0.  0.
        -12    1    1    2    0    0  0.31781569494E+00  0.95619087878E+00 -0.61475240328E+00  0.11803509351E+01  0.00000000000E+00 0.  1.
         11    1    3    3    0    0  0.33623305386E+02 -0.10712300358E+02  0.11226516185E+02  0.37031266653E+02  0.51100000000E-03 0. -1.
        -11    1    3    3    0    0  0.79441098134E+01  0.22365916566E+01 -0.59348030480E+01  0.10165289491E+02  0.51100000000E-03 0.  1.
        -12    1    3    3    0    0 -0.41885230894E+02  0.75195178227E+01 -0.46769607336E+01  0.42811092920E+02  0.00000000000E+00 0.  1.
</event>
<event>
 7    1  0.2879200E-015  0.9000771E+02  0.7816164E-02  0.1186339E+00
        -11   -1    0    0    0    0  0.00000000000E+00  0.00000000000E+00  0.45593999997E+02  0.45594000000E+02  0.51100000000E-03 0.  1.
         11   -1    0    0    0    0 -0.00000000000E+00 -0.00000000000E+00 -0.45593999997E+02  0.45594000000E+02  0.51100000000E-03 0. -1.
    9900012    2    1    2    0    0  0.34225606363E+00 -0.91121083595E+00  0.66756634788E+00  0.90007707990E+02  0.89999968935E+02 0.  0.
        -12    1    1    2    0    0 -0.34225606363E+00  0.91121083595E+00 -0.66756634788E+00  0.11802920103E+01  0.00000000000E+00 0.  1.
         11    1    3    3    0    0 -0.97502295248E+00 -0.49531901683E+00 -0.99969224487E+01  0.10056563498E+02  0.51100000000E-03 0. -1.
        -11    1    3    3    0    0 -0.16851905190E+01  0.36759198616E+02  0.19467689799E+02  0.41630151289E+02  0.51100000000E-03 0.  1.
         12    1    3    3    0    0  0.30024695352E+01 -0.37175090435E+02 -0.88032010027E+01  0.38320993203E+02  0.00000000000E+00 0. -1.
</event>
<event>
 7    1  0.2879200E-015  0.9000767E+02  0.7816164E-02  0.1186339E+00
        -11   -1    0    0    0    0  0.00000000000E+00  0.00000000000E+00  0.45593999997E+02  0.45594000000E+02  0.51100000000E-03 0.  1.
         11   -1    0    0    0    0 -0.00000000000E+00 -0.00000000000E+00 -0.45593999997E+02  0.45594000000E+02  0.51100000000E-03 0. -1.
    9900012    2    1    2    0    0 -0.10558830293E+01 -0.27659222107E+00 -0.44921017826E+00  0.90007668685E+02  0.89999929112E+02 0.  0.
        -12    1    1    2    0    0  0.10558830293E+01  0.27659222107E+00  0.44921017826E+00  0.11803313147E+01  0.00000000000E+00 0.  1.
         11    1    3    3    0    0  0.54917347981E+01 -0.69078843564E+01 -0.22337146481E+01  0.91031587245E+01  0.51100000000E-03 0. -1.
        -11    1    3    3    0    0  0.29918599690E+02 -0.11594955537E+02  0.18277323415E+02  0.36927309038E+02  0.51100000000E-03 0.  1.
         12    1    3    3    0    0 -0.36466217517E+02  0.18226247672E+02 -0.16492818946E+02  0.43977200923E+02  0.00000000000E+00 0. -1.
</event>
<event>
 7    1  0.2879200E-015  0.9000771E+02  0.7816164E-02  0.1186339E+00
        -11   -1    0    0    0    0  0.00000000000E+00  0.00000000000E+00  0.45593999997E+02  0.45594000000E+02  0.51100000000E-03 0. -1.
         11   -1    0    0    0    0 -0.00000000000E+00 -0.00000000000E+00 -0.45593999997E+02  0.45594000000E+02  0.51100000000E-03 0.  1.
    9900012    2    1    2    0    0  0.92612272855E+00  0.35724090219E+00  0.63856522202E+00  0.90007707700E+02  0.89999968642E+02 0.  0.
        -12    1    1    2    0    0 -0.92612272855E+00 -0.35724090219E+00 -0.63856522202E+00  0.11802922999E+01  0.00000000000E+00 0.  1.
         11    1    3    3    0    0 -0.52439986566E+01 -0.11087784871E+01 -0.77851784135E+01  0.94518736150E+01  0.51100000000E-03 0. -1.
        -11    1    3    3    0    0  0.38677363468E+02  0.53020325098E+01 -0.13331732302E+02  0.41252697852E+02  0.51100000000E-03 0.  1.
         12    1    3    3    0    0 -0.32507242083E+02 -0.38360131206E+01  0.21755475938E+02  0.39303136233E+02  0.00000000000E+00 0. -1.
</event>
<event>
 7    1  0.2879200E-015  0.9000777E+02  0.7816164E-02  0.1186339E+00
        -11   -1    0    0    0    0  0.00000000000E+00  0.00000000000E+00  0.45593999997E+02  0.45594000000E+02  0.51100000000E-03 0. -1.
         11   -1    0    0    0    0 -0.00000000000E+00 -0.00000000000E+00 -0.45593999997E+02  0.45594000000E+02  0.51100000000E-03 0.  1.
    9900012    2    1    2    0    0 -0.10675810634E+01  0.28387545062E-01  0.50239789351E+00  0.90007771707E+02  0.90000033494E+02 0.  0.
        -12    1    1    2    0    0  0.10675810634E+01 -0.28387545062E-01 -0.50239789351E+00  0.11802282927E+01  0.00000000000E+00 0.  1.
         11    1    3    3    0    0  0.19788338784E+02  0.27716604345E+02  0.19638998741E+02  0.39312577886E+02  0.51100000000E-03 0. -1.
        -11    1    3    3    0    0  0.18041466466E+01  0.51369438665E+01 -0.72655892479E+01  0.90792028719E+01  0.51100000000E-03 0.  1.
        -12    1    3    3    0    0 -0.22660066494E+02 -0.32825160667E+02 -0.11871011600E+02  0.41615990949E+02  0.00000000000E+00 0.  1.
</event>
<event>
 7    1  0.2879200E-015  0.9000785E+02  0.7816164E-02  0.1186339E+00
        -11   -1    0    0    0    0  0.00000000000E+00  0.00000000000E+00  0.45593999997E+02  0.45594000000E+02  0.51100000000E-03 0.  1.
         11   -1    0    0    0    0 -0.00000000000E+00 -0.00000000000E+00 -0.45593999997E+02  0.45594000000E+02  0.51100000000E-03 0. -1.
    9900012    2    1    2    0    0 -0.10823494138E+01  0.35135929547E+00 -0.31274695082E+00  0.90007854135E+02  0.90000117009E+02 0.  0.
        -12    1    1    2    0    0  0.10823494138E+01 -0.35135929547E+00  0.31274695082E+00  0.11801458653E+01  0.00000000000E+00 0.  1.
         11    1    3    3    0    0  0.76624478116E+01 -0.23485544373E+02 -0.23449352172E+01  0.24814967709E+02  0.51100000000E-03 0. -1.
        -11    1    3    3    0    0  0.62474876235E+01 -0.14189323915E+02  0.15727662492E+02  0.22084550765E+02  0.51100000000E-03 0.  1.
        -12    1    3    3    0    0 -0.14992284849E+02  0.38026227583E+02 -0.13695474226E+02  0.43108335661E+02  0.00000000000E+00 0.  1.
</event>
<event>
 7    1  0.2879200E-015  0.9000773E+02  0.7816164E-02  0.1186339E+00
        -11   -1    0    0    0    0  0.00000000000E+00  0.00000000000E+00  0.45593999997E+02  0.45594000000E+02  0.51100000000E-03 0.  1.
         11   -1    0    0    0    0 -0.00000000000E+00 -0.00000000000E+00 -0.45593999997E+02  0.45594000000E+02  0.51100000000E-03 0. -1.
    9900012    2    1    2    0    0  0.42035673637E-01  0.36722042109E+00 -0.11208972161E+01  0.90007733757E+02  0.89999995043E+02 0.  0.
        -12    1    1    2    0    0 -0.42035673637E-01 -0.36722042109E+00  0.11208972161E+01  0.11802662431E+01  0.00000000000E+00 0.  1.
         11    1    3    3    0    0 -0.28422659647E+00  0.24239784749E+02 -0.13913141235E+02  0.27950374751E+02  0.51100000000E-03 0. -1.
        -11    1    3    3    0    0  0.17478399309E+01  0.99689288107E+01 -0.15101101439E+02  0.18179047032E+02  0.51100000000E-03 0.  1.
        -12    1    3    3    0    0 -0.14215776608E+01 -0.33841493138E+02  0.27893345458E+02  0.43878311974E+02  0.00000000000E+00 0.  1.
</event>
<event>
 7    1  0.2879200E-015  0.9000774E+02  0.7816164E-02  0.1186339E+00
        -11   -1    0    0    0    0  0.00000000000E+00  0.00000000000E+00  0.45593999997E+02  0.45594000000E+02  0.51100000000E-03 0.  1.
         11   -1    0    0    0    0 -0.00000000000E+00 -0.00000000000E+00 -0.45593999997E+02  0.45594000000E+02  0.51100000000E-03 0. -1.
    9900012    2    1    2    0    0  0.55460797604E+00 -0.89506409990E+00 -0.53317717607E+00  0.90007742549E+02  0.90000003950E+02 0.  0.
        -12    1    1    2    0    0 -0.55460797604E+00  0.89506409990E+00  0.53317717607E+00  0.11802574512E+01  0.00000000000E+00 0.  1.
         11    1    3    3    0    0 -0.33490603018E+02 -0.19289836657E+02 -0.11845890530E+02  0.40423302827E+02  0.51100000000E-03 0. -1.
        -11    1    3    3    0    0 -0.32777353189E+01  0.44854794196E+01  0.78318108920E+01  0.96021006323E+01  0.51100000000E-03 0.  1.
        -12    1    3    3    0    0  0.37322946313E+02  0.13909293138E+02  0.34809024615E+01  0.39982339089E+02  0.00000000000E+00 0.  1.
</event>
<event>
 7    1  0.2879200E-015  0.9000775E+02  0.7816164E-02  0.1186339E+00
        -11   -1    0    0    0    0  0.00000000000E+00  0.00000000000E+00  0.45593999997E+02  0.45594000000E+02  0.51100000000E-03 0.  1.
         11   -1    0    0    0    0 -0.00000000000E+00 -0.00000000000E+00 -0.45593999997E+02  0.45594000000E+02  0.51100000000E-03 0. -1.
    9900012    2    1    2    0    0  0.12784901884E+00 -0.56969676165E+00 -0.10257131691E+01  0.90007751180E+02  0.90000012696E+02 0.  0.
        -12    1    1    2    0    0 -0.12784901884E+00  0.56969676165E+00  0.10257131691E+01  0.11802488200E+01  0.00000000000E+00 0.  1.
         11    1    3    3    0    0  0.93019825075E+01  0.13303674638E+01  0.22855727231E+01  0.96706048980E+01  0.51100000000E-03 0. -1.
        -11    1    3    3    0    0 -0.28933887389E+01  0.25480526678E+02 -0.31447487679E+02  0.40577991816E+02  0.51100000000E-03 0.  1.
         12    1    3    3    0    0 -0.62807447498E+01 -0.27380590904E+02  0.28136201787E+02  0.39759154466E+02  0.00000000000E+00 0. -1.
</event>
<event>
 7    1  0.2879200E-015  0.9000771E+02  0.7816164E-02  0.1186339E+00
        -11   -1    0    0    0    0  0.00000000000E+00  0.00000000000E+00  0.45593999997E+02  0.45594000000E+02  0.51100000000E-03 0. -1.
         11   -1    0    0    0    0 -0.00000000000E+00 -0.00000000000E+00 -0.45593999997E+02  0.45594000000E+02  0.51100000000E-03 0.  1.
    9900012    2    1    2    0    0  0.80711044949E+00 -0.17435261851E+00  0.84335679482E+00  0.90007713257E+02  0.89999974272E+02 0.  0.
        -12    1    1    2    0    0 -0.80711044949E+00  0.17435261851E+00 -0.84335679482E+00  0.11802867434E+01  0.00000000000E+00 0.  1.
         11    1    3    3    0    0  0.28961187947E+02 -0.17427333416E+02  0.16465171262E+02  0.37597396482E+02  0.51100000000E-03 0. -1.
        -11    1    3    3    0    0  0.64270972984E+01  0.77283941943E+00  0.56507697883E+01  0.85927911596E+01  0.51100000000E-03 0.  1.
        -12    1    3    3    0    0 -0.34581174796E+02  0.16480141378E+02 -0.21272584256E+02  0.43817525615E+02  0.00000000000E+00 0.  1.
</event>
<event>
 7    1  0.2879200E-015  0.9000778E+02  0.7816164E-02  0.1186339E+00
        -11   -1    0    0    0    0  0.00000000000E+00  0.00000000000E+00  0.45593999997E+02  0.45594000000E+02  0.51100000000E-03 0. -1.
         11   -1    0    0    0    0 -0.00000000000E+00 -0.00000000000E+00 -0.45593999997E+02  0.45594000000E+02  0.51100000000E-03 0.  1.
    9900012    2    1    2    0    0 -0.14554373678E+00  0.87664048743E-02  0.11711768909E+01  0.90007781741E+02  0.90000043660E+02 0.  0.
        -12    1    1    2    0    0  0.14554373678E+00 -0.87664048743E-02 -0.11711768909E+01  0.11802182590E+01  0.00000000000E+00 0.  1.
         11    1    3    3    0    0  0.91198252252E+01  0.13982888528E+02  0.34638083690E+01  0.17049643762E+02  0.51100000000E-03 0. -1.
        -11    1    3    3    0    0  0.22845936442E+02 -0.30190268840E+01  0.21501486580E+02  0.31517697578E+02  0.51100000000E-03 0.  1.
         12    1    3    3    0    0 -0.32111305404E+02 -0.10955095239E+02 -0.23794118058E+02  0.41440440401E+02  0.00000000000E+00 0. -1.
</event>
<event>
 7    1  0.2879200E-015  0.9000779E+02  0.7816164E-02  0.1186339E+00
        -11   -1    0    0    0    0  0.00000000000E+00  0.00000000000E+00  0.45593999997E+02  0.45594000000E+02  0.51100000000E-03 0.  1.
         11   -1    0    0    0    0 -0.00000000000E+00 -0.00000000000E+00 -0.45593999997E+02  0.45594000000E+02  0.51100000000E-03 0. -1.
    9900012    2    1    2    0    0  0.69288919114E+00  0.28339962723E+00 -0.91240876533E+00  0.90007787928E+02  0.90000049929E+02 0.  0.
        -12    1    1    2    0    0 -0.69288919114E+00 -0.28339962723E+00  0.91240876533E+00  0.11802120720E+01  0.00000000000E+00 0.  1.
         11    1    3    3    0    0 -0.79549854572E+01 -0.95117287632E+01  0.55715011041E+01  0.13593984056E+02  0.51100000000E-03 0. -1.
        -11    1    3    3    0    0 -0.32793681201E+02 -0.88836331520E+00 -0.73060428907E+01  0.33609418011E+02  0.51100000000E-03 0.  1.
         12    1    3    3    0    0  0.41441555849E+02  0.10683491706E+02  0.82213302127E+00  0.42804385861E+02  0.00000000000E+00 0. -1.
</event>
<event>
 7    1  0.2879200E-015  0.9000802E+02  0.7816164E-02  0.1186338E+00
        -11   -1    0    0    0    0  0.00000000000E+00  0.00000000000E+00  0.45593999997E+02  0.45594000000E+02  0.51100000000E-03 0.  1.
         11   -1    0    0    0    0 -0.00000000000E+00 -0.00000000000E+00 -0.45593999997E+02  0.45594000000E+02  0.51100000000E-03 0. -1.
    9900012    2    1    2    0    0  0.92283657829E+00  0.37111870712E+00 -0.63481140978E+00  0.90008024589E+02  0.90000289713E+02 0.  0.
        -12    1    1    2    0    0 -0.92283657829E+00 -0.37111870712E+00  0.63481140978E+00  0.11799754112E+01  0.00000000000E+00 0.  1.
         11    1    3    3    0    0  0.98670689351E+00 -0.48251210547E+01 -0.88308719206E+01  0.10111364044E+02  0.51100000000E-03 0. -1.
        -11    1    3    3    0    0 -0.16699638428E+02 -0.16778751151E+02 -0.26533876273E+02  0.35559119845E+02  0.51100000000E-03 0.  1.
         12    1    3    3    0    0  0.16635768113E+02  0.21974990913E+02  0.34729936784E+02  0.44337540700E+02  0.00000000000E+00 0. -1.
</event>
<event>
 7    1  0.2879200E-015  0.9000771E+02  0.7816164E-02  0.1186339E+00
        -11   -1    0    0    0    0  0.00000000000E+00  0.00000000000E+00  0.45593999997E+02  0.45594000000E+02  0.51100000000E-03 0.  1.
         11   -1    0    0    0    0 -0.00000000000E+00 -0.00000000000E+00 -0.45593999997E+02  0.45594000000E+02  0.51100000000E-03 0. -1.
    9900012    2    1    2    0    0 -0.10845177394E+01 -0.26764463079E+00 -0.38113334105E+00  0.90007714018E+02  0.89999975043E+02 0.  0.
        -12    1    1    2    0    0  0.10845177394E+01  0.26764463079E+00  0.38113334105E+00  0.11802859819E+01  0.00000000000E+00 0.  1.
         11    1    3    3    0    0  0.22494191966E+02 -0.29006913943E+02  0.11374233345E+02  0.38428673060E+02  0.51100000000E-03 0. -1.
        -11    1    3    3    0    0 -0.38890686556E+01 -0.28633188125E+01  0.80630768261E+01  0.93987583113E+01  0.51100000000E-03 0.  1.
        -12    1    3    3    0    0 -0.19689641050E+02  0.31602588125E+02 -0.19818443512E+02  0.42180282646E+02  0.00000000000E+00 0.  1.
</event>
<event>
 7    1  0.2879200E-015  0.9000767E+02  0.7816164E-02  0.1186339E+00
        -11   -1    0    0    0    0  0.00000000000E+00  0.00000000000E+00  0.45593999997E+02  0.45594000000E+02  0.51100000000E-03 0.  1.
         11   -1    0    0    0    0 -0.00000000000E+00 -0.00000000000E+00 -0.45593999997E+02  0.45594000000E+02  0.51100000000E-03 0. -1.
    9900012    2    1    2    0    0 -0.17020400756E+00 -0.11022632400E+01  0.38629273011E+00  0.90007671348E+02  0.89999931809E+02 0.  0.
        -12    1    1    2    0    0  0.17020400756E+00  0.11022632400E+01 -0.38629273011E+00  0.11803286524E+01  0.00000000000E+00 0.  1.
         11    1    3    3    0    0  0.15338712341E+02 -0.27506565167E+02 -0.13604517704E+02  0.34306998204E+02  0.51100000000E-03 0. -1.
        -11    1    3    3    0    0  0.20071602973E+01 -0.45721409428E+01 -0.11091473555E+02  0.12163632317E+02  0.51100000000E-03 0.  1.
        -12    1    3    3    0    0 -0.17516076645E+02  0.30976442869E+02  0.25082283989E+02  0.43537040827E+02  0.00000000000E+00 0.  1.
</event>
<event>
 7    1  0.2879200E-015  0.9000776E+02  0.7816164E-02  0.1186339E+00
        -11   -1    0    0    0    0  0.00000000000E+00  0.00000000000E+00  0.45593999997E+02  0.45594000000E+02  0.51100000000E-03 0.  1.
         11   -1    0    0    0    0 -0.00000000000E+00 -0.00000000000E+00 -0.45593999997E+02  0.45594000000E+02  0.51100000000E-03 0. -1.
    9900012    2    1    2    0    0 -0.83760867604E+00 -0.19430579902E+00 -0.80847647086E+00  0.90007755431E+02  0.90000017003E+02 0.  0.
        -12    1    1    2    0    0  0.83760867604E+00  0.19430579902E+00  0.80847647086E+00  0.11802445686E+01  0.00000000000E+00 0.  1.
         11    1    3    3    0    0 -0.53879770452E+00  0.73309549987E+01 -0.25537102449E+01  0.77816862206E+01  0.51100000000E-03 0. -1.
        -11    1    3    3    0    0 -0.23634355270E+02  0.12260655201E+02  0.30328062752E+02  0.40357128312E+02  0.51100000000E-03 0.  1.
         12    1    3    3    0    0  0.23335544299E+02 -0.19785915999E+02 -0.28582828978E+02  0.41868940899E+02  0.00000000000E+00 0. -1.
</event>
<event>
 7    1  0.2879200E-015  0.9000775E+02  0.7816164E-02  0.1186339E+00
        -11   -1    0    0    0    0  0.00000000000E+00  0.00000000000E+00  0.45593999997E+02  0.45594000000E+02  0.51100000000E-03 0.  1.
         11   -1    0    0    0    0 -0.00000000000E+00 -0.00000000000E+00 -0.45593999997E+02  0.45594000000E+02  0.51100000000E-03 0. -1.
    9900012    2    1    2    0    0  0.70410331780E+00  0.65211127368E+00 -0.68701322730E+00  0.90007746735E+02  0.90000008192E+02 0.  0.
        -12    1    1    2    0    0 -0.70410331780E+00 -0.65211127368E+00  0.68701322730E+00  0.11802532651E+01  0.00000000000E+00 0.  1.
         11    1    3    3    0    0  0.30332878857E+01  0.24410375740E+01  0.65513650451E+01  0.76210159461E+01  0.51100000000E-03 0. -1.
        -11    1    3    3    0    0 -0.19401383873E+02 -0.37631142383E+02 -0.26300991295E+01  0.42419735912E+02  0.51100000000E-03 0.  1.
         12    1    3    3    0    0  0.17072199305E+02  0.35842216082E+02 -0.46082791429E+01  0.39966994876E+02  0.00000000000E+00 0. -1.
</event>
<event>
 7    1  0.2879200E-015  0.9000771E+02  0.7816164E-02  0.1186339E+00
        -11   -1    0    0    0    0  0.00000000000E+00  0.00000000000E+00  0.45593999997E+02  0.45594000000E+02  0.51100000000E-03 0. -1.
         11   -1    0    0    0    0 -0.00000000000E+00 -0.00000000000E+00 -0.45593999997E+02  0.45594000000E+02  0.51100000000E-03 0.  1.
    9900012    2    1    2    0    0 -0.74844056529E+00 -0.90765860414E+00  0.95257743792E-01  0.90007711281E+02  0.89999972270E+02 0.  0.
        -12    1    1    2    0    0  0.74844056529E+00  0.90765860414E+00 -0.95257743792E-01  0.11802887186E+01  0.00000000000E+00 0.  1.
         11    1    3    3    0    0 -0.25060544013E+02  0.85703312280E+01  0.26468872187E+02  0.37444393955E+02  0.51100000000E-03 0. -1.
        -11    1    3    3    0    0 -0.65118857874E+01  0.69561032893E+01 -0.14181131099E+01  0.96334352405E+01  0.51100000000E-03 0.  1.
        -12    1    3    3    0    0  0.30823989235E+02 -0.16434093121E+02 -0.24955501333E+02  0.42929882086E+02  0.00000000000E+00 0.  1.
</event>
<event>
 7    1  0.2879200E-015  0.9000778E+02  0.7816164E-02  0.1186339E+00
        -11   -1    0    0    0    0  0.00000000000E+00  0.00000000000E+00  0.45593999997E+02  0.45594000000E+02  0.51100000000E-03 0. -1.
         11   -1    0    0    0    0 -0.00000000000E+00 -0.00000000000E+00 -0.45593999997E+02  0.45594000000E+02  0.51100000000E-03 0.  1.
    9900012    2    1    2    0    0 -0.27899155698E+00  0.17061676901E+00  0.11340025570E+01  0.90007784693E+02  0.90000046651E+02 0.  0.
        -12    1    1    2    0    0  0.27899155698E+00 -0.17061676901E+00 -0.11340025570E+01  0.11802153066E+01  0.00000000000E+00 0.  1.
         11    1    3    3    0    0 -0.16569771488E+02  0.25120268052E+02 -0.61929215787E+01  0.30723565420E+02  0.51100000000E-03 0. -1.
        -11    1    3    3    0    0 -0.79671887460E+01  0.57369532333E+01 -0.12122122820E+02  0.15599185583E+02  0.51100000000E-03 0.  1.
        -12    1    3    3    0    0  0.24257968677E+02 -0.30686604516E+02  0.19449046956E+02  0.43685033691E+02  0.00000000000E+00 0.  1.
</event>
<event>
 7    1  0.2879200E-015  0.9000773E+02  0.7816164E-02  0.1186339E+00
        -11   -1    0    0    0    0  0.00000000000E+00  0.00000000000E+00  0.45593999997E+02  0.45594000000E+02  0.51100000000E-03 0. -1.
         11   -1    0    0    0    0 -0.00000000000E+00 -0.00000000000E+00 -0.45593999997E+02  0.45594000000E+02  0.51100000000E-03 0.  1.
    9900012    2    1    2    0    0 -0.96603532057E+00 -0.47009653122E+00 -0.48870368300E+00  0.90007726185E+02  0.89999987370E+02 0.  0.
        -12    1    1    2    0    0  0.96603532057E+00  0.47009653122E+00  0.48870368300E+00  0.11802738153E+01  0.00000000000E+00 0.  1.
         11    1    3    3    0    0  0.79985981671E+01  0.39221084891E+02 -0.19829886270E+00  0.40028869524E+02  0.51100000000E-03 0. -1.
        -11    1    3    3    0    0 -0.92315872685E+01  0.99802374105E+00  0.14254026352E+00  0.92864725742E+01  0.51100000000E-03 0.  1.
        -12    1    3    3    0    0  0.26695378086E+00 -0.40689205164E+02 -0.43294508382E+00  0.40692384086E+02  0.00000000000E+00 0.  1.
</event>
<event>
 7    1  0.2879200E-015  0.9000764E+02  0.7816164E-02  0.1186339E+00
        -11   -1    0    0    0    0  0.00000000000E+00  0.00000000000E+00  0.45593999997E+02  0.45594000000E+02  0.51100000000E-03 0. -1.
         11   -1    0    0    0    0 -0.00000000000E+00 -0.00000000000E+00 -0.45593999997E+02  0.45594000000E+02  0.51100000000E-03 0.  1.
    9900012    2    1    2    0    0 -0.33658094736E+00 -0.25036901591E+00  0.11033003261E+01  0.90007642856E+02  0.89999902941E+02 0.  0.
        -12    1    1    2    0    0  0.33658094736E+00  0.25036901591E+00 -0.11033003261E+01  0.11803571442E+01  0.00000000000E+00 0.  1.
         11    1    3    3    0    0  0.16748452616E+02  0.19769697288E+02 -0.23489436294E+02  0.34972921147E+02  0.51100000000E-03 0. -1.
        -11    1    3    3    0    0  0.11718348646E+02 -0.14547136972E+02  0.15687562765E+02  0.24393411300E+02  0.51100000000E-03 0.  1.
        -12    1    3    3    0    0 -0.28803382210E+02 -0.54729293316E+01  0.89051738557E+01  0.30641310409E+02  0.00000000000E+00 0.  1.
</event>
<event>
 7    1  0.2879200E-015  0.9000778E+02  0.7816164E-02  0.1186339E+00
        -11   -1    0    0    0    0  0.00000000000E+00  0.00000000000E+00  0.45593999997E+02  0.45594000000E+02  0.51100000000E-03 0. -1.
         11   -1    0    0    0    0 -0.00000000000E+00 -0.00000000000E+00 -0.45593999997E+02  0.45594000000E+02  0.51100000000E-03 0.  1.
    9900012    2    1    2    0    0 -0.57740887557E+00  0.92823995384E+00  0.44485905003E+00  0.90007775447E+02  0.90000037283E+02 0.  0.
        -12    1    1    2    0    0  0.57740887557E+00 -0.92823995384E+00 -0.44485905003E+00  0.11802245532E+01  0.00000000000E+00 0.  1.
         11    1    3    3    0    0 -0.32097439158E+01 -0.11152689673E+02  0.30146755987E+02  0.32303433870E+02  0.51100000000E-03 0. -1.
        -11    1    3    3    0    0 -0.31302604245E+01  0.24616189296E+01  0.12978395762E+02  0.13575597773E+02  0.51100000000E-03 0.  1.
        -12    1    3    3    0    0  0.57625954647E+01  0.96193106969E+01 -0.42680292700E+02  0.44128743804E+02  0.00000000000E+00 0.  1.
</event>
<event>
 7    1  0.2879200E-015  0.9000773E+02  0.7816164E-02  0.1186339E+00
        -11   -1    0    0    0    0  0.00000000000E+00  0.00000000000E+00  0.45593999997E+02  0.45594000000E+02  0.51100000000E-03 0. -1.
         11   -1    0    0    0    0 -0.00000000000E+00 -0.00000000000E+00 -0.45593999997E+02  0.45594000000E+02  0.51100000000E-03 0.  1.
    9900012    2    1    2    0    0  0.22487515199E+00  0.68185274510E+00  0.93677933274E+00  0.90007725660E+02  0.89999986838E+02 0.  0.
        -12    1    1    2    0    0 -0.22487515199E+00 -0.68185274510E+00 -0.93677933274E+00  0.11802743402E+01  0.00000000000E+00 0.  1.
         11    1    3    3    0    0  0.90609995545E+00 -0.37645530587E+00  0.12991272883E+02  0.13028273374E+02  0.51100000000E-03 0. -1.
        -11    1    3    3    0    0 -0.26281968525E+02 -0.21876125817E+02 -0.22645138354E+02  0.41013522668E+02  0.51100000000E-03 0.  1.
        -12    1    3    3    0    0  0.25600743721E+02  0.22934433868E+02  0.10590644804E+02  0.35965929618E+02  0.00000000000E+00 0.  1.
</event>
<event>
 7    1  0.2879200E-015  0.9000783E+02  0.7816164E-02  0.1186339E+00
        -11   -1    0    0    0    0  0.00000000000E+00  0.00000000000E+00  0.45593999997E+02  0.45594000000E+02  0.51100000000E-03 0.  1.
         11   -1    0    0    0    0 -0.00000000000E+00 -0.00000000000E+00 -0.45593999997E+02  0.45594000000E+02  0.51100000000E-03 0. -1.
    9900012    2    1    2    0    0  0.10196319777E+01 -0.18867486742E+00 -0.56351271110E+00  0.90007832999E+02  0.90000095594E+02 0.  0.
        -12    1    1    2    0    0 -0.10196319777E+01  0.18867486742E+00  0.56351271110E+00  0.11801670014E+01  0.00000000000E+00 0.  1.
         11    1    3    3    0    0  0.14806376285E+02 -0.34362224031E+02 -0.44311282611E+01  0.37677926124E+02  0.51100000000E-03 0. -1.
        -11    1    3    3    0    0 -0.59549983880E+01 -0.69850254297E+01 -0.34361035304E+01  0.98009894290E+01  0.51100000000E-03 0.  1.
        -12    1    3    3    0    0 -0.78317459196E+01  0.41158574593E+02  0.73037190804E+01  0.42528917446E+02  0.00000000000E+00 0.  1.
</event>
<event>
 7    1  0.2879200E-015  0.9000779E+02  0.7816164E-02  0.1186339E+00
        -11   -1    0    0    0    0  0.00000000000E+00  0.00000000000E+00  0.45593999997E+02  0.45594000000E+02  0.51100000000E-03 0.  1.
         11   -1    0    0    0    0 -0.00000000000E+00 -0.00000000000E+00 -0.45593999997E+02  0.45594000000E+02  0.51100000000E-03 0. -1.
    9900012    2    1    2    0    0  0.44847577599E+00 -0.10867686970E+01  0.10340467885E+00  0.90007792709E+02  0.90000054773E+02 0.  0.
        -12    1    1    2    0    0 -0.44847577599E+00  0.10867686970E+01 -0.10340467885E+00  0.11802072911E+01  0.00000000000E+00 0.  1.
         11    1    3    3    0    0  0.65402685119E+01 -0.18409888652E+01  0.44446157590E+01  0.81190493111E+01  0.51100000000E-03 0. -1.
        -11    1    3    3    0    0  0.10946010796E+02 -0.25001281343E+02  0.26644782272E+02  0.38142150487E+02  0.51100000000E-03 0.  1.
         12    1    3    3    0    0 -0.17037803532E+02  0.25755501512E+02 -0.30985993352E+02  0.43746592911E+02  0.00000000000E+00 0. -1.
</event>
<event>
 7    1  0.2879200E-015  0.9000775E+02  0.7816164E-02  0.1186339E+00
        -11   -1    0    0    0    0  0.00000000000E+00  0.00000000000E+00  0.45593999997E+02  0.45594000000E+02  0.51100000000E-03 0. -1.
         11   -1    0    0    0    0 -0.00000000000E+00 -0.00000000000E+00 -0.45593999997E+02  0.45594000000E+02  0.51100000000E-03 0.  1.
    9900012    2    1    2    0    0  0.67906461896E+00 -0.21038421307E+00  0.94213004358E+00  0.90007746090E+02  0.90000007538E+02 0.  0.
        -12    1    1    2    0    0 -0.67906461896E+00  0.21038421307E+00 -0.94213004358E+00  0.11802539103E+01  0.00000000000E+00 0.  1.
         11    1    3    3    0    0  0.11498353209E+02  0.29829853592E+02 -0.19146575609E+02  0.37264240897E+02  0.51100000000E-03 0. -1.
        -11    1    3    3    0    0 -0.30272319380E+01  0.19382944785E+01 -0.84480733452E+01  0.91810164034E+01  0.51100000000E-03 0.  1.
        -12    1    3    3    0    0 -0.77920566520E+01 -0.31978532284E+02  0.28536778998E+02  0.43562488789E+02  0.00000000000E+00 0.  1.
</event>
<event>
 7    1  0.2879200E-015  0.9000786E+02  0.7816164E-02  0.1186339E+00
        -11   -1    0    0    0    0  0.00000000000E+00  0.00000000000E+00  0.45593999997E+02  0.45594000000E+02  0.51100000000E-03 0.  1.
         11   -1    0    0    0    0 -0.00000000000E+00 -0.00000000000E+00 -0.45593999997E+02  0.45594000000E+02  0.51100000000E-03 0. -1.
    9900012    2    1    2    0    0 -0.54951167217E-01  0.93588320827E+00 -0.71682683456E+00  0.90007856907E+02  0.90000119818E+02 0.  0.
        -12    1    1    2    0    0  0.54951167217E-01 -0.93588320827E+00  0.71682683456E+00  0.11801430935E+01  0.00000000000E+00 0.  1.
         11    1    3    3    0    0  0.42322397941E+01  0.16092402042E+01 -0.21354697692E+02  0.21829443912E+02  0.51100000000E-03 0. -1.
        -11    1    3    3    0    0  0.12586033954E+02 -0.12999414344E+02 -0.17193260148E+02  0.24959992363E+02  0.51100000000E-03 0.  1.
        -12    1    3    3    0    0 -0.16873224915E+02  0.12326057348E+02  0.37831131005E+02  0.43218420632E+02  0.00000000000E+00 0.  1.
</event>
<event>
 7    1  0.2879200E-015  0.9000774E+02  0.7816164E-02  0.1186339E+00
        -11   -1    0    0    0    0  0.00000000000E+00  0.00000000000E+00  0.45593999997E+02  0.45594000000E+02  0.51100000000E-03 0. -1.
         11   -1    0    0    0    0 -0.00000000000E+00 -0.00000000000E+00 -0.45593999997E+02  0.45594000000E+02  0.51100000000E-03 0.  1.
    9900012    2    1    2    0    0  0.39535607435E+00  0.10369789326E+01  0.40171145752E+00  0.90007744169E+02  0.90000005592E+02 0.  0.
        -12    1    1    2    0    0 -0.39535607435E+00 -0.10369789326E+01 -0.40171145752E+00  0.11802558313E+01  0.00000000000E+00 0.  1.
         11    1    3    3    0    0  0.20990615231E+01 -0.86599171185E+01 -0.17775580806E+00  0.89124531508E+01  0.51100000000E-03 0. -1.
        -11    1    3    3    0    0 -0.23320800808E+01 -0.72817158618E+00 -0.39551851485E+02  0.39627235426E+02  0.51100000000E-03 0.  1.
         12    1    3    3    0    0  0.62837463210E+00  0.10425067637E+02  0.40131318750E+02  0.41468055592E+02  0.00000000000E+00 0. -1.
</event>
<event>
 7    1  0.2879614E-015  0.9000756E+02  0.7816164E-02  0.1186339E+00
        -11   -1    0    0    0    0  0.00000000000E+00  0.00000000000E+00  0.45593999997E+02  0.45594000000E+02  0.51100000000E-03 0.  1.
         11   -1    0    0    0    0 -0.00000000000E+00 -0.00000000000E+00 -0.45593999997E+02  0.45594000000E+02  0.51100000000E-03 0. -1.
    9900012    2    1    2    0    0 -0.10960591353E+01 -0.39398483531E+00 -0.19202213928E+00  0.90007558481E+02  0.89999817452E+02 0.  0.
        -12    1    1    2    0    0  0.10960591353E+01  0.39398483531E+00  0.19202213928E+00  0.11804415193E+01  0.00000000000E+00 0.  1.
         11    1    3    3    0    0 -0.17832307458E+02 -0.31743290138E+02 -0.27154271058E+01  0.36510288997E+02  0.51100000000E-03 0. -1.
        -11    1    3    3    0    0  0.25495762842E+00 -0.93449802000E+01  0.21410555830E+01  0.95905045540E+01  0.51100000000E-03 0.  1.
        -12    1    3    3    0    0  0.16481290694E+02  0.40694285502E+02  0.38234938352E+00  0.43906764929E+02  0.00000000000E+00 0.  1.
</event>
<event>
 7    1  0.2879200E-015  0.9000771E+02  0.7816164E-02  0.1186339E+00
        -11   -1    0    0    0    0  0.00000000000E+00  0.00000000000E+00  0.45593999997E+02  0.45594000000E+02  0.51100000000E-03 0.  1.
         11   -1    0    0    0    0 -0.00000000000E+00 -0.00000000000E+00 -0.45593999997E+02  0.45594000000E+02  0.51100000000E-03 0. -1.
    9900012    2    1    2    0    0  0.53388561020E+00  0.76073366134E+00 -0.72755783909E+00  0.90007707681E+02  0.89999968623E+02 0.  0.
        -12    1    1    2    0    0 -0.53388561020E+00 -0.76073366134E+00  0.72755783909E+00  0.11802923187E+01  0.00000000000E+00 0.  1.
         11    1    3    3    0    0  0.12563441586E+02  0.36391678888E+02 -0.83781357559E+01  0.39400349183E+02  0.51100000000E-03 0. -1.
        -11    1    3    3    0    0 -0.13430767727E+01 -0.63714662927E+01 -0.12087935765E+02  0.13730172222E+02  0.51100000000E-03 0.  1.
        -12    1    3    3    0    0 -0.10686479203E+02 -0.29259478934E+02  0.19738513682E+02  0.36877186276E+02  0.00000000000E+00 0.  1.
</event>
<event>
 7    1  0.2879200E-015  0.9000790E+02  0.7816164E-02  0.1186339E+00
        -11   -1    0    0    0    0  0.00000000000E+00  0.00000000000E+00  0.45593999997E+02  0.45594000000E+02  0.51100000000E-03 0. -1.
         11   -1    0    0    0    0 -0.00000000000E+00 -0.00000000000E+00 -0.45593999997E+02  0.45594000000E+02  0.51100000000E-03 0.  1.
    9900012    2    1    2    0    0  0.10080663128E+01 -0.13739195204E+00  0.59796468849E+00  0.90007900001E+02  0.90000163481E+02 0.  0.
        -12    1    1    2    0    0 -0.10080663128E+01  0.13739195204E+00 -0.59796468849E+00  0.11800999992E+01  0.00000000000E+00 0.  1.
         11    1    3    3    0    0 -0.26062940827E+01 -0.96365024659E+01  0.10267771706E+01  0.10035398360E+02  0.51100000000E-03 0. -1.
        -11    1    3    3    0    0 -0.34726744842E+02 -0.97343307006E+01 -0.65120428413E+01  0.36648474781E+02  0.51100000000E-03 0.  1.
         12    1    3    3    0    0  0.38341105238E+02  0.19233441214E+02  0.60832303593E+01  0.43324026860E+02  0.00000000000E+00 0. -1.
</event>
<event>
 7    1  0.2879200E-015  0.9000779E+02  0.7816164E-02  0.1186339E+00
        -11   -1    0    0    0    0  0.00000000000E+00  0.00000000000E+00  0.45593999997E+02  0.45594000000E+02  0.51100000000E-03 0. -1.
         11   -1    0    0    0    0 -0.00000000000E+00 -0.00000000000E+00 -0.45593999997E+02  0.45594000000E+02  0.51100000000E-03 0.  1.
    9900012    2    1    2    0    0  0.10406618714E+01 -0.86031923412E-01 -0.55001039050E+00  0.90007792369E+02  0.90000054428E+02 0.  0.
        -12    1    1    2    0    0 -0.10406618714E+01  0.86031923412E-01  0.55001039050E+00  0.11802076309E+01  0.00000000000E+00 0.  1.
         11    1    3    3    0    0 -0.54806956332E+01 -0.26317858471E+02 -0.23362263649E+02  0.35615489077E+02  0.51100000000E-03 0. -1.
        -11    1    3    3    0    0 -0.87388570448E+01 -0.17431277921E+01 -0.65512091675E+01  0.11060038823E+02  0.51100000000E-03 0.  1.
        -12    1    3    3    0    0  0.15260214549E+02  0.27974954339E+02  0.29363462426E+02  0.43332264469E+02  0.00000000000E+00 0.  1.
</event>
<event>
 7    1  0.2879200E-015  0.9000770E+02  0.7816164E-02  0.1186339E+00
        -11   -1    0    0    0    0  0.00000000000E+00  0.00000000000E+00  0.45593999997E+02  0.45594000000E+02  0.51100000000E-03 0. -1.
         11   -1    0    0    0    0 -0.00000000000E+00 -0.00000000000E+00 -0.45593999997E+02  0.45594000000E+02  0.51100000000E-03 0.  1.
    9900012    2    1    2    0    0  0.14854717780E+00  0.19167066605E-01  0.11707591473E+01  0.90007698928E+02  0.89999959753E+02 0.  0.
        -12    1    1    2    0    0 -0.14854717780E+00 -0.19167066605E-01 -0.11707591473E+01  0.11803010724E+01  0.00000000000E+00 0.  1.
         11    1    3    3    0    0  0.10118944028E+02  0.61295122130E+01  0.28505785689E+02  0.30863307765E+02  0.51100000000E-03 0. -1.
        -11    1    3    3    0    0 -0.26871832265E+02  0.10206439338E+02 -0.12392388009E+02  0.31302364991E+02  0.51100000000E-03 0.  1.
         12    1    3    3    0    0  0.16901435415E+02 -0.16316784485E+02 -0.14942638533E+02  0.27842026171E+02  0.00000000000E+00 0. -1.
</event>
<event>
 7    1  0.2879200E-015  0.9000723E+02  0.7816164E-02  0.1186340E+00
        -11   -1    0    0    0    0  0.00000000000E+00  0.00000000000E+00  0.45593999997E+02  0.45594000000E+02  0.51100000000E-03 0. -1.
         11   -1    0    0    0    0 -0.00000000000E+00 -0.00000000000E+00 -0.45593999997E+02  0.45594000000E+02  0.51100000000E-03 0.  1.
    9900012    2    1    2    0    0  0.72210741733E+00  0.84650297694E+00  0.39523091745E+00  0.90007231653E+02  0.89999486309E+02 0.  0.
        -12    1    1    2    0    0 -0.72210741733E+00 -0.84650297694E+00 -0.39523091745E+00  0.11807683474E+01  0.00000000000E+00 0.  1.
         11    1    3    3    0    0  0.40221373258E+00 -0.16241228047E+00  0.21300217623E+02  0.21304633879E+02  0.51100000000E-03 0. -1.
        -11    1    3    3    0    0  0.28039903343E+00 -0.31984633000E+02 -0.14381685185E+02  0.35070332772E+02  0.51100000000E-03 0.  1.
         12    1    3    3    0    0  0.39494651319E-01  0.32993548257E+02 -0.65233015213E+01  0.33632265002E+02  0.00000000000E+00 0. -1.
</event>
<event>
 7    1  0.2879200E-015  0.9000773E+02  0.7816164E-02  0.1186339E+00
        -11   -1    0    0    0    0  0.00000000000E+00  0.00000000000E+00  0.45593999997E+02  0.45594000000E+02  0.51100000000E-03 0. -1.
         11   -1    0    0    0    0 -0.00000000000E+00 -0.00000000000E+00 -0.45593999997E+02  0.45594000000E+02  0.51100000000E-03 0.  1.
    9900012    2    1    2    0    0  0.29949612100E+00 -0.95911917853E+00  0.61921550269E+00  0.90007730809E+02  0.89999992055E+02 0.  0.
        -12    1    1    2    0    0 -0.29949612100E+00  0.95911917853E+00 -0.61921550269E+00  0.11802691913E+01  0.00000000000E+00 0.  1.
         11    1    3    3    0    0 -0.15359618288E+02  0.11042170563E+01 -0.21213863526E+01  0.15544692006E+02  0.51100000000E-03 0. -1.
        -11    1    3    3    0    0 -0.14642556260E+02 -0.14300320037E+02 -0.24496398513E+02  0.31921421450E+02  0.51100000000E-03 0.  1.
        -12    1    3    3    0    0  0.30301670669E+02  0.12236983802E+02  0.27237000369E+02  0.42541617353E+02  0.00000000000E+00 0.  1.
</event>
<event>
 7    1  0.2879200E-015  0.9000759E+02  0.7816164E-02  0.1186339E+00
        -11   -1    0    0    0    0  0.00000000000E+00  0.00000000000E+00  0.45593999997E+02  0.45594000000E+02  0.51100000000E-03 0.  1.
         11   -1    0    0    0    0 -0.00000000000E+00 -0.00000000000E+00 -0.45593999997E+02  0.45594000000E+02  0.51100000000E-03 0. -1.
    9900012    2    1    2    0    0 -0.96261268299E+00 -0.65607905097E+00 -0.19054115064E+00  0.90007589551E+02  0.89999848933E+02 0.  0.
        -12    1    1    2    0    0  0.96261268299E+00  0.65607905097E+00  0.19054115064E+00  0.11804104492E+01  0.00000000000E+00 0.  1.
         11    1    3    3    0    0 -0.23525876382E+00  0.27560301228E+02 -0.25619949636E+02  0.37629873373E+02  0.51100000000E-03 0. -1.
        -11    1    3    3    0    0 -0.94075008438E+01  0.33072400655E+01 -0.14162926380E+01  0.10071980643E+02  0.51100000000E-03 0.  1.
        -12    1    3    3    0    0  0.86801469247E+01 -0.31523620345E+02  0.26845701124E+02  0.42305735534E+02  0.00000000000E+00 0.  1.
</event>
<event>
 7    1  0.2879200E-015  0.9000778E+02  0.7816164E-02  0.1186339E+00
        -11   -1    0    0    0    0  0.00000000000E+00  0.00000000000E+00  0.45593999997E+02  0.45594000000E+02  0.51100000000E-03 0.  1.
         11   -1    0    0    0    0 -0.00000000000E+00 -0.00000000000E+00 -0.45593999997E+02  0.45594000000E+02  0.51100000000E-03 0. -1.
    9900012    2    1    2    0    0  0.10946631543E+01  0.39888434486E+00 -0.18847233273E+00  0.90007780545E+02  0.90000042448E+02 0.  0.
        -12    1    1    2    0    0 -0.10946631543E+01 -0.39888434486E+00  0.18847233273E+00  0.11802194550E+01  0.00000000000E+00 0.  1.
         11    1    3    3    0    0  0.22209540113E+02 -0.43216083799E+01 -0.90524778248E+01  0.24369803570E+02  0.51100000000E-03 0. -1.
        -11    1    3    3    0    0  0.18837161555E+02  0.12854887671E+02  0.98799939676E+01  0.24853592769E+02  0.51100000000E-03 0.  1.
        -12    1    3    3    0    0 -0.39952038513E+02 -0.81343949463E+01 -0.10159884755E+01  0.40784384206E+02  0.00000000000E+00 0.  1.
</event>
<event>
 7    1  0.2879200E-015  0.9000771E+02  0.7816164E-02  0.1186339E+00
        -11   -1    0    0    0    0  0.00000000000E+00  0.00000000000E+00  0.45593999997E+02  0.45594000000E+02  0.51100000000E-03 0.  1.
         11   -1    0    0    0    0 -0.00000000000E+00 -0.00000000000E+00 -0.45593999997E+02  0.45594000000E+02  0.51100000000E-03 0. -1.
    9900012    2    1    2    0    0  0.73309278590E+00  0.92354781235E+00  0.52076262443E-01  0.90007712945E+02  0.89999973956E+02 0.  0.
        -12    1    1    2    0    0 -0.73309278590E+00 -0.92354781235E+00 -0.52076262443E-01  0.11802870547E+01  0.00000000000E+00 0.  1.
         11    1    3    3    0    0 -0.99385224526E+00 -0.57896112597E+01 -0.57967577609E+01  0.82528626321E+01  0.51100000000E-03 0. -1.
        -11    1    3    3    0    0 -0.37400519302E+02 -0.10029944331E+02  0.60705028118E+01  0.39195020500E+02  0.51100000000E-03 0.  1.
         12    1    3    3    0    0  0.39127464333E+02  0.16743103403E+02 -0.22166878846E+00  0.42559829813E+02  0.00000000000E+00 0. -1.
</event>
<event>
 7    1  0.2879200E-015  0.9000772E+02  0.7816164E-02  0.1186339E+00
        -11   -1    0    0    0    0  0.00000000000E+00  0.00000000000E+00  0.45593999997E+02  0.45594000000E+02  0.51100000000E-03 0.  1.
         11   -1    0    0    0    0 -0.00000000000E+00 -0.00000000000E+00 -0.45593999997E+02  0.45594000000E+02  0.51100000000E-03 0. -1.
    9900012    2    1    2    0    0 -0.42575480914E+00  0.26242732084E+00 -0.10690728919E+01  0.90007723717E+02  0.89999984870E+02 0.  0.
        -12    1    1    2    0    0  0.42575480914E+00 -0.26242732084E+00  0.10690728919E+01  0.11802762831E+01  0.00000000000E+00 0.  1.
         11    1    3    3    0    0 -0.36915743856E+02  0.30446400199E+01 -0.20337067862E+02  0.42256813732E+02  0.51100000000E-03 0. -1.
        -11    1    3    3    0    0  0.40077765894E+01 -0.22570669848E+01 -0.53022296456E+01  0.70192780284E+01  0.51100000000E-03 0.  1.
        -12    1    3    3    0    0  0.32482212457E+02 -0.52514571430E+00  0.24570224616E+02  0.40731631956E+02  0.00000000000E+00 0.  1.
</event>
<event>
 7    1  0.2879200E-015  0.9000766E+02  0.7816164E-02  0.1186339E+00
        -11   -1    0    0    0    0  0.00000000000E+00  0.00000000000E+00  0.45593999997E+02  0.45594000000E+02  0.51100000000E-03 0.  1.
         11   -1    0    0    0    0 -0.00000000000E+00 -0.00000000000E+00 -0.45593999997E+02  0.45594000000E+02  0.51100000000E-03 0. -1.
    9900012    2    1    2    0    0 -0.50459065784E+00 -0.24651103752E+00 -0.10381807423E+01  0.90007661626E+02  0.89999921959E+02 0.  0.
        -12    1    1    2    0    0  0.50459065784E+00  0.24651103752E+00  0.10381807423E+01  0.11803383741E+01  0.00000000000E+00 0.  1.
         11    1    3    3    0    0 -0.52418213474E+01  0.19588269549E+02 -0.32446877561E+02  0.38261950534E+02  0.51100000000E-03 0. -1.
        -11    1    3    3    0    0 -0.29956447988E+00  0.10348420100E+02  0.10048305930E+02  0.14427334812E+02  0.51100000000E-03 0.  1.
        -12    1    3    3    0    0  0.50367951695E+01 -0.30183200686E+02  0.21360390888E+02  0.37318376280E+02  0.00000000000E+00 0.  1.
</event>
<event>
 7    1  0.2879200E-015  0.9000761E+02  0.7816164E-02  0.1186339E+00
        -11   -1    0    0    0    0  0.00000000000E+00  0.00000000000E+00  0.45593999997E+02  0.45594000000E+02  0.51100000000E-03 0.  1.
         11   -1    0    0    0    0 -0.00000000000E+00 -0.00000000000E+00 -0.45593999997E+02  0.45594000000E+02  0.51100000000E-03 0. -1.
    9900012    2    1    2    0    0  0.97580765002E+00 -0.60756930689E+00 -0.26827619468E+00  0.90007613136E+02  0.89999872829E+02 0.  0.
        -12    1    1    2    0    0 -0.97580765002E+00  0.60756930689E+00  0.26827619468E+00  0.11803868642E+01  0.00000000000E+00 0.  1.
         11    1    3    3    0    0 -0.12330443860E+02  0.32736725275E+02 -0.14448965512E+02  0.37848456139E+02  0.51100000000E-03 0. -1.
        -11    1    3    3    0    0  0.26285509322E+01  0.67425549055E+01  0.69797419163E+01  0.10054259005E+02  0.51100000000E-03 0.  1.
        -12    1    3    3    0    0  0.10677700578E+02 -0.40086849487E+02  0.72009474014E+01  0.42104897992E+02  0.00000000000E+00 0.  1.
</event>
<event>
 7    1  0.2879200E-015  0.9000775E+02  0.7816164E-02  0.1186339E+00
        -11   -1    0    0    0    0  0.00000000000E+00  0.00000000000E+00  0.45593999997E+02  0.45594000000E+02  0.51100000000E-03 0.  1.
         11   -1    0    0    0    0 -0.00000000000E+00 -0.00000000000E+00 -0.45593999997E+02  0.45594000000E+02  0.51100000000E-03 0. -1.
    9900012    2    1    2    0    0  0.75388135544E+00 -0.46090272172E+00 -0.78244367156E+00  0.90007751502E+02  0.90000013022E+02 0.  0.
        -12    1    1    2    0    0 -0.75388135544E+00  0.46090272172E+00  0.78244367156E+00  0.11802484976E+01  0.00000000000E+00 0.  1.
         11    1    3    3    0    0  0.24162326162E+01 -0.65230408925E+01 -0.78045634668E+01  0.10454637904E+02  0.51100000000E-03 0. -1.
        -11    1    3    3    0    0  0.75755896458E+01  0.33143808021E+02  0.28023494225E+02  0.44059253256E+02  0.51100000000E-03 0.  1.
         12    1    3    3    0    0 -0.92379409065E+01 -0.27081669850E+02 -0.21001374430E+02  0.35493860342E+02  0.00000000000E+00 0. -1.
</event>
<event>
 7    1  0.2879200E-015  0.9000757E+02  0.7816164E-02  0.1186339E+00
        -11   -1    0    0    0    0  0.00000000000E+00  0.00000000000E+00  0.45593999997E+02  0.45594000000E+02  0.51100000000E-03 0.  1.
         11   -1    0    0    0    0 -0.00000000000E+00 -0.00000000000E+00 -0.45593999997E+02  0.45594000000E+02  0.51100000000E-03 0. -1.
    9900012    2    1    2    0    0  0.13934780162E+00  0.11717352942E+01  0.32313774179E-01  0.90007565508E+02  0.89999824573E+02 0.  0.
        -12    1    1    2    0    0 -0.13934780162E+00 -0.11717352942E+01 -0.32313774179E-01  0.11804344919E+01  0.00000000000E+00 0.  1.
         11    1    3    3    0    0 -0.20195364732E+00 -0.83088734956E+01  0.11430630903E+01  0.83895624160E+01  0.51100000000E-03 0. -1.
        -11    1    3    3    0    0  0.19987190999E+02 -0.57191586682E+01  0.33252996916E+02  0.39216812518E+02  0.51100000000E-03 0.  1.
         12    1    3    3    0    0 -0.19645889550E+02  0.15199767458E+02 -0.34363746232E+02  0.42401190574E+02  0.00000000000E+00 0. -1.
</event>
<event>
 7    1  0.3198566E-015  0.9000772E+02  0.7816164E-02  0.1186339E+00
        -11   -1    0    0    0    0  0.00000000000E+00  0.00000000000E+00  0.45593999997E+02  0.45594000000E+02  0.51100000000E-03 0. -1.
         11   -1    0    0    0    0 -0.00000000000E+00 -0.00000000000E+00 -0.45593999997E+02  0.45594000000E+02  0.51100000000E-03 0.  1.
    9900012    2    1    2    0    0  0.28878462271E+00  0.13272947829E+00  0.11366800794E+01  0.90007722373E+02  0.89999983509E+02 0.  0.
        -12    1    1    2    0    0 -0.28878462271E+00 -0.13272947829E+00 -0.11366800794E+01  0.11802776265E+01  0.00000000000E+00 0.  1.
         11    1    3    3    0    0 -0.37300794111E+02  0.68828212776E+01  0.78219568413E+01  0.38728613184E+02  0.51100000000E-03 0. -1.
        -11    1    3    3    0    0 -0.44926065301E+01 -0.32993220663E+01 -0.71339400966E+01  0.90532944884E+01  0.51100000000E-03 0.  1.
        -12    1    3    3    0    0  0.42082185264E+02 -0.34507697330E+01  0.44866333472E+00  0.42225814701E+02  0.00000000000E+00 0.  1.
</event>
<event>
 7    1  0.2879200E-015  0.9000783E+02  0.7816164E-02  0.1186339E+00
        -11   -1    0    0    0    0  0.00000000000E+00  0.00000000000E+00  0.45593999997E+02  0.45594000000E+02  0.51100000000E-03 0. -1.
         11   -1    0    0    0    0 -0.00000000000E+00 -0.00000000000E+00 -0.45593999997E+02  0.45594000000E+02  0.51100000000E-03 0.  1.
    9900012    2    1    2    0    0 -0.35130925661E+00  0.99767995439E+00 -0.52347455654E+00  0.90007826667E+02  0.90000089179E+02 0.  0.
        -12    1    1    2    0    0  0.35130925661E+00 -0.99767995439E+00  0.52347455654E+00  0.11801733332E+01  0.00000000000E+00 0.  1.
         11    1    3    3    0    0 -0.46424412583E+01 -0.85453698328E+01  0.31508018556E+01  0.10222678661E+02  0.51100000000E-03 0. -1.
        -11    1    3    3    0    0  0.10694413089E+01 -0.23840535514E+02  0.25793471776E+02  0.35139977587E+02  0.51100000000E-03 0.  1.
         12    1    3    3    0    0  0.32216906927E+01  0.33383585301E+02 -0.29467748188E+02  0.44645170419E+02  0.00000000000E+00 0. -1.
</event>
<event>
 7    1  0.2879200E-015  0.9000793E+02  0.7816164E-02  0.1186339E+00
        -11   -1    0    0    0    0  0.00000000000E+00  0.00000000000E+00  0.45593999997E+02  0.45594000000E+02  0.51100000000E-03 0. -1.
         11   -1    0    0    0    0 -0.00000000000E+00 -0.00000000000E+00 -0.45593999997E+02  0.45594000000E+02  0.51100000000E-03 0.  1.
    9900012    2    1    2    0    0 -0.90152847160E+00  0.22232184623E-01  0.76113485169E+00  0.90007926224E+02  0.90000190050E+02 0.  0.
        -12    1    1    2    0    0  0.90152847160E+00 -0.22232184623E-01 -0.76113485169E+00  0.11800737763E+01  0.00000000000E+00 0.  1.
         11    1    3    3    0    0  0.23463024429E+02 -0.17497671470E+02  0.16021107366E+02  0.33367018203E+02  0.51100000000E-03 0. -1.
        -11    1    3    3    0    0  0.33030738426E+01 -0.12252440839E+01  0.12630173776E+02  0.13112315194E+02  0.51100000000E-03 0.  1.
        -12    1    3    3    0    0 -0.27667626744E+02  0.18745147739E+02 -0.27890146290E+02  0.43528592827E+02  0.00000000000E+00 0.  1.
</event>
<event>
 7    1  0.2879200E-015  0.9000773E+02  0.7816164E-02  0.1186339E+00
        -11   -1    0    0    0    0  0.00000000000E+00  0.00000000000E+00  0.45593999997E+02  0.45594000000E+02  0.51100000000E-03 0.  1.
         11   -1    0    0    0    0 -0.00000000000E+00 -0.00000000000E+00 -0.45593999997E+02  0.45594000000E+02  0.51100000000E-03 0. -1.
    9900012    2    1    2    0    0  0.55521273107E+00  0.10281377559E+01 -0.16644747337E+00  0.90007731733E+02  0.89999992991E+02 0.  0.
        -12    1    1    2    0    0 -0.55521273107E+00 -0.10281377559E+01  0.16644747337E+00  0.11802682674E+01  0.00000000000E+00 0.  1.
         11    1    3    3    0    0  0.17182339911E+02 -0.25847926180E+02 -0.30379020031E+02  0.43430783448E+02  0.51100000000E-03 0. -1.
        -11    1    3    3    0    0 -0.63446476655E+01 -0.24533046843E+00  0.41725206380E+01  0.75976752875E+01  0.51100000000E-03 0.  1.
        -12    1    3    3    0    0 -0.10282479514E+02  0.27121394404E+02  0.26040051920E+02  0.38979272997E+02  0.00000000000E+00 0.  1.
</event>
<event>
 7    1  0.2879200E-015  0.9000798E+02  0.7816164E-02  0.1186339E+00
        -11   -1    0    0    0    0  0.00000000000E+00  0.00000000000E+00  0.45593999997E+02  0.45594000000E+02  0.51100000000E-03 0.  1.
         11   -1    0    0    0    0 -0.00000000000E+00 -0.00000000000E+00 -0.45593999997E+02  0.45594000000E+02  0.51100000000E-03 0. -1.
    9900012    2    1    2    0    0 -0.11502561593E+01  0.22721782138E+00  0.13312229176E+00  0.90007983595E+02  0.90000248179E+02 0.  0.
        -12    1    1    2    0    0  0.11502561593E+01 -0.22721782138E+00 -0.13312229176E+00  0.11800164045E+01  0.00000000000E+00 0.  1.
         11    1    3    3    0    0 -0.17591951024E+01  0.67725390310E+01  0.62069965094E+01  0.93535478971E+01  0.51100000000E-03 0. -1.
        -11    1    3    3    0    0  0.25078236141E+02 -0.11331375323E+01  0.28483093658E+02  0.37966940266E+02  0.51100000000E-03 0.  1.
         12    1    3    3    0    0 -0.24469297198E+02 -0.54121836773E+01 -0.34556967876E+02  0.42687495432E+02  0.00000000000E+00 0. -1.
</event>
<event>
 7    1  0.2879200E-015  0.9000772E+02  0.7816164E-02  0.1186339E+00
        -11   -1    0    0    0    0  0.00000000000E+00  0.00000000000E+00  0.45593999997E+02  0.45594000000E+02  0.51100000000E-03 0. -1.
         11   -1    0    0    0    0 -0.00000000000E+00 -0.00000000000E+00 -0.45593999997E+02  0.45594000000E+02  0.51100000000E-03 0.  1.
    9900012    2    1    2    0    0 -0.18433595713E+00  0.99296538570E+00 -0.61082571821E+00  0.90007716958E+02  0.89999978021E+02 0.  0.
        -12    1    1    2    0    0  0.18433595713E+00 -0.99296538570E+00  0.61082571821E+00  0.11802830425E+01  0.00000000000E+00 0.  1.
         11    1    3    3    0    0 -0.74168573667E+01 -0.25172538557E+01 -0.58112792138E+01  0.97528101865E+01  0.51100000000E-03 0. -1.
        -11    1    3    3    0    0  0.34925517133E+01 -0.32802269428E+02 -0.17425250530E+02  0.37307186350E+02  0.51100000000E-03 0.  1.
         12    1    3    3    0    0  0.37399696963E+01  0.36312488669E+02  0.22625704026E+02  0.42947720421E+02  0.00000000000E+00 0. -1.
</event>
<event>
 7    1  0.2879200E-015  0.9000761E+02  0.7816164E-02  0.1186339E+00
        -11   -1    0    0    0    0  0.00000000000E+00  0.00000000000E+00  0.45593999997E+02  0.45594000000E+02  0.51100000000E-03 0. -1.
         11   -1    0    0    0    0 -0.00000000000E+00 -0.00000000000E+00 -0.45593999997E+02  0.45594000000E+02  0.51100000000E-03 0.  1.
    9900012    2    1    2    0    0  0.10344419562E+01 -0.51537165984E+00 -0.24008035785E+00  0.90007611637E+02  0.89999871311E+02 0.  0.
        -12    1    1    2    0    0 -0.10344419562E+01  0.51537165984E+00  0.24008035785E+00  0.11803883627E+01  0.00000000000E+00 0.  1.
         11    1    3    3    0    0  0.43770807946E+01  0.62197121793E+01  0.64111072655E+01  0.99471580115E+01  0.51100000000E-03 0. -1.
        -11    1    3    3    0    0 -0.20763656842E+02  0.30111760302E+02 -0.12986095083E+02  0.38813479871E+02  0.51100000000E-03 0.  1.
         12    1    3    3    0    0  0.17421018003E+02 -0.36846844141E+02  0.63349074592E+01  0.41246973755E+02  0.00000000000E+00 0. -1.
</event>
<event>
 7    1  0.2879200E-015  0.9000780E+02  0.7816164E-02  0.1186339E+00
        -11   -1    0    0    0    0  0.00000000000E+00  0.00000000000E+00  0.45593999997E+02  0.45594000000E+02  0.51100000000E-03 0.  1.
         11   -1    0    0    0    0 -0.00000000000E+00 -0.00000000000E+00 -0.45593999997E+02  0.45594000000E+02  0.51100000000E-03 0. -1.
    9900012    2    1    2    0    0  0.89438165956E+00 -0.28093119248E+00 -0.71696059533E+00  0.90007799431E+02  0.90000061583E+02 0.  0.
        -12    1    1    2    0    0 -0.89438165956E+00  0.28093119248E+00  0.71696059533E+00  0.11802005690E+01  0.00000000000E+00 0.  1.
         11    1    3    3    0    0 -0.88599330385E+01 -0.41956493430E+01  0.12526796821E+01  0.98828686880E+01  0.51100000000E-03 0. -1.
        -11    1    3    3    0    0  0.25405813530E+02 -0.21540490061E+02  0.23579322013E+02  0.40809710854E+02  0.51100000000E-03 0.  1.
         12    1    3    3    0    0 -0.15651498832E+02  0.25455208212E+02 -0.25548962290E+02  0.39315219889E+02  0.00000000000E+00 0. -1.
</event>
<event>
 7    1  0.2879200E-015  0.9000770E+02  0.7816164E-02  0.1186339E+00
        -11   -1    0    0    0    0  0.00000000000E+00  0.00000000000E+00  0.45593999997E+02  0.45594000000E+02  0.51100000000E-03 0.  1.
         11   -1    0    0    0    0 -0.00000000000E+00 -0.00000000000E+00 -0.45593999997E+02  0.45594000000E+02  0.51100000000E-03 0. -1.
    9900012    2    1    2    0    0  0.14525854014E+00 -0.69232135522E+00 -0.94483043896E+00  0.90007697725E+02  0.89999958535E+02 0.  0.
        -12    1    1    2    0    0 -0.14525854014E+00  0.69232135522E+00  0.94483043896E+00  0.11803022752E+01  0.00000000000E+00 0.  1.
         11    1    3    3    0    0 -0.97332363176E+01  0.90578486347E+01 -0.32347458614E+02  0.34973398322E+02  0.51100000000E-03 0. -1.
        -11    1    3    3    0    0  0.50477320825E+01  0.13761762433E+02 -0.10198066480E+01  0.14693730305E+02  0.51100000000E-03 0.  1.
        -12    1    3    3    0    0  0.48307627752E+01 -0.23511932423E+02  0.32422434823E+02  0.40340569098E+02  0.00000000000E+00 0.  1.
</event>
<event>
 7    1  0.2879200E-015  0.9000776E+02  0.7816164E-02  0.1186339E+00
        -11   -1    0    0    0    0  0.00000000000E+00  0.00000000000E+00  0.45593999997E+02  0.45594000000E+02  0.51100000000E-03 0.  1.
         11   -1    0    0    0    0 -0.00000000000E+00 -0.00000000000E+00 -0.45593999997E+02  0.45594000000E+02  0.51100000000E-03 0. -1.
    9900012    2    1    2    0    0  0.64388989449E-01  0.10868542594E+01  0.45558580056E+00  0.90007764200E+02  0.90000025887E+02 0.  0.
        -12    1    1    2    0    0 -0.64388989449E-01 -0.10868542594E+01 -0.45558580056E+00  0.11802358005E+01  0.00000000000E+00 0.  1.
         11    1    3    3    0    0  0.10246489974E+02  0.15354335693E+01 -0.36882762583E+02  0.38310394008E+02  0.51100000000E-03 0. -1.
        -11    1    3    3    0    0 -0.50416645414E+01  0.64175176111E+01 -0.42724511418E+01  0.92117725035E+01  0.51100000000E-03 0.  1.
        -12    1    3    3    0    0 -0.51404364427E+01 -0.68660969210E+01  0.41610799526E+02  0.42485597688E+02  0.00000000000E+00 0.  1.
</event>
<event>
 7    1  0.2879200E-015  0.9000773E+02  0.7816164E-02  0.1186339E+00
        -11   -1    0    0    0    0  0.00000000000E+00  0.00000000000E+00  0.45593999997E+02  0.45594000000E+02  0.51100000000E-03 0.  1.
         11   -1    0    0    0    0 -0.00000000000E+00 -0.00000000000E+00 -0.45593999997E+02  0.45594000000E+02  0.51100000000E-03 0. -1.
    9900012    2    1    2    0    0  0.70235470271E+00 -0.21078800438E+00 -0.92482555020E+00  0.90007730535E+02  0.89999991778E+02 0.  0.
        -12    1    1    2    0    0 -0.70235470271E+00  0.21078800438E+00  0.92482555020E+00  0.11802694648E+01  0.00000000000E+00 0.  1.
         11    1    3    3    0    0  0.96776959386E+01 -0.45485560572E+00 -0.48635352400E+01  0.10840602732E+02  0.51100000000E-03 0. -1.
        -11    1    3    3    0    0  0.25282672113E+02  0.24636828238E+02  0.99691420742E+01  0.36682020238E+02  0.51100000000E-03 0.  1.
         12    1    3    3    0    0 -0.34258013349E+02 -0.24392760637E+02 -0.60304323843E+01  0.42485107565E+02  0.00000000000E+00 0. -1.
</event>
<event>
 7    1  0.2879200E-015  0.9000774E+02  0.7816164E-02  0.1186339E+00
        -11   -1    0    0    0    0  0.00000000000E+00  0.00000000000E+00  0.45593999997E+02  0.45594000000E+02  0.51100000000E-03 0.  1.
         11   -1    0    0    0    0 -0.00000000000E+00 -0.00000000000E+00 -0.45593999997E+02  0.45594000000E+02  0.51100000000E-03 0. -1.
    9900012    2    1    2    0    0 -0.21844518254E+00  0.80965240788E+00 -0.83051857825E+00  0.90007738831E+02  0.90000000183E+02 0.  0.
        -12    1    1    2    0    0  0.21844518254E+00 -0.80965240788E+00  0.83051857825E+00  0.11802611695E+01  0.00000000000E+00 0.  1.
         11    1    3    3    0    0 -0.25128433692E+01  0.40263726114E+02 -0.14783611726E+02  0.42965535006E+02  0.51100000000E-03 0. -1.
        -11    1    3    3    0    0 -0.24101650814E+01  0.62335509965E+00 -0.24409627133E+01  0.34865120864E+01  0.51100000000E-03 0.  1.
        -12    1    3    3    0    0  0.47045632681E+01 -0.40077428806E+02  0.16394055861E+02  0.43555691738E+02  0.00000000000E+00 0.  1.
</event>
<event>
 7    1  0.2879200E-015  0.9000778E+02  0.7816164E-02  0.1186339E+00
        -11   -1    0    0    0    0  0.00000000000E+00  0.00000000000E+00  0.45593999997E+02  0.45594000000E+02  0.51100000000E-03 0.  1.
         11   -1    0    0    0    0 -0.00000000000E+00 -0.00000000000E+00 -0.45593999997E+02  0.45594000000E+02  0.51100000000E-03 0. -1.
    9900012    2    1    2    0    0  0.53897866847E+00  0.26293676747E+00 -0.10165024360E+01  0.90007783515E+02  0.90000045457E+02 0.  0.
        -12    1    1    2    0    0 -0.53897866847E+00 -0.26293676747E+00  0.10165024360E+01  0.11802164849E+01  0.00000000000E+00 0.  1.
         11    1    3    3    0    0  0.13221662333E+02 -0.34152130175E+02  0.39231616785E+01  0.36831665020E+02  0.51100000000E-03 0. -1.
        -11    1    3    3    0    0  0.59313125982E+01 -0.36543323371E+01  0.62369164861E+01  0.93506011295E+01  0.51100000000E-03 0.  1.
        -12    1    3    3    0    0 -0.18613996263E+02  0.38069399280E+02 -0.11176580601E+02  0.43825517365E+02  0.00000000000E+00 0.  1.
</event>
<event>
 7    1  0.2879200E-015  0.9000787E+02  0.7816164E-02  0.1186339E+00
        -11   -1    0    0    0    0  0.00000000000E+00  0.00000000000E+00  0.45593999997E+02  0.45594000000E+02  0.51100000000E-03 0.  1.
         11   -1    0    0    0    0 -0.00000000000E+00 -0.00000000000E+00 -0.45593999997E+02  0.45594000000E+02  0.51100000000E-03 0. -1.
    9900012    2    1    2    0    0  0.28818912463E+00 -0.96289685075E+00 -0.61844805218E+00  0.90007872333E+02  0.90000135448E+02 0.  0.
        -12    1    1    2    0    0 -0.28818912463E+00  0.96289685075E+00  0.61844805218E+00  0.11801276668E+01  0.00000000000E+00 0.  1.
         11    1    3    3    0    0  0.23175346473E+02 -0.15445230509E+02 -0.24385538964E+02  0.37017649040E+02  0.51100000000E-03 0. -1.
        -11    1    3    3    0    0  0.85768143200E+01 -0.35174740901E+01 -0.63710534873E+00  0.92919465852E+01  0.51100000000E-03 0.  1.
        -12    1    3    3    0    0 -0.31463971668E+02  0.17999807749E+02  0.24404196261E+02  0.43698276708E+02  0.00000000000E+00 0.  1.
</event>
<event>
 7    1  0.2879200E-015  0.9000775E+02  0.7816164E-02  0.1186339E+00
        -11   -1    0    0    0    0  0.00000000000E+00  0.00000000000E+00  0.45593999997E+02  0.45594000000E+02  0.51100000000E-03 0.  1.
         11   -1    0    0    0    0 -0.00000000000E+00 -0.00000000000E+00 -0.45593999997E+02  0.45594000000E+02  0.51100000000E-03 0. -1.
    9900012    2    1    2    0    0 -0.97120199343E+00 -0.24121485728E+00 -0.62576650061E+00  0.90007745098E+02  0.90000006534E+02 0.  0.
        -12    1    1    2    0    0  0.97120199343E+00  0.24121485728E+00  0.62576650061E+00  0.11802549016E+01  0.00000000000E+00 0.  1.
         11    1    3    3    0    0 -0.77628235189E-01 -0.36221977835E+02  0.45631096892E+01  0.36508350754E+02  0.51100000000E-03 0. -1.
        -11    1    3    3    0    0  0.24104724537E+01 -0.75510432325E+01  0.40110771372E+01  0.88835449800E+01  0.51100000000E-03 0.  1.
        -12    1    3    3    0    0 -0.33040462120E+01  0.43531806211E+02 -0.91999533270E+01  0.44615849365E+02  0.00000000000E+00 0.  1.
</event>
<event>
 7    1  0.2879200E-015  0.9000774E+02  0.7816164E-02  0.1186339E+00
        -11   -1    0    0    0    0  0.00000000000E+00  0.00000000000E+00  0.45593999997E+02  0.45594000000E+02  0.51100000000E-03 0. -1.
         11   -1    0    0    0    0 -0.00000000000E+00 -0.00000000000E+00 -0.45593999997E+02  0.45594000000E+02  0.51100000000E-03 0.  1.
    9900012    2    1    2    0    0  0.61054363485E+00 -0.79569013784E-01  0.10069352267E+01  0.90007740152E+02  0.90000001522E+02 0.  0.
        -12    1    1    2    0    0 -0.61054363485E+00  0.79569013784E-01 -0.10069352267E+01  0.11802598480E+01  0.00000000000E+00 0.  1.
         11    1    3    3    0    0 -0.22723280605E+02  0.29061566956E+02  0.20635146507E+02  0.42269746001E+02  0.51100000000E-03 0. -1.
        -11    1    3    3    0    0 -0.59120469087E+00 -0.12951914578E+02 -0.27806872027E+00  0.12968382193E+02  0.51100000000E-03 0.  1.
        -12    1    3    3    0    0  0.23925028931E+02 -0.16189221392E+02 -0.19350142560E+02  0.34769611958E+02  0.00000000000E+00 0.  1.
</event>
<event>
 7    1  0.4141601E-015  0.9000766E+02  0.7816164E-02  0.1186339E+00
        -11   -1    0    0    0    0  0.00000000000E+00  0.00000000000E+00  0.45593999997E+02  0.45594000000E+02  0.51100000000E-03 0. -1.
         11   -1    0    0    0    0 -0.00000000000E+00 -0.00000000000E+00 -0.45593999997E+02  0.45594000000E+02  0.51100000000E-03 0.  1.
    9900012    2    1    2    0    0 -0.10777036888E-01  0.49526974637E+00  0.10713540823E+01  0.90007657746E+02  0.89999918029E+02 0.  0.
        -12    1    1    2    0    0  0.10777036888E-01 -0.49526974637E+00 -0.10713540823E+01  0.11803422537E+01  0.00000000000E+00 0.  1.
         11    1    3    3    0    0  0.63930380532E+01  0.15619478258E+02  0.33333062789E+02  0.37362174880E+02  0.51100000000E-03 0. -1.
        -11    1    3    3    0    0  0.71631702913E+01  0.44429161610E+01  0.39486101987E+01  0.93081703572E+01  0.51100000000E-03 0.  1.
        -12    1    3    3    0    0 -0.13566985381E+02 -0.19567124672E+02 -0.36210318906E+02  0.43337312509E+02  0.00000000000E+00 0.  1.
</event>
<event>
 7    1  0.2879200E-015  0.9000770E+02  0.7816164E-02  0.1186339E+00
        -11   -1    0    0    0    0  0.00000000000E+00  0.00000000000E+00  0.45593999997E+02  0.45594000000E+02  0.51100000000E-03 0. -1.
         11   -1    0    0    0    0 -0.00000000000E+00 -0.00000000000E+00 -0.45593999997E+02  0.45594000000E+02  0.51100000000E-03 0.  1.
    9900012    2    1    2    0    0  0.43333647745E+00 -0.35434495798E+00  0.10391161003E+01  0.90007702105E+02  0.89999962972E+02 0.  0.
        -12    1    1    2    0    0 -0.43333647745E+00  0.35434495798E+00 -0.10391161003E+01  0.11802978954E+01  0.00000000000E+00 0.  1.
         11    1    3    3    0    0 -0.82522802918E+01 -0.32309315229E+00  0.61224685775E+01  0.10280522406E+02  0.51100000000E-03 0. -1.
        -11    1    3    3    0    0 -0.20106844001E+02  0.29553110492E+02  0.75934803112E+01  0.36542201068E+02  0.51100000000E-03 0.  1.
         12    1    3    3    0    0  0.28792460770E+02 -0.29584362297E+02 -0.12676832788E+02  0.43184978630E+02  0.00000000000E+00 0. -1.
</event>
<event>
 7    1  0.2879200E-015  0.9000747E+02  0.7816164E-02  0.1186340E+00
        -11   -1    0    0    0    0  0.00000000000E+00  0.00000000000E+00  0.45593999997E+02  0.45594000000E+02  0.51100000000E-03 0. -1.
         11   -1    0    0    0    0 -0.00000000000E+00 -0.00000000000E+00 -0.45593999997E+02  0.45594000000E+02  0.51100000000E-03 0.  1.
    9900012    2    1    2    0    0  0.29318771940E+00  0.49957365053E+00  0.10286483226E+01  0.90007470355E+02  0.89999728163E+02 0.  0.
        -12    1    1    2    0    0 -0.29318771940E+00 -0.49957365053E+00 -0.10286483226E+01  0.11805296450E+01  0.00000000000E+00 0.  1.
         11    1    3    3    0    0 -0.90433536502E+01 -0.60817614544E+01 -0.10803634153E+01  0.10951586780E+02  0.51100000000E-03 0. -1.
        -11    1    3    3    0    0 -0.57775025311E+01 -0.19309548676E+02 -0.29347065773E+02  0.35601804383E+02  0.51100000000E-03 0.  1.
         12    1    3    3    0    0  0.15114043901E+02  0.25890883781E+02  0.31456077511E+02  0.43454079192E+02  0.00000000000E+00 0. -1.
</event>
<event>
 7    1  0.2879200E-015  0.9000774E+02  0.7816164E-02  0.1186339E+00
        -11   -1    0    0    0    0  0.00000000000E+00  0.00000000000E+00  0.45593999997E+02  0.45594000000E+02  0.51100000000E-03 0.  1.
         11   -1    0    0    0    0 -0.00000000000E+00 -0.00000000000E+00 -0.45593999997E+02  0.45594000000E+02  0.51100000000E-03 0. -1.
    9900012    2    1    2    0    0 -0.10576230565E+01  0.29586931311E+00 -0.43232295996E+00  0.90007742265E+02  0.90000003663E+02 0.  0.
        -12    1    1    2    0    0  0.10576230565E+01 -0.29586931311E+00  0.43232295996E+00  0.11802577354E+01  0.00000000000E+00 0.  1.
         11    1    3    3    0    0 -0.36202623910E+01 -0.85118933751E+01 -0.20533828286E+01  0.94749675414E+01  0.51100000000E-03 0. -1.
        -11    1    3    3    0    0  0.29607285002E+01 -0.35596664181E+02  0.46621692532E+01  0.36022551776E+02  0.51100000000E-03 0.  1.
         12    1    3    3    0    0 -0.39808916572E+00  0.44404426869E+02 -0.30411093845E+01  0.44510222947E+02  0.00000000000E+00 0. -1.
</event>
<event>
 7    1  0.2879200E-015  0.9000778E+02  0.7816164E-02  0.1186339E+00
        -11   -1    0    0    0    0  0.00000000000E+00  0.00000000000E+00  0.45593999997E+02  0.45594000000E+02  0.51100000000E-03 0. -1.
         11   -1    0    0    0    0 -0.00000000000E+00 -0.00000000000E+00 -0.45593999997E+02  0.45594000000E+02  0.51100000000E-03 0.  1.
    9900012    2    1    2    0    0  0.21821124279E+00  0.26576229486E+00  0.11290165240E+01  0.90007777964E+02  0.90000039833E+02 0.  0.
        -12    1    1    2    0    0 -0.21821124279E+00 -0.26576229486E+00 -0.11290165240E+01  0.11802220364E+01  0.00000000000E+00 0.  1.
         11    1    3    3    0    0 -0.16371201816E+01  0.39281536127E+01 -0.96404620311E+01  0.10537981862E+02  0.51100000000E-03 0. -1.
        -11    1    3    3    0    0 -0.35019853698E+02 -0.15544642918E+02  0.13519314089E+02  0.40630012678E+02  0.51100000000E-03 0.  1.
         12    1    3    3    0    0  0.36875185123E+02  0.11882251600E+02 -0.27498355335E+01  0.38839783424E+02  0.00000000000E+00 0. -1.
</event>
<event>
 7    1  0.2879200E-015  0.9000775E+02  0.7816164E-02  0.1186339E+00
        -11   -1    0    0    0    0  0.00000000000E+00  0.00000000000E+00  0.45593999997E+02  0.45594000000E+02  0.51100000000E-03 0.  1.
         11   -1    0    0    0    0 -0.00000000000E+00 -0.00000000000E+00 -0.45593999997E+02  0.45594000000E+02  0.51100000000E-03 0. -1.
    9900012    2    1    2    0    0 -0.33295362450E+00  0.18043898695E+00 -0.11178446760E+01  0.90007748729E+02  0.90000010212E+02 0.  0.
        -12    1    1    2    0    0  0.33295362450E+00 -0.18043898695E+00  0.11178446760E+01  0.11802512714E+01  0.00000000000E+00 0.  1.
         11    1    3    3    0    0 -0.33590748787E+02 -0.18632911503E+02  0.87829681704E+00  0.38422587116E+02  0.51100000000E-03 0. -1.
        -11    1    3    3    0    0 -0.24484053294E+01 -0.51472403001E+01 -0.61491776965E+01  0.83845785803E+01  0.51100000000E-03 0.  1.
        -12    1    3    3    0    0  0.35706200492E+02  0.23960590790E+02  0.41530362035E+01  0.43200583032E+02  0.00000000000E+00 0.  1.
</event>
<event>
 7    1  0.2879200E-015  0.9000771E+02  0.7816164E-02  0.1186339E+00
        -11   -1    0    0    0    0  0.00000000000E+00  0.00000000000E+00  0.45593999997E+02  0.45594000000E+02  0.51100000000E-03 0.  1.
         11   -1    0    0    0    0 -0.00000000000E+00 -0.00000000000E+00 -0.45593999997E+02  0.45594000000E+02  0.51100000000E-03 0. -1.
    9900012    2    1    2    0    0 -0.11486272177E+01  0.16126359768E+00 -0.21849603609E+00  0.90007707261E+02  0.89999968196E+02 0.  0.
        -12    1    1    2    0    0  0.11486272177E+01 -0.16126359768E+00  0.21849603609E+00  0.11802927395E+01  0.00000000000E+00 0.  1.
         11    1    3    3    0    0  0.32990919185E+01  0.48508504726E+01  0.70853260788E+01  0.91987283739E+01  0.51100000000E-03 0. -1.
        -11    1    3    3    0    0  0.38588061972E+01  0.36551634279E+02  0.47160971355E+01  0.37056091620E+02  0.51100000000E-03 0.  1.
         12    1    3    3    0    0 -0.83065253334E+01 -0.41241221154E+02 -0.12019919250E+02  0.43752887266E+02  0.00000000000E+00 0. -1.
</event>
<event>
 7    1  0.2879200E-015  0.9000770E+02  0.7816164E-02  0.1186339E+00
        -11   -1    0    0    0    0  0.00000000000E+00  0.00000000000E+00  0.45593999997E+02  0.45594000000E+02  0.51100000000E-03 0.  1.
         11   -1    0    0    0    0 -0.00000000000E+00 -0.00000000000E+00 -0.45593999997E+02  0.45594000000E+02  0.51100000000E-03 0. -1.
    9900012    2    1    2    0    0 -0.97250431126E+00 -0.19240236408E+00 -0.64057376595E+00  0.90007695779E+02  0.89999956563E+02 0.  0.
        -12    1    1    2    0    0  0.97250431126E+00  0.19240236408E+00  0.64057376595E+00  0.11803042213E+01  0.00000000000E+00 0.  1.
         11    1    3    3    0    0  0.27002039650E-01 -0.79019816323E+01 -0.47546329755E+01  0.92221785831E+01  0.51100000000E-03 0. -1.
        -11    1    3    3    0    0 -0.24320172981E+02  0.35485534705E+02  0.96739183135E+01  0.44093975585E+02  0.51100000000E-03 0.  1.
         12    1    3    3    0    0  0.23320666630E+02 -0.27775955437E+02 -0.55598591040E+01  0.36691541610E+02  0.00000000000E+00 0. -1.
</event>
<event>
 7    1  0.2879200E-015  0.9000775E+02  0.7816164E-02  0.1186339E+00
        -11   -1    0    0    0    0  0.00000000000E+00  0.00000000000E+00  0.45593999997E+02  0.45594000000E+02  0.51100000000E-03 0.  1.
         11   -1    0    0    0    0 -0.00000000000E+00 -0.00000000000E+00 -0.45593999997E+02  0.45594000000E+02  0.51100000000E-03 0. -1.
    9900012    2    1    2    0    0  0.86650758794E+00  0.70732400207E+00  0.37662663431E+00  0.90007749914E+02  0.90000011413E+02 0.  0.
        -12    1    1    2    0    0 -0.86650758794E+00 -0.70732400207E+00 -0.37662663431E+00  0.11802500860E+01  0.00000000000E+00 0.  1.
         11    1    3    3    0    0 -0.19692217558E+01  0.71529074430E+01 -0.72804020103E+01  0.10394526103E+02  0.51100000000E-03 0. -1.
        -11    1    3    3    0    0 -0.37621374894E+02 -0.67007501477E+01 -0.10546901149E+01  0.38228003779E+02  0.51100000000E-03 0.  1.
         12    1    3    3    0    0  0.40457104238E+02  0.25516670678E+00  0.87117187596E+01  0.41385220032E+02  0.00000000000E+00 0. -1.
</event>
<event>
 7    1  0.2879200E-015  0.9000774E+02  0.7816164E-02  0.1186339E+00
        -11   -1    0    0    0    0  0.00000000000E+00  0.00000000000E+00  0.45593999997E+02  0.45594000000E+02  0.51100000000E-03 0. -1.
         11   -1    0    0    0    0 -0.00000000000E+00 -0.00000000000E+00 -0.45593999997E+02  0.45594000000E+02  0.51100000000E-03 0.  1.
    9900012    2    1    2    0    0 -0.88600002625E+00  0.65432759253E+00  0.42410590373E+00  0.90007743052E+02  0.90000004461E+02 0.  0.
        -12    1    1    2    0    0  0.88600002625E+00 -0.65432759253E+00 -0.42410590373E+00  0.11802569476E+01  0.00000000000E+00 0.  1.
         11    1    3    3    0    0 -0.40949981398E+02  0.60406735211E+01  0.71367596388E+01  0.42003857579E+02  0.51100000000E-03 0. -1.
        -11    1    3    3    0    0  0.29779693170E+01 -0.56066608981E+01  0.60628606529E+01  0.87784524398E+01  0.51100000000E-03 0.  1.
        -12    1    3    3    0    0  0.37086012055E+02  0.22031496957E+00 -0.12775514388E+02  0.39225433034E+02  0.00000000000E+00 0.  1.
</event>
<event>
 7    1  0.3033633E-015  0.9000771E+02  0.7816164E-02  0.1186339E+00
        -11   -1    0    0    0    0  0.00000000000E+00  0.00000000000E+00  0.45593999997E+02  0.45594000000E+02  0.51100000000E-03 0. -1.
         11   -1    0    0    0    0 -0.00000000000E+00 -0.00000000000E+00 -0.45593999997E+02  0.45594000000E+02  0.51100000000E-03 0.  1.
    9900012    2    1    2    0    0  0.81844361298E+00 -0.39936244606E+00  0.75082914290E+00  0.90007709903E+02  0.89999970874E+02 0.  0.
        -12    1    1    2    0    0 -0.81844361298E+00  0.39936244606E+00 -0.75082914290E+00  0.11802900969E+01  0.00000000000E+00 0.  1.
         11    1    3    3    0    0  0.13268792820E+02 -0.59603778666E+01  0.34700513360E+02  0.37625956399E+02  0.51100000000E-03 0. -1.
        -11    1    3    3    0    0 -0.15980257255E+01  0.67744363504E+01  0.70772450484E+01  0.99264329858E+01  0.51100000000E-03 0.  1.
        -12    1    3    3    0    0 -0.10852323482E+02 -0.12134209299E+01 -0.41026929266E+02  0.42455320518E+02  0.00000000000E+00 0.  1.
</event>
<event>
 7    1  0.2879200E-015  0.9000834E+02  0.7816164E-02  0.1186338E+00
        -11   -1    0    0    0    0  0.00000000000E+00  0.00000000000E+00  0.45593999997E+02  0.45594000000E+02  0.51100000000E-03 0. -1.
         11   -1    0    0    0    0 -0.00000000000E+00 -0.00000000000E+00 -0.45593999997E+02  0.45594000000E+02  0.51100000000E-03 0.  1.
    9900012    2    1    2    0    0  0.52700526915E+00 -0.20248673993E+00  0.10357898740E+01  0.90008340686E+02  0.90000609981E+02 0.  0.
        -12    1    1    2    0    0 -0.52700526915E+00  0.20248673993E+00 -0.10357898740E+01  0.11796593138E+01  0.00000000000E+00 0.  1.
         11    1    3    3    0    0 -0.87676905913E+01  0.25342216016E+01 -0.41031269008E+01  0.10006514281E+02  0.51100000000E-03 0. -1.
        -11    1    3    3    0    0 -0.16007939775E+02  0.19230870139E+02 -0.24681256077E+02  0.35146051043E+02  0.51100000000E-03 0.  1.
         12    1    3    3    0    0  0.25302635635E+02 -0.21967578481E+02  0.29820172852E+02  0.44855775362E+02  0.00000000000E+00 0. -1.
</event>
<event>
 7    1  0.2879200E-015  0.9000773E+02  0.7816164E-02  0.1186339E+00
        -11   -1    0    0    0    0  0.00000000000E+00  0.00000000000E+00  0.45593999997E+02  0.45594000000E+02  0.51100000000E-03 0.  1.
         11   -1    0    0    0    0 -0.00000000000E+00 -0.00000000000E+00 -0.45593999997E+02  0.45594000000E+02  0.51100000000E-03 0. -1.
    9900012    2    1    2    0    0  0.20141562562E+00 -0.15592834764E+00 -0.11524568657E+01  0.90007729382E+02  0.89999990610E+02 0.  0.
        -12    1    1    2    0    0 -0.20141562562E+00  0.15592834764E+00  0.11524568657E+01  0.11802706178E+01  0.00000000000E+00 0.  1.
         11    1    3    3    0    0  0.29199806446E+02 -0.22496984707E+02 -0.20392647208E+02  0.42126038003E+02  0.51100000000E-03 0. -1.
        -11    1    3    3    0    0  0.26758755962E+00  0.66302219999E+01 -0.36202060746E+01  0.75589244706E+01  0.51100000000E-03 0.  1.
        -12    1    3    3    0    0 -0.29265978380E+02  0.15710834360E+02  0.22860396417E+02  0.40322766909E+02  0.00000000000E+00 0.  1.
</event>
<event>
 7    1  0.2879200E-015  0.9000766E+02  0.7816164E-02  0.1186339E+00
        -11   -1    0    0    0    0  0.00000000000E+00  0.00000000000E+00  0.45593999997E+02  0.45594000000E+02  0.51100000000E-03 0.  1.
         11   -1    0    0    0    0 -0.00000000000E+00 -0.00000000000E+00 -0.45593999997E+02  0.45594000000E+02  0.51100000000E-03 0. -1.
    9900012    2    1    2    0    0 -0.35308836123E+00  0.10709694087E+01  0.34865637742E+00  0.90007657620E+02  0.89999917900E+02 0.  0.
        -12    1    1    2    0    0  0.35308836123E+00 -0.10709694087E+01 -0.34865637742E+00  0.11803423803E+01  0.00000000000E+00 0.  1.
         11    1    3    3    0    0  0.40252618045E+01  0.82172364503E+01 -0.13424137053E+01  0.92481231768E+01  0.51100000000E-03 0. -1.
        -11    1    3    3    0    0  0.32867464516E+02 -0.11903898023E+02  0.18579926490E+02  0.39587708705E+02  0.51100000000E-03 0.  1.
         12    1    3    3    0    0 -0.37245814682E+02  0.47576309816E+01 -0.16888856407E+02  0.41171825738E+02  0.00000000000E+00 0. -1.
</event>
<event>
 7    1  0.2879200E-015  0.9000785E+02  0.7816164E-02  0.1186339E+00
        -11   -1    0    0    0    0  0.00000000000E+00  0.00000000000E+00  0.45593999997E+02  0.45594000000E+02  0.51100000000E-03 0.  1.
         11   -1    0    0    0    0 -0.00000000000E+00 -0.00000000000E+00 -0.45593999997E+02  0.45594000000E+02  0.51100000000E-03 0. -1.
    9900012    2    1    2    0    0  0.49198321544E+00  0.50980194526E+00 -0.94382423559E+00  0.90007851833E+02  0.90000114677E+02 0.  0.
        -12    1    1    2    0    0 -0.49198321544E+00 -0.50980194526E+00  0.94382423559E+00  0.11801481667E+01  0.00000000000E+00 0.  1.
         11    1    3    3    0    0  0.26067466104E+02  0.24143059306E+02 -0.23209696311E+02  0.42439251935E+02  0.51100000000E-03 0. -1.
        -11    1    3    3    0    0 -0.70989688498E+01  0.43906570121E+01  0.30243102410E+01  0.88780448536E+01  0.51100000000E-03 0.  1.
        -12    1    3    3    0    0 -0.18476514039E+02 -0.28023914373E+02  0.19241561834E+02  0.38690555044E+02  0.00000000000E+00 0.  1.
</event>
<event>
 7    1  0.2879200E-015  0.9000774E+02  0.7816164E-02  0.1186339E+00
        -11   -1    0    0    0    0  0.00000000000E+00  0.00000000000E+00  0.45593999997E+02  0.45594000000E+02  0.51100000000E-03 0.  1.
         11   -1    0    0    0    0 -0.00000000000E+00 -0.00000000000E+00 -0.45593999997E+02  0.45594000000E+02  0.51100000000E-03 0. -1.
    9900012    2    1    2    0    0 -0.11054767433E+01  0.33219016962E+00  0.24614866524E+00  0.90007738036E+02  0.89999999378E+02 0.  0.
        -12    1    1    2    0    0  0.11054767433E+01 -0.33219016962E+00 -0.24614866524E+00  0.11802619642E+01  0.00000000000E+00 0.  1.
         11    1    3    3    0    0  0.72392960599E+01 -0.31834241062E+02 -0.10960270464E+02  0.34437680531E+02  0.51100000000E-03 0. -1.
        -11    1    3    3    0    0 -0.43817052365E+01 -0.98004629479E+01 -0.28975555445E+01  0.11119543298E+02  0.51100000000E-03 0.  1.
        -12    1    3    3    0    0 -0.39630675667E+01  0.41966894179E+02  0.14103974674E+02  0.44450514206E+02  0.00000000000E+00 0.  1.
</event>
<event>
 7    1  0.2879200E-015  0.9000775E+02  0.7816164E-02  0.1186339E+00
        -11   -1    0    0    0    0  0.00000000000E+00  0.00000000000E+00  0.45593999997E+02  0.45594000000E+02  0.51100000000E-03 0.  1.
         11   -1    0    0    0    0 -0.00000000000E+00 -0.00000000000E+00 -0.45593999997E+02  0.45594000000E+02  0.51100000000E-03 0. -1.
    9900012    2    1    2    0    0 -0.77847489499E+00  0.50598693982E+00 -0.72866355896E+00  0.90007747261E+02  0.90000008725E+02 0.  0.
        -12    1    1    2    0    0  0.77847489499E+00 -0.50598693982E+00  0.72866355896E+00  0.11802527388E+01  0.00000000000E+00 0.  1.
         11    1    3    3    0    0 -0.17494925056E+02  0.23355766837E+02 -0.29880629570E+02  0.41766209680E+02  0.51100000000E-03 0. -1.
        -11    1    3    3    0    0  0.95861815184E+01  0.29858926616E+01  0.22953491195E+01  0.10299468866E+02  0.51100000000E-03 0.  1.
        -12    1    3    3    0    0  0.71302686426E+01 -0.25835672559E+02  0.26856616892E+02  0.37942068715E+02  0.00000000000E+00 0.  1.
</event>
<event>
 7    1  0.2879200E-015  0.9000777E+02  0.7816164E-02  0.1186339E+00
        -11   -1    0    0    0    0  0.00000000000E+00  0.00000000000E+00  0.45593999997E+02  0.45594000000E+02  0.51100000000E-03 0.  1.
         11   -1    0    0    0    0 -0.00000000000E+00 -0.00000000000E+00 -0.45593999997E+02  0.45594000000E+02  0.51100000000E-03 0. -1.
    9900012    2    1    2    0    0  0.11427738876E+01  0.29428074542E+00  0.20018022809E-01  0.90007773735E+02  0.90000035548E+02 0.  0.
        -12    1    1    2    0    0 -0.11427738876E+01 -0.29428074542E+00 -0.20018022809E-01  0.11802262650E+01  0.00000000000E+00 0.  1.
         11    1    3    3    0    0  0.13776414808E+01  0.70183201072E+01 -0.94546288536E+01  0.11855155849E+02  0.51100000000E-03 0. -1.
        -11    1    3    3    0    0  0.31039618900E+02 -0.10396436943E+01  0.27610704205E+02  0.41555863454E+02  0.51100000000E-03 0.  1.
         12    1    3    3    0    0 -0.31274486493E+02 -0.56843956675E+01 -0.18136057329E+02  0.36596754432E+02  0.00000000000E+00 0. -1.
</event>
<event>
 7    1  0.2879200E-015  0.9000767E+02  0.7816164E-02  0.1186339E+00
        -11   -1    0    0    0    0  0.00000000000E+00  0.00000000000E+00  0.45593999997E+02  0.45594000000E+02  0.51100000000E-03 0. -1.
         11   -1    0    0    0    0 -0.00000000000E+00 -0.00000000000E+00 -0.45593999997E+02  0.45594000000E+02  0.51100000000E-03 0.  1.
    9900012    2    1    2    0    0  0.49674705747E+00 -0.10414183300E+01 -0.24872816841E+00  0.90007671453E+02  0.89999931916E+02 0.  0.
        -12    1    1    2    0    0 -0.49674705747E+00  0.10414183300E+01  0.24872816841E+00  0.11803285470E+01  0.00000000000E+00 0.  1.
         11    1    3    3    0    0 -0.32387592151E+01  0.16520127781E+01 -0.79407016479E+01  0.87334672607E+01  0.51100000000E-03 0. -1.
        -11    1    3    3    0    0  0.81607092781E+01  0.25177667749E+00 -0.36175718175E+02  0.37085619223E+02  0.51100000000E-03 0.  1.
         12    1    3    3    0    0 -0.44252030055E+01 -0.29452077856E+01  0.43867691654E+02  0.44188584970E+02  0.00000000000E+00 0. -1.
</event>
<event>
 7    1  0.2879200E-015  0.9000778E+02  0.7816164E-02  0.1186339E+00
        -11   -1    0    0    0    0  0.00000000000E+00  0.00000000000E+00  0.45593999997E+02  0.45594000000E+02  0.51100000000E-03 0.  1.
         11   -1    0    0    0    0 -0.00000000000E+00 -0.00000000000E+00 -0.45593999997E+02  0.45594000000E+02  0.51100000000E-03 0. -1.
    9900012    2    1    2    0    0 -0.83802670446E+00 -0.44648599891E-01 -0.82984689444E+00  0.90007776240E+02  0.90000038087E+02 0.  0.
        -12    1    1    2    0    0  0.83802670446E+00  0.44648599891E-01  0.82984689444E+00  0.11802237597E+01  0.00000000000E+00 0.  1.
         11    1    3    3    0    0 -0.13684647324E+02  0.10518503605E+02  0.10976085013E+02  0.20454411087E+02  0.51100000000E-03 0. -1.
        -11    1    3    3    0    0  0.46834897528E+01  0.10733891880E+02  0.24226740434E+02  0.26908854741E+02  0.51100000000E-03 0.  1.
         12    1    3    3    0    0  0.81631308662E+01 -0.21297044084E+02 -0.36032672341E+02  0.42644510412E+02  0.00000000000E+00 0. -1.
</event>
<event>
 7    1  0.2879200E-015  0.9000774E+02  0.7816164E-02  0.1186339E+00
        -11   -1    0    0    0    0  0.00000000000E+00  0.00000000000E+00  0.45593999997E+02  0.45594000000E+02  0.51100000000E-03 0. -1.
         11   -1    0    0    0    0 -0.00000000000E+00 -0.00000000000E+00 -0.45593999997E+02  0.45594000000E+02  0.51100000000E-03 0.  1.
    9900012    2    1    2    0    0 -0.35308624862E+00 -0.35561901449E+00  0.10685840964E+01  0.90007742929E+02  0.90000004336E+02 0.  0.
        -12    1    1    2    0    0  0.35308624862E+00  0.35561901449E+00 -0.10685840964E+01  0.11802570709E+01  0.00000000000E+00 0.  1.
         11    1    3    3    0    0  0.29477354248E+02  0.28771702419E+02 -0.73065196985E+01  0.41834322080E+02  0.51100000000E-03 0. -1.
        -11    1    3    3    0    0  0.14768960727E+01 -0.59040138972E+01  0.68502421742E+01  0.91632101479E+01  0.51100000000E-03 0.  1.
        -12    1    3    3    0    0 -0.31307336569E+02 -0.23223307536E+02  0.15248616207E+01  0.39010210701E+02  0.00000000000E+00 0.  1.
</event>
<event>
 7    1  0.2879200E-015  0.9000776E+02  0.7816164E-02  0.1186339E+00
        -11   -1    0    0    0    0  0.00000000000E+00  0.00000000000E+00  0.45593999997E+02  0.45594000000E+02  0.51100000000E-03 0.  1.
         11   -1    0    0    0    0 -0.00000000000E+00 -0.00000000000E+00 -0.45593999997E+02  0.45594000000E+02  0.51100000000E-03 0. -1.
    9900012    2    1    2    0    0 -0.10322703836E+01 -0.43780030030E+00  0.36838013493E+00  0.90007764781E+02  0.90000026476E+02 0.  0.
        -12    1    1    2    0    0  0.10322703836E+01  0.43780030030E+00 -0.36838013493E+00  0.11802352187E+01  0.00000000000E+00 0.  1.
         11    1    3    3    0    0  0.11497954977E+02  0.15985802259E+00 -0.48285677622E+00  0.11509199545E+02  0.51100000000E-03 0. -1.
        -11    1    3    3    0    0  0.92974943121E+01 -0.29083729932E+02  0.21267315906E+02  0.37210287198E+02  0.51100000000E-03 0.  1.
         12    1    3    3    0    0 -0.21827719673E+02  0.28486071609E+02 -0.20416078994E+02  0.41288278038E+02  0.00000000000E+00 0. -1.
</event>
<event>
 7    1  0.2879200E-015  0.9000774E+02  0.7816164E-02  0.1186339E+00
        -11   -1    0    0    0    0  0.00000000000E+00  0.00000000000E+00  0.45593999997E+02  0.45594000000E+02  0.51100000000E-03 0.  1.
         11   -1    0    0    0    0 -0.00000000000E+00 -0.00000000000E+00 -0.45593999997E+02  0.45594000000E+02  0.51100000000E-03 0. -1.
    9900012    2    1    2    0    0 -0.10352244817E+01  0.55819009096E+00  0.98697966961E-01  0.90007742742E+02  0.90000004147E+02 0.  0.
        -12    1    1    2    0    0  0.10352244817E+01 -0.55819009096E+00 -0.98697966961E-01  0.11802572575E+01  0.00000000000E+00 0.  1.
         11    1    3    3    0    0 -0.84250616266E+00  0.53158031645E+01 -0.76106572634E+01  0.93214636275E+01  0.51100000000E-03 0. -1.
        -11    1    3    3    0    0 -0.12112089808E+02 -0.32139869786E+02 -0.20170430757E+02  0.39831146438E+02  0.51100000000E-03 0.  1.
         12    1    3    3    0    0  0.11919371489E+02  0.27382256712E+02  0.27879785987E+02  0.40855132677E+02  0.00000000000E+00 0. -1.
</event>
<event>
 7    1  0.2879200E-015  0.9000774E+02  0.7816164E-02  0.1186339E+00
        -11   -1    0    0    0    0  0.00000000000E+00  0.00000000000E+00  0.45593999997E+02  0.45594000000E+02  0.51100000000E-03 0.  1.
         11   -1    0    0    0    0 -0.00000000000E+00 -0.00000000000E+00 -0.45593999997E+02  0.45594000000E+02  0.51100000000E-03 0. -1.
    9900012    2    1    2    0    0 -0.27844915981E+00 -0.31021056417E+00 -0.11041919212E+01  0.90007743957E+02  0.90000005377E+02 0.  0.
        -12    1    1    2    0    0  0.27844915981E+00  0.31021056417E+00  0.11041919212E+01  0.11802560432E+01  0.00000000000E+00 0.  1.
         11    1    3    3    0    0 -0.41475628161E+02 -0.69090529579E+01  0.10440365755E+02  0.43323942359E+02  0.51100000000E-03 0. -1.
        -11    1    3    3    0    0  0.92730313042E+01  0.37693610289E+01  0.43445339018E+01  0.10912019392E+02  0.51100000000E-03 0.  1.
        -12    1    3    3    0    0  0.31924147697E+02  0.28294813649E+01 -0.15889091578E+02  0.35771782206E+02  0.00000000000E+00 0.  1.
</event>
<event>
 7    1  0.2879200E-015  0.9000776E+02  0.7816164E-02  0.1186339E+00
        -11   -1    0    0    0    0  0.00000000000E+00  0.00000000000E+00  0.45593999997E+02  0.45594000000E+02  0.51100000000E-03 0.  1.
         11   -1    0    0    0    0 -0.00000000000E+00 -0.00000000000E+00 -0.45593999997E+02  0.45594000000E+02  0.51100000000E-03 0. -1.
    9900012    2    1    2    0    0  0.17759335554E-01  0.21595771851E+00 -0.11601784831E+01  0.90007759667E+02  0.90000021295E+02 0.  0.
        -12    1    1    2    0    0 -0.17759335554E-01 -0.21595771851E+00  0.11601784831E+01  0.11802403326E+01  0.00000000000E+00 0.  1.
         11    1    3    3    0    0 -0.33602348830E+02 -0.24556603143E+01  0.69817258593E+01  0.34407740563E+02  0.51100000000E-03 0. -1.
        -11    1    3    3    0    0 -0.93955371080E+01  0.70069027323E+01 -0.26769455827E+01  0.12022430759E+02  0.51100000000E-03 0.  1.
        -12    1    3    3    0    0  0.43015645273E+02 -0.43352846994E+01 -0.54649587596E+01  0.43577588345E+02  0.00000000000E+00 0.  1.
</event>
<event>
 7    1  0.2879200E-015  0.9000780E+02  0.7816164E-02  0.1186339E+00
        -11   -1    0    0    0    0  0.00000000000E+00  0.00000000000E+00  0.45593999997E+02  0.45594000000E+02  0.51100000000E-03 0.  1.
         11   -1    0    0    0    0 -0.00000000000E+00 -0.00000000000E+00 -0.45593999997E+02  0.45594000000E+02  0.51100000000E-03 0. -1.
    9900012    2    1    2    0    0 -0.68529787463E+00  0.84807802718E-02 -0.96081071476E+00  0.90007804114E+02  0.90000066328E+02 0.  0.
        -12    1    1    2    0    0  0.68529787463E+00 -0.84807802718E-02  0.96081071476E+00  0.11801958864E+01  0.00000000000E+00 0.  1.
         11    1    3    3    0    0  0.34900319901E+01  0.18603993400E+02 -0.79676520987E+01  0.20537097506E+02  0.51100000000E-03 0. -1.
        -11    1    3    3    0    0 -0.29962189823E+02  0.33645072224E+01 -0.97421302145E+01  0.31685356701E+02  0.51100000000E-03 0.  1.
        -12    1    3    3    0    0  0.25786859959E+02 -0.21960019842E+02  0.16748971598E+02  0.37785349907E+02  0.00000000000E+00 0.  1.
</event>
<event>
 7    1  0.2879200E-015  0.9000768E+02  0.7816164E-02  0.1186339E+00
        -11   -1    0    0    0    0  0.00000000000E+00  0.00000000000E+00  0.45593999997E+02  0.45594000000E+02  0.51100000000E-03 0.  1.
         11   -1    0    0    0    0 -0.00000000000E+00 -0.00000000000E+00 -0.45593999997E+02  0.45594000000E+02  0.51100000000E-03 0. -1.
    9900012    2    1    2    0    0  0.68033388918E+00  0.49809555510E-01 -0.96323635295E+00  0.90007678237E+02  0.89999938790E+02 0.  0.
        -12    1    1    2    0    0 -0.68033388918E+00 -0.49809555510E-01  0.96323635295E+00  0.11803217630E+01  0.00000000000E+00 0.  1.
         11    1    3    3    0    0  0.33601186314E+02 -0.76877455746E+01  0.28740803311E+01  0.34589037161E+02  0.51100000000E-03 0. -1.
        -11    1    3    3    0    0 -0.16339530440E+01  0.80936032545E+01  0.16256479776E+02  0.18233193663E+02  0.51100000000E-03 0.  1.
        -12    1    3    3    0    0 -0.31286899381E+02 -0.35604812444E+00 -0.20093796460E+02  0.37185447413E+02  0.00000000000E+00 0.  1.
</event>
<event>
 7    1  0.2879200E-015  0.9000771E+02  0.7816164E-02  0.1186339E+00
        -11   -1    0    0    0    0  0.00000000000E+00  0.00000000000E+00  0.45593999997E+02  0.45594000000E+02  0.51100000000E-03 0. -1.
         11   -1    0    0    0    0 -0.00000000000E+00 -0.00000000000E+00 -0.45593999997E+02  0.45594000000E+02  0.51100000000E-03 0.  1.
    9900012    2    1    2    0    0  0.70972642694E+00 -0.56699235246E+00  0.75358404952E+00  0.90007711540E+02  0.89999972532E+02 0.  0.
        -12    1    1    2    0    0 -0.70972642694E+00  0.56699235246E+00 -0.75358404952E+00  0.11802884599E+01  0.00000000000E+00 0.  1.
         11    1    3    3    0    0 -0.47007116611E+01  0.91746713524E+01 -0.71738113138E+01  0.12559253703E+02  0.51100000000E-03 0. -1.
        -11    1    3    3    0    0  0.50105164125E+01  0.46958322052E+01 -0.33177111191E+02  0.33880330903E+02  0.51100000000E-03 0.  1.
         12    1    3    3    0    0  0.39992167554E+00 -0.14437495910E+02  0.41104506554E+02  0.43568126935E+02  0.00000000000E+00 0. -1.
</event>
<event>
 7    1  0.2879200E-015  0.9000779E+02  0.7816164E-02  0.1186339E+00
        -11   -1    0    0    0    0  0.00000000000E+00  0.00000000000E+00  0.45593999997E+02  0.45594000000E+02  0.51100000000E-03 0.  1.
         11   -1    0    0    0    0 -0.00000000000E+00 -0.00000000000E+00 -0.45593999997E+02  0.45594000000E+02  0.51100000000E-03 0. -1.
    9900012    2    1    2    0    0 -0.57005477956E+00  0.51339911069E+00  0.89686221804E+00  0.90007786910E+02  0.90000048898E+02 0.  0.
        -12    1    1    2    0    0  0.57005477956E+00 -0.51339911069E+00 -0.89686221804E+00  0.11802130895E+01  0.00000000000E+00 0.  1.
         11    1    3    3    0    0  0.18970963594E+02 -0.24317914588E+02 -0.17316640618E+02  0.35371237922E+02  0.51100000000E-03 0. -1.
        -11    1    3    3    0    0  0.60931020696E+01  0.12019157147E+02 -0.81069624497E+01  0.15726057096E+02  0.51100000000E-03 0.  1.
        -12    1    3    3    0    0 -0.25634120443E+02  0.12812156551E+02  0.26320465286E+02  0.38910491892E+02  0.00000000000E+00 0.  1.
</event>
<event>
 7    1  0.2879200E-015  0.9000736E+02  0.7816164E-02  0.1186340E+00
        -11   -1    0    0    0    0  0.00000000000E+00  0.00000000000E+00  0.45593999997E+02  0.45594000000E+02  0.51100000000E-03 0.  1.
         11   -1    0    0    0    0 -0.00000000000E+00 -0.00000000000E+00 -0.45593999997E+02  0.45594000000E+02  0.51100000000E-03 0. -1.
    9900012    2    1    2    0    0 -0.81650708946E+00 -0.83640818490E+00  0.16627285890E+00  0.90007360706E+02  0.89999617067E+02 0.  0.
        -12    1    1    2    0    0  0.81650708946E+00  0.83640818490E+00 -0.16627285890E+00  0.11806392940E+01  0.00000000000E+00 0.  1.
         11    1    3    3    0    0 -0.10815012185E+02  0.38043167883E+02 -0.17223920838E+02  0.43138272571E+02  0.51100000000E-03 0. -1.
        -11    1    3    3    0    0 -0.67782957560E+00 -0.67816524686E+01 -0.29184638179E+01  0.74140201278E+01  0.51100000000E-03 0.  1.
        -12    1    3    3    0    0  0.10676334672E+02 -0.32097923599E+02  0.20308657515E+02  0.39455068007E+02  0.00000000000E+00 0.  1.
</event>
<event>
 7    1  0.2879200E-015  0.9000774E+02  0.7816164E-02  0.1186339E+00
        -11   -1    0    0    0    0  0.00000000000E+00  0.00000000000E+00  0.45593999997E+02  0.45594000000E+02  0.51100000000E-03 0. -1.
         11   -1    0    0    0    0 -0.00000000000E+00 -0.00000000000E+00 -0.45593999997E+02  0.45594000000E+02  0.51100000000E-03 0.  1.
    9900012    2    1    2    0    0 -0.85594107706E+00 -0.32085801926E+00  0.74661159236E+00  0.90007739916E+02  0.90000001283E+02 0.  0.
        -12    1    1    2    0    0  0.85594107706E+00  0.32085801926E+00 -0.74661159236E+00  0.11802600840E+01  0.00000000000E+00 0.  1.
         11    1    3    3    0    0 -0.64800276329E+01 -0.85532992220E+00 -0.27209232186E+01  0.70799555663E+01  0.51100000000E-03 0. -1.
        -11    1    3    3    0    0 -0.23923176575E+02  0.22406681431E+02 -0.20853401895E+02  0.38848965508E+02  0.51100000000E-03 0.  1.
         12    1    3    3    0    0  0.29547263131E+02 -0.21872209528E+02  0.24320936706E+02  0.44078818841E+02  0.00000000000E+00 0. -1.
</event>
<event>
 7    1  0.2879200E-015  0.9000759E+02  0.7816164E-02  0.1186339E+00
        -11   -1    0    0    0    0  0.00000000000E+00  0.00000000000E+00  0.45593999997E+02  0.45594000000E+02  0.51100000000E-03 0. -1.
         11   -1    0    0    0    0 -0.00000000000E+00 -0.00000000000E+00 -0.45593999997E+02  0.45594000000E+02  0.51100000000E-03 0.  1.
    9900012    2    1    2    0    0 -0.72843296789E+00 -0.88338335481E+00  0.28704900554E+00  0.90007585720E+02  0.89999845052E+02 0.  0.
        -12    1    1    2    0    0  0.72843296789E+00  0.88338335481E+00 -0.28704900554E+00  0.11804142798E+01  0.00000000000E+00 0.  1.
         11    1    3    3    0    0  0.20933704219E+02  0.10626152991E+02 -0.41021884502E+01  0.23831975370E+02  0.51100000000E-03 0. -1.
        -11    1    3    3    0    0 -0.77658913265E+00  0.56777366172E+01 -0.25341877296E+02  0.25981734525E+02  0.51100000000E-03 0.  1.
         12    1    3    3    0    0 -0.20885548054E+02 -0.17187272963E+02  0.29731114752E+02  0.40193875825E+02  0.00000000000E+00 0. -1.
</event>
<event>
 7    1  0.2879200E-015  0.9000770E+02  0.7816164E-02  0.1186339E+00
        -11   -1    0    0    0    0  0.00000000000E+00  0.00000000000E+00  0.45593999997E+02  0.45594000000E+02  0.51100000000E-03 0.  1.
         11   -1    0    0    0    0 -0.00000000000E+00 -0.00000000000E+00 -0.45593999997E+02  0.45594000000E+02  0.51100000000E-03 0. -1.
    9900012    2    1    2    0    0 -0.60255797539E-01  0.85550371462E+00 -0.81091963200E+00  0.90007700031E+02  0.89999960872E+02 0.  0.
        -12    1    1    2    0    0  0.60255797539E-01 -0.85550371462E+00  0.81091963200E+00  0.11802999688E+01  0.00000000000E+00 0.  1.
         11    1    3    3    0    0 -0.10365904919E+02 -0.39635087794E+02  0.15709900039E+01  0.40998294831E+02  0.51100000000E-03 0. -1.
        -11    1    3    3    0    0 -0.49211328748E+01  0.26988609170E+01  0.51006554844E+01  0.75840678829E+01  0.51100000000E-03 0.  1.
        -12    1    3    3    0    0  0.15226781996E+02  0.37791730592E+02 -0.74825651203E+01  0.41425337317E+02  0.00000000000E+00 0.  1.
</event>
<event>
 7    1  0.2879200E-015  0.9000795E+02  0.7816164E-02  0.1186339E+00
        -11   -1    0    0    0    0  0.00000000000E+00  0.00000000000E+00  0.45593999997E+02  0.45594000000E+02  0.51100000000E-03 0. -1.
         11   -1    0    0    0    0 -0.00000000000E+00 -0.00000000000E+00 -0.45593999997E+02  0.45594000000E+02  0.51100000000E-03 0.  1.
    9900012    2    1    2    0    0  0.55305990109E+00 -0.96592515602E+00  0.39194612582E+00  0.90007954057E+02  0.90000218251E+02 0.  0.
        -12    1    1    2    0    0 -0.55305990109E+00  0.96592515602E+00 -0.39194612582E+00  0.11800459426E+01  0.00000000000E+00 0.  1.
         11    1    3    3    0    0 -0.24543070687E+02 -0.15104991252E+02  0.28076248707E+02  0.40234299065E+02  0.51100000000E-03 0. -1.
        -11    1    3    3    0    0  0.15989878294E+01  0.44163562331E+01  0.59676121566E+01  0.75942978325E+01  0.51100000000E-03 0.  1.
        -12    1    3    3    0    0  0.23497142759E+02  0.97227098634E+01 -0.33651914738E+02  0.42179357160E+02  0.00000000000E+00 0.  1.
</event>
<event>
 7    1  0.2879200E-015  0.9000774E+02  0.7816164E-02  0.1186339E+00
        -11   -1    0    0    0    0  0.00000000000E+00  0.00000000000E+00  0.45593999997E+02  0.45594000000E+02  0.51100000000E-03 0. -1.
         11   -1    0    0    0    0 -0.00000000000E+00 -0.00000000000E+00 -0.45593999997E+02  0.45594000000E+02  0.51100000000E-03 0.  1.
    9900012    2    1    2    0    0  0.76403858146E+00 -0.87341823839E+00  0.21538058491E+00  0.90007744447E+02  0.90000005874E+02 0.  0.
        -12    1    1    2    0    0 -0.76403858146E+00  0.87341823839E+00 -0.21538058491E+00  0.11802555526E+01  0.00000000000E+00 0.  1.
         11    1    3    3    0    0  0.20129448849E+01  0.43483276575E+00  0.10028236847E+02  0.10237507566E+02  0.51100000000E-03 0. -1.
        -11    1    3    3    0    0  0.38480346222E+02  0.44713695898E+01 -0.81566095127E+01  0.39588640674E+02  0.51100000000E-03 0.  1.
         12    1    3    3    0    0 -0.39729252526E+02 -0.57796205939E+01 -0.16562467494E+01  0.40181596207E+02  0.00000000000E+00 0. -1.
</event>
<event>
 7    1  0.2879200E-015  0.9000775E+02  0.7816164E-02  0.1186339E+00
        -11   -1    0    0    0    0  0.00000000000E+00  0.00000000000E+00  0.45593999997E+02  0.45594000000E+02  0.51100000000E-03 0. -1.
         11   -1    0    0    0    0 -0.00000000000E+00 -0.00000000000E+00 -0.45593999997E+02  0.45594000000E+02  0.51100000000E-03 0.  1.
    9900012    2    1    2    0    0  0.80467778503E+00  0.47922162463E+00  0.71821904258E+00  0.90007746512E+02  0.90000007966E+02 0.  0.
        -12    1    1    2    0    0 -0.80467778503E+00 -0.47922162463E+00 -0.71821904258E+00  0.11802534882E+01  0.00000000000E+00 0.  1.
         11    1    3    3    0    0  0.30979228057E+01 -0.81832313075E+01  0.14840908075E+01  0.88749606269E+01  0.51100000000E-03 0. -1.
        -11    1    3    3    0    0  0.70693969958E+01 -0.28510951728E+02 -0.22558518781E+02  0.37036974933E+02  0.51100000000E-03 0.  1.
         12    1    3    3    0    0 -0.93626420165E+01  0.37173404660E+02  0.21792647016E+02  0.44095810952E+02  0.00000000000E+00 0. -1.
</event>
<event>
 7    1  0.2879200E-015  0.9000773E+02  0.7816164E-02  0.1186339E+00
        -11   -1    0    0    0    0  0.00000000000E+00  0.00000000000E+00  0.45593999997E+02  0.45594000000E+02  0.51100000000E-03 0. -1.
         11   -1    0    0    0    0 -0.00000000000E+00 -0.00000000000E+00 -0.45593999997E+02  0.45594000000E+02  0.51100000000E-03 0.  1.
    9900012    2    1    2    0    0  0.89877153043E+00 -0.76438459171E+00  0.31114124773E-01  0.90007727931E+02  0.89999989140E+02 0.  0.
        -12    1    1    2    0    0 -0.89877153043E+00  0.76438459171E+00 -0.31114124773E-01  0.11802720689E+01  0.00000000000E+00 0.  1.
         11    1    3    3    0    0 -0.73282186801E+01 -0.35490844634E+01 -0.41693376765E+01  0.91477957166E+01  0.51100000000E-03 0. -1.
        -11    1    3    3    0    0 -0.20600731158E+02  0.31540317343E+02 -0.76750138223E+01  0.38445904591E+02  0.51100000000E-03 0.  1.
         12    1    3    3    0    0  0.28827721369E+02 -0.28755617472E+02  0.11875465624E+02  0.42414027624E+02  0.00000000000E+00 0. -1.
</event>
<event>
 7    1  0.2879200E-015  0.9000772E+02  0.7816164E-02  0.1186339E+00
        -11   -1    0    0    0    0  0.00000000000E+00  0.00000000000E+00  0.45593999997E+02  0.45594000000E+02  0.51100000000E-03 0. -1.
         11   -1    0    0    0    0 -0.00000000000E+00 -0.00000000000E+00 -0.45593999997E+02  0.45594000000E+02  0.51100000000E-03 0.  1.
    9900012    2    1    2    0    0 -0.41906619875E+00 -0.10578520885E+01 -0.31369209164E+00  0.90007716031E+02  0.89999977082E+02 0.  0.
        -12    1    1    2    0    0  0.41906619875E+00  0.10578520885E+01  0.31369209164E+00  0.11802839694E+01  0.00000000000E+00 0.  1.
         11    1    3    3    0    0 -0.16748451809E+02 -0.20108271886E+00 -0.32786518927E+02  0.36817209235E+02  0.51100000000E-03 0. -1.
        -11    1    3    3    0    0 -0.76470369736E+01  0.16769302960E+01 -0.45159275352E+01  0.90378576808E+01  0.51100000000E-03 0.  1.
        -12    1    3    3    0    0  0.23976422584E+02 -0.25336996656E+01  0.36988754371E+02  0.44152649114E+02  0.00000000000E+00 0.  1.
</event>
<event>
 7    1  0.2879200E-015  0.9000778E+02  0.7816164E-02  0.1186339E+00
        -11   -1    0    0    0    0  0.00000000000E+00  0.00000000000E+00  0.45593999997E+02  0.45594000000E+02  0.51100000000E-03 0.  1.
         11   -1    0    0    0    0 -0.00000000000E+00 -0.00000000000E+00 -0.45593999997E+02  0.45594000000E+02  0.51100000000E-03 0. -1.
    9900012    2    1    2    0    0  0.10808765845E+01  0.47115741711E+00  0.51288869015E-01  0.90007782202E+02  0.90000044127E+02 0.  0.
        -12    1    1    2    0    0 -0.10808765845E+01 -0.47115741711E+00 -0.51288869015E-01  0.11802177980E+01  0.00000000000E+00 0.  1.
         11    1    3    3    0    0  0.31708563791E+02 -0.18543569781E+02 -0.10759694328E+02  0.38276206972E+02  0.51100000000E-03 0. -1.
        -11    1    3    3    0    0 -0.55161649971E+01 -0.74069722877E+01 -0.65844861085E+01  0.11342256051E+02  0.51100000000E-03 0.  1.
        -12    1    3    3    0    0 -0.25111522209E+02  0.26421699485E+02  0.17395469306E+02  0.40389319179E+02  0.00000000000E+00 0.  1.
</event>
<event>
 7    1  0.2879200E-015  0.9000777E+02  0.7816164E-02  0.1186339E+00
        -11   -1    0    0    0    0  0.00000000000E+00  0.00000000000E+00  0.45593999997E+02  0.45594000000E+02  0.51100000000E-03 0.  1.
         11   -1    0    0    0    0 -0.00000000000E+00 -0.00000000000E+00 -0.45593999997E+02  0.45594000000E+02  0.51100000000E-03 0. -1.
    9900012    2    1    2    0    0  0.42496567223E+00 -0.83090917670E+00 -0.72245990622E+00  0.90007765193E+02  0.90000026894E+02 0.  0.
        -12    1    1    2    0    0 -0.42496567223E+00  0.83090917670E+00  0.72245990622E+00  0.11802348065E+01  0.00000000000E+00 0.  1.
         11    1    3    3    0    0  0.77236422373E+01  0.39613124551E+01  0.53198407084E+01  0.10180734315E+02  0.51100000000E-03 0. -1.
        -11    1    3    3    0    0  0.22392690077E+02  0.26286282009E+02 -0.11732826100E+02  0.36469993135E+02  0.51100000000E-03 0.  1.
         12    1    3    3    0    0 -0.29691366642E+02 -0.31078503640E+02  0.56905254851E+01  0.43357037743E+02  0.00000000000E+00 0. -1.
</event>
<event>
 7    1  0.2879200E-015  0.9000774E+02  0.7816164E-02  0.1186339E+00
        -11   -1    0    0    0    0  0.00000000000E+00  0.00000000000E+00  0.45593999997E+02  0.45594000000E+02  0.51100000000E-03 0.  1.
         11   -1    0    0    0    0 -0.00000000000E+00 -0.00000000000E+00 -0.45593999997E+02  0.45594000000E+02  0.51100000000E-03 0. -1.
    9900012    2    1    2    0    0 -0.42704914581E+00  0.15295579513E+00  0.10896104743E+01  0.90007738404E+02  0.89999999751E+02 0.  0.
        -12    1    1    2    0    0  0.42704914581E+00 -0.15295579513E+00 -0.10896104743E+01  0.11802615956E+01  0.00000000000E+00 0.  1.
         11    1    3    3    0    0 -0.26759141614E+02 -0.18543899456E+02 -0.13478206957E+02  0.35236201981E+02  0.51100000000E-03 0. -1.
        -11    1    3    3    0    0 -0.33246551287E+01 -0.52169322928E+01 -0.82896038773E+01  0.10343463974E+02  0.51100000000E-03 0.  1.
        -12    1    3    3    0    0  0.29656747597E+02  0.23913787544E+02  0.22857421309E+02  0.44428072450E+02  0.00000000000E+00 0.  1.
</event>
<event>
 7    1  0.2879200E-015  0.9000782E+02  0.7816164E-02  0.1186339E+00
        -11   -1    0    0    0    0  0.00000000000E+00  0.00000000000E+00  0.45593999997E+02  0.45594000000E+02  0.51100000000E-03 0.  1.
         11   -1    0    0    0    0 -0.00000000000E+00 -0.00000000000E+00 -0.45593999997E+02  0.45594000000E+02  0.51100000000E-03 0. -1.
    9900012    2    1    2    0    0  0.54804941642E+00  0.96911526575E+00 -0.39149848646E+00  0.90007824748E+02  0.90000087234E+02 0.  0.
        -12    1    1    2    0    0 -0.54804941642E+00 -0.96911526575E+00  0.39149848646E+00  0.11801752523E+01  0.00000000000E+00 0.  1.
         11    1    3    3    0    0  0.89410287622E+00  0.35717891706E+02 -0.14077283286E+02  0.38402306087E+02  0.51100000000E-03 0. -1.
        -11    1    3    3    0    0  0.28265863827E+01 -0.12839171240E+01 -0.10008612670E+02  0.10479043926E+02  0.51100000000E-03 0.  1.
        -12    1    3    3    0    0 -0.31726398425E+01 -0.33464859316E+02  0.23694397470E+02  0.41126474734E+02  0.00000000000E+00 0.  1.
</event>
<event>
 7    1  0.2879200E-015  0.9000777E+02  0.7816164E-02  0.1186339E+00
        -11   -1    0    0    0    0  0.00000000000E+00  0.00000000000E+00  0.45593999997E+02  0.45594000000E+02  0.51100000000E-03 0. -1.
         11   -1    0    0    0    0 -0.00000000000E+00 -0.00000000000E+00 -0.45593999997E+02  0.45594000000E+02  0.51100000000E-03 0.  1.
    9900012    2    1    2    0    0 -0.81178052818E+00  0.73597246755E+00 -0.43851173709E+00  0.90007773055E+02  0.90000034859E+02 0.  0.
        -12    1    1    2    0    0  0.81178052818E+00 -0.73597246755E+00  0.43851173709E+00  0.11802269453E+01  0.00000000000E+00 0.  1.
         11    1    3    3    0    0  0.18794068763E+01  0.37373787601E+02  0.65660189860E+01  0.37992693712E+02  0.51100000000E-03 0. -1.
        -11    1    3    3    0    0  0.56322903110E+01  0.34117537179E+01 -0.88936134259E+01  0.11066124778E+02  0.51100000000E-03 0.  1.
        -12    1    3    3    0    0 -0.83234777155E+01 -0.40049568852E+02  0.18890827028E+01  0.40948954565E+02  0.00000000000E+00 0.  1.
</event>
<event>
 7    1  0.2879200E-015  0.9000758E+02  0.7816164E-02  0.1186339E+00
        -11   -1    0    0    0    0  0.00000000000E+00  0.00000000000E+00  0.45593999997E+02  0.45594000000E+02  0.51100000000E-03 0. -1.
         11   -1    0    0    0    0 -0.00000000000E+00 -0.00000000000E+00 -0.45593999997E+02  0.45594000000E+02  0.51100000000E-03 0.  1.
    9900012    2    1    2    0    0  0.18826064655E-02 -0.20779768822E+00  0.11619851960E+01  0.90007579304E+02  0.89999838551E+02 0.  0.
        -12    1    1    2    0    0 -0.18826064655E-02  0.20779768822E+00 -0.11619851960E+01  0.11804206959E+01  0.00000000000E+00 0.  1.
         11    1    3    3    0    0  0.38843790923E+01  0.18121034810E+02 -0.14421357591E+02  0.23482671452E+02  0.51100000000E-03 0. -1.
        -11    1    3    3    0    0  0.28495507229E+02 -0.34254578367E+01  0.36230029284E+01  0.28928426229E+02  0.51100000000E-03 0.  1.
        -12    1    3    3    0    0 -0.32378003715E+02 -0.14903374661E+02  0.11960339859E+02  0.37596481622E+02  0.00000000000E+00 0.  1.
</event>
<event>
 7    1  0.2879200E-015  0.9000774E+02  0.7816164E-02  0.1186339E+00
        -11   -1    0    0    0    0  0.00000000000E+00  0.00000000000E+00  0.45593999997E+02  0.45594000000E+02  0.51100000000E-03 0.  1.
         11   -1    0    0    0    0 -0.00000000000E+00 -0.00000000000E+00 -0.45593999997E+02  0.45594000000E+02  0.51100000000E-03 0. -1.
    9900012    2    1    2    0    0  0.80359980378E+00  0.77951017278E+00 -0.37362718147E+00  0.90007743238E+02  0.90000004648E+02 0.  0.
        -12    1    1    2    0    0 -0.80359980378E+00 -0.77951017278E+00  0.37362718147E+00  0.11802567622E+01  0.00000000000E+00 0.  1.
         11    1    3    3    0    0 -0.42065015550E+01 -0.73495752768E+01 -0.41541742600E+01  0.94322890183E+01  0.51100000000E-03 0. -1.
        -11    1    3    3    0    0 -0.25295230958E+02  0.19606668274E+02  0.26041144833E+02  0.41260288104E+02  0.51100000000E-03 0.  1.
         12    1    3    3    0    0  0.30305332316E+02 -0.11477582824E+02 -0.22260597754E+02  0.39315166115E+02  0.00000000000E+00 0. -1.
</event>
<event>
 7    1  0.2879200E-015  0.9000846E+02  0.7816164E-02  0.1186338E+00
        -11   -1    0    0    0    0  0.00000000000E+00  0.00000000000E+00  0.45593999997E+02  0.45594000000E+02  0.51100000000E-03 0.  1.
         11   -1    0    0    0    0 -0.00000000000E+00 -0.00000000000E+00 -0.45593999997E+02  0.45594000000E+02  0.51100000000E-03 0. -1.
    9900012    2    1    2    0    0 -0.21466939810E+00  0.11026683658E+01 -0.35965776519E+00  0.90008460181E+02  0.90000731053E+02 0.  0.
        -12    1    1    2    0    0  0.21466939810E+00 -0.11026683658E+01  0.35965776519E+00  0.11795398186E+01  0.00000000000E+00 0.  1.
         11    1    3    3    0    0  0.32693936663E+02 -0.28898064520E+02  0.55903593368E+01  0.43991405358E+02  0.51100000000E-03 0. -1.
        -11    1    3    3    0    0 -0.98241331200E+01  0.34051502865E+01 -0.83817842523E+00  0.10431259913E+02  0.51100000000E-03 0.  1.
        -12    1    3    3    0    0 -0.23084472941E+02  0.26595582600E+02 -0.51118386768E+01  0.35585794911E+02  0.00000000000E+00 0.  1.
</event>
<event>
 7    1  0.2879200E-015  0.9000777E+02  0.7816164E-02  0.1186339E+00
        -11   -1    0    0    0    0  0.00000000000E+00  0.00000000000E+00  0.45593999997E+02  0.45594000000E+02  0.51100000000E-03 0. -1.
         11   -1    0    0    0    0 -0.00000000000E+00 -0.00000000000E+00 -0.45593999997E+02  0.45594000000E+02  0.51100000000E-03 0.  1.
    9900012    2    1    2    0    0  0.11394585319E+01 -0.25973735511E+00 -0.16468938443E+00  0.90007766196E+02  0.90000027909E+02 0.  0.
        -12    1    1    2    0    0 -0.11394585319E+01  0.25973735511E+00  0.16468938443E+00  0.11802338043E+01  0.00000000000E+00 0.  1.
         11    1    3    3    0    0 -0.22165865985E+02  0.26297740214E+02  0.12013801308E+02  0.36431142960E+02  0.51100000000E-03 0. -1.
        -11    1    3    3    0    0  0.27291810242E+01  0.57508177960E+01  0.80472438251E+01  0.10260529608E+02  0.51100000000E-03 0.  1.
        -12    1    3    3    0    0  0.20576143493E+02 -0.32308295365E+02 -0.20225734518E+02  0.43316093628E+02  0.00000000000E+00 0.  1.
</event>
<event>
 7    1  0.2879200E-015  0.9000767E+02  0.7816164E-02  0.1186339E+00
        -11   -1    0    0    0    0  0.00000000000E+00  0.00000000000E+00  0.45593999997E+02  0.45594000000E+02  0.51100000000E-03 0. -1.
         11   -1    0    0    0    0 -0.00000000000E+00 -0.00000000000E+00 -0.45593999997E+02  0.45594000000E+02  0.51100000000E-03 0.  1.
    9900012    2    1    2    0    0 -0.75673307173E+00 -0.73093145722E+00  0.53505121720E+00  0.90007667190E+02  0.89999927597E+02 0.  0.
        -12    1    1    2    0    0  0.75673307173E+00  0.73093145722E+00 -0.53505121720E+00  0.11803328099E+01  0.00000000000E+00 0.  1.
         11    1    3    3    0    0 -0.12798223053E+01  0.62386117188E+01  0.19681274668E+01  0.66657143126E+01  0.51100000000E-03 0. -1.
        -11    1    3    3    0    0  0.37527229735E+02  0.14840665350E+02  0.24333086001E+00  0.40355885937E+02  0.51100000000E-03 0.  1.
         12    1    3    3    0    0 -0.37004140502E+02 -0.21810208526E+02 -0.16764071096E+01  0.42986066940E+02  0.00000000000E+00 0. -1.
</event>
<event>
 7    1  0.2879200E-015  0.9000766E+02  0.7816164E-02  0.1186339E+00
        -11   -1    0    0    0    0  0.00000000000E+00  0.00000000000E+00  0.45593999997E+02  0.45594000000E+02  0.51100000000E-03 0. -1.
         11   -1    0    0    0    0 -0.00000000000E+00 -0.00000000000E+00 -0.45593999997E+02  0.45594000000E+02  0.51100000000E-03 0.  1.
    9900012    2    1    2    0    0  0.64960610201E+00 -0.54034665613E+00  0.82415590529E+00  0.90007662949E+02  0.89999923300E+02 0.  0.
        -12    1    1    2    0    0 -0.64960610201E+00  0.54034665613E+00 -0.82415590529E+00  0.11803370505E+01  0.00000000000E+00 0.  1.
         11    1    3    3    0    0  0.28117532325E+02 -0.23010139258E+02 -0.17182934880E+02  0.40190986354E+02  0.51100000000E-03 0. -1.
        -11    1    3    3    0    0 -0.81409255014E+01 -0.44446965716E+01 -0.39348521193E+01  0.10075368832E+02  0.51100000000E-03 0.  1.
        -12    1    3    3    0    0 -0.19327000722E+02  0.26914489173E+02  0.21941942905E+02  0.39741307764E+02  0.00000000000E+00 0.  1.
</event>
<event>
 7    1  0.2879200E-015  0.9000842E+02  0.7816164E-02  0.1186338E+00
        -11   -1    0    0    0    0  0.00000000000E+00  0.00000000000E+00  0.45593999997E+02  0.45594000000E+02  0.51100000000E-03 0.  1.
         11   -1    0    0    0    0 -0.00000000000E+00 -0.00000000000E+00 -0.45593999997E+02  0.45594000000E+02  0.51100000000E-03 0. -1.
    9900012    2    1    2    0    0 -0.96158649574E-02  0.10202334188E+01 -0.59198802487E+00  0.90008415957E+02  0.90000686245E+02 0.  0.
        -12    1    1    2    0    0  0.96158649574E-02 -0.10202334188E+01  0.59198802487E+00  0.11795840433E+01  0.00000000000E+00 0.  1.
         11    1    3    3    0    0  0.15504862779E+02  0.31763620156E+02  0.23516382995E+02  0.42454076419E+02  0.51100000000E-03 0. -1.
        -11    1    3    3    0    0 -0.92861380853E+01 -0.46012340558E+00 -0.19055542675E+01  0.94907961423E+01  0.51100000000E-03 0.  1.
        -12    1    3    3    0    0 -0.62283405586E+01 -0.30283263331E+02 -0.22202816752E+02  0.38063543395E+02  0.00000000000E+00 0.  1.
</event>
<event>
 7    1  0.2879200E-015  0.9000774E+02  0.7816164E-02  0.1186339E+00
        -11   -1    0    0    0    0  0.00000000000E+00  0.00000000000E+00  0.45593999997E+02  0.45594000000E+02  0.51100000000E-03 0.  1.
         11   -1    0    0    0    0 -0.00000000000E+00 -0.00000000000E+00 -0.45593999997E+02  0.45594000000E+02  0.51100000000E-03 0. -1.
    9900012    2    1    2    0    0  0.16124943595E+00  0.10152200039E+01 -0.57994217966E+00  0.90007743262E+02  0.90000004673E+02 0.  0.
        -12    1    1    2    0    0 -0.16124943595E+00 -0.10152200039E+01  0.57994217966E+00  0.11802567385E+01  0.00000000000E+00 0.  1.
         11    1    3    3    0    0 -0.33488075086E+01  0.14177030719E+01  0.10860400164E+02  0.11453064468E+02  0.51100000000E-03 0. -1.
        -11    1    3    3    0    0  0.17690579531E+02 -0.26497071333E+02 -0.29812197239E+02  0.43632768624E+02  0.51100000000E-03 0.  1.
         12    1    3    3    0    0 -0.14180522587E+02  0.26094588265E+02  0.18371854895E+02  0.34921910169E+02  0.00000000000E+00 0. -1.
</event>
<event>
 7    1  0.2879200E-015  0.9000752E+02  0.7816164E-02  0.1186339E+00
        -11   -1    0    0    0    0  0.00000000000E+00  0.00000000000E+00  0.45593999997E+02  0.45594000000E+02  0.51100000000E-03 0.  1.
         11   -1    0    0    0    0 -0.00000000000E+00 -0.00000000000E+00 -0.45593999997E+02  0.45594000000E+02  0.51100000000E-03 0. -1.
    9900012    2    1    2    0    0  0.10396468157E-01 -0.72500906081E+00  0.93155587253E+00  0.90007515960E+02  0.89999774370E+02 0.  0.
        -12    1    1    2    0    0 -0.10396468157E-01  0.72500906081E+00 -0.93155587253E+00  0.11804840399E+01  0.00000000000E+00 0.  1.
         11    1    3    3    0    0  0.43744510527E+01 -0.19255907199E+01 -0.40340381714E+01  0.62543733390E+01  0.51100000000E-03 0. -1.
        -11    1    3    3    0    0  0.33067437968E+02  0.20106172607E+02  0.13445462479E+02  0.40969428751E+02  0.51100000000E-03 0.  1.
         12    1    3    3    0    0 -0.37431492553E+02 -0.18905590948E+02 -0.84798684346E+01  0.42783713870E+02  0.00000000000E+00 0. -1.
</event>
<event>
 7    1  0.2955235E-015  0.9000781E+02  0.7816164E-02  0.1186339E+00
        -11   -1    0    0    0    0  0.00000000000E+00  0.00000000000E+00  0.45593999997E+02  0.45594000000E+02  0.51100000000E-03 0. -1.
         11   -1    0    0    0    0 -0.00000000000E+00 -0.00000000000E+00 -0.45593999997E+02  0.45594000000E+02  0.51100000000E-03 0.  1.
    9900012    2    1    2    0    0 -0.24485647675E+00  0.65595705555E+00  0.95005547662E+00  0.90007813675E+02  0.90000076016E+02 0.  0.
        -12    1    1    2    0    0  0.24485647675E+00 -0.65595705555E+00 -0.95005547662E+00  0.11801863249E+01  0.00000000000E+00 0.  1.
         11    1    3    3    0    0 -0.26596331811E+02  0.27315865253E+02  0.12895905715E+02  0.40247058834E+02  0.51100000000E-03 0. -1.
        -11    1    3    3    0    0 -0.53616945422E+01 -0.73029087732E+01  0.32419515080E+01  0.96223954790E+01  0.51100000000E-03 0.  1.
        -12    1    3    3    0    0  0.31713169877E+02 -0.19356999425E+02 -0.15187801746E+02  0.40138359362E+02  0.00000000000E+00 0.  1.
</event>
<event>
 7    1  0.2879200E-015  0.9000795E+02  0.7816164E-02  0.1186339E+00
        -11   -1    0    0    0    0  0.00000000000E+00  0.00000000000E+00  0.45593999997E+02  0.45594000000E+02  0.51100000000E-03 0. -1.
         11   -1    0    0    0    0 -0.00000000000E+00 -0.00000000000E+00 -0.45593999997E+02  0.45594000000E+02  0.51100000000E-03 0.  1.
    9900012    2    1    2    0    0  0.18785071103E+00 -0.11264428989E+01 -0.29724948679E+00  0.90007949683E+02  0.90000213818E+02 0.  0.
        -12    1    1    2    0    0 -0.18785071103E+00  0.11264428989E+01  0.29724948679E+00  0.11800503174E+01  0.00000000000E+00 0.  1.
         11    1    3    3    0    0 -0.61580902917E+01  0.51075077293E+01 -0.24808359516E+01  0.83763511463E+01  0.51100000000E-03 0. -1.
        -11    1    3    3    0    0  0.52279709147E+01  0.32305045301E+02 -0.18794916077E+02  0.37738528090E+02  0.51100000000E-03 0.  1.
         12    1    3    3    0    0  0.11179700881E+01 -0.38538995929E+02  0.20978502541E+02  0.43893070447E+02  0.00000000000E+00 0. -1.
</event>
<event>
 7    1  0.2879200E-015  0.9000771E+02  0.7816164E-02  0.1186339E+00
        -11   -1    0    0    0    0  0.00000000000E+00  0.00000000000E+00  0.45593999997E+02  0.45594000000E+02  0.51100000000E-03 0.  1.
         11   -1    0    0    0    0 -0.00000000000E+00 -0.00000000000E+00 -0.45593999997E+02  0.45594000000E+02  0.51100000000E-03 0. -1.
    9900012    2    1    2    0    0  0.10226176694E+01  0.56920713848E+00 -0.15279893588E+00  0.90007707164E+02  0.89999968098E+02 0.  0.
        -12    1    1    2    0    0 -0.10226176694E+01 -0.56920713848E+00  0.15279893588E+00  0.11802928362E+01  0.00000000000E+00 0.  1.
         11    1    3    3    0    0  0.35235977944E+00 -0.35850033711E+02  0.21849026372E+01  0.35918280503E+02  0.51100000000E-03 0. -1.
        -11    1    3    3    0    0  0.73629308286E+01 -0.50901887159E+01  0.65789979804E+01  0.11108824701E+02  0.51100000000E-03 0.  1.
        -12    1    3    3    0    0 -0.66926729386E+01  0.41509429565E+02 -0.89166995535E+01  0.42980601960E+02  0.00000000000E+00 0.  1.
</event>
<event>
 7    1  0.3457441E-015  0.9000777E+02  0.7816164E-02  0.1186339E+00
        -11   -1    0    0    0    0  0.00000000000E+00  0.00000000000E+00  0.45593999997E+02  0.45594000000E+02  0.51100000000E-03 0. -1.
         11   -1    0    0    0    0 -0.00000000000E+00 -0.00000000000E+00 -0.45593999997E+02  0.45594000000E+02  0.51100000000E-03 0.  1.
    9900012    2    1    2    0    0 -0.11342621732E+01  0.28564030583E+00 -0.15751782197E+00  0.90007765732E+02  0.90000027440E+02 0.  0.
        -12    1    1    2    0    0  0.11342621732E+01 -0.28564030583E+00  0.15751782197E+00  0.11802342675E+01  0.00000000000E+00 0.  1.
         11    1    3    3    0    0  0.34269721199E+02  0.13414495739E+02 -0.18507474463E+01  0.36848171642E+02  0.51100000000E-03 0. -1.
        -11    1    3    3    0    0  0.10732666189E+01  0.99129692537E+01 -0.19822631656E+00  0.99728709303E+01  0.51100000000E-03 0.  1.
        -12    1    3    3    0    0 -0.36477249991E+02 -0.23041824687E+02  0.18914559409E+01  0.43186723161E+02  0.00000000000E+00 0.  1.
</event>
<event>
 7    1  0.2879200E-015  0.9000773E+02  0.7816164E-02  0.1186339E+00
        -11   -1    0    0    0    0  0.00000000000E+00  0.00000000000E+00  0.45593999997E+02  0.45594000000E+02  0.51100000000E-03 0. -1.
         11   -1    0    0    0    0 -0.00000000000E+00 -0.00000000000E+00 -0.45593999997E+02  0.45594000000E+02  0.51100000000E-03 0.  1.
    9900012    2    1    2    0    0 -0.93179132220E+00 -0.46840255857E-01  0.72291941283E+00  0.90007728186E+02  0.89999989398E+02 0.  0.
        -12    1    1    2    0    0  0.93179132220E+00  0.46840255857E-01 -0.72291941283E+00  0.11802718141E+01  0.00000000000E+00 0.  1.
         11    1    3    3    0    0 -0.38238443838E+01  0.90480176701E+01  0.32275902861E+01  0.10339523632E+02  0.51100000000E-03 0. -1.
        -11    1    3    3    0    0  0.32491791278E+01  0.28122308447E+02 -0.23626867839E+02  0.36873435988E+02  0.51100000000E-03 0.  1.
         12    1    3    3    0    0 -0.35712606614E+00 -0.37217166373E+02  0.21122196966E+02  0.42794768565E+02  0.00000000000E+00 0. -1.
</event>
<event>
 7    1  0.2879200E-015  0.9000827E+02  0.7816164E-02  0.1186338E+00
        -11   -1    0    0    0    0  0.00000000000E+00  0.00000000000E+00  0.45593999997E+02  0.45594000000E+02  0.51100000000E-03 0. -1.
         11   -1    0    0    0    0 -0.00000000000E+00 -0.00000000000E+00 -0.45593999997E+02  0.45594000000E+02  0.51100000000E-03 0.  1.
    9900012    2    1    2    0    0 -0.10109451503E+01  0.59767832431E+00  0.11193764658E+00  0.90008271424E+02  0.90000539805E+02 0.  0.
        -12    1    1    2    0    0  0.10109451503E+01 -0.59767832431E+00 -0.11193764658E+00  0.11797285760E+01  0.00000000000E+00 0.  1.
         11    1    3    3    0    0 -0.36890143123E+02  0.14388909799E+02  0.17596504995E+02  0.43330824746E+02  0.51100000000E-03 0. -1.
        -11    1    3    3    0    0  0.11866672932E+02  0.24609381661E+01  0.12075742758E+01  0.12179178093E+02  0.51100000000E-03 0.  1.
        -12    1    3    3    0    0  0.24012525041E+02 -0.16252169641E+02 -0.18692141625E+02  0.34498268585E+02  0.00000000000E+00 0.  1.
</event>
<event>
 7    1  0.2879200E-015  0.9000764E+02  0.7816164E-02  0.1186339E+00
        -11   -1    0    0    0    0  0.00000000000E+00  0.00000000000E+00  0.45593999997E+02  0.45594000000E+02  0.51100000000E-03 0.  1.
         11   -1    0    0    0    0 -0.00000000000E+00 -0.00000000000E+00 -0.45593999997E+02  0.45594000000E+02  0.51100000000E-03 0. -1.
    9900012    2    1    2    0    0  0.48631436564E+00  0.10735451596E+01  0.65125196702E-01  0.90007643205E+02  0.89999903295E+02 0.  0.
        -12    1    1    2    0    0 -0.48631436564E+00 -0.10735451596E+01 -0.65125196702E-01  0.11803567949E+01  0.00000000000E+00 0.  1.
         11    1    3    3    0    0  0.74342896611E+01  0.23978020885E+01  0.67182155573E+01  0.10303035386E+02  0.51100000000E-03 0. -1.
        -11    1    3    3    0    0  0.29729832350E+01 -0.58423459875E+01  0.35533082096E+02  0.36132693775E+02  0.51100000000E-03 0.  1.
         12    1    3    3    0    0 -0.99209585305E+01  0.45180890586E+01 -0.42186172457E+02  0.43571914044E+02  0.00000000000E+00 0. -1.
</event>
<event>
 7    1  0.2879200E-015  0.9000780E+02  0.7816164E-02  0.1186339E+00
        -11   -1    0    0    0    0  0.00000000000E+00  0.00000000000E+00  0.45593999997E+02  0.45594000000E+02  0.51100000000E-03 0.  1.
         11   -1    0    0    0    0 -0.00000000000E+00 -0.00000000000E+00 -0.45593999997E+02  0.45594000000E+02  0.51100000000E-03 0. -1.
    9900012    2    1    2    0    0 -0.85329386467E+00  0.77241769860E+00 -0.26104235636E+00  0.90007795512E+02  0.90000057613E+02 0.  0.
        -12    1    1    2    0    0  0.85329386467E+00 -0.77241769860E+00  0.26104235636E+00  0.11802044875E+01  0.00000000000E+00 0.  1.
         11    1    3    3    0    0 -0.92070482690E+01  0.31066278820E+01  0.26073214308E+01  0.10060765375E+02  0.51100000000E-03 0. -1.
        -11    1    3    3    0    0 -0.28531468719E+02 -0.12275766788E+02  0.18523023279E+02  0.36164091986E+02  0.51100000000E-03 0.  1.
         12    1    3    3    0    0  0.36885223123E+02  0.99415566047E+01 -0.21391387066E+02  0.43782938152E+02  0.00000000000E+00 0. -1.
</event>
<event>
 7    1  0.2879200E-015  0.9000776E+02  0.7816164E-02  0.1186339E+00
        -11   -1    0    0    0    0  0.00000000000E+00  0.00000000000E+00  0.45593999997E+02  0.45594000000E+02  0.51100000000E-03 0. -1.
         11   -1    0    0    0    0 -0.00000000000E+00 -0.00000000000E+00 -0.45593999997E+02  0.45594000000E+02  0.51100000000E-03 0.  1.
    9900012    2    1    2    0    0 -0.90228706509E+00  0.49407005579E+00 -0.57855839860E+00  0.90007764012E+02  0.90000025696E+02 0.  0.
        -12    1    1    2    0    0  0.90228706509E+00 -0.49407005579E+00  0.57855839860E+00  0.11802359885E+01  0.00000000000E+00 0.  1.
         11    1    3    3    0    0 -0.10620247448E+02  0.27948397621E+01  0.34910600660E+02  0.36597142291E+02  0.51100000000E-03 0. -1.
        -11    1    3    3    0    0 -0.11697850856E+01  0.14281066138E+02 -0.19730190304E+01  0.14464095254E+02  0.51100000000E-03 0.  1.
        -12    1    3    3    0    0  0.10887745469E+02 -0.16581835844E+02 -0.33516140029E+02  0.38946526466E+02  0.00000000000E+00 0.  1.
</event>
<event>
 7    1  0.2879200E-015  0.9000763E+02  0.7816164E-02  0.1186339E+00
        -11   -1    0    0    0    0  0.00000000000E+00  0.00000000000E+00  0.45593999997E+02  0.45594000000E+02  0.51100000000E-03 0.  1.
         11   -1    0    0    0    0 -0.00000000000E+00 -0.00000000000E+00 -0.45593999997E+02  0.45594000000E+02  0.51100000000E-03 0. -1.
    9900012    2    1    2    0    0  0.12669995675E+00  0.68322657027E-01 -0.11715622462E+01  0.90007627618E+02  0.89999887502E+02 0.  0.
        -12    1    1    2    0    0 -0.12669995675E+00 -0.68322657027E-01  0.11715622462E+01  0.11803723825E+01  0.00000000000E+00 0.  1.
         11    1    3    3    0    0  0.16710390437E+01  0.33259415111E+01 -0.11664934452E+02  0.12244384609E+02  0.51100000000E-03 0. -1.
        -11    1    3    3    0    0 -0.33171520255E+02  0.13100537350E+02  0.20025556101E+02  0.40902282727E+02  0.51100000000E-03 0.  1.
         12    1    3    3    0    0  0.31627181168E+02 -0.16358156204E+02 -0.95321838949E+01  0.36860960281E+02  0.00000000000E+00 0. -1.
</event>
<event>
 7    1  0.2879200E-015  0.9000765E+02  0.7816164E-02  0.1186339E+00
        -11   -1    0    0    0    0  0.00000000000E+00  0.00000000000E+00  0.45593999997E+02  0.45594000000E+02  0.51100000000E-03 0. -1.
         11   -1    0    0    0    0 -0.00000000000E+00 -0.00000000000E+00 -0.45593999997E+02  0.45594000000E+02  0.51100000000E-03 0.  1.
    9900012    2    1    2    0    0  0.10014385724E+01  0.16881408124E+00  0.60153306462E+00  0.90007652832E+02  0.89999913050E+02 0.  0.
        -12    1    1    2    0    0 -0.10014385724E+01 -0.16881408124E+00 -0.60153306462E+00  0.11803471676E+01  0.00000000000E+00 0.  1.
         11    1    3    3    0    0 -0.70217444550E+01 -0.39757244900E+01 -0.45053001242E+01  0.92416995126E+01  0.51100000000E-03 0. -1.
        -11    1    3    3    0    0 -0.11517357665E+02 -0.73778901685E+01 -0.33389818156E+02  0.36082720901E+02  0.51100000000E-03 0.  1.
         12    1    3    3    0    0  0.19540540692E+02  0.11522428740E+02  0.38496651344E+02  0.44683232418E+02  0.00000000000E+00 0. -1.
</event>
<event>
 7    1  0.2879200E-015  0.9000774E+02  0.7816164E-02  0.1186339E+00
        -11   -1    0    0    0    0  0.00000000000E+00  0.00000000000E+00  0.45593999997E+02  0.45594000000E+02  0.51100000000E-03 0.  1.
         11   -1    0    0    0    0 -0.00000000000E+00 -0.00000000000E+00 -0.45593999997E+02  0.45594000000E+02  0.51100000000E-03 0. -1.
    9900012    2    1    2    0    0  0.54290003048E+00 -0.71764389256E+00 -0.76371856904E+00  0.90007737634E+02  0.89999998971E+02 0.  0.
        -12    1    1    2    0    0 -0.54290003048E+00  0.71764389256E+00  0.76371856904E+00  0.11802623659E+01  0.00000000000E+00 0.  1.
         11    1    3    3    0    0 -0.74310002589E+01 -0.36045855500E+02 -0.17838152913E+02  0.40898938412E+02  0.51100000000E-03 0. -1.
        -11    1    3    3    0    0 -0.85509626240E+01  0.19527911746E+01  0.25478999227E+01  0.91336821406E+01  0.51100000000E-03 0.  1.
        -12    1    3    3    0    0  0.16524862913E+02  0.33375420433E+02  0.14526534422E+02  0.39975117082E+02  0.00000000000E+00 0.  1.
</event>
<event>
 7    1  0.2879200E-015  0.9000773E+02  0.7816164E-02  0.1186339E+00
        -11   -1    0    0    0    0  0.00000000000E+00  0.00000000000E+00  0.45593999997E+02  0.45594000000E+02  0.51100000000E-03 0. -1.
         11   -1    0    0    0    0 -0.00000000000E+00 -0.00000000000E+00 -0.45593999997E+02  0.45594000000E+02  0.51100000000E-03 0.  1.
    9900012    2    1    2    0    0 -0.67340451589E+00 -0.77663360935E+00  0.58000425027E+00  0.90007729550E+02  0.89999990780E+02 0.  0.
        -12    1    1    2    0    0  0.67340451589E+00  0.77663360935E+00 -0.58000425027E+00  0.11802704502E+01  0.00000000000E+00 0.  1.
         11    1    3    3    0    0  0.14474561077E+02 -0.29859344173E+02  0.12263512834E+02  0.35376363580E+02  0.51100000000E-03 0. -1.
        -11    1    3    3    0    0  0.85714384404E+01 -0.25356556142E+01  0.65703497120E+01  0.11093628889E+02  0.51100000000E-03 0.  1.
        -12    1    3    3    0    0 -0.23719404033E+02  0.31618366178E+02 -0.18253858296E+02  0.43537737081E+02  0.00000000000E+00 0.  1.
</event>
<event>
 7    1  0.2879200E-015  0.9000773E+02  0.7816164E-02  0.1186339E+00
        -11   -1    0    0    0    0  0.00000000000E+00  0.00000000000E+00  0.45593999997E+02  0.45594000000E+02  0.51100000000E-03 0.  1.
         11   -1    0    0    0    0 -0.00000000000E+00 -0.00000000000E+00 -0.45593999997E+02  0.45594000000E+02  0.51100000000E-03 0. -1.
    9900012    2    1    2    0    0  0.98077138926E+00  0.39840706983E+00 -0.52191610534E+00  0.90007730060E+02  0.89999991296E+02 0.  0.
        -12    1    1    2    0    0 -0.98077138926E+00 -0.39840706983E+00  0.52191610534E+00  0.11802699404E+01  0.00000000000E+00 0.  1.
         11    1    3    3    0    0  0.73183171266E+01 -0.63242646370E+01  0.14620172432E+01  0.97822074935E+01  0.51100000000E-03 0. -1.
        -11    1    3    3    0    0 -0.41827736957E+02 -0.64893809767E+01 -0.14034356015E+01  0.42351402292E+02  0.51100000000E-03 0.  1.
         12    1    3    3    0    0  0.35490191219E+02  0.13212052684E+02 -0.58049774703E+00  0.37874120274E+02  0.00000000000E+00 0. -1.
</event>
<event>
 7    1  0.2879200E-015  0.9000771E+02  0.7816164E-02  0.1186339E+00
        -11   -1    0    0    0    0  0.00000000000E+00  0.00000000000E+00  0.45593999997E+02  0.45594000000E+02  0.51100000000E-03 0. -1.
         11   -1    0    0    0    0 -0.00000000000E+00 -0.00000000000E+00 -0.45593999997E+02  0.45594000000E+02  0.51100000000E-03 0.  1.
    9900012    2    1    2    0    0  0.96903419591E+00 -0.12129303896E+00  0.66283819502E+00  0.90007706076E+02  0.89999966996E+02 0.  0.
        -12    1    1    2    0    0 -0.96903419591E+00  0.12129303896E+00 -0.66283819502E+00  0.11802939239E+01  0.00000000000E+00 0.  1.
         11    1    3    3    0    0 -0.78973516771E+00 -0.86209444989E+00  0.95376413984E+01  0.96090318025E+01  0.51100000000E-03 0. -1.
        -11    1    3    3    0    0  0.26923132564E+02  0.26321444743E+02 -0.20254455238E+02  0.42754139889E+02  0.51100000000E-03 0.  1.
         12    1    3    3    0    0 -0.25164363200E+02 -0.25580643332E+02  0.11379652035E+02  0.37644534384E+02  0.00000000000E+00 0. -1.
</event>
<event>
 7    1  0.2879200E-015  0.9000766E+02  0.7816164E-02  0.1186339E+00
        -11   -1    0    0    0    0  0.00000000000E+00  0.00000000000E+00  0.45593999997E+02  0.45594000000E+02  0.51100000000E-03 0.  1.
         11   -1    0    0    0    0 -0.00000000000E+00 -0.00000000000E+00 -0.45593999997E+02  0.45594000000E+02  0.51100000000E-03 0. -1.
    9900012    2    1    2    0    0  0.22089510324E+00  0.38267093485E+00 -0.10945217216E+01  0.90007657046E+02  0.89999917319E+02 0.  0.
        -12    1    1    2    0    0 -0.22089510324E+00 -0.38267093485E+00  0.10945217216E+01  0.11803429544E+01  0.00000000000E+00 0.  1.
         11    1    3    3    0    0  0.38001203332E+01 -0.21212766411E+02 -0.36225046606E+02  0.42150639085E+02  0.51100000000E-03 0. -1.
        -11    1    3    3    0    0  0.25652297736E+01  0.13789484197E+01 -0.30516082435E+01  0.42183190573E+01  0.51100000000E-03 0.  1.
        -12    1    3    3    0    0 -0.61444550035E+01  0.20216488926E+02  0.38182133128E+02  0.43638698904E+02  0.00000000000E+00 0.  1.
</event>
<event>
 7    1  0.2879200E-015  0.9000775E+02  0.7816164E-02  0.1186339E+00
        -11   -1    0    0    0    0  0.00000000000E+00  0.00000000000E+00  0.45593999997E+02  0.45594000000E+02  0.51100000000E-03 0.  1.
         11   -1    0    0    0    0 -0.00000000000E+00 -0.00000000000E+00 -0.45593999997E+02  0.45594000000E+02  0.51100000000E-03 0. -1.
    9900012    2    1    2    0    0 -0.72787289751E+00  0.10463242653E+00 -0.92317197020E+00  0.90007748592E+02  0.90000010073E+02 0.  0.
        -12    1    1    2    0    0  0.72787289751E+00 -0.10463242653E+00  0.92317197020E+00  0.11802514080E+01  0.00000000000E+00 0.  1.
         11    1    3    3    0    0 -0.30578142167E+02 -0.16027477103E+02 -0.59407702335E+01  0.35031350986E+02  0.51100000000E-03 0. -1.
        -11    1    3    3    0    0 -0.10897568450E+02  0.34961276260E+01 -0.23483108043E+01  0.11683084798E+02  0.51100000000E-03 0.  1.
        -12    1    3    3    0    0  0.40747837720E+02  0.12635981903E+02  0.73659090676E+01  0.43293312808E+02  0.00000000000E+00 0.  1.
</event>
<event>
 7    1  0.2879200E-015  0.9000771E+02  0.7816164E-02  0.1186339E+00
        -11   -1    0    0    0    0  0.00000000000E+00  0.00000000000E+00  0.45593999997E+02  0.45594000000E+02  0.51100000000E-03 0.  1.
         11   -1    0    0    0    0 -0.00000000000E+00 -0.00000000000E+00 -0.45593999997E+02  0.45594000000E+02  0.51100000000E-03 0. -1.
    9900012    2    1    2    0    0 -0.17015103638E+00 -0.84832781332E+00 -0.80278793548E+00  0.90007711932E+02  0.89999972930E+02 0.  0.
        -12    1    1    2    0    0  0.17015103638E+00  0.84832781332E+00  0.80278793548E+00  0.11802880680E+01  0.00000000000E+00 0.  1.
         11    1    3    3    0    0 -0.11670124811E+02 -0.24784147802E+01 -0.44470929569E-01  0.11930479070E+02  0.51100000000E-03 0. -1.
        -11    1    3    3    0    0 -0.38386394970E+01 -0.35175526626E+02 -0.10729858803E+02  0.36975433693E+02  0.51100000000E-03 0.  1.
         12    1    3    3    0    0  0.15338613272E+02  0.36805613593E+02  0.99715417970E+01  0.41101799168E+02  0.00000000000E+00 0. -1.
</event>
<event>
 7    1  0.2879200E-015  0.9000768E+02  0.7816164E-02  0.1186339E+00
        -11   -1    0    0    0    0  0.00000000000E+00  0.00000000000E+00  0.45593999997E+02  0.45594000000E+02  0.51100000000E-03 0.  1.
         11   -1    0    0    0    0 -0.00000000000E+00 -0.00000000000E+00 -0.45593999997E+02  0.45594000000E+02  0.51100000000E-03 0. -1.
    9900012    2    1    2    0    0  0.15898222604E+00 -0.63395266779E+00 -0.98284466631E+00  0.90007680140E+02  0.89999940718E+02 0.  0.
        -12    1    1    2    0    0 -0.15898222604E+00  0.63395266779E+00  0.98284466631E+00  0.11803198597E+01  0.00000000000E+00 0.  1.
         11    1    3    3    0    0 -0.43248354466E+01  0.79719308399E+00 -0.30285630875E+02  0.30603254014E+02  0.51100000000E-03 0. -1.
        -11    1    3    3    0    0  0.10004898699E+02 -0.22627262940E+02  0.26137313739E+01  0.24878155440E+02  0.51100000000E-03 0.  1.
         12    1    3    3    0    0 -0.55210810267E+01  0.21196117188E+02  0.26689054835E+02  0.34526270687E+02  0.00000000000E+00 0. -1.
</event>
<event>
 7    1  0.2879200E-015  0.9000762E+02  0.7816164E-02  0.1186339E+00
        -11   -1    0    0    0    0  0.00000000000E+00  0.00000000000E+00  0.45593999997E+02  0.45594000000E+02  0.51100000000E-03 0.  1.
         11   -1    0    0    0    0 -0.00000000000E+00 -0.00000000000E+00 -0.45593999997E+02  0.45594000000E+02  0.51100000000E-03 0. -1.
    9900012    2    1    2    0    0  0.56468171727E+00  0.95944493468E+00  0.39229749132E+00  0.90007619830E+02  0.89999879611E+02 0.  0.
        -12    1    1    2    0    0 -0.56468171727E+00 -0.95944493468E+00 -0.39229749132E+00  0.11803801702E+01  0.00000000000E+00 0.  1.
         11    1    3    3    0    0  0.13913776803E+02  0.28768100080E+02 -0.23553409591E+02  0.39698361059E+02  0.51100000000E-03 0. -1.
        -11    1    3    3    0    0  0.71231298273E+01 -0.81039798745E+00 -0.22141715467E+01  0.75032179320E+01  0.51100000000E-03 0.  1.
        -12    1    3    3    0    0 -0.20472224914E+02 -0.26998257157E+02  0.26159878629E+02  0.42806040839E+02  0.00000000000E+00 0.  1.
</event>
<event>
 7    1  0.2879200E-015  0.9000791E+02  0.7816164E-02  0.1186339E+00
        -11   -1    0    0    0    0  0.00000000000E+00  0.00000000000E+00  0.45593999997E+02  0.45594000000E+02  0.51100000000E-03 0.  1.
         11   -1    0    0    0    0 -0.00000000000E+00 -0.00000000000E+00 -0.45593999997E+02  0.45594000000E+02  0.51100000000E-03 0. -1.
    9900012    2    1    2    0    0 -0.77930955829E+00  0.85842819551E+00 -0.21998541607E+00  0.90007908504E+02  0.90000172097E+02 0.  0.
        -12    1    1    2    0    0  0.77930955829E+00 -0.85842819551E+00  0.21998541607E+00  0.11800914955E+01  0.00000000000E+00 0.  1.
         11    1    3    3    0    0 -0.27247158358E+02 -0.18516654463E+02 -0.16930328166E+02  0.37039305381E+02  0.51100000000E-03 0. -1.
        -11    1    3    3    0    0 -0.18971370130E+00 -0.46006601669E+01 -0.81352112781E+01  0.93479264043E+01  0.51100000000E-03 0.  1.
        -12    1    3    3    0    0  0.26657562501E+02  0.23975742825E+02  0.24845554028E+02  0.43620676719E+02  0.00000000000E+00 0.  1.
</event>
<event>
 7    1  0.2879200E-015  0.9000776E+02  0.7816164E-02  0.1186339E+00
        -11   -1    0    0    0    0  0.00000000000E+00  0.00000000000E+00  0.45593999997E+02  0.45594000000E+02  0.51100000000E-03 0.  1.
         11   -1    0    0    0    0 -0.00000000000E+00 -0.00000000000E+00 -0.45593999997E+02  0.45594000000E+02  0.51100000000E-03 0. -1.
    9900012    2    1    2    0    0 -0.18796481827E+00 -0.67582984348E+00 -0.94915356700E+00  0.90007758820E+02  0.90000020436E+02 0.  0.
        -12    1    1    2    0    0  0.18796481827E+00  0.67582984348E+00  0.94915356700E+00  0.11802411804E+01  0.00000000000E+00 0.  1.
         11    1    3    3    0    0 -0.93238747558E+01 -0.11519229740E+02  0.92339796653E+00  0.14848567552E+02  0.51100000000E-03 0. -1.
        -11    1    3    3    0    0 -0.14848826409E+02  0.14667739975E+02  0.29092646595E+02  0.35805199732E+02  0.51100000000E-03 0.  1.
         12    1    3    3    0    0  0.23984736347E+02 -0.38243400782E+01 -0.30965198128E+02  0.39353991536E+02  0.00000000000E+00 0. -1.
</event>
<event>
 7    1  0.2879200E-015  0.9000746E+02  0.7816164E-02  0.1186340E+00
        -11   -1    0    0    0    0  0.00000000000E+00  0.00000000000E+00  0.45593999997E+02  0.45594000000E+02  0.51100000000E-03 0.  1.
         11   -1    0    0    0    0 -0.00000000000E+00 -0.00000000000E+00 -0.45593999997E+02  0.45594000000E+02  0.51100000000E-03 0. -1.
    9900012    2    1    2    0    0 -0.92421969726E+00  0.46222713030E+00 -0.57082962099E+00  0.90007456725E+02  0.89999714353E+02 0.  0.
        -12    1    1    2    0    0  0.92421969726E+00 -0.46222713030E+00  0.57082962099E+00  0.11805432754E+01  0.00000000000E+00 0.  1.
         11    1    3    3    0    0 -0.16235783278E+02  0.28545418371E+01 -0.33638438482E+02  0.37460560748E+02  0.51100000000E-03 0. -1.
        -11    1    3    3    0    0 -0.12247824009E+02  0.21786006481E+01  0.66862312798E+01  0.14123072708E+02  0.51100000000E-03 0.  1.
        -12    1    3    3    0    0  0.27559387590E+02 -0.45709153550E+01  0.26381377581E+02  0.38423823269E+02  0.00000000000E+00 0.  1.
</event>
<event>
 7    1  0.2879200E-015  0.9000779E+02  0.7816164E-02  0.1186339E+00
        -11   -1    0    0    0    0  0.00000000000E+00  0.00000000000E+00  0.45593999997E+02  0.45594000000E+02  0.51100000000E-03 0.  1.
         11   -1    0    0    0    0 -0.00000000000E+00 -0.00000000000E+00 -0.45593999997E+02  0.45594000000E+02  0.51100000000E-03 0. -1.
    9900012    2    1    2    0    0  0.60137543867E+00 -0.99851933010E+00 -0.18494558279E+00  0.90007788943E+02  0.90000050957E+02 0.  0.
        -12    1    1    2    0    0 -0.60137543867E+00  0.99851933010E+00  0.18494558279E+00  0.11802110571E+01  0.00000000000E+00 0.  1.
         11    1    3    3    0    0 -0.90853704468E+00  0.87500334897E+01  0.31951972776E+01  0.93593702532E+01  0.51100000000E-03 0. -1.
        -11    1    3    3    0    0 -0.31493715125E+02  0.18908666545E+02  0.77612477974E+00  0.36742266299E+02  0.51100000000E-03 0.  1.
         12    1    3    3    0    0  0.33003627608E+02 -0.28657219365E+02 -0.41562676401E+01  0.43906152390E+02  0.00000000000E+00 0. -1.
</event>
<event>
 7    1  0.2879200E-015  0.9000758E+02  0.7816164E-02  0.1186339E+00
        -11   -1    0    0    0    0  0.00000000000E+00  0.00000000000E+00  0.45593999997E+02  0.45594000000E+02  0.51100000000E-03 0.  1.
         11   -1    0    0    0    0 -0.00000000000E+00 -0.00000000000E+00 -0.45593999997E+02  0.45594000000E+02  0.51100000000E-03 0. -1.
    9900012    2    1    2    0    0  0.60979048293E+00  0.20327117675E+00 -0.99006097805E+00  0.90007582979E+02  0.89999842274E+02 0.  0.
        -12    1    1    2    0    0 -0.60979048293E+00 -0.20327117675E+00  0.99006097805E+00  0.11804170215E+01  0.00000000000E+00 0.  1.
         11    1    3    3    0    0 -0.62486220018E+01 -0.19923561044E+01 -0.41560535821E+01  0.77645052261E+01  0.51100000000E-03 0. -1.
        -11    1    3    3    0    0 -0.97504565083E+01 -0.36463616935E+02  0.11274974012E+02  0.39392788697E+02  0.51100000000E-03 0.  1.
         12    1    3    3    0    0  0.16608868993E+02  0.38659244217E+02 -0.81089814075E+01  0.42850289055E+02  0.00000000000E+00 0. -1.
</event>
<event>
 7    1  0.2879200E-015  0.9000778E+02  0.7816164E-02  0.1186339E+00
        -11   -1    0    0    0    0  0.00000000000E+00  0.00000000000E+00  0.45593999997E+02  0.45594000000E+02  0.51100000000E-03 0. -1.
         11   -1    0    0    0    0 -0.00000000000E+00 -0.00000000000E+00 -0.45593999997E+02  0.45594000000E+02  0.51100000000E-03 0.  1.
    9900012    2    1    2    0    0 -0.94845435635E+00  0.62027875502E+00 -0.32954342490E+00  0.90007783804E+02  0.90000045750E+02 0.  0.
        -12    1    1    2    0    0  0.94845435635E+00 -0.62027875502E+00  0.32954342490E+00  0.11802161958E+01  0.00000000000E+00 0.  1.
         11    1    3    3    0    0 -0.34284984775E+02 -0.63161380262E+01  0.21873473340E+02  0.41155833327E+02  0.51100000000E-03 0. -1.
        -11    1    3    3    0    0  0.25197003926E+01  0.90930954003E+01  0.19540862244E+01  0.96359601110E+01  0.51100000000E-03 0.  1.
        -12    1    3    3    0    0  0.30816830026E+02 -0.21566786191E+01 -0.24157102990E+02  0.39215990366E+02  0.00000000000E+00 0.  1.
</event>
<event>
 7    1  0.2879200E-015  0.9000776E+02  0.7816164E-02  0.1186339E+00
        -11   -1    0    0    0    0  0.00000000000E+00  0.00000000000E+00  0.45593999997E+02  0.45594000000E+02  0.51100000000E-03 0.  1.
         11   -1    0    0    0    0 -0.00000000000E+00 -0.00000000000E+00 -0.45593999997E+02  0.45594000000E+02  0.51100000000E-03 0. -1.
    9900012    2    1    2    0    0  0.31639062847E+00 -0.88466891371E+00 -0.71430456092E+00  0.90007757176E+02  0.90000018771E+02 0.  0.
        -12    1    1    2    0    0 -0.31639062847E+00  0.88466891371E+00  0.71430456092E+00  0.11802428235E+01  0.00000000000E+00 0.  1.
         11    1    3    3    0    0  0.69013158504E+01 -0.27258749681E+01 -0.78335645361E+01  0.10789962392E+02  0.51100000000E-03 0. -1.
        -11    1    3    3    0    0  0.23192479508E+02  0.26486016150E+02 -0.10501165884E+02  0.36737918319E+02  0.51100000000E-03 0.  1.
         12    1    3    3    0    0 -0.29777404730E+02 -0.24644810096E+02  0.17620425859E+02  0.42479876466E+02  0.00000000000E+00 0. -1.
</event>
<event>
 7    1  0.2879200E-015  0.9000773E+02  0.7816164E-02  0.1186339E+00
        -11   -1    0    0    0    0  0.00000000000E+00  0.00000000000E+00  0.45593999997E+02  0.45594000000E+02  0.51100000000E-03 0.  1.
         11   -1    0    0    0    0 -0.00000000000E+00 -0.00000000000E+00 -0.45593999997E+02  0.45594000000E+02  0.51100000000E-03 0. -1.
    9900012    2    1    2    0    0 -0.14456670610E+00 -0.10485966476E+01 -0.52209194624E+00  0.90007731191E+02  0.89999992442E+02 0.  0.
        -12    1    1    2    0    0  0.14456670610E+00  0.10485966476E+01  0.52209194624E+00  0.11802688093E+01  0.00000000000E+00 0.  1.
         11    1    3    3    0    0  0.34937235928E+02 -0.22052193271E+02 -0.82588190450E+01  0.42132146570E+02  0.51100000000E-03 0. -1.
        -11    1    3    3    0    0 -0.43513359529E+01 -0.12024506715E+00  0.95977089696E+01  0.10538719143E+02  0.51100000000E-03 0.  1.
        -12    1    3    3    0    0 -0.30730466681E+02  0.21123841690E+02 -0.18609818709E+01  0.37336865478E+02  0.00000000000E+00 0.  1.
</event>
<event>
 7    1  0.2879200E-015  0.9000770E+02  0.7816164E-02  0.1186339E+00
        -11   -1    0    0    0    0  0.00000000000E+00  0.00000000000E+00  0.45593999997E+02  0.45594000000E+02  0.51100000000E-03 0. -1.
         11   -1    0    0    0    0 -0.00000000000E+00 -0.00000000000E+00 -0.45593999997E+02  0.45594000000E+02  0.51100000000E-03 0.  1.
    9900012    2    1    2    0    0 -0.80951683943E-01  0.93475160446E+00 -0.71609304739E+00  0.90007702161E+02  0.89999963029E+02 0.  0.
        -12    1    1    2    0    0  0.80951683943E-01 -0.93475160446E+00  0.71609304739E+00  0.11802978394E+01  0.00000000000E+00 0.  1.
         11    1    3    3    0    0  0.32453389629E+01  0.30173051452E+02  0.23281153919E+02  0.38248625948E+02  0.51100000000E-03 0. -1.
        -11    1    3    3    0    0  0.86869964603E+01  0.23788612725E+01  0.18451838563E+01  0.91938888496E+01  0.51100000000E-03 0.  1.
        -12    1    3    3    0    0 -0.12013287107E+02 -0.31617161120E+02 -0.25842430822E+02  0.42565187363E+02  0.00000000000E+00 0.  1.
</event>
<event>
 7    1  0.2879200E-015  0.9000712E+02  0.7816164E-02  0.1186340E+00
        -11   -1    0    0    0    0  0.00000000000E+00  0.00000000000E+00  0.45593999997E+02  0.45594000000E+02  0.51100000000E-03 0. -1.
         11   -1    0    0    0    0 -0.00000000000E+00 -0.00000000000E+00 -0.45593999997E+02  0.45594000000E+02  0.51100000000E-03 0.  1.
    9900012    2    1    2    0    0  0.96384999094E+00  0.65133688715E+00 -0.20306777599E+00  0.90007117674E+02  0.89999370825E+02 0.  0.
        -12    1    1    2    0    0 -0.96384999094E+00 -0.65133688715E+00  0.20306777599E+00  0.11808823257E+01  0.00000000000E+00 0.  1.
         11    1    3    3    0    0  0.16599233581E+01  0.89078470591E+01  0.71658404487E+01  0.11552244560E+02  0.51100000000E-03 0. -1.
        -11    1    3    3    0    0 -0.84770753124E+01  0.32470393702E+02  0.75347665765E+01  0.34394185273E+02  0.51100000000E-03 0.  1.
         12    1    3    3    0    0  0.77810019453E+01 -0.40726903874E+02 -0.14903674801E+02  0.44060687841E+02  0.00000000000E+00 0. -1.
</event>
<event>
 7    1  0.2879200E-015  0.9000777E+02  0.7816164E-02  0.1186339E+00
        -11   -1    0    0    0    0  0.00000000000E+00  0.00000000000E+00  0.45593999997E+02  0.45594000000E+02  0.51100000000E-03 0.  1.
         11   -1    0    0    0    0 -0.00000000000E+00 -0.00000000000E+00 -0.45593999997E+02  0.45594000000E+02  0.51100000000E-03 0. -1.
    9900012    2    1    2    0    0  0.15878283571E+00  0.16003152973E-02 -0.11694976072E+01  0.90007771546E+02  0.90000033331E+02 0.  0.
        -12    1    1    2    0    0 -0.15878283571E+00 -0.16003152973E-02  0.11694976072E+01  0.11802284538E+01  0.00000000000E+00 0.  1.
         11    1    3    3    0    0 -0.28367263787E+00 -0.48912369048E+01  0.72788655734E+01  0.87741981355E+01  0.51100000000E-03 0. -1.
        -11    1    3    3    0    0 -0.29711731704E+02 -0.15844908062E+02  0.15939970920E+02  0.37254943101E+02  0.51100000000E-03 0.  1.
         12    1    3    3    0    0  0.30154187177E+02  0.20737745282E+02 -0.24388334100E+02  0.43978630309E+02  0.00000000000E+00 0. -1.
</event>
<event>
 7    1  0.2879200E-015  0.9000776E+02  0.7816164E-02  0.1186339E+00
        -11   -1    0    0    0    0  0.00000000000E+00  0.00000000000E+00  0.45593999997E+02  0.45594000000E+02  0.51100000000E-03 0. -1.
         11   -1    0    0    0    0 -0.00000000000E+00 -0.00000000000E+00 -0.45593999997E+02  0.45594000000E+02  0.51100000000E-03 0.  1.
    9900012    2    1    2    0    0 -0.82191870303E+00  0.70614689797E+00  0.46774173258E+00  0.90007755905E+02  0.90000017483E+02 0.  0.
        -12    1    1    2    0    0  0.82191870303E+00 -0.70614689797E+00 -0.46774173258E+00  0.11802440952E+01  0.00000000000E+00 0.  1.
         11    1    3    3    0    0  0.27036386064E+02  0.19070014605E+02  0.14700813119E+02  0.36204219851E+02  0.51100000000E-03 0. -1.
        -11    1    3    3    0    0  0.53768897073E+01 -0.15077051335E+01  0.84861645795E+01  0.10158696138E+02  0.51100000000E-03 0.  1.
        -12    1    3    3    0    0 -0.33235194474E+02 -0.16856162573E+02 -0.22719235966E+02  0.43644839916E+02  0.00000000000E+00 0.  1.
</event>
<event>
 7    1  0.2879200E-015  0.9000792E+02  0.7816164E-02  0.1186339E+00
        -11   -1    0    0    0    0  0.00000000000E+00  0.00000000000E+00  0.45593999997E+02  0.45594000000E+02  0.51100000000E-03 0. -1.
         11   -1    0    0    0    0 -0.00000000000E+00 -0.00000000000E+00 -0.45593999997E+02  0.45594000000E+02  0.51100000000E-03 0.  1.
    9900012    2    1    2    0    0 -0.92115678071E+00 -0.63783781547E-01  0.73484336404E+00  0.90007918242E+02  0.90000181963E+02 0.  0.
        -12    1    1    2    0    0  0.92115678071E+00  0.63783781547E-01 -0.73484336404E+00  0.11800817578E+01  0.00000000000E+00 0.  1.
         11    1    3    3    0    0  0.80328733214E+01 -0.53139836288E+01 -0.61528675588E+00  0.96511167156E+01  0.51100000000E-03 0. -1.
        -11    1    3    3    0    0  0.14622722634E+02 -0.16538563875E+02 -0.28818829465E+02  0.36302521183E+02  0.51100000000E-03 0.  1.
         12    1    3    3    0    0 -0.23576752736E+02  0.21788763723E+02  0.30168959585E+02  0.44054280343E+02  0.00000000000E+00 0. -1.
</event>
<event>
 7    1  0.2879200E-015  0.9000781E+02  0.7816164E-02  0.1186339E+00
        -11   -1    0    0    0    0  0.00000000000E+00  0.00000000000E+00  0.45593999997E+02  0.45594000000E+02  0.51100000000E-03 0.  1.
         11   -1    0    0    0    0 -0.00000000000E+00 -0.00000000000E+00 -0.45593999997E+02  0.45594000000E+02  0.51100000000E-03 0. -1.
    9900012    2    1    2    0    0 -0.75715569654E+00 -0.90119682019E+00 -0.86104380116E-01  0.90007807464E+02  0.90000069723E+02 0.  0.
        -12    1    1    2    0    0  0.75715569654E+00  0.90119682019E+00  0.86104380116E-01  0.11801925359E+01  0.00000000000E+00 0.  1.
         11    1    3    3    0    0 -0.91267426203E+01 -0.14218705580E+02 -0.34462902664E+02  0.38381775356E+02  0.51100000000E-03 0. -1.
        -11    1    3    3    0    0  0.89360252742E+01 -0.24016663099E+01 -0.40529550698E+01  0.10101831211E+02  0.51100000000E-03 0.  1.
        -12    1    3    3    0    0 -0.56643835049E+00  0.15719175069E+02  0.38429753354E+02  0.41524200896E+02  0.00000000000E+00 0.  1.
</event>
<event>
 7    1  0.2879200E-015  0.9000770E+02  0.7816164E-02  0.1186339E+00
        -11   -1    0    0    0    0  0.00000000000E+00  0.00000000000E+00  0.45593999997E+02  0.45594000000E+02  0.51100000000E-03 0. -1.
         11   -1    0    0    0    0 -0.00000000000E+00 -0.00000000000E+00 -0.45593999997E+02  0.45594000000E+02  0.51100000000E-03 0.  1.
    9900012    2    1    2    0    0  0.97309250624E+00 -0.47724618711E+00 -0.46736681524E+00  0.90007701441E+02  0.89999962300E+02 0.  0.
        -12    1    1    2    0    0 -0.97309250624E+00  0.47724618711E+00  0.46736681524E+00  0.11802985592E+01  0.00000000000E+00 0.  1.
         11    1    3    3    0    0 -0.23696436446E+01  0.36319506165E+02 -0.33264010886E+01  0.36548415609E+02  0.51100000000E-03 0. -1.
        -11    1    3    3    0    0  0.17952501407E+01  0.73582823690E+01  0.52448053508E+01  0.92127751475E+01  0.51100000000E-03 0.  1.
        -12    1    3    3    0    0  0.15474860101E+01 -0.44155034721E+02 -0.23857710775E+01  0.44246510685E+02  0.00000000000E+00 0.  1.
</event>
<event>
 7    1  0.2879200E-015  0.9000775E+02  0.7816164E-02  0.1186339E+00
        -11   -1    0    0    0    0  0.00000000000E+00  0.00000000000E+00  0.45593999997E+02  0.45594000000E+02  0.51100000000E-03 0.  1.
         11   -1    0    0    0    0 -0.00000000000E+00 -0.00000000000E+00 -0.45593999997E+02  0.45594000000E+02  0.51100000000E-03 0. -1.
    9900012    2    1    2    0    0  0.11095967224E+01  0.35652537308E+00  0.18621932682E+00  0.90007748812E+02  0.90000010297E+02 0.  0.
        -12    1    1    2    0    0 -0.11095967224E+01 -0.35652537308E+00 -0.18621932682E+00  0.11802511875E+01  0.00000000000E+00 0.  1.
         11    1    3    3    0    0 -0.88404760460E+01  0.11862003878E+01 -0.19733425443E+00  0.89218848428E+01  0.51100000000E-03 0. -1.
        -11    1    3    3    0    0  0.40546939169E+01 -0.18451030972E+02  0.36145588592E+02  0.40784613050E+02  0.51100000000E-03 0.  1.
         12    1    3    3    0    0  0.58953788515E+01  0.17621355957E+02 -0.35762035011E+02  0.40301250920E+02  0.00000000000E+00 0. -1.
</event>
<event>
 7    1  0.2879200E-015  0.9000773E+02  0.7816164E-02  0.1186339E+00
        -11   -1    0    0    0    0  0.00000000000E+00  0.00000000000E+00  0.45593999997E+02  0.45594000000E+02  0.51100000000E-03 0.  1.
         11   -1    0    0    0    0 -0.00000000000E+00 -0.00000000000E+00 -0.45593999997E+02  0.45594000000E+02  0.51100000000E-03 0. -1.
    9900012    2    1    2    0    0 -0.39836630393E+00 -0.81552407602E-01 -0.11080171729E+01  0.90007725217E+02  0.89999986390E+02 0.  0.
        -12    1    1    2    0    0  0.39836630393E+00  0.81552407602E-01  0.11080171729E+01  0.11802747827E+01  0.00000000000E+00 0.  1.
         11    1    3    3    0    0 -0.10895314255E+00 -0.56166002768E+01  0.66822575003E+01  0.87298702750E+01  0.51100000000E-03 0. -1.
        -11    1    3    3    0    0  0.17805172220E+02  0.46886483958E+01  0.32359459300E+02  0.37230930528E+02  0.51100000000E-03 0.  1.
         12    1    3    3    0    0 -0.18094585382E+02  0.84639947341E+00 -0.40149733973E+02  0.44046924414E+02  0.00000000000E+00 0. -1.
</event>
<event>
 7    1  0.2879200E-015  0.9000771E+02  0.7816164E-02  0.1186339E+00
        -11   -1    0    0    0    0  0.00000000000E+00  0.00000000000E+00  0.45593999997E+02  0.45594000000E+02  0.51100000000E-03 0. -1.
         11   -1    0    0    0    0 -0.00000000000E+00 -0.00000000000E+00 -0.45593999997E+02  0.45594000000E+02  0.51100000000E-03 0.  1.
    9900012    2    1    2    0    0  0.99906871464E+00 -0.37047952617E+00 -0.50763757327E+00  0.90007707968E+02  0.89999968913E+02 0.  0.
        -12    1    1    2    0    0 -0.99906871464E+00  0.37047952617E+00  0.50763757327E+00  0.11802920324E+01  0.00000000000E+00 0.  1.
         11    1    3    3    0    0  0.30280658726E+00  0.10547079281E+02 -0.67829980147E+01  0.12543589419E+02  0.51100000000E-03 0. -1.
        -11    1    3    3    0    0  0.32679142599E+02  0.43683757049E+01 -0.14891979130E+02  0.36177066078E+02  0.51100000000E-03 0.  1.
         12    1    3    3    0    0 -0.31982880472E+02 -0.15285934512E+02  0.21167339571E+02  0.41287052471E+02  0.00000000000E+00 0. -1.
</event>
<event>
 7    1  0.2879200E-015  0.9000773E+02  0.7816164E-02  0.1186339E+00
        -11   -1    0    0    0    0  0.00000000000E+00  0.00000000000E+00  0.45593999997E+02  0.45594000000E+02  0.51100000000E-03 0.  1.
         11   -1    0    0    0    0 -0.00000000000E+00 -0.00000000000E+00 -0.45593999997E+02  0.45594000000E+02  0.51100000000E-03 0. -1.
    9900012    2    1    2    0    0 -0.41841582510E+00 -0.91077664718E+00 -0.62325577898E+00  0.90007731526E+02  0.89999992783E+02 0.  0.
        -12    1    1    2    0    0  0.41841582510E+00  0.91077664718E+00  0.62325577898E+00  0.11802684736E+01  0.00000000000E+00 0.  1.
         11    1    3    3    0    0  0.25815368654E+02  0.26991855332E+02 -0.70337024300E+01  0.38006137440E+02  0.51100000000E-03 0. -1.
        -11    1    3    3    0    0  0.56477058281E+01 -0.66329423645E+00  0.82591318117E+01  0.10027452264E+02  0.51100000000E-03 0.  1.
        -12    1    3    3    0    0 -0.31881490307E+02 -0.27239337743E+02 -0.18486851607E+01  0.41974141822E+02  0.00000000000E+00 0.  1.
</event>
<event>
 7    1  0.2879200E-015  0.9000779E+02  0.7816164E-02  0.1186339E+00
        -11   -1    0    0    0    0  0.00000000000E+00  0.00000000000E+00  0.45593999997E+02  0.45594000000E+02  0.51100000000E-03 0. -1.
         11   -1    0    0    0    0 -0.00000000000E+00 -0.00000000000E+00 -0.45593999997E+02  0.45594000000E+02  0.51100000000E-03 0.  1.
    9900012    2    1    2    0    0  0.10112354334E+01  0.20725313998E+00 -0.57213327140E+00  0.90007793473E+02  0.90000055547E+02 0.  0.
        -12    1    1    2    0    0 -0.10112354334E+01 -0.20725313998E+00  0.57213327140E+00  0.11802065269E+01  0.00000000000E+00 0.  1.
         11    1    3    3    0    0  0.80835925323E+01 -0.29145582118E+01  0.86339425264E+00  0.86362357364E+01  0.51100000000E-03 0. -1.
        -11    1    3    3    0    0  0.43873393883E+01  0.19828521365E+02 -0.35985183615E+02  0.41320121569E+02  0.51100000000E-03 0.  1.
         12    1    3    3    0    0 -0.11459696487E+02 -0.16706710013E+02  0.34549656091E+02  0.40051436167E+02  0.00000000000E+00 0. -1.
</event>
<event>
 7    1  0.2879200E-015  0.9000790E+02  0.7816164E-02  0.1186339E+00
        -11   -1    0    0    0    0  0.00000000000E+00  0.00000000000E+00  0.45593999997E+02  0.45594000000E+02  0.51100000000E-03 0. -1.
         11   -1    0    0    0    0 -0.00000000000E+00 -0.00000000000E+00 -0.45593999997E+02  0.45594000000E+02  0.51100000000E-03 0.  1.
    9900012    2    1    2    0    0  0.96502507657E+00  0.65471419533E+00  0.18086438464E+00  0.90007900004E+02  0.90000163483E+02 0.  0.
        -12    1    1    2    0    0 -0.96502507657E+00 -0.65471419533E+00 -0.18086438464E+00  0.11800999964E+01  0.00000000000E+00 0.  1.
         11    1    3    3    0    0 -0.77146922908E+01  0.15736428284E+01 -0.40680965870E+01  0.88624059372E+01  0.51100000000E-03 0. -1.
        -11    1    3    3    0    0  0.15160597788E+02  0.19984592081E+01 -0.36608793656E+02  0.39674189818E+02  0.51100000000E-03 0.  1.
         12    1    3    3    0    0 -0.64808804209E+01 -0.29173878411E+01  0.40857754628E+02  0.41471304248E+02  0.00000000000E+00 0. -1.
</event>
<event>
 7    1  0.2879200E-015  0.9000781E+02  0.7816164E-02  0.1186339E+00
        -11   -1    0    0    0    0  0.00000000000E+00  0.00000000000E+00  0.45593999997E+02  0.45594000000E+02  0.51100000000E-03 0.  1.
         11   -1    0    0    0    0 -0.00000000000E+00 -0.00000000000E+00 -0.45593999997E+02  0.45594000000E+02  0.51100000000E-03 0. -1.
    9900012    2    1    2    0    0  0.48271527841E+00  0.59810213743E+00 -0.89560146807E+00  0.90007812644E+02  0.90000074970E+02 0.  0.
        -12    1    1    2    0    0 -0.48271527841E+00 -0.59810213743E+00  0.89560146807E+00  0.11801873565E+01  0.00000000000E+00 0.  1.
         11    1    3    3    0    0 -0.71180767655E+01 -0.48659450552E+01  0.49274150883E+01  0.99309545278E+01  0.51100000000E-03 0. -1.
        -11    1    3    3    0    0  0.17600799532E+02 -0.33836629799E+02  0.40040197136E+01  0.38350199927E+02  0.51100000000E-03 0.  1.
         12    1    3    3    0    0 -0.10000007488E+02  0.39300676991E+02 -0.98270362699E+01  0.41726658189E+02  0.00000000000E+00 0. -1.
</event>
<event>
 7    1  0.2879200E-015  0.9000770E+02  0.7816164E-02  0.1186339E+00
        -11   -1    0    0    0    0  0.00000000000E+00  0.00000000000E+00  0.45593999997E+02  0.45594000000E+02  0.51100000000E-03 0. -1.
         11   -1    0    0    0    0 -0.00000000000E+00 -0.00000000000E+00 -0.45593999997E+02  0.45594000000E+02  0.51100000000E-03 0.  1.
    9900012    2    1    2    0    0  0.39796817811E-01 -0.90297260817E-01  0.11761663181E+01  0.90007701483E+02  0.89999962342E+02 0.  0.
        -12    1    1    2    0    0 -0.39796817811E-01  0.90297260817E-01 -0.11761663181E+01  0.11802985173E+01  0.00000000000E+00 0.  1.
         11    1    3    3    0    0  0.57648011373E+01  0.17402490246E+02  0.27295737791E+02  0.32880646294E+02  0.51100000000E-03 0. -1.
        -11    1    3    3    0    0  0.65804099476E+01  0.96317488908E+01  0.61712741497E+01  0.13196855939E+02  0.51100000000E-03 0.  1.
        -12    1    3    3    0    0 -0.12305414267E+02 -0.27124536397E+02 -0.32290845623E+02  0.43930199250E+02  0.00000000000E+00 0.  1.
</event>
<event>
 7    1  0.3988772E-015  0.9000769E+02  0.7816164E-02  0.1186339E+00
        -11   -1    0    0    0    0  0.00000000000E+00  0.00000000000E+00  0.45593999997E+02  0.45594000000E+02  0.51100000000E-03 0. -1.
         11   -1    0    0    0    0 -0.00000000000E+00 -0.00000000000E+00 -0.45593999997E+02  0.45594000000E+02  0.51100000000E-03 0.  1.
    9900012    2    1    2    0    0 -0.10199723763E+00  0.89969419052E+00  0.75714492387E+00  0.90007694316E+02  0.89999955081E+02 0.  0.
        -12    1    1    2    0    0  0.10199723763E+00 -0.89969419052E+00 -0.75714492387E+00  0.11803056844E+01  0.00000000000E+00 0.  1.
         11    1    3    3    0    0  0.14959712736E+02 -0.13123864386E+02  0.31988455962E+02  0.37673467277E+02  0.51100000000E-03 0. -1.
        -11    1    3    3    0    0  0.59970281652E+01 -0.75087011447E+01 -0.10015647741E+01  0.96616805967E+01  0.51100000000E-03 0.  1.
        -12    1    3    3    0    0 -0.21058738139E+02  0.21532259721E+02 -0.30229746264E+02  0.42672546442E+02  0.00000000000E+00 0.  1.
</event>
<event>
 7    1  0.2879200E-015  0.9000774E+02  0.7816164E-02  0.1186339E+00
        -11   -1    0    0    0    0  0.00000000000E+00  0.00000000000E+00  0.45593999997E+02  0.45594000000E+02  0.51100000000E-03 0. -1.
         11   -1    0    0    0    0 -0.00000000000E+00 -0.00000000000E+00 -0.45593999997E+02  0.45594000000E+02  0.51100000000E-03 0.  1.
    9900012    2    1    2    0    0  0.11489911590E+01  0.24813287463E+00  0.10615719021E+00  0.90007737336E+02  0.89999998669E+02 0.  0.
        -12    1    1    2    0    0 -0.11489911590E+01 -0.24813287463E+00 -0.10615719021E+00  0.11802626640E+01  0.00000000000E+00 0.  1.
         11    1    3    3    0    0 -0.55801673394E+01 -0.27020458864E+01 -0.77968226757E+01  0.99614137352E+01  0.51100000000E-03 0. -1.
        -11    1    3    3    0    0  0.32501980088E+00 -0.21718246419E+02 -0.28360543596E+02  0.35722658058E+02  0.51100000000E-03 0.  1.
         12    1    3    3    0    0  0.64041386975E+01  0.24668425180E+02  0.36263523462E+02  0.44323665543E+02  0.00000000000E+00 0. -1.
</event>
<event>
 7    1  0.2879200E-015  0.9000769E+02  0.7816164E-02  0.1186339E+00
        -11   -1    0    0    0    0  0.00000000000E+00  0.00000000000E+00  0.45593999997E+02  0.45594000000E+02  0.51100000000E-03 0.  1.
         11   -1    0    0    0    0 -0.00000000000E+00 -0.00000000000E+00 -0.45593999997E+02  0.45594000000E+02  0.51100000000E-03 0. -1.
    9900012    2    1    2    0    0  0.59236735360E+00 -0.85943673881E+00  0.55100883871E+00  0.90007685919E+02  0.89999946573E+02 0.  0.
        -12    1    1    2    0    0 -0.59236735360E+00  0.85943673881E+00 -0.55100883871E+00  0.11803140811E+01  0.00000000000E+00 0.  1.
         11    1    3    3    0    0 -0.16926179293E+02 -0.12578102327E+02  0.29522129943E+02  0.36280302648E+02  0.51100000000E-03 0. -1.
        -11    1    3    3    0    0 -0.47384190622E+01  0.43194513178E+01  0.78097207772E+01  0.10104554111E+02  0.51100000000E-03 0.  1.
        -12    1    3    3    0    0  0.22256965709E+02  0.73992142705E+01 -0.36780841882E+02  0.43622829160E+02  0.00000000000E+00 0.  1.
</event>
<event>
 7    1  0.2879200E-015  0.9000776E+02  0.7816164E-02  0.1186339E+00
        -11   -1    0    0    0    0  0.00000000000E+00  0.00000000000E+00  0.45593999997E+02  0.45594000000E+02  0.51100000000E-03 0. -1.
         11   -1    0    0    0    0 -0.00000000000E+00 -0.00000000000E+00 -0.45593999997E+02  0.45594000000E+02  0.51100000000E-03 0.  1.
    9900012    2    1    2    0    0 -0.14543926300E+00 -0.11334286749E+01  0.29523479099E+00  0.90007755652E+02  0.90000017226E+02 0.  0.
        -12    1    1    2    0    0  0.14543926300E+00  0.11334286749E+01 -0.29523479099E+00  0.11802443484E+01  0.00000000000E+00 0.  1.
         11    1    3    3    0    0  0.59836150896E+01  0.31558670902E+02 -0.15374514678E+02  0.35610799773E+02  0.51100000000E-03 0. -1.
        -11    1    3    3    0    0  0.24461451406E+01  0.40228034140E+01 -0.84257951981E+01  0.96519738053E+01  0.51100000000E-03 0.  1.
        -12    1    3    3    0    0 -0.85751994932E+01 -0.36714902991E+02  0.24095544667E+02  0.44744982073E+02  0.00000000000E+00 0.  1.
</event>
<event>
 7    1  0.2879200E-015  0.9000776E+02  0.7816164E-02  0.1186339E+00
        -11   -1    0    0    0    0  0.00000000000E+00  0.00000000000E+00  0.45593999997E+02  0.45594000000E+02  0.51100000000E-03 0.  1.
         11   -1    0    0    0    0 -0.00000000000E+00 -0.00000000000E+00 -0.45593999997E+02  0.45594000000E+02  0.51100000000E-03 0. -1.
    9900012    2    1    2    0    0  0.24465071443E+00 -0.67615002942E+00 -0.93590831055E+00  0.90007763922E+02  0.90000025606E+02 0.  0.
        -12    1    1    2    0    0 -0.24465071443E+00  0.67615002942E+00  0.93590831055E+00  0.11802360781E+01  0.00000000000E+00 0.  1.
         11    1    3    3    0    0  0.12805871732E+02 -0.14500534789E+02 -0.80349560799E+01  0.20947944516E+02  0.51100000000E-03 0. -1.
        -11    1    3    3    0    0  0.20629385836E+02  0.21009381730E+02  0.16593600329E+02  0.33798124989E+02  0.51100000000E-03 0.  1.
         12    1    3    3    0    0 -0.33190606854E+02 -0.71849969704E+01 -0.94945525597E+01  0.35261694416E+02  0.00000000000E+00 0. -1.
</event>
<event>
 7    1  0.2879200E-015  0.9000776E+02  0.7816164E-02  0.1186339E+00
        -11   -1    0    0    0    0  0.00000000000E+00  0.00000000000E+00  0.45593999997E+02  0.45594000000E+02  0.51100000000E-03 0. -1.
         11   -1    0    0    0    0 -0.00000000000E+00 -0.00000000000E+00 -0.45593999997E+02  0.45594000000E+02  0.51100000000E-03 0.  1.
    9900012    2    1    2    0    0  0.57174618080E+00  0.10279725275E+01 -0.96630508409E-01  0.90007763300E+02  0.90000024976E+02 0.  0.
        -12    1    1    2    0    0 -0.57174618080E+00 -0.10279725275E+01  0.96630508409E-01  0.11802366999E+01  0.00000000000E+00 0.  1.
         11    1    3    3    0    0 -0.34309025362E+01 -0.62944865979E+01 -0.78114854944E+01  0.10602403484E+02  0.51100000000E-03 0. -1.
        -11    1    3    3    0    0 -0.36014556621E+02  0.86847624230E+01 -0.50271131192E+01  0.37386431409E+02  0.51100000000E-03 0.  1.
         12    1    3    3    0    0  0.40017205338E+02 -0.13623032976E+01  0.12741968105E+02  0.42018928407E+02  0.00000000000E+00 0. -1.
</event>
<event>
 7    1  0.2879200E-015  0.9000795E+02  0.7816164E-02  0.1186339E+00
        -11   -1    0    0    0    0  0.00000000000E+00  0.00000000000E+00  0.45593999997E+02  0.45594000000E+02  0.51100000000E-03 0.  1.
         11   -1    0    0    0    0 -0.00000000000E+00 -0.00000000000E+00 -0.45593999997E+02  0.45594000000E+02  0.51100000000E-03 0. -1.
    9900012    2    1    2    0    0 -0.67871273686E+00 -0.22452590562E+00 -0.93886289217E+00  0.90007946445E+02  0.90000210538E+02 0.  0.
        -12    1    1    2    0    0  0.67871273686E+00  0.22452590562E+00  0.93886289217E+00  0.11800535546E+01  0.00000000000E+00 0.  1.
         11    1    3    3    0    0  0.33638650584E+01  0.22024695590E+01  0.13005671451E+02  0.13613006664E+02  0.51100000000E-03 0. -1.
        -11    1    3    3    0    0 -0.20130394679E+02  0.10593583351E+02  0.24065749891E+02  0.33115209741E+02  0.51100000000E-03 0.  1.
         12    1    3    3    0    0  0.16087816883E+02 -0.13020578816E+02 -0.38010284234E+02  0.43279730040E+02  0.00000000000E+00 0. -1.
</event>
<event>
 7    1  0.2879200E-015  0.9000781E+02  0.7816164E-02  0.1186339E+00
        -11   -1    0    0    0    0  0.00000000000E+00  0.00000000000E+00  0.45593999997E+02  0.45594000000E+02  0.51100000000E-03 0. -1.
         11   -1    0    0    0    0 -0.00000000000E+00 -0.00000000000E+00 -0.45593999997E+02  0.45594000000E+02  0.51100000000E-03 0.  1.
    9900012    2    1    2    0    0  0.33184516123E-03  0.64894096714E+00  0.98576478946E+00  0.90007806495E+02  0.90000068741E+02 0.  0.
        -12    1    1    2    0    0 -0.33184516122E-03 -0.64894096714E+00 -0.98576478946E+00  0.11801935049E+01  0.00000000000E+00 0.  1.
         11    1    3    3    0    0 -0.80296403938E+01  0.74318452543E+01 -0.17270313113E+02  0.20444343081E+02  0.51100000000E-03 0. -1.
        -11    1    3    3    0    0 -0.16827365654E+02 -0.79622325697E+01 -0.17797972789E+02  0.25755100815E+02  0.51100000000E-03 0.  1.
         12    1    3    3    0    0  0.24857337893E+02  0.11793282825E+01  0.36054050692E+02  0.43808362599E+02  0.00000000000E+00 0. -1.
</event>
<event>
 7    1  0.2879200E-015  0.9000776E+02  0.7816164E-02  0.1186339E+00
        -11   -1    0    0    0    0  0.00000000000E+00  0.00000000000E+00  0.45593999997E+02  0.45594000000E+02  0.51100000000E-03 0.  1.
         11   -1    0    0    0    0 -0.00000000000E+00 -0.00000000000E+00 -0.45593999997E+02  0.45594000000E+02  0.51100000000E-03 0. -1.
    9900012    2    1    2    0    0 -0.51717982819E+00 -0.86496991830E+00 -0.61425476391E+00  0.90007764071E+02  0.90000025756E+02 0.  0.
        -12    1    1    2    0    0  0.51717982819E+00  0.86496991830E+00  0.61425476391E+00  0.11802359295E+01  0.00000000000E+00 0.  1.
         11    1    3    3    0    0 -0.33654256685E+02 -0.36136793695E+01 -0.10085388929E+02  0.35318306042E+02  0.51100000000E-03 0. -1.
        -11    1    3    3    0    0 -0.57981362896E+01  0.75338650727E+01 -0.73403164230E+01  0.12010734899E+02  0.51100000000E-03 0.  1.
        -12    1    3    3    0    0  0.38935213146E+02 -0.47851556215E+01  0.16811450588E+02  0.42678723129E+02  0.00000000000E+00 0.  1.
</event>
<event>
 7    1  0.2879200E-015  0.9000778E+02  0.7816164E-02  0.1186339E+00
        -11   -1    0    0    0    0  0.00000000000E+00  0.00000000000E+00  0.45593999997E+02  0.45594000000E+02  0.51100000000E-03 0.  1.
         11   -1    0    0    0    0 -0.00000000000E+00 -0.00000000000E+00 -0.45593999997E+02  0.45594000000E+02  0.51100000000E-03 0. -1.
    9900012    2    1    2    0    0  0.79283068686E+00 -0.76764136819E+00  0.41841461121E+00  0.90007777752E+02  0.90000039618E+02 0.  0.
        -12    1    1    2    0    0 -0.79283068686E+00  0.76764136819E+00 -0.41841461121E+00  0.11802222482E+01  0.00000000000E+00 0.  1.
         11    1    3    3    0    0 -0.27258545504E+02  0.22135455610E+02 -0.21686838863E+02  0.41271366323E+02  0.51100000000E-03 0. -1.
        -11    1    3    3    0    0  0.97490982110E+01  0.87556650619E-01 -0.28782231043E+01  0.10165468538E+02  0.51100000000E-03 0.  1.
        -12    1    3    3    0    0  0.18302277980E+02 -0.22990653629E+02  0.24983476578E+02  0.38570942891E+02  0.00000000000E+00 0.  1.
</event>
<event>
 7    1  0.2879200E-015  0.9000773E+02  0.7816164E-02  0.1186339E+00
        -11   -1    0    0    0    0  0.00000000000E+00  0.00000000000E+00  0.45593999997E+02  0.45594000000E+02  0.51100000000E-03 0. -1.
         11   -1    0    0    0    0 -0.00000000000E+00 -0.00000000000E+00 -0.45593999997E+02  0.45594000000E+02  0.51100000000E-03 0.  1.
    9900012    2    1    2    0    0 -0.18740300873E+00 -0.11237427366E+01 -0.30839624321E+00  0.90007734831E+02  0.89999996131E+02 0.  0.
        -12    1    1    2    0    0  0.18740300873E+00  0.11237427366E+01  0.30839624321E+00  0.11802651688E+01  0.00000000000E+00 0.  1.
         11    1    3    3    0    0  0.82753748786E+01  0.20914835015E+01  0.30042691270E+01  0.90488543953E+01  0.51100000000E-03 0. -1.
        -11    1    3    3    0    0  0.58435346277E+01  0.10080127786E+02 -0.38767587028E+02  0.40480633362E+02  0.51100000000E-03 0.  1.
         12    1    3    3    0    0 -0.14306312515E+02 -0.13295354024E+02  0.35454921658E+02  0.40478247074E+02  0.00000000000E+00 0. -1.
</event>
<event>
 7    1  0.2879200E-015  0.9000771E+02  0.7816164E-02  0.1186339E+00
        -11   -1    0    0    0    0  0.00000000000E+00  0.00000000000E+00  0.45593999997E+02  0.45594000000E+02  0.51100000000E-03 0.  1.
         11   -1    0    0    0    0 -0.00000000000E+00 -0.00000000000E+00 -0.45593999997E+02  0.45594000000E+02  0.51100000000E-03 0. -1.
    9900012    2    1    2    0    0  0.11412827027E+01  0.93544614567E-01  0.28601879024E+00  0.90007710395E+02  0.89999971373E+02 0.  0.
        -12    1    1    2    0    0 -0.11412827027E+01 -0.93544614567E-01 -0.28601879024E+00  0.11802896046E+01  0.00000000000E+00 0.  1.
         11    1    3    3    0    0 -0.37316850084E+01  0.67002317865E+01 -0.76278881736E+01  0.10816804392E+02  0.51100000000E-03 0. -1.
        -11    1    3    3    0    0 -0.26820816397E+02 -0.27090555319E+02 -0.67320280809E+01  0.38711427021E+02  0.51100000000E-03 0.  1.
         12    1    3    3    0    0  0.31693784108E+02  0.20483868147E+02  0.14645935045E+02  0.40479478982E+02  0.00000000000E+00 0. -1.
</event>
<event>
 7    1  0.2879200E-015  0.9000836E+02  0.7816164E-02  0.1186338E+00
        -11   -1    0    0    0    0  0.00000000000E+00  0.00000000000E+00  0.45593999997E+02  0.45594000000E+02  0.51100000000E-03 0.  1.
         11   -1    0    0    0    0 -0.00000000000E+00 -0.00000000000E+00 -0.45593999997E+02  0.45594000000E+02  0.51100000000E-03 0. -1.
    9900012    2    1    2    0    0 -0.10871519565E+01 -0.36059243155E+00  0.28219235164E+00  0.90008356494E+02  0.90000625997E+02 0.  0.
        -12    1    1    2    0    0  0.10871519565E+01  0.36059243155E+00 -0.28219235164E+00  0.11796435061E+01  0.00000000000E+00 0.  1.
         11    1    3    3    0    0 -0.54989532511E+01 -0.18295097580E+02 -0.21404933154E+02  0.28690072254E+02  0.51100000000E-03 0. -1.
        -11    1    3    3    0    0 -0.90765886754E+01 -0.16120640205E+02 -0.47525792223E+00  0.18506360338E+02  0.51100000000E-03 0.  1.
        -12    1    3    3    0    0  0.13488389970E+02  0.34055145353E+02  0.22162383428E+02  0.42811923903E+02  0.00000000000E+00 0.  1.
</event>
<event>
 7    1  0.2879200E-015  0.9000777E+02  0.7816164E-02  0.1186339E+00
        -11   -1    0    0    0    0  0.00000000000E+00  0.00000000000E+00  0.45593999997E+02  0.45594000000E+02  0.51100000000E-03 0.  1.
         11   -1    0    0    0    0 -0.00000000000E+00 -0.00000000000E+00 -0.45593999997E+02  0.45594000000E+02  0.51100000000E-03 0. -1.
    9900012    2    1    2    0    0  0.38424097247E+00  0.11158204340E+01 -0.15841271187E-01  0.90007768111E+02  0.90000029850E+02 0.  0.
        -12    1    1    2    0    0 -0.38424097247E+00 -0.11158204340E+01  0.15841271187E-01  0.11802318890E+01  0.00000000000E+00 0.  1.
         11    1    3    3    0    0  0.11355521358E+02 -0.17510325974E+02 -0.30449688763E+02  0.36915348123E+02  0.51100000000E-03 0. -1.
        -11    1    3    3    0    0  0.99055109803E+01 -0.22910992437E+00 -0.20528933531E+01  0.10118597260E+02  0.51100000000E-03 0.  1.
        -12    1    3    3    0    0 -0.20876791366E+02  0.18855256332E+02  0.32486740845E+02  0.42973822727E+02  0.00000000000E+00 0.  1.
</event>
<event>
 7    1  0.2879200E-015  0.9000760E+02  0.7816164E-02  0.1186339E+00
        -11   -1    0    0    0    0  0.00000000000E+00  0.00000000000E+00  0.45593999997E+02  0.45594000000E+02  0.51100000000E-03 0.  1.
         11   -1    0    0    0    0 -0.00000000000E+00 -0.00000000000E+00 -0.45593999997E+02  0.45594000000E+02  0.51100000000E-03 0. -1.
    9900012    2    1    2    0    0 -0.11723787095E+01  0.12865567031E+00  0.48154423130E-01  0.90007600505E+02  0.89999860031E+02 0.  0.
        -12    1    1    2    0    0  0.11723787095E+01 -0.12865567031E+00 -0.48154423130E-01  0.11803994953E+01  0.00000000000E+00 0.  1.
         11    1    3    3    0    0  0.77453807441E+01 -0.43443780527E+01  0.56092263786E+00  0.88982682586E+01  0.51100000000E-03 0. -1.
        -11    1    3    3    0    0  0.16406569093E+02 -0.30787742679E+02  0.10291229033E+02  0.36372654617E+02  0.51100000000E-03 0.  1.
         12    1    3    3    0    0 -0.25324328546E+02  0.35260776402E+02 -0.10803997248E+02  0.44736677629E+02  0.00000000000E+00 0. -1.
</event>
<event>
 7    1  0.2879200E-015  0.9000792E+02  0.7816164E-02  0.1186339E+00
        -11   -1    0    0    0    0  0.00000000000E+00  0.00000000000E+00  0.45593999997E+02  0.45594000000E+02  0.51100000000E-03 0.  1.
         11   -1    0    0    0    0 -0.00000000000E+00 -0.00000000000E+00 -0.45593999997E+02  0.45594000000E+02  0.51100000000E-03 0. -1.
    9900012    2    1    2    0    0 -0.10118525851E+01 -0.52714595628E-02 -0.60722111784E+00  0.90007919101E+02  0.90000182833E+02 0.  0.
        -12    1    1    2    0    0  0.10118525851E+01  0.52714595628E-02  0.60722111784E+00  0.11800808990E+01  0.00000000000E+00 0.  1.
         11    1    3    3    0    0  0.30632911811E+01 -0.18879809263E+01  0.52957977502E+01  0.64026321861E+01  0.51100000000E-03 0. -1.
        -11    1    3    3    0    0 -0.13652305311E+02 -0.35064642954E+02  0.14500109251E+02  0.40325770846E+02  0.51100000000E-03 0.  1.
         12    1    3    3    0    0  0.95771615452E+01  0.36947352420E+02 -0.20403128119E+02  0.43279516069E+02  0.00000000000E+00 0. -1.
</event>
<event>
 7    1  0.2879200E-015  0.9000775E+02  0.7816164E-02  0.1186339E+00
        -11   -1    0    0    0    0  0.00000000000E+00  0.00000000000E+00  0.45593999997E+02  0.45594000000E+02  0.51100000000E-03 0. -1.
         11   -1    0    0    0    0 -0.00000000000E+00 -0.00000000000E+00 -0.45593999997E+02  0.45594000000E+02  0.51100000000E-03 0.  1.
    9900012    2    1    2    0    0  0.45868839720E+00 -0.97760470007E+00  0.47631195458E+00  0.90007754655E+02  0.90000016217E+02 0.  0.
        -12    1    1    2    0    0 -0.45868839720E+00  0.97760470007E+00 -0.47631195458E+00  0.11802453446E+01  0.00000000000E+00 0.  1.
         11    1    3    3    0    0  0.38803321741E+02 -0.11917717329E+02 -0.14446174471E+02  0.43086212662E+02  0.51100000000E-03 0. -1.
        -11    1    3    3    0    0 -0.25312278691E+01  0.49348362903E+01  0.83409259047E+01  0.10016524794E+02  0.51100000000E-03 0.  1.
        -12    1    3    3    0    0 -0.35813405475E+02  0.60052763389E+01  0.65815605205E+01  0.36905017199E+02  0.00000000000E+00 0.  1.
</event>
<event>
 7    1  0.2879200E-015  0.9000761E+02  0.7816164E-02  0.1186339E+00
        -11   -1    0    0    0    0  0.00000000000E+00  0.00000000000E+00  0.45593999997E+02  0.45594000000E+02  0.51100000000E-03 0. -1.
         11   -1    0    0    0    0 -0.00000000000E+00 -0.00000000000E+00 -0.45593999997E+02  0.45594000000E+02  0.51100000000E-03 0.  1.
    9900012    2    1    2    0    0 -0.26214935024E+00 -0.10926975516E+01  0.36141151152E+00  0.90007606633E+02  0.89999866240E+02 0.  0.
        -12    1    1    2    0    0  0.26214935024E+00  0.10926975516E+01 -0.36141151152E+00  0.11803933674E+01  0.00000000000E+00 0.  1.
         11    1    3    3    0    0  0.86804087402E+01 -0.10222324586E+02 -0.79316382413E+00  0.13434080726E+02  0.51100000000E-03 0. -1.
        -11    1    3    3    0    0  0.22057370607E+02  0.16150297996E+02 -0.23734456649E+02  0.36203372165E+02  0.51100000000E-03 0.  1.
         12    1    3    3    0    0 -0.30999928697E+02 -0.70206709614E+01  0.24889031984E+02  0.40370153741E+02  0.00000000000E+00 0. -1.
</event>
<event>
 7    1  0.2879200E-015  0.9000769E+02  0.7816164E-02  0.1186339E+00
        -11   -1    0    0    0    0  0.00000000000E+00  0.00000000000E+00  0.45593999997E+02  0.45594000000E+02  0.51100000000E-03 0. -1.
         11   -1    0    0    0    0 -0.00000000000E+00 -0.00000000000E+00 -0.45593999997E+02  0.45594000000E+02  0.51100000000E-03 0.  1.
    9900012    2    1    2    0    0 -0.19918039300E+00  0.11615006389E+01 -0.66061143353E-01  0.90007694684E+02  0.89999955454E+02 0.  0.
        -12    1    1    2    0    0  0.19918039300E+00 -0.11615006389E+01  0.66061143353E-01  0.11803053155E+01  0.00000000000E+00 0.  1.
         11    1    3    3    0    0  0.50212175375E+01  0.23890566831E+02  0.31847970547E+02  0.40128107821E+02  0.51100000000E-03 0. -1.
        -11    1    3    3    0    0  0.69771464601E+01 -0.60519565110E+01  0.26517188855E+01  0.96092852828E+01  0.51100000000E-03 0.  1.
        -12    1    3    3    0    0 -0.12197544391E+02 -0.16677109681E+02 -0.34565750576E+02  0.40270301580E+02  0.00000000000E+00 0.  1.
</event>
<event>
 7    1  0.4289319E-015  0.9000747E+02  0.7816164E-02  0.1186340E+00
        -11   -1    0    0    0    0  0.00000000000E+00  0.00000000000E+00  0.45593999997E+02  0.45594000000E+02  0.51100000000E-03 0. -1.
         11   -1    0    0    0    0 -0.00000000000E+00 -0.00000000000E+00 -0.45593999997E+02  0.45594000000E+02  0.51100000000E-03 0.  1.
    9900012    2    1    2    0    0 -0.20964283034E+00 -0.83637809259E+00  0.80633906009E+00  0.90007465752E+02  0.89999723500E+02 0.  0.
        -12    1    1    2    0    0  0.20964283034E+00  0.83637809259E+00 -0.80633906009E+00  0.11805342477E+01  0.00000000000E+00 0.  1.
         11    1    3    3    0    0 -0.33622917878E+02  0.61620506950E+01  0.21341224129E+02  0.40297882364E+02  0.51100000000E-03 0. -1.
        -11    1    3    3    0    0  0.25175581230E+00  0.85789077293E+01 -0.30010393111E+01  0.90921546415E+01  0.51100000000E-03 0.  1.
        -12    1    3    3    0    0  0.33161519235E+02 -0.15577336517E+02 -0.17533845758E+02  0.40617428747E+02  0.00000000000E+00 0.  1.
</event>
<event>
 7    1  0.2879200E-015  0.9000769E+02  0.7816164E-02  0.1186339E+00
        -11   -1    0    0    0    0  0.00000000000E+00  0.00000000000E+00  0.45593999997E+02  0.45594000000E+02  0.51100000000E-03 0.  1.
         11   -1    0    0    0    0 -0.00000000000E+00 -0.00000000000E+00 -0.45593999997E+02  0.45594000000E+02  0.51100000000E-03 0. -1.
    9900012    2    1    2    0    0  0.11594501331E-02 -0.11745964983E+01  0.11595565118E+00  0.90007693264E+02  0.89999954015E+02 0.  0.
        -12    1    1    2    0    0 -0.11594501331E-02  0.11745964983E+01 -0.11595565118E+00  0.11803067361E+01  0.00000000000E+00 0.  1.
         11    1    3    3    0    0 -0.47549998104E+01  0.24078526373E+02 -0.24855244110E+02  0.34930912034E+02  0.51100000000E-03 0. -1.
        -11    1    3    3    0    0  0.42859918925E+01  0.75452137547E+01 -0.55262857132E+01  0.10287847741E+02  0.51100000000E-03 0.  1.
        -12    1    3    3    0    0  0.47016736803E+00 -0.32798336626E+02  0.30497485474E+02  0.44788933489E+02  0.00000000000E+00 0.  1.
</event>
<event>
 7    1  0.2879200E-015  0.9000772E+02  0.7816164E-02  0.1186339E+00
        -11   -1    0    0    0    0  0.00000000000E+00  0.00000000000E+00  0.45593999997E+02  0.45594000000E+02  0.51100000000E-03 0.  1.
         11   -1    0    0    0    0 -0.00000000000E+00 -0.00000000000E+00 -0.45593999997E+02  0.45594000000E+02  0.51100000000E-03 0. -1.
    9900012    2    1    2    0    0 -0.42676663230E+00  0.70538510734E+00 -0.84460577322E+00  0.90007721719E+02  0.89999982846E+02 0.  0.
        -12    1    1    2    0    0  0.42676663230E+00 -0.70538510734E+00  0.84460577322E+00  0.11802782809E+01  0.00000000000E+00 0.  1.
         11    1    3    3    0    0 -0.71291297221E+01 -0.45330451585E+01  0.34495975518E+01  0.91253883498E+01  0.51100000000E-03 0. -1.
        -11    1    3    3    0    0 -0.36531923370E+01 -0.29687895248E+02  0.20987178744E+02  0.36540095927E+02  0.51100000000E-03 0.  1.
         12    1    3    3    0    0  0.10355555427E+02  0.34926325514E+02 -0.25281382069E+02  0.44342237442E+02  0.00000000000E+00 0. -1.
</event>
<event>
 7    1  0.2879200E-015  0.9000780E+02  0.7816164E-02  0.1186339E+00
        -11   -1    0    0    0    0  0.00000000000E+00  0.00000000000E+00  0.45593999997E+02  0.45594000000E+02  0.51100000000E-03 0.  1.
         11   -1    0    0    0    0 -0.00000000000E+00 -0.00000000000E+00 -0.45593999997E+02  0.45594000000E+02  0.51100000000E-03 0. -1.
    9900012    2    1    2    0    0  0.11320510382E+01  0.32859980794E+00  0.57924744710E-01  0.90007799736E+02  0.90000061893E+02 0.  0.
        -12    1    1    2    0    0 -0.11320510382E+01 -0.32859980794E+00 -0.57924744710E-01  0.11802002639E+01  0.00000000000E+00 0.  1.
         11    1    3    3    0    0 -0.10940753090E+01  0.79235661904E+01  0.14714874743E+02  0.16748356365E+02  0.51100000000E-03 0. -1.
        -11    1    3    3    0    0 -0.27089576137E+02 -0.23173141900E+02  0.27871422999E+01  0.35757625806E+02  0.51100000000E-03 0.  1.
         12    1    3    3    0    0  0.29315702484E+02  0.15578175517E+02 -0.17444092299E+02  0.37501817565E+02  0.00000000000E+00 0. -1.
</event>
<event>
 7    1  0.2879200E-015  0.9000768E+02  0.7816164E-02  0.1186339E+00
        -11   -1    0    0    0    0  0.00000000000E+00  0.00000000000E+00  0.45593999997E+02  0.45594000000E+02  0.51100000000E-03 0.  1.
         11   -1    0    0    0    0 -0.00000000000E+00 -0.00000000000E+00 -0.45593999997E+02  0.45594000000E+02  0.51100000000E-03 0. -1.
    9900012    2    1    2    0    0 -0.11041787030E+01 -0.37883310382E+00  0.17444484676E+00  0.90007679648E+02  0.89999940219E+02 0.  0.
        -12    1    1    2    0    0  0.11041787030E+01  0.37883310382E+00 -0.17444484676E+00  0.11803203520E+01  0.00000000000E+00 0.  1.
         11    1    3    3    0    0 -0.65771313282E+01 -0.31101192123E+02 -0.15078204771E+02  0.35183732993E+02  0.51100000000E-03 0. -1.
        -11    1    3    3    0    0 -0.74582205800E+01  0.18079244282E+02 -0.11383166459E+02  0.22628756195E+02  0.51100000000E-03 0.  1.
        -12    1    3    3    0    0  0.12931173205E+02  0.12643114737E+02  0.26635816077E+02  0.32195190460E+02  0.00000000000E+00 0.  1.
</event>
<event>
 7    1  0.2879200E-015  0.9000774E+02  0.7816164E-02  0.1186339E+00
        -11   -1    0    0    0    0  0.00000000000E+00  0.00000000000E+00  0.45593999997E+02  0.45594000000E+02  0.51100000000E-03 0.  1.
         11   -1    0    0    0    0 -0.00000000000E+00 -0.00000000000E+00 -0.45593999997E+02  0.45594000000E+02  0.51100000000E-03 0. -1.
    9900012    2    1    2    0    0 -0.34147306388E+00  0.25358324084E+00 -0.11009558121E+01  0.90007740701E+02  0.90000002078E+02 0.  0.
        -12    1    1    2    0    0  0.34147306388E+00 -0.25358324084E+00  0.11009558121E+01  0.11802592993E+01  0.00000000000E+00 0.  1.
         11    1    3    3    0    0 -0.50188335379E+01  0.14647359010E+01 -0.95013603791E+01  0.10844813998E+02  0.51100000000E-03 0. -1.
        -11    1    3    3    0    0 -0.24928843167E+01 -0.31884706663E+02 -0.19181882061E+02  0.37293345129E+02  0.51100000000E-03 0.  1.
         12    1    3    3    0    0  0.71702447907E+01  0.30673554003E+02  0.27582286628E+02  0.41869581574E+02  0.00000000000E+00 0. -1.
</event>
<event>
 7    1  0.2879200E-015  0.9000769E+02  0.7816164E-02  0.1186339E+00
        -11   -1    0    0    0    0  0.00000000000E+00  0.00000000000E+00  0.45593999997E+02  0.45594000000E+02  0.51100000000E-03 0.  1.
         11   -1    0    0    0    0 -0.00000000000E+00 -0.00000000000E+00 -0.45593999997E+02  0.45594000000E+02  0.51100000000E-03 0. -1.
    9900012    2    1    2    0    0  0.69952417669E-01 -0.16382438908E+00 -0.11667901236E+01  0.90007690310E+02  0.89999951022E+02 0.  0.
        -12    1    1    2    0    0 -0.69952417669E-01  0.16382438908E+00  0.11667901236E+01  0.11803096898E+01  0.00000000000E+00 0.  1.
         11    1    3    3    0    0  0.31344374588E+01 -0.12266991772E+01  0.86171808555E+01  0.92512320915E+01  0.51100000000E-03 0. -1.
        -11    1    3    3    0    0 -0.84622983754E+01  0.10861296549E+02  0.33410744926E+02  0.36136631460E+02  0.51100000000E-03 0.  1.
         12    1    3    3    0    0  0.53978133343E+01 -0.97984217610E+01 -0.43194715905E+02  0.44619826758E+02  0.00000000000E+00 0. -1.
</event>
<event>
 7    1  0.2879200E-015  0.9000754E+02  0.7816164E-02  0.1186339E+00
        -11   -1    0    0    0    0  0.00000000000E+00  0.00000000000E+00  0.45593999997E+02  0.45594000000E+02  0.51100000000E-03 0. -1.
         11   -1    0    0    0    0 -0.00000000000E+00 -0.00000000000E+00 -0.45593999997E+02  0.45594000000E+02  0.51100000000E-03 0.  1.
    9900012    2    1    2    0    0 -0.15466784241E+00  0.46122062552E+00  0.10755596092E+01  0.90007544546E+02  0.89999803333E+02 0.  0.
        -12    1    1    2    0    0  0.15466784241E+00 -0.46122062552E+00 -0.10755596092E+01  0.11804554544E+01  0.00000000000E+00 0.  1.
         11    1    3    3    0    0 -0.24993844843E+02  0.53991950770E+01  0.25102394459E+02  0.35832580083E+02  0.51100000000E-03 0. -1.
        -11    1    3    3    0    0 -0.10098167351E+02 -0.69711756372E+01 -0.10622878377E+01  0.12316603806E+02  0.51100000000E-03 0.  1.
        -12    1    3    3    0    0  0.34937344351E+02  0.20332011858E+01 -0.22964547012E+02  0.41858360657E+02  0.00000000000E+00 0.  1.
</event>
<event>
 7    1  0.2879200E-015  0.9000771E+02  0.7816164E-02  0.1186339E+00
        -11   -1    0    0    0    0  0.00000000000E+00  0.00000000000E+00  0.45593999997E+02  0.45594000000E+02  0.51100000000E-03 0.  1.
         11   -1    0    0    0    0 -0.00000000000E+00 -0.00000000000E+00 -0.45593999997E+02  0.45594000000E+02  0.51100000000E-03 0. -1.
    9900012    2    1    2    0    0  0.49887408506E+00  0.52697350634E+00 -0.93086046826E+00  0.90007712899E+02  0.89999973909E+02 0.  0.
        -12    1    1    2    0    0 -0.49887408506E+00 -0.52697350634E+00  0.93086046826E+00  0.11802871009E+01  0.00000000000E+00 0.  1.
         11    1    3    3    0    0 -0.65397621032E+01  0.14410231440E+01  0.11730964690E+02  0.13507796596E+02  0.51100000000E-03 0. -1.
        -11    1    3    3    0    0 -0.55832727778E+00 -0.20138903064E+02  0.25860411329E+02  0.32781824543E+02  0.51100000000E-03 0.  1.
         12    1    3    3    0    0  0.75969634660E+01  0.19224853427E+02 -0.38522236487E+02  0.43718091760E+02  0.00000000000E+00 0. -1.
</event>
<event>
 7    1  0.2879200E-015  0.9000783E+02  0.7816164E-02  0.1186339E+00
        -11   -1    0    0    0    0  0.00000000000E+00  0.00000000000E+00  0.45593999997E+02  0.45594000000E+02  0.51100000000E-03 0. -1.
         11   -1    0    0    0    0 -0.00000000000E+00 -0.00000000000E+00 -0.45593999997E+02  0.45594000000E+02  0.51100000000E-03 0.  1.
    9900012    2    1    2    0    0 -0.33387468934E+00  0.66772461710E+00  0.91404799209E+00  0.90007825350E+02  0.90000087845E+02 0.  0.
        -12    1    1    2    0    0  0.33387468934E+00 -0.66772461710E+00 -0.91404799209E+00  0.11801746499E+01  0.00000000000E+00 0.  1.
         11    1    3    3    0    0 -0.33891066529E+01  0.39795237372E+02 -0.84276023683E+01  0.40818763374E+02  0.51100000000E-03 0. -1.
        -11    1    3    3    0    0 -0.89626225814E+00 -0.57529812401E+01 -0.91384136975E+01  0.10835621088E+02  0.51100000000E-03 0.  1.
        -12    1    3    3    0    0  0.39514942217E+01 -0.33374531515E+02  0.18480064058E+02  0.38353440889E+02  0.00000000000E+00 0.  1.
</event>
<event>
 7    1  0.2879200E-015  0.9000776E+02  0.7816164E-02  0.1186339E+00
        -11   -1    0    0    0    0  0.00000000000E+00  0.00000000000E+00  0.45593999997E+02  0.45594000000E+02  0.51100000000E-03 0. -1.
         11   -1    0    0    0    0 -0.00000000000E+00 -0.00000000000E+00 -0.45593999997E+02  0.45594000000E+02  0.51100000000E-03 0.  1.
    9900012    2    1    2    0    0  0.22891756973E+00  0.11285762642E+01  0.25861857377E+00  0.90007757989E+02  0.90000019594E+02 0.  0.
        -12    1    1    2    0    0 -0.22891756973E+00 -0.11285762642E+01 -0.25861857377E+00  0.11802420110E+01  0.00000000000E+00 0.  1.
         11    1    3    3    0    0 -0.70761588084E+01 -0.66819670743E+01 -0.59774864893E+01  0.11421517082E+02  0.51100000000E-03 0. -1.
        -11    1    3    3    0    0 -0.30767444477E+02  0.60607949097E+01 -0.15211305804E+02  0.34853302557E+02  0.51100000000E-03 0.  1.
         12    1    3    3    0    0  0.38072520855E+02  0.17497484288E+01  0.21447410867E+02  0.43732938350E+02  0.00000000000E+00 0. -1.
</event>
<event>
 7    1  0.2879200E-015  0.9000776E+02  0.7816164E-02  0.1186339E+00
        -11   -1    0    0    0    0  0.00000000000E+00  0.00000000000E+00  0.45593999997E+02  0.45594000000E+02  0.51100000000E-03 0.  1.
         11   -1    0    0    0    0 -0.00000000000E+00 -0.00000000000E+00 -0.45593999997E+02  0.45594000000E+02  0.51100000000E-03 0. -1.
    9900012    2    1    2    0    0  0.18401180489E+00  0.22250829661E+00 -0.11443743066E+01  0.90007761533E+02  0.90000023185E+02 0.  0.
        -12    1    1    2    0    0 -0.18401180489E+00 -0.22250829661E+00  0.11443743066E+01  0.11802384675E+01  0.00000000000E+00 0.  1.
         11    1    3    3    0    0  0.78252532608E+01  0.55180938986E+01  0.21035152367E+01  0.98035057750E+01  0.51100000000E-03 0. -1.
        -11    1    3    3    0    0 -0.11424671306E+02  0.34662392010E+02  0.10164880914E+02  0.37885740571E+02  0.51100000000E-03 0.  1.
         12    1    3    3    0    0  0.37834298504E+01 -0.39957977612E+02 -0.13412770457E+02  0.42318515187E+02  0.00000000000E+00 0. -1.
</event>
<event>
 7    1  0.2879200E-015  0.9000773E+02  0.7816164E-02  0.1186339E+00
        -11   -1    0    0    0    0  0.00000000000E+00  0.00000000000E+00  0.45593999997E+02  0.45594000000E+02  0.51100000000E-03 0. -1.
         11   -1    0    0    0    0 -0.00000000000E+00 -0.00000000000E+00 -0.45593999997E+02  0.45594000000E+02  0.51100000000E-03 0.  1.
    9900012    2    1    2    0    0  0.39274256097E+00  0.84764341609E+00  0.72130938160E+00  0.90007731681E+02  0.89999992940E+02 0.  0.
        -12    1    1    2    0    0 -0.39274256097E+00 -0.84764341609E+00 -0.72130938160E+00  0.11802683187E+01  0.00000000000E+00 0.  1.
         11    1    3    3    0    0 -0.57831354792E+01  0.41168006067E+02  0.53269883284E+00  0.41575631659E+02  0.51100000000E-03 0. -1.
        -11    1    3    3    0    0  0.62622373214E+00 -0.30682428326E+01 -0.91140451341E+01  0.96370166136E+01  0.51100000000E-03 0.  1.
        -12    1    3    3    0    0  0.55496543080E+01 -0.37252119819E+02  0.93026556829E+01  0.38795083409E+02  0.00000000000E+00 0.  1.
</event>
<event>
 7    1  0.2879200E-015  0.9000772E+02  0.7816164E-02  0.1186339E+00
        -11   -1    0    0    0    0  0.00000000000E+00  0.00000000000E+00  0.45593999997E+02  0.45594000000E+02  0.51100000000E-03 0.  1.
         11   -1    0    0    0    0 -0.00000000000E+00 -0.00000000000E+00 -0.45593999997E+02  0.45594000000E+02  0.51100000000E-03 0. -1.
    9900012    2    1    2    0    0 -0.67301737644E+00 -0.68961177690E-01 -0.96713816648E+00  0.90007718565E+02  0.89999979650E+02 0.  0.
        -12    1    1    2    0    0  0.67301737644E+00  0.68961177690E-01  0.96713816648E+00  0.11802814351E+01  0.00000000000E+00 0.  1.
         11    1    3    3    0    0  0.77007579860E+01 -0.29838779092E+00 -0.59743421105E+01  0.97510754662E+01  0.51100000000E-03 0. -1.
        -11    1    3    3    0    0  0.31643028386E+02  0.14797858506E+02  0.12332113656E+02  0.37045092648E+02  0.51100000000E-03 0.  1.
         12    1    3    3    0    0 -0.40016803749E+02 -0.14568431893E+02 -0.73249097123E+01  0.43211550451E+02  0.00000000000E+00 0. -1.
</event>
<event>
 7    1  0.2879200E-015  0.9000769E+02  0.7816164E-02  0.1186339E+00
        -11   -1    0    0    0    0  0.00000000000E+00  0.00000000000E+00  0.45593999997E+02  0.45594000000E+02  0.51100000000E-03 0.  1.
         11   -1    0    0    0    0 -0.00000000000E+00 -0.00000000000E+00 -0.45593999997E+02  0.45594000000E+02  0.51100000000E-03 0. -1.
    9900012    2    1    2    0    0 -0.63954412425E-01 -0.63695224241E+00 -0.99163682514E+00  0.90007685669E+02  0.89999946320E+02 0.  0.
        -12    1    1    2    0    0  0.63954412425E-01  0.63695224241E+00  0.99163682514E+00  0.11803143306E+01  0.00000000000E+00 0.  1.
         11    1    3    3    0    0  0.29344913944E+01 -0.21460847626E+01 -0.36429641473E+02  0.36610595429E+02  0.51100000000E-03 0. -1.
        -11    1    3    3    0    0  0.42390783659E+01  0.68676296225E+01 -0.65874015574E+01  0.10417676399E+02  0.51100000000E-03 0.  1.
        -12    1    3    3    0    0 -0.72375241727E+01 -0.53584971023E+01  0.42025406206E+02  0.42979413841E+02  0.00000000000E+00 0.  1.
</event>
<event>
 7    1  0.2879200E-015  0.9000774E+02  0.7816164E-02  0.1186339E+00
        -11   -1    0    0    0    0  0.00000000000E+00  0.00000000000E+00  0.45593999997E+02  0.45594000000E+02  0.51100000000E-03 0. -1.
         11   -1    0    0    0    0 -0.00000000000E+00 -0.00000000000E+00 -0.45593999997E+02  0.45594000000E+02  0.51100000000E-03 0.  1.
    9900012    2    1    2    0    0  0.75085141514E+00  0.90456823888E+00  0.10484158713E+00  0.90007740154E+02  0.90000001524E+02 0.  0.
        -12    1    1    2    0    0 -0.75085141514E+00 -0.90456823888E+00 -0.10484158713E+00  0.11802598463E+01  0.00000000000E+00 0.  1.
         11    1    3    3    0    0  0.23848643307E+02 -0.30434706410E+01 -0.29401882990E+01  0.24221172734E+02  0.51100000000E-03 0. -1.
        -11    1    3    3    0    0  0.40955334800E+01  0.23398606979E+02 -0.14700818890E+02  0.27935323147E+02  0.51100000000E-03 0.  1.
         12    1    3    3    0    0 -0.27193325372E+02 -0.19450568100E+02  0.17745848776E+02  0.37851244272E+02  0.00000000000E+00 0. -1.
</event>
<event>
 7    1  0.2879200E-015  0.9000742E+02  0.7816164E-02  0.1186340E+00
        -11   -1    0    0    0    0  0.00000000000E+00  0.00000000000E+00  0.45593999997E+02  0.45594000000E+02  0.51100000000E-03 0. -1.
         11   -1    0    0    0    0 -0.00000000000E+00 -0.00000000000E+00 -0.45593999997E+02  0.45594000000E+02  0.51100000000E-03 0.  1.
    9900012    2    1    2    0    0  0.58787366370E+00  0.47816424696E+00  0.90528432434E+00  0.90007417009E+02  0.89999674113E+02 0.  0.
        -12    1    1    2    0    0 -0.58787366370E+00 -0.47816424696E+00 -0.90528432434E+00  0.11805829913E+01  0.00000000000E+00 0.  1.
         11    1    3    3    0    0 -0.96869999403E+01 -0.24258297165E+01  0.40787339343E+01  0.10786968454E+02  0.51100000000E-03 0. -1.
        -11    1    3    3    0    0  0.34544328335E+02  0.10532792296E+02  0.22923322408E+02  0.42775332192E+02  0.51100000000E-03 0.  1.
         12    1    3    3    0    0 -0.24269454731E+02 -0.76287983330E+01 -0.26096772018E+02  0.36445116363E+02  0.00000000000E+00 0. -1.
</event>
<event>
 7    1  0.2879200E-015  0.9000781E+02  0.7816164E-02  0.1186339E+00
        -11   -1    0    0    0    0  0.00000000000E+00  0.00000000000E+00  0.45593999997E+02  0.45594000000E+02  0.51100000000E-03 0. -1.
         11   -1    0    0    0    0 -0.00000000000E+00 -0.00000000000E+00 -0.45593999997E+02  0.45594000000E+02  0.51100000000E-03 0.  1.
    9900012    2    1    2    0    0  0.98100622583E+00  0.24361653089E+00  0.60921064522E+00  0.90007805169E+02  0.90000067397E+02 0.  0.
        -12    1    1    2    0    0 -0.98100622583E+00 -0.24361653089E+00 -0.60921064522E+00  0.11801948312E+01  0.00000000000E+00 0.  1.
         11    1    3    3    0    0  0.56929408021E+01  0.49239806426E+01  0.12261679585E+02  0.14387631732E+02  0.51100000000E-03 0. -1.
        -11    1    3    3    0    0  0.17565310020E+02 -0.11183420733E+02 -0.36248619553E+02  0.41803964347E+02  0.51100000000E-03 0.  1.
         12    1    3    3    0    0 -0.22277244596E+02  0.65030566214E+01  0.24596150613E+02  0.33816209090E+02  0.00000000000E+00 0. -1.
</event>
<event>
 7    1  0.3651213E-015  0.9000775E+02  0.7816164E-02  0.1186339E+00
        -11   -1    0    0    0    0  0.00000000000E+00  0.00000000000E+00  0.45593999997E+02  0.45594000000E+02  0.51100000000E-03 0.  1.
         11   -1    0    0    0    0 -0.00000000000E+00 -0.00000000000E+00 -0.45593999997E+02  0.45594000000E+02  0.51100000000E-03 0. -1.
    9900012    2    1    2    0    0  0.90546385134E+00  0.35174164747E+00 -0.67037779917E+00  0.90007748600E+02  0.90000010082E+02 0.  0.
        -12    1    1    2    0    0 -0.90546385134E+00 -0.35174164747E+00  0.67037779917E+00  0.11802513996E+01  0.00000000000E+00 0.  1.
         11    1    3    3    0    0 -0.19927064783E+02 -0.75899546669E+00 -0.32474923833E+02  0.38108852819E+02  0.51100000000E-03 0. -1.
        -11    1    3    3    0    0  0.22881255417E+01 -0.74298590168E+01 -0.53964690297E+01  0.94636251909E+01  0.51100000000E-03 0.  1.
        -12    1    3    3    0    0  0.18544403093E+02  0.85405961310E+01  0.37201015063E+02  0.42435270590E+02  0.00000000000E+00 0.  1.
</event>
<event>
 7    1  0.2879200E-015  0.9000775E+02  0.7816164E-02  0.1186339E+00
        -11   -1    0    0    0    0  0.00000000000E+00  0.00000000000E+00  0.45593999997E+02  0.45594000000E+02  0.51100000000E-03 0. -1.
         11   -1    0    0    0    0 -0.00000000000E+00 -0.00000000000E+00 -0.45593999997E+02  0.45594000000E+02  0.51100000000E-03 0.  1.
    9900012    2    1    2    0    0 -0.11478666223E+00 -0.11605661027E+01  0.18136091187E+00  0.90007753654E+02  0.90000015202E+02 0.  0.
        -12    1    1    2    0    0  0.11478666223E+00  0.11605661027E+01 -0.18136091187E+00  0.11802463459E+01  0.00000000000E+00 0.  1.
         11    1    3    3    0    0 -0.56179458244E+01 -0.94187333493E+01 -0.77870532262E+00  0.10994554808E+02  0.51100000000E-03 0. -1.
        -11    1    3    3    0    0 -0.33612046422E+02  0.14398274101E+02 -0.10039952124E+02  0.37919396102E+02  0.51100000000E-03 0.  1.
         12    1    3    3    0    0  0.39115205585E+02 -0.61401068546E+01  0.11000018359E+02  0.41093802744E+02  0.00000000000E+00 0. -1.
</event>
<event>
 7    1  0.2879200E-015  0.9000768E+02  0.7816164E-02  0.1186339E+00
        -11   -1    0    0    0    0  0.00000000000E+00  0.00000000000E+00  0.45593999997E+02  0.45594000000E+02  0.51100000000E-03 0.  1.
         11   -1    0    0    0    0 -0.00000000000E+00 -0.00000000000E+00 -0.45593999997E+02  0.45594000000E+02  0.51100000000E-03 0. -1.
    9900012    2    1    2    0    0 -0.28505091387E+00  0.65419016736E+00 -0.94018180735E+00  0.90007677743E+02  0.89999938290E+02 0.  0.
        -12    1    1    2    0    0  0.28505091387E+00 -0.65419016736E+00  0.94018180735E+00  0.11803222566E+01  0.00000000000E+00 0.  1.
         11    1    3    3    0    0 -0.99390767901E+01  0.10544962950E+02 -0.27299485112E+01  0.14745647161E+02  0.51100000000E-03 0. -1.
        -11    1    3    3    0    0  0.75863221118E+01  0.22399921412E+02  0.25777965631E+02  0.34983028383E+02  0.51100000000E-03 0.  1.
         12    1    3    3    0    0  0.20677037644E+01 -0.32290694195E+02 -0.23988198927E+02  0.40279002200E+02  0.00000000000E+00 0. -1.
</event>
<event>
 7    1  0.2879200E-015  0.9000781E+02  0.7816164E-02  0.1186339E+00
        -11   -1    0    0    0    0  0.00000000000E+00  0.00000000000E+00  0.45593999997E+02  0.45594000000E+02  0.51100000000E-03 0.  1.
         11   -1    0    0    0    0 -0.00000000000E+00 -0.00000000000E+00 -0.45593999997E+02  0.45594000000E+02  0.51100000000E-03 0. -1.
    9900012    2    1    2    0    0  0.10049633811E+01  0.60464235214E+00  0.13158921854E+00  0.90007805315E+02  0.90000067545E+02 0.  0.
        -12    1    1    2    0    0 -0.10049633811E+01 -0.60464235214E+00 -0.13158921854E+00  0.11801946847E+01  0.00000000000E+00 0.  1.
         11    1    3    3    0    0  0.17232748948E+02 -0.27944357706E+02 -0.25586869699E+02  0.41623823289E+02  0.51100000000E-03 0. -1.
        -11    1    3    3    0    0  0.47238105120E+01  0.13830623187E+02  0.49995004819E+01  0.15446537762E+02  0.51100000000E-03 0.  1.
        -12    1    3    3    0    0 -0.20951596079E+02  0.14718376871E+02  0.20718958436E+02  0.32937444264E+02  0.00000000000E+00 0.  1.
</event>
<event>
 7    1  0.2879200E-015  0.9000769E+02  0.7816164E-02  0.1186339E+00
        -11   -1    0    0    0    0  0.00000000000E+00  0.00000000000E+00  0.45593999997E+02  0.45594000000E+02  0.51100000000E-03 0. -1.
         11   -1    0    0    0    0 -0.00000000000E+00 -0.00000000000E+00 -0.45593999997E+02  0.45594000000E+02  0.51100000000E-03 0.  1.
    9900012    2    1    2    0    0 -0.54775300757E+00 -0.48162710142E+00  0.92797026135E+00  0.90007692062E+02  0.89999952797E+02 0.  0.
        -12    1    1    2    0    0  0.54775300757E+00  0.48162710142E+00 -0.92797026135E+00  0.11803079378E+01  0.00000000000E+00 0.  1.
         11    1    3    3    0    0  0.15532455050E+02 -0.13713519854E+02  0.29849034884E+02  0.36335694164E+02  0.51100000000E-03 0. -1.
        -11    1    3    3    0    0  0.18526346759E+01  0.14736671592E+02  0.46654045854E+01  0.15568164473E+02  0.51100000000E-03 0.  1.
        -12    1    3    3    0    0 -0.17932842733E+02 -0.15047788390E+01 -0.33586469208E+02  0.38103833425E+02  0.00000000000E+00 0.  1.
</event>
<event>
 7    1  0.2879200E-015  0.9000758E+02  0.7816164E-02  0.1186339E+00
        -11   -1    0    0    0    0  0.00000000000E+00  0.00000000000E+00  0.45593999997E+02  0.45594000000E+02  0.51100000000E-03 0.  1.
         11   -1    0    0    0    0 -0.00000000000E+00 -0.00000000000E+00 -0.45593999997E+02  0.45594000000E+02  0.51100000000E-03 0. -1.
    9900012    2    1    2    0    0  0.64718857317E+00 -0.85355402212E+00 -0.49597133955E+00  0.90007578428E+02  0.89999837663E+02 0.  0.
        -12    1    1    2    0    0 -0.64718857317E+00  0.85355402212E+00  0.49597133955E+00  0.11804215720E+01  0.00000000000E+00 0.  1.
         11    1    3    3    0    0  0.19258860023E+02  0.31992750866E+02  0.41478950614E+01  0.37571862225E+02  0.51100000000E-03 0. -1.
        -11    1    3    3    0    0 -0.11318126983E+01  0.78245785376E+01  0.16061420205E+00  0.79076435464E+01  0.51100000000E-03 0.  1.
        -12    1    3    3    0    0 -0.17479858751E+02 -0.40670883426E+02 -0.48044806030E+01  0.44528072656E+02  0.00000000000E+00 0.  1.
</event>
<event>
 7    1  0.2879200E-015  0.9000772E+02  0.7816164E-02  0.1186339E+00
        -11   -1    0    0    0    0  0.00000000000E+00  0.00000000000E+00  0.45593999997E+02  0.45594000000E+02  0.51100000000E-03 0. -1.
         11   -1    0    0    0    0 -0.00000000000E+00 -0.00000000000E+00 -0.45593999997E+02  0.45594000000E+02  0.51100000000E-03 0.  1.
    9900012    2    1    2    0    0 -0.17612055768E+00  0.96303398289E+00  0.65925228324E+00  0.90007717629E+02  0.89999978701E+02 0.  0.
        -12    1    1    2    0    0  0.17612055768E+00 -0.96303398289E+00 -0.65925228324E+00  0.11802823713E+01  0.00000000000E+00 0.  1.
         11    1    3    3    0    0 -0.47122564907E+01 -0.25359849608E+01 -0.21954091833E+01  0.57841509921E+01  0.51100000000E-03 0. -1.
        -11    1    3    3    0    0  0.17995188182E+02 -0.33214388094E+02 -0.15741059798E+02  0.40924361180E+02  0.51100000000E-03 0.  1.
         12    1    3    3    0    0 -0.13459052249E+02  0.36713407038E+02  0.18595721265E+02  0.43299205456E+02  0.00000000000E+00 0. -1.
</event>
<event>
 7    1  0.2879200E-015  0.9000760E+02  0.7816164E-02  0.1186339E+00
        -11   -1    0    0    0    0  0.00000000000E+00  0.00000000000E+00  0.45593999997E+02  0.45594000000E+02  0.51100000000E-03 0.  1.
         11   -1    0    0    0    0 -0.00000000000E+00 -0.00000000000E+00 -0.45593999997E+02  0.45594000000E+02  0.51100000000E-03 0. -1.
    9900012    2    1    2    0    0 -0.11324211901E+00 -0.60791181261E+00  0.10054702934E+01  0.90007597077E+02  0.89999856558E+02 0.  0.
        -12    1    1    2    0    0  0.11324211901E+00  0.60791181261E+00 -0.10054702934E+01  0.11804029228E+01  0.00000000000E+00 0.  1.
         11    1    3    3    0    0  0.43342145889E+01  0.34871810328E+02  0.60765993931E+01  0.35661654926E+02  0.51100000000E-03 0. -1.
        -11    1    3    3    0    0  0.51187818790E+00  0.36365624482E+01 -0.13529867858E+02  0.14019412620E+02  0.51100000000E-03 0.  1.
        -12    1    3    3    0    0 -0.49593348958E+01 -0.39116284588E+02  0.84587387577E+01  0.40326529531E+02  0.00000000000E+00 0.  1.
</event>
<event>
 7    1  0.2879200E-015  0.9000774E+02  0.7816164E-02  0.1186339E+00
        -11   -1    0    0    0    0  0.00000000000E+00  0.00000000000E+00  0.45593999997E+02  0.45594000000E+02  0.51100000000E-03 0.  1.
         11   -1    0    0    0    0 -0.00000000000E+00 -0.00000000000E+00 -0.45593999997E+02  0.45594000000E+02  0.51100000000E-03 0. -1.
    9900012    2    1    2    0    0  0.32274201594E+00 -0.11252021776E+01 -0.15089292723E+00  0.90007741120E+02  0.90000002502E+02 0.  0.
        -12    1    1    2    0    0 -0.32274201594E+00  0.11252021776E+01  0.15089292723E+00  0.11802588804E+01  0.00000000000E+00 0.  1.
         11    1    3    3    0    0  0.85076038699E+01  0.31015190369E+01 -0.17806918486E+01  0.92287381404E+01  0.51100000000E-03 0. -1.
        -11    1    3    3    0    0  0.66250913623E+01  0.21500078038E+02  0.31472260638E+02  0.38686540051E+02  0.51100000000E-03 0.  1.
         12    1    3    3    0    0 -0.14809953216E+02 -0.25726799253E+02 -0.29842461716E+02  0.42092462928E+02  0.00000000000E+00 0. -1.
</event>
<event>
 7    1  0.2879200E-015  0.9000642E+02  0.7816164E-02  0.1186342E+00
        -11   -1    0    0    0    0  0.00000000000E+00  0.00000000000E+00  0.45593999997E+02  0.45594000000E+02  0.51100000000E-03 0.  1.
         11   -1    0    0    0    0 -0.00000000000E+00 -0.00000000000E+00 -0.45593999997E+02  0.45594000000E+02  0.51100000000E-03 0. -1.
    9900012    2    1    2    0    0  0.82260825560E-01 -0.73760142381E+00 -0.91940509417E+00  0.90006421213E+02  0.89998665163E+02 0.  0.
        -12    1    1    2    0    0 -0.82260825560E-01  0.73760142381E+00  0.91940509417E+00  0.11815787875E+01  0.00000000000E+00 0.  1.
         11    1    3    3    0    0 -0.18294289902E+02  0.26799784886E+02 -0.61838407437E+01  0.33032550607E+02  0.51100000000E-03 0. -1.
        -11    1    3    3    0    0 -0.11865202234E+02 -0.13271007820E+02 -0.97755946590E+01  0.20309232477E+02  0.51100000000E-03 0.  1.
        -12    1    3    3    0    0  0.30241752962E+02 -0.14266378490E+02  0.15040030309E+02  0.36664638129E+02  0.00000000000E+00 0.  1.
</event>
<event>
 7    1  0.2879200E-015  0.9000769E+02  0.7816164E-02  0.1186339E+00
        -11   -1    0    0    0    0  0.00000000000E+00  0.00000000000E+00  0.45593999997E+02  0.45594000000E+02  0.51100000000E-03 0. -1.
         11   -1    0    0    0    0 -0.00000000000E+00 -0.00000000000E+00 -0.45593999997E+02  0.45594000000E+02  0.51100000000E-03 0.  1.
    9900012    2    1    2    0    0  0.97907980490E-01 -0.11658974769E+01  0.15568318842E+00  0.90007686417E+02  0.89999947078E+02 0.  0.
        -12    1    1    2    0    0 -0.97907980490E-01  0.11658974769E+01 -0.15568318842E+00  0.11803135831E+01  0.00000000000E+00 0.  1.
         11    1    3    3    0    0  0.12414962626E+02  0.20604142548E+01 -0.30880264751E+01  0.12958106022E+02  0.51100000000E-03 0. -1.
        -11    1    3    3    0    0 -0.76625813426E+01  0.28129905884E+02 -0.22001980086E+02  0.36525249977E+02  0.51100000000E-03 0.  1.
         12    1    3    3    0    0 -0.46544733025E+01 -0.31356217616E+02  0.25245689750E+02  0.40524330418E+02  0.00000000000E+00 0. -1.
</event>
<event>
 7    1  0.2879200E-015  0.9000760E+02  0.7816164E-02  0.1186339E+00
        -11   -1    0    0    0    0  0.00000000000E+00  0.00000000000E+00  0.45593999997E+02  0.45594000000E+02  0.51100000000E-03 0.  1.
         11   -1    0    0    0    0 -0.00000000000E+00 -0.00000000000E+00 -0.45593999997E+02  0.45594000000E+02  0.51100000000E-03 0. -1.
    9900012    2    1    2    0    0  0.10515442446E+01  0.31455734966E+00 -0.43433546597E+00  0.90007602219E+02  0.89999861768E+02 0.  0.
        -12    1    1    2    0    0 -0.10515442446E+01 -0.31455734966E+00  0.43433546597E+00  0.11803977811E+01  0.00000000000E+00 0.  1.
         11    1    3    3    0    0  0.70220345704E+01  0.38790946621E+02 -0.16327569090E+02  0.42668911656E+02  0.51100000000E-03 0. -1.
        -11    1    3    3    0    0  0.57972589673E+01 -0.20928167872E+01  0.37636914494E+01  0.72217357489E+01  0.51100000000E-03 0.  1.
        -12    1    3    3    0    0 -0.11767749293E+02 -0.36383572484E+02  0.12129542175E+02  0.40116954814E+02  0.00000000000E+00 0.  1.
</event>
<event>
 7    1  0.2879200E-015  0.9000774E+02  0.7816164E-02  0.1186339E+00
        -11   -1    0    0    0    0  0.00000000000E+00  0.00000000000E+00  0.45593999997E+02  0.45594000000E+02  0.51100000000E-03 0.  1.
         11   -1    0    0    0    0 -0.00000000000E+00 -0.00000000000E+00 -0.45593999997E+02  0.45594000000E+02  0.51100000000E-03 0. -1.
    9900012    2    1    2    0    0 -0.92603703825E+00  0.48531521347E+00 -0.54766304173E+00  0.90007741444E+02  0.90000002831E+02 0.  0.
        -12    1    1    2    0    0  0.92603703825E+00 -0.48531521347E+00  0.54766304173E+00  0.11802585564E+01  0.00000000000E+00 0.  1.
         11    1    3    3    0    0  0.38163462603E+01  0.34740673525E+01  0.76902805520E+01  0.92614285064E+01  0.51100000000E-03 0. -1.
        -11    1    3    3    0    0  0.30369159327E+02  0.24956764515E+01  0.19053988196E+02  0.35938401545E+02  0.51100000000E-03 0.  1.
         12    1    3    3    0    0 -0.35111542626E+02 -0.54844285906E+01 -0.27291931789E+02  0.44807911392E+02  0.00000000000E+00 0. -1.
</event>
<event>
 7    1  0.2879200E-015  0.9000771E+02  0.7816164E-02  0.1186339E+00
        -11   -1    0    0    0    0  0.00000000000E+00  0.00000000000E+00  0.45593999997E+02  0.45594000000E+02  0.51100000000E-03 0. -1.
         11   -1    0    0    0    0 -0.00000000000E+00 -0.00000000000E+00 -0.45593999997E+02  0.45594000000E+02  0.51100000000E-03 0.  1.
    9900012    2    1    2    0    0  0.76385965428E+00  0.79707522205E+00  0.41744930037E+00  0.90007714272E+02  0.89999975301E+02 0.  0.
        -12    1    1    2    0    0 -0.76385965428E+00 -0.79707522205E+00 -0.41744930037E+00  0.11802857279E+01  0.00000000000E+00 0.  1.
         11    1    3    3    0    0  0.68651279056E+01  0.29339518520E+01 -0.69743864518E+01  0.10216659007E+02  0.51100000000E-03 0. -1.
        -11    1    3    3    0    0 -0.92384763880E+01  0.38037026772E+02  0.30472037144E+01  0.39261307955E+02  0.51100000000E-03 0.  1.
         12    1    3    3    0    0  0.31372081367E+01 -0.40173903402E+02  0.43446320378E+01  0.40529747310E+02  0.00000000000E+00 0. -1.
</event>
<event>
 7    1  0.2879200E-015  0.9000776E+02  0.7816164E-02  0.1186339E+00
        -11   -1    0    0    0    0  0.00000000000E+00  0.00000000000E+00  0.45593999997E+02  0.45594000000E+02  0.51100000000E-03 0. -1.
         11   -1    0    0    0    0 -0.00000000000E+00 -0.00000000000E+00 -0.45593999997E+02  0.45594000000E+02  0.51100000000E-03 0.  1.
    9900012    2    1    2    0    0 -0.73219920363E+00  0.85006763243E+00  0.36637887253E+00  0.90007760985E+02  0.90000022630E+02 0.  0.
        -12    1    1    2    0    0  0.73219920363E+00 -0.85006763243E+00 -0.36637887253E+00  0.11802390147E+01  0.00000000000E+00 0.  1.
         11    1    3    3    0    0  0.12023152908E+01  0.47176902777E+00 -0.86317429271E+01  0.87278356019E+01  0.51100000000E-03 0. -1.
        -11    1    3    3    0    0  0.39010468000E+02  0.35091039243E+01 -0.32957260854E+00  0.39169363568E+02  0.51100000000E-03 0.  1.
         12    1    3    3    0    0 -0.40944982495E+02 -0.31308053196E+01  0.93276944081E+01  0.42110561815E+02  0.00000000000E+00 0. -1.
</event>
<event>
 7    1  0.2879200E-015  0.9000711E+02  0.7816164E-02  0.1186340E+00
        -11   -1    0    0    0    0  0.00000000000E+00  0.00000000000E+00  0.45593999997E+02  0.45594000000E+02  0.51100000000E-03 0. -1.
         11   -1    0    0    0    0 -0.00000000000E+00 -0.00000000000E+00 -0.45593999997E+02  0.45594000000E+02  0.51100000000E-03 0.  1.
    9900012    2    1    2    0    0 -0.23570293055E+00 -0.76409286617E+00  0.86897038470E+00  0.90007109104E+02  0.89999362142E+02 0.  0.
        -12    1    1    2    0    0  0.23570293055E+00  0.76409286617E+00 -0.86897038470E+00  0.11808908964E+01  0.00000000000E+00 0.  1.
         11    1    3    3    0    0 -0.16412032882E+02  0.21926265145E+02  0.24915101954E+02  0.37025372816E+02  0.51100000000E-03 0. -1.
        -11    1    3    3    0    0 -0.10762773159E+02 -0.68343618588E+01  0.11934366274E+01  0.12805080216E+02  0.51100000000E-03 0.  1.
        -12    1    3    3    0    0  0.26939103110E+02 -0.15855996153E+02 -0.25239568196E+02  0.40176656072E+02  0.00000000000E+00 0.  1.
</event>
<event>
 7    1  0.2879200E-015  0.9000762E+02  0.7816164E-02  0.1186339E+00
        -11   -1    0    0    0    0  0.00000000000E+00  0.00000000000E+00  0.45593999997E+02  0.45594000000E+02  0.51100000000E-03 0.  1.
         11   -1    0    0    0    0 -0.00000000000E+00 -0.00000000000E+00 -0.45593999997E+02  0.45594000000E+02  0.51100000000E-03 0. -1.
    9900012    2    1    2    0    0  0.68097323108E+00  0.18118106940E+00 -0.94696214973E+00  0.90007623605E+02  0.89999883436E+02 0.  0.
        -12    1    1    2    0    0 -0.68097323108E+00 -0.18118106940E+00  0.94696214973E+00  0.11803763952E+01  0.00000000000E+00 0.  1.
         11    1    3    3    0    0 -0.12179143434E+01 -0.98936872812E+01 -0.26073870789E+01  0.10303728985E+02  0.51100000000E-03 0. -1.
        -11    1    3    3    0    0  0.28786749849E+02  0.17135976998E+02  0.26272954700E+02  0.42574485592E+02  0.51100000000E-03 0.  1.
         12    1    3    3    0    0 -0.26887862274E+02 -0.70611086469E+01 -0.24612529770E+02  0.37129409027E+02  0.00000000000E+00 0. -1.
</event>
<event>
 7    1  0.2879200E-015  0.9000776E+02  0.7816164E-02  0.1186339E+00
        -11   -1    0    0    0    0  0.00000000000E+00  0.00000000000E+00  0.45593999997E+02  0.45594000000E+02  0.51100000000E-03 0. -1.
         11   -1    0    0    0    0 -0.00000000000E+00 -0.00000000000E+00 -0.45593999997E+02  0.45594000000E+02  0.51100000000E-03 0.  1.
    9900012    2    1    2    0    0  0.99582533578E+00  0.62858956507E+00 -0.78540268873E-01  0.90007762094E+02  0.90000023754E+02 0.  0.
        -12    1    1    2    0    0 -0.99582533578E+00 -0.62858956507E+00  0.78540268873E-01  0.11802379059E+01  0.00000000000E+00 0.  1.
         11    1    3    3    0    0  0.45688924720E+01  0.87427833020E+01  0.41432412974E+02  0.42590560966E+02  0.51100000000E-03 0. -1.
        -11    1    3    3    0    0 -0.67123357023E+00 -0.89031145234E+01 -0.39958396968E+01  0.97817553571E+01  0.51100000000E-03 0.  1.
        -12    1    3    3    0    0 -0.29018335660E+01  0.78892078646E+00 -0.37515113546E+02  0.37635445771E+02  0.00000000000E+00 0.  1.
</event>
<event>
 7    1  0.2879200E-015  0.9000770E+02  0.7816164E-02  0.1186339E+00
        -11   -1    0    0    0    0  0.00000000000E+00  0.00000000000E+00  0.45593999997E+02  0.45594000000E+02  0.51100000000E-03 0. -1.
         11   -1    0    0    0    0 -0.00000000000E+00 -0.00000000000E+00 -0.45593999997E+02  0.45594000000E+02  0.51100000000E-03 0.  1.
    9900012    2    1    2    0    0  0.48494381291E+00  0.78109630568E+00  0.74014647814E+00  0.90007703957E+02  0.89999964849E+02 0.  0.
        -12    1    1    2    0    0 -0.48494381291E+00 -0.78109630568E+00 -0.74014647814E+00  0.11802960432E+01  0.00000000000E+00 0.  1.
         11    1    3    3    0    0  0.66748039020E+01  0.26519773924E+01 -0.74338865596E+01  0.10336762591E+02  0.51100000000E-03 0. -1.
        -11    1    3    3    0    0 -0.13458657310E+02  0.36423874900E+02 -0.34828228077E+01  0.38986717921E+02  0.51100000000E-03 0.  1.
         12    1    3    3    0    0  0.72687972211E+01 -0.38294755986E+02  0.11656855845E+02  0.40684223445E+02  0.00000000000E+00 0. -1.
</event>
<event>
 7    1  0.2879200E-015  0.9000773E+02  0.7816164E-02  0.1186339E+00
        -11   -1    0    0    0    0  0.00000000000E+00  0.00000000000E+00  0.45593999997E+02  0.45594000000E+02  0.51100000000E-03 0.  1.
         11   -1    0    0    0    0 -0.00000000000E+00 -0.00000000000E+00 -0.45593999997E+02  0.45594000000E+02  0.51100000000E-03 0. -1.
    9900012    2    1    2    0    0  0.49544420152E+00  0.71465429356E+00 -0.79802905951E+00  0.90007726262E+02  0.89999987449E+02 0.  0.
        -12    1    1    2    0    0 -0.49544420152E+00 -0.71465429356E+00  0.79802905951E+00  0.11802737377E+01  0.00000000000E+00 0.  1.
         11    1    3    3    0    0 -0.50826202973E+01 -0.59517127579E+01  0.51090550447E+01  0.93465692931E+01  0.51100000000E-03 0. -1.
        -11    1    3    3    0    0  0.21282540591E+02  0.11790811884E+02  0.31480419996E+02  0.39786764411E+02  0.51100000000E-03 0.  1.
         12    1    3    3    0    0 -0.15704476093E+02 -0.51244448329E+01 -0.37387504100E+02  0.40874392558E+02  0.00000000000E+00 0. -1.
</event>
<event>
 7    1  0.2879200E-015  0.9000776E+02  0.7816164E-02  0.1186339E+00
        -11   -1    0    0    0    0  0.00000000000E+00  0.00000000000E+00  0.45593999997E+02  0.45594000000E+02  0.51100000000E-03 0. -1.
         11   -1    0    0    0    0 -0.00000000000E+00 -0.00000000000E+00 -0.45593999997E+02  0.45594000000E+02  0.51100000000E-03 0.  1.
    9900012    2    1    2    0    0 -0.83802814654E-01 -0.11637485972E+01  0.17787348503E+00  0.90007757361E+02  0.90000018959E+02 0.  0.
        -12    1    1    2    0    0  0.83802814654E-01  0.11637485972E+01 -0.17787348503E+00  0.11802426386E+01  0.00000000000E+00 0.  1.
         11    1    3    3    0    0 -0.24947516155E+01  0.38923954969E+00 -0.11348707274E+02  0.11626196717E+02  0.51100000000E-03 0. -1.
        -11    1    3    3    0    0  0.33428280591E+02  0.14446454570E+02  0.21235472997E+02  0.42155608246E+02  0.51100000000E-03 0.  1.
         12    1    3    3    0    0 -0.31017331790E+02 -0.15999442717E+02 -0.97088922380E+01  0.36225952398E+02  0.00000000000E+00 0. -1.
</event>
<event>
 7    1  0.2879200E-015  0.9000781E+02  0.7816164E-02  0.1186339E+00
        -11   -1    0    0    0    0  0.00000000000E+00  0.00000000000E+00  0.45593999997E+02  0.45594000000E+02  0.51100000000E-03 0. -1.
         11   -1    0    0    0    0 -0.00000000000E+00 -0.00000000000E+00 -0.45593999997E+02  0.45594000000E+02  0.51100000000E-03 0.  1.
    9900012    2    1    2    0    0  0.62509582231E+00  0.94452314065E+00 -0.33161499231E+00  0.90007814738E+02  0.90000077092E+02 0.  0.
        -12    1    1    2    0    0 -0.62509582231E+00 -0.94452314065E+00  0.33161499231E+00  0.11801852623E+01  0.00000000000E+00 0.  1.
         11    1    3    3    0    0  0.10698694840E+01  0.11450082569E+02  0.39216683378E+02  0.40868047017E+02  0.51100000000E-03 0. -1.
        -11    1    3    3    0    0 -0.23996251822E+01  0.78144216104E+01 -0.40000157211E+01  0.91007423956E+01  0.51100000000E-03 0.  1.
        -12    1    3    3    0    0  0.19548515205E+01 -0.18319981039E+02 -0.35548282649E+02  0.40039025325E+02  0.00000000000E+00 0.  1.
</event>
<event>
 7    1  0.2879200E-015  0.9000769E+02  0.7816164E-02  0.1186339E+00
        -11   -1    0    0    0    0  0.00000000000E+00  0.00000000000E+00  0.45593999997E+02  0.45594000000E+02  0.51100000000E-03 0.  1.
         11   -1    0    0    0    0 -0.00000000000E+00 -0.00000000000E+00 -0.45593999997E+02  0.45594000000E+02  0.51100000000E-03 0. -1.
    9900012    2    1    2    0    0  0.10444024776E+01  0.43228095983E+00 -0.33983440022E+00  0.90007690387E+02  0.89999951100E+02 0.  0.
        -12    1    1    2    0    0 -0.10444024776E+01 -0.43228095983E+00  0.33983440022E+00  0.11803096132E+01  0.00000000000E+00 0.  1.
         11    1    3    3    0    0 -0.88332038666E+01  0.33411554367E+01 -0.54711131478E+01  0.10914297483E+02  0.51100000000E-03 0. -1.
        -11    1    3    3    0    0 -0.86417314820E+01  0.61696349370E+01  0.38460182755E+02  0.39898992169E+02  0.51100000000E-03 0.  1.
         12    1    3    3    0    0  0.18519337826E+02 -0.90785094139E+01 -0.33328904007E+02  0.39194400736E+02  0.00000000000E+00 0. -1.
</event>
<event>
 7    1  0.2879200E-015  0.9000777E+02  0.7816164E-02  0.1186339E+00
        -11   -1    0    0    0    0  0.00000000000E+00  0.00000000000E+00  0.45593999997E+02  0.45594000000E+02  0.51100000000E-03 0. -1.
         11   -1    0    0    0    0 -0.00000000000E+00 -0.00000000000E+00 -0.45593999997E+02  0.45594000000E+02  0.51100000000E-03 0.  1.
    9900012    2    1    2    0    0  0.59196066893E+00  0.95462277423E+00  0.36223720367E+00  0.90007772113E+02  0.90000033904E+02 0.  0.
        -12    1    1    2    0    0 -0.59196066893E+00 -0.95462277423E+00 -0.36223720367E+00  0.11802278875E+01  0.00000000000E+00 0.  1.
         11    1    3    3    0    0 -0.76828519836E+01  0.29694347332E+02 -0.19122587261E+02  0.36144900358E+02  0.51100000000E-03 0. -1.
        -11    1    3    3    0    0 -0.89889216482E+01  0.10462502706E+01 -0.61485278555E+01  0.10940737959E+02  0.51100000000E-03 0.  1.
        -12    1    3    3    0    0  0.17263734301E+02 -0.29785974828E+02  0.25633352320E+02  0.42922133796E+02  0.00000000000E+00 0.  1.
</event>
<event>
 7    1  0.2879200E-015  0.9000780E+02  0.7816164E-02  0.1186339E+00
        -11   -1    0    0    0    0  0.00000000000E+00  0.00000000000E+00  0.45593999997E+02  0.45594000000E+02  0.51100000000E-03 0.  1.
         11   -1    0    0    0    0 -0.00000000000E+00 -0.00000000000E+00 -0.45593999997E+02  0.45594000000E+02  0.51100000000E-03 0. -1.
    9900012    2    1    2    0    0  0.39409740351E+00 -0.48960694468E+00 -0.99891867504E+00  0.90007802456E+02  0.90000064648E+02 0.  0.
        -12    1    1    2    0    0 -0.39409740351E+00  0.48960694468E+00  0.99891867504E+00  0.11801975441E+01  0.00000000000E+00 0.  1.
         11    1    3    3    0    0 -0.55192274765E+01 -0.74990446054E+01  0.43966676782E+01  0.10297000965E+02  0.51100000000E-03 0. -1.
        -11    1    3    3    0    0  0.13743872875E+01 -0.34942588520E+02  0.71404848401E+01  0.35691174776E+02  0.51100000000E-03 0.  1.
         12    1    3    3    0    0  0.45389375925E+01  0.41952026181E+02 -0.12536071193E+02  0.44019626715E+02  0.00000000000E+00 0. -1.
</event>
<event>
 7    1  0.2879200E-015  0.9000765E+02  0.7816164E-02  0.1186339E+00
        -11   -1    0    0    0    0  0.00000000000E+00  0.00000000000E+00  0.45593999997E+02  0.45594000000E+02  0.51100000000E-03 0. -1.
         11   -1    0    0    0    0 -0.00000000000E+00 -0.00000000000E+00 -0.45593999997E+02  0.45594000000E+02  0.51100000000E-03 0.  1.
    9900012    2    1    2    0    0 -0.68546946159E+00  0.51081160575E+00  0.81390383689E+00  0.90007645674E+02  0.89999905797E+02 0.  0.
        -12    1    1    2    0    0  0.68546946159E+00 -0.51081160575E+00 -0.81390383689E+00  0.11803543261E+01  0.00000000000E+00 0.  1.
         11    1    3    3    0    0  0.85759616194E+01  0.64975541733E+01  0.69106437184E+01  0.12787584791E+02  0.51100000000E-03 0. -1.
        -11    1    3    3    0    0  0.44278952239E+00  0.31540618233E+02 -0.18442780137E+02  0.36539605917E+02  0.51100000000E-03 0.  1.
         12    1    3    3    0    0 -0.97042206033E+01 -0.37527360801E+02  0.12346040256E+02  0.40680454966E+02  0.00000000000E+00 0. -1.
</event>
<event>
 7    1  0.2879200E-015  0.9000773E+02  0.7816164E-02  0.1186339E+00
        -11   -1    0    0    0    0  0.00000000000E+00  0.00000000000E+00  0.45593999997E+02  0.45594000000E+02  0.51100000000E-03 0. -1.
         11   -1    0    0    0    0 -0.00000000000E+00 -0.00000000000E+00 -0.45593999997E+02  0.45594000000E+02  0.51100000000E-03 0.  1.
    9900012    2    1    2    0    0 -0.63402207044E+00  0.99248625231E+00  0.77650583242E-01  0.90007727760E+02  0.89999988967E+02 0.  0.
        -12    1    1    2    0    0  0.63402207044E+00 -0.99248625231E+00 -0.77650583242E-01  0.11802722397E+01  0.00000000000E+00 0.  1.
         11    1    3    3    0    0 -0.80229445067E+01  0.41639140963E+01  0.41455304497E+01  0.99444075806E+01  0.51100000000E-03 0. -1.
        -11    1    3    3    0    0  0.19075696059E+02 -0.34221007636E+02  0.14819343475E+02  0.41887617324E+02  0.51100000000E-03 0.  1.
         12    1    3    3    0    0 -0.11686773623E+02  0.31049579792E+02 -0.18887223342E+02  0.38175702856E+02  0.00000000000E+00 0. -1.
</event>
<event>
 7    1  0.2879200E-015  0.9000769E+02  0.7816164E-02  0.1186339E+00
        -11   -1    0    0    0    0  0.00000000000E+00  0.00000000000E+00  0.45593999997E+02  0.45594000000E+02  0.51100000000E-03 0.  1.
         11   -1    0    0    0    0 -0.00000000000E+00 -0.00000000000E+00 -0.45593999997E+02  0.45594000000E+02  0.51100000000E-03 0. -1.
    9900012    2    1    2    0    0 -0.39748431313E+00 -0.39101761189E+00 -0.10403110115E+01  0.90007688366E+02  0.89999949053E+02 0.  0.
        -12    1    1    2    0    0  0.39748431313E+00  0.39101761189E+00  0.10403110115E+01  0.11803116337E+01  0.00000000000E+00 0.  1.
         11    1    3    3    0    0  0.16277322299E+02  0.32902485993E+02 -0.96518450106E+01  0.37956329092E+02  0.51100000000E-03 0. -1.
        -11    1    3    3    0    0  0.86484706139E+01  0.63986132604E+00  0.36935813386E+01  0.94259222277E+01  0.51100000000E-03 0.  1.
        -12    1    3    3    0    0 -0.25323277226E+02 -0.33933364931E+02  0.49179526605E+01  0.42625437047E+02  0.00000000000E+00 0.  1.
</event>
<event>
 7    1  0.2879200E-015  0.9000767E+02  0.7816164E-02  0.1186339E+00
        -11   -1    0    0    0    0  0.00000000000E+00  0.00000000000E+00  0.45593999997E+02  0.45594000000E+02  0.51100000000E-03 0. -1.
         11   -1    0    0    0    0 -0.00000000000E+00 -0.00000000000E+00 -0.45593999997E+02  0.45594000000E+02  0.51100000000E-03 0.  1.
    9900012    2    1    2    0    0  0.26852229071E+00  0.39939337695E+00 -0.10777556798E+01  0.90007670980E+02  0.89999931437E+02 0.  0.
        -12    1    1    2    0    0 -0.26852229071E+00 -0.39939337695E+00  0.10777556798E+01  0.11803290200E+01  0.00000000000E+00 0.  1.
         11    1    3    3    0    0 -0.66893837458E+00  0.56009690990E+01  0.86442368977E+01  0.10321877988E+02  0.51100000000E-03 0. -1.
        -11    1    3    3    0    0 -0.90432987532E+01  0.11381385847E+01  0.33581800424E+02  0.34796751741E+02  0.51100000000E-03 0.  1.
         12    1    3    3    0    0  0.99807594185E+01 -0.63397143068E+01 -0.43303793002E+02  0.44889041250E+02  0.00000000000E+00 0. -1.
</event>
<event>
 7    1  0.2879200E-015  0.9000776E+02  0.7816164E-02  0.1186339E+00
        -11   -1    0    0    0    0  0.00000000000E+00  0.00000000000E+00  0.45593999997E+02  0.45594000000E+02  0.51100000000E-03 0. -1.
         11   -1    0    0    0    0 -0.00000000000E+00 -0.00000000000E+00 -0.45593999997E+02  0.45594000000E+02  0.51100000000E-03 0.  1.
    9900012    2    1    2    0    0 -0.11577126039E+01 -0.18797887582E+00  0.13160614590E+00  0.90007764977E+02  0.90000026675E+02 0.  0.
        -12    1    1    2    0    0  0.11577126039E+01  0.18797887582E+00 -0.13160614590E+00  0.11802350227E+01  0.00000000000E+00 0.  1.
         11    1    3    3    0    0  0.52200793335E+01  0.79643921251E+01 -0.13888187571E+01  0.96233875518E+01  0.51100000000E-03 0. -1.
        -11    1    3    3    0    0  0.29024370600E+02 -0.27337537765E+02  0.38071883175E+01  0.40053086559E+02  0.51100000000E-03 0.  1.
         12    1    3    3    0    0 -0.35402162537E+02  0.19185166764E+02 -0.22867634144E+01  0.40331290867E+02  0.00000000000E+00 0. -1.
</event>
<event>
 7    1  0.2879200E-015  0.9000776E+02  0.7816164E-02  0.1186339E+00
        -11   -1    0    0    0    0  0.00000000000E+00  0.00000000000E+00  0.45593999997E+02  0.45594000000E+02  0.51100000000E-03 0. -1.
         11   -1    0    0    0    0 -0.00000000000E+00 -0.00000000000E+00 -0.45593999997E+02  0.45594000000E+02  0.51100000000E-03 0.  1.
    9900012    2    1    2    0    0  0.84801623445E+00 -0.26143473773E+00  0.77813127470E+00  0.90007759373E+02  0.90000020997E+02 0.  0.
        -12    1    1    2    0    0 -0.84801623445E+00  0.26143473773E+00 -0.77813127470E+00  0.11802406266E+01  0.00000000000E+00 0.  1.
         11    1    3    3    0    0 -0.23340177911E+01  0.89920948627E+00  0.87290436286E+01  0.90803314741E+01  0.51100000000E-03 0. -1.
        -11    1    3    3    0    0 -0.54791409785E+01  0.38382004849E+02 -0.11089437728E+02  0.40325859091E+02  0.51100000000E-03 0.  1.
         12    1    3    3    0    0  0.86611750040E+01 -0.39542649073E+02  0.31385253740E+01  0.40601568808E+02  0.00000000000E+00 0. -1.
</event>
<event>
 7    1  0.2879200E-015  0.9000711E+02  0.7816164E-02  0.1186340E+00
        -11   -1    0    0    0    0  0.00000000000E+00  0.00000000000E+00  0.45593999997E+02  0.45594000000E+02  0.51100000000E-03 0. -1.
         11   -1    0    0    0    0 -0.00000000000E+00 -0.00000000000E+00 -0.45593999997E+02  0.45594000000E+02  0.51100000000E-03 0.  1.
    9900012    2    1    2    0    0 -0.86861976243E-01  0.11710924340E+01  0.12453666408E+00  0.90007105478E+02  0.89999358468E+02 0.  0.
        -12    1    1    2    0    0  0.86861976243E-01 -0.11710924340E+01 -0.12453666408E+00  0.11808945222E+01  0.00000000000E+00 0.  1.
         11    1    3    3    0    0 -0.39951721743E+01 -0.82821905010E+01  0.33034817434E+01  0.97708276051E+01  0.51100000000E-03 0. -1.
        -11    1    3    3    0    0 -0.33920713941E+02  0.53986076397E+01 -0.18744599335E+02  0.39129525977E+02  0.51100000000E-03 0.  1.
         12    1    3    3    0    0  0.37829024139E+02  0.40546752954E+01  0.15565654255E+02  0.41106751896E+02  0.00000000000E+00 0. -1.
</event>
<event>
 7    1  0.2879200E-015  0.9000772E+02  0.7816164E-02  0.1186339E+00
        -11   -1    0    0    0    0  0.00000000000E+00  0.00000000000E+00  0.45593999997E+02  0.45594000000E+02  0.51100000000E-03 0. -1.
         11   -1    0    0    0    0 -0.00000000000E+00 -0.00000000000E+00 -0.45593999997E+02  0.45594000000E+02  0.51100000000E-03 0.  1.
    9900012    2    1    2    0    0  0.56895280472E+00  0.19596227007E+00  0.10153600190E+01  0.90007718477E+02  0.89999979561E+02 0.  0.
        -12    1    1    2    0    0 -0.56895280472E+00 -0.19596227007E+00 -0.10153600190E+01  0.11802815229E+01  0.00000000000E+00 0.  1.
         11    1    3    3    0    0 -0.21969930447E+01 -0.12062603467E+02  0.38637812324E+02  0.40536572651E+02  0.51100000000E-03 0. -1.
        -11    1    3    3    0    0 -0.97938934315E+01  0.41743533440E+01 -0.19846996528E+01  0.10829801815E+02  0.51100000000E-03 0.  1.
        -12    1    3    3    0    0  0.12559839281E+02  0.80842123936E+01 -0.35637752653E+02  0.38641344010E+02  0.00000000000E+00 0.  1.
</event>
<event>
 7    1  0.2879200E-015  0.9000771E+02  0.7816164E-02  0.1186339E+00
        -11   -1    0    0    0    0  0.00000000000E+00  0.00000000000E+00  0.45593999997E+02  0.45594000000E+02  0.51100000000E-03 0. -1.
         11   -1    0    0    0    0 -0.00000000000E+00 -0.00000000000E+00 -0.45593999997E+02  0.45594000000E+02  0.51100000000E-03 0.  1.
    9900012    2    1    2    0    0 -0.11901869281E+00  0.97217622936E+00 -0.65863743481E+00  0.90007705401E+02  0.89999966312E+02 0.  0.
        -12    1    1    2    0    0  0.11901869281E+00 -0.97217622936E+00  0.65863743481E+00  0.11802945991E+01  0.00000000000E+00 0.  1.
         11    1    3    3    0    0 -0.16667564291E+02 -0.27196365295E+02 -0.17569278775E+02  0.36416061588E+02  0.51100000000E-03 0. -1.
        -11    1    3    3    0    0 -0.76062801093E+01 -0.47116509662E+01  0.76099386869E+01  0.11745906479E+02  0.51100000000E-03 0.  1.
        -12    1    3    3    0    0  0.24154825707E+02  0.32880192491E+02  0.93007026529E+01  0.41845737334E+02  0.00000000000E+00 0.  1.
</event>
<event>
 7    1  0.2879200E-015  0.9000777E+02  0.7816164E-02  0.1186339E+00
        -11   -1    0    0    0    0  0.00000000000E+00  0.00000000000E+00  0.45593999997E+02  0.45594000000E+02  0.51100000000E-03 0.  1.
         11   -1    0    0    0    0 -0.00000000000E+00 -0.00000000000E+00 -0.45593999997E+02  0.45594000000E+02  0.51100000000E-03 0. -1.
    9900012    2    1    2    0    0  0.15146548086E+00 -0.47627555119E+00 -0.10691830990E+01  0.90007774305E+02  0.90000036126E+02 0.  0.
        -12    1    1    2    0    0 -0.15146548086E+00  0.47627555119E+00  0.10691830990E+01  0.11802256953E+01  0.00000000000E+00 0.  1.
         11    1    3    3    0    0 -0.18648851360E+01 -0.23538167306E+02 -0.28858445341E+02  0.37287169166E+02  0.51100000000E-03 0. -1.
        -11    1    3    3    0    0 -0.97261572666E+01  0.61043675555E+01 -0.61340651271E+01  0.13018763139E+02  0.51100000000E-03 0.  1.
        -12    1    3    3    0    0  0.11742507884E+02  0.16957524200E+02  0.33923327369E+02  0.39701841999E+02  0.00000000000E+00 0.  1.
</event>
<event>
 7    1  0.4486838E-015  0.9000781E+02  0.7816164E-02  0.1186339E+00
        -11   -1    0    0    0    0  0.00000000000E+00  0.00000000000E+00  0.45593999997E+02  0.45594000000E+02  0.51100000000E-03 0. -1.
         11   -1    0    0    0    0 -0.00000000000E+00 -0.00000000000E+00 -0.45593999997E+02  0.45594000000E+02  0.51100000000E-03 0.  1.
    9900012    2    1    2    0    0 -0.43089660383E+00  0.78534087575E+00  0.76838756789E+00  0.90007808647E+02  0.90000070921E+02 0.  0.
        -12    1    1    2    0    0  0.43089660383E+00 -0.78534087575E+00 -0.76838756789E+00  0.11801913526E+01  0.00000000000E+00 0.  1.
         11    1    3    3    0    0  0.26182005000E+02  0.24316496081E+02  0.68018414197E+01  0.36373814956E+02  0.51100000000E-03 0. -1.
        -11    1    3    3    0    0  0.49173118650E+01  0.43923321370E+01  0.69312443658E+01  0.95663308692E+01  0.51100000000E-03 0.  1.
        -12    1    3    3    0    0 -0.31530213469E+02 -0.27923487342E+02 -0.12964698218E+02  0.44067662822E+02  0.00000000000E+00 0.  1.
</event>
<event>
 7    1  0.2879200E-015  0.9000772E+02  0.7816164E-02  0.1186339E+00
        -11   -1    0    0    0    0  0.00000000000E+00  0.00000000000E+00  0.45593999997E+02  0.45594000000E+02  0.51100000000E-03 0.  1.
         11   -1    0    0    0    0 -0.00000000000E+00 -0.00000000000E+00 -0.45593999997E+02  0.45594000000E+02  0.51100000000E-03 0. -1.
    9900012    2    1    2    0    0  0.98710173806E+00  0.39895572960E+00 -0.50943364713E+00  0.90007721153E+02  0.89999982272E+02 0.  0.
        -12    1    1    2    0    0 -0.98710173806E+00 -0.39895572960E+00  0.50943364713E+00  0.11802788468E+01  0.00000000000E+00 0.  1.
         11    1    3    3    0    0 -0.60482475519E+01 -0.18486068151E+01  0.59399405242E+01  0.86764934909E+01  0.51100000000E-03 0. -1.
        -11    1    3    3    0    0  0.14643580643E+02 -0.37668195187E+02 -0.21804579839E+01  0.40473222999E+02  0.51100000000E-03 0.  1.
         12    1    3    3    0    0 -0.76082313528E+01  0.39915757732E+02 -0.42689161874E+01  0.40858004663E+02  0.00000000000E+00 0. -1.
</event>
<event>
 7    1  0.2879200E-015  0.9000774E+02  0.7816164E-02  0.1186339E+00
        -11   -1    0    0    0    0  0.00000000000E+00  0.00000000000E+00  0.45593999997E+02  0.45594000000E+02  0.51100000000E-03 0.  1.
         11   -1    0    0    0    0 -0.00000000000E+00 -0.00000000000E+00 -0.45593999997E+02  0.45594000000E+02  0.51100000000E-03 0. -1.
    9900012    2    1    2    0    0 -0.45327967516E+00 -0.10493847306E+01 -0.29382362593E+00  0.90007744477E+02  0.90000005904E+02 0.  0.
        -12    1    1    2    0    0  0.45327967516E+00  0.10493847306E+01  0.29382362593E+00  0.11802555231E+01  0.00000000000E+00 0.  1.
         11    1    3    3    0    0  0.75409223418E+01 -0.22114405017E+02 -0.32148652177E+02  0.39742272910E+02  0.51100000000E-03 0. -1.
        -11    1    3    3    0    0 -0.38853371420E+01 -0.78541085044E+01  0.31481164351E+01  0.93109345641E+01  0.51100000000E-03 0.  1.
        -12    1    3    3    0    0 -0.41088648749E+01  0.28919128791E+02  0.28706712116E+02  0.40954537002E+02  0.00000000000E+00 0.  1.
</event>
<event>
 7    1  0.2879200E-015  0.9000779E+02  0.7816164E-02  0.1186339E+00
        -11   -1    0    0    0    0  0.00000000000E+00  0.00000000000E+00  0.45593999997E+02  0.45594000000E+02  0.51100000000E-03 0. -1.
         11   -1    0    0    0    0 -0.00000000000E+00 -0.00000000000E+00 -0.45593999997E+02  0.45594000000E+02  0.51100000000E-03 0.  1.
    9900012    2    1    2    0    0 -0.39140161875E-01  0.95567341622E+00  0.69141966704E+00  0.90007786127E+02  0.90000048104E+02 0.  0.
        -12    1    1    2    0    0  0.39140161875E-01 -0.95567341622E+00 -0.69141966704E+00  0.11802138733E+01  0.00000000000E+00 0.  1.
         11    1    3    3    0    0 -0.51839819568E+01 -0.21836139494E+01 -0.90530692571E+01  0.10658325480E+02  0.51100000000E-03 0. -1.
        -11    1    3    3    0    0  0.13274628444E+02  0.26598414333E+02 -0.23474126770E+02  0.37877777564E+02  0.51100000000E-03 0.  1.
         12    1    3    3    0    0 -0.81297866491E+01 -0.23459126967E+02  0.33218615694E+02  0.41471683082E+02  0.00000000000E+00 0. -1.
</event>
<event>
 7    1  0.2879200E-015  0.9000762E+02  0.7816164E-02  0.1186339E+00
        -11   -1    0    0    0    0  0.00000000000E+00  0.00000000000E+00  0.45593999997E+02  0.45594000000E+02  0.51100000000E-03 0. -1.
         11   -1    0    0    0    0 -0.00000000000E+00 -0.00000000000E+00 -0.45593999997E+02  0.45594000000E+02  0.51100000000E-03 0.  1.
    9900012    2    1    2    0    0  0.10781737585E+00  0.36512309028E+00  0.11173012902E+01  0.90007618015E+02  0.89999877773E+02 0.  0.
        -12    1    1    2    0    0 -0.10781737585E+00 -0.36512309028E+00 -0.11173012902E+01  0.11803819850E+01  0.00000000000E+00 0.  1.
         11    1    3    3    0    0 -0.48482732584E+01  0.36662224920E+02  0.13681959593E+02  0.39431212360E+02  0.51100000000E-03 0. -1.
        -11    1    3    3    0    0 -0.16173868497E+01  0.30050845550E+01  0.57769833746E+01  0.67096952670E+01  0.51100000000E-03 0.  1.
        -12    1    3    3    0    0  0.65734774839E+01 -0.39302186384E+02 -0.18341641677E+02  0.43866710388E+02  0.00000000000E+00 0.  1.
</event>
<event>
 7    1  0.2879200E-015  0.9000773E+02  0.7816164E-02  0.1186339E+00
        -11   -1    0    0    0    0  0.00000000000E+00  0.00000000000E+00  0.45593999997E+02  0.45594000000E+02  0.51100000000E-03 0.  1.
         11   -1    0    0    0    0 -0.00000000000E+00 -0.00000000000E+00 -0.45593999997E+02  0.45594000000E+02  0.51100000000E-03 0. -1.
    9900012    2    1    2    0    0 -0.10335920470E+01  0.47473411910E+00  0.31518902268E+00  0.90007733452E+02  0.89999994734E+02 0.  0.
        -12    1    1    2    0    0  0.10335920470E+01 -0.47473411910E+00 -0.31518902268E+00  0.11802665476E+01  0.00000000000E+00 0.  1.
         11    1    3    3    0    0  0.69269956899E+01  0.63447049967E+01  0.86477843541E+01  0.12768035294E+02  0.51100000000E-03 0. -1.
        -11    1    3    3    0    0 -0.15824061386E+02 -0.46327700504E+01  0.32070030199E+02  0.36060370413E+02  0.51100000000E-03 0.  1.
         12    1    3    3    0    0  0.78634736496E+01 -0.12372008272E+01 -0.40402625531E+02  0.41179327745E+02  0.00000000000E+00 0. -1.
</event>
<event>
 7    1  0.2879200E-015  0.9000774E+02  0.7816164E-02  0.1186339E+00
        -11   -1    0    0    0    0  0.00000000000E+00  0.00000000000E+00  0.45593999997E+02  0.45594000000E+02  0.51100000000E-03 0.  1.
         11   -1    0    0    0    0 -0.00000000000E+00 -0.00000000000E+00 -0.45593999997E+02  0.45594000000E+02  0.51100000000E-03 0. -1.
    9900012    2    1    2    0    0  0.35062487293E+00 -0.66456692282E+00 -0.91018395710E+00  0.90007736541E+02  0.89999997864E+02 0.  0.
        -12    1    1    2    0    0 -0.35062487293E+00  0.66456692282E+00  0.91018395710E+00  0.11802634588E+01  0.00000000000E+00 0.  1.
         11    1    3    3    0    0  0.25981745196E+02  0.25059848286E+02  0.11807788546E+02  0.37979875594E+02  0.51100000000E-03 0. -1.
        -11    1    3    3    0    0  0.23373757613E+01 -0.35643286864E+01  0.92078264367E+01  0.10146518239E+02  0.51100000000E-03 0.  1.
        -12    1    3    3    0    0 -0.27968496084E+02 -0.22160086522E+02 -0.21925798940E+02  0.41881342708E+02  0.00000000000E+00 0.  1.
</event>
<event>
 7    1  0.2879200E-015  0.9000785E+02  0.7816164E-02  0.1186339E+00
        -11   -1    0    0    0    0  0.00000000000E+00  0.00000000000E+00  0.45593999997E+02  0.45594000000E+02  0.51100000000E-03 0. -1.
         11   -1    0    0    0    0 -0.00000000000E+00 -0.00000000000E+00 -0.45593999997E+02  0.45594000000E+02  0.51100000000E-03 0.  1.
    9900012    2    1    2    0    0 -0.79363342783E+00 -0.87174697870E+00  0.54421625003E-01  0.90007848092E+02  0.90000110887E+02 0.  0.
        -12    1    1    2    0    0  0.79363342783E+00  0.87174697870E+00 -0.54421625003E-01  0.11801519080E+01  0.00000000000E+00 0.  1.
         11    1    3    3    0    0 -0.14827457399E+01 -0.59718707066E+01 -0.64372801748E+01  0.89050744508E+01  0.51100000000E-03 0. -1.
        -11    1    3    3    0    0 -0.17561607105E+02 -0.32515107823E+02 -0.60646959556E+01  0.37448936142E+02  0.51100000000E-03 0.  1.
         12    1    3    3    0    0  0.18250719417E+02  0.37615231551E+02  0.12556397755E+02  0.43653837500E+02  0.00000000000E+00 0. -1.
</event>
<event>
 7    1  0.2879200E-015  0.9000774E+02  0.7816164E-02  0.1186339E+00
        -11   -1    0    0    0    0  0.00000000000E+00  0.00000000000E+00  0.45593999997E+02  0.45594000000E+02  0.51100000000E-03 0.  1.
         11   -1    0    0    0    0 -0.00000000000E+00 -0.00000000000E+00 -0.45593999997E+02  0.45594000000E+02  0.51100000000E-03 0. -1.
    9900012    2    1    2    0    0 -0.43866986264E+00 -0.96650762033E+00 -0.51617249980E+00  0.90007744825E+02  0.90000006257E+02 0.  0.
        -12    1    1    2    0    0  0.43866986264E+00  0.96650762033E+00  0.51617249980E+00  0.11802551750E+01  0.00000000000E+00 0.  1.
         11    1    3    3    0    0  0.50421137308E+01 -0.57978593354E+01  0.41731368084E+01  0.87437494721E+01  0.51100000000E-03 0. -1.
        -11    1    3    3    0    0  0.10998949564E+02 -0.35698328829E+02 -0.31082658254E+01  0.37483448206E+02  0.51100000000E-03 0.  1.
         12    1    3    3    0    0 -0.16479733157E+02  0.40529680545E+02 -0.15810434828E+01  0.43780547147E+02  0.00000000000E+00 0. -1.
</event>
<event>
 7    1  0.2879200E-015  0.9000760E+02  0.7816164E-02  0.1186339E+00
        -11   -1    0    0    0    0  0.00000000000E+00  0.00000000000E+00  0.45593999997E+02  0.45594000000E+02  0.51100000000E-03 0. -1.
         11   -1    0    0    0    0 -0.00000000000E+00 -0.00000000000E+00 -0.45593999997E+02  0.45594000000E+02  0.51100000000E-03 0.  1.
    9900012    2    1    2    0    0  0.16017857442E+00 -0.11585364078E+01  0.15965811235E+00  0.90007595622E+02  0.89999855084E+02 0.  0.
        -12    1    1    2    0    0 -0.16017857442E+00  0.11585364078E+01 -0.15965811235E+00  0.11804043784E+01  0.00000000000E+00 0.  1.
         11    1    3    3    0    0 -0.26937292776E+01  0.32012592991E+02  0.22760993973E+02  0.39371628545E+02  0.51100000000E-03 0. -1.
        -11    1    3    3    0    0 -0.82128629186E+01  0.17735775628E+01 -0.21986147574E+01  0.86850792629E+01  0.51100000000E-03 0.  1.
        -12    1    3    3    0    0  0.11066770771E+02 -0.34944706961E+02 -0.20402721104E+02  0.41950887813E+02  0.00000000000E+00 0.  1.
</event>
<event>
 7    1  0.2879200E-015  0.9000774E+02  0.7816164E-02  0.1186339E+00
        -11   -1    0    0    0    0  0.00000000000E+00  0.00000000000E+00  0.45593999997E+02  0.45594000000E+02  0.51100000000E-03 0.  1.
         11   -1    0    0    0    0 -0.00000000000E+00 -0.00000000000E+00 -0.45593999997E+02  0.45594000000E+02  0.51100000000E-03 0. -1.
    9900012    2    1    2    0    0  0.47840600460E+00 -0.78289415238E+00 -0.74243639891E+00  0.90007742670E+02  0.90000004073E+02 0.  0.
        -12    1    1    2    0    0 -0.47840600460E+00  0.78289415238E+00  0.74243639891E+00  0.11802573302E+01  0.00000000000E+00 0.  1.
         11    1    3    3    0    0 -0.21734948643E+01  0.88946719138E+01 -0.65379426515E+01  0.11250953860E+02  0.51100000000E-03 0. -1.
        -11    1    3    3    0    0  0.26772328356E+02  0.24543575406E+02  0.64286185279E+01  0.36884573954E+02  0.51100000000E-03 0.  1.
         12    1    3    3    0    0 -0.24120427487E+02 -0.34221141473E+02 -0.63311227530E+00  0.41872214856E+02  0.00000000000E+00 0. -1.
</event>
<event>
 7    1  0.2879200E-015  0.9000773E+02  0.7816164E-02  0.1186339E+00
        -11   -1    0    0    0    0  0.00000000000E+00  0.00000000000E+00  0.45593999997E+02  0.45594000000E+02  0.51100000000E-03 0. -1.
         11   -1    0    0    0    0 -0.00000000000E+00 -0.00000000000E+00 -0.45593999997E+02  0.45594000000E+02  0.51100000000E-03 0.  1.
    9900012    2    1    2    0    0  0.12175695297E+00  0.44393284499E+00  0.10868019548E+01  0.90007729008E+02  0.89999990231E+02 0.  0.
        -12    1    1    2    0    0 -0.12175695297E+00 -0.44393284499E+00 -0.10868019548E+01  0.11802709924E+01  0.00000000000E+00 0.  1.
         11    1    3    3    0    0  0.10142889242E+02  0.90426860351E+01 -0.15937143299E+01  0.13681677475E+02  0.51100000000E-03 0. -1.
        -11    1    3    3    0    0  0.15365458512E+02 -0.88588367225E+01 -0.30055819981E+02  0.34898834054E+02  0.51100000000E-03 0.  1.
         12    1    3    3    0    0 -0.25386590801E+02  0.26008353235E+00  0.32736336266E+02  0.41427217479E+02  0.00000000000E+00 0. -1.
</event>
<event>
 7    1  0.2879200E-015  0.9000775E+02  0.7816164E-02  0.1186339E+00
        -11   -1    0    0    0    0  0.00000000000E+00  0.00000000000E+00  0.45593999997E+02  0.45594000000E+02  0.51100000000E-03 0.  1.
         11   -1    0    0    0    0 -0.00000000000E+00 -0.00000000000E+00 -0.45593999997E+02  0.45594000000E+02  0.51100000000E-03 0. -1.
    9900012    2    1    2    0    0 -0.32978195905E+00  0.11041915082E+01 -0.25496234611E+00  0.90007745441E+02  0.90000006880E+02 0.  0.
        -12    1    1    2    0    0  0.32978195905E+00 -0.11041915082E+01  0.25496234611E+00  0.11802545595E+01  0.00000000000E+00 0.  1.
         11    1    3    3    0    0  0.91848554042E+01 -0.31572003140E+02 -0.12823880945E+02  0.35293127855E+02  0.51100000000E-03 0. -1.
        -11    1    3    3    0    0  0.39503836700E+00 -0.95967145986E+01  0.35880120719E+00  0.96115412378E+01  0.51100000000E-03 0.  1.
        -12    1    3    3    0    0 -0.99096757302E+01  0.42272909247E+02  0.12210117391E+02  0.45103076347E+02  0.00000000000E+00 0.  1.
</event>
<event>
 7    1  0.2879200E-015  0.9000764E+02  0.7816164E-02  0.1186339E+00
        -11   -1    0    0    0    0  0.00000000000E+00  0.00000000000E+00  0.45593999997E+02  0.45594000000E+02  0.51100000000E-03 0.  1.
         11   -1    0    0    0    0 -0.00000000000E+00 -0.00000000000E+00 -0.45593999997E+02  0.45594000000E+02  0.51100000000E-03 0. -1.
    9900012    2    1    2    0    0 -0.17795841916E-01 -0.10056342721E+01 -0.61776156037E+00  0.90007641442E+02  0.89999901508E+02 0.  0.
        -12    1    1    2    0    0  0.17795841916E-01  0.10056342721E+01  0.61776156037E+00  0.11803585585E+01  0.00000000000E+00 0.  1.
         11    1    3    3    0    0  0.23812209760E+00  0.66277352431E-01 -0.93915375628E+01  0.93947896664E+01  0.51100000000E-03 0. -1.
        -11    1    3    3    0    0 -0.13794114889E+02  0.35368475684E+02  0.15780624878E+02  0.41112465258E+02  0.51100000000E-03 0.  1.
         12    1    3    3    0    0  0.13538196949E+02 -0.36440387309E+02 -0.70068488756E+01  0.39500386517E+02  0.00000000000E+00 0. -1.
</event>
<event>
 7    1  0.2879200E-015  0.9000776E+02  0.7816164E-02  0.1186339E+00
        -11   -1    0    0    0    0  0.00000000000E+00  0.00000000000E+00  0.45593999997E+02  0.45594000000E+02  0.51100000000E-03 0.  1.
         11   -1    0    0    0    0 -0.00000000000E+00 -0.00000000000E+00 -0.45593999997E+02  0.45594000000E+02  0.51100000000E-03 0. -1.
    9900012    2    1    2    0    0 -0.47703000338E+00 -0.81225294670E+00 -0.71108950271E+00  0.90007762416E+02  0.90000024080E+02 0.  0.
        -12    1    1    2    0    0  0.47703000338E+00  0.81225294670E+00  0.71108950271E+00  0.11802375839E+01  0.00000000000E+00 0.  1.
         11    1    3    3    0    0 -0.27568353135E+01 -0.36529761138E+02  0.22822829547E+02  0.43161384808E+02  0.51100000000E-03 0. -1.
        -11    1    3    3    0    0 -0.57552668907E+01  0.52740176584E+01 -0.47698014656E+00  0.78208611780E+01  0.51100000000E-03 0.  1.
        -12    1    3    3    0    0  0.80350722009E+01  0.30443490533E+02 -0.23056938903E+02  0.39025516430E+02  0.00000000000E+00 0.  1.
</event>
<event>
 7    1  0.2879200E-015  0.9000772E+02  0.7816164E-02  0.1186339E+00
        -11   -1    0    0    0    0  0.00000000000E+00  0.00000000000E+00  0.45593999997E+02  0.45594000000E+02  0.51100000000E-03 0. -1.
         11   -1    0    0    0    0 -0.00000000000E+00 -0.00000000000E+00 -0.45593999997E+02  0.45594000000E+02  0.51100000000E-03 0.  1.
    9900012    2    1    2    0    0 -0.49198040879E+00  0.10374272312E+01 -0.27342043870E+00  0.90007720915E+02  0.89999982031E+02 0.  0.
        -12    1    1    2    0    0  0.49198040879E+00 -0.10374272312E+01  0.27342043870E+00  0.11802790852E+01  0.00000000000E+00 0.  1.
         11    1    3    3    0    0  0.76624723797E+01 -0.68818034987E+01  0.21321729374E-02  0.10299160508E+02  0.51100000000E-03 0. -1.
        -11    1    3    3    0    0  0.35953353457E+01 -0.27997723048E+02 -0.22295916395E+02  0.35970916311E+02  0.51100000000E-03 0.  1.
         12    1    3    3    0    0 -0.11749788134E+02  0.35916953778E+02  0.22020363783E+02  0.43737644096E+02  0.00000000000E+00 0. -1.
</event>
<event>
 7    1  0.2879200E-015  0.9000776E+02  0.7816164E-02  0.1186339E+00
        -11   -1    0    0    0    0  0.00000000000E+00  0.00000000000E+00  0.45593999997E+02  0.45594000000E+02  0.51100000000E-03 0.  1.
         11   -1    0    0    0    0 -0.00000000000E+00 -0.00000000000E+00 -0.45593999997E+02  0.45594000000E+02  0.51100000000E-03 0. -1.
    9900012    2    1    2    0    0 -0.10408027190E+01 -0.40702640276E+00 -0.37950323553E+00  0.90007761254E+02  0.90000022902E+02 0.  0.
        -12    1    1    2    0    0  0.10408027190E+01  0.40702640276E+00  0.37950323553E+00  0.11802387462E+01  0.00000000000E+00 0.  1.
         11    1    3    3    0    0 -0.66021534225E+01 -0.51453116208E+01 -0.76842279407E+01  0.11362659055E+02  0.51100000000E-03 0. -1.
        -11    1    3    3    0    0  0.10468534134E+02 -0.32339378656E+02 -0.12631281831E+02  0.36262582640E+02  0.51100000000E-03 0.  1.
         12    1    3    3    0    0 -0.49071834305E+01  0.37077663874E+02  0.19936006536E+02  0.42382519559E+02  0.00000000000E+00 0. -1.
</event>
<event>
 7    1  0.2879200E-015  0.9000774E+02  0.7816164E-02  0.1186339E+00
        -11   -1    0    0    0    0  0.00000000000E+00  0.00000000000E+00  0.45593999997E+02  0.45594000000E+02  0.51100000000E-03 0.  1.
         11   -1    0    0    0    0 -0.00000000000E+00 -0.00000000000E+00 -0.45593999997E+02  0.45594000000E+02  0.51100000000E-03 0. -1.
    9900012    2    1    2    0    0 -0.52862551676E+00  0.30746943868E+00 -0.10094697110E+01  0.90007740922E+02  0.90000002303E+02 0.  0.
        -12    1    1    2    0    0  0.52862551676E+00 -0.30746943868E+00  0.10094697110E+01  0.11802590775E+01  0.00000000000E+00 0.  1.
         11    1    3    3    0    0 -0.24347307056E+02 -0.20841903140E+02 -0.10348747269E+02  0.33678967586E+02  0.51100000000E-03 0. -1.
        -11    1    3    3    0    0  0.25159276696E+02 -0.36072032014E+01  0.16765000947E+02  0.30447764709E+02  0.51100000000E-03 0.  1.
        -12    1    3    3    0    0 -0.13405951559E+01  0.24756575780E+02 -0.74257233887E+01  0.25881008627E+02  0.00000000000E+00 0.  1.
</event>
<event>
 7    1  0.2879200E-015  0.9000749E+02  0.7816164E-02  0.1186340E+00
        -11   -1    0    0    0    0  0.00000000000E+00  0.00000000000E+00  0.45593999997E+02  0.45594000000E+02  0.51100000000E-03 0. -1.
         11   -1    0    0    0    0 -0.00000000000E+00 -0.00000000000E+00 -0.45593999997E+02  0.45594000000E+02  0.51100000000E-03 0.  1.
    9900012    2    1    2    0    0 -0.81998842672E+00 -0.79337204609E+00  0.30296665703E+00  0.90007487815E+02  0.89999745854E+02 0.  0.
        -12    1    1    2    0    0  0.81998842672E+00  0.79337204609E+00 -0.30296665703E+00  0.11805121849E+01  0.00000000000E+00 0.  1.
         11    1    3    3    0    0 -0.31623841764E+01 -0.26103278464E+02  0.31659780127E+02  0.41154872108E+02  0.51100000000E-03 0. -1.
        -11    1    3    3    0    0 -0.45234301100E+01 -0.47719790946E+01 -0.62735522771E+01  0.90879405188E+01  0.51100000000E-03 0.  1.
        -12    1    3    3    0    0  0.68658258597E+01  0.30081885513E+02 -0.25083261193E+02  0.39764675188E+02  0.00000000000E+00 0.  1.
</event>
<event>
 7    1  0.2879200E-015  0.9000844E+02  0.7816164E-02  0.1186338E+00
        -11   -1    0    0    0    0  0.00000000000E+00  0.00000000000E+00  0.45593999997E+02  0.45594000000E+02  0.51100000000E-03 0. -1.
         11   -1    0    0    0    0 -0.00000000000E+00 -0.00000000000E+00 -0.45593999997E+02  0.45594000000E+02  0.51100000000E-03 0.  1.
    9900012    2    1    2    0    0 -0.82019455842E-01 -0.72355218271E+00  0.92795416083E+00  0.90008443356E+02  0.90000714005E+02 0.  0.
        -12    1    1    2    0    0  0.82019455842E-01  0.72355218271E+00 -0.92795416083E+00  0.11795566442E+01  0.00000000000E+00 0.  1.
         11    1    3    3    0    0  0.10184310349E+02 -0.11555119994E+01  0.19032474343E+00  0.10251419855E+02  0.51100000000E-03 0. -1.
        -11    1    3    3    0    0  0.30873022266E+02  0.16081241108E+02  0.63523552110E+01  0.35385056682E+02  0.51100000000E-03 0.  1.
         12    1    3    3    0    0 -0.41139352070E+02 -0.15649281291E+02 -0.56147257936E+01  0.44371966820E+02  0.00000000000E+00 0. -1.
</event>
<event>
 7    1  0.2879200E-015  0.9000766E+02  0.7816164E-02  0.1186339E+00
        -11   -1    0    0    0    0  0.00000000000E+00  0.00000000000E+00  0.45593999997E+02  0.45594000000E+02  0.51100000000E-03 0.  1.
         11   -1    0    0    0    0 -0.00000000000E+00 -0.00000000000E+00 -0.45593999997E+02  0.45594000000E+02  0.51100000000E-03 0. -1.
    9900012    2    1    2    0    0 -0.32150492664E+00 -0.93302737557E+00 -0.64752593851E+00  0.90007663039E+02  0.89999923391E+02 0.  0.
        -12    1    1    2    0    0  0.32150492664E+00  0.93302737557E+00  0.64752593851E+00  0.11803369614E+01  0.00000000000E+00 0.  1.
         11    1    3    3    0    0  0.68282857116E+01  0.36615137817E+01 -0.42438534715E+01  0.88341644472E+01  0.51100000000E-03 0. -1.
        -11    1    3    3    0    0 -0.64325681010E+01  0.37119143236E+02  0.99706186496E+01  0.38969500427E+02  0.51100000000E-03 0.  1.
         12    1    3    3    0    0 -0.71722253720E+00 -0.41713684394E+02 -0.63742911166E+01  0.42203998165E+02  0.00000000000E+00 0. -1.
</event>
<event>
 7    1  0.2879200E-015  0.9000779E+02  0.7816164E-02  0.1186339E+00
        -11   -1    0    0    0    0  0.00000000000E+00  0.00000000000E+00  0.45593999997E+02  0.45594000000E+02  0.51100000000E-03 0.  1.
         11   -1    0    0    0    0 -0.00000000000E+00 -0.00000000000E+00 -0.45593999997E+02  0.45594000000E+02  0.51100000000E-03 0. -1.
    9900012    2    1    2    0    0 -0.81646294343E+00 -0.71319176045E+00  0.46651314401E+00  0.90007792925E+02  0.90000054992E+02 0.  0.
        -12    1    1    2    0    0  0.81646294343E+00  0.71319176045E+00 -0.46651314401E+00  0.11802070745E+01  0.00000000000E+00 0.  1.
         11    1    3    3    0    0 -0.12597046362E+01 -0.12584785198E+01  0.10100452538E+02  0.10256206203E+02  0.51100000000E-03 0. -1.
        -11    1    3    3    0    0 -0.56197516523E+01  0.23212176801E+02  0.27126002872E+02  0.36141482987E+02  0.51100000000E-03 0.  1.
         12    1    3    3    0    0  0.60629933450E+01 -0.22666890042E+02 -0.36759942265E+02  0.43610103735E+02  0.00000000000E+00 0. -1.
</event>
<event>
 7    1  0.2879200E-015  0.9000738E+02  0.7816164E-02  0.1186340E+00
        -11   -1    0    0    0    0  0.00000000000E+00  0.00000000000E+00  0.45593999997E+02  0.45594000000E+02  0.51100000000E-03 0. -1.
         11   -1    0    0    0    0 -0.00000000000E+00 -0.00000000000E+00 -0.45593999997E+02  0.45594000000E+02  0.51100000000E-03 0.  1.
    9900012    2    1    2    0    0  0.93074679487E+00  0.66848084626E+00  0.28406984856E+00  0.90007384941E+02  0.89999641622E+02 0.  0.
        -12    1    1    2    0    0 -0.93074679487E+00 -0.66848084626E+00 -0.28406984856E+00  0.11806150587E+01  0.00000000000E+00 0.  1.
         11    1    3    3    0    0 -0.17894306455E+01  0.11945730881E+02  0.16172321119E+01  0.12186795653E+02  0.51100000000E-03 0. -1.
        -11    1    3    3    0    0  0.12213743863E+02 -0.34888557560E+02  0.22233629112E+02  0.43136078305E+02  0.51100000000E-03 0.  1.
         12    1    3    3    0    0 -0.94935664226E+01  0.23611307525E+02 -0.23566791375E+02  0.34684510984E+02  0.00000000000E+00 0. -1.
</event>
<event>
 7    1  0.3193868E-015  0.9000777E+02  0.7816164E-02  0.1186339E+00
        -11   -1    0    0    0    0  0.00000000000E+00  0.00000000000E+00  0.45593999997E+02  0.45594000000E+02  0.51100000000E-03 0.  1.
         11   -1    0    0    0    0 -0.00000000000E+00 -0.00000000000E+00 -0.45593999997E+02  0.45594000000E+02  0.51100000000E-03 0. -1.
    9900012    2    1    2    0    0  0.72578505806E+00 -0.80416799627E-02 -0.93065612716E+00  0.90007767207E+02  0.90000028934E+02 0.  0.
        -12    1    1    2    0    0 -0.72578505806E+00  0.80416799627E-02  0.93065612716E+00  0.11802327932E+01  0.00000000000E+00 0.  1.
         11    1    3    3    0    0  0.21127925670E+02  0.24966909545E+02 -0.16716467598E+02  0.36731132634E+02  0.51100000000E-03 0. -1.
        -11    1    3    3    0    0  0.61662719767E+01  0.10483671222E+01 -0.72149895432E+01  0.95487202328E+01  0.51100000000E-03 0.  1.
        -12    1    3    3    0    0 -0.26568412588E+02 -0.26023318347E+02  0.23000801014E+02  0.43727914340E+02  0.00000000000E+00 0.  1.
</event>
<event>
 7    1  0.2879200E-015  0.9000783E+02  0.7816164E-02  0.1186339E+00
        -11   -1    0    0    0    0  0.00000000000E+00  0.00000000000E+00  0.45593999997E+02  0.45594000000E+02  0.51100000000E-03 0.  1.
         11   -1    0    0    0    0 -0.00000000000E+00 -0.00000000000E+00 -0.45593999997E+02  0.45594000000E+02  0.51100000000E-03 0. -1.
    9900012    2    1    2    0    0 -0.11449118068E+01 -0.26831492518E+00  0.99978043485E-01  0.90007825626E+02  0.90000088124E+02 0.  0.
        -12    1    1    2    0    0  0.11449118068E+01  0.26831492518E+00 -0.99978043485E-01  0.11801743742E+01  0.00000000000E+00 0.  1.
         11    1    3    3    0    0 -0.14504123429E+01  0.45713263602E+01 -0.68380026868E+01  0.83521854423E+01  0.51100000000E-03 0. -1.
        -11    1    3    3    0    0  0.15898499503E+02 -0.23324019264E+02 -0.27609732522E+02  0.39485054024E+02  0.51100000000E-03 0.  1.
         12    1    3    3    0    0 -0.15592998967E+02  0.18484377979E+02  0.34547713253E+02  0.42170586159E+02  0.00000000000E+00 0. -1.
</event>
<event>
 7    1  0.2879200E-015  0.9000749E+02  0.7816164E-02  0.1186340E+00
        -11   -1    0    0    0    0  0.00000000000E+00  0.00000000000E+00  0.45593999997E+02  0.45594000000E+02  0.51100000000E-03 0.  1.
         11   -1    0    0    0    0 -0.00000000000E+00 -0.00000000000E+00 -0.45593999997E+02  0.45594000000E+02  0.51100000000E-03 0. -1.
    9900012    2    1    2    0    0 -0.62921972426E+00 -0.58031933675E+00 -0.81296932320E+00  0.90007488622E+02  0.89999746671E+02 0.  0.
        -12    1    1    2    0    0  0.62921972426E+00  0.58031933675E+00  0.81296932320E+00  0.11805113784E+01  0.00000000000E+00 0.  1.
         11    1    3    3    0    0 -0.77633703085E+01  0.22159227486E+02 -0.32002602323E+02  0.39692163421E+02  0.51100000000E-03 0. -1.
        -11    1    3    3    0    0 -0.92770524106E+01  0.17619402637E+01  0.41836898775E+01  0.10328184554E+02  0.51100000000E-03 0.  1.
        -12    1    3    3    0    0  0.16411202995E+02 -0.24501487086E+02  0.27005943123E+02  0.39987140647E+02  0.00000000000E+00 0.  1.
</event>
<event>
 7    1  0.2879200E-015  0.9000774E+02  0.7816164E-02  0.1186339E+00
        -11   -1    0    0    0    0  0.00000000000E+00  0.00000000000E+00  0.45593999997E+02  0.45594000000E+02  0.51100000000E-03 0. -1.
         11   -1    0    0    0    0 -0.00000000000E+00 -0.00000000000E+00 -0.45593999997E+02  0.45594000000E+02  0.51100000000E-03 0.  1.
    9900012    2    1    2    0    0  0.59882162730E+00  0.82337696492E+00 -0.59705534747E+00  0.90007740683E+02  0.90000002060E+02 0.  0.
        -12    1    1    2    0    0 -0.59882162730E+00 -0.82337696492E+00  0.59705534747E+00  0.11802593171E+01  0.00000000000E+00 0.  1.
         11    1    3    3    0    0 -0.60389125597E+01  0.91668417357E+01  0.36606363828E+02  0.38216819926E+02  0.51100000000E-03 0. -1.
        -11    1    3    3    0    0  0.63541979554E+01  0.34958932432E+01  0.44350928919E+01  0.85010087899E+01  0.51100000000E-03 0.  1.
        -12    1    3    3    0    0  0.28353623161E+00 -0.11839358014E+02 -0.41638512067E+02  0.43289911967E+02  0.00000000000E+00 0.  1.
</event>
<event>
 7    1  0.2879200E-015  0.9000773E+02  0.7816164E-02  0.1186339E+00
        -11   -1    0    0    0    0  0.00000000000E+00  0.00000000000E+00  0.45593999997E+02  0.45594000000E+02  0.51100000000E-03 0.  1.
         11   -1    0    0    0    0 -0.00000000000E+00 -0.00000000000E+00 -0.45593999997E+02  0.45594000000E+02  0.51100000000E-03 0. -1.
    9900012    2    1    2    0    0 -0.79742370351E+00  0.82668438844E+00 -0.27155591279E+00  0.90007731279E+02  0.89999992531E+02 0.  0.
        -12    1    1    2    0    0  0.79742370351E+00 -0.82668438844E+00  0.27155591279E+00  0.11802687214E+01  0.00000000000E+00 0.  1.
         11    1    3    3    0    0  0.26347781209E+01  0.71871508507E+01  0.27217225087E+01  0.81243440826E+01  0.51100000000E-03 0. -1.
        -11    1    3    3    0    0  0.34388540056E+02  0.24964996400E+01  0.16724763979E+02  0.38321298621E+02  0.51100000000E-03 0.  1.
         12    1    3    3    0    0 -0.37820741880E+02 -0.88569661022E+01 -0.19718042401E+02  0.43562088575E+02  0.00000000000E+00 0. -1.
</event>
<event>
 7    1  0.2879200E-015  0.9000770E+02  0.7816164E-02  0.1186339E+00
        -11   -1    0    0    0    0  0.00000000000E+00  0.00000000000E+00  0.45593999997E+02  0.45594000000E+02  0.51100000000E-03 0. -1.
         11   -1    0    0    0    0 -0.00000000000E+00 -0.00000000000E+00 -0.45593999997E+02  0.45594000000E+02  0.51100000000E-03 0.  1.
    9900012    2    1    2    0    0 -0.28748933506E+00  0.11283116221E+01 -0.19334055316E+00  0.90007695885E+02  0.89999956671E+02 0.  0.
        -12    1    1    2    0    0  0.28748933506E+00 -0.11283116221E+01  0.19334055316E+00  0.11803041150E+01  0.00000000000E+00 0.  1.
         11    1    3    3    0    0  0.78013591695E+01 -0.38627930584E+01  0.47386011978E+00  0.87181946972E+01  0.51100000000E-03 0. -1.
        -11    1    3    3    0    0 -0.76219975893E+01 -0.18284444052E+02 -0.34758855882E+02  0.40007421862E+02  0.51100000000E-03 0.  1.
         12    1    3    3    0    0 -0.46685091529E+00  0.23275548733E+02  0.34091655209E+02  0.41282079326E+02  0.00000000000E+00 0. -1.
</event>
<event>
 7    1  0.2879200E-015  0.9000775E+02  0.7816164E-02  0.1186339E+00
        -11   -1    0    0    0    0  0.00000000000E+00  0.00000000000E+00  0.45593999997E+02  0.45594000000E+02  0.51100000000E-03 0. -1.
         11   -1    0    0    0    0 -0.00000000000E+00 -0.00000000000E+00 -0.45593999997E+02  0.45594000000E+02  0.51100000000E-03 0.  1.
    9900012    2    1    2    0    0 -0.11072163190E+01 -0.25556742384E+00 -0.31899538879E+00  0.90007745475E+02  0.90000006915E+02 0.  0.
        -12    1    1    2    0    0  0.11072163190E+01  0.25556742384E+00  0.31899538879E+00  0.11802545248E+01  0.00000000000E+00 0.  1.
         11    1    3    3    0    0  0.18040365390E+01 -0.75387903675E+01  0.62505865274E+01  0.99577979612E+01  0.51100000000E-03 0. -1.
        -11    1    3    3    0    0  0.37310709518E+02  0.93512390949E+01 -0.96515140435E+01  0.39657110850E+02  0.51100000000E-03 0.  1.
         12    1    3    3    0    0 -0.40221962376E+02 -0.20680161512E+01  0.30819321273E+01  0.40392836664E+02  0.00000000000E+00 0. -1.
</event>
<event>
 7    1  0.2879200E-015  0.9000774E+02  0.7816164E-02  0.1186339E+00
        -11   -1    0    0    0    0  0.00000000000E+00  0.00000000000E+00  0.45593999997E+02  0.45594000000E+02  0.51100000000E-03 0.  1.
         11   -1    0    0    0    0 -0.00000000000E+00 -0.00000000000E+00 -0.45593999997E+02  0.45594000000E+02  0.51100000000E-03 0. -1.
    9900012    2    1    2    0    0 -0.44720094676E+00  0.27672842196E-01 -0.10919111894E+01  0.90007735403E+02  0.89999996711E+02 0.  0.
        -12    1    1    2    0    0  0.44720094676E+00 -0.27672842196E-01  0.10919111894E+01  0.11802645968E+01  0.00000000000E+00 0.  1.
         11    1    3    3    0    0  0.45499251895E+01 -0.64014386068E+01  0.56523760618E+01  0.96762384670E+01  0.51100000000E-03 0. -1.
        -11    1    3    3    0    0  0.33580399001E+02 -0.13586252151E+02  0.73328287099E+00  0.36232128679E+02  0.51100000000E-03 0.  1.
         12    1    3    3    0    0 -0.38577525137E+02  0.20015363600E+02 -0.74775701222E+01  0.44099368257E+02  0.00000000000E+00 0. -1.
</event>
<event>
 7    1  0.2879200E-015  0.9000801E+02  0.7816164E-02  0.1186338E+00
        -11   -1    0    0    0    0  0.00000000000E+00  0.00000000000E+00  0.45593999997E+02  0.45594000000E+02  0.51100000000E-03 0.  1.
         11   -1    0    0    0    0 -0.00000000000E+00 -0.00000000000E+00 -0.45593999997E+02  0.45594000000E+02  0.51100000000E-03 0. -1.
    9900012    2    1    2    0    0  0.11862981847E+00 -0.10965295187E+00 -0.11688773450E+01  0.90008012266E+02  0.90000277228E+02 0.  0.
        -12    1    1    2    0    0 -0.11862981847E+00  0.10965295187E+00  0.11688773450E+01  0.11799877336E+01  0.00000000000E+00 0.  1.
         11    1    3    3    0    0  0.55620371972E+01 -0.57023922322E+01  0.37936296624E+01  0.88229904924E+01  0.51100000000E-03 0. -1.
        -11    1    3    3    0    0 -0.97593664881E+01 -0.27201240416E+02  0.23733314587E+02  0.37395493525E+02  0.51100000000E-03 0.  1.
         12    1    3    3    0    0  0.43159591093E+01  0.32793979696E+02 -0.28695821594E+02  0.43789528249E+02  0.00000000000E+00 0. -1.
</event>
<event>
 7    1  0.2879200E-015  0.9000766E+02  0.7816164E-02  0.1186339E+00
        -11   -1    0    0    0    0  0.00000000000E+00  0.00000000000E+00  0.45593999997E+02  0.45594000000E+02  0.51100000000E-03 0.  1.
         11   -1    0    0    0    0 -0.00000000000E+00 -0.00000000000E+00 -0.45593999997E+02  0.45594000000E+02  0.51100000000E-03 0. -1.
    9900012    2    1    2    0    0  0.13245737735E+00  0.10420368936E+01  0.53833849751E+00  0.90007663530E+02  0.89999923889E+02 0.  0.
        -12    1    1    2    0    0 -0.13245737735E+00 -0.10420368936E+01 -0.53833849751E+00  0.11803364700E+01  0.00000000000E+00 0.  1.
         11    1    3    3    0    0 -0.64696395550E+01  0.19381393488E+02 -0.32413149979E+02  0.38315883670E+02  0.51100000000E-03 0. -1.
        -11    1    3    3    0    0 -0.91845335597E+01  0.53926276081E+01  0.49833648217E+01  0.11758827086E+02  0.51100000000E-03 0.  1.
        -12    1    3    3    0    0  0.15786630492E+02 -0.23731984203E+02  0.27968123655E+02  0.39932952775E+02  0.00000000000E+00 0.  1.
</event>
<event>
 7    1  0.2879200E-015  0.9000774E+02  0.7816164E-02  0.1186339E+00
        -11   -1    0    0    0    0  0.00000000000E+00  0.00000000000E+00  0.45593999997E+02  0.45594000000E+02  0.51100000000E-03 0.  1.
         11   -1    0    0    0    0 -0.00000000000E+00 -0.00000000000E+00 -0.45593999997E+02  0.45594000000E+02  0.51100000000E-03 0. -1.
    9900012    2    1    2    0    0  0.74464354011E+00 -0.67983907035E+00 -0.61347250483E+00  0.90007735759E+02  0.89999997071E+02 0.  0.
        -12    1    1    2    0    0 -0.74464354011E+00  0.67983907035E+00  0.61347250483E+00  0.11802642406E+01  0.00000000000E+00 0.  1.
         11    1    3    3    0    0 -0.24632878605E+01  0.47493338700E+01 -0.69745069287E+01  0.87902051428E+01  0.51100000000E-03 0. -1.
        -11    1    3    3    0    0 -0.24801955893E+02 -0.31147396251E+02 -0.79243115885E+01  0.40596699666E+02  0.51100000000E-03 0.  1.
         12    1    3    3    0    0  0.28009887294E+02  0.25718223310E+02  0.14285346012E+02  0.40620830951E+02  0.00000000000E+00 0. -1.
</event>
<event>
 7    1  0.2879200E-015  0.9000776E+02  0.7816164E-02  0.1186339E+00
        -11   -1    0    0    0    0  0.00000000000E+00  0.00000000000E+00  0.45593999997E+02  0.45594000000E+02  0.51100000000E-03 0.  1.
         11   -1    0    0    0    0 -0.00000000000E+00 -0.00000000000E+00 -0.45593999997E+02  0.45594000000E+02  0.51100000000E-03 0. -1.
    9900012    2    1    2    0    0 -0.20018139162E-01  0.10413504033E+01 -0.55512097894E+00  0.90007758207E+02  0.90000019816E+02 0.  0.
        -12    1    1    2    0    0  0.20018139162E-01 -0.10413504033E+01  0.55512097894E+00  0.11802417928E+01  0.00000000000E+00 0.  1.
         11    1    3    3    0    0  0.48050961044E+01  0.57709183472E+01  0.42447521262E+01  0.86261444468E+01  0.51100000000E-03 0. -1.
        -11    1    3    3    0    0 -0.11462286118E+02  0.15588561701E+02  0.32828308282E+02  0.38106234187E+02  0.51100000000E-03 0.  1.
         12    1    3    3    0    0  0.66371718749E+01 -0.20318129645E+02 -0.37628181387E+02  0.43275379574E+02  0.00000000000E+00 0. -1.
</event>
<event>
 7    1  0.2879200E-015  0.9000776E+02  0.7816164E-02  0.1186339E+00
        -11   -1    0    0    0    0  0.00000000000E+00  0.00000000000E+00  0.45593999997E+02  0.45594000000E+02  0.51100000000E-03 0.  1.
         11   -1    0    0    0    0 -0.00000000000E+00 -0.00000000000E+00 -0.45593999997E+02  0.45594000000E+02  0.51100000000E-03 0. -1.
    9900012    2    1    2    0    0 -0.76549898953E+00  0.82761104751E+00 -0.34934727064E+00  0.90007757540E+02  0.90000019140E+02 0.  0.
        -12    1    1    2    0    0  0.76549898953E+00 -0.82761104751E+00  0.34934727064E+00  0.11802424600E+01  0.00000000000E+00 0.  1.
         11    1    3    3    0    0  0.16675111455E+02  0.31852923008E+02 -0.29664085189E+01  0.36075859323E+02  0.51100000000E-03 0. -1.
        -11    1    3    3    0    0  0.93763609891E+01  0.35546946358E+01 -0.66163146476E+00  0.10049365941E+02  0.51100000000E-03 0.  1.
        -12    1    3    3    0    0 -0.26816971434E+02 -0.34580006596E+02  0.32786927130E+01  0.43882532276E+02  0.00000000000E+00 0.  1.
</event>
<event>
 7    1  0.2879200E-015  0.9000777E+02  0.7816164E-02  0.1186339E+00
        -11   -1    0    0    0    0  0.00000000000E+00  0.00000000000E+00  0.45593999997E+02  0.45594000000E+02  0.51100000000E-03 0. -1.
         11   -1    0    0    0    0 -0.00000000000E+00 -0.00000000000E+00 -0.45593999997E+02  0.45594000000E+02  0.51100000000E-03 0.  1.
    9900012    2    1    2    0    0  0.34753541542E+00 -0.22785642885E-01  0.11276687309E+01  0.90007772557E+02  0.90000034355E+02 0.  0.
        -12    1    1    2    0    0 -0.34753541542E+00  0.22785642885E-01 -0.11276687309E+01  0.11802274430E+01  0.00000000000E+00 0.  1.
         11    1    3    3    0    0 -0.27177166115E+01  0.69412745813E+01 -0.35320525389E+01  0.82487982029E+01  0.51100000000E-03 0. -1.
        -11    1    3    3    0    0 -0.24065890705E+02 -0.32178223204E+02 -0.10823665925E+02  0.41614383190E+02  0.51100000000E-03 0.  1.
         12    1    3    3    0    0  0.27131142732E+02  0.25214162980E+02  0.15483387195E+02  0.40144591164E+02  0.00000000000E+00 0. -1.
</event>
<event>
 7    1  0.2879200E-015  0.9000777E+02  0.7816164E-02  0.1186339E+00
        -11   -1    0    0    0    0  0.00000000000E+00  0.00000000000E+00  0.45593999997E+02  0.45594000000E+02  0.51100000000E-03 0. -1.
         11   -1    0    0    0    0 -0.00000000000E+00 -0.00000000000E+00 -0.45593999997E+02  0.45594000000E+02  0.51100000000E-03 0.  1.
    9900012    2    1    2    0    0 -0.85300528706E+00  0.10958867592E+00  0.80827899861E+00  0.90007770091E+02  0.90000031857E+02 0.  0.
        -12    1    1    2    0    0  0.85300528706E+00 -0.10958867592E+00 -0.80827899861E+00  0.11802299086E+01  0.00000000000E+00 0.  1.
         11    1    3    3    0    0  0.18445830595E+01 -0.84785568634E+01 -0.24913951355E+01  0.90274837652E+01  0.51100000000E-03 0. -1.
        -11    1    3    3    0    0 -0.23481102069E+02 -0.28221237420E+02  0.10307121458E+02  0.38131839044E+02  0.51100000000E-03 0.  1.
         12    1    3    3    0    0  0.20783513722E+02  0.36809382959E+02 -0.70074473241E+01  0.42848447282E+02  0.00000000000E+00 0. -1.
</event>
<event>
 7    1  0.2879200E-015  0.9000788E+02  0.7816164E-02  0.1186339E+00
        -11   -1    0    0    0    0  0.00000000000E+00  0.00000000000E+00  0.45593999997E+02  0.45594000000E+02  0.51100000000E-03 0.  1.
         11   -1    0    0    0    0 -0.00000000000E+00 -0.00000000000E+00 -0.45593999997E+02  0.45594000000E+02  0.51100000000E-03 0. -1.
    9900012    2    1    2    0    0 -0.37283649665E+00  0.90685769682E+00 -0.65671545077E+00  0.90007884277E+02  0.90000147550E+02 0.  0.
        -12    1    1    2    0    0  0.37283649665E+00 -0.90685769682E+00  0.65671545077E+00  0.11801157226E+01  0.00000000000E+00 0.  1.
         11    1    3    3    0    0 -0.67760174015E-01  0.10427111830E+02 -0.14300705835E+02  0.17698571699E+02  0.51100000000E-03 0. -1.
        -11    1    3    3    0    0 -0.30312802834E+02  0.12701811235E+02  0.98310712819E+00  0.32881127173E+02  0.51100000000E-03 0.  1.
         12    1    3    3    0    0  0.30007726511E+02 -0.22222065368E+02  0.12660883256E+02  0.39428185406E+02  0.00000000000E+00 0. -1.
</event>
<event>
 7    1  0.2879200E-015  0.9000773E+02  0.7816164E-02  0.1186339E+00
        -11   -1    0    0    0    0  0.00000000000E+00  0.00000000000E+00  0.45593999997E+02  0.45594000000E+02  0.51100000000E-03 0. -1.
         11   -1    0    0    0    0 -0.00000000000E+00 -0.00000000000E+00 -0.45593999997E+02  0.45594000000E+02  0.51100000000E-03 0.  1.
    9900012    2    1    2    0    0  0.46591212293E+00  0.64308520204E+00  0.87315457248E+00  0.90007732407E+02  0.89999993675E+02 0.  0.
        -12    1    1    2    0    0 -0.46591212293E+00 -0.64308520204E+00 -0.87315457248E+00  0.11802675929E+01  0.00000000000E+00 0.  1.
         11    1    3    3    0    0  0.35950850401E+02  0.15432046596E+02  0.66258654280E+01  0.39680143644E+02  0.51100000000E-03 0. -1.
        -11    1    3    3    0    0 -0.19885208204E+01 -0.11964220396E+02  0.74260691019E+01  0.14221226645E+02  0.51100000000E-03 0.  1.
        -12    1    3    3    0    0 -0.33496417458E+02 -0.28247409981E+01 -0.13178779957E+02  0.36106362118E+02  0.00000000000E+00 0.  1.
</event>
<event>
 7    1  0.2879200E-015  0.9000775E+02  0.7816164E-02  0.1186339E+00
        -11   -1    0    0    0    0  0.00000000000E+00  0.00000000000E+00  0.45593999997E+02  0.45594000000E+02  0.51100000000E-03 0.  1.
         11   -1    0    0    0    0 -0.00000000000E+00 -0.00000000000E+00 -0.45593999997E+02  0.45594000000E+02  0.51100000000E-03 0. -1.
    9900012    2    1    2    0    0 -0.10454079926E+01  0.53684532089E+00  0.10916961997E+00  0.90007746309E+02  0.90000007760E+02 0.  0.
        -12    1    1    2    0    0  0.10454079926E+01 -0.53684532089E+00 -0.10916961997E+00  0.11802536911E+01  0.00000000000E+00 0.  1.
         11    1    3    3    0    0  0.10517015128E+02 -0.10878817431E+02  0.27998309467E+01  0.15388155493E+02  0.51100000000E-03 0. -1.
        -11    1    3    3    0    0 -0.29870077857E+02 -0.11600413189E+02  0.19737023867E+02  0.37634309462E+02  0.51100000000E-03 0.  1.
         12    1    3    3    0    0  0.18307654736E+02  0.23016075940E+02 -0.22427685194E+02  0.36985281353E+02  0.00000000000E+00 0. -1.
</event>
<event>
 7    1  0.2879200E-015  0.9000777E+02  0.7816164E-02  0.1186339E+00
        -11   -1    0    0    0    0  0.00000000000E+00  0.00000000000E+00  0.45593999997E+02  0.45594000000E+02  0.51100000000E-03 0. -1.
         11   -1    0    0    0    0 -0.00000000000E+00 -0.00000000000E+00 -0.45593999997E+02  0.45594000000E+02  0.51100000000E-03 0.  1.
    9900012    2    1    2    0    0 -0.10049043679E+01 -0.22906174187E+00 -0.57500970959E+00  0.90007771956E+02  0.90000033746E+02 0.  0.
        -12    1    1    2    0    0  0.10049043679E+01  0.22906174187E+00  0.57500970959E+00  0.11802280442E+01  0.00000000000E+00 0.  1.
         11    1    3    3    0    0 -0.44347942201E+00 -0.39605239335E+01  0.99443280663E+01  0.10713173422E+02  0.51100000000E-03 0. -1.
        -11    1    3    3    0    0 -0.12260438527E+02  0.28805575381E+02  0.20736663039E+02  0.37551148054E+02  0.51100000000E-03 0.  1.
         12    1    3    3    0    0  0.11699013582E+02 -0.25074113189E+02 -0.31256000815E+02  0.41743450480E+02  0.00000000000E+00 0. -1.
</event>
<event>
 7    1  0.2879200E-015  0.9000772E+02  0.7816164E-02  0.1186339E+00
        -11   -1    0    0    0    0  0.00000000000E+00  0.00000000000E+00  0.45593999997E+02  0.45594000000E+02  0.51100000000E-03 0. -1.
         11   -1    0    0    0    0 -0.00000000000E+00 -0.00000000000E+00 -0.45593999997E+02  0.45594000000E+02  0.51100000000E-03 0.  1.
    9900012    2    1    2    0    0  0.17815765175E+00  0.77572753845E-01  0.11641762893E+01  0.90007718630E+02  0.89999979715E+02 0.  0.
        -12    1    1    2    0    0 -0.17815765175E+00 -0.77572753845E-01 -0.11641762893E+01  0.11802813705E+01  0.00000000000E+00 0.  1.
         11    1    3    3    0    0  0.72433044549E+01 -0.24540381782E+01  0.11441748551E+02  0.13762317137E+02  0.51100000000E-03 0. -1.
        -11    1    3    3    0    0 -0.20334488482E+02 -0.32328403476E+02 -0.66878144626E+01  0.38772979711E+02  0.51100000000E-03 0.  1.
         12    1    3    3    0    0  0.13269341679E+02  0.34860014408E+02 -0.35897577989E+01  0.37472421782E+02  0.00000000000E+00 0. -1.
</event>
<event>
 7    1  0.2879200E-015  0.9000769E+02  0.7816164E-02  0.1186339E+00
        -11   -1    0    0    0    0  0.00000000000E+00  0.00000000000E+00  0.45593999997E+02  0.45594000000E+02  0.51100000000E-03 0.  1.
         11   -1    0    0    0    0 -0.00000000000E+00 -0.00000000000E+00 -0.45593999997E+02  0.45594000000E+02  0.51100000000E-03 0. -1.
    9900012    2    1    2    0    0 -0.10039926694E+01 -0.11507727872E+00  0.60982944627E+00  0.90007688171E+02  0.89999948855E+02 0.  0.
        -12    1    1    2    0    0  0.10039926694E+01  0.11507727872E+00 -0.60982944627E+00  0.11803118291E+01  0.00000000000E+00 0.  1.
         11    1    3    3    0    0 -0.22080301549E+02 -0.19939552999E+02 -0.29542382948E+02  0.41927054283E+02  0.51100000000E-03 0. -1.
        -11    1    3    3    0    0  0.24179630719E+01 -0.52770935602E+01  0.73946478092E+01  0.94008020053E+01  0.51100000000E-03 0.  1.
        -12    1    3    3    0    0  0.18658345808E+02  0.25101569281E+02  0.22757564585E+02  0.38679831883E+02  0.00000000000E+00 0.  1.
</event>
<event>
 7    1  0.2879200E-015  0.9000781E+02  0.7816164E-02  0.1186339E+00
        -11   -1    0    0    0    0  0.00000000000E+00  0.00000000000E+00  0.45593999997E+02  0.45594000000E+02  0.51100000000E-03 0. -1.
         11   -1    0    0    0    0 -0.00000000000E+00 -0.00000000000E+00 -0.45593999997E+02  0.45594000000E+02  0.51100000000E-03 0.  1.
    9900012    2    1    2    0    0 -0.49436583492E+00  0.10663993919E+01 -0.10600525144E+00  0.90007812576E+02  0.90000074902E+02 0.  0.
        -12    1    1    2    0    0  0.49436583492E+00 -0.10663993919E+01  0.10600525144E+00  0.11801874237E+01  0.00000000000E+00 0.  1.
         11    1    3    3    0    0  0.13907465711E+01 -0.21176735119E+02  0.33984122578E+02  0.40066305969E+02  0.51100000000E-03 0. -1.
        -11    1    3    3    0    0 -0.32011583233E+01  0.93274860543E+01  0.32703396595E+01  0.10389635819E+02  0.51100000000E-03 0.  1.
        -12    1    3    3    0    0  0.13160459173E+01  0.12915648456E+02 -0.37360467489E+02  0.39551870789E+02  0.00000000000E+00 0.  1.
</event>
<event>
 7    1  0.2879200E-015  0.9000732E+02  0.7816164E-02  0.1186340E+00
        -11   -1    0    0    0    0  0.00000000000E+00  0.00000000000E+00  0.45593999997E+02  0.45594000000E+02  0.51100000000E-03 0. -1.
         11   -1    0    0    0    0 -0.00000000000E+00 -0.00000000000E+00 -0.45593999997E+02  0.45594000000E+02  0.51100000000E-03 0.  1.
    9900012    2    1    2    0    0  0.10354934644E-01 -0.41391822214E+00  0.11056987138E+01  0.90007320041E+02  0.89999575865E+02 0.  0.
        -12    1    1    2    0    0 -0.10354934644E-01  0.41391822214E+00 -0.11056987138E+01  0.11806799587E+01  0.00000000000E+00 0.  1.
         11    1    3    3    0    0  0.52992901590E+01 -0.11786564670E+00 -0.57184470444E+01  0.77972434463E+01  0.51100000000E-03 0. -1.
        -11    1    3    3    0    0 -0.19923638158E+02 -0.31537061439E+02 -0.16267682047E+02  0.40696131033E+02  0.51100000000E-03 0.  1.
         12    1    3    3    0    0  0.14634702934E+02  0.31241008863E+02  0.23091827805E+02  0.41513945562E+02  0.00000000000E+00 0. -1.
</event>
<event>
 7    1  0.2879200E-015  0.9000777E+02  0.7816164E-02  0.1186339E+00
        -11   -1    0    0    0    0  0.00000000000E+00  0.00000000000E+00  0.45593999997E+02  0.45594000000E+02  0.51100000000E-03 0.  1.
         11   -1    0    0    0    0 -0.00000000000E+00 -0.00000000000E+00 -0.45593999997E+02  0.45594000000E+02  0.51100000000E-03 0. -1.
    9900012    2    1    2    0    0  0.94726160108E+00  0.70280824712E+00  0.41166135421E-01  0.90007771792E+02  0.90000033579E+02 0.  0.
        -12    1    1    2    0    0 -0.94726160108E+00 -0.70280824712E+00 -0.41166135421E-01  0.11802282084E+01  0.00000000000E+00 0.  1.
         11    1    3    3    0    0  0.16737219733E+01 -0.89084090491E+01  0.17745333954E+01  0.92363448432E+01  0.51100000000E-03 0. -1.
        -11    1    3    3    0    0 -0.16135079144E+02  0.48756846768E+01  0.35993639805E+02  0.39744876232E+02  0.51100000000E-03 0.  1.
         12    1    3    3    0    0  0.15408618772E+02  0.47355326194E+01 -0.37727007065E+02  0.41026550717E+02  0.00000000000E+00 0. -1.
</event>
<event>
 7    1  0.2879200E-015  0.9000772E+02  0.7816164E-02  0.1186339E+00
        -11   -1    0    0    0    0  0.00000000000E+00  0.00000000000E+00  0.45593999997E+02  0.45594000000E+02  0.51100000000E-03 0. -1.
         11   -1    0    0    0    0 -0.00000000000E+00 -0.00000000000E+00 -0.45593999997E+02  0.45594000000E+02  0.51100000000E-03 0.  1.
    9900012    2    1    2    0    0 -0.11060433015E+01 -0.41184968190E+00 -0.10069642067E-01  0.90007723192E+02  0.89999984338E+02 0.  0.
        -12    1    1    2    0    0  0.11060433015E+01  0.41184968190E+00  0.10069642067E-01  0.11802768077E+01  0.00000000000E+00 0.  1.
         11    1    3    3    0    0  0.13937104157E+02  0.36137661059E+02  0.11886520311E+02  0.40514969881E+02  0.51100000000E-03 0. -1.
        -11    1    3    3    0    0  0.73166474632E+01 -0.64940639077E+01  0.10935156600E+01  0.98438799717E+01  0.51100000000E-03 0.  1.
        -12    1    3    3    0    0 -0.22359794922E+02 -0.30055446833E+02 -0.12990105613E+02  0.39648873340E+02  0.00000000000E+00 0.  1.
</event>
<event>
 7    1  0.2879200E-015  0.9000772E+02  0.7816164E-02  0.1186339E+00
        -11   -1    0    0    0    0  0.00000000000E+00  0.00000000000E+00  0.45593999997E+02  0.45594000000E+02  0.51100000000E-03 0.  1.
         11   -1    0    0    0    0 -0.00000000000E+00 -0.00000000000E+00 -0.45593999997E+02  0.45594000000E+02  0.51100000000E-03 0. -1.
    9900012    2    1    2    0    0  0.87603034032E+00 -0.78840102896E+00 -0.63706467686E-01  0.90007718740E+02  0.89999979827E+02 0.  0.
        -12    1    1    2    0    0 -0.87603034032E+00  0.78840102896E+00  0.63706467686E-01  0.11802812604E+01  0.00000000000E+00 0.  1.
         11    1    3    3    0    0  0.66137603214E+01  0.34525221337E+01 -0.35125982947E+02  0.35909558796E+02  0.51100000000E-03 0. -1.
        -11    1    3    3    0    0  0.16009126081E+01  0.90716292459E+01 -0.55359714082E+01  0.10747295383E+02  0.51100000000E-03 0.  1.
        -12    1    3    3    0    0 -0.73386425893E+01 -0.13312552409E+02  0.40598247887E+02  0.43350864561E+02  0.00000000000E+00 0.  1.
</event>
<event>
 7    1  0.2879200E-015  0.9000769E+02  0.7816164E-02  0.1186339E+00
        -11   -1    0    0    0    0  0.00000000000E+00  0.00000000000E+00  0.45593999997E+02  0.45594000000E+02  0.51100000000E-03 0. -1.
         11   -1    0    0    0    0 -0.00000000000E+00 -0.00000000000E+00 -0.45593999997E+02  0.45594000000E+02  0.51100000000E-03 0.  1.
    9900012    2    1    2    0    0 -0.96031574083E+00 -0.10265150540E+00 -0.67852220753E+00  0.90007688160E+02  0.89999948844E+02 0.  0.
        -12    1    1    2    0    0  0.96031574083E+00  0.10265150540E+00  0.67852220753E+00  0.11803118400E+01  0.00000000000E+00 0.  1.
         11    1    3    3    0    0  0.31010846323E+02 -0.78914303839E+00 -0.39402001165E+01  0.31270121740E+02  0.51100000000E-03 0. -1.
        -11    1    3    3    0    0  0.81138223191E+01  0.72704701702E+01 -0.11193575799E+02  0.15620178890E+02  0.51100000000E-03 0.  1.
        -12    1    3    3    0    0 -0.40084984383E+02 -0.65839786372E+01  0.14455253708E+02  0.43117387530E+02  0.00000000000E+00 0.  1.
</event>
<event>
 7    1  0.2879200E-015  0.9000789E+02  0.7816164E-02  0.1186339E+00
        -11   -1    0    0    0    0  0.00000000000E+00  0.00000000000E+00  0.45593999997E+02  0.45594000000E+02  0.51100000000E-03 0.  1.
         11   -1    0    0    0    0 -0.00000000000E+00 -0.00000000000E+00 -0.45593999997E+02  0.45594000000E+02  0.51100000000E-03 0. -1.
    9900012    2    1    2    0    0 -0.39405218430E+00 -0.73285749016E+00  0.83683578408E+00  0.90007893499E+02  0.90000156893E+02 0.  0.
        -12    1    1    2    0    0  0.39405218430E+00  0.73285749016E+00 -0.83683578408E+00  0.11801065013E+01  0.00000000000E+00 0.  1.
         11    1    3    3    0    0 -0.96290780956E+01  0.70937819191E+00  0.21433585557E+01  0.98902147879E+01  0.51100000000E-03 0. -1.
        -11    1    3    3    0    0 -0.24221950154E+02 -0.24780144144E+02  0.12821487225E+02  0.36947922106E+02  0.51100000000E-03 0.  1.
         12    1    3    3    0    0  0.33456976065E+02  0.23337908462E+02 -0.14128009997E+02  0.43169756604E+02  0.00000000000E+00 0. -1.
</event>
<event>
 7    1  0.4368521E-015  0.9000775E+02  0.7816164E-02  0.1186339E+00
        -11   -1    0    0    0    0  0.00000000000E+00  0.00000000000E+00  0.45593999997E+02  0.45594000000E+02  0.51100000000E-03 0.  1.
         11   -1    0    0    0    0 -0.00000000000E+00 -0.00000000000E+00 -0.45593999997E+02  0.45594000000E+02  0.51100000000E-03 0. -1.
    9900012    2    1    2    0    0 -0.45849746828E+00 -0.86721871853E+00  0.65628355845E+00  0.90007747339E+02  0.90000008804E+02 0.  0.
        -12    1    1    2    0    0  0.45849746828E+00  0.86721871853E+00 -0.65628355845E+00  0.11802526608E+01  0.00000000000E+00 0.  1.
         11    1    3    3    0    0  0.19084864845E+02 -0.29463362918E+02  0.10891155027E+02  0.36755123163E+02  0.51100000000E-03 0. -1.
        -11    1    3    3    0    0 -0.24039888213E+01 -0.89336311667E+01  0.33133562756E+01  0.98268641054E+01  0.51100000000E-03 0.  1.
        -12    1    3    3    0    0 -0.17139373492E+02  0.37529775367E+02 -0.13548227744E+02  0.43425760071E+02  0.00000000000E+00 0.  1.
</event>
<event>
 7    1  0.2879200E-015  0.9000783E+02  0.7816164E-02  0.1186339E+00
        -11   -1    0    0    0    0  0.00000000000E+00  0.00000000000E+00  0.45593999997E+02  0.45594000000E+02  0.51100000000E-03 0.  1.
         11   -1    0    0    0    0 -0.00000000000E+00 -0.00000000000E+00 -0.45593999997E+02  0.45594000000E+02  0.51100000000E-03 0. -1.
    9900012    2    1    2    0    0 -0.45407772754E+00  0.10479147074E+01 -0.29745248917E+00  0.90007834842E+02  0.90000097462E+02 0.  0.
        -12    1    1    2    0    0  0.45407772754E+00 -0.10479147074E+01  0.29745248917E+00  0.11801651579E+01  0.00000000000E+00 0.  1.
         11    1    3    3    0    0  0.11149679487E+02 -0.20431908631E+01  0.26514078518E+00  0.11338442639E+02  0.51100000000E-03 0. -1.
        -11    1    3    3    0    0  0.70543172740E+01 -0.34068780305E+02  0.91386891288E+01  0.35971666946E+02  0.51100000000E-03 0.  1.
         12    1    3    3    0    0 -0.18658074489E+02  0.37159885875E+02 -0.97012824031E+01  0.42697725257E+02  0.00000000000E+00 0. -1.
</event>
<event>
 7    1  0.2879200E-015  0.9000811E+02  0.7816164E-02  0.1186338E+00
        -11   -1    0    0    0    0  0.00000000000E+00  0.00000000000E+00  0.45593999997E+02  0.45594000000E+02  0.51100000000E-03 0. -1.
         11   -1    0    0    0    0 -0.00000000000E+00 -0.00000000000E+00 -0.45593999997E+02  0.45594000000E+02  0.51100000000E-03 0.  1.
    9900012    2    1    2    0    0 -0.37207996675E+00 -0.36272199375E+00  0.10593049231E+01  0.90008111163E+02  0.90000377430E+02 0.  0.
        -12    1    1    2    0    0  0.37207996675E+00  0.36272199375E+00 -0.10593049231E+01  0.11798888365E+01  0.00000000000E+00 0.  1.
         11    1    3    3    0    0  0.75458765723E+01  0.21869234413E+02  0.26960154566E+02  0.35525393757E+02  0.51100000000E-03 0. -1.
        -11    1    3    3    0    0  0.65748831194E+01  0.22547629786E+01  0.77526435033E+01  0.10412325661E+02  0.51100000000E-03 0.  1.
        -12    1    3    3    0    0 -0.14492839658E+02 -0.24486719386E+02 -0.33653493147E+02  0.44070391746E+02  0.00000000000E+00 0.  1.
</event>
<event>
 7    1  0.2879200E-015  0.9000776E+02  0.7816164E-02  0.1186339E+00
        -11   -1    0    0    0    0  0.00000000000E+00  0.00000000000E+00  0.45593999997E+02  0.45594000000E+02  0.51100000000E-03 0.  1.
         11   -1    0    0    0    0 -0.00000000000E+00 -0.00000000000E+00 -0.45593999997E+02  0.45594000000E+02  0.51100000000E-03 0. -1.
    9900012    2    1    2    0    0 -0.81241705346E+00 -0.17121155579E+00 -0.83882792660E+00  0.90007759704E+02  0.90000021332E+02 0.  0.
        -12    1    1    2    0    0  0.81241705346E+00  0.17121155579E+00  0.83882792660E+00  0.11802402959E+01  0.00000000000E+00 0.  1.
         11    1    3    3    0    0  0.14489301770E+02  0.29734096954E+02 -0.19488487075E+02  0.38390851985E+02  0.51100000000E-03 0. -1.
        -11    1    3    3    0    0  0.48921930000E+01  0.50992437844E+01  0.60040815590E+01  0.92728008256E+01  0.51100000000E-03 0.  1.
        -12    1    3    3    0    0 -0.20193911823E+02 -0.35004552294E+02  0.12645577589E+02  0.42344106893E+02  0.00000000000E+00 0.  1.
</event>
<event>
 7    1  0.2879200E-015  0.9000776E+02  0.7816164E-02  0.1186339E+00
        -11   -1    0    0    0    0  0.00000000000E+00  0.00000000000E+00  0.45593999997E+02  0.45594000000E+02  0.51100000000E-03 0. -1.
         11   -1    0    0    0    0 -0.00000000000E+00 -0.00000000000E+00 -0.45593999997E+02  0.45594000000E+02  0.51100000000E-03 0.  1.
    9900012    2    1    2    0    0 -0.71573956586E+00 -0.87669040360E+00  0.33481574410E+00  0.90007758172E+02  0.90000019780E+02 0.  0.
        -12    1    1    2    0    0  0.71573956586E+00  0.87669040360E+00 -0.33481574410E+00  0.11802418279E+01  0.00000000000E+00 0.  1.
         11    1    3    3    0    0 -0.77930703780E-02 -0.31175653243E+02 -0.19523424892E+02  0.36784310998E+02  0.51100000000E-03 0. -1.
        -11    1    3    3    0    0  0.71603689644E+01 -0.26014471580E+01 -0.67547647909E+01  0.10181613755E+02  0.51100000000E-03 0.  1.
        -12    1    3    3    0    0 -0.78683154599E+01  0.32900409997E+02  0.26613005427E+02  0.43041833418E+02  0.00000000000E+00 0.  1.
</event>
<event>
 7    1  0.2879200E-015  0.9000777E+02  0.7816164E-02  0.1186339E+00
        -11   -1    0    0    0    0  0.00000000000E+00  0.00000000000E+00  0.45593999997E+02  0.45594000000E+02  0.51100000000E-03 0. -1.
         11   -1    0    0    0    0 -0.00000000000E+00 -0.00000000000E+00 -0.45593999997E+02  0.45594000000E+02  0.51100000000E-03 0.  1.
    9900012    2    1    2    0    0  0.26684588111E+00 -0.55816818332E-01  0.11483074275E+01  0.90007774518E+02  0.90000036341E+02 0.  0.
        -12    1    1    2    0    0 -0.26684588111E+00  0.55816818332E-01 -0.11483074275E+01  0.11802254825E+01  0.00000000000E+00 0.  1.
         11    1    3    3    0    0 -0.52962364623E+01 -0.45842611160E+01  0.28343460465E+01  0.75563938765E+01  0.51100000000E-03 0. -1.
        -11    1    3    3    0    0  0.50696447819E+01 -0.14756517624E+02 -0.38139701503E+02  0.41207923286E+02  0.51100000000E-03 0.  1.
         12    1    3    3    0    0  0.49343756145E+00  0.19284961922E+02  0.36453662884E+02  0.41243457355E+02  0.00000000000E+00 0. -1.
</event>
<event>
 7    1  0.2879200E-015  0.9000862E+02  0.7816164E-02  0.1186337E+00
        -11   -1    0    0    0    0  0.00000000000E+00  0.00000000000E+00  0.45593999997E+02  0.45594000000E+02  0.51100000000E-03 0. -1.
         11   -1    0    0    0    0 -0.00000000000E+00 -0.00000000000E+00 -0.45593999997E+02  0.45594000000E+02  0.51100000000E-03 0.  1.
    9900012    2    1    2    0    0 -0.41482663865E+00  0.10670429721E+01  0.28334361414E+00  0.90008616497E+02  0.90000889430E+02 0.  0.
        -12    1    1    2    0    0  0.41482663865E+00 -0.10670429721E+01 -0.28334361414E+00  0.11793835034E+01  0.00000000000E+00 0.  1.
         11    1    3    3    0    0  0.50561964494E+01 -0.87329759575E+01 -0.12080257041E+01  0.10163135243E+02  0.51100000000E-03 0. -1.
        -11    1    3    3    0    0 -0.32175755884E+02 -0.21042105874E+02  0.55638033582E+01  0.38845918632E+02  0.51100000000E-03 0.  1.
         12    1    3    3    0    0  0.26704732796E+02  0.30842124803E+02 -0.40724340399E+01  0.40999562621E+02  0.00000000000E+00 0. -1.
</event>
<event>
 7    1  0.2879200E-015  0.9000736E+02  0.7816164E-02  0.1186340E+00
        -11   -1    0    0    0    0  0.00000000000E+00  0.00000000000E+00  0.45593999997E+02  0.45594000000E+02  0.51100000000E-03 0.  1.
         11   -1    0    0    0    0 -0.00000000000E+00 -0.00000000000E+00 -0.45593999997E+02  0.45594000000E+02  0.51100000000E-03 0. -1.
    9900012    2    1    2    0    0  0.33134598524E+00 -0.59665783091E+00 -0.96339318731E+00  0.90007357310E+02  0.89999613625E+02 0.  0.
        -12    1    1    2    0    0 -0.33134598524E+00  0.59665783091E+00  0.96339318731E+00  0.11806426904E+01  0.00000000000E+00 0.  1.
         11    1    3    3    0    0 -0.83258791595E+01 -0.56910159531E+00 -0.55667185514E+01  0.10031574956E+02  0.51100000000E-03 0. -1.
        -11    1    3    3    0    0 -0.21547743691E+02  0.12263376420E+02  0.29800333252E+02  0.38765390771E+02  0.51100000000E-03 0.  1.
         12    1    3    3    0    0  0.30204968836E+02 -0.12290932656E+02 -0.25197007888E+02  0.41210391583E+02  0.00000000000E+00 0. -1.
</event>
<event>
 7    1  0.2879200E-015  0.9000758E+02  0.7816164E-02  0.1186339E+00
        -11   -1    0    0    0    0  0.00000000000E+00  0.00000000000E+00  0.45593999997E+02  0.45594000000E+02  0.51100000000E-03 0.  1.
         11   -1    0    0    0    0 -0.00000000000E+00 -0.00000000000E+00 -0.45593999997E+02  0.45594000000E+02  0.51100000000E-03 0. -1.
    9900012    2    1    2    0    0  0.71190638010E+00 -0.31854687929E+00 -0.88606320139E+00  0.90007580242E+02  0.89999839501E+02 0.  0.
        -12    1    1    2    0    0 -0.71190638010E+00  0.31854687929E+00  0.88606320139E+00  0.11804197581E+01  0.00000000000E+00 0.  1.
         11    1    3    3    0    0  0.82452150118E+01  0.85657735779E+01  0.14291616522E+02  0.18590490867E+02  0.51100000000E-03 0. -1.
        -11    1    3    3    0    0 -0.17023482343E+02  0.23446074827E+02  0.85462784414E+01  0.30208545998E+02  0.51100000000E-03 0.  1.
         12    1    3    3    0    0  0.94901737111E+01 -0.32330395284E+02 -0.23723958165E+02  0.41208543377E+02  0.00000000000E+00 0. -1.
</event>
<event>
 7    1  0.2879200E-015  0.9000808E+02  0.7816164E-02  0.1186338E+00
        -11   -1    0    0    0    0  0.00000000000E+00  0.00000000000E+00  0.45593999997E+02  0.45594000000E+02  0.51100000000E-03 0.  1.
         11   -1    0    0    0    0 -0.00000000000E+00 -0.00000000000E+00 -0.45593999997E+02  0.45594000000E+02  0.51100000000E-03 0. -1.
    9900012    2    1    2    0    0  0.21098353254E+00  0.10236324992E+01 -0.54761100881E+00  0.90008078239E+02  0.90000344071E+02 0.  0.
        -12    1    1    2    0    0 -0.21098353254E+00 -0.10236324992E+01  0.54761100881E+00  0.11799217607E+01  0.00000000000E+00 0.  1.
         11    1    3    3    0    0 -0.36891909382E+01  0.55527815835E+01  0.45414884364E+01  0.80665129128E+01  0.51100000000E-03 0. -1.
        -11    1    3    3    0    0 -0.20087626783E+02  0.32069959639E+02 -0.50854194110E+01  0.38181887747E+02  0.51100000000E-03 0.  1.
         12    1    3    3    0    0  0.23987801254E+02 -0.36599108723E+02 -0.36800341485E-02  0.43759677580E+02  0.00000000000E+00 0. -1.
</event>
<event>
 7    1  0.2879200E-015  0.9000775E+02  0.7816164E-02  0.1186339E+00
        -11   -1    0    0    0    0  0.00000000000E+00  0.00000000000E+00  0.45593999997E+02  0.45594000000E+02  0.51100000000E-03 0.  1.
         11   -1    0    0    0    0 -0.00000000000E+00 -0.00000000000E+00 -0.45593999997E+02  0.45594000000E+02  0.51100000000E-03 0. -1.
    9900012    2    1    2    0    0  0.26412070113E+00 -0.78255401383E+00 -0.84311387173E+00  0.90007749378E+02  0.90000010870E+02 0.  0.
        -12    1    1    2    0    0 -0.26412070113E+00  0.78255401383E+00  0.84311387173E+00  0.11802506217E+01  0.00000000000E+00 0.  1.
         11    1    3    3    0    0 -0.13531392998E+01 -0.35765462412E+02 -0.15350745554E+02  0.38944122495E+02  0.51100000000E-03 0. -1.
        -11    1    3    3    0    0 -0.85969020971E+01 -0.30357256566E+01  0.24579061687E-01  0.91171794059E+01  0.51100000000E-03 0.  1.
        -12    1    3    3    0    0  0.10214162098E+02  0.38018634055E+02  0.14483052621E+02  0.41946447478E+02  0.00000000000E+00 0.  1.
</event>
<event>
 7    1  0.2879200E-015  0.9000774E+02  0.7816164E-02  0.1186339E+00
        -11   -1    0    0    0    0  0.00000000000E+00  0.00000000000E+00  0.45593999997E+02  0.45594000000E+02  0.51100000000E-03 0.  1.
         11   -1    0    0    0    0 -0.00000000000E+00 -0.00000000000E+00 -0.45593999997E+02  0.45594000000E+02  0.51100000000E-03 0. -1.
    9900012    2    1    2    0    0  0.33910503381E+00  0.11232783359E+01  0.12750937975E+00  0.90007743636E+02  0.90000005052E+02 0.  0.
        -12    1    1    2    0    0 -0.33910503381E+00 -0.11232783359E+01 -0.12750937975E+00  0.11802563644E+01  0.00000000000E+00 0.  1.
         11    1    3    3    0    0 -0.99333939128E+01  0.78676654685E+00 -0.29045964519E+01  0.10379209846E+02  0.51100000000E-03 0. -1.
        -11    1    3    3    0    0 -0.27682726127E+02  0.14719480307E+02  0.18253465364E+02  0.36279269899E+02  0.51100000000E-03 0.  1.
         12    1    3    3    0    0  0.37955225074E+02 -0.14382968518E+02 -0.15221359532E+02  0.43349263890E+02  0.00000000000E+00 0. -1.
</event>
<event>
 7    1  0.2879200E-015  0.9000778E+02  0.7816164E-02  0.1186339E+00
        -11   -1    0    0    0    0  0.00000000000E+00  0.00000000000E+00  0.45593999997E+02  0.45594000000E+02  0.51100000000E-03 0.  1.
         11   -1    0    0    0    0 -0.00000000000E+00 -0.00000000000E+00 -0.45593999997E+02  0.45594000000E+02  0.51100000000E-03 0. -1.
    9900012    2    1    2    0    0 -0.94339256487E+00 -0.50953966351E+00 -0.49324364107E+00  0.90007784134E+02  0.90000046085E+02 0.  0.
        -12    1    1    2    0    0  0.94339256487E+00  0.50953966351E+00  0.49324364107E+00  0.11802158657E+01  0.00000000000E+00 0.  1.
         11    1    3    3    0    0 -0.85133337904E+01 -0.19681488890E+02 -0.37707101219E+02  0.43378143572E+02  0.51100000000E-03 0. -1.
        -11    1    3    3    0    0  0.32880984731E+00  0.64939673765E+01 -0.16099255190E+00  0.65042791350E+01  0.51100000000E-03 0.  1.
        -12    1    3    3    0    0  0.72411313782E+01  0.12677981850E+02  0.37374850130E+02  0.40125361427E+02  0.00000000000E+00 0.  1.
</event>
<event>
 7    1  0.2879200E-015  0.9000792E+02  0.7816164E-02  0.1186339E+00
        -11   -1    0    0    0    0  0.00000000000E+00  0.00000000000E+00  0.45593999997E+02  0.45594000000E+02  0.51100000000E-03 0.  1.
         11   -1    0    0    0    0 -0.00000000000E+00 -0.00000000000E+00 -0.45593999997E+02  0.45594000000E+02  0.51100000000E-03 0. -1.
    9900012    2    1    2    0    0 -0.30467173246E+00  0.35559673497E+00 -0.10831998259E+01  0.90007917052E+02  0.90000180756E+02 0.  0.
        -12    1    1    2    0    0  0.30467173246E+00 -0.35559673497E+00  0.10831998259E+01  0.11800829485E+01  0.00000000000E+00 0.  1.
         11    1    3    3    0    0 -0.49184982375E+01 -0.43085990137E+02 -0.87853226431E+00  0.43374716024E+02  0.51100000000E-03 0. -1.
        -11    1    3    3    0    0  0.54538178213E+01  0.56667961515E+01  0.36161099848E+01  0.86563825663E+01  0.51100000000E-03 0.  1.
        -12    1    3    3    0    0 -0.83999131623E+00  0.37774790720E+02 -0.38207775464E+01  0.37976818461E+02  0.00000000000E+00 0.  1.
</event>
<event>
 7    1  0.2879200E-015  0.9000778E+02  0.7816164E-02  0.1186339E+00
        -11   -1    0    0    0    0  0.00000000000E+00  0.00000000000E+00  0.45593999997E+02  0.45594000000E+02  0.51100000000E-03 0. -1.
         11   -1    0    0    0    0 -0.00000000000E+00 -0.00000000000E+00 -0.45593999997E+02  0.45594000000E+02  0.51100000000E-03 0.  1.
    9900012    2    1    2    0    0 -0.74926392447E+00 -0.61995297786E+00 -0.66871617791E+00  0.90007779915E+02  0.90000041810E+02 0.  0.
        -12    1    1    2    0    0  0.74926392447E+00  0.61995297786E+00  0.66871617791E+00  0.11802200853E+01  0.00000000000E+00 0.  1.
         11    1    3    3    0    0  0.21833181092E+02 -0.26605688960E+02  0.20817271390E+02  0.40223242908E+02  0.51100000000E-03 0. -1.
        -11    1    3    3    0    0  0.51233475198E+01  0.73354410862E+00  0.19992879538E+01  0.55483267164E+01  0.51100000000E-03 0.  1.
        -12    1    3    3    0    0 -0.27705792536E+02  0.25252191874E+02 -0.23485275522E+02  0.44236210290E+02  0.00000000000E+00 0.  1.
</event>
<event>
 7    1  0.2879200E-015  0.9000781E+02  0.7816164E-02  0.1186339E+00
        -11   -1    0    0    0    0  0.00000000000E+00  0.00000000000E+00  0.45593999997E+02  0.45594000000E+02  0.51100000000E-03 0. -1.
         11   -1    0    0    0    0 -0.00000000000E+00 -0.00000000000E+00 -0.45593999997E+02  0.45594000000E+02  0.51100000000E-03 0.  1.
    9900012    2    1    2    0    0 -0.56943144228E+00 -0.30093191931E+00  0.98895704221E+00  0.90007810092E+02  0.90000072385E+02 0.  0.
        -12    1    1    2    0    0  0.56943144228E+00  0.30093191931E+00 -0.98895704221E+00  0.11801899080E+01  0.00000000000E+00 0.  1.
         11    1    3    3    0    0 -0.33111626716E+01 -0.92905033702E+01  0.37156814842E+02  0.38443544849E+02  0.51100000000E-03 0. -1.
        -11    1    3    3    0    0  0.18259593225E+01  0.57337380083E+01  0.64449536143E+01  0.88174432998E+01  0.51100000000E-03 0.  1.
        -12    1    3    3    0    0  0.91577190684E+00  0.32558334426E+01 -0.42612811414E+02  0.42746821943E+02  0.00000000000E+00 0.  1.
</event>
<event>
 7    1  0.2879200E-015  0.9000785E+02  0.7816164E-02  0.1186339E+00
        -11   -1    0    0    0    0  0.00000000000E+00  0.00000000000E+00  0.45593999997E+02  0.45594000000E+02  0.51100000000E-03 0. -1.
         11   -1    0    0    0    0 -0.00000000000E+00 -0.00000000000E+00 -0.45593999997E+02  0.45594000000E+02  0.51100000000E-03 0.  1.
    9900012    2    1    2    0    0  0.82489219052E+00  0.43750505629E+00  0.72173527826E+00  0.90007847632E+02  0.90000110420E+02 0.  0.
        -12    1    1    2    0    0 -0.82489219052E+00 -0.43750505629E+00 -0.72173527826E+00  0.11801523682E+01  0.00000000000E+00 0.  1.
         11    1    3    3    0    0 -0.15724359551E+02 -0.42322170139E+01 -0.63933651452E+01  0.17494063630E+02  0.51100000000E-03 0. -1.
        -11    1    3    3    0    0 -0.13118697282E+02  0.28535883889E+02 -0.65078726030E+01  0.32074121871E+02  0.51100000000E-03 0.  1.
         12    1    3    3    0    0  0.29667949023E+02 -0.23866161819E+02  0.13622973026E+02  0.40439662131E+02  0.00000000000E+00 0. -1.
</event>
<event>
 7    1  0.2879200E-015  0.9000777E+02  0.7816164E-02  0.1186339E+00
        -11   -1    0    0    0    0  0.00000000000E+00  0.00000000000E+00  0.45593999997E+02  0.45594000000E+02  0.51100000000E-03 0.  1.
         11   -1    0    0    0    0 -0.00000000000E+00 -0.00000000000E+00 -0.45593999997E+02  0.45594000000E+02  0.51100000000E-03 0. -1.
    9900012    2    1    2    0    0  0.90091698146E+00 -0.19370297756E+00 -0.73740635527E+00  0.90007771046E+02  0.90000032824E+02 0.  0.
        -12    1    1    2    0    0 -0.90091698146E+00  0.19370297756E+00  0.73740635527E+00  0.11802289540E+01  0.00000000000E+00 0.  1.
         11    1    3    3    0    0  0.91059280749E+01  0.15715842745E+01  0.27889411073E+01  0.96522534156E+01  0.51100000000E-03 0. -1.
        -11    1    3    3    0    0  0.27520998134E+02 -0.24970037380E+02  0.28973998147E+01  0.37273355511E+02  0.51100000000E-03 0.  1.
         12    1    3    3    0    0 -0.35726009228E+02  0.23204750128E+02 -0.64237472772E+01  0.43082162120E+02  0.00000000000E+00 0. -1.
</event>
<event>
 7    1  0.2879200E-015  0.9000757E+02  0.7816164E-02  0.1186339E+00
        -11   -1    0    0    0    0  0.00000000000E+00  0.00000000000E+00  0.45593999997E+02  0.45594000000E+02  0.51100000000E-03 0. -1.
         11   -1    0    0    0    0 -0.00000000000E+00 -0.00000000000E+00 -0.45593999997E+02  0.45594000000E+02  0.51100000000E-03 0.  1.
    9900012    2    1    2    0    0  0.30808104226E+00  0.34274773214E+00  0.10867534172E+01  0.90007566636E+02  0.89999825716E+02 0.  0.
        -12    1    1    2    0    0 -0.30808104226E+00 -0.34274773214E+00 -0.10867534172E+01  0.11804333637E+01  0.00000000000E+00 0.  1.
         11    1    3    3    0    0  0.15135334201E+02  0.33275969046E+02  0.76384538274E+01  0.37345875735E+02  0.51100000000E-03 0. -1.
        -11    1    3    3    0    0 -0.10017937099E+02  0.67051719562E+01  0.71821150914E+00  0.12076184112E+02  0.51100000000E-03 0.  1.
        -12    1    3    3    0    0 -0.48093160597E+01 -0.39638393270E+02 -0.72699119194E+01  0.40585506789E+02  0.00000000000E+00 0.  1.
</event>
<event>
 7    1  0.3766696E-015  0.9000774E+02  0.7816164E-02  0.1186339E+00
        -11   -1    0    0    0    0  0.00000000000E+00  0.00000000000E+00  0.45593999997E+02  0.45594000000E+02  0.51100000000E-03 0.  1.
         11   -1    0    0    0    0 -0.00000000000E+00 -0.00000000000E+00 -0.45593999997E+02  0.45594000000E+02  0.51100000000E-03 0. -1.
    9900012    2    1    2    0    0  0.98439024186E+00 -0.59470145651E+00 -0.26516862651E+00  0.90007742244E+02  0.90000003641E+02 0.  0.
        -12    1    1    2    0    0 -0.98439024186E+00  0.59470145651E+00  0.26516862651E+00  0.11802577562E+01  0.00000000000E+00 0.  1.
         11    1    3    3    0    0  0.55338616470E+01 -0.26771007066E+02 -0.26701323657E+02  0.38213494074E+02  0.51100000000E-03 0. -1.
        -11    1    3    3    0    0 -0.46044641550E+01  0.13919615283E+01 -0.80189764870E+01  0.93510764734E+01  0.51100000000E-03 0.  1.
        -12    1    3    3    0    0  0.54992749882E-01  0.24784344081E+02  0.34455131517E+02  0.42443171696E+02  0.00000000000E+00 0.  1.
</event>
<event>
 7    1  0.2879200E-015  0.9000790E+02  0.7816164E-02  0.1186339E+00
        -11   -1    0    0    0    0  0.00000000000E+00  0.00000000000E+00  0.45593999997E+02  0.45594000000E+02  0.51100000000E-03 0.  1.
         11   -1    0    0    0    0 -0.00000000000E+00 -0.00000000000E+00 -0.45593999997E+02  0.45594000000E+02  0.51100000000E-03 0. -1.
    9900012    2    1    2    0    0 -0.22082091655E+00  0.72127059859E+00 -0.90754166572E+00  0.90007904653E+02  0.90000168194E+02 0.  0.
        -12    1    1    2    0    0  0.22082091655E+00 -0.72127059859E+00  0.90754166572E+00  0.11800953472E+01  0.00000000000E+00 0.  1.
         11    1    3    3    0    0 -0.65117101702E+00 -0.52316179612E+01  0.86290823702E+01  0.10112117137E+02  0.51100000000E-03 0. -1.
        -11    1    3    3    0    0 -0.14608242709E+02 -0.30347427683E+02  0.11166296688E+02  0.35483141124E+02  0.51100000000E-03 0.  1.
         12    1    3    3    0    0  0.15038592810E+02  0.36300316243E+02 -0.20702920724E+02  0.44412646392E+02  0.00000000000E+00 0. -1.
</event>
<event>
 7    1  0.2879200E-015  0.9000761E+02  0.7816164E-02  0.1186339E+00
        -11   -1    0    0    0    0  0.00000000000E+00  0.00000000000E+00  0.45593999997E+02  0.45594000000E+02  0.51100000000E-03 0. -1.
         11   -1    0    0    0    0 -0.00000000000E+00 -0.00000000000E+00 -0.45593999997E+02  0.45594000000E+02  0.51100000000E-03 0.  1.
    9900012    2    1    2    0    0  0.13192831778E+00  0.93893150700E+00  0.70307561426E+00  0.90007613294E+02  0.89999872990E+02 0.  0.
        -12    1    1    2    0    0 -0.13192831778E+00 -0.93893150700E+00 -0.70307561426E+00  0.11803867058E+01  0.00000000000E+00 0.  1.
         11    1    3    3    0    0 -0.14017997276E+02  0.30240245368E+02  0.89353479805E+01  0.34508218316E+02  0.51100000000E-03 0. -1.
        -11    1    3    3    0    0 -0.25069467858E+01 -0.97937302851E+01 -0.23546007670E+02  0.25624527558E+02  0.51100000000E-03 0.  1.
        -12    1    3    3    0    0  0.16656872380E+02 -0.19507583576E+02  0.15313735304E+02  0.29874867421E+02  0.00000000000E+00 0.  1.
</event>
<event>
 7    1  0.2879200E-015  0.9000773E+02  0.7816164E-02  0.1186339E+00
        -11   -1    0    0    0    0  0.00000000000E+00  0.00000000000E+00  0.45593999997E+02  0.45594000000E+02  0.51100000000E-03 0.  1.
         11   -1    0    0    0    0 -0.00000000000E+00 -0.00000000000E+00 -0.45593999997E+02  0.45594000000E+02  0.51100000000E-03 0. -1.
    9900012    2    1    2    0    0  0.95963895832E+00 -0.54321454529E+00  0.42076591768E+00  0.90007731840E+02  0.89999993100E+02 0.  0.
        -12    1    1    2    0    0 -0.95963895832E+00  0.54321454529E+00 -0.42076591768E+00  0.11802681602E+01  0.00000000000E+00 0.  1.
         11    1    3    3    0    0  0.65231047727E+01 -0.20243036306E+00  0.75477913762E+01  0.99780273024E+01  0.51100000000E-03 0. -1.
        -11    1    3    3    0    0  0.27719306866E+02  0.27168212007E+01  0.22158837266E+02  0.35591504040E+02  0.51100000000E-03 0.  1.
         12    1    3    3    0    0 -0.33282772680E+02 -0.30576053829E+01 -0.29285862725E+02  0.44438200498E+02  0.00000000000E+00 0. -1.
</event>
<event>
 7    1  0.2879200E-015  0.9000772E+02  0.7816164E-02  0.1186339E+00
        -11   -1    0    0    0    0  0.00000000000E+00  0.00000000000E+00  0.45593999997E+02  0.45594000000E+02  0.51100000000E-03 0. -1.
         11   -1    0    0    0    0 -0.00000000000E+00 -0.00000000000E+00 -0.45593999997E+02  0.45594000000E+02  0.51100000000E-03 0.  1.
    9900012    2    1    2    0    0 -0.11185226292E+01 -0.18545499507E+00 -0.32797475299E+00  0.90007722971E+02  0.89999984114E+02 0.  0.
        -12    1    1    2    0    0  0.11185226292E+01  0.18545499507E+00  0.32797475299E+00  0.11802770292E+01  0.00000000000E+00 0.  1.
         11    1    3    3    0    0  0.86021327293E+01  0.89491966948E+01 -0.83832325874E+00  0.12441366288E+02  0.51100000000E-03 0. -1.
        -11    1    3    3    0    0 -0.39289426186E+02 -0.21357277484E+02 -0.53525859269E+01  0.45038233624E+02  0.51100000000E-03 0.  1.
         12    1    3    3    0    0  0.29568770828E+02  0.12222625794E+02  0.58629344327E+01  0.32528123059E+02  0.00000000000E+00 0. -1.
</event>
<event>
 7    1  0.2879200E-015  0.9000790E+02  0.7816164E-02  0.1186339E+00
        -11   -1    0    0    0    0  0.00000000000E+00  0.00000000000E+00  0.45593999997E+02  0.45594000000E+02  0.51100000000E-03 0.  1.
         11   -1    0    0    0    0 -0.00000000000E+00 -0.00000000000E+00 -0.45593999997E+02  0.45594000000E+02  0.51100000000E-03 0. -1.
    9900012    2    1    2    0    0  0.98943495003E+00 -0.63974697601E+00  0.66109173713E-01  0.90007903336E+02  0.90000166860E+02 0.  0.
        -12    1    1    2    0    0 -0.98943495003E+00  0.63974697601E+00 -0.66109173713E-01  0.11800966640E+01  0.00000000000E+00 0.  1.
         11    1    3    3    0    0  0.20751709355E+01 -0.76624150798E+01 -0.12057882655E+02  0.14436463336E+02  0.51100000000E-03 0. -1.
        -11    1    3    3    0    0  0.28127189853E+02 -0.15701224923E+02  0.19747536915E+02  0.37784024237E+02  0.51100000000E-03 0.  1.
         12    1    3    3    0    0 -0.29212925838E+02  0.22723893027E+02 -0.76235450862E+01  0.37787415763E+02  0.00000000000E+00 0. -1.
</event>
<event>
 7    1  0.2879200E-015  0.9000769E+02  0.7816164E-02  0.1186339E+00
        -11   -1    0    0    0    0  0.00000000000E+00  0.00000000000E+00  0.45593999997E+02  0.45594000000E+02  0.51100000000E-03 0. -1.
         11   -1    0    0    0    0 -0.00000000000E+00 -0.00000000000E+00 -0.45593999997E+02  0.45594000000E+02  0.51100000000E-03 0.  1.
    9900012    2    1    2    0    0 -0.10110938062E+01  0.57991986237E+00  0.18577553522E+00  0.90007690599E+02  0.89999951315E+02 0.  0.
        -12    1    1    2    0    0  0.10110938062E+01 -0.57991986237E+00 -0.18577553522E+00  0.11803094006E+01  0.00000000000E+00 0.  1.
         11    1    3    3    0    0 -0.24168498576E+02 -0.14208678830E+02 -0.15309958913E+02  0.31943664782E+02  0.51100000000E-03 0. -1.
        -11    1    3    3    0    0 -0.11081868977E+02 -0.89143633421E+01  0.25020457788E+01  0.14440703832E+02  0.51100000000E-03 0.  1.
        -12    1    3    3    0    0  0.34239273746E+02  0.23702962034E+02  0.12993688669E+02  0.43623321986E+02  0.00000000000E+00 0.  1.
</event>
<event>
 7    1  0.2879200E-015  0.9000775E+02  0.7816164E-02  0.1186339E+00
        -11   -1    0    0    0    0  0.00000000000E+00  0.00000000000E+00  0.45593999997E+02  0.45594000000E+02  0.51100000000E-03 0.  1.
         11   -1    0    0    0    0 -0.00000000000E+00 -0.00000000000E+00 -0.45593999997E+02  0.45594000000E+02  0.51100000000E-03 0. -1.
    9900012    2    1    2    0    0 -0.62025651795E+00  0.87901705148E+00 -0.48539139480E+00  0.90007748361E+02  0.90000009840E+02 0.  0.
        -12    1    1    2    0    0  0.62025651795E+00 -0.87901705148E+00  0.48539139480E+00  0.11802516388E+01  0.00000000000E+00 0.  1.
         11    1    3    3    0    0 -0.35732824116E+02  0.98975848061E+01  0.98186258938E+01  0.38356255279E+02  0.51100000000E-03 0. -1.
        -11    1    3    3    0    0 -0.15109300001E+01  0.80853656673E+01 -0.75040335012E+01  0.11134027415E+02  0.51100000000E-03 0.  1.
        -12    1    3    3    0    0  0.36623497598E+02 -0.17103933422E+02 -0.27999837874E+01  0.40517465667E+02  0.00000000000E+00 0.  1.
</event>
<event>
 7    1  0.2879200E-015  0.9000774E+02  0.7816164E-02  0.1186339E+00
        -11   -1    0    0    0    0  0.00000000000E+00  0.00000000000E+00  0.45593999997E+02  0.45594000000E+02  0.51100000000E-03 0.  1.
         11   -1    0    0    0    0 -0.00000000000E+00 -0.00000000000E+00 -0.45593999997E+02  0.45594000000E+02  0.51100000000E-03 0. -1.
    9900012    2    1    2    0    0  0.45897213151E+00 -0.32875941348E+00 -0.10364739958E+01  0.90007738794E+02  0.90000000147E+02 0.  0.
        -12    1    1    2    0    0 -0.45897213151E+00  0.32875941348E+00  0.10364739958E+01  0.11802612056E+01  0.00000000000E+00 0.  1.
         11    1    3    3    0    0 -0.84360988153E+01  0.37456859505E+02  0.13642847526E+02  0.40746918608E+02  0.51100000000E-03 0. -1.
        -11    1    3    3    0    0 -0.70513574429E+01 -0.40637961216E+01  0.20289418381E+01  0.83876508004E+01  0.51100000000E-03 0.  1.
        -12    1    3    3    0    0  0.15946428390E+02 -0.33721822797E+02 -0.16708263360E+02  0.40873169386E+02  0.00000000000E+00 0.  1.
</event>
<event>
 7    1  0.2879200E-015  0.9000771E+02  0.7816164E-02  0.1186339E+00
        -11   -1    0    0    0    0  0.00000000000E+00  0.00000000000E+00  0.45593999997E+02  0.45594000000E+02  0.51100000000E-03 0.  1.
         11   -1    0    0    0    0 -0.00000000000E+00 -0.00000000000E+00 -0.45593999997E+02  0.45594000000E+02  0.51100000000E-03 0. -1.
    9900012    2    1    2    0    0 -0.53722835471E+00 -0.10045363468E+01  0.30881617854E+00  0.90007714014E+02  0.89999975039E+02 0.  0.
        -12    1    1    2    0    0  0.53722835471E+00  0.10045363468E+01 -0.30881617854E+00  0.11802859862E+01  0.00000000000E+00 0.  1.
         11    1    3    3    0    0  0.99327238651E+01  0.14669351398E+02 -0.19173703184E+01  0.17819236319E+02  0.51100000000E-03 0. -1.
        -11    1    3    3    0    0  0.23217367597E+02 -0.15020092620E+02  0.19968892423E+02  0.34108737962E+02  0.51100000000E-03 0.  1.
         12    1    3    3    0    0 -0.33687319817E+02 -0.65379512416E+00 -0.17742705926E+02  0.38079739733E+02  0.00000000000E+00 0. -1.
</event>
<event>
 7    1  0.2879200E-015  0.9000774E+02  0.7816164E-02  0.1186339E+00
        -11   -1    0    0    0    0  0.00000000000E+00  0.00000000000E+00  0.45593999997E+02  0.45594000000E+02  0.51100000000E-03 0.  1.
         11   -1    0    0    0    0 -0.00000000000E+00 -0.00000000000E+00 -0.45593999997E+02  0.45594000000E+02  0.51100000000E-03 0. -1.
    9900012    2    1    2    0    0  0.26699387743E+00  0.11415611445E+01  0.13627621046E+00  0.90007737833E+02  0.89999999172E+02 0.  0.
        -12    1    1    2    0    0 -0.26699387743E+00 -0.11415611445E+01 -0.13627621046E+00  0.11802621670E+01  0.00000000000E+00 0.  1.
         11    1    3    3    0    0  0.62147794419E+01 -0.31457241618E+01  0.66067786081E+01  0.96004472735E+01  0.51100000000E-03 0. -1.
        -11    1    3    3    0    0  0.10700908789E+02  0.33461737279E+02  0.17395002969E+02  0.39201829538E+02  0.51100000000E-03 0.  1.
         12    1    3    3    0    0 -0.16648694354E+02 -0.29174451972E+02 -0.23865505366E+02  0.41205461021E+02  0.00000000000E+00 0. -1.
</event>
<event>
 7    1  0.2879200E-015  0.9000774E+02  0.7816164E-02  0.1186339E+00
        -11   -1    0    0    0    0  0.00000000000E+00  0.00000000000E+00  0.45593999997E+02  0.45594000000E+02  0.51100000000E-03 0. -1.
         11   -1    0    0    0    0 -0.00000000000E+00 -0.00000000000E+00 -0.45593999997E+02  0.45594000000E+02  0.51100000000E-03 0.  1.
    9900012    2    1    2    0    0 -0.20096418057E+00  0.58550248134E+00  0.10048942410E+01  0.90007740625E+02  0.90000002001E+02 0.  0.
        -12    1    1    2    0    0  0.20096418057E+00 -0.58550248134E+00 -0.10048942410E+01  0.11802593754E+01  0.00000000000E+00 0.  1.
         11    1    3    3    0    0  0.74877884986E+01 -0.45398003496E+01 -0.15245958426E+02  0.17581695379E+02  0.51100000000E-03 0. -1.
        -11    1    3    3    0    0 -0.15344522361E+01 -0.17534847213E+02 -0.21612142893E+02  0.27873107669E+02  0.51100000000E-03 0.  1.
         12    1    3    3    0    0 -0.61543004431E+01  0.22660150043E+02  0.37862995560E+02  0.44552937577E+02  0.00000000000E+00 0. -1.
</event>
<event>
 7    1  0.2879200E-015  0.9000778E+02  0.7816164E-02  0.1186339E+00
        -11   -1    0    0    0    0  0.00000000000E+00  0.00000000000E+00  0.45593999997E+02  0.45594000000E+02  0.51100000000E-03 0.  1.
         11   -1    0    0    0    0 -0.00000000000E+00 -0.00000000000E+00 -0.45593999997E+02  0.45594000000E+02  0.51100000000E-03 0. -1.
    9900012    2    1    2    0    0  0.18167607513E-01 -0.94385227042E+00 -0.70832562504E+00  0.90007782918E+02  0.90000044852E+02 0.  0.
        -12    1    1    2    0    0 -0.18167607513E-01  0.94385227042E+00  0.70832562504E+00  0.11802170823E+01  0.00000000000E+00 0.  1.
         11    1    3    3    0    0 -0.27481970946E+02 -0.28904887668E+01  0.19090440736E+02  0.33586583335E+02  0.51100000000E-03 0. -1.
        -11    1    3    3    0    0 -0.11279829557E+02  0.32040481397E+01  0.20322527197E+01  0.11900862603E+02  0.51100000000E-03 0.  1.
        -12    1    3    3    0    0  0.38779968110E+02 -0.12574116433E+01 -0.21831019081E+02  0.44520336980E+02  0.00000000000E+00 0.  1.
</event>
<event>
 7    1  0.2879200E-015  0.9000770E+02  0.7816164E-02  0.1186339E+00
        -11   -1    0    0    0    0  0.00000000000E+00  0.00000000000E+00  0.45593999997E+02  0.45594000000E+02  0.51100000000E-03 0. -1.
         11   -1    0    0    0    0 -0.00000000000E+00 -0.00000000000E+00 -0.45593999997E+02  0.45594000000E+02  0.51100000000E-03 0.  1.
    9900012    2    1    2    0    0  0.26465117101E+00 -0.31169813459E-01  0.11498287287E+01  0.90007695842E+02  0.89999956627E+02 0.  0.
        -12    1    1    2    0    0 -0.26465117101E+00  0.31169813459E-01 -0.11498287287E+01  0.11803041579E+01  0.00000000000E+00 0.  1.
         11    1    3    3    0    0 -0.79311658410E+01 -0.59041146360E+01  0.11556207123E+01  0.99547687429E+01  0.51100000000E-03 0. -1.
        -11    1    3    3    0    0 -0.13283061608E+02 -0.29074832424E+02 -0.16340283711E+02  0.35899728107E+02  0.51100000000E-03 0.  1.
         12    1    3    3    0    0  0.21478878620E+02  0.34947777246E+02  0.16334491727E+02  0.44153198992E+02  0.00000000000E+00 0. -1.
</event>
<event>
 7    1  0.3509688E-015  0.9000828E+02  0.7816164E-02  0.1186338E+00
        -11   -1    0    0    0    0  0.00000000000E+00  0.00000000000E+00  0.45593999997E+02  0.45594000000E+02  0.51100000000E-03 0. -1.
         11   -1    0    0    0    0 -0.00000000000E+00 -0.00000000000E+00 -0.45593999997E+02  0.45594000000E+02  0.51100000000E-03 0.  1.
    9900012    2    1    2    0    0 -0.49227287169E-01 -0.50667792534E+00  0.10642365110E+01  0.90008277491E+02  0.90000545953E+02 0.  0.
        -12    1    1    2    0    0  0.49227287169E-01  0.50667792534E+00 -0.10642365110E+01  0.11797225085E+01  0.00000000000E+00 0.  1.
         11    1    3    3    0    0 -0.26159872358E+02  0.14584072153E+02  0.25428382940E+02  0.39289142795E+02  0.51100000000E-03 0. -1.
        -11    1    3    3    0    0  0.46286922535E+01 -0.10893230417E-01  0.78826093706E+01  0.91411400487E+01  0.51100000000E-03 0.  1.
        -12    1    3    3    0    0  0.21481952817E+02 -0.15079856848E+02 -0.32246755799E+02  0.41577994648E+02  0.00000000000E+00 0.  1.
</event>
<event>
 7    1  0.2879200E-015  0.9000763E+02  0.7816164E-02  0.1186339E+00
        -11   -1    0    0    0    0  0.00000000000E+00  0.00000000000E+00  0.45593999997E+02  0.45594000000E+02  0.51100000000E-03 0.  1.
         11   -1    0    0    0    0 -0.00000000000E+00 -0.00000000000E+00 -0.45593999997E+02  0.45594000000E+02  0.51100000000E-03 0. -1.
    9900012    2    1    2    0    0  0.30372655705E+00  0.80394892555E+00 -0.80912651219E+00  0.90007631664E+02  0.89999891602E+02 0.  0.
        -12    1    1    2    0    0 -0.30372655705E+00 -0.80394892555E+00  0.80912651219E+00  0.11803683362E+01  0.00000000000E+00 0.  1.
         11    1    3    3    0    0  0.20208520199E+02 -0.15372461134E+02 -0.31228340043E+02  0.40248056749E+02  0.51100000000E-03 0. -1.
        -11    1    3    3    0    0  0.18733767930E+00 -0.79556097732E+01  0.67889722510E+01  0.10460256534E+02  0.51100000000E-03 0.  1.
        -12    1    3    3    0    0 -0.20092131321E+02  0.24132019833E+02  0.23630241280E+02  0.39299318381E+02  0.00000000000E+00 0.  1.
</event>
<event>
 7    1  0.2879200E-015  0.9000782E+02  0.7816164E-02  0.1186339E+00
        -11   -1    0    0    0    0  0.00000000000E+00  0.00000000000E+00  0.45593999997E+02  0.45594000000E+02  0.51100000000E-03 0.  1.
         11   -1    0    0    0    0 -0.00000000000E+00 -0.00000000000E+00 -0.45593999997E+02  0.45594000000E+02  0.51100000000E-03 0. -1.
    9900012    2    1    2    0    0 -0.88525836122E+00 -0.74221522661E+00  0.24137384294E+00  0.90007819022E+02  0.90000081433E+02 0.  0.
        -12    1    1    2    0    0  0.88525836122E+00  0.74221522661E+00 -0.24137384294E+00  0.11801809780E+01  0.00000000000E+00 0.  1.
         11    1    3    3    0    0  0.14933129776E+02 -0.28457776662E+00 -0.35631353658E+02  0.38635122792E+02  0.51100000000E-03 0. -1.
        -11    1    3    3    0    0 -0.60562626904E+01  0.60293566110E+01 -0.42704106140E+01  0.95534216902E+01  0.51100000000E-03 0.  1.
        -12    1    3    3    0    0 -0.97621254468E+01 -0.64869940710E+01  0.40143138115E+02  0.41819274540E+02  0.00000000000E+00 0.  1.
</event>
<event>
 7    1  0.2879200E-015  0.9000773E+02  0.7816164E-02  0.1186339E+00
        -11   -1    0    0    0    0  0.00000000000E+00  0.00000000000E+00  0.45593999997E+02  0.45594000000E+02  0.51100000000E-03 0. -1.
         11   -1    0    0    0    0 -0.00000000000E+00 -0.00000000000E+00 -0.45593999997E+02  0.45594000000E+02  0.51100000000E-03 0.  1.
    9900012    2    1    2    0    0 -0.39047635634E+00 -0.98580413130E+00  0.51842468924E+00  0.90007726418E+02  0.89999987607E+02 0.  0.
        -12    1    1    2    0    0  0.39047635634E+00  0.98580413130E+00 -0.51842468924E+00  0.11802735821E+01  0.00000000000E+00 0.  1.
         11    1    3    3    0    0  0.24220455338E+00  0.28056015078E+01 -0.13996034476E+02  0.14276520731E+02  0.51100000000E-03 0. -1.
        -11    1    3    3    0    0  0.43645093682E+01  0.24056880824E+02 -0.19653635456E+02  0.31369536877E+02  0.51100000000E-03 0.  1.
         12    1    3    3    0    0 -0.49971902779E+01 -0.27848286463E+02  0.34168094621E+02  0.44361668810E+02  0.00000000000E+00 0. -1.
</event>
<event>
 7    1  0.2879200E-015  0.9000773E+02  0.7816164E-02  0.1186339E+00
        -11   -1    0    0    0    0  0.00000000000E+00  0.00000000000E+00  0.45593999997E+02  0.45594000000E+02  0.51100000000E-03 0.  1.
         11   -1    0    0    0    0 -0.00000000000E+00 -0.00000000000E+00 -0.45593999997E+02  0.45594000000E+02  0.51100000000E-03 0. -1.
    9900012    2    1    2    0    0  0.56075465456E+00 -0.79868073796E+00 -0.66384570774E+00  0.90007734001E+02  0.89999995290E+02 0.  0.
        -12    1    1    2    0    0 -0.56075465456E+00  0.79868073796E+00  0.66384570774E+00  0.11802659986E+01  0.00000000000E+00 0.  1.
         11    1    3    3    0    0 -0.20328000550E+02 -0.22314351443E+02 -0.22986832263E+02  0.37941433083E+02  0.51100000000E-03 0. -1.
        -11    1    3    3    0    0  0.45874471562E+01 -0.33735312617E+01 -0.78459147232E+01  0.96945223033E+01  0.51100000000E-03 0.  1.
        -12    1    3    3    0    0  0.16301308048E+02  0.24889201966E+02  0.30168901279E+02  0.42371778615E+02  0.00000000000E+00 0.  1.
</event>
<event>
 7    1  0.2879200E-015  0.9000747E+02  0.7816164E-02  0.1186340E+00
        -11   -1    0    0    0    0  0.00000000000E+00  0.00000000000E+00  0.45593999997E+02  0.45594000000E+02  0.51100000000E-03 0. -1.
         11   -1    0    0    0    0 -0.00000000000E+00 -0.00000000000E+00 -0.45593999997E+02  0.45594000000E+02  0.51100000000E-03 0.  1.
    9900012    2    1    2    0    0 -0.19951778511E+00  0.79300882074E+00  0.85146027655E+00  0.90007468366E+02  0.89999726148E+02 0.  0.
        -12    1    1    2    0    0  0.19951778511E+00 -0.79300882074E+00 -0.85146027655E+00  0.11805316340E+01  0.00000000000E+00 0.  1.
         11    1    3    3    0    0  0.67018074774E+00  0.19112550939E+01 -0.62115694450E+01  0.65334243318E+01  0.51100000000E-03 0. -1.
        -11    1    3    3    0    0  0.32151589985E+01  0.40842090192E+02  0.48919265102E+01  0.41259477988E+02  0.51100000000E-03 0.  1.
         12    1    3    3    0    0 -0.40848575314E+01 -0.41960336465E+02  0.21711032113E+01  0.42214566046E+02  0.00000000000E+00 0. -1.
</event>
<event>
 7    1  0.2879200E-015  0.9000770E+02  0.7816164E-02  0.1186339E+00
        -11   -1    0    0    0    0  0.00000000000E+00  0.00000000000E+00  0.45593999997E+02  0.45594000000E+02  0.51100000000E-03 0.  1.
         11   -1    0    0    0    0 -0.00000000000E+00 -0.00000000000E+00 -0.45593999997E+02  0.45594000000E+02  0.51100000000E-03 0. -1.
    9900012    2    1    2    0    0  0.78083701303E-01  0.11131748479E+01  0.38452528957E+00  0.90007697071E+02  0.89999957872E+02 0.  0.
        -12    1    1    2    0    0 -0.78083701303E-01 -0.11131748479E+01 -0.38452528957E+00  0.11803029293E+01  0.00000000000E+00 0.  1.
         11    1    3    3    0    0 -0.21329102436E+01  0.10147603237E+02 -0.47079024228E-01  0.10369444260E+02  0.51100000000E-03 0. -1.
        -11    1    3    3    0    0 -0.37209902320E+02 -0.82658172715E+01  0.92775037418E+01  0.39229741801E+02  0.51100000000E-03 0.  1.
         12    1    3    3    0    0  0.39420896265E+02 -0.76861111742E+00 -0.88458994280E+01  0.40408511010E+02  0.00000000000E+00 0. -1.
</event>
<event>
 7    1  0.2879200E-015  0.9000787E+02  0.7816164E-02  0.1186339E+00
        -11   -1    0    0    0    0  0.00000000000E+00  0.00000000000E+00  0.45593999997E+02  0.45594000000E+02  0.51100000000E-03 0. -1.
         11   -1    0    0    0    0 -0.00000000000E+00 -0.00000000000E+00 -0.45593999997E+02  0.45594000000E+02  0.51100000000E-03 0.  1.
    9900012    2    1    2    0    0  0.10221590524E+01  0.58609163349E+00  0.66262102056E-01  0.90007871534E+02  0.90000134638E+02 0.  0.
        -12    1    1    2    0    0 -0.10221590524E+01 -0.58609163349E+00 -0.66262102056E-01  0.11801284665E+01  0.00000000000E+00 0.  1.
         11    1    3    3    0    0  0.14361169917E+02  0.19635676619E+02  0.33942718309E+02  0.41760161927E+02  0.51100000000E-03 0. -1.
        -11    1    3    3    0    0  0.59854340303E+01 -0.92799646329E+01 -0.49172134221E+01  0.12088099611E+02  0.51100000000E-03 0.  1.
        -12    1    3    3    0    0 -0.19324444895E+02 -0.97696203522E+01 -0.28959242785E+02  0.36159609995E+02  0.00000000000E+00 0.  1.
</event>
<event>
 7    1  0.2879200E-015  0.9000780E+02  0.7816164E-02  0.1186339E+00
        -11   -1    0    0    0    0  0.00000000000E+00  0.00000000000E+00  0.45593999997E+02  0.45594000000E+02  0.51100000000E-03 0. -1.
         11   -1    0    0    0    0 -0.00000000000E+00 -0.00000000000E+00 -0.45593999997E+02  0.45594000000E+02  0.51100000000E-03 0.  1.
    9900012    2    1    2    0    0  0.67355807001E+00  0.38651526144E+00 -0.88871085158E+00  0.90007795993E+02  0.90000058100E+02 0.  0.
        -12    1    1    2    0    0 -0.67355807001E+00 -0.38651526144E+00  0.88871085158E+00  0.11802040072E+01  0.00000000000E+00 0.  1.
         11    1    3    3    0    0  0.16117907456E+02 -0.15969229186E+02  0.32497072224E+02  0.39634113147E+02  0.51100000000E-03 0. -1.
        -11    1    3    3    0    0 -0.31386009915E+01  0.80268368714E+01  0.44679312789E+01  0.97079007267E+01  0.51100000000E-03 0.  1.
        -12    1    3    3    0    0 -0.12305748394E+02  0.83289075764E+01 -0.37853714354E+02  0.40665782119E+02  0.00000000000E+00 0.  1.
</event>
<event>
 7    1  0.2879200E-015  0.9000779E+02  0.7816164E-02  0.1186339E+00
        -11   -1    0    0    0    0  0.00000000000E+00  0.00000000000E+00  0.45593999997E+02  0.45594000000E+02  0.51100000000E-03 0. -1.
         11   -1    0    0    0    0 -0.00000000000E+00 -0.00000000000E+00 -0.45593999997E+02  0.45594000000E+02  0.51100000000E-03 0.  1.
    9900012    2    1    2    0    0  0.10955301887E+01 -0.19887467599E+00  0.39135065204E+00  0.90007791178E+02  0.90000053221E+02 0.  0.
        -12    1    1    2    0    0 -0.10955301887E+01  0.19887467599E+00 -0.39135065204E+00  0.11802088222E+01  0.00000000000E+00 0.  1.
         11    1    3    3    0    0  0.13205047552E+02  0.41895985484E+01 -0.23700279859E+01  0.14055000881E+02  0.51100000000E-03 0. -1.
        -11    1    3    3    0    0 -0.24753287294E+02  0.29904858647E+02 -0.30656164778E+01  0.38941286666E+02  0.51100000000E-03 0.  1.
         12    1    3    3    0    0  0.12643769930E+02 -0.34293331872E+02  0.58269951157E+01  0.37011503630E+02  0.00000000000E+00 0. -1.
</event>
<event>
 7    1  0.2879200E-015  0.9000784E+02  0.7816164E-02  0.1186339E+00
        -11   -1    0    0    0    0  0.00000000000E+00  0.00000000000E+00  0.45593999997E+02  0.45594000000E+02  0.51100000000E-03 0.  1.
         11   -1    0    0    0    0 -0.00000000000E+00 -0.00000000000E+00 -0.45593999997E+02  0.45594000000E+02  0.51100000000E-03 0. -1.
    9900012    2    1    2    0    0  0.57664309462E+00  0.10244001190E+01 -0.10420195386E+00  0.90007842845E+02  0.90000105571E+02 0.  0.
        -12    1    1    2    0    0 -0.57664309462E+00 -0.10244001190E+01  0.10420195386E+00  0.11801571546E+01  0.00000000000E+00 0.  1.
         11    1    3    3    0    0 -0.40304040107E+01 -0.15653937087E+01 -0.37530843990E+01  0.57254045027E+01  0.51100000000E-03 0. -1.
        -11    1    3    3    0    0 -0.19231541907E+01 -0.34036628643E+02 -0.20639527247E+02  0.39851984852E+02  0.51100000000E-03 0.  1.
         12    1    3    3    0    0  0.65302012960E+01  0.36626422471E+02  0.24288409693E+02  0.44430453490E+02  0.00000000000E+00 0. -1.
</event>
<event>
 7    1  0.2879200E-015  0.9000773E+02  0.7816164E-02  0.1186339E+00
        -11   -1    0    0    0    0  0.00000000000E+00  0.00000000000E+00  0.45593999997E+02  0.45594000000E+02  0.51100000000E-03 0. -1.
         11   -1    0    0    0    0 -0.00000000000E+00 -0.00000000000E+00 -0.45593999997E+02  0.45594000000E+02  0.51100000000E-03 0.  1.
    9900012    2    1    2    0    0  0.24673756084E+00 -0.97690896044E+00  0.61466712908E+00  0.90007726210E+02  0.89999987395E+02 0.  0.
        -12    1    1    2    0    0 -0.24673756084E+00  0.97690896044E+00 -0.61466712908E+00  0.11802737905E+01  0.00000000000E+00 0.  1.
         11    1    3    3    0    0  0.78967826237E+01 -0.39163878458E+02  0.13991181417E+02  0.42331096246E+02  0.51100000000E-03 0. -1.
        -11    1    3    3    0    0  0.58074315461E+01  0.16094664596E+01 -0.49567674986E+01  0.78029601911E+01  0.51100000000E-03 0.  1.
        -12    1    3    3    0    0 -0.13457476609E+02  0.36577503038E+02 -0.84197467895E+01  0.39873669773E+02  0.00000000000E+00 0.  1.
</event>
<event>
 7    1  0.2879200E-015  0.9000773E+02  0.7816164E-02  0.1186339E+00
        -11   -1    0    0    0    0  0.00000000000E+00  0.00000000000E+00  0.45593999997E+02  0.45594000000E+02  0.51100000000E-03 0. -1.
         11   -1    0    0    0    0 -0.00000000000E+00 -0.00000000000E+00 -0.45593999997E+02  0.45594000000E+02  0.51100000000E-03 0.  1.
    9900012    2    1    2    0    0 -0.92059061071E+00 -0.67854602208E+00  0.29175770688E+00  0.90007731244E+02  0.89999992497E+02 0.  0.
        -12    1    1    2    0    0  0.92059061071E+00  0.67854602208E+00 -0.29175770688E+00  0.11802687559E+01  0.00000000000E+00 0.  1.
         11    1    3    3    0    0 -0.40461551297E+02 -0.25866471073E+01  0.36482504968E+01  0.40707955102E+02  0.51100000000E-03 0. -1.
        -11    1    3    3    0    0  0.32761665007E+01  0.87747348438E+01 -0.77143177819E+01  0.12134246479E+02  0.51100000000E-03 0.  1.
        -12    1    3    3    0    0  0.36264794185E+02 -0.68666337587E+01  0.43578249920E+01  0.37165529663E+02  0.00000000000E+00 0.  1.
</event>
<event>
 7    1  0.4607364E-015  0.9000764E+02  0.7816164E-02  0.1186339E+00
        -11   -1    0    0    0    0  0.00000000000E+00  0.00000000000E+00  0.45593999997E+02  0.45594000000E+02  0.51100000000E-03 0.  1.
         11   -1    0    0    0    0 -0.00000000000E+00 -0.00000000000E+00 -0.45593999997E+02  0.45594000000E+02  0.51100000000E-03 0. -1.
    9900012    2    1    2    0    0 -0.85260898485E+00  0.36132567746E+00 -0.73194886996E+00  0.90007640955E+02  0.89999901016E+02 0.  0.
        -12    1    1    2    0    0  0.85260898485E+00 -0.36132567746E+00  0.73194886996E+00  0.11803590447E+01  0.00000000000E+00 0.  1.
         11    1    3    3    0    0  0.31977532897E+02 -0.17324874548E+02 -0.15044402392E+02  0.39357946235E+02  0.51100000000E-03 0. -1.
        -11    1    3    3    0    0  0.15106301777E+01  0.76160925983E+01 -0.57141180496E+01  0.96404364706E+01  0.51100000000E-03 0.  1.
        -12    1    3    3    0    0 -0.34340772059E+02  0.10070107627E+02  0.20026571572E+02  0.41009258249E+02  0.00000000000E+00 0.  1.
</event>
<event>
 7    1  0.2879200E-015  0.9000801E+02  0.7816164E-02  0.1186339E+00
        -11   -1    0    0    0    0  0.00000000000E+00  0.00000000000E+00  0.45593999997E+02  0.45594000000E+02  0.51100000000E-03 0.  1.
         11   -1    0    0    0    0 -0.00000000000E+00 -0.00000000000E+00 -0.45593999997E+02  0.45594000000E+02  0.51100000000E-03 0. -1.
    9900012    2    1    2    0    0  0.91295149517E+00 -0.13685616059E+00 -0.73495711371E+00  0.90008011864E+02  0.90000276821E+02 0.  0.
        -12    1    1    2    0    0 -0.91295149517E+00  0.13685616059E+00  0.73495711371E+00  0.11799881356E+01  0.00000000000E+00 0.  1.
         11    1    3    3    0    0 -0.36425522055E+02 -0.10155130939E+02 -0.12043351542E+02  0.39686114171E+02  0.51100000000E-03 0. -1.
        -11    1    3    3    0    0  0.15247476010E+01 -0.26279386263E+01 -0.73882236191E+01  0.79885396148E+01  0.51100000000E-03 0.  1.
        -12    1    3    3    0    0  0.35813725949E+02  0.12646213404E+02  0.18696618047E+02  0.42333358079E+02  0.00000000000E+00 0.  1.
</event>
<event>
 7    1  0.2879200E-015  0.9000788E+02  0.7816164E-02  0.1186339E+00
        -11   -1    0    0    0    0  0.00000000000E+00  0.00000000000E+00  0.45593999997E+02  0.45594000000E+02  0.51100000000E-03 0.  1.
         11   -1    0    0    0    0 -0.00000000000E+00 -0.00000000000E+00 -0.45593999997E+02  0.45594000000E+02  0.51100000000E-03 0. -1.
    9900012    2    1    2    0    0  0.93020331758E+00  0.66296849242E+00 -0.29644582550E+00  0.90007879006E+02  0.90000142208E+02 0.  0.
        -12    1    1    2    0    0 -0.93020331758E+00 -0.66296849242E+00  0.29644582550E+00  0.11801209944E+01  0.00000000000E+00 0.  1.
         11    1    3    3    0    0  0.27168125906E+02 -0.14965102012E+02 -0.20248345942E+02  0.37041285846E+02  0.51100000000E-03 0. -1.
        -11    1    3    3    0    0  0.57792034905E+01 -0.73820701258E+01  0.17379660530E+01  0.95349189084E+01  0.51100000000E-03 0.  1.
        -12    1    3    3    0    0 -0.32017126079E+02  0.23010140630E+02  0.18213934064E+02  0.43431674251E+02  0.00000000000E+00 0.  1.
</event>
<event>
 7    1  0.2879200E-015  0.9000770E+02  0.7816164E-02  0.1186339E+00
        -11   -1    0    0    0    0  0.00000000000E+00  0.00000000000E+00  0.45593999997E+02  0.45594000000E+02  0.51100000000E-03 0.  1.
         11   -1    0    0    0    0 -0.00000000000E+00 -0.00000000000E+00 -0.45593999997E+02  0.45594000000E+02  0.51100000000E-03 0. -1.
    9900012    2    1    2    0    0 -0.96688109417E+00  0.63522641757E+00 -0.23396414468E+00  0.90007698821E+02  0.89999959646E+02 0.  0.
        -12    1    1    2    0    0  0.96688109417E+00 -0.63522641757E+00  0.23396414468E+00  0.11803011789E+01  0.00000000000E+00 0.  1.
         11    1    3    3    0    0 -0.12449034678E+02  0.29460377651E+02 -0.23862654806E+02  0.39903867111E+02  0.51100000000E-03 0. -1.
        -11    1    3    3    0    0  0.39249101067E+01  0.66215650547E+01  0.22261369174E+01  0.80128477432E+01  0.51100000000E-03 0.  1.
        -12    1    3    3    0    0  0.75572434772E+01 -0.35446716288E+02  0.21402553744E+02  0.42090983967E+02  0.00000000000E+00 0.  1.
</event>
<event>
 7    1  0.2879200E-015  0.9000771E+02  0.7816164E-02  0.1186339E+00
        -11   -1    0    0    0    0  0.00000000000E+00  0.00000000000E+00  0.45593999997E+02  0.45594000000E+02  0.51100000000E-03 0. -1.
         11   -1    0    0    0    0 -0.00000000000E+00 -0.00000000000E+00 -0.45593999997E+02  0.45594000000E+02  0.51100000000E-03 0.  1.
    9900012    2    1    2    0    0 -0.56294298839E+00 -0.89091382176E+00 -0.53145149434E+00  0.90007714892E+02  0.89999975928E+02 0.  0.
        -12    1    1    2    0    0  0.56294298839E+00  0.89091382176E+00  0.53145149434E+00  0.11802851083E+01  0.00000000000E+00 0.  1.
         11    1    3    3    0    0 -0.45507651399E+01 -0.60535285306E+01 -0.10552995635E+02  0.12989241246E+02  0.51100000000E-03 0. -1.
        -11    1    3    3    0    0 -0.32564878902E+02  0.30723268073E+01 -0.11352656691E+02  0.34623595193E+02  0.51100000000E-03 0.  1.
         12    1    3    3    0    0  0.36552701053E+02  0.20902879016E+01  0.21374200831E+02  0.42394878452E+02  0.00000000000E+00 0. -1.
</event>
<event>
 7    1  0.2879200E-015  0.9000770E+02  0.7816164E-02  0.1186339E+00
        -11   -1    0    0    0    0  0.00000000000E+00  0.00000000000E+00  0.45593999997E+02  0.45594000000E+02  0.51100000000E-03 0.  1.
         11   -1    0    0    0    0 -0.00000000000E+00 -0.00000000000E+00 -0.45593999997E+02  0.45594000000E+02  0.51100000000E-03 0. -1.
    9900012    2    1    2    0    0  0.80857761119E+00  0.82446295632E+00 -0.24407711134E+00  0.90007698955E+02  0.89999959782E+02 0.  0.
        -12    1    1    2    0    0 -0.80857761119E+00 -0.82446295632E+00  0.24407711134E+00  0.11803010446E+01  0.00000000000E+00 0.  1.
         11    1    3    3    0    0  0.69801816961E+01  0.55542331211E+01 -0.48159837036E+01  0.10137363630E+02  0.51100000000E-03 0. -1.
        -11    1    3    3    0    0 -0.14844871295E+02  0.18622214084E+02 -0.29342239986E+02  0.37790529354E+02  0.51100000000E-03 0.  1.
         12    1    3    3    0    0  0.86732672097E+01 -0.23351984249E+02  0.33914146579E+02  0.42079805972E+02  0.00000000000E+00 0. -1.
</event>
<event>
 7    1  0.2879200E-015  0.9000766E+02  0.7816164E-02  0.1186339E+00
        -11   -1    0    0    0    0  0.00000000000E+00  0.00000000000E+00  0.45593999997E+02  0.45594000000E+02  0.51100000000E-03 0.  1.
         11   -1    0    0    0    0 -0.00000000000E+00 -0.00000000000E+00 -0.45593999997E+02  0.45594000000E+02  0.51100000000E-03 0. -1.
    9900012    2    1    2    0    0  0.10638340233E+01 -0.36108652172E+00 -0.36204308573E+00  0.90007660430E+02  0.89999920747E+02 0.  0.
        -12    1    1    2    0    0 -0.10638340233E+01  0.36108652172E+00  0.36204308573E+00  0.11803395703E+01  0.00000000000E+00 0.  1.
         11    1    3    3    0    0 -0.63541337983E+01  0.30219364927E+01  0.71849695347E+01  0.10056386228E+02  0.51100000000E-03 0. -1.
        -11    1    3    3    0    0  0.23422013923E+02 -0.79040492829E+01  0.30008124229E+02  0.38878686337E+02  0.51100000000E-03 0.  1.
         12    1    3    3    0    0 -0.16004046101E+02  0.45210262684E+01 -0.37555136849E+02  0.41072587865E+02  0.00000000000E+00 0. -1.
</event>
<event>
 7    1  0.2879200E-015  0.9000774E+02  0.7816164E-02  0.1186339E+00
        -11   -1    0    0    0    0  0.00000000000E+00  0.00000000000E+00  0.45593999997E+02  0.45594000000E+02  0.51100000000E-03 0.  1.
         11   -1    0    0    0    0 -0.00000000000E+00 -0.00000000000E+00 -0.45593999997E+02  0.45594000000E+02  0.51100000000E-03 0. -1.
    9900012    2    1    2    0    0 -0.99408671491E+00  0.27249841821E+00 -0.57492734052E+00  0.90007743574E+02  0.90000004989E+02 0.  0.
        -12    1    1    2    0    0  0.99408671491E+00 -0.27249841821E+00  0.57492734052E+00  0.11802564262E+01  0.00000000000E+00 0.  1.
         11    1    3    3    0    0  0.35198047274E+01 -0.84936054373E+01  0.59573279240E+00  0.92133195138E+01  0.51100000000E-03 0. -1.
        -11    1    3    3    0    0 -0.27351351513E+02 -0.26151113050E+02  0.64341747011E+01  0.38384576951E+02  0.51100000000E-03 0.  1.
         12    1    3    3    0    0  0.22837460071E+02  0.34917216906E+02 -0.76048348341E+01  0.42409847109E+02  0.00000000000E+00 0. -1.
</event>
<event>
 7    1  0.2879200E-015  0.9000779E+02  0.7816164E-02  0.1186339E+00
        -11   -1    0    0    0    0  0.00000000000E+00  0.00000000000E+00  0.45593999997E+02  0.45594000000E+02  0.51100000000E-03 0.  1.
         11   -1    0    0    0    0 -0.00000000000E+00 -0.00000000000E+00 -0.45593999997E+02  0.45594000000E+02  0.51100000000E-03 0. -1.
    9900012    2    1    2    0    0 -0.71766948997E+00  0.67146554932E+00  0.65342880263E+00  0.90007794645E+02  0.90000056734E+02 0.  0.
        -12    1    1    2    0    0  0.71766948997E+00 -0.67146554932E+00 -0.65342880263E+00  0.11802053554E+01  0.00000000000E+00 0.  1.
         11    1    3    3    0    0  0.30015032928E+01  0.48459484697E+01 -0.24412848544E+02  0.25069491676E+02  0.51100000000E-03 0. -1.
        -11    1    3    3    0    0  0.15483951810E+02  0.55391468658E+01 -0.13165641597E+02  0.21065826131E+02  0.51100000000E-03 0.  1.
        -12    1    3    3    0    0 -0.19203124592E+02 -0.97136297862E+01  0.38231918944E+02  0.43872476838E+02  0.00000000000E+00 0.  1.
</event>
<event>
 7    1  0.2879200E-015  0.9000769E+02  0.7816164E-02  0.1186339E+00
        -11   -1    0    0    0    0  0.00000000000E+00  0.00000000000E+00  0.45593999997E+02  0.45594000000E+02  0.51100000000E-03 0. -1.
         11   -1    0    0    0    0 -0.00000000000E+00 -0.00000000000E+00 -0.45593999997E+02  0.45594000000E+02  0.51100000000E-03 0.  1.
    9900012    2    1    2    0    0 -0.55155826848E+00  0.20572277856E+00  0.10230317626E+01  0.90007689714E+02  0.89999950418E+02 0.  0.
        -12    1    1    2    0    0  0.55155826848E+00 -0.20572277856E+00 -0.10230317626E+01  0.11803102865E+01  0.00000000000E+00 0.  1.
         11    1    3    3    0    0  0.91947154612E+01  0.23995457882E+01  0.14634825574E+01  0.96146967638E+01  0.51100000000E-03 0. -1.
        -11    1    3    3    0    0  0.67093826917E+01 -0.26817081991E+02 -0.28422659783E+02  0.39648698491E+02  0.51100000000E-03 0.  1.
         12    1    3    3    0    0 -0.16455656421E+02  0.24623258981E+02  0.27982208988E+02  0.40744294459E+02  0.00000000000E+00 0. -1.
</event>
<event>
 7    1  0.2879200E-015  0.9000774E+02  0.7816164E-02  0.1186339E+00
        -11   -1    0    0    0    0  0.00000000000E+00  0.00000000000E+00  0.45593999997E+02  0.45594000000E+02  0.51100000000E-03 0. -1.
         11   -1    0    0    0    0 -0.00000000000E+00 -0.00000000000E+00 -0.45593999997E+02  0.45594000000E+02  0.51100000000E-03 0.  1.
    9900012    2    1    2    0    0  0.99291317849E+00  0.11883281375E+00  0.62691761405E+00  0.90007735829E+02  0.89999997142E+02 0.  0.
        -12    1    1    2    0    0 -0.99291317849E+00 -0.11883281375E+00 -0.62691761405E+00  0.11802641706E+01  0.00000000000E+00 0.  1.
         11    1    3    3    0    0 -0.78089891784E+01 -0.91682501801E+01  0.48972352572E+01  0.13000770622E+02  0.51100000000E-03 0. -1.
        -11    1    3    3    0    0 -0.39689556370E+01 -0.29980889527E+02  0.12119753544E+02  0.32580588882E+02  0.51100000000E-03 0.  1.
         12    1    3    3    0    0  0.12770857994E+02  0.39267972521E+02 -0.16390071187E+02  0.44426376325E+02  0.00000000000E+00 0. -1.
</event>
<event>
 7    1  0.2879200E-015  0.9000751E+02  0.7816164E-02  0.1186340E+00
        -11   -1    0    0    0    0  0.00000000000E+00  0.00000000000E+00  0.45593999997E+02  0.45594000000E+02  0.51100000000E-03 0.  1.
         11   -1    0    0    0    0 -0.00000000000E+00 -0.00000000000E+00 -0.45593999997E+02  0.45594000000E+02  0.51100000000E-03 0. -1.
    9900012    2    1    2    0    0  0.65293123030E+00 -0.60031969605E+00 -0.77901353963E+00  0.90007506449E+02  0.89999764734E+02 0.  0.
        -12    1    1    2    0    0 -0.65293123030E+00  0.60031969605E+00  0.77901353963E+00  0.11804935510E+01  0.00000000000E+00 0.  1.
         11    1    3    3    0    0 -0.43834669545E-01 -0.22641453367E+01  0.76835743080E+01  0.80103426888E+01  0.51100000000E-03 0. -1.
        -11    1    3    3    0    0 -0.31610912323E+01  0.64046181725E+01  0.36210363417E+02  0.36908021496E+02  0.51100000000E-03 0.  1.
         12    1    3    3    0    0  0.38578571321E+01 -0.47407925319E+01 -0.44672951264E+02  0.45089142264E+02  0.00000000000E+00 0. -1.
</event>
<event>
 7    1  0.2879200E-015  0.9000768E+02  0.7816164E-02  0.1186339E+00
        -11   -1    0    0    0    0  0.00000000000E+00  0.00000000000E+00  0.45593999997E+02  0.45594000000E+02  0.51100000000E-03 0.  1.
         11   -1    0    0    0    0 -0.00000000000E+00 -0.00000000000E+00 -0.45593999997E+02  0.45594000000E+02  0.51100000000E-03 0. -1.
    9900012    2    1    2    0    0 -0.40198782076E+00 -0.37362291615E+00 -0.10449674811E+01  0.90007684225E+02  0.89999944857E+02 0.  0.
        -12    1    1    2    0    0  0.40198782076E+00  0.37362291615E+00  0.10449674811E+01  0.11803157748E+01  0.00000000000E+00 0.  1.
         11    1    3    3    0    0  0.92082306344E+01 -0.32369234182E+02 -0.20855208529E+02  0.39591647553E+02  0.51100000000E-03 0. -1.
        -11    1    3    3    0    0  0.30004944615E+01 -0.56013406397E+01  0.69014024803E+00  0.63917351164E+01  0.51100000000E-03 0.  1.
        -12    1    3    3    0    0 -0.12610712917E+02  0.37596951905E+02  0.19120100800E+02  0.44024301555E+02  0.00000000000E+00 0.  1.
</event>
<event>
 7    1  0.2879200E-015  0.9000774E+02  0.7816164E-02  0.1186339E+00
        -11   -1    0    0    0    0  0.00000000000E+00  0.00000000000E+00  0.45593999997E+02  0.45594000000E+02  0.51100000000E-03 0.  1.
         11   -1    0    0    0    0 -0.00000000000E+00 -0.00000000000E+00 -0.45593999997E+02  0.45594000000E+02  0.51100000000E-03 0. -1.
    9900012    2    1    2    0    0  0.74982651303E-01  0.38341810902E+00 -0.11137218329E+01  0.90007742331E+02  0.90000003730E+02 0.  0.
        -12    1    1    2    0    0 -0.74982651303E-01 -0.38341810902E+00  0.11137218329E+01  0.11802576691E+01  0.00000000000E+00 0.  1.
         11    1    3    3    0    0 -0.31759383986E+02  0.16672851193E+02 -0.87934264188E+01  0.36931920970E+02  0.51100000000E-03 0. -1.
        -11    1    3    3    0    0  0.46757044682E+01  0.12182166475E+02  0.36212326619E+00  0.13053678632E+02  0.51100000000E-03 0.  1.
        -12    1    3    3    0    0  0.27158662169E+02 -0.28471599559E+02  0.73175813197E+01  0.40022142729E+02  0.00000000000E+00 0.  1.
</event>
<event>
 7    1  0.2879200E-015  0.9000777E+02  0.7816164E-02  0.1186339E+00
        -11   -1    0    0    0    0  0.00000000000E+00  0.00000000000E+00  0.45593999997E+02  0.45594000000E+02  0.51100000000E-03 0.  1.
         11   -1    0    0    0    0 -0.00000000000E+00 -0.00000000000E+00 -0.45593999997E+02  0.45594000000E+02  0.51100000000E-03 0. -1.
    9900012    2    1    2    0    0 -0.34998765010E+00 -0.32742140916E-01 -0.11266636807E+01  0.90007773559E+02  0.90000035370E+02 0.  0.
        -12    1    1    2    0    0  0.34998765010E+00  0.32742140916E-01  0.11266636807E+01  0.11802264412E+01  0.00000000000E+00 0.  1.
         11    1    3    3    0    0  0.58229092229E+01 -0.20562536574E+01 -0.91985492763E-01  0.61759948602E+01  0.51100000000E-03 0. -1.
        -11    1    3    3    0    0  0.52679398978E+00  0.24222308513E+02  0.34042125071E+02  0.41783537682E+02  0.51100000000E-03 0.  1.
         12    1    3    3    0    0 -0.66996908627E+01 -0.22198796996E+02 -0.35076803259E+02  0.42048241017E+02  0.00000000000E+00 0. -1.
</event>
<event>
 7    1  0.2879200E-015  0.9000778E+02  0.7816164E-02  0.1186339E+00
        -11   -1    0    0    0    0  0.00000000000E+00  0.00000000000E+00  0.45593999997E+02  0.45594000000E+02  0.51100000000E-03 0. -1.
         11   -1    0    0    0    0 -0.00000000000E+00 -0.00000000000E+00 -0.45593999997E+02  0.45594000000E+02  0.51100000000E-03 0.  1.
    9900012    2    1    2    0    0 -0.10093510263E+01  0.10317765206E-01 -0.61157398753E+00  0.90007780235E+02  0.90000042134E+02 0.  0.
        -12    1    1    2    0    0  0.10093510263E+01 -0.10317765206E-01  0.61157398753E+00  0.11802197647E+01  0.00000000000E+00 0.  1.
         11    1    3    3    0    0  0.75871054743E+00 -0.88945375174E+01 -0.35214660918E+01  0.95963098658E+01  0.51100000000E-03 0. -1.
        -11    1    3    3    0    0  0.23583914179E+02  0.10403445881E+01 -0.29972292652E+02  0.38152610028E+02  0.51100000000E-03 0.  1.
         12    1    3    3    0    0 -0.25351975752E+02  0.78645106945E+01  0.32882184756E+02  0.42258860342E+02  0.00000000000E+00 0. -1.
</event>
<event>
 7    1  0.2879200E-015  0.9000738E+02  0.7816164E-02  0.1186340E+00
        -11   -1    0    0    0    0  0.00000000000E+00  0.00000000000E+00  0.45593999997E+02  0.45594000000E+02  0.51100000000E-03 0. -1.
         11   -1    0    0    0    0 -0.00000000000E+00 -0.00000000000E+00 -0.45593999997E+02  0.45594000000E+02  0.51100000000E-03 0.  1.
    9900012    2    1    2    0    0  0.94044165806E+00  0.65761359267E+00  0.27743433695E+00  0.90007383229E+02  0.89999639887E+02 0.  0.
        -12    1    1    2    0    0 -0.94044165806E+00 -0.65761359267E+00 -0.27743433695E+00  0.11806167714E+01  0.00000000000E+00 0.  1.
         11    1    3    3    0    0 -0.22861852903E+01  0.93033736975E+01 -0.81552625003E+00  0.96148057007E+01  0.51100000000E-03 0. -1.
        -11    1    3    3    0    0  0.30487479857E+02  0.15830385913E+02 -0.18318338922E+02  0.38931338113E+02  0.51100000000E-03 0.  1.
         12    1    3    3    0    0 -0.27260852908E+02 -0.24476146018E+02  0.19411299509E+02  0.41461239415E+02  0.00000000000E+00 0. -1.
</event>
<event>
 7    1  0.2879200E-015  0.9000773E+02  0.7816164E-02  0.1186339E+00
        -11   -1    0    0    0    0  0.00000000000E+00  0.00000000000E+00  0.45593999997E+02  0.45594000000E+02  0.51100000000E-03 0.  1.
         11   -1    0    0    0    0 -0.00000000000E+00 -0.00000000000E+00 -0.45593999997E+02  0.45594000000E+02  0.51100000000E-03 0. -1.
    9900012    2    1    2    0    0 -0.10958366911E+01  0.36528378875E+00  0.24235949456E+00  0.90007733748E+02  0.89999995034E+02 0.  0.
        -12    1    1    2    0    0  0.10958366911E+01 -0.36528378875E+00 -0.24235949456E+00  0.11802662515E+01  0.00000000000E+00 0.  1.
         11    1    3    3    0    0 -0.21379487387E+02 -0.34261666711E+02 -0.12131054758E+02  0.42167603401E+02  0.51100000000E-03 0. -1.
        -11    1    3    3    0    0 -0.48704427403E+01  0.65333699614E+01 -0.12372607512E-01  0.81490053922E+01  0.51100000000E-03 0.  1.
        -12    1    3    3    0    0  0.25154093437E+02  0.28093580539E+02  0.12385786860E+02  0.39691124955E+02  0.00000000000E+00 0.  1.
</event>
<event>
 7    1  0.2879200E-015  0.9000772E+02  0.7816164E-02  0.1186339E+00
        -11   -1    0    0    0    0  0.00000000000E+00  0.00000000000E+00  0.45593999997E+02  0.45594000000E+02  0.51100000000E-03 0. -1.
         11   -1    0    0    0    0 -0.00000000000E+00 -0.00000000000E+00 -0.45593999997E+02  0.45594000000E+02  0.51100000000E-03 0.  1.
    9900012    2    1    2    0    0  0.10453183975E+01 -0.44875109375E+00 -0.31464058415E+00  0.90007717494E+02  0.89999978565E+02 0.  0.
        -12    1    1    2    0    0 -0.10453183975E+01  0.44875109375E+00  0.31464058415E+00  0.11802825058E+01  0.00000000000E+00 0.  1.
         11    1    3    3    0    0  0.25230314920E+01  0.29035705571E+02 -0.23971810027E+02  0.37737058208E+02  0.51100000000E-03 0. -1.
        -11    1    3    3    0    0  0.47579349300E+01  0.82875624353E+00 -0.71335794053E+01  0.86146814858E+01  0.51100000000E-03 0.  1.
        -12    1    3    3    0    0 -0.62356480245E+01 -0.30313212909E+02  0.30790748848E+02  0.43655977801E+02  0.00000000000E+00 0.  1.
</event>
<event>
 7    1  0.2879200E-015  0.9000765E+02  0.7816164E-02  0.1186339E+00
        -11   -1    0    0    0    0  0.00000000000E+00  0.00000000000E+00  0.45593999997E+02  0.45594000000E+02  0.51100000000E-03 0.  1.
         11   -1    0    0    0    0 -0.00000000000E+00 -0.00000000000E+00 -0.45593999997E+02  0.45594000000E+02  0.51100000000E-03 0. -1.
    9900012    2    1    2    0    0  0.10917473645E+01  0.35507249413E+00 -0.27428845507E+00  0.90007651348E+02  0.89999911546E+02 0.  0.
        -12    1    1    2    0    0 -0.10917473645E+01 -0.35507249413E+00  0.27428845507E+00  0.11803486521E+01  0.00000000000E+00 0.  1.
         11    1    3    3    0    0 -0.21508832323E+02 -0.74024964014E+01  0.15332855239E+02  0.27432157606E+02  0.51100000000E-03 0. -1.
        -11    1    3    3    0    0 -0.17259139569E+02 -0.58630565994E+01 -0.21432775820E+01  0.18353391251E+02  0.51100000000E-03 0.  1.
        -12    1    3    3    0    0  0.39859719256E+02  0.13620625495E+02 -0.13463866112E+02  0.44222102491E+02  0.00000000000E+00 0.  1.
</event>
<event>
 7    1  0.2879200E-015  0.9000773E+02  0.7816164E-02  0.1186339E+00
        -11   -1    0    0    0    0  0.00000000000E+00  0.00000000000E+00  0.45593999997E+02  0.45594000000E+02  0.51100000000E-03 0. -1.
         11   -1    0    0    0    0 -0.00000000000E+00 -0.00000000000E+00 -0.45593999997E+02  0.45594000000E+02  0.51100000000E-03 0.  1.
    9900012    2    1    2    0    0 -0.62010267637E+00 -0.79729967045E+00 -0.61060091843E+00  0.90007725636E+02  0.89999986814E+02 0.  0.
        -12    1    1    2    0    0  0.62010267637E+00  0.79729967045E+00  0.61060091843E+00  0.11802743644E+01  0.00000000000E+00 0.  1.
         11    1    3    3    0    0 -0.16689873709E+01 -0.82653652676E+01 -0.26753709575E+01  0.88464338506E+01  0.51100000000E-03 0. -1.
        -11    1    3    3    0    0 -0.39717427203E+02  0.53784769327E+01 -0.20648713697E+01  0.40133100201E+02  0.51100000000E-03 0.  1.
         12    1    3    3    0    0  0.40766311897E+02  0.20895886645E+01  0.41296414087E+01  0.41028191584E+02  0.00000000000E+00 0. -1.
</event>
<event>
 7    1  0.2879200E-015  0.9000773E+02  0.7816164E-02  0.1186339E+00
        -11   -1    0    0    0    0  0.00000000000E+00  0.00000000000E+00  0.45593999997E+02  0.45594000000E+02  0.51100000000E-03 0.  1.
         11   -1    0    0    0    0 -0.00000000000E+00 -0.00000000000E+00 -0.45593999997E+02  0.45594000000E+02  0.51100000000E-03 0. -1.
    9900012    2    1    2    0    0 -0.91738448564E-01  0.79690402817E+00 -0.86577606654E+00  0.90007728773E+02  0.89999989992E+02 0.  0.
        -12    1    1    2    0    0  0.91738448564E-01 -0.79690402817E+00  0.86577606654E+00  0.11802712275E+01  0.00000000000E+00 0.  1.
         11    1    3    3    0    0  0.91308029429E+01  0.22841870947E+02 -0.13461146063E+02  0.28041488625E+02  0.51100000000E-03 0. -1.
        -11    1    3    3    0    0  0.22523648027E+02 -0.13446590615E+01  0.22191672523E+01  0.22672616347E+02  0.51100000000E-03 0.  1.
         12    1    3    3    0    0 -0.31746189419E+02 -0.20700307857E+02  0.10376202744E+02  0.39293623801E+02  0.00000000000E+00 0. -1.
</event>
<event>
 7    1  0.2879200E-015  0.9000772E+02  0.7816164E-02  0.1186339E+00
        -11   -1    0    0    0    0  0.00000000000E+00  0.00000000000E+00  0.45593999997E+02  0.45594000000E+02  0.51100000000E-03 0.  1.
         11   -1    0    0    0    0 -0.00000000000E+00 -0.00000000000E+00 -0.45593999997E+02  0.45594000000E+02  0.51100000000E-03 0. -1.
    9900012    2    1    2    0    0 -0.11091668588E+01 -0.17498517375E+00  0.36356702755E+00  0.90007723797E+02  0.89999984951E+02 0.  0.
        -12    1    1    2    0    0  0.11091668588E+01  0.17498517375E+00 -0.36356702755E+00  0.11802762029E+01  0.00000000000E+00 0.  1.
         11    1    3    3    0    0 -0.31921980920E+02 -0.19282401664E+02 -0.12663413880E+02  0.39385097831E+02  0.51100000000E-03 0. -1.
        -11    1    3    3    0    0  0.25809446147E+01 -0.87914249230E+01  0.34669237639E+01  0.97964273042E+01  0.51100000000E-03 0.  1.
        -12    1    3    3    0    0  0.28231869446E+02  0.27898841413E+02  0.95600571437E+01  0.40826198662E+02  0.00000000000E+00 0.  1.
</event>
<event>
 7    1  0.2879200E-015  0.9000774E+02  0.7816164E-02  0.1186339E+00
        -11   -1    0    0    0    0  0.00000000000E+00  0.00000000000E+00  0.45593999997E+02  0.45594000000E+02  0.51100000000E-03 0.  1.
         11   -1    0    0    0    0 -0.00000000000E+00 -0.00000000000E+00 -0.45593999997E+02  0.45594000000E+02  0.51100000000E-03 0. -1.
    9900012    2    1    2    0    0 -0.92410276608E+00  0.55404139097E-01 -0.73211322228E+00  0.90007735067E+02  0.89999996370E+02 0.  0.
        -12    1    1    2    0    0  0.92410276608E+00 -0.55404139097E-01  0.73211322228E+00  0.11802649326E+01  0.00000000000E+00 0.  1.
         11    1    3    3    0    0 -0.28654277304E+01  0.98459452441E+01 -0.46554820277E+00  0.10264991438E+02  0.51100000000E-03 0. -1.
        -11    1    3    3    0    0  0.18027483760E+02  0.29471432991E+02 -0.10477705842E+02  0.36101770776E+02  0.51100000000E-03 0.  1.
         12    1    3    3    0    0 -0.16086158796E+02 -0.39261974095E+02  0.10211140822E+02  0.43640972853E+02  0.00000000000E+00 0. -1.
</event>
<event>
 7    1  0.2879200E-015  0.9000774E+02  0.7816164E-02  0.1186339E+00
        -11   -1    0    0    0    0  0.00000000000E+00  0.00000000000E+00  0.45593999997E+02  0.45594000000E+02  0.51100000000E-03 0. -1.
         11   -1    0    0    0    0 -0.00000000000E+00 -0.00000000000E+00 -0.45593999997E+02  0.45594000000E+02  0.51100000000E-03 0.  1.
    9900012    2    1    2    0    0  0.51008598196E+00 -0.83548584568E+00 -0.65939134093E+00  0.90007736789E+02  0.89999998114E+02 0.  0.
        -12    1    1    2    0    0 -0.51008598196E+00  0.83548584568E+00  0.65939134093E+00  0.11802632112E+01  0.00000000000E+00 0.  1.
         11    1    3    3    0    0  0.22533835100E+02  0.27372665726E+02  0.67226730414E+01  0.36086436320E+02  0.51100000000E-03 0. -1.
        -11    1    3    3    0    0  0.10128942100E+02 -0.74699064536E+01  0.52396150980E+01  0.13632627668E+02  0.51100000000E-03 0.  1.
        -12    1    3    3    0    0 -0.32152691218E+02 -0.20738245118E+02 -0.12621679480E+02  0.40288672800E+02  0.00000000000E+00 0.  1.
</event>
<event>
 7    1  0.2879200E-015  0.9000773E+02  0.7816164E-02  0.1186339E+00
        -11   -1    0    0    0    0  0.00000000000E+00  0.00000000000E+00  0.45593999997E+02  0.45594000000E+02  0.51100000000E-03 0.  1.
         11   -1    0    0    0    0 -0.00000000000E+00 -0.00000000000E+00 -0.45593999997E+02  0.45594000000E+02  0.51100000000E-03 0. -1.
    9900012    2    1    2    0    0 -0.54470492170E+00 -0.78532234343E+00  0.69254085396E+00  0.90007725681E+02  0.89999986860E+02 0.  0.
        -12    1    1    2    0    0  0.54470492170E+00  0.78532234343E+00 -0.69254085396E+00  0.11802743195E+01  0.00000000000E+00 0.  1.
         11    1    3    3    0    0 -0.18481379538E+02  0.33127122703E+02 -0.17648620782E+02  0.41838277498E+02  0.51100000000E-03 0. -1.
        -11    1    3    3    0    0  0.94228656430E+01 -0.21541703912E-01  0.56803558676E+01  0.11002604420E+02  0.51100000000E-03 0.  1.
        -12    1    3    3    0    0  0.85138089735E+01 -0.33890903342E+02  0.12660805769E+02  0.37166843763E+02  0.00000000000E+00 0.  1.
</event>
<event>
 7    1  0.2879200E-015  0.9000766E+02  0.7816164E-02  0.1186339E+00
        -11   -1    0    0    0    0  0.00000000000E+00  0.00000000000E+00  0.45593999997E+02  0.45594000000E+02  0.51100000000E-03 0. -1.
         11   -1    0    0    0    0 -0.00000000000E+00 -0.00000000000E+00 -0.45593999997E+02  0.45594000000E+02  0.51100000000E-03 0.  1.
    9900012    2    1    2    0    0  0.13717980749E+00  0.68990020493E+00  0.94785696760E+00  0.90007655379E+02  0.89999915630E+02 0.  0.
        -12    1    1    2    0    0 -0.13717980749E+00 -0.68990020493E+00 -0.94785696760E+00  0.11803446206E+01  0.00000000000E+00 0.  1.
         11    1    3    3    0    0 -0.50420762823E+00  0.78251898486E+01 -0.18410065836E+01  0.80546338837E+01  0.51100000000E-03 0. -1.
        -11    1    3    3    0    0  0.36333525657E+02  0.98857064617E+01 -0.12324971174E+02  0.39620161454E+02  0.51100000000E-03 0.  1.
         12    1    3    3    0    0 -0.35692138221E+02 -0.17020996105E+02  0.15113834725E+02  0.42332860042E+02  0.00000000000E+00 0. -1.
</event>
<event>
 7    1  0.2879200E-015  0.9000823E+02  0.7816164E-02  0.1186338E+00
        -11   -1    0    0    0    0  0.00000000000E+00  0.00000000000E+00  0.45593999997E+02  0.45594000000E+02  0.51100000000E-03 0.  1.
         11   -1    0    0    0    0 -0.00000000000E+00 -0.00000000000E+00 -0.45593999997E+02  0.45594000000E+02  0.51100000000E-03 0. -1.
    9900012    2    1    2    0    0  0.15950736132E+00  0.11685068239E+01 -0.31607090379E-01  0.90008233157E+02  0.90000501033E+02 0.  0.
        -12    1    1    2    0    0 -0.15950736132E+00 -0.11685068239E+01  0.31607090379E-01  0.11797668431E+01  0.00000000000E+00 0.  1.
         11    1    3    3    0    0 -0.33367211464E+00  0.29753030854E+01 -0.71745972629E+01  0.77742274006E+01  0.51100000000E-03 0. -1.
        -11    1    3    3    0    0 -0.25088513311E+02  0.55160284429E+01  0.35193001118E+02  0.43570717206E+02  0.51100000000E-03 0.  1.
         12    1    3    3    0    0  0.25581692787E+02 -0.73228247044E+01 -0.28050010945E+02  0.38663288550E+02  0.00000000000E+00 0. -1.
</event>
<event>
 7    1  0.3205748E-015  0.9000770E+02  0.7816164E-02  0.1186339E+00
        -11   -1    0    0    0    0  0.00000000000E+00  0.00000000000E+00  0.45593999997E+02  0.45594000000E+02  0.51100000000E-03 0. -1.
         11   -1    0    0    0    0 -0.00000000000E+00 -0.00000000000E+00 -0.45593999997E+02  0.45594000000E+02  0.51100000000E-03 0.  1.
    9900012    2    1    2    0    0 -0.49306093978E+00 -0.26872610882E+00 -0.10381620551E+01  0.90007702044E+02  0.89999962911E+02 0.  0.
        -12    1    1    2    0    0  0.49306093978E+00  0.26872610882E+00  0.10381620551E+01  0.11802979558E+01  0.00000000000E+00 0.  1.
         11    1    3    3    0    0  0.15463440204E+02  0.34980794990E+02 -0.73518101331E+01  0.38946413360E+02  0.51100000000E-03 0. -1.
        -11    1    3    3    0    0  0.91476048319E+01 -0.33745366324E+01 -0.11127327869E+01  0.98134777811E+01  0.51100000000E-03 0.  1.
        -12    1    3    3    0    0 -0.25104105976E+02 -0.31874984466E+02  0.74263808649E+01  0.41247810903E+02  0.00000000000E+00 0.  1.
</event>
<event>
 7    1  0.2879200E-015  0.9000761E+02  0.7816164E-02  0.1186339E+00
        -11   -1    0    0    0    0  0.00000000000E+00  0.00000000000E+00  0.45593999997E+02  0.45594000000E+02  0.51100000000E-03 0.  1.
         11   -1    0    0    0    0 -0.00000000000E+00 -0.00000000000E+00 -0.45593999997E+02  0.45594000000E+02  0.51100000000E-03 0. -1.
    9900012    2    1    2    0    0  0.85481323399E+00 -0.38720303970E+00 -0.71601671637E+00  0.90007613709E+02  0.89999873409E+02 0.  0.
        -12    1    1    2    0    0 -0.85481323399E+00  0.38720303970E+00  0.71601671637E+00  0.11803862915E+01  0.00000000000E+00 0.  1.
         11    1    3    3    0    0  0.37361121816E+01 -0.40569926710E+02  0.34089242891E+01  0.40883960822E+02  0.51100000000E-03 0. -1.
        -11    1    3    3    0    0  0.89451893864E+01  0.25804158348E+01  0.10425089717E+01  0.93681259735E+01  0.51100000000E-03 0.  1.
        -12    1    3    3    0    0 -0.11826488334E+02  0.37602307835E+02 -0.51674499771E+01  0.39755526913E+02  0.00000000000E+00 0.  1.
</event>
<event>
 7    1  0.2879200E-015  0.9000775E+02  0.7816164E-02  0.1186339E+00
        -11   -1    0    0    0    0  0.00000000000E+00  0.00000000000E+00  0.45593999997E+02  0.45594000000E+02  0.51100000000E-03 0.  1.
         11   -1    0    0    0    0 -0.00000000000E+00 -0.00000000000E+00 -0.45593999997E+02  0.45594000000E+02  0.51100000000E-03 0. -1.
    9900012    2    1    2    0    0  0.87523955192E+00 -0.18288143629E+00 -0.77039119793E+00  0.90007748971E+02  0.90000010458E+02 0.  0.
        -12    1    1    2    0    0 -0.87523955192E+00  0.18288143629E+00  0.77039119793E+00  0.11802510287E+01  0.00000000000E+00 0.  1.
         11    1    3    3    0    0  0.93570684585E+01  0.94675120796E+00  0.32640903759E+01  0.99551672126E+01  0.51100000000E-03 0. -1.
        -11    1    3    3    0    0  0.19635090631E+02 -0.32065255950E+02 -0.65813208522E+01  0.38171078157E+02  0.51100000000E-03 0.  1.
         12    1    3    3    0    0 -0.28116919538E+02  0.30935623306E+02  0.25468392784E+01  0.41881503602E+02  0.00000000000E+00 0. -1.
</event>
<event>
 7    1  0.2879200E-015  0.9000812E+02  0.7816164E-02  0.1186338E+00
        -11   -1    0    0    0    0  0.00000000000E+00  0.00000000000E+00  0.45593999997E+02  0.45594000000E+02  0.51100000000E-03 0. -1.
         11   -1    0    0    0    0 -0.00000000000E+00 -0.00000000000E+00 -0.45593999997E+02  0.45594000000E+02  0.51100000000E-03 0.  1.
    9900012    2    1    2    0    0  0.83429403714E+00  0.82963340294E+00  0.88152057588E-01  0.90008123350E+02  0.90000389777E+02 0.  0.
        -12    1    1    2    0    0 -0.83429403714E+00 -0.82963340294E+00 -0.88152057588E-01  0.11798766499E+01  0.00000000000E+00 0.  1.
         11    1    3    3    0    0  0.26448514611E+02  0.45083057626E+01  0.28679169696E+02  0.39272681608E+02  0.51100000000E-03 0. -1.
        -11    1    3    3    0    0  0.74845785863E+01 -0.37441358685E+01 -0.29748253080E+01  0.88818385423E+01  0.51100000000E-03 0.  1.
        -12    1    3    3    0    0 -0.33098799160E+02  0.65463508820E-01 -0.25616192330E+02  0.41853603200E+02  0.00000000000E+00 0.  1.
</event>
<event>
 7    1  0.2879200E-015  0.9000773E+02  0.7816164E-02  0.1186339E+00
        -11   -1    0    0    0    0  0.00000000000E+00  0.00000000000E+00  0.45593999997E+02  0.45594000000E+02  0.51100000000E-03 0.  1.
         11   -1    0    0    0    0 -0.00000000000E+00 -0.00000000000E+00 -0.45593999997E+02  0.45594000000E+02  0.51100000000E-03 0. -1.
    9900012    2    1    2    0    0  0.20174058256E+00 -0.96494743728E-01 -0.11588914130E+01  0.90007728927E+02  0.89999990149E+02 0.  0.
        -12    1    1    2    0    0 -0.20174058256E+00  0.96494743728E-01  0.11588914130E+01  0.11802710728E+01  0.00000000000E+00 0.  1.
         11    1    3    3    0    0  0.16337864696E+02  0.29413436420E+02 -0.16497766218E+02  0.37473355271E+02  0.51100000000E-03 0. -1.
        -11    1    3    3    0    0 -0.20687241187E+01  0.20650189739E+01 -0.95189400623E+01  0.99576173361E+01  0.51100000000E-03 0.  1.
        -12    1    3    3    0    0 -0.14067399994E+02 -0.31574950137E+02  0.24857814867E+02  0.42576756320E+02  0.00000000000E+00 0.  1.
</event>
<event>
 7    1  0.3222329E-015  0.9000775E+02  0.7816164E-02  0.1186339E+00
        -11   -1    0    0    0    0  0.00000000000E+00  0.00000000000E+00  0.45593999997E+02  0.45594000000E+02  0.51100000000E-03 0.  1.
         11   -1    0    0    0    0 -0.00000000000E+00 -0.00000000000E+00 -0.45593999997E+02  0.45594000000E+02  0.51100000000E-03 0. -1.
    9900012    2    1    2    0    0 -0.85764971418E+00  0.55585633145E+00 -0.59029383808E+00  0.90007751675E+02  0.90000013197E+02 0.  0.
        -12    1    1    2    0    0  0.85764971418E+00 -0.55585633145E+00  0.59029383808E+00  0.11802483250E+01  0.00000000000E+00 0.  1.
         11    1    3    3    0    0 -0.31726714999E+02  0.18986082224E+02 -0.87835014887E+00  0.36984148795E+02  0.51100000000E-03 0. -1.
        -11    1    3    3    0    0 -0.23915549339E+01  0.93013713375E+01 -0.12891096517E+01  0.96900385817E+01  0.51100000000E-03 0.  1.
        -12    1    3    3    0    0  0.33260620219E+02 -0.27731597230E+02  0.15771659625E+01  0.43333564298E+02  0.00000000000E+00 0.  1.
</event>
<event>
 7    1  0.2879200E-015  0.9000755E+02  0.7816164E-02  0.1186339E+00
        -11   -1    0    0    0    0  0.00000000000E+00  0.00000000000E+00  0.45593999997E+02  0.45594000000E+02  0.51100000000E-03 0.  1.
         11   -1    0    0    0    0 -0.00000000000E+00 -0.00000000000E+00 -0.45593999997E+02  0.45594000000E+02  0.51100000000E-03 0. -1.
    9900012    2    1    2    0    0  0.63591731099E+00 -0.16086815953E+00 -0.98142544052E+00  0.90007548694E+02  0.89999807536E+02 0.  0.
        -12    1    1    2    0    0 -0.63591731099E+00  0.16086815953E+00  0.98142544052E+00  0.11804513063E+01  0.00000000000E+00 0.  1.
         11    1    3    3    0    0  0.98596000616E+01 -0.28622306513E+02 -0.99758926093E+01  0.31874230613E+02  0.51100000000E-03 0. -1.
        -11    1    3    3    0    0 -0.22020787834E+02  0.18213996378E+02 -0.12423507661E+02  0.31161006141E+02  0.51100000000E-03 0.  1.
        -12    1    3    3    0    0  0.12797105083E+02  0.10247441976E+02  0.21417974830E+02  0.26972311940E+02  0.00000000000E+00 0.  1.
</event>
<event>
 7    1  0.2879200E-015  0.9000771E+02  0.7816164E-02  0.1186339E+00
        -11   -1    0    0    0    0  0.00000000000E+00  0.00000000000E+00  0.45593999997E+02  0.45594000000E+02  0.51100000000E-03 0. -1.
         11   -1    0    0    0    0 -0.00000000000E+00 -0.00000000000E+00 -0.45593999997E+02  0.45594000000E+02  0.51100000000E-03 0.  1.
    9900012    2    1    2    0    0  0.82764478308E+00  0.43059095598E+00 -0.72296456996E+00  0.90007710956E+02  0.89999971940E+02 0.  0.
        -12    1    1    2    0    0 -0.82764478308E+00 -0.43059095598E+00  0.72296456996E+00  0.11802890442E+01  0.00000000000E+00 0.  1.
         11    1    3    3    0    0  0.10155684780E+02  0.92686970868E+00 -0.13468560859E+01  0.10286449455E+02  0.51100000000E-03 0. -1.
        -11    1    3    3    0    0  0.22108491842E+01 -0.35414784983E+02 -0.16525975844E+02  0.39143361218E+02  0.51100000000E-03 0.  1.
         12    1    3    3    0    0 -0.11538889181E+02  0.34918506231E+02  0.17149867360E+02  0.40577900283E+02  0.00000000000E+00 0. -1.
</event>
<event>
 7    1  0.2879200E-015  0.9000772E+02  0.7816164E-02  0.1186339E+00
        -11   -1    0    0    0    0  0.00000000000E+00  0.00000000000E+00  0.45593999997E+02  0.45594000000E+02  0.51100000000E-03 0.  1.
         11   -1    0    0    0    0 -0.00000000000E+00 -0.00000000000E+00 -0.45593999997E+02  0.45594000000E+02  0.51100000000E-03 0. -1.
    9900012    2    1    2    0    0 -0.47108871644E+00 -0.60510033837E+00 -0.89721263496E+00  0.90007719732E+02  0.89999980833E+02 0.  0.
        -12    1    1    2    0    0  0.47108871644E+00  0.60510033837E+00  0.89721263496E+00  0.11802802678E+01  0.00000000000E+00 0.  1.
         11    1    3    3    0    0 -0.40221497078E+01  0.13854300450E+02 -0.20434807177E+02  0.25014009552E+02  0.51100000000E-03 0. -1.
        -11    1    3    3    0    0  0.10139808801E+02 -0.17713375153E+02 -0.17713366441E+02  0.27024853982E+02  0.51100000000E-03 0.  1.
        -12    1    3    3    0    0 -0.65887478097E+01  0.32539743643E+01  0.37250960983E+02  0.37968856198E+02  0.00000000000E+00 0.  1.
</event>
<event>
 7    1  0.2879200E-015  0.9000777E+02  0.7816164E-02  0.1186339E+00
        -11   -1    0    0    0    0  0.00000000000E+00  0.00000000000E+00  0.45593999997E+02  0.45594000000E+02  0.51100000000E-03 0. -1.
         11   -1    0    0    0    0 -0.00000000000E+00 -0.00000000000E+00 -0.45593999997E+02  0.45594000000E+02  0.51100000000E-03 0.  1.
    9900012    2    1    2    0    0 -0.32264666129E+00  0.10010913818E+01  0.53539450356E+00  0.90007774557E+02  0.90000036381E+02 0.  0.
        -12    1    1    2    0    0  0.32264666129E+00 -0.10010913818E+01 -0.53539450356E+00  0.11802254433E+01  0.00000000000E+00 0.  1.
         11    1    3    3    0    0  0.29934450946E+02  0.11657239220E+02  0.20816351907E+02  0.38279016271E+02  0.51100000000E-03 0. -1.
        -11    1    3    3    0    0  0.16563269240E+01  0.95221815521E+01 -0.59095767769E+01  0.11328656511E+02  0.51100000000E-03 0.  1.
        -12    1    3    3    0    0 -0.31913424532E+02 -0.20178329391E+02 -0.14371380627E+02  0.40400101775E+02  0.00000000000E+00 0.  1.
</event>
<event>
 7    1  0.2879200E-015  0.9000772E+02  0.7816164E-02  0.1186339E+00
        -11   -1    0    0    0    0  0.00000000000E+00  0.00000000000E+00  0.45593999997E+02  0.45594000000E+02  0.51100000000E-03 0. -1.
         11   -1    0    0    0    0 -0.00000000000E+00 -0.00000000000E+00 -0.45593999997E+02  0.45594000000E+02  0.51100000000E-03 0.  1.
    9900012    2    1    2    0    0  0.95329759767E+00 -0.36666507262E+00  0.59148248063E+00  0.90007715666E+02  0.89999976712E+02 0.  0.
        -12    1    1    2    0    0 -0.95329759767E+00  0.36666507262E+00 -0.59148248063E+00  0.11802843344E+01  0.00000000000E+00 0.  1.
         11    1    3    3    0    0  0.12842890066E+01  0.92888062041E+01  0.73351066396E+01  0.11905255504E+02  0.51100000000E-03 0. -1.
        -11    1    3    3    0    0 -0.20758962375E+02  0.19804689329E+02  0.18606001974E+02  0.34195665632E+02  0.51100000000E-03 0.  1.
         12    1    3    3    0    0  0.20427970966E+02 -0.29460160606E+02 -0.25349626133E+02  0.43906794529E+02  0.00000000000E+00 0. -1.
</event>
<event>
 7    1  0.2879200E-015  0.9000777E+02  0.7816164E-02  0.1186339E+00
        -11   -1    0    0    0    0  0.00000000000E+00  0.00000000000E+00  0.45593999997E+02  0.45594000000E+02  0.51100000000E-03 0. -1.
         11   -1    0    0    0    0 -0.00000000000E+00 -0.00000000000E+00 -0.45593999997E+02  0.45594000000E+02  0.51100000000E-03 0.  1.
    9900012    2    1    2    0    0 -0.90399246072E+00  0.10083184479E+00  0.75205375354E+00  0.90007765160E+02  0.90000026860E+02 0.  0.
        -12    1    1    2    0    0  0.90399246072E+00 -0.10083184479E+00 -0.75205375354E+00  0.11802348403E+01  0.00000000000E+00 0.  1.
         11    1    3    3    0    0 -0.51014869320E+01  0.33648494868E+02  0.95346920991E+01  0.35343411401E+02  0.51100000000E-03 0. -1.
        -11    1    3    3    0    0 -0.32452184162E+01  0.81999102637E+01 -0.85135579053E+01  0.12257676753E+02  0.51100000000E-03 0.  1.
        -12    1    3    3    0    0  0.74427128874E+01 -0.41747573286E+02 -0.26908044023E+00  0.42406677006E+02  0.00000000000E+00 0.  1.
</event>
<event>
 7    1  0.2879200E-015  0.9000759E+02  0.7816164E-02  0.1186339E+00
        -11   -1    0    0    0    0  0.00000000000E+00  0.00000000000E+00  0.45593999997E+02  0.45594000000E+02  0.51100000000E-03 0. -1.
         11   -1    0    0    0    0 -0.00000000000E+00 -0.00000000000E+00 -0.45593999997E+02  0.45594000000E+02  0.51100000000E-03 0.  1.
    9900012    2    1    2    0    0 -0.42407700899E+00 -0.77672783983E+00  0.78116349151E+00  0.90007591661E+02  0.89999851071E+02 0.  0.
        -12    1    1    2    0    0  0.42407700899E+00  0.77672783983E+00 -0.78116349151E+00  0.11804083392E+01  0.00000000000E+00 0.  1.
         11    1    3    3    0    0 -0.10713472223E+02 -0.14618373227E+02  0.18284093252E+02  0.25744579802E+02  0.51100000000E-03 0. -1.
        -11    1    3    3    0    0  0.23258783735E+02 -0.49302203040E+01  0.12268235882E+02  0.26754209108E+02  0.51100000000E-03 0.  1.
         12    1    3    3    0    0 -0.12969388521E+02  0.18771865691E+02 -0.29771165642E+02  0.37508802751E+02  0.00000000000E+00 0. -1.
</event>
<event>
 7    1  0.2879200E-015  0.9000791E+02  0.7816164E-02  0.1186339E+00
        -11   -1    0    0    0    0  0.00000000000E+00  0.00000000000E+00  0.45593999997E+02  0.45594000000E+02  0.51100000000E-03 0.  1.
         11   -1    0    0    0    0 -0.00000000000E+00 -0.00000000000E+00 -0.45593999997E+02  0.45594000000E+02  0.51100000000E-03 0. -1.
    9900012    2    1    2    0    0  0.39035442852E+00 -0.50724640273E+00 -0.99143209666E+00  0.90007909709E+02  0.90000173317E+02 0.  0.
        -12    1    1    2    0    0 -0.39035442852E+00  0.50724640273E+00  0.99143209666E+00  0.11800902911E+01  0.00000000000E+00 0.  1.
         11    1    3    3    0    0 -0.14545141029E+02  0.25574966446E+02 -0.31706929253E+02  0.43254703781E+02  0.51100000000E-03 0. -1.
        -11    1    3    3    0    0 -0.37038086229E+01 -0.80923878266E+01  0.48038124741E+01  0.10113434313E+02  0.51100000000E-03 0.  1.
        -12    1    3    3    0    0  0.18639304080E+02 -0.17989825022E+02  0.25911684682E+02  0.36639771615E+02  0.00000000000E+00 0.  1.
</event>
<event>
 7    1  0.2879200E-015  0.9000772E+02  0.7816164E-02  0.1186339E+00
        -11   -1    0    0    0    0  0.00000000000E+00  0.00000000000E+00  0.45593999997E+02  0.45594000000E+02  0.51100000000E-03 0.  1.
         11   -1    0    0    0    0 -0.00000000000E+00 -0.00000000000E+00 -0.45593999997E+02  0.45594000000E+02  0.51100000000E-03 0. -1.
    9900012    2    1    2    0    0  0.11224482720E+01  0.87343746551E-01 -0.35432685678E+00  0.90007717587E+02  0.89999978659E+02 0.  0.
        -12    1    1    2    0    0 -0.11224482720E+01 -0.87343746551E-01  0.35432685678E+00  0.11802824132E+01  0.00000000000E+00 0.  1.
         11    1    3    3    0    0  0.19173174978E+01  0.87721530481E+01  0.29986912851E+00  0.89842471717E+01  0.51100000000E-03 0. -1.
        -11    1    3    3    0    0  0.36009550109E+02  0.12806744819E+02  0.23994678554E+01  0.38294358046E+02  0.51100000000E-03 0.  1.
         12    1    3    3    0    0 -0.36804419334E+02 -0.21491554120E+02 -0.30536638406E+01  0.42729112370E+02  0.00000000000E+00 0. -1.
</event>
<event>
 7    1  0.2879200E-015  0.9000776E+02  0.7816164E-02  0.1186339E+00
        -11   -1    0    0    0    0  0.00000000000E+00  0.00000000000E+00  0.45593999997E+02  0.45594000000E+02  0.51100000000E-03 0.  1.
         11   -1    0    0    0    0 -0.00000000000E+00 -0.00000000000E+00 -0.45593999997E+02  0.45594000000E+02  0.51100000000E-03 0. -1.
    9900012    2    1    2    0    0  0.25395879558E+00 -0.86058111915E+00 -0.76672215817E+00  0.90007763668E+02  0.90000025348E+02 0.  0.
        -12    1    1    2    0    0 -0.25395879558E+00  0.86058111915E+00  0.76672215817E+00  0.11802363324E+01  0.00000000000E+00 0.  1.
         11    1    3    3    0    0 -0.52652664719E+01  0.58003305997E+01  0.49076498489E+01  0.92440193307E+01  0.51100000000E-03 0. -1.
        -11    1    3    3    0    0  0.37699996697E+02 -0.17464274826E+02  0.10947771694E+02  0.42966781953E+02  0.51100000000E-03 0.  1.
         12    1    3    3    0    0 -0.32180771429E+02  0.10803363107E+02 -0.16622143701E+02  0.37796962383E+02  0.00000000000E+00 0. -1.
</event>
<event>
 7    1  0.2879200E-015  0.9000792E+02  0.7816164E-02  0.1186339E+00
        -11   -1    0    0    0    0  0.00000000000E+00  0.00000000000E+00  0.45593999997E+02  0.45594000000E+02  0.51100000000E-03 0.  1.
         11   -1    0    0    0    0 -0.00000000000E+00 -0.00000000000E+00 -0.45593999997E+02  0.45594000000E+02  0.51100000000E-03 0. -1.
    9900012    2    1    2    0    0  0.53648819566E-01  0.10103639582E+01 -0.60735866077E+00  0.90007916076E+02  0.90000179768E+02 0.  0.
        -12    1    1    2    0    0 -0.53648819566E-01 -0.10103639582E+01  0.60735866077E+00  0.11800839236E+01  0.00000000000E+00 0.  1.
         11    1    3    3    0    0 -0.31428382606E+01  0.73861501006E+01  0.54025655113E+01  0.96757614691E+01  0.51100000000E-03 0. -1.
        -11    1    3    3    0    0 -0.25506683552E+02  0.77794577586E+00  0.26217891248E+02  0.36586526580E+02  0.51100000000E-03 0.  1.
         12    1    3    3    0    0  0.28703170632E+02 -0.71537319183E+01 -0.32227815421E+02  0.43745628027E+02  0.00000000000E+00 0. -1.
</event>
<event>
 7    1  0.2879200E-015  0.9000751E+02  0.7816164E-02  0.1186340E+00
        -11   -1    0    0    0    0  0.00000000000E+00  0.00000000000E+00  0.45593999997E+02  0.45594000000E+02  0.51100000000E-03 0.  1.
         11   -1    0    0    0    0 -0.00000000000E+00 -0.00000000000E+00 -0.45593999997E+02  0.45594000000E+02  0.51100000000E-03 0. -1.
    9900012    2    1    2    0    0  0.61396908728E+00  0.61727580800E+00 -0.79722633441E+00  0.90007509724E+02  0.89999768052E+02 0.  0.
        -12    1    1    2    0    0 -0.61396908728E+00 -0.61727580800E+00  0.79722633441E+00  0.11804902759E+01  0.00000000000E+00 0.  1.
         11    1    3    3    0    0 -0.74011058569E+01  0.41811510279E+01  0.14173052324E+01  0.86178388361E+01  0.51100000000E-03 0. -1.
        -11    1    3    3    0    0 -0.20706682528E+02 -0.15942552469E+01  0.31076382340E+02  0.37377130585E+02  0.51100000000E-03 0.  1.
         12    1    3    3    0    0  0.28721757473E+02 -0.19696199729E+01 -0.33290913907E+02  0.44012540303E+02  0.00000000000E+00 0. -1.
</event>
<event>
 7    1  0.2879200E-015  0.9000783E+02  0.7816164E-02  0.1186339E+00
        -11   -1    0    0    0    0  0.00000000000E+00  0.00000000000E+00  0.45593999997E+02  0.45594000000E+02  0.51100000000E-03 0. -1.
         11   -1    0    0    0    0 -0.00000000000E+00 -0.00000000000E+00 -0.45593999997E+02  0.45594000000E+02  0.51100000000E-03 0.  1.
    9900012    2    1    2    0    0  0.72444895811E+00 -0.52735702885E+00  0.76803050120E+00  0.90007829428E+02  0.90000091976E+02 0.  0.
        -12    1    1    2    0    0 -0.72444895811E+00  0.52735702885E+00 -0.76803050120E+00  0.11801705722E+01  0.00000000000E+00 0.  1.
         11    1    3    3    0    0  0.37368012374E+01 -0.77770347501E+00  0.10414196067E+02  0.11091617834E+02  0.51100000000E-03 0. -1.
        -11    1    3    3    0    0  0.33319939333E+02  0.39046303137E+01 -0.22285061838E+02  0.40275159546E+02  0.51100000000E-03 0.  1.
         12    1    3    3    0    0 -0.36332291612E+02 -0.36542838675E+01  0.12638896272E+02  0.38641052048E+02  0.00000000000E+00 0. -1.
</event>
<event>
 7    1  0.2879200E-015  0.9000775E+02  0.7816164E-02  0.1186339E+00
        -11   -1    0    0    0    0  0.00000000000E+00  0.00000000000E+00  0.45593999997E+02  0.45594000000E+02  0.51100000000E-03 0.  1.
         11   -1    0    0    0    0 -0.00000000000E+00 -0.00000000000E+00 -0.45593999997E+02  0.45594000000E+02  0.51100000000E-03 0. -1.
    9900012    2    1    2    0    0 -0.11425739185E+01  0.14460985315E+00  0.25805438337E+00  0.90007754588E+02  0.90000016148E+02 0.  0.
        -12    1    1    2    0    0  0.11425739185E+01 -0.14460985315E+00 -0.25805438337E+00  0.11802454124E+01  0.00000000000E+00 0.  1.
         11    1    3    3    0    0  0.19009611046E+01  0.31116144725E+01  0.91714581006E+01  0.98697234864E+01  0.51100000000E-03 0. -1.
        -11    1    3    3    0    0 -0.18115886162E+02 -0.30056647048E+02  0.17678265089E+02  0.39295144993E+02  0.51100000000E-03 0.  1.
         12    1    3    3    0    0  0.15072351139E+02  0.27089642429E+02 -0.26591668806E+02  0.40842886108E+02  0.00000000000E+00 0. -1.
</event>
<event>
 7    1  0.2879200E-015  0.9000776E+02  0.7816164E-02  0.1186339E+00
        -11   -1    0    0    0    0  0.00000000000E+00  0.00000000000E+00  0.45593999997E+02  0.45594000000E+02  0.51100000000E-03 0.  1.
         11   -1    0    0    0    0 -0.00000000000E+00 -0.00000000000E+00 -0.45593999997E+02  0.45594000000E+02  0.51100000000E-03 0. -1.
    9900012    2    1    2    0    0 -0.56085953166E+00  0.94908481622E+00 -0.42148420600E+00  0.90007756661E+02  0.90000018249E+02 0.  0.
        -12    1    1    2    0    0  0.56085953166E+00 -0.94908481622E+00  0.42148420600E+00  0.11802433387E+01  0.00000000000E+00 0.  1.
         11    1    3    3    0    0 -0.60397136654E+01  0.60933632916E+01  0.96955545641E+01  0.12946466542E+02  0.51100000000E-03 0. -1.
        -11    1    3    3    0    0  0.35675574246E+01 -0.17031677883E+00  0.33213177142E+02  0.33404664493E+02  0.51100000000E-03 0.  1.
         12    1    3    3    0    0  0.19112967092E+01 -0.49739616966E+01 -0.43330215912E+02  0.43656625626E+02  0.00000000000E+00 0. -1.
</event>
<event>
 7    1  0.2879200E-015  0.9000758E+02  0.7816164E-02  0.1186339E+00
        -11   -1    0    0    0    0  0.00000000000E+00  0.00000000000E+00  0.45593999997E+02  0.45594000000E+02  0.51100000000E-03 0.  1.
         11   -1    0    0    0    0 -0.00000000000E+00 -0.00000000000E+00 -0.45593999997E+02  0.45594000000E+02  0.51100000000E-03 0. -1.
    9900012    2    1    2    0    0 -0.82150835730E+00 -0.26704348555E+00 -0.80449443347E+00  0.90007576560E+02  0.89999835770E+02 0.  0.
        -12    1    1    2    0    0  0.82150835730E+00  0.26704348555E+00  0.80449443347E+00  0.11804234400E+01  0.00000000000E+00 0.  1.
         11    1    3    3    0    0  0.67241105419E+01  0.58664187424E+01 -0.22776057688E+01  0.92095613218E+01  0.51100000000E-03 0. -1.
        -11    1    3    3    0    0  0.25371890504E+02 -0.33931765908E+01  0.28362430461E+02  0.38205679382E+02  0.51100000000E-03 0.  1.
         12    1    3    3    0    0 -0.32917509403E+02 -0.27402856371E+01 -0.26889319126E+02  0.42592335856E+02  0.00000000000E+00 0. -1.
</event>
<event>
 7    1  0.2879200E-015  0.9000782E+02  0.7816164E-02  0.1186339E+00
        -11   -1    0    0    0    0  0.00000000000E+00  0.00000000000E+00  0.45593999997E+02  0.45594000000E+02  0.51100000000E-03 0.  1.
         11   -1    0    0    0    0 -0.00000000000E+00 -0.00000000000E+00 -0.45593999997E+02  0.45594000000E+02  0.51100000000E-03 0. -1.
    9900012    2    1    2    0    0  0.44003886902E+00 -0.85124549108E+00 -0.68888918383E+00  0.90007821454E+02  0.90000083897E+02 0.  0.
        -12    1    1    2    0    0 -0.44003886902E+00  0.85124549108E+00  0.68888918383E+00  0.11801785458E+01  0.00000000000E+00 0.  1.
         11    1    3    3    0    0 -0.13544107632E+02 -0.10010004100E+02 -0.92181195710E+01  0.19199394842E+02  0.51100000000E-03 0. -1.
        -11    1    3    3    0    0 -0.87415520510E+01 -0.25738299051E+02  0.10444852660E+02  0.29119919602E+02  0.51100000000E-03 0.  1.
         12    1    3    3    0    0  0.22725698552E+02  0.34897057660E+02 -0.19156222727E+01  0.41688507010E+02  0.00000000000E+00 0. -1.
</event>
<event>
 7    1  0.2879200E-015  0.9000771E+02  0.7816164E-02  0.1186339E+00
        -11   -1    0    0    0    0  0.00000000000E+00  0.00000000000E+00  0.45593999997E+02  0.45594000000E+02  0.51100000000E-03 0. -1.
         11   -1    0    0    0    0 -0.00000000000E+00 -0.00000000000E+00 -0.45593999997E+02  0.45594000000E+02  0.51100000000E-03 0.  1.
    9900012    2    1    2    0    0  0.98424947734E+00  0.48832853074E+00 -0.43112262986E+00  0.90007712531E+02  0.89999973536E+02 0.  0.
        -12    1    1    2    0    0 -0.98424947734E+00 -0.48832853074E+00  0.43112262986E+00  0.11802874690E+01  0.00000000000E+00 0.  1.
         11    1    3    3    0    0  0.22597921193E+02  0.28989731715E+02 -0.41133943096E+01  0.36986356946E+02  0.51100000000E-03 0. -1.
        -11    1    3    3    0    0  0.38017884262E+01  0.37537622025E+01  0.10130577449E+02  0.11453074942E+02  0.51100000000E-03 0.  1.
        -12    1    3    3    0    0 -0.25415460142E+02 -0.32255165387E+02 -0.64483057691E+01  0.41568280643E+02  0.00000000000E+00 0.  1.
</event>
<event>
 7    1  0.2879200E-015  0.9000762E+02  0.7816164E-02  0.1186339E+00
        -11   -1    0    0    0    0  0.00000000000E+00  0.00000000000E+00  0.45593999997E+02  0.45594000000E+02  0.51100000000E-03 0. -1.
         11   -1    0    0    0    0 -0.00000000000E+00 -0.00000000000E+00 -0.45593999997E+02  0.45594000000E+02  0.51100000000E-03 0.  1.
    9900012    2    1    2    0    0  0.56343233004E-01 -0.72382432611E+00  0.93069701651E+00  0.90007621607E+02  0.89999881412E+02 0.  0.
        -12    1    1    2    0    0 -0.56343233004E-01  0.72382432611E+00 -0.93069701651E+00  0.11803783934E+01  0.00000000000E+00 0.  1.
         11    1    3    3    0    0 -0.58658906164E+01  0.41538201563E+02 -0.10088163379E+02  0.43146284920E+02  0.51100000000E-03 0. -1.
        -11    1    3    3    0    0 -0.22676932426E+01 -0.54272758986E+01  0.66451682854E+01  0.88744587511E+01  0.51100000000E-03 0.  1.
        -12    1    3    3    0    0  0.81899270920E+01 -0.36834749990E+02  0.43736921099E+01  0.37986877935E+02  0.00000000000E+00 0.  1.
</event>
<event>
 7    1  0.2879200E-015  0.9000781E+02  0.7816164E-02  0.1186339E+00
        -11   -1    0    0    0    0  0.00000000000E+00  0.00000000000E+00  0.45593999997E+02  0.45594000000E+02  0.51100000000E-03 0.  1.
         11   -1    0    0    0    0 -0.00000000000E+00 -0.00000000000E+00 -0.45593999997E+02  0.45594000000E+02  0.51100000000E-03 0. -1.
    9900012    2    1    2    0    0 -0.10824032291E+01  0.44289536177E+00  0.15838435616E+00  0.90007814143E+02  0.90000076490E+02 0.  0.
        -12    1    1    2    0    0  0.10824032291E+01 -0.44289536177E+00 -0.15838435616E+00  0.11801858566E+01  0.00000000000E+00 0.  1.
         11    1    3    3    0    0 -0.62236219610E+01  0.38354710480E+01 -0.55066863654E+01  0.91524807272E+01  0.51100000000E-03 0. -1.
        -11    1    3    3    0    0  0.87051248733E+01  0.28882467771E+02  0.28229005595E+02  0.41314076303E+02  0.51100000000E-03 0.  1.
         12    1    3    3    0    0 -0.35639061414E+01 -0.32275043457E+02 -0.22563934873E+02  0.39541257114E+02  0.00000000000E+00 0. -1.
</event>
<event>
 7    1  0.2879200E-015  0.9000785E+02  0.7816164E-02  0.1186339E+00
        -11   -1    0    0    0    0  0.00000000000E+00  0.00000000000E+00  0.45593999997E+02  0.45594000000E+02  0.51100000000E-03 0.  1.
         11   -1    0    0    0    0 -0.00000000000E+00 -0.00000000000E+00 -0.45593999997E+02  0.45594000000E+02  0.51100000000E-03 0. -1.
    9900012    2    1    2    0    0  0.81617379999E+00  0.75413206632E+00  0.39735759427E+00  0.90007852593E+02  0.90000115447E+02 0.  0.
        -12    1    1    2    0    0 -0.81617379999E+00 -0.75413206632E+00 -0.39735759427E+00  0.11801474073E+01  0.00000000000E+00 0.  1.
         11    1    3    3    0    0 -0.32895296537E+02 -0.17020355806E+02 -0.81395713217E+01  0.37921572589E+02  0.51100000000E-03 0. -1.
        -11    1    3    3    0    0 -0.39949294289E+01 -0.14931838917E+01  0.87585008975E+01  0.97416835049E+01  0.51100000000E-03 0.  1.
        -12    1    3    3    0    0  0.37706399766E+02  0.19267671764E+02 -0.22157198155E+00  0.42344596499E+02  0.00000000000E+00 0.  1.
</event>
<event>
 7    1  0.2879200E-015  0.9000784E+02  0.7816164E-02  0.1186339E+00
        -11   -1    0    0    0    0  0.00000000000E+00  0.00000000000E+00  0.45593999997E+02  0.45594000000E+02  0.51100000000E-03 0. -1.
         11   -1    0    0    0    0 -0.00000000000E+00 -0.00000000000E+00 -0.45593999997E+02  0.45594000000E+02  0.51100000000E-03 0.  1.
    9900012    2    1    2    0    0 -0.96558146108E+00 -0.41243814963E+00  0.53881266900E+00  0.90007842435E+02  0.90000105155E+02 0.  0.
        -12    1    1    2    0    0  0.96558146108E+00  0.41243814963E+00 -0.53881266900E+00  0.11801575647E+01  0.00000000000E+00 0.  1.
         11    1    3    3    0    0  0.15017610465E+02 -0.11192476358E+02  0.28235614544E+02  0.33882887717E+02  0.51100000000E-03 0. -1.
        -11    1    3    3    0    0  0.41327385856E+01  0.27705595987E+00  0.10727827321E+02  0.11499676844E+02  0.51100000000E-03 0.  1.
        -12    1    3    3    0    0 -0.20115930511E+02  0.10502982249E+02 -0.38424629197E+02  0.44625277874E+02  0.00000000000E+00 0.  1.
</event>
<event>
 7    1  0.2879200E-015  0.9000777E+02  0.7816164E-02  0.1186339E+00
        -11   -1    0    0    0    0  0.00000000000E+00  0.00000000000E+00  0.45593999997E+02  0.45594000000E+02  0.51100000000E-03 0. -1.
         11   -1    0    0    0    0 -0.00000000000E+00 -0.00000000000E+00 -0.45593999997E+02  0.45594000000E+02  0.51100000000E-03 0.  1.
    9900012    2    1    2    0    0  0.55415527115E+00  0.89629703503E+00 -0.53151331539E+00  0.90007770004E+02  0.90000031768E+02 0.  0.
        -12    1    1    2    0    0 -0.55415527115E+00 -0.89629703503E+00  0.53151331539E+00  0.11802299962E+01  0.00000000000E+00 0.  1.
         11    1    3    3    0    0 -0.37699292294E+02 -0.11591559426E+01  0.14852585184E+02  0.40536151382E+02  0.51100000000E-03 0. -1.
        -11    1    3    3    0    0  0.37527846384E+00 -0.37646712295E+01 -0.10101241389E+02  0.10786503662E+02  0.51100000000E-03 0.  1.
        -12    1    3    3    0    0  0.37878169101E+02  0.58201242071E+01 -0.52828571103E+01  0.38685114960E+02  0.00000000000E+00 0.  1.
</event>
<event>
 7    1  0.2879200E-015  0.9000754E+02  0.7816164E-02  0.1186339E+00
        -11   -1    0    0    0    0  0.00000000000E+00  0.00000000000E+00  0.45593999997E+02  0.45594000000E+02  0.51100000000E-03 0.  1.
         11   -1    0    0    0    0 -0.00000000000E+00 -0.00000000000E+00 -0.45593999997E+02  0.45594000000E+02  0.51100000000E-03 0. -1.
    9900012    2    1    2    0    0 -0.10523085222E+01  0.48490143217E+00 -0.22582954190E+00  0.90007541781E+02  0.89999800532E+02 0.  0.
        -12    1    1    2    0    0  0.10523085222E+01 -0.48490143217E+00  0.22582954190E+00  0.11804582190E+01  0.00000000000E+00 0.  1.
         11    1    3    3    0    0 -0.19364201267E+02  0.36520969814E+02  0.43977191578E+01  0.41570343527E+02  0.51100000000E-03 0. -1.
        -11    1    3    3    0    0 -0.24037867450E+01 -0.22817121174E+01  0.65036963928E+01  0.72994840868E+01  0.51100000000E-03 0.  1.
        -12    1    3    3    0    0  0.20715679490E+02 -0.33754356264E+02 -0.11127245093E+02  0.41137714167E+02  0.00000000000E+00 0.  1.
</event>
<event>
 7    1  0.2879200E-015  0.9000773E+02  0.7816164E-02  0.1186339E+00
        -11   -1    0    0    0    0  0.00000000000E+00  0.00000000000E+00  0.45593999997E+02  0.45594000000E+02  0.51100000000E-03 0. -1.
         11   -1    0    0    0    0 -0.00000000000E+00 -0.00000000000E+00 -0.45593999997E+02  0.45594000000E+02  0.51100000000E-03 0.  1.
    9900012    2    1    2    0    0  0.37419234653E-01  0.72236914897E+00  0.93263716202E+00  0.90007733309E+02  0.89999994588E+02 0.  0.
        -12    1    1    2    0    0 -0.37419234653E-01 -0.72236914897E+00 -0.93263716202E+00  0.11802666913E+01  0.00000000000E+00 0.  1.
         11    1    3    3    0    0 -0.30498011535E+02 -0.57867907176E+01  0.19920227399E+02  0.36884022480E+02  0.51100000000E-03 0. -1.
        -11    1    3    3    0    0 -0.90802838432E+01  0.19217124914E+01 -0.87409983432E+00  0.93224773722E+01  0.51100000000E-03 0.  1.
        -12    1    3    3    0    0  0.39615714613E+02  0.45874473752E+01 -0.18113490403E+02  0.43801233456E+02  0.00000000000E+00 0.  1.
</event>
<event>
 7    1  0.2879200E-015  0.9000777E+02  0.7816164E-02  0.1186339E+00
        -11   -1    0    0    0    0  0.00000000000E+00  0.00000000000E+00  0.45593999997E+02  0.45594000000E+02  0.51100000000E-03 0.  1.
         11   -1    0    0    0    0 -0.00000000000E+00 -0.00000000000E+00 -0.45593999997E+02  0.45594000000E+02  0.51100000000E-03 0. -1.
    9900012    2    1    2    0    0 -0.35708444076E+00  0.11091608529E+01 -0.18762124382E+00  0.90007767469E+02  0.90000029200E+02 0.  0.
        -12    1    1    2    0    0  0.35708444076E+00 -0.11091608529E+01  0.18762124382E+00  0.11802325307E+01  0.00000000000E+00 0.  1.
         11    1    3    3    0    0 -0.14306868631E+02 -0.19548617008E+02 -0.25586144017E+02  0.35234722688E+02  0.51100000000E-03 0. -1.
        -11    1    3    3    0    0  0.26231218527E+01 -0.72658018502E+01 -0.70730471300E+01  0.10473807366E+02  0.51100000000E-03 0.  1.
        -12    1    3    3    0    0  0.11326662337E+02  0.27923579711E+02  0.32471569903E+02  0.44299237415E+02  0.00000000000E+00 0.  1.
</event>
<event>
 7    1  0.2879200E-015  0.9000757E+02  0.7816164E-02  0.1186339E+00
        -11   -1    0    0    0    0  0.00000000000E+00  0.00000000000E+00  0.45593999997E+02  0.45594000000E+02  0.51100000000E-03 0.  1.
         11   -1    0    0    0    0 -0.00000000000E+00 -0.00000000000E+00 -0.45593999997E+02  0.45594000000E+02  0.51100000000E-03 0. -1.
    9900012    2    1    2    0    0 -0.60364871164E+00  0.48027951768E+00 -0.89350629858E+00  0.90007570549E+02  0.89999829681E+02 0.  0.
        -12    1    1    2    0    0  0.60364871164E+00 -0.48027951768E+00  0.89350629858E+00  0.11804294506E+01  0.00000000000E+00 0.  1.
         11    1    3    3    0    0 -0.65544627626E+01 -0.69180540944E+01 -0.36321599895E+01  0.10198678395E+02  0.51100000000E-03 0. -1.
        -11    1    3    3    0    0  0.40107336656E+02  0.16202481014E+02  0.84571151070E+01  0.44075408572E+02  0.51100000000E-03 0.  1.
         12    1    3    3    0    0 -0.34156522605E+02 -0.88041474024E+01 -0.57184614161E+01  0.35733483582E+02  0.00000000000E+00 0. -1.
</event>
<event>
 7    1  0.2879200E-015  0.9000764E+02  0.7816164E-02  0.1186339E+00
        -11   -1    0    0    0    0  0.00000000000E+00  0.00000000000E+00  0.45593999997E+02  0.45594000000E+02  0.51100000000E-03 0. -1.
         11   -1    0    0    0    0 -0.00000000000E+00 -0.00000000000E+00 -0.45593999997E+02  0.45594000000E+02  0.51100000000E-03 0.  1.
    9900012    2    1    2    0    0 -0.10061341716E+01  0.77509237007E-01  0.61232985177E+00  0.90007635014E+02  0.89999894996E+02 0.  0.
        -12    1    1    2    0    0  0.10061341716E+01 -0.77509237007E-01 -0.61232985177E+00  0.11803649861E+01  0.00000000000E+00 0.  1.
         11    1    3    3    0    0  0.28973902608E+01 -0.94153697614E+01  0.36838669868E+02  0.38133078239E+02  0.51100000000E-03 0. -1.
        -11    1    3    3    0    0  0.81105957541E+00 -0.96180116059E+01  0.10613153543E+01  0.97103221073E+01  0.51100000000E-03 0.  1.
        -12    1    3    3    0    0 -0.47145840079E+01  0.19110890604E+02 -0.37287655371E+02  0.42164234668E+02  0.00000000000E+00 0.  1.
</event>
<event>
 7    1  0.2879200E-015  0.9000779E+02  0.7816164E-02  0.1186339E+00
        -11   -1    0    0    0    0  0.00000000000E+00  0.00000000000E+00  0.45593999997E+02  0.45594000000E+02  0.51100000000E-03 0. -1.
         11   -1    0    0    0    0 -0.00000000000E+00 -0.00000000000E+00 -0.45593999997E+02  0.45594000000E+02  0.51100000000E-03 0.  1.
    9900012    2    1    2    0    0 -0.61423699961E+00 -0.98306665905E+00  0.22180210826E+00  0.90007786747E+02  0.90000048732E+02 0.  0.
        -12    1    1    2    0    0  0.61423699961E+00  0.98306665905E+00 -0.22180210826E+00  0.11802132532E+01  0.00000000000E+00 0.  1.
         11    1    3    3    0    0  0.35075423865E+01  0.73261112062E+01  0.34042301251E+01  0.88070166347E+01  0.51100000000E-03 0. -1.
        -11    1    3    3    0    0  0.81676237016E+01 -0.14621921163E+02 -0.39197965262E+02  0.42626179003E+02  0.51100000000E-03 0.  1.
         12    1    3    3    0    0 -0.12289403088E+02  0.63127432975E+01  0.36015537245E+02  0.38574591109E+02  0.00000000000E+00 0. -1.
</event>
<event>
 7    1  0.2879200E-015  0.9000768E+02  0.7816164E-02  0.1186339E+00
        -11   -1    0    0    0    0  0.00000000000E+00  0.00000000000E+00  0.45593999997E+02  0.45594000000E+02  0.51100000000E-03 0.  1.
         11   -1    0    0    0    0 -0.00000000000E+00 -0.00000000000E+00 -0.45593999997E+02  0.45594000000E+02  0.51100000000E-03 0. -1.
    9900012    2    1    2    0    0 -0.48182780282E+00 -0.58221641758E+00  0.90665994891E+00  0.90007675362E+02  0.89999935877E+02 0.  0.
        -12    1    1    2    0    0  0.48182780282E+00  0.58221641758E+00 -0.90665994891E+00  0.11803246382E+01  0.00000000000E+00 0.  1.
         11    1    3    3    0    0  0.14771505005E+02  0.32597366253E+02 -0.10880120294E+01  0.35804600503E+02  0.51100000000E-03 0. -1.
        -11    1    3    3    0    0 -0.50703403648E+01  0.92401070198E+01  0.55977763648E+00  0.10554680498E+02  0.51100000000E-03 0.  1.
        -12    1    3    3    0    0 -0.10182992443E+02 -0.42419689690E+02  0.14348943418E+01  0.43648394361E+02  0.00000000000E+00 0.  1.
</event>
<event>
 7    1  0.2879200E-015  0.9000775E+02  0.7816164E-02  0.1186339E+00
        -11   -1    0    0    0    0  0.00000000000E+00  0.00000000000E+00  0.45593999997E+02  0.45594000000E+02  0.51100000000E-03 0.  1.
         11   -1    0    0    0    0 -0.00000000000E+00 -0.00000000000E+00 -0.45593999997E+02  0.45594000000E+02  0.51100000000E-03 0. -1.
    9900012    2    1    2    0    0  0.92628191898E+00  0.52697188584E+00  0.50723640734E+00  0.90007751579E+02  0.90000013100E+02 0.  0.
        -12    1    1    2    0    0 -0.92628191898E+00 -0.52697188584E+00 -0.50723640734E+00  0.11802484208E+01  0.00000000000E+00 0.  1.
         11    1    3    3    0    0 -0.34576363109E+01 -0.52525102255E+01  0.62364147490E+01  0.88564655315E+01  0.51100000000E-03 0. -1.
        -11    1    3    3    0    0 -0.31382293217E+02 -0.12586371234E+02 -0.19033378787E+02  0.38801218753E+02  0.51100000000E-03 0.  1.
         12    1    3    3    0    0  0.35766211447E+02  0.18365853346E+02  0.13304200445E+02  0.42350067295E+02  0.00000000000E+00 0. -1.
</event>
<event>
 7    1  0.2879200E-015  0.9000771E+02  0.7816164E-02  0.1186339E+00
        -11   -1    0    0    0    0  0.00000000000E+00  0.00000000000E+00  0.45593999997E+02  0.45594000000E+02  0.51100000000E-03 0. -1.
         11   -1    0    0    0    0 -0.00000000000E+00 -0.00000000000E+00 -0.45593999997E+02  0.45594000000E+02  0.51100000000E-03 0.  1.
    9900012    2    1    2    0    0  0.10381865751E+01 -0.56134613793E+00 -0.11496999983E-01  0.90007714851E+02  0.89999975887E+02 0.  0.
        -12    1    1    2    0    0 -0.10381865751E+01  0.56134613793E+00  0.11496999983E-01  0.11802851487E+01  0.00000000000E+00 0.  1.
         11    1    3    3    0    0 -0.41881864542E+01 -0.17659273300E+01 -0.73313226167E+01  0.86259896059E+01  0.51100000000E-03 0. -1.
        -11    1    3    3    0    0 -0.28354009979E+02 -0.23090200637E+02  0.14464027681E+02  0.39323216353E+02  0.51100000000E-03 0.  1.
         12    1    3    3    0    0  0.33580383008E+02  0.24294781829E+02 -0.71442020644E+01  0.42058508892E+02  0.00000000000E+00 0. -1.
</event>
<event>
 7    1  0.2879200E-015  0.9000779E+02  0.7816164E-02  0.1186339E+00
        -11   -1    0    0    0    0  0.00000000000E+00  0.00000000000E+00  0.45593999997E+02  0.45594000000E+02  0.51100000000E-03 0. -1.
         11   -1    0    0    0    0 -0.00000000000E+00 -0.00000000000E+00 -0.45593999997E+02  0.45594000000E+02  0.51100000000E-03 0.  1.
    9900012    2    1    2    0    0 -0.62318108884E+00  0.64375612992E+00 -0.76819874622E+00  0.90007785639E+02  0.90000047609E+02 0.  0.
        -12    1    1    2    0    0  0.62318108884E+00 -0.64375612992E+00  0.76819874622E+00  0.11802143610E+01  0.00000000000E+00 0.  1.
         11    1    3    3    0    0  0.85063975321E+01 -0.41507878000E+01  0.93157483276E+01  0.13280474596E+02  0.51100000000E-03 0. -1.
        -11    1    3    3    0    0 -0.18943823058E+02  0.28472928989E+02  0.18048312177E+02  0.38669337852E+02  0.51100000000E-03 0.  1.
         12    1    3    3    0    0  0.98142444368E+01 -0.23678385059E+02 -0.28132259250E+02  0.38057973191E+02  0.00000000000E+00 0. -1.
</event>
<event>
 7    1  0.2879200E-015  0.9000773E+02  0.7816164E-02  0.1186339E+00
        -11   -1    0    0    0    0  0.00000000000E+00  0.00000000000E+00  0.45593999997E+02  0.45594000000E+02  0.51100000000E-03 0.  1.
         11   -1    0    0    0    0 -0.00000000000E+00 -0.00000000000E+00 -0.45593999997E+02  0.45594000000E+02  0.51100000000E-03 0. -1.
    9900012    2    1    2    0    0  0.81063288327E-01 -0.14835936818E-01 -0.11773861523E+01  0.90007733287E+02  0.89999994567E+02 0.  0.
        -12    1    1    2    0    0 -0.81063288327E-01  0.14835936818E-01  0.11773861523E+01  0.11802667128E+01  0.00000000000E+00 0.  1.
         11    1    3    3    0    0  0.20842083834E+02 -0.20319723968E+02 -0.25644560253E+02  0.38793390049E+02  0.51100000000E-03 0. -1.
        -11    1    3    3    0    0  0.50271746983E+00 -0.85890087394E+01  0.18352359187E+01  0.87972658889E+01  0.51100000000E-03 0.  1.
        -12    1    3    3    0    0 -0.21263738015E+02  0.28893896770E+02  0.22631938182E+02  0.42417077349E+02  0.00000000000E+00 0.  1.
</event>
<event>
 7    1  0.2879200E-015  0.9000772E+02  0.7816164E-02  0.1186339E+00
        -11   -1    0    0    0    0  0.00000000000E+00  0.00000000000E+00  0.45593999997E+02  0.45594000000E+02  0.51100000000E-03 0. -1.
         11   -1    0    0    0    0 -0.00000000000E+00 -0.00000000000E+00 -0.45593999997E+02  0.45594000000E+02  0.51100000000E-03 0.  1.
    9900012    2    1    2    0    0 -0.43651248673E+00 -0.93610070972E+00  0.57117100129E+00  0.90007718677E+02  0.89999979763E+02 0.  0.
        -12    1    1    2    0    0  0.43651248673E+00  0.93610070972E+00 -0.57117100129E+00  0.11802813235E+01  0.00000000000E+00 0.  1.
         11    1    3    3    0    0 -0.36988944214E+02  0.58441531163E+00 -0.18092153191E+02  0.41180693810E+02  0.51100000000E-03 0. -1.
        -11    1    3    3    0    0  0.42508893628E+01 -0.40545562813E+01 -0.57792399184E+01  0.82406978654E+01  0.51100000000E-03 0.  1.
        -12    1    3    3    0    0  0.32301542364E+02  0.25340402600E+01  0.24442564110E+02  0.40586327001E+02  0.00000000000E+00 0.  1.
</event>
<event>
 7    1  0.2879200E-015  0.9000768E+02  0.7816164E-02  0.1186339E+00
        -11   -1    0    0    0    0  0.00000000000E+00  0.00000000000E+00  0.45593999997E+02  0.45594000000E+02  0.51100000000E-03 0.  1.
         11   -1    0    0    0    0 -0.00000000000E+00 -0.00000000000E+00 -0.45593999997E+02  0.45594000000E+02  0.51100000000E-03 0. -1.
    9900012    2    1    2    0    0 -0.98372871719E+00 -0.97784234348E-01 -0.64487182445E+00  0.90007684951E+02  0.89999945592E+02 0.  0.
        -12    1    1    2    0    0  0.98372871719E+00  0.97784234348E-01  0.64487182445E+00  0.11803150492E+01  0.00000000000E+00 0.  1.
         11    1    3    3    0    0 -0.32317933541E+02  0.50547206748E+01 -0.21699780311E+02  0.39254037949E+02  0.51100000000E-03 0. -1.
        -11    1    3    3    0    0 -0.65469962031E+01 -0.42280296949E+01  0.65478688994E+01  0.10179095332E+02  0.51100000000E-03 0.  1.
        -12    1    3    3    0    0  0.37881201027E+02 -0.92447521431E+00  0.14507039588E+02  0.40574551670E+02  0.00000000000E+00 0.  1.
</event>
<event>
 7    1  0.2879200E-015  0.9000773E+02  0.7816164E-02  0.1186339E+00
        -11   -1    0    0    0    0  0.00000000000E+00  0.00000000000E+00  0.45593999997E+02  0.45594000000E+02  0.51100000000E-03 0. -1.
         11   -1    0    0    0    0 -0.00000000000E+00 -0.00000000000E+00 -0.45593999997E+02  0.45594000000E+02  0.51100000000E-03 0.  1.
    9900012    2    1    2    0    0 -0.36936562960E+00  0.77222398822E+00  0.81258094429E+00  0.90007725181E+02  0.89999986354E+02 0.  0.
        -12    1    1    2    0    0  0.36936562960E+00 -0.77222398822E+00 -0.81258094429E+00  0.11802748186E+01  0.00000000000E+00 0.  1.
         11    1    3    3    0    0  0.90365457342E+01 -0.22680626893E+02  0.25052924263E+02  0.34981695348E+02  0.51100000000E-03 0. -1.
        -11    1    3    3    0    0  0.63649339000E+01  0.13429443540E+01  0.96243417430E+01  0.11616532931E+02  0.51100000000E-03 0.  1.
        -12    1    3    3    0    0 -0.15770845264E+02  0.22109906527E+02 -0.33864685062E+02  0.43409496902E+02  0.00000000000E+00 0.  1.
</event>
<event>
 7    1  0.2879200E-015  0.9000778E+02  0.7816164E-02  0.1186339E+00
        -11   -1    0    0    0    0  0.00000000000E+00  0.00000000000E+00  0.45593999997E+02  0.45594000000E+02  0.51100000000E-03 0.  1.
         11   -1    0    0    0    0 -0.00000000000E+00 -0.00000000000E+00 -0.45593999997E+02  0.45594000000E+02  0.51100000000E-03 0. -1.
    9900012    2    1    2    0    0 -0.53248454070E+00 -0.43453533604E+00 -0.95946345896E+00  0.90007775075E+02  0.90000036906E+02 0.  0.
        -12    1    1    2    0    0  0.53248454070E+00  0.43453533604E+00  0.95946345896E+00  0.11802249249E+01  0.00000000000E+00 0.  1.
         11    1    3    3    0    0  0.19042535833E+02 -0.27639794336E+02  0.13859872188E+02  0.36313529974E+02  0.51100000000E-03 0. -1.
        -11    1    3    3    0    0 -0.28548216131E+01 -0.61025860128E+01  0.76358247494E+01  0.10183191167E+02  0.51100000000E-03 0.  1.
        -12    1    3    3    0    0 -0.16720198760E+02  0.33307845013E+02 -0.22455160396E+02  0.43511053933E+02  0.00000000000E+00 0.  1.
</event>
<event>
 7    1  0.2879200E-015  0.9000778E+02  0.7816164E-02  0.1186339E+00
        -11   -1    0    0    0    0  0.00000000000E+00  0.00000000000E+00  0.45593999997E+02  0.45594000000E+02  0.51100000000E-03 0.  1.
         11   -1    0    0    0    0 -0.00000000000E+00 -0.00000000000E+00 -0.45593999997E+02  0.45594000000E+02  0.51100000000E-03 0. -1.
    9900012    2    1    2    0    0  0.49249967696E+00 -0.48015401124E+00 -0.95907003047E+00  0.90007780050E+02  0.90000041947E+02 0.  0.
        -12    1    1    2    0    0 -0.49249967696E+00  0.48015401124E+00  0.95907003047E+00  0.11802199497E+01  0.00000000000E+00 0.  1.
         11    1    3    3    0    0  0.88249317510E+00  0.12124062618E+01  0.10485958223E+02  0.10592640995E+02  0.51100000000E-03 0. -1.
        -11    1    3    3    0    0  0.14481253078E+02 -0.27034671527E+02  0.19815089090E+02  0.36513256650E+02  0.51100000000E-03 0.  1.
         12    1    3    3    0    0 -0.14871246576E+02  0.25342111254E+02 -0.31260117344E+02  0.42901882405E+02  0.00000000000E+00 0. -1.
</event>
<event>
 7    1  0.2879200E-015  0.9000772E+02  0.7816164E-02  0.1186339E+00
        -11   -1    0    0    0    0  0.00000000000E+00  0.00000000000E+00  0.45593999997E+02  0.45594000000E+02  0.51100000000E-03 0.  1.
         11   -1    0    0    0    0 -0.00000000000E+00 -0.00000000000E+00 -0.45593999997E+02  0.45594000000E+02  0.51100000000E-03 0. -1.
    9900012    2    1    2    0    0  0.98069713268E+00  0.31491117681E+00  0.57630037054E+00  0.90007721206E+02  0.89999982326E+02 0.  0.
        -12    1    1    2    0    0 -0.98069713268E+00 -0.31491117681E+00 -0.57630037054E+00  0.11802787944E+01  0.00000000000E+00 0.  1.
         11    1    3    3    0    0 -0.71329672175E+01 -0.94085169069E-01  0.65869117492E+01  0.97095561175E+01  0.51100000000E-03 0. -1.
        -11    1    3    3    0    0  0.22412465862E+02  0.19804205095E+02  0.26412387922E+02  0.39901621539E+02  0.51100000000E-03 0.  1.
         12    1    3    3    0    0 -0.14298801512E+02 -0.19395208749E+02 -0.32422999300E+02  0.40396543549E+02  0.00000000000E+00 0. -1.
</event>
<event>
 7    1  0.2879200E-015  0.9000769E+02  0.7816164E-02  0.1186339E+00
        -11   -1    0    0    0    0  0.00000000000E+00  0.00000000000E+00  0.45593999997E+02  0.45594000000E+02  0.51100000000E-03 0. -1.
         11   -1    0    0    0    0 -0.00000000000E+00 -0.00000000000E+00 -0.45593999997E+02  0.45594000000E+02  0.51100000000E-03 0.  1.
    9900012    2    1    2    0    0 -0.81633835343E+00 -0.52609593380E+00 -0.67077894178E+00  0.90007690876E+02  0.89999951596E+02 0.  0.
        -12    1    1    2    0    0  0.81633835343E+00  0.52609593380E+00  0.67077894178E+00  0.11803091237E+01  0.00000000000E+00 0.  1.
         11    1    3    3    0    0 -0.61455454671E+01 -0.38745646434E+01  0.87931357441E+01  0.11406104363E+02  0.51100000000E-03 0. -1.
        -11    1    3    3    0    0 -0.74827224505E+01 -0.35926138857E+02 -0.53653327995E+01  0.37087267151E+02  0.51100000000E-03 0.  1.
         12    1    3    3    0    0  0.12811929564E+02  0.39274607566E+02 -0.40985818864E+01  0.41514319362E+02  0.00000000000E+00 0. -1.
</event>
<event>
 7    1  0.2879200E-015  0.9000781E+02  0.7816164E-02  0.1186339E+00
        -11   -1    0    0    0    0  0.00000000000E+00  0.00000000000E+00  0.45593999997E+02  0.45594000000E+02  0.51100000000E-03 0. -1.
         11   -1    0    0    0    0 -0.00000000000E+00 -0.00000000000E+00 -0.45593999997E+02  0.45594000000E+02  0.51100000000E-03 0.  1.
    9900012    2    1    2    0    0 -0.89378947506E+00 -0.76760395835E+00  0.69158726819E-01  0.90007805782E+02  0.90000068018E+02 0.  0.
        -12    1    1    2    0    0  0.89378947506E+00  0.76760395835E+00 -0.69158726819E-01  0.11801942180E+01  0.00000000000E+00 0.  1.
         11    1    3    3    0    0 -0.33895338067E+02  0.14439604013E+02  0.17374922271E+02  0.40734310242E+02  0.51100000000E-03 0. -1.
        -11    1    3    3    0    0 -0.26637786846E+01 -0.88613084645E+01 -0.70243889776E+01  0.11617252057E+02  0.51100000000E-03 0.  1.
        -12    1    3    3    0    0  0.35665327276E+02 -0.63458995064E+01 -0.10281374567E+02  0.37656243483E+02  0.00000000000E+00 0.  1.
</event>
<event>
 7    1  0.2879200E-015  0.9000780E+02  0.7816164E-02  0.1186339E+00
        -11   -1    0    0    0    0  0.00000000000E+00  0.00000000000E+00  0.45593999997E+02  0.45594000000E+02  0.51100000000E-03 0.  1.
         11   -1    0    0    0    0 -0.00000000000E+00 -0.00000000000E+00 -0.45593999997E+02  0.45594000000E+02  0.51100000000E-03 0. -1.
    9900012    2    1    2    0    0 -0.50213411544E+00 -0.83717372227E+00 -0.66322935373E+00  0.90007800150E+02  0.90000062312E+02 0.  0.
        -12    1    1    2    0    0  0.50213411544E+00  0.83717372227E+00  0.66322935373E+00  0.11801998504E+01  0.00000000000E+00 0.  1.
         11    1    3    3    0    0 -0.55551246807E+01 -0.38794116625E+02 -0.14056315601E+02  0.41634395678E+02  0.51100000000E-03 0. -1.
        -11    1    3    3    0    0 -0.88195931842E+01  0.39964635437E+01  0.14325726627E+01  0.97882178912E+01  0.51100000000E-03 0.  1.
        -12    1    3    3    0    0  0.13872583749E+02  0.33960479359E+02  0.11960513585E+02  0.38585186580E+02  0.00000000000E+00 0.  1.
</event>
<event>
 7    1  0.2879200E-015  0.9000770E+02  0.7816164E-02  0.1186339E+00
        -11   -1    0    0    0    0  0.00000000000E+00  0.00000000000E+00  0.45593999997E+02  0.45594000000E+02  0.51100000000E-03 0.  1.
         11   -1    0    0    0    0 -0.00000000000E+00 -0.00000000000E+00 -0.45593999997E+02  0.45594000000E+02  0.51100000000E-03 0. -1.
    9900012    2    1    2    0    0 -0.73956861313E+00 -0.13925290165E-01 -0.91975626713E+00  0.90007700361E+02  0.89999961206E+02 0.  0.
        -12    1    1    2    0    0  0.73956861313E+00  0.13925290165E-01  0.91975626713E+00  0.11802996391E+01  0.00000000000E+00 0.  1.
         11    1    3    3    0    0 -0.27481255091E+02 -0.23016375431E+02 -0.82802492423E+01  0.36790426025E+02  0.51100000000E-03 0. -1.
        -11    1    3    3    0    0 -0.10189672331E+02  0.62769384603E+01  0.36177796904E+01  0.12502708058E+02  0.51100000000E-03 0.  1.
        -12    1    3    3    0    0  0.36931358809E+02  0.16725511680E+02  0.37427132848E+01  0.40714566277E+02  0.00000000000E+00 0.  1.
</event>
<event>
 7    1  0.2879200E-015  0.9000773E+02  0.7816164E-02  0.1186339E+00
        -11   -1    0    0    0    0  0.00000000000E+00  0.00000000000E+00  0.45593999997E+02  0.45594000000E+02  0.51100000000E-03 0.  1.
         11   -1    0    0    0    0 -0.00000000000E+00 -0.00000000000E+00 -0.45593999997E+02  0.45594000000E+02  0.51100000000E-03 0. -1.
    9900012    2    1    2    0    0  0.10240187297E+01 -0.33823122202E+00  0.47961568431E+00  0.90007726336E+02  0.89999987523E+02 0.  0.
        -12    1    1    2    0    0 -0.10240187297E+01  0.33823122202E+00 -0.47961568431E+00  0.11802736644E+01  0.00000000000E+00 0.  1.
         11    1    3    3    0    0  0.32176125598E+02 -0.11858326070E+02 -0.24703401921E+02  0.42263234879E+02  0.51100000000E-03 0. -1.
        -11    1    3    3    0    0 -0.41882217023E+01 -0.67409821398E+01  0.59993211797E+01  0.99485625149E+01  0.51100000000E-03 0.  1.
        -12    1    3    3    0    0 -0.26963885166E+02  0.18261076988E+02  0.19183696426E+02  0.37795928942E+02  0.00000000000E+00 0.  1.
</event>
<event>
 7    1  0.2879200E-015  0.9000770E+02  0.7816164E-02  0.1186339E+00
        -11   -1    0    0    0    0  0.00000000000E+00  0.00000000000E+00  0.45593999997E+02  0.45594000000E+02  0.51100000000E-03 0.  1.
         11   -1    0    0    0    0 -0.00000000000E+00 -0.00000000000E+00 -0.45593999997E+02  0.45594000000E+02  0.51100000000E-03 0. -1.
    9900012    2    1    2    0    0  0.78207325176E+00  0.78968623537E+00  0.39733541280E+00  0.90007695653E+02  0.89999956436E+02 0.  0.
        -12    1    1    2    0    0 -0.78207325176E+00 -0.78968623537E+00 -0.39733541280E+00  0.11803043471E+01  0.00000000000E+00 0.  1.
         11    1    3    3    0    0  0.36000714171E+00  0.96156606915E+01  0.80576157970E+01  0.12550526215E+02  0.51100000000E-03 0. -1.
        -11    1    3    3    0    0 -0.12422557261E+02  0.26535209062E+02 -0.22574439624E+02  0.36987059540E+02  0.51100000000E-03 0.  1.
         12    1    3    3    0    0  0.12844623371E+02 -0.35361183518E+02  0.14914159240E+02  0.40470109898E+02  0.00000000000E+00 0. -1.
</event>
<event>
 7    1  0.2879200E-015  0.9000882E+02  0.7816164E-02  0.1186337E+00
        -11   -1    0    0    0    0  0.00000000000E+00  0.00000000000E+00  0.45593999997E+02  0.45594000000E+02  0.51100000000E-03 0.  1.
         11   -1    0    0    0    0 -0.00000000000E+00 -0.00000000000E+00 -0.45593999997E+02  0.45594000000E+02  0.51100000000E-03 0. -1.
    9900012    2    1    2    0    0  0.70651862889E+00 -0.87879210100E-01 -0.93998512776E+00  0.90008820892E+02  0.90001096521E+02 0.  0.
        -12    1    1    2    0    0 -0.70651862889E+00  0.87879210100E-01  0.93998512776E+00  0.11791791081E+01  0.00000000000E+00 0.  1.
         11    1    3    3    0    0  0.31191465677E+02  0.11386026018E+02  0.19202805071E+02  0.38357487437E+02  0.51100000000E-03 0. -1.
        -11    1    3    3    0    0  0.12756631255E+01  0.17719510075E+01  0.73108037394E+01  0.76298740723E+01  0.51100000000E-03 0.  1.
        -12    1    3    3    0    0 -0.31760610174E+02 -0.13245856236E+02 -0.27453593939E+02  0.44021459383E+02  0.00000000000E+00 0.  1.
</event>
<event>
 7    1  0.2879200E-015  0.9000784E+02  0.7816164E-02  0.1186339E+00
        -11   -1    0    0    0    0  0.00000000000E+00  0.00000000000E+00  0.45593999997E+02  0.45594000000E+02  0.51100000000E-03 0.  1.
         11   -1    0    0    0    0 -0.00000000000E+00 -0.00000000000E+00 -0.45593999997E+02  0.45594000000E+02  0.51100000000E-03 0. -1.
    9900012    2    1    2    0    0 -0.59011257405E+00  0.51875987271E+00 -0.88058046316E+00  0.90007844668E+02  0.90000107418E+02 0.  0.
        -12    1    1    2    0    0  0.59011257405E+00 -0.51875987271E+00  0.88058046316E+00  0.11801553320E+01  0.00000000000E+00 0.  1.
         11    1    3    3    0    0  0.27290106650E+01 -0.11555504782E+02  0.14171325386E+02  0.18487932643E+02  0.51100000000E-03 0. -1.
        -11    1    3    3    0    0 -0.14693306002E+02 -0.22983078034E+02  0.75262146563E+01  0.28297685850E+02  0.51100000000E-03 0.  1.
         12    1    3    3    0    0  0.11374182763E+02  0.35057342688E+02 -0.22578120506E+02  0.43222226174E+02  0.00000000000E+00 0. -1.
</event>
<event>
 7    1  0.2879200E-015  0.9000784E+02  0.7816164E-02  0.1186339E+00
        -11   -1    0    0    0    0  0.00000000000E+00  0.00000000000E+00  0.45593999997E+02  0.45594000000E+02  0.51100000000E-03 0.  1.
         11   -1    0    0    0    0 -0.00000000000E+00 -0.00000000000E+00 -0.45593999997E+02  0.45594000000E+02  0.51100000000E-03 0. -1.
    9900012    2    1    2    0    0 -0.60148066361E+00 -0.41336469964E+00 -0.92742811363E+00  0.90007842269E+02  0.90000104987E+02 0.  0.
        -12    1    1    2    0    0  0.60148066361E+00  0.41336469964E+00  0.92742811363E+00  0.11801577308E+01  0.00000000000E+00 0.  1.
         11    1    3    3    0    0  0.37247250716E+01 -0.38911820700E+00  0.79236363485E+01  0.87640745708E+01  0.51100000000E-03 0. -1.
        -11    1    3    3    0    0 -0.17674799211E+02  0.31437713863E+02  0.15524631334E+02  0.39265029714E+02  0.51100000000E-03 0.  1.
         12    1    3    3    0    0  0.13348593476E+02 -0.31461960356E+02 -0.24375695796E+02  0.41978737985E+02  0.00000000000E+00 0. -1.
</event>
<event>
 7    1  0.2879200E-015  0.9000767E+02  0.7816164E-02  0.1186339E+00
        -11   -1    0    0    0    0  0.00000000000E+00  0.00000000000E+00  0.45593999997E+02  0.45594000000E+02  0.51100000000E-03 0.  1.
         11   -1    0    0    0    0 -0.00000000000E+00 -0.00000000000E+00 -0.45593999997E+02  0.45594000000E+02  0.51100000000E-03 0. -1.
    9900012    2    1    2    0    0  0.11255453294E+01  0.16243110551E+00 -0.31615296321E+00  0.90007665789E+02  0.89999926178E+02 0.  0.
        -12    1    1    2    0    0 -0.11255453294E+01 -0.16243110551E+00  0.31615296321E+00  0.11803342106E+01  0.00000000000E+00 0.  1.
         11    1    3    3    0    0 -0.35845545714E+02 -0.12031832299E+02 -0.19133030212E+02  0.42376184129E+02  0.51100000000E-03 0. -1.
        -11    1    3    3    0    0  0.58235028767E+01  0.62187564264E+01 -0.31149685438E+01  0.90713365352E+01  0.51100000000E-03 0.  1.
        -12    1    3    3    0    0  0.31147588166E+02  0.59755069782E+01  0.21931845793E+02  0.38560145125E+02  0.00000000000E+00 0.  1.
</event>
<event>
 7    1  0.2879200E-015  0.9000751E+02  0.7816164E-02  0.1186340E+00
        -11   -1    0    0    0    0  0.00000000000E+00  0.00000000000E+00  0.45593999997E+02  0.45594000000E+02  0.51100000000E-03 0.  1.
         11   -1    0    0    0    0 -0.00000000000E+00 -0.00000000000E+00 -0.45593999997E+02  0.45594000000E+02  0.51100000000E-03 0. -1.
    9900012    2    1    2    0    0 -0.34641437428E+00 -0.84483444793E+00  0.74820456404E+00  0.90007509325E+02  0.89999767648E+02 0.  0.
        -12    1    1    2    0    0  0.34641437428E+00  0.84483444793E+00 -0.74820456404E+00  0.11804906746E+01  0.00000000000E+00 0.  1.
         11    1    3    3    0    0 -0.32010896617E+02 -0.65165622258E+01 -0.15236152296E+02  0.36045851668E+02  0.51100000000E-03 0. -1.
        -11    1    3    3    0    0  0.28045697806E+01  0.17028878950E+02  0.15105188564E+02  0.22935018024E+02  0.51100000000E-03 0.  1.
        -12    1    3    3    0    0  0.28859912462E+02 -0.11357151172E+02  0.87916829595E+00  0.31026639633E+02  0.00000000000E+00 0.  1.
</event>
<event>
 7    1  0.2879200E-015  0.9000775E+02  0.7816164E-02  0.1186339E+00
        -11   -1    0    0    0    0  0.00000000000E+00  0.00000000000E+00  0.45593999997E+02  0.45594000000E+02  0.51100000000E-03 0.  1.
         11   -1    0    0    0    0 -0.00000000000E+00 -0.00000000000E+00 -0.45593999997E+02  0.45594000000E+02  0.51100000000E-03 0. -1.
    9900012    2    1    2    0    0 -0.68631058532E+00  0.23328036586E+00  0.93142043094E+00  0.90007751735E+02  0.90000013258E+02 0.  0.
        -12    1    1    2    0    0  0.68631058532E+00 -0.23328036586E+00 -0.93142043094E+00  0.11802482653E+01  0.00000000000E+00 0.  1.
         11    1    3    3    0    0 -0.72255181451E+01  0.76974457332E+01 -0.96374590182E+00  0.10601301321E+02  0.51100000000E-03 0. -1.
        -11    1    3    3    0    0 -0.13469405260E+02 -0.51265086669E+01  0.36568481341E+02  0.39305976607E+02  0.51100000000E-03 0.  1.
         12    1    3    3    0    0  0.20008612819E+02 -0.23376567004E+01 -0.34673315009E+02  0.40100473806E+02  0.00000000000E+00 0. -1.
</event>
<event>
 7    1  0.2879200E-015  0.9000788E+02  0.7816164E-02  0.1186339E+00
        -11   -1    0    0    0    0  0.00000000000E+00  0.00000000000E+00  0.45593999997E+02  0.45594000000E+02  0.51100000000E-03 0.  1.
         11   -1    0    0    0    0 -0.00000000000E+00 -0.00000000000E+00 -0.45593999997E+02  0.45594000000E+02  0.51100000000E-03 0. -1.
    9900012    2    1    2    0    0 -0.61189698893E+00  0.97325828728E+00  0.26653754300E+00  0.90007876328E+02  0.90000139496E+02 0.  0.
        -12    1    1    2    0    0  0.61189698893E+00 -0.97325828728E+00 -0.26653754300E+00  0.11801236718E+01  0.00000000000E+00 0.  1.
         11    1    3    3    0    0  0.34864516889E+02 -0.21745529781E+01 -0.15649796961E+02  0.38277661420E+02  0.51100000000E-03 0. -1.
        -11    1    3    3    0    0 -0.97097015416E+00 -0.85245097999E+01 -0.47939581755E+01  0.98281272692E+01  0.51100000000E-03 0.  1.
        -12    1    3    3    0    0 -0.34505443724E+02  0.11672321065E+02  0.20710292679E+02  0.41902087639E+02  0.00000000000E+00 0.  1.
</event>
<event>
 7    1  0.2879200E-015  0.9000775E+02  0.7816164E-02  0.1186339E+00
        -11   -1    0    0    0    0  0.00000000000E+00  0.00000000000E+00  0.45593999997E+02  0.45594000000E+02  0.51100000000E-03 0. -1.
         11   -1    0    0    0    0 -0.00000000000E+00 -0.00000000000E+00 -0.45593999997E+02  0.45594000000E+02  0.51100000000E-03 0.  1.
    9900012    2    1    2    0    0  0.23953358982E-02  0.10717057080E+01  0.49440286237E+00  0.90007748733E+02  0.90000010217E+02 0.  0.
        -12    1    1    2    0    0 -0.23953358982E-02 -0.10717057080E+01 -0.49440286237E+00  0.11802512667E+01  0.00000000000E+00 0.  1.
         11    1    3    3    0    0 -0.24816486256E+02 -0.14650432457E+02  0.23184001787E+02  0.36986363709E+02  0.51100000000E-03 0. -1.
        -11    1    3    3    0    0 -0.59673589043E+01 -0.10347636429E+01  0.53917536262E+01  0.81087061555E+01  0.51100000000E-03 0.  1.
        -12    1    3    3    0    0  0.30786240496E+02  0.16756901808E+02 -0.28081352551E+02  0.44912678869E+02  0.00000000000E+00 0.  1.
</event>
<event>
 7    1  0.2879200E-015  0.9000781E+02  0.7816164E-02  0.1186339E+00
        -11   -1    0    0    0    0  0.00000000000E+00  0.00000000000E+00  0.45593999997E+02  0.45594000000E+02  0.51100000000E-03 0. -1.
         11   -1    0    0    0    0 -0.00000000000E+00 -0.00000000000E+00 -0.45593999997E+02  0.45594000000E+02  0.51100000000E-03 0.  1.
    9900012    2    1    2    0    0 -0.74143391115E+00 -0.79126380782E+00 -0.46584807331E+00  0.90007814809E+02  0.90000077164E+02 0.  0.
        -12    1    1    2    0    0  0.74143391115E+00  0.79126380782E+00  0.46584807331E+00  0.11801851912E+01  0.00000000000E+00 0.  1.
         11    1    3    3    0    0  0.25725263922E+01  0.38080187198E+02  0.25688699584E+01  0.38253335047E+02  0.51100000000E-03 0. -1.
        -11    1    3    3    0    0  0.10354373527E+01  0.18811587906E+01 -0.99605287978E+01  0.10189358326E+02  0.51100000000E-03 0.  1.
        -12    1    3    3    0    0 -0.43493976560E+01 -0.40752609797E+02  0.69258107662E+01  0.41565121436E+02  0.00000000000E+00 0.  1.
</event>
<event>
 7    1  0.2879200E-015  0.9000776E+02  0.7816164E-02  0.1186339E+00
        -11   -1    0    0    0    0  0.00000000000E+00  0.00000000000E+00  0.45593999997E+02  0.45594000000E+02  0.51100000000E-03 0.  1.
         11   -1    0    0    0    0 -0.00000000000E+00 -0.00000000000E+00 -0.45593999997E+02  0.45594000000E+02  0.51100000000E-03 0. -1.
    9900012    2    1    2    0    0 -0.62534256853E+00  0.69010792186E+00  0.72502730115E+00  0.90007759830E+02  0.90000021460E+02 0.  0.
        -12    1    1    2    0    0  0.62534256853E+00 -0.69010792186E+00 -0.72502730115E+00  0.11802401701E+01  0.00000000000E+00 0.  1.
         11    1    3    3    0    0 -0.16092899805E+02 -0.10079409232E+02 -0.33976687870E+02  0.38922888298E+02  0.51100000000E-03 0. -1.
        -11    1    3    3    0    0 -0.38553509321E+01  0.80733069563E+01 -0.23150493431E+01  0.92412915625E+01  0.51100000000E-03 0.  1.
        -12    1    3    3    0    0  0.19322908169E+02  0.26962101976E+01  0.37016764514E+02  0.41843579969E+02  0.00000000000E+00 0.  1.
</event>
<event>
 7    1  0.2879200E-015  0.9000777E+02  0.7816164E-02  0.1186339E+00
        -11   -1    0    0    0    0  0.00000000000E+00  0.00000000000E+00  0.45593999997E+02  0.45594000000E+02  0.51100000000E-03 0.  1.
         11   -1    0    0    0    0 -0.00000000000E+00 -0.00000000000E+00 -0.45593999997E+02  0.45594000000E+02  0.51100000000E-03 0. -1.
    9900012    2    1    2    0    0  0.44978669070E+00 -0.68804191115E+00 -0.84689145289E+00  0.90007773381E+02  0.90000035190E+02 0.  0.
        -12    1    1    2    0    0 -0.44978669070E+00  0.68804191115E+00  0.84689145289E+00  0.11802266188E+01  0.00000000000E+00 0.  1.
         11    1    3    3    0    0  0.26505729175E+02 -0.23496060728E+02 -0.20156149264E+02  0.40754004738E+02  0.51100000000E-03 0. -1.
        -11    1    3    3    0    0  0.58283387722E+01  0.15189033843E+01  0.64289336841E+01  0.88095283023E+01  0.51100000000E-03 0.  1.
        -12    1    3    3    0    0 -0.31884281256E+02  0.21289115432E+02  0.12880324127E+02  0.40444240341E+02  0.00000000000E+00 0.  1.
</event>
<event>
 7    1  0.2879200E-015  0.9000764E+02  0.7816164E-02  0.1186339E+00
        -11   -1    0    0    0    0  0.00000000000E+00  0.00000000000E+00  0.45593999997E+02  0.45594000000E+02  0.51100000000E-03 0. -1.
         11   -1    0    0    0    0 -0.00000000000E+00 -0.00000000000E+00 -0.45593999997E+02  0.45594000000E+02  0.51100000000E-03 0.  1.
    9900012    2    1    2    0    0  0.10450563472E+01 -0.30308654193E+00 -0.45743113618E+00  0.90007640959E+02  0.89999901020E+02 0.  0.
        -12    1    1    2    0    0 -0.10450563472E+01  0.30308654193E+00  0.45743113618E+00  0.11803590407E+01  0.00000000000E+00 0.  1.
         11    1    3    3    0    0 -0.25049094652E+01 -0.69393212558E+01  0.11627554700E+02  0.13770576585E+02  0.51100000000E-03 0. -1.
        -11    1    3    3    0    0 -0.16701435423E+02  0.23573920796E+01  0.27100554440E+02  0.31920765872E+02  0.51100000000E-03 0.  1.
         12    1    3    3    0    0  0.20251401235E+02  0.42788426342E+01 -0.39185540276E+02  0.44316298503E+02  0.00000000000E+00 0. -1.
</event>
<event>
 7    1  0.2879200E-015  0.9000774E+02  0.7816164E-02  0.1186339E+00
        -11   -1    0    0    0    0  0.00000000000E+00  0.00000000000E+00  0.45593999997E+02  0.45594000000E+02  0.51100000000E-03 0.  1.
         11   -1    0    0    0    0 -0.00000000000E+00 -0.00000000000E+00 -0.45593999997E+02  0.45594000000E+02  0.51100000000E-03 0. -1.
    9900012    2    1    2    0    0 -0.23892102954E-01 -0.70233465074E+00 -0.94824287175E+00  0.90007741834E+02  0.90000003226E+02 0.  0.
        -12    1    1    2    0    0  0.23892102954E-01  0.70233465074E+00  0.94824287175E+00  0.11802581658E+01  0.00000000000E+00 0.  1.
         11    1    3    3    0    0 -0.42325371877E+01  0.57310637695E+01  0.43842996192E+01  0.83654973784E+01  0.51100000000E-03 0. -1.
        -11    1    3    3    0    0 -0.79592536038E-02 -0.10575732628E+02  0.37213744812E+02  0.38687323339E+02  0.51100000000E-03 0.  1.
         12    1    3    3    0    0  0.42166043383E+01  0.41423342079E+01 -0.42546287303E+02  0.42954921116E+02  0.00000000000E+00 0. -1.
</event>
<event>
 7    1  0.2879200E-015  0.9000778E+02  0.7816164E-02  0.1186339E+00
        -11   -1    0    0    0    0  0.00000000000E+00  0.00000000000E+00  0.45593999997E+02  0.45594000000E+02  0.51100000000E-03 0.  1.
         11   -1    0    0    0    0 -0.00000000000E+00 -0.00000000000E+00 -0.45593999997E+02  0.45594000000E+02  0.51100000000E-03 0. -1.
    9900012    2    1    2    0    0 -0.38637319293E+00  0.10317681008E+01 -0.42318841880E+00  0.90007780488E+02  0.90000042391E+02 0.  0.
        -12    1    1    2    0    0  0.38637319293E+00 -0.10317681008E+01  0.42318841880E+00  0.11802195117E+01  0.00000000000E+00 0.  1.
         11    1    3    3    0    0  0.30093734614E+02  0.10119018060E+02  0.43859184232E+01  0.32050954279E+02  0.51100000000E-03 0. -1.
        -11    1    3    3    0    0 -0.10715471105E+02  0.14637019983E+02  0.12993865090E+02  0.22313767167E+02  0.51100000000E-03 0.  1.
         12    1    3    3    0    0 -0.19764636702E+02 -0.23724269942E+02 -0.17802971932E+02  0.35643059042E+02  0.00000000000E+00 0. -1.
</event>
<event>
 7    1  0.2879200E-015  0.9000774E+02  0.7816164E-02  0.1186339E+00
        -11   -1    0    0    0    0  0.00000000000E+00  0.00000000000E+00  0.45593999997E+02  0.45594000000E+02  0.51100000000E-03 0.  1.
         11   -1    0    0    0    0 -0.00000000000E+00 -0.00000000000E+00 -0.45593999997E+02  0.45594000000E+02  0.51100000000E-03 0. -1.
    9900012    2    1    2    0    0 -0.30186322385E-01  0.80425300169E-02 -0.11798447869E+01  0.90007741716E+02  0.90000003106E+02 0.  0.
        -12    1    1    2    0    0  0.30186322385E-01 -0.80425300169E-02  0.11798447869E+01  0.11802582842E+01  0.00000000000E+00 0.  1.
         11    1    3    3    0    0 -0.25958497550E+02 -0.20375756141E+02 -0.15821756248E+02  0.36597035459E+02  0.51100000000E-03 0. -1.
        -11    1    3    3    0    0 -0.81353015695E+01 -0.43069428451E+01  0.14398407888E+01  0.93169753706E+01  0.51100000000E-03 0.  1.
        -12    1    3    3    0    0  0.34063612797E+02  0.24690741516E+02  0.13202070672E+02  0.44093730886E+02  0.00000000000E+00 0.  1.
</event>
<event>
 7    1  0.2879200E-015  0.9000771E+02  0.7816164E-02  0.1186339E+00
        -11   -1    0    0    0    0  0.00000000000E+00  0.00000000000E+00  0.45593999997E+02  0.45594000000E+02  0.51100000000E-03 0.  1.
         11   -1    0    0    0    0 -0.00000000000E+00 -0.00000000000E+00 -0.45593999997E+02  0.45594000000E+02  0.51100000000E-03 0. -1.
    9900012    2    1    2    0    0  0.93808428600E+00  0.54533214306E+00 -0.46442544972E+00  0.90007711784E+02  0.89999972780E+02 0.  0.
        -12    1    1    2    0    0 -0.93808428600E+00 -0.54533214306E+00  0.46442544972E+00  0.11802882158E+01  0.00000000000E+00 0.  1.
         11    1    3    3    0    0 -0.50802680134E+01 -0.85363000439E+01  0.26118306345E+01  0.10271280400E+02  0.51100000000E-03 0. -1.
        -11    1    3    3    0    0  0.23225840158E+02  0.10691091423E+02  0.31805219975E+02  0.40808223495E+02  0.51100000000E-03 0.  1.
         12    1    3    3    0    0 -0.17207487858E+02 -0.16094592359E+01 -0.34881476059E+02  0.38928207890E+02  0.00000000000E+00 0. -1.
</event>
<event>
 7    1  0.2879200E-015  0.9000773E+02  0.7816164E-02  0.1186339E+00
        -11   -1    0    0    0    0  0.00000000000E+00  0.00000000000E+00  0.45593999997E+02  0.45594000000E+02  0.51100000000E-03 0. -1.
         11   -1    0    0    0    0 -0.00000000000E+00 -0.00000000000E+00 -0.45593999997E+02  0.45594000000E+02  0.51100000000E-03 0.  1.
    9900012    2    1    2    0    0 -0.36573640103E+00  0.16833724935E+00  0.11094793320E+01  0.90007726755E+02  0.89999987948E+02 0.  0.
        -12    1    1    2    0    0  0.36573640103E+00 -0.16833724935E+00 -0.11094793320E+01  0.11802732450E+01  0.00000000000E+00 0.  1.
         11    1    3    3    0    0  0.15593380014E+02  0.26442745348E+02  0.10042313862E+02  0.32298921805E+02  0.51100000000E-03 0. -1.
        -11    1    3    3    0    0  0.75084913174E+01  0.51618072751E+01  0.10523008038E+02  0.13919604687E+02  0.51100000000E-03 0.  1.
        -12    1    3    3    0    0 -0.23467607733E+02 -0.31436215374E+02 -0.19455842567E+02  0.43789200263E+02  0.00000000000E+00 0.  1.
</event>
<event>
 7    1  0.2879200E-015  0.9000761E+02  0.7816164E-02  0.1186339E+00
        -11   -1    0    0    0    0  0.00000000000E+00  0.00000000000E+00  0.45593999997E+02  0.45594000000E+02  0.51100000000E-03 0.  1.
         11   -1    0    0    0    0 -0.00000000000E+00 -0.00000000000E+00 -0.45593999997E+02  0.45594000000E+02  0.51100000000E-03 0. -1.
    9900012    2    1    2    0    0 -0.10382855521E+01 -0.51777083637E+00 -0.21725579120E+00  0.90007608707E+02  0.89999868341E+02 0.  0.
        -12    1    1    2    0    0  0.10382855521E+01  0.51777083637E+00  0.21725579120E+00  0.11803912934E+01  0.00000000000E+00 0.  1.
         11    1    3    3    0    0  0.97490738848E+00 -0.66871504322E+01  0.61022468390E+01  0.91052645247E+01  0.51100000000E-03 0. -1.
        -11    1    3    3    0    0  0.90560122157E+01  0.29039910658E+02  0.25842715729E+02  0.39914580354E+02  0.51100000000E-03 0.  1.
         12    1    3    3    0    0 -0.11069205156E+02 -0.22870531062E+02 -0.32162218359E+02  0.40987763828E+02  0.00000000000E+00 0. -1.
</event>
<event>
 7    1  0.2879200E-015  0.9000781E+02  0.7816164E-02  0.1186339E+00
        -11   -1    0    0    0    0  0.00000000000E+00  0.00000000000E+00  0.45593999997E+02  0.45594000000E+02  0.51100000000E-03 0.  1.
         11   -1    0    0    0    0 -0.00000000000E+00 -0.00000000000E+00 -0.45593999997E+02  0.45594000000E+02  0.51100000000E-03 0. -1.
    9900012    2    1    2    0    0  0.11594072058E+01  0.16901850901E+00  0.14163046389E+00  0.90007808696E+02  0.90000070971E+02 0.  0.
        -12    1    1    2    0    0 -0.11594072058E+01 -0.16901850901E+00 -0.14163046389E+00  0.11801913038E+01  0.00000000000E+00 0.  1.
         11    1    3    3    0    0 -0.15781811596E+02 -0.19554149489E+02 -0.25233098490E+02  0.35610947743E+02  0.51100000000E-03 0. -1.
        -11    1    3    3    0    0  0.37498275386E+01 -0.12562306917E+02  0.51851234125E+01  0.14098165367E+02  0.51100000000E-03 0.  1.
        -12    1    3    3    0    0  0.13191391263E+02  0.32285474916E+02  0.20189605541E+02  0.40298695586E+02  0.00000000000E+00 0.  1.
</event>
<event>
 7    1  0.2879200E-015  0.9000788E+02  0.7816164E-02  0.1186339E+00
        -11   -1    0    0    0    0  0.00000000000E+00  0.00000000000E+00  0.45593999997E+02  0.45594000000E+02  0.51100000000E-03 0.  1.
         11   -1    0    0    0    0 -0.00000000000E+00 -0.00000000000E+00 -0.45593999997E+02  0.45594000000E+02  0.51100000000E-03 0. -1.
    9900012    2    1    2    0    0  0.30151839671E-01 -0.98742941839E+00 -0.64556608144E+00  0.90007880703E+02  0.90000143928E+02 0.  0.
        -12    1    1    2    0    0 -0.30151839671E-01  0.98742941839E+00  0.64556608144E+00  0.11801192970E+01  0.00000000000E+00 0.  1.
         11    1    3    3    0    0 -0.59539656853E+01  0.32139620861E+02 -0.19037152591E+02  0.37826156500E+02  0.51100000000E-03 0. -1.
        -11    1    3    3    0    0 -0.51829118539E+01  0.60147108802E+01  0.47546128228E+01  0.92544943467E+01  0.51100000000E-03 0.  1.
        -12    1    3    3    0    0  0.11167029379E+02 -0.39141761160E+02  0.13636973687E+02  0.42927229857E+02  0.00000000000E+00 0.  1.
</event>
<event>
 7    1  0.2879200E-015  0.9000776E+02  0.7816164E-02  0.1186339E+00
        -11   -1    0    0    0    0  0.00000000000E+00  0.00000000000E+00  0.45593999997E+02  0.45594000000E+02  0.51100000000E-03 0.  1.
         11   -1    0    0    0    0 -0.00000000000E+00 -0.00000000000E+00 -0.45593999997E+02  0.45594000000E+02  0.51100000000E-03 0. -1.
    9900012    2    1    2    0    0 -0.97712746534E+00  0.58743389836E+00  0.30515241363E+00  0.90007756523E+02  0.90000018110E+02 0.  0.
        -12    1    1    2    0    0  0.97712746534E+00 -0.58743389836E+00 -0.30515241363E+00  0.11802434766E+01  0.00000000000E+00 0.  1.
         11    1    3    3    0    0  0.84323752903E+01 -0.30265922180E+02 -0.23253861669E+02  0.39088017105E+02  0.51100000000E-03 0. -1.
        -11    1    3    3    0    0  0.52826460776E+01 -0.44431235506E+01  0.39281391805E+01  0.79421643240E+01  0.51100000000E-03 0.  1.
        -12    1    3    3    0    0 -0.14692148833E+02  0.35296479629E+02  0.19630874903E+02  0.42977575094E+02  0.00000000000E+00 0.  1.
</event>
<event>
 7    1  0.2879200E-015  0.9000770E+02  0.7816164E-02  0.1186339E+00
        -11   -1    0    0    0    0  0.00000000000E+00  0.00000000000E+00  0.45593999997E+02  0.45594000000E+02  0.51100000000E-03 0. -1.
         11   -1    0    0    0    0 -0.00000000000E+00 -0.00000000000E+00 -0.45593999997E+02  0.45594000000E+02  0.51100000000E-03 0.  1.
    9900012    2    1    2    0    0 -0.62453510887E+00 -0.94777158650E+00  0.32372528164E+00  0.90007697861E+02  0.89999958672E+02 0.  0.
        -12    1    1    2    0    0  0.62453510887E+00  0.94777158650E+00 -0.32372528164E+00  0.11803021394E+01  0.00000000000E+00 0.  1.
         11    1    3    3    0    0  0.36081413798E+02  0.11232372008E+02  0.12298902042E+01  0.37809353774E+02  0.51100000000E-03 0. -1.
        -11    1    3    3    0    0  0.12309187137E+01  0.78841819112E+01  0.41347506327E+01  0.89873048432E+01  0.51100000000E-03 0.  1.
        -12    1    3    3    0    0 -0.37936867621E+02 -0.20064325506E+02 -0.50409155553E+01  0.43211039244E+02  0.00000000000E+00 0.  1.
</event>
<event>
 7    1  0.2879200E-015  0.9000768E+02  0.7816164E-02  0.1186339E+00
        -11   -1    0    0    0    0  0.00000000000E+00  0.00000000000E+00  0.45593999997E+02  0.45594000000E+02  0.51100000000E-03 0.  1.
         11   -1    0    0    0    0 -0.00000000000E+00 -0.00000000000E+00 -0.45593999997E+02  0.45594000000E+02  0.51100000000E-03 0. -1.
    9900012    2    1    2    0    0 -0.23175995627E+00  0.27122273799E+00 -0.11251182694E+01  0.90007675650E+02  0.89999936169E+02 0.  0.
        -12    1    1    2    0    0  0.23175995627E+00 -0.27122273799E+00  0.11251182694E+01  0.11803243499E+01  0.00000000000E+00 0.  1.
         11    1    3    3    0    0 -0.79827886911E+01 -0.36467168510E+02 -0.10158048739E+01  0.37344492957E+02  0.51100000000E-03 0. -1.
        -11    1    3    3    0    0 -0.13129103307E+02  0.61000893216E+01  0.48241459261E+01  0.15259647033E+02  0.51100000000E-03 0.  1.
        -12    1    3    3    0    0  0.20880132042E+02  0.30638301926E+02 -0.49334593216E+01  0.37403535660E+02  0.00000000000E+00 0.  1.
</event>
<event>
 7    1  0.2879200E-015  0.9000764E+02  0.7816164E-02  0.1186339E+00
        -11   -1    0    0    0    0  0.00000000000E+00  0.00000000000E+00  0.45593999997E+02  0.45594000000E+02  0.51100000000E-03 0.  1.
         11   -1    0    0    0    0 -0.00000000000E+00 -0.00000000000E+00 -0.45593999997E+02  0.45594000000E+02  0.51100000000E-03 0. -1.
    9900012    2    1    2    0    0  0.60003825944E+00  0.67152492041E+00 -0.76306361167E+00  0.90007636621E+02  0.89999896624E+02 0.  0.
        -12    1    1    2    0    0 -0.60003825944E+00 -0.67152492041E+00  0.76306361167E+00  0.11803633792E+01  0.00000000000E+00 0.  1.
         11    1    3    3    0    0 -0.11494735436E+02 -0.42052382276E+01  0.14737052815E+01  0.12328210689E+02  0.51100000000E-03 0. -1.
        -11    1    3    3    0    0  0.18367614268E+02  0.13291962868E+02  0.33489962903E+02  0.40442838010E+02  0.51100000000E-03 0.  1.
         12    1    3    3    0    0 -0.62728405730E+01 -0.84151997203E+01 -0.35726731796E+02  0.37236587921E+02  0.00000000000E+00 0. -1.
</event>
<event>
 7    1  0.2879200E-015  0.9000789E+02  0.7816164E-02  0.1186339E+00
        -11   -1    0    0    0    0  0.00000000000E+00  0.00000000000E+00  0.45593999997E+02  0.45594000000E+02  0.51100000000E-03 0.  1.
         11   -1    0    0    0    0 -0.00000000000E+00 -0.00000000000E+00 -0.45593999997E+02  0.45594000000E+02  0.51100000000E-03 0. -1.
    9900012    2    1    2    0    0 -0.11680165283E+00  0.10444465773E-01 -0.11742691590E+01  0.90007889933E+02  0.90000153280E+02 0.  0.
        -12    1    1    2    0    0  0.11680165283E+00 -0.10444465773E-01  0.11742691590E+01  0.11801100672E+01  0.00000000000E+00 0.  1.
         11    1    3    3    0    0 -0.84173715838E+01  0.55300804756E+01  0.53726732773E-01  0.10071584844E+02  0.51100000000E-03 0. -1.
        -11    1    3    3    0    0 -0.11601203363E+02 -0.10304996729E+02  0.35022474828E+02  0.38306065060E+02  0.51100000000E-03 0.  1.
         12    1    3    3    0    0  0.19901773294E+02  0.47853607192E+01 -0.36250470719E+02  0.41630240029E+02  0.00000000000E+00 0. -1.
</event>
<event>
 7    1  0.2879200E-015  0.9000774E+02  0.7816164E-02  0.1186339E+00
        -11   -1    0    0    0    0  0.00000000000E+00  0.00000000000E+00  0.45593999997E+02  0.45594000000E+02  0.51100000000E-03 0.  1.
         11   -1    0    0    0    0 -0.00000000000E+00 -0.00000000000E+00 -0.45593999997E+02  0.45594000000E+02  0.51100000000E-03 0. -1.
    9900012    2    1    2    0    0  0.79761814955E+00  0.78524217940E+00 -0.37445552869E+00  0.90007738615E+02  0.89999999965E+02 0.  0.
        -12    1    1    2    0    0 -0.79761814955E+00 -0.78524217940E+00  0.37445552869E+00  0.11802613845E+01  0.00000000000E+00 0.  1.
         11    1    3    3    0    0  0.12185203196E+01  0.17829701375E+02 -0.34874873583E+02  0.39187240916E+02  0.51100000000E-03 0. -1.
        -11    1    3    3    0    0  0.96717067095E+01 -0.33716984965E+01 -0.21103568424E+01  0.10457718092E+02  0.51100000000E-03 0.  1.
        -12    1    3    3    0    0 -0.10092608880E+02 -0.13672760699E+02  0.36610774897E+02  0.40362779608E+02  0.00000000000E+00 0.  1.
</event>
<event>
 7    1  0.2879200E-015  0.9000769E+02  0.7816164E-02  0.1186339E+00
        -11   -1    0    0    0    0  0.00000000000E+00  0.00000000000E+00  0.45593999997E+02  0.45594000000E+02  0.51100000000E-03 0. -1.
         11   -1    0    0    0    0 -0.00000000000E+00 -0.00000000000E+00 -0.45593999997E+02  0.45594000000E+02  0.51100000000E-03 0.  1.
    9900012    2    1    2    0    0  0.28144779455E+00  0.45808794677E+00  0.10507502315E+01  0.90007689246E+02  0.89999949944E+02 0.  0.
        -12    1    1    2    0    0 -0.28144779455E+00 -0.45808794677E+00 -0.10507502315E+01  0.11803107544E+01  0.00000000000E+00 0.  1.
         11    1    3    3    0    0  0.73181844301E+01  0.57827127118E+01  0.47780855861E+00  0.93393731556E+01  0.51100000000E-03 0. -1.
        -11    1    3    3    0    0  0.15539016492E+02  0.28548199859E+02 -0.16588924375E+02  0.36491823206E+02  0.51100000000E-03 0.  1.
         12    1    3    3    0    0 -0.22575753128E+02 -0.33872824624E+02  0.17161866048E+02  0.44176492884E+02  0.00000000000E+00 0. -1.
</event>
<event>
 7    1  0.2879200E-015  0.9000778E+02  0.7816164E-02  0.1186339E+00
        -11   -1    0    0    0    0  0.00000000000E+00  0.00000000000E+00  0.45593999997E+02  0.45594000000E+02  0.51100000000E-03 0. -1.
         11   -1    0    0    0    0 -0.00000000000E+00 -0.00000000000E+00 -0.45593999997E+02  0.45594000000E+02  0.51100000000E-03 0.  1.
    9900012    2    1    2    0    0 -0.55267138208E+00  0.81940234432E+00  0.64501616839E+00  0.90007783191E+02  0.90000045129E+02 0.  0.
        -12    1    1    2    0    0  0.55267138208E+00 -0.81940234432E+00 -0.64501616839E+00  0.11802168089E+01  0.00000000000E+00 0.  1.
         11    1    3    3    0    0 -0.74694301342E+01 -0.97885738341E+01 -0.94307202614E+01  0.15509579270E+02  0.51100000000E-03 0. -1.
        -11    1    3    3    0    0  0.43581942880E+01 -0.89447011479E+01 -0.29037681374E+02  0.30695088791E+02  0.51100000000E-03 0.  1.
         12    1    3    3    0    0  0.25585644642E+01  0.19552677326E+02  0.39113417804E+02  0.43803115129E+02  0.00000000000E+00 0. -1.
</event>
<event>
 7    1  0.2879200E-015  0.9000775E+02  0.7816164E-02  0.1186339E+00
        -11   -1    0    0    0    0  0.00000000000E+00  0.00000000000E+00  0.45593999997E+02  0.45594000000E+02  0.51100000000E-03 0.  1.
         11   -1    0    0    0    0 -0.00000000000E+00 -0.00000000000E+00 -0.45593999997E+02  0.45594000000E+02  0.51100000000E-03 0. -1.
    9900012    2    1    2    0    0  0.24133223003E+00  0.49919415428E+00 -0.10419020193E+01  0.90007747541E+02  0.90000009009E+02 0.  0.
        -12    1    1    2    0    0 -0.24133223003E+00 -0.49919415428E+00  0.10419020193E+01  0.11802524589E+01  0.00000000000E+00 0.  1.
         11    1    3    3    0    0 -0.25292415778E+01  0.30779186932E+02  0.19026955785E+02  0.36273688231E+02  0.51100000000E-03 0. -1.
        -11    1    3    3    0    0  0.32476573661E+01 -0.37990870847E+01  0.11492513063E+02  0.12532286216E+02  0.51100000000E-03 0.  1.
        -12    1    3    3    0    0 -0.47708355827E+00 -0.26480905693E+02 -0.31561370867E+02  0.41201773094E+02  0.00000000000E+00 0.  1.
</event>
<event>
 7    1  0.2879200E-015  0.9000774E+02  0.7816164E-02  0.1186339E+00
        -11   -1    0    0    0    0  0.00000000000E+00  0.00000000000E+00  0.45593999997E+02  0.45594000000E+02  0.51100000000E-03 0. -1.
         11   -1    0    0    0    0 -0.00000000000E+00 -0.00000000000E+00 -0.45593999997E+02  0.45594000000E+02  0.51100000000E-03 0.  1.
    9900012    2    1    2    0    0 -0.14777764973E+00 -0.71422911076E+00  0.92792594376E+00  0.90007742395E+02  0.90000003795E+02 0.  0.
        -12    1    1    2    0    0  0.14777764973E+00  0.71422911076E+00 -0.92792594376E+00  0.11802576047E+01  0.00000000000E+00 0.  1.
         11    1    3    3    0    0 -0.43701418468E+01 -0.53470453984E+01 -0.63757003202E+01  0.93988610527E+01  0.51100000000E-03 0. -1.
        -11    1    3    3    0    0  0.11392838557E+02  0.14033748684E+02 -0.33533215208E+02  0.38094873605E+02  0.51100000000E-03 0.  1.
         12    1    3    3    0    0 -0.71704743600E+01 -0.94009323967E+01  0.40836841472E+02  0.42514007738E+02  0.00000000000E+00 0. -1.
</event>
<event>
 7    1  0.2879200E-015  0.9000775E+02  0.7816164E-02  0.1186339E+00
        -11   -1    0    0    0    0  0.00000000000E+00  0.00000000000E+00  0.45593999997E+02  0.45594000000E+02  0.51100000000E-03 0. -1.
         11   -1    0    0    0    0 -0.00000000000E+00 -0.00000000000E+00 -0.45593999997E+02  0.45594000000E+02  0.51100000000E-03 0.  1.
    9900012    2    1    2    0    0 -0.32193582238E+00  0.11189916331E+01  0.19286368870E+00  0.90007753690E+02  0.90000015239E+02 0.  0.
        -12    1    1    2    0    0  0.32193582238E+00 -0.11189916331E+01 -0.19286368870E+00  0.11802463095E+01  0.00000000000E+00 0.  1.
         11    1    3    3    0    0  0.86641599859E+01 -0.11477777766E+02 -0.12922469381E+00  0.14381368154E+02  0.51100000000E-03 0. -1.
        -11    1    3    3    0    0  0.65546651891E+01 -0.20268030201E+02  0.24117039579E+02  0.32177449904E+02  0.51100000000E-03 0.  1.
         12    1    3    3    0    0 -0.15540760997E+02  0.32864799600E+02 -0.23794951197E+02  0.43448935633E+02  0.00000000000E+00 0. -1.
</event>
<event>
 7    1  0.2879200E-015  0.9000765E+02  0.7816164E-02  0.1186339E+00
        -11   -1    0    0    0    0  0.00000000000E+00  0.00000000000E+00  0.45593999997E+02  0.45594000000E+02  0.51100000000E-03 0. -1.
         11   -1    0    0    0    0 -0.00000000000E+00 -0.00000000000E+00 -0.45593999997E+02  0.45594000000E+02  0.51100000000E-03 0.  1.
    9900012    2    1    2    0    0  0.50939604894E+00 -0.97152293323E+00  0.43574638899E+00  0.90007654263E+02  0.89999914499E+02 0.  0.
        -12    1    1    2    0    0 -0.50939604894E+00  0.97152293323E+00 -0.43574638899E+00  0.11803457375E+01  0.00000000000E+00 0.  1.
         11    1    3    3    0    0 -0.74072299214E+01 -0.69413880021E+01 -0.24845231859E+01  0.10450970205E+02  0.51100000000E-03 0. -1.
        -11    1    3    3    0    0 -0.30385965834E+02  0.19791576605E+02  0.11300684379E+02  0.37983139573E+02  0.51100000000E-03 0.  1.
         12    1    3    3    0    0  0.38302591804E+02 -0.13821711536E+02 -0.83804148039E+01  0.41573544484E+02  0.00000000000E+00 0. -1.
</event>
<event>
 7    1  0.2879200E-015  0.9000770E+02  0.7816164E-02  0.1186339E+00
        -11   -1    0    0    0    0  0.00000000000E+00  0.00000000000E+00  0.45593999997E+02  0.45594000000E+02  0.51100000000E-03 0.  1.
         11   -1    0    0    0    0 -0.00000000000E+00 -0.00000000000E+00 -0.45593999997E+02  0.45594000000E+02  0.51100000000E-03 0. -1.
    9900012    2    1    2    0    0  0.11755621885E+01  0.14635468873E-02 -0.10563693843E+00  0.90007700138E+02  0.89999960980E+02 0.  0.
        -12    1    1    2    0    0 -0.11755621885E+01 -0.14635468873E-02  0.10563693843E+00  0.11802998618E+01  0.00000000000E+00 0.  1.
         11    1    3    3    0    0 -0.25056625809E+02  0.20382511016E+02  0.17333373890E+01  0.32346339994E+02  0.51100000000E-03 0. -1.
        -11    1    3    3    0    0 -0.25105875987E+01  0.25322808429E+01  0.16289959814E+02  0.16675679517E+02  0.51100000000E-03 0.  1.
        -12    1    3    3    0    0  0.28742775597E+02 -0.22913328312E+02 -0.18128934142E+02  0.40985680627E+02  0.00000000000E+00 0.  1.
</event>
<event>
 7    1  0.2879200E-015  0.9000771E+02  0.7816164E-02  0.1186339E+00
        -11   -1    0    0    0    0  0.00000000000E+00  0.00000000000E+00  0.45593999997E+02  0.45594000000E+02  0.51100000000E-03 0. -1.
         11   -1    0    0    0    0 -0.00000000000E+00 -0.00000000000E+00 -0.45593999997E+02  0.45594000000E+02  0.51100000000E-03 0.  1.
    9900012    2    1    2    0    0 -0.64673932512E+00  0.96613175519E+00  0.20346989323E+00  0.90007710917E+02  0.89999971901E+02 0.  0.
        -12    1    1    2    0    0  0.64673932512E+00 -0.96613175519E+00 -0.20346989323E+00  0.11802890834E+01  0.00000000000E+00 0.  1.
         11    1    3    3    0    0 -0.12633113787E+02 -0.39839109811E+02  0.22150442444E+01  0.41852797467E+02  0.51100000000E-03 0. -1.
        -11    1    3    3    0    0 -0.58828150832E+01  0.81207846956E+01 -0.41290427973E+01  0.10844521753E+02  0.51100000000E-03 0.  1.
        -12    1    3    3    0    0  0.17869189545E+02  0.32684456871E+02  0.21174684461E+01  0.37310391697E+02  0.00000000000E+00 0.  1.
</event>
<event>
 7    1  0.2879200E-015  0.9000771E+02  0.7816164E-02  0.1186339E+00
        -11   -1    0    0    0    0  0.00000000000E+00  0.00000000000E+00  0.45593999997E+02  0.45594000000E+02  0.51100000000E-03 0.  1.
         11   -1    0    0    0    0 -0.00000000000E+00 -0.00000000000E+00 -0.45593999997E+02  0.45594000000E+02  0.51100000000E-03 0. -1.
    9900012    2    1    2    0    0 -0.56947344524E+00 -0.82448385649E+00  0.62371052561E+00  0.90007708318E+02  0.89999969268E+02 0.  0.
        -12    1    1    2    0    0  0.56947344524E+00  0.82448385649E+00 -0.62371052561E+00  0.11802916818E+01  0.00000000000E+00 0.  1.
         11    1    3    3    0    0  0.11652624830E+00 -0.39116572630E+02 -0.17464469186E+02  0.42838388356E+02  0.51100000000E-03 0. -1.
        -11    1    3    3    0    0 -0.64620817656E+01  0.49947695681E+01 -0.12042108646E+01  0.82556857893E+01  0.51100000000E-03 0.  1.
        -12    1    3    3    0    0  0.57760820720E+01  0.33297319206E+02  0.19292390576E+02  0.38913634173E+02  0.00000000000E+00 0.  1.
</event>
<event>
 7    1  0.2879200E-015  0.9000781E+02  0.7816164E-02  0.1186339E+00
        -11   -1    0    0    0    0  0.00000000000E+00  0.00000000000E+00  0.45593999997E+02  0.45594000000E+02  0.51100000000E-03 0.  1.
         11   -1    0    0    0    0 -0.00000000000E+00 -0.00000000000E+00 -0.45593999997E+02  0.45594000000E+02  0.51100000000E-03 0. -1.
    9900012    2    1    2    0    0  0.18834949489E+00 -0.10479617289E+01  0.50906785426E+00  0.90007809593E+02  0.90000071879E+02 0.  0.
        -12    1    1    2    0    0 -0.18834949489E+00  0.10479617289E+01 -0.50906785426E+00  0.11801904074E+01  0.00000000000E+00 0.  1.
         11    1    3    3    0    0 -0.19689464562E+02 -0.23568382189E+02 -0.21338259579E+02  0.37396055619E+02  0.51100000000E-03 0. -1.
        -11    1    3    3    0    0 -0.65539745564E+01 -0.59588993032E+01  0.57104197333E+01  0.10539068136E+02  0.51100000000E-03 0.  1.
        -12    1    3    3    0    0  0.26431788613E+02  0.28479319763E+02  0.16136907700E+02  0.42072685837E+02  0.00000000000E+00 0.  1.
</event>
<event>
 7    1  0.3276828E-015  0.9000765E+02  0.7816164E-02  0.1186339E+00
        -11   -1    0    0    0    0  0.00000000000E+00  0.00000000000E+00  0.45593999997E+02  0.45594000000E+02  0.51100000000E-03 0. -1.
         11   -1    0    0    0    0 -0.00000000000E+00 -0.00000000000E+00 -0.45593999997E+02  0.45594000000E+02  0.51100000000E-03 0.  1.
    9900012    2    1    2    0    0 -0.82722757637E+00  0.10736960522E+00  0.83509695079E+00  0.90007652334E+02  0.89999912545E+02 0.  0.
        -12    1    1    2    0    0  0.82722757637E+00 -0.10736960522E+00 -0.83509695079E+00  0.11803476659E+01  0.00000000000E+00 0.  1.
         11    1    3    3    0    0  0.17298776109E+02  0.26767080394E+02  0.22164713914E+02  0.38820082314E+02  0.51100000000E-03 0. -1.
        -11    1    3    3    0    0  0.90559917634E+01 -0.23916826271E+01 -0.89304137689E+00  0.94089667748E+01  0.51100000000E-03 0.  1.
        -12    1    3    3    0    0 -0.27181995449E+02 -0.24268028161E+02 -0.20436575586E+02  0.41778603246E+02  0.00000000000E+00 0.  1.
</event>
<event>
 7    1  0.2879200E-015  0.9000769E+02  0.7816164E-02  0.1186339E+00
        -11   -1    0    0    0    0  0.00000000000E+00  0.00000000000E+00  0.45593999997E+02  0.45594000000E+02  0.51100000000E-03 0.  1.
         11   -1    0    0    0    0 -0.00000000000E+00 -0.00000000000E+00 -0.45593999997E+02  0.45594000000E+02  0.51100000000E-03 0. -1.
    9900012    2    1    2    0    0 -0.47449147659E+00  0.77053511803E+00  0.75780824255E+00  0.90007686541E+02  0.89999947203E+02 0.  0.
        -12    1    1    2    0    0  0.47449147659E+00 -0.77053511803E+00 -0.75780824255E+00  0.11803134592E+01  0.00000000000E+00 0.  1.
         11    1    3    3    0    0 -0.39767848893E+01 -0.26020063333E+02  0.25751224948E+02  0.36823689393E+02  0.51100000000E-03 0. -1.
        -11    1    3    3    0    0 -0.67517566224E+01  0.38797036869E+01  0.83703149509E+01  0.11432431536E+02  0.51100000000E-03 0.  1.
        -12    1    3    3    0    0  0.10254050035E+02  0.22910894764E+02 -0.33363731657E+02  0.41751565612E+02  0.00000000000E+00 0.  1.
</event>
<event>
 7    1  0.2879200E-015  0.9000775E+02  0.7816164E-02  0.1186339E+00
        -11   -1    0    0    0    0  0.00000000000E+00  0.00000000000E+00  0.45593999997E+02  0.45594000000E+02  0.51100000000E-03 0.  1.
         11   -1    0    0    0    0 -0.00000000000E+00 -0.00000000000E+00 -0.45593999997E+02  0.45594000000E+02  0.51100000000E-03 0. -1.
    9900012    2    1    2    0    0  0.21944213353E+00  0.10779520108E+01 -0.42761747644E+00  0.90007749139E+02  0.90000010628E+02 0.  0.
        -12    1    1    2    0    0 -0.21944213353E+00 -0.10779520108E+01  0.42761747644E+00  0.11802508605E+01  0.00000000000E+00 0.  1.
         11    1    3    3    0    0  0.11246637995E+01  0.85240830766E+01  0.28109148740E+01  0.90457782224E+01  0.51100000000E-03 0. -1.
        -11    1    3    3    0    0  0.23323390771E+02 -0.22266842381E+02  0.25082610712E+02  0.40852541990E+02  0.51100000000E-03 0.  1.
         12    1    3    3    0    0 -0.24228612437E+02  0.14820711315E+02 -0.28321143063E+02  0.40109428927E+02  0.00000000000E+00 0. -1.
</event>
<event>
 7    1  0.2879200E-015  0.9000770E+02  0.7816164E-02  0.1186339E+00
        -11   -1    0    0    0    0  0.00000000000E+00  0.00000000000E+00  0.45593999997E+02  0.45594000000E+02  0.51100000000E-03 0.  1.
         11   -1    0    0    0    0 -0.00000000000E+00 -0.00000000000E+00 -0.45593999997E+02  0.45594000000E+02  0.51100000000E-03 0. -1.
    9900012    2    1    2    0    0  0.66895229188E+00  0.75488191400E+00 -0.61300306358E+00  0.90007696383E+02  0.89999957175E+02 0.  0.
        -12    1    1    2    0    0 -0.66895229188E+00 -0.75488191400E+00  0.61300306358E+00  0.11803036172E+01  0.00000000000E+00 0.  1.
         11    1    3    3    0    0 -0.32923656316E+01 -0.62094534443E+01  0.50869537187E+01  0.86760637346E+01  0.51100000000E-03 0. -1.
        -11    1    3    3    0    0 -0.26471543815E+02 -0.33188853559E+01  0.25243719445E+02  0.36728776234E+02  0.51100000000E-03 0.  1.
         12    1    3    3    0    0  0.30432861739E+02  0.10283220714E+02 -0.30943676227E+02  0.44602856414E+02  0.00000000000E+00 0. -1.
</event>
<event>
 7    1  0.3125020E-015  0.9000774E+02  0.7816164E-02  0.1186339E+00
        -11   -1    0    0    0    0  0.00000000000E+00  0.00000000000E+00  0.45593999997E+02  0.45594000000E+02  0.51100000000E-03 0.  1.
         11   -1    0    0    0    0 -0.00000000000E+00 -0.00000000000E+00 -0.45593999997E+02  0.45594000000E+02  0.51100000000E-03 0. -1.
    9900012    2    1    2    0    0 -0.11559743178E+01 -0.91030428334E-01 -0.22012839916E+00  0.90007737455E+02  0.89999998790E+02 0.  0.
        -12    1    1    2    0    0  0.11559743178E+01  0.91030428334E-01  0.22012839916E+00  0.11802625447E+01  0.00000000000E+00 0.  1.
         11    1    3    3    0    0  0.85990988912E+01 -0.14701931287E+02 -0.38746355920E+02  0.42324595481E+02  0.51100000000E-03 0. -1.
        -11    1    3    3    0    0  0.38023917462E+01 -0.37010856820E+01  0.76591402898E+01  0.93176525186E+01  0.51100000000E-03 0.  1.
        -12    1    3    3    0    0 -0.13557464955E+02  0.18311986541E+02  0.30867087231E+02  0.38365489456E+02  0.00000000000E+00 0.  1.
</event>
<event>
 7    1  0.2879200E-015  0.9000776E+02  0.7816164E-02  0.1186339E+00
        -11   -1    0    0    0    0  0.00000000000E+00  0.00000000000E+00  0.45593999997E+02  0.45594000000E+02  0.51100000000E-03 0.  1.
         11   -1    0    0    0    0 -0.00000000000E+00 -0.00000000000E+00 -0.45593999997E+02  0.45594000000E+02  0.51100000000E-03 0. -1.
    9900012    2    1    2    0    0  0.10478201525E+01  0.11058300509E+00 -0.53180138266E+00  0.90007759184E+02  0.90000020805E+02 0.  0.
        -12    1    1    2    0    0 -0.10478201525E+01 -0.11058300509E+00  0.53180138266E+00  0.11802408160E+01  0.00000000000E+00 0.  1.
         11    1    3    3    0    0  0.15790664206E+01 -0.41831972061E+02 -0.60782094818E+01  0.42300732477E+02  0.51100000000E-03 0. -1.
        -11    1    3    3    0    0 -0.70092700209E+01  0.58739774971E+01 -0.37761898297E+01  0.98940935792E+01  0.51100000000E-03 0.  1.
        -12    1    3    3    0    0  0.64780237528E+01  0.36068577569E+02  0.93225979288E+01  0.37812933128E+02  0.00000000000E+00 0.  1.
</event>
<event>
 7    1  0.3596541E-015  0.9000776E+02  0.7816164E-02  0.1186339E+00
        -11   -1    0    0    0    0  0.00000000000E+00  0.00000000000E+00  0.45593999997E+02  0.45594000000E+02  0.51100000000E-03 0. -1.
         11   -1    0    0    0    0 -0.00000000000E+00 -0.00000000000E+00 -0.45593999997E+02  0.45594000000E+02  0.51100000000E-03 0.  1.
    9900012    2    1    2    0    0  0.55245415847E+00 -0.62748218075E+00  0.83307598313E+00  0.90007764821E+02  0.90000026517E+02 0.  0.
        -12    1    1    2    0    0 -0.55245415847E+00  0.62748218075E+00 -0.83307598313E+00  0.11802351791E+01  0.00000000000E+00 0.  1.
         11    1    3    3    0    0 -0.10380831366E+02  0.35069119671E+02  0.18606182142E+02  0.41034069120E+02  0.51100000000E-03 0. -1.
        -11    1    3    3    0    0  0.58632506428E+01 -0.43207715713E+01  0.58756571884E+01  0.93578909338E+01  0.51100000000E-03 0.  1.
        -12    1    3    3    0    0  0.50700348816E+01 -0.31375830281E+02 -0.23648763347E+02  0.39615804767E+02  0.00000000000E+00 0.  1.
</event>
<event>
 7    1  0.2879200E-015  0.9000775E+02  0.7816164E-02  0.1186339E+00
        -11   -1    0    0    0    0  0.00000000000E+00  0.00000000000E+00  0.45593999997E+02  0.45594000000E+02  0.51100000000E-03 0.  1.
         11   -1    0    0    0    0 -0.00000000000E+00 -0.00000000000E+00 -0.45593999997E+02  0.45594000000E+02  0.51100000000E-03 0. -1.
    9900012    2    1    2    0    0 -0.68755914268E+00  0.33506116528E-01 -0.95871652060E+00  0.90007746806E+02  0.90000008264E+02 0.  0.
        -12    1    1    2    0    0  0.68755914268E+00 -0.33506116528E-01  0.95871652060E+00  0.11802531938E+01  0.00000000000E+00 0.  1.
         11    1    3    3    0    0 -0.75879698410E+01 -0.35679895249E+01  0.35368542420E+00  0.83924328534E+01  0.51100000000E-03 0. -1.
        -11    1    3    3    0    0 -0.19000756070E+02  0.33784514067E+02 -0.11736631606E+02  0.40499020281E+02  0.51100000000E-03 0.  1.
         12    1    3    3    0    0  0.25901166769E+02 -0.30183018426E+02  0.10424229661E+02  0.41116293672E+02  0.00000000000E+00 0. -1.
</event>
<event>
 7    1  0.2879200E-015  0.9000745E+02  0.7816164E-02  0.1186340E+00
        -11   -1    0    0    0    0  0.00000000000E+00  0.00000000000E+00  0.45593999997E+02  0.45594000000E+02  0.51100000000E-03 0. -1.
         11   -1    0    0    0    0 -0.00000000000E+00 -0.00000000000E+00 -0.45593999997E+02  0.45594000000E+02  0.51100000000E-03 0.  1.
    9900012    2    1    2    0    0  0.11715063965E+01  0.14035833464E+00 -0.39611346680E-01  0.90007450654E+02  0.89999708202E+02 0.  0.
        -12    1    1    2    0    0 -0.11715063965E+01 -0.14035833464E+00  0.39611346680E-01  0.11805493458E+01  0.00000000000E+00 0.  1.
         11    1    3    3    0    0 -0.57377302398E+01  0.66992138144E+00  0.36807809487E+02  0.37258357217E+02  0.51100000000E-03 0. -1.
        -11    1    3    3    0    0  0.71140474115E+01  0.13707537335E+01  0.62748493646E+01  0.95844859633E+01  0.51100000000E-03 0.  1.
        -12    1    3    3    0    0 -0.20481077522E+00 -0.19003167803E+01 -0.43122270199E+02  0.43164607474E+02  0.00000000000E+00 0.  1.
</event>
<event>
 7    1  0.2879200E-015  0.9000774E+02  0.7816164E-02  0.1186339E+00
        -11   -1    0    0    0    0  0.00000000000E+00  0.00000000000E+00  0.45593999997E+02  0.45594000000E+02  0.51100000000E-03 0.  1.
         11   -1    0    0    0    0 -0.00000000000E+00 -0.00000000000E+00 -0.45593999997E+02  0.45594000000E+02  0.51100000000E-03 0. -1.
    9900012    2    1    2    0    0  0.33286798482E+00 -0.10312290489E+01 -0.46772857225E+00  0.90007743899E+02  0.90000005318E+02 0.  0.
        -12    1    1    2    0    0 -0.33286798482E+00  0.10312290489E+01  0.46772857225E+00  0.11802561010E+01  0.00000000000E+00 0.  1.
         11    1    3    3    0    0  0.24036879045E+02  0.19461352527E+02 -0.31256108762E+02  0.43971128386E+02  0.51100000000E-03 0. -1.
        -11    1    3    3    0    0 -0.18762162949E+01 -0.86296276256E+01  0.46695494936E+01  0.99897624234E+01  0.51100000000E-03 0.  1.
        -12    1    3    3    0    0 -0.21827794765E+02 -0.11862953950E+02  0.26118830696E+02  0.36046853089E+02  0.00000000000E+00 0.  1.
</event>
<event>
 7    1  0.2879200E-015  0.9000770E+02  0.7816164E-02  0.1186339E+00
        -11   -1    0    0    0    0  0.00000000000E+00  0.00000000000E+00  0.45593999997E+02  0.45594000000E+02  0.51100000000E-03 0. -1.
         11   -1    0    0    0    0 -0.00000000000E+00 -0.00000000000E+00 -0.45593999997E+02  0.45594000000E+02  0.51100000000E-03 0.  1.
    9900012    2    1    2    0    0 -0.12017039105E+00 -0.10562883878E+01  0.51275765420E+00  0.90007700677E+02  0.89999961525E+02 0.  0.
        -12    1    1    2    0    0  0.12017039105E+00  0.10562883878E+01 -0.51275765420E+00  0.11802993235E+01  0.00000000000E+00 0.  1.
         11    1    3    3    0    0  0.24776964105E+01 -0.72750345608E+01 -0.58966994996E+00  0.77079710867E+01  0.51100000000E-03 0. -1.
        -11    1    3    3    0    0 -0.64368481270E+01 -0.23115347799E+02 -0.30634083878E+02  0.38912715313E+02  0.51100000000E-03 0.  1.
         12    1    3    3    0    0  0.38389813255E+01  0.29334093972E+02  0.31736511482E+02  0.43387014277E+02  0.00000000000E+00 0. -1.
</event>
<event>
 7    1  0.2879200E-015  0.9000777E+02  0.7816164E-02  0.1186339E+00
        -11   -1    0    0    0    0  0.00000000000E+00  0.00000000000E+00  0.45593999997E+02  0.45594000000E+02  0.51100000000E-03 0. -1.
         11   -1    0    0    0    0 -0.00000000000E+00 -0.00000000000E+00 -0.45593999997E+02  0.45594000000E+02  0.51100000000E-03 0.  1.
    9900012    2    1    2    0    0  0.90608759449E+00 -0.71911520610E+00 -0.23411859983E+00  0.90007774205E+02  0.90000036024E+02 0.  0.
        -12    1    1    2    0    0 -0.90608759449E+00  0.71911520610E+00  0.23411859983E+00  0.11802257951E+01  0.00000000000E+00 0.  1.
         11    1    3    3    0    0 -0.12919568893E+02  0.33143626555E+01 -0.12287195969E+02  0.18134923359E+02  0.51100000000E-03 0. -1.
        -11    1    3    3    0    0  0.31741624521E+02  0.22285847515E+02  0.37197114076E+01  0.38961852881E+02  0.51100000000E-03 0.  1.
         12    1    3    3    0    0 -0.17915968033E+02 -0.26319325376E+02  0.83333659612E+01  0.32910997965E+02  0.00000000000E+00 0. -1.
</event>
<event>
 7    1  0.2879200E-015  0.9000774E+02  0.7816164E-02  0.1186339E+00
        -11   -1    0    0    0    0  0.00000000000E+00  0.00000000000E+00  0.45593999997E+02  0.45594000000E+02  0.51100000000E-03 0.  1.
         11   -1    0    0    0    0 -0.00000000000E+00 -0.00000000000E+00 -0.45593999997E+02  0.45594000000E+02  0.51100000000E-03 0. -1.
    9900012    2    1    2    0    0  0.10973940926E+01 -0.43012247735E+00 -0.61038552277E-01  0.90007743738E+02  0.90000005155E+02 0.  0.
        -12    1    1    2    0    0 -0.10973940926E+01  0.43012247735E+00  0.61038552277E-01  0.11802562624E+01  0.00000000000E+00 0.  1.
         11    1    3    3    0    0 -0.16790018288E+02 -0.33168764134E+02  0.81019169829E+01  0.38048819789E+02  0.51100000000E-03 0. -1.
        -11    1    3    3    0    0 -0.72088275740E+01 -0.18026834246E+01  0.26946047053E+01  0.79042872734E+01  0.51100000000E-03 0.  1.
        -12    1    3    3    0    0  0.25096239955E+02  0.34541325081E+02 -0.10857560240E+02  0.44054636675E+02  0.00000000000E+00 0.  1.
</event>
<event>
 7    1  0.2879200E-015  0.9000764E+02  0.7816164E-02  0.1186339E+00
        -11   -1    0    0    0    0  0.00000000000E+00  0.00000000000E+00  0.45593999997E+02  0.45594000000E+02  0.51100000000E-03 0. -1.
         11   -1    0    0    0    0 -0.00000000000E+00 -0.00000000000E+00 -0.45593999997E+02  0.45594000000E+02  0.51100000000E-03 0.  1.
    9900012    2    1    2    0    0  0.26517375807E+00 -0.10960741662E+01  0.34864637496E+00  0.90007639888E+02  0.89999899934E+02 0.  0.
        -12    1    1    2    0    0 -0.26517375807E+00  0.10960741662E+01 -0.34864637496E+00  0.11803601122E+01  0.00000000000E+00 0.  1.
         11    1    3    3    0    0 -0.45187870614E+01  0.68523826491E+01 -0.25667556667E+01  0.86001639165E+01  0.51100000000E-03 0. -1.
        -11    1    3    3    0    0  0.14394173245E+02  0.34714754270E+02  0.37565274500E-01  0.37580683853E+02  0.51100000000E-03 0.  1.
         12    1    3    3    0    0 -0.96102124253E+01 -0.42663211085E+02  0.28778367672E+01  0.43826792119E+02  0.00000000000E+00 0. -1.
</event>
<event>
 7    1  0.2879200E-015  0.9000775E+02  0.7816164E-02  0.1186339E+00
        -11   -1    0    0    0    0  0.00000000000E+00  0.00000000000E+00  0.45593999997E+02  0.45594000000E+02  0.51100000000E-03 0.  1.
         11   -1    0    0    0    0 -0.00000000000E+00 -0.00000000000E+00 -0.45593999997E+02  0.45594000000E+02  0.51100000000E-03 0. -1.
    9900012    2    1    2    0    0 -0.18540647144E+00  0.10722682849E+01  0.45701221545E+00  0.90007747908E+02  0.90000009381E+02 0.  0.
        -12    1    1    2    0    0  0.18540647144E+00 -0.10722682849E+01 -0.45701221545E+00  0.11802520915E+01  0.00000000000E+00 0.  1.
         11    1    3    3    0    0  0.59664139444E+01  0.60355157571E+01  0.44409364437E+00  0.84983978041E+01  0.51100000000E-03 0. -1.
        -11    1    3    3    0    0  0.36789152578E+02 -0.39070778906E-01 -0.77467389671E+01  0.37595947106E+02  0.51100000000E-03 0.  1.
         12    1    3    3    0    0 -0.42940972994E+02 -0.49241766933E+01  0.77596575382E+01  0.43913402998E+02  0.00000000000E+00 0. -1.
</event>
<event>
 7    1  0.2879200E-015  0.9000765E+02  0.7816164E-02  0.1186339E+00
        -11   -1    0    0    0    0  0.00000000000E+00  0.00000000000E+00  0.45593999997E+02  0.45594000000E+02  0.51100000000E-03 0.  1.
         11   -1    0    0    0    0 -0.00000000000E+00 -0.00000000000E+00 -0.45593999997E+02  0.45594000000E+02  0.51100000000E-03 0. -1.
    9900012    2    1    2    0    0 -0.13800147613E+00 -0.85408783361E+00 -0.80294165908E+00  0.90007650161E+02  0.89999910343E+02 0.  0.
        -12    1    1    2    0    0  0.13800147613E+00  0.85408783361E+00  0.80294165908E+00  0.11803498392E+01  0.00000000000E+00 0.  1.
         11    1    3    3    0    0  0.24687891023E+02 -0.27692800986E+02  0.14725835174E+02  0.39915328026E+02  0.51100000000E-03 0. -1.
        -11    1    3    3    0    0  0.53842657853E+01  0.12588056541E+02 -0.11922514094E+01  0.13743032751E+02  0.51100000000E-03 0.  1.
        -12    1    3    3    0    0 -0.30210158285E+02  0.14250656611E+02 -0.14336525424E+02  0.36349289383E+02  0.00000000000E+00 0.  1.
</event>
<event>
 7    1  0.2879200E-015  0.9000769E+02  0.7816164E-02  0.1186339E+00
        -11   -1    0    0    0    0  0.00000000000E+00  0.00000000000E+00  0.45593999997E+02  0.45594000000E+02  0.51100000000E-03 0. -1.
         11   -1    0    0    0    0 -0.00000000000E+00 -0.00000000000E+00 -0.45593999997E+02  0.45594000000E+02  0.51100000000E-03 0.  1.
    9900012    2    1    2    0    0 -0.83870044388E+00  0.64942554249E+00  0.51764015566E+00  0.90007693557E+02  0.89999954311E+02 0.  0.
        -12    1    1    2    0    0  0.83870044388E+00 -0.64942554249E+00 -0.51764015566E+00  0.11803064435E+01  0.00000000000E+00 0.  1.
         11    1    3    3    0    0  0.13387257737E+02  0.39727278483E+01  0.38021103457E+02  0.40504389202E+02  0.51100000000E-03 0. -1.
        -11    1    3    3    0    0  0.35606066479E+01  0.74793724068E+01 -0.22798517146E+01  0.85916619698E+01  0.51100000000E-03 0.  1.
        -12    1    3    3    0    0 -0.17786564828E+02 -0.10802674713E+02 -0.35223611587E+02  0.40911642384E+02  0.00000000000E+00 0.  1.
</event>
<event>
 7    1  0.2879200E-015  0.9000792E+02  0.7816164E-02  0.1186339E+00
        -11   -1    0    0    0    0  0.00000000000E+00  0.00000000000E+00  0.45593999997E+02  0.45594000000E+02  0.51100000000E-03 0.  1.
         11   -1    0    0    0    0 -0.00000000000E+00 -0.00000000000E+00 -0.45593999997E+02  0.45594000000E+02  0.51100000000E-03 0. -1.
    9900012    2    1    2    0    0  0.60150175112E+00 -0.70283701004E+00 -0.73267039075E+00  0.90007919443E+02  0.90000183180E+02 0.  0.
        -12    1    1    2    0    0 -0.60150175112E+00  0.70283701004E+00  0.73267039075E+00  0.11800805569E+01  0.00000000000E+00 0.  1.
         11    1    3    3    0    0 -0.10838957740E+02  0.73980406693E+01  0.26557242573E+02  0.29622645796E+02  0.51100000000E-03 0. -1.
        -11    1    3    3    0    0  0.28567851527E+02 -0.47056429459E+01 -0.11822840311E+01  0.28976939318E+02  0.51100000000E-03 0.  1.
         12    1    3    3    0    0 -0.17127392036E+02 -0.33952347335E+01 -0.26107628932E+02  0.31408334329E+02  0.00000000000E+00 0. -1.
</event>
<event>
 7    1  0.2879200E-015  0.9000769E+02  0.7816164E-02  0.1186339E+00
        -11   -1    0    0    0    0  0.00000000000E+00  0.00000000000E+00  0.45593999997E+02  0.45594000000E+02  0.51100000000E-03 0. -1.
         11   -1    0    0    0    0 -0.00000000000E+00 -0.00000000000E+00 -0.45593999997E+02  0.45594000000E+02  0.51100000000E-03 0.  1.
    9900012    2    1    2    0    0  0.53052446959E+00  0.22664572176E+00 -0.10297121298E+01  0.90007690055E+02  0.89999950764E+02 0.  0.
        -12    1    1    2    0    0 -0.53052446959E+00 -0.22664572176E+00  0.10297121298E+01  0.11803099450E+01  0.00000000000E+00 0.  1.
         11    1    3    3    0    0  0.81142996962E+01  0.64652134500E+01 -0.38617894704E+00  0.10382195286E+02  0.51100000000E-03 0. -1.
        -11    1    3    3    0    0  0.30666316190E+02  0.67234397525E+01  0.16829507494E+02  0.35621059972E+02  0.51100000000E-03 0.  1.
         12    1    3    3    0    0 -0.38250091417E+02 -0.12962007481E+02 -0.17473040677E+02  0.44004434797E+02  0.00000000000E+00 0. -1.
</event>
<event>
 7    1  0.2879200E-015  0.9000788E+02  0.7816164E-02  0.1186339E+00
        -11   -1    0    0    0    0  0.00000000000E+00  0.00000000000E+00  0.45593999997E+02  0.45594000000E+02  0.51100000000E-03 0. -1.
         11   -1    0    0    0    0 -0.00000000000E+00 -0.00000000000E+00 -0.45593999997E+02  0.45594000000E+02  0.51100000000E-03 0.  1.
    9900012    2    1    2    0    0 -0.74880865911E+00  0.80344502497E+00 -0.43178504669E+00  0.90007882784E+02  0.90000146037E+02 0.  0.
        -12    1    1    2    0    0  0.74880865911E+00 -0.80344502497E+00  0.43178504669E+00  0.11801172156E+01  0.00000000000E+00 0.  1.
         11    1    3    3    0    0  0.10525889918E+02  0.17437949970E+01 -0.65342041851E+00  0.10689346943E+02  0.51100000000E-03 0. -1.
        -11    1    3    3    0    0  0.10170019054E+02 -0.13371400081E+02 -0.33494491630E+02  0.37471383715E+02  0.51100000000E-03 0.  1.
         12    1    3    3    0    0 -0.21444717631E+02  0.12431050109E+02  0.33716127002E+02  0.41847152127E+02  0.00000000000E+00 0. -1.
</event>
<event>
 7    1  0.2879200E-015  0.9000821E+02  0.7816164E-02  0.1186338E+00
        -11   -1    0    0    0    0  0.00000000000E+00  0.00000000000E+00  0.45593999997E+02  0.45594000000E+02  0.51100000000E-03 0.  1.
         11   -1    0    0    0    0 -0.00000000000E+00 -0.00000000000E+00 -0.45593999997E+02  0.45594000000E+02  0.51100000000E-03 0. -1.
    9900012    2    1    2    0    0 -0.18189970314E+00 -0.11650476226E+01 -0.38468042353E-01  0.90008210504E+02  0.90000478081E+02 0.  0.
        -12    1    1    2    0    0  0.18189970314E+00  0.11650476226E+01  0.38468042353E-01  0.11797894962E+01  0.00000000000E+00 0.  1.
         11    1    3    3    0    0 -0.53455308508E+01  0.38142019641E+02 -0.38956332632E+01  0.38711294491E+02  0.51100000000E-03 0. -1.
        -11    1    3    3    0    0  0.10762298607E+01  0.43181115314E+01  0.59506948573E+01  0.74306882222E+01  0.51100000000E-03 0.  1.
        -12    1    3    3    0    0  0.40874012869E+01 -0.43625178795E+02 -0.20935296364E+01  0.43866227790E+02  0.00000000000E+00 0.  1.
</event>
<event>
 7    1  0.2879200E-015  0.9000749E+02  0.7816164E-02  0.1186340E+00
        -11   -1    0    0    0    0  0.00000000000E+00  0.00000000000E+00  0.45593999997E+02  0.45594000000E+02  0.51100000000E-03 0. -1.
         11   -1    0    0    0    0 -0.00000000000E+00 -0.00000000000E+00 -0.45593999997E+02  0.45594000000E+02  0.51100000000E-03 0.  1.
    9900012    2    1    2    0    0 -0.94200416107E+00 -0.56607005982E+00  0.43104494170E+00  0.90007488715E+02  0.89999746766E+02 0.  0.
        -12    1    1    2    0    0  0.94200416107E+00  0.56607005982E+00 -0.43104494170E+00  0.11805112849E+01  0.00000000000E+00 0.  1.
         11    1    3    3    0    0 -0.36954310997E+01  0.90989806631E+01  0.19451292257E+01  0.10011552731E+02  0.51100000000E-03 0. -1.
        -11    1    3    3    0    0  0.18806086726E+02  0.26873641469E+02 -0.17293826898E+02  0.37080155782E+02  0.51100000000E-03 0.  1.
         12    1    3    3    0    0 -0.16052659788E+02 -0.36538692192E+02  0.15779742614E+02  0.42915780202E+02  0.00000000000E+00 0. -1.
</event>
<event>
 7    1  0.2879200E-015  0.9000746E+02  0.7816164E-02  0.1186340E+00
        -11   -1    0    0    0    0  0.00000000000E+00  0.00000000000E+00  0.45593999997E+02  0.45594000000E+02  0.51100000000E-03 0.  1.
         11   -1    0    0    0    0 -0.00000000000E+00 -0.00000000000E+00 -0.45593999997E+02  0.45594000000E+02  0.51100000000E-03 0. -1.
    9900012    2    1    2    0    0 -0.95206920229E+00 -0.23234262733E+00 -0.65821583208E+00  0.90007463281E+02  0.89999720996E+02 0.  0.
        -12    1    1    2    0    0  0.95206920229E+00  0.23234262733E+00  0.65821583208E+00  0.11805367186E+01  0.00000000000E+00 0.  1.
         11    1    3    3    0    0 -0.22465172006E+01 -0.47020736005E+01  0.80446374872E+01  0.95850158184E+01  0.51100000000E-03 0. -1.
        -11    1    3    3    0    0 -0.38721533241E+02 -0.32080319196E+01 -0.49098483847E+00  0.38857298822E+02  0.51100000000E-03 0.  1.
         12    1    3    3    0    0  0.40015981240E+02  0.76777628928E+01 -0.82118684808E+01  0.41565148641E+02  0.00000000000E+00 0. -1.
</event>
<event>
 7    1  0.2879200E-015  0.9000767E+02  0.7816164E-02  0.1186339E+00
        -11   -1    0    0    0    0  0.00000000000E+00  0.00000000000E+00  0.45593999997E+02  0.45594000000E+02  0.51100000000E-03 0.  1.
         11   -1    0    0    0    0 -0.00000000000E+00 -0.00000000000E+00 -0.45593999997E+02  0.45594000000E+02  0.51100000000E-03 0. -1.
    9900012    2    1    2    0    0  0.10761118233E+01  0.11065933124E+00 -0.47214242284E+00  0.90007669279E+02  0.89999929713E+02 0.  0.
        -12    1    1    2    0    0 -0.10761118233E+01 -0.11065933124E+00  0.47214242284E+00  0.11803307211E+01  0.00000000000E+00 0.  1.
         11    1    3    3    0    0  0.64751951741E+01  0.74175330918E+01  0.53502871870E+01  0.11205959261E+02  0.51100000000E-03 0. -1.
        -11    1    3    3    0    0  0.26299287251E+02 -0.14661624371E+02 -0.26613986047E+02  0.40186067146E+02  0.51100000000E-03 0.  1.
         12    1    3    3    0    0 -0.31698370602E+02  0.73547506108E+01  0.20791556437E+02  0.38615642872E+02  0.00000000000E+00 0. -1.
</event>
<event>
 7    1  0.2879200E-015  0.9000779E+02  0.7816164E-02  0.1186339E+00
        -11   -1    0    0    0    0  0.00000000000E+00  0.00000000000E+00  0.45593999997E+02  0.45594000000E+02  0.51100000000E-03 0.  1.
         11   -1    0    0    0    0 -0.00000000000E+00 -0.00000000000E+00 -0.45593999997E+02  0.45594000000E+02  0.51100000000E-03 0. -1.
    9900012    2    1    2    0    0  0.35597998321E+00  0.10416497235E+01 -0.42559365314E+00  0.90007794148E+02  0.90000056231E+02 0.  0.
        -12    1    1    2    0    0 -0.35597998321E+00 -0.10416497235E+01  0.42559365314E+00  0.11802058518E+01  0.00000000000E+00 0.  1.
         11    1    3    3    0    0 -0.38602962681E+01  0.57553349116E+01 -0.62978114291E+01  0.93641975780E+01  0.51100000000E-03 0. -1.
        -11    1    3    3    0    0 -0.32583013752E+02  0.47341091047E+01  0.21756467705E+02  0.39464014766E+02  0.51100000000E-03 0.  1.
         12    1    3    3    0    0  0.36799290004E+02 -0.94477942928E+01 -0.15884249929E+02  0.41179581804E+02  0.00000000000E+00 0. -1.
</event>
<event>
 7    1  0.2879200E-015  0.9000776E+02  0.7816164E-02  0.1186339E+00
        -11   -1    0    0    0    0  0.00000000000E+00  0.00000000000E+00  0.45593999997E+02  0.45594000000E+02  0.51100000000E-03 0. -1.
         11   -1    0    0    0    0 -0.00000000000E+00 -0.00000000000E+00 -0.45593999997E+02  0.45594000000E+02  0.51100000000E-03 0.  1.
    9900012    2    1    2    0    0  0.10612291445E+01  0.15165525656E+00  0.49371438722E+00  0.90007762520E+02  0.90000024185E+02 0.  0.
        -12    1    1    2    0    0 -0.10612291445E+01 -0.15165525656E+00 -0.49371438722E+00  0.11802374804E+01  0.00000000000E+00 0.  1.
         11    1    3    3    0    0  0.53627081931E+00  0.75745782717E+01  0.68559977886E+01  0.10230666074E+02  0.51100000000E-03 0. -1.
        -11    1    3    3    0    0 -0.37827923410E+02  0.68714748137E+01 -0.54961950880E+01  0.38837830994E+02  0.51100000000E-03 0.  1.
         12    1    3    3    0    0  0.38352881735E+02 -0.14294397829E+02 -0.86608831334E+00  0.40939265451E+02  0.00000000000E+00 0. -1.
</event>
<event>
 7    1  0.2879200E-015  0.9000775E+02  0.7816164E-02  0.1186339E+00
        -11   -1    0    0    0    0  0.00000000000E+00  0.00000000000E+00  0.45593999997E+02  0.45594000000E+02  0.51100000000E-03 0.  1.
         11   -1    0    0    0    0 -0.00000000000E+00 -0.00000000000E+00 -0.45593999997E+02  0.45594000000E+02  0.51100000000E-03 0. -1.
    9900012    2    1    2    0    0 -0.11432213794E+01  0.28876034378E+00  0.51477774930E-01  0.90007751035E+02  0.90000012548E+02 0.  0.
        -12    1    1    2    0    0  0.11432213794E+01 -0.28876034378E+00 -0.51477774930E-01  0.11802489652E+01  0.00000000000E+00 0.  1.
         11    1    3    3    0    0 -0.33579160258E+02 -0.19007693858E+02 -0.12843253494E+02  0.40666959439E+02  0.51100000000E-03 0. -1.
        -11    1    3    3    0    0  0.50001703764E+00  0.72634963132E+00  0.12363007904E+02  0.12394416708E+02  0.51100000000E-03 0.  1.
        -12    1    3    3    0    0  0.31935921841E+02  0.18570104571E+02  0.53172336430E+00  0.36946374888E+02  0.00000000000E+00 0.  1.
</event>
<event>
 7    1  0.2879200E-015  0.9000771E+02  0.7816164E-02  0.1186339E+00
        -11   -1    0    0    0    0  0.00000000000E+00  0.00000000000E+00  0.45593999997E+02  0.45594000000E+02  0.51100000000E-03 0.  1.
         11   -1    0    0    0    0 -0.00000000000E+00 -0.00000000000E+00 -0.45593999997E+02  0.45594000000E+02  0.51100000000E-03 0. -1.
    9900012    2    1    2    0    0  0.37487862712E+00 -0.41299802942E+00 -0.10401809252E+01  0.90007712868E+02  0.89999973878E+02 0.  0.
        -12    1    1    2    0    0 -0.37487862712E+00  0.41299802942E+00  0.10401809252E+01  0.11802871322E+01  0.00000000000E+00 0.  1.
         11    1    3    3    0    0  0.28980005979E+02 -0.20418616798E+02  0.17776916820E+02  0.39658283250E+02  0.51100000000E-03 0. -1.
        -11    1    3    3    0    0 -0.54665030097E+01 -0.82140155821E+01 -0.65789022304E+01  0.11858948602E+02  0.51100000000E-03 0.  1.
        -12    1    3    3    0    0 -0.23138624342E+02  0.28219634351E+02 -0.12238195514E+02  0.38490481015E+02  0.00000000000E+00 0.  1.
</event>
<event>
 7    1  0.2879200E-015  0.9000782E+02  0.7816164E-02  0.1186339E+00
        -11   -1    0    0    0    0  0.00000000000E+00  0.00000000000E+00  0.45593999997E+02  0.45594000000E+02  0.51100000000E-03 0.  1.
         11   -1    0    0    0    0 -0.00000000000E+00 -0.00000000000E+00 -0.45593999997E+02  0.45594000000E+02  0.51100000000E-03 0. -1.
    9900012    2    1    2    0    0  0.92951868326E-01  0.11519007056E+01 -0.23940572479E+00  0.90007817647E+02  0.90000080040E+02 0.  0.
        -12    1    1    2    0    0 -0.92951868326E-01 -0.11519007056E+01  0.23940572479E+00  0.11801823531E+01  0.00000000000E+00 0.  1.
         11    1    3    3    0    0  0.31580728376E+02 -0.17732204854E+02 -0.11954212422E+01  0.36238136347E+02  0.51100000000E-03 0. -1.
        -11    1    3    3    0    0  0.91091475092E+01  0.62711025282E+01  0.20354012930E+01  0.11244827875E+02  0.51100000000E-03 0.  1.
        -12    1    3    3    0    0 -0.40596924017E+02  0.12613003031E+02 -0.10793857756E+01  0.42524853424E+02  0.00000000000E+00 0.  1.
</event>
<event>
 7    1  0.2879200E-015  0.9000774E+02  0.7816164E-02  0.1186339E+00
        -11   -1    0    0    0    0  0.00000000000E+00  0.00000000000E+00  0.45593999997E+02  0.45594000000E+02  0.51100000000E-03 0.  1.
         11   -1    0    0    0    0 -0.00000000000E+00 -0.00000000000E+00 -0.45593999997E+02  0.45594000000E+02  0.51100000000E-03 0. -1.
    9900012    2    1    2    0    0  0.47056142639E+00  0.52165411517E-01 -0.10811456040E+01  0.90007735156E+02  0.89999996460E+02 0.  0.
        -12    1    1    2    0    0 -0.47056142639E+00 -0.52165411517E-01  0.10811456040E+01  0.11802648445E+01  0.00000000000E+00 0.  1.
         11    1    3    3    0    0  0.15445536523E+02  0.13412968248E+02 -0.30221874520E+02  0.36494301136E+02  0.51100000000E-03 0. -1.
        -11    1    3    3    0    0 -0.13179516520E+01  0.47763566583E+00 -0.98472252152E+01  0.99465057727E+01  0.51100000000E-03 0.  1.
        -12    1    3    3    0    0 -0.13657023444E+02 -0.13838438502E+02  0.38987954131E+02  0.43566928247E+02  0.00000000000E+00 0.  1.
</event>
<event>
 7    1  0.2879200E-015  0.9000740E+02  0.7816164E-02  0.1186340E+00
        -11   -1    0    0    0    0  0.00000000000E+00  0.00000000000E+00  0.45593999997E+02  0.45594000000E+02  0.51100000000E-03 0. -1.
         11   -1    0    0    0    0 -0.00000000000E+00 -0.00000000000E+00 -0.45593999997E+02  0.45594000000E+02  0.51100000000E-03 0.  1.
    9900012    2    1    2    0    0 -0.90756650286E+00 -0.73969595241E+00  0.15163933317E+00  0.90007397803E+02  0.89999654654E+02 0.  0.
        -12    1    1    2    0    0  0.90756650286E+00  0.73969595241E+00 -0.15163933317E+00  0.11806021965E+01  0.00000000000E+00 0.  1.
         11    1    3    3    0    0  0.29858130419E+01  0.53511361164E+01 -0.73740013719E+01  0.95877856542E+01  0.51100000000E-03 0. -1.
        -11    1    3    3    0    0 -0.17010001807E+02 -0.28260501572E+02 -0.23198542172E+02  0.40325779220E+02  0.51100000000E-03 0.  1.
         12    1    3    3    0    0  0.13116622262E+02  0.22169669503E+02  0.30724182877E+02  0.40093832929E+02  0.00000000000E+00 0. -1.
</event>
<event>
 7    1  0.2879200E-015  0.9000775E+02  0.7816164E-02  0.1186339E+00
        -11   -1    0    0    0    0  0.00000000000E+00  0.00000000000E+00  0.45593999997E+02  0.45594000000E+02  0.51100000000E-03 0.  1.
         11   -1    0    0    0    0 -0.00000000000E+00 -0.00000000000E+00 -0.45593999997E+02  0.45594000000E+02  0.51100000000E-03 0. -1.
    9900012    2    1    2    0    0  0.28375835903E+00  0.63264726156E+00 -0.95510224956E+00  0.90007753555E+02  0.90000015102E+02 0.  0.
        -12    1    1    2    0    0 -0.28375835903E+00 -0.63264726156E+00  0.95510224956E+00  0.11802464450E+01  0.00000000000E+00 0.  1.
         11    1    3    3    0    0  0.70149007808E+01  0.22468766773E+01  0.82501030016E+01  0.11059904501E+02  0.51100000000E-03 0. -1.
        -11    1    3    3    0    0  0.22880239748E+02  0.27773186055E+02  0.10039506295E+01  0.35998099278E+02  0.51100000000E-03 0.  1.
         12    1    3    3    0    0 -0.29611382169E+02 -0.29387415470E+02 -0.10209155881E+02  0.42949749776E+02  0.00000000000E+00 0. -1.
</event>
<event>
 7    1  0.2879200E-015  0.9000759E+02  0.7816164E-02  0.1186339E+00
        -11   -1    0    0    0    0  0.00000000000E+00  0.00000000000E+00  0.45593999997E+02  0.45594000000E+02  0.51100000000E-03 0.  1.
         11   -1    0    0    0    0 -0.00000000000E+00 -0.00000000000E+00 -0.45593999997E+02  0.45594000000E+02  0.51100000000E-03 0. -1.
    9900012    2    1    2    0    0 -0.12347642040E+00 -0.88415144087E+00 -0.77227490868E+00  0.90007585356E+02  0.89999844683E+02 0.  0.
        -12    1    1    2    0    0  0.12347642040E+00  0.88415144087E+00  0.77227490868E+00  0.11804146438E+01  0.00000000000E+00 0.  1.
         11    1    3    3    0    0  0.40080108888E+01  0.86832723995E+01 -0.32976521953E+01  0.10116218716E+02  0.51100000000E-03 0. -1.
        -11    1    3    3    0    0 -0.10089552258E+02  0.28745766073E+02  0.20939465783E+02  0.36967274169E+02  0.51100000000E-03 0.  1.
         12    1    3    3    0    0  0.59580649489E+01 -0.38313189914E+02 -0.18414088497E+02  0.42924092471E+02  0.00000000000E+00 0. -1.
</event>
<event>
 7    1  0.2879200E-015  0.9000778E+02  0.7816164E-02  0.1186339E+00
        -11   -1    0    0    0    0  0.00000000000E+00  0.00000000000E+00  0.45593999997E+02  0.45594000000E+02  0.51100000000E-03 0.  1.
         11   -1    0    0    0    0 -0.00000000000E+00 -0.00000000000E+00 -0.45593999997E+02  0.45594000000E+02  0.51100000000E-03 0. -1.
    9900012    2    1    2    0    0  0.52753025344E+00 -0.97504533585E+00 -0.40486749264E+00  0.90007779994E+02  0.90000041890E+02 0.  0.
        -12    1    1    2    0    0 -0.52753025344E+00  0.97504533585E+00  0.40486749264E+00  0.11802200057E+01  0.00000000000E+00 0.  1.
         11    1    3    3    0    0  0.21807258169E+02  0.19055668484E+02 -0.92810939137E+01  0.30410749986E+02  0.51100000000E-03 0. -1.
        -11    1    3    3    0    0  0.89330608779E+01  0.62463649443E+01  0.15563725614E+02  0.19001215933E+02  0.51100000000E-03 0.  1.
        -12    1    3    3    0    0 -0.30212788793E+02 -0.26277078764E+02 -0.66874991929E+01  0.40595814076E+02  0.00000000000E+00 0.  1.
</event>
<event>
 7    1  0.2879200E-015  0.9000778E+02  0.7816164E-02  0.1186339E+00
        -11   -1    0    0    0    0  0.00000000000E+00  0.00000000000E+00  0.45593999997E+02  0.45594000000E+02  0.51100000000E-03 0. -1.
         11   -1    0    0    0    0 -0.00000000000E+00 -0.00000000000E+00 -0.45593999997E+02  0.45594000000E+02  0.51100000000E-03 0.  1.
    9900012    2    1    2    0    0 -0.81507512271E+00 -0.85152872360E+00  0.59002345724E-01  0.90007775488E+02  0.90000037324E+02 0.  0.
        -12    1    1    2    0    0  0.81507512271E+00  0.85152872360E+00 -0.59002345724E-01  0.11802245124E+01  0.00000000000E+00 0.  1.
         11    1    3    3    0    0 -0.13224200282E+02  0.11148574750E+02 -0.57162359668E+01  0.18216628281E+02  0.51100000000E-03 0. -1.
        -11    1    3    3    0    0 -0.14134657971E+02 -0.23574458192E+01 -0.25748462935E+02  0.29467430335E+02  0.51100000000E-03 0.  1.
         12    1    3    3    0    0  0.26543783130E+02 -0.96426576545E+01  0.31523701248E+02  0.42323716872E+02  0.00000000000E+00 0. -1.
</event>
<event>
 7    1  0.2879200E-015  0.9000788E+02  0.7816164E-02  0.1186339E+00
        -11   -1    0    0    0    0  0.00000000000E+00  0.00000000000E+00  0.45593999997E+02  0.45594000000E+02  0.51100000000E-03 0. -1.
         11   -1    0    0    0    0 -0.00000000000E+00 -0.00000000000E+00 -0.45593999997E+02  0.45594000000E+02  0.51100000000E-03 0.  1.
    9900012    2    1    2    0    0 -0.61071982930E+00 -0.99270905063E-01  0.10049184447E+01  0.90007875217E+02  0.90000138370E+02 0.  0.
        -12    1    1    2    0    0  0.61071982930E+00  0.99270905063E-01 -0.10049184447E+01  0.11801247828E+01  0.00000000000E+00 0.  1.
         11    1    3    3    0    0  0.84655970667E+01  0.39695879031E+02  0.68426282926E+01  0.41161276802E+02  0.51100000000E-03 0. -1.
        -11    1    3    3    0    0  0.60327182048E+01 -0.24333812776E+01  0.36285634048E+01  0.74485908751E+01  0.51100000000E-03 0.  1.
        -12    1    3    3    0    0 -0.15109035101E+02 -0.37361768659E+02 -0.94662732527E+01  0.41398007540E+02  0.00000000000E+00 0.  1.
</event>
<event>
 7    1  0.2879200E-015  0.9000769E+02  0.7816164E-02  0.1186339E+00
        -11   -1    0    0    0    0  0.00000000000E+00  0.00000000000E+00  0.45593999997E+02  0.45594000000E+02  0.51100000000E-03 0.  1.
         11   -1    0    0    0    0 -0.00000000000E+00 -0.00000000000E+00 -0.45593999997E+02  0.45594000000E+02  0.51100000000E-03 0. -1.
    9900012    2    1    2    0    0  0.81429452562E+00  0.93053169369E-01 -0.84935277611E+00  0.90007688768E+02  0.89999949459E+02 0.  0.
        -12    1    1    2    0    0 -0.81429452562E+00 -0.93053169369E-01  0.84935277611E+00  0.11803112323E+01  0.00000000000E+00 0.  1.
         11    1    3    3    0    0 -0.20182953013E+02  0.14130793979E+02 -0.14468479990E+02  0.28572151551E+02  0.51100000000E-03 0. -1.
        -11    1    3    3    0    0 -0.44504169530E+00 -0.87157764303E+01 -0.19648936651E+02  0.21499849596E+02  0.51100000000E-03 0.  1.
        -12    1    3    3    0    0  0.21442289233E+02 -0.53219643795E+01  0.33268063864E+02  0.39935687620E+02  0.00000000000E+00 0.  1.
</event>
<event>
 7    1  0.2879200E-015  0.9000769E+02  0.7816164E-02  0.1186339E+00
        -11   -1    0    0    0    0  0.00000000000E+00  0.00000000000E+00  0.45593999997E+02  0.45594000000E+02  0.51100000000E-03 0.  1.
         11   -1    0    0    0    0 -0.00000000000E+00 -0.00000000000E+00 -0.45593999997E+02  0.45594000000E+02  0.51100000000E-03 0. -1.
    9900012    2    1    2    0    0  0.79985683198E+00  0.25553140961E+00  0.82949452734E+00  0.90007691386E+02  0.89999952112E+02 0.  0.
        -12    1    1    2    0    0 -0.79985683198E+00 -0.25553140961E+00 -0.82949452734E+00  0.11803086138E+01  0.00000000000E+00 0.  1.
         11    1    3    3    0    0  0.45994921175E+01 -0.91588878931E+01  0.68172851213E+01  0.12309180796E+02  0.51100000000E-03 0. -1.
        -11    1    3    3    0    0 -0.34510113677E+02 -0.37377676234E+01  0.15458978355E+02  0.37998669251E+02  0.51100000000E-03 0.  1.
         12    1    3    3    0    0  0.30710478392E+02  0.13152186926E+02 -0.21446768949E+02  0.39699841339E+02  0.00000000000E+00 0. -1.
</event>
<event>
 7    1  0.2879200E-015  0.9000767E+02  0.7816164E-02  0.1186339E+00
        -11   -1    0    0    0    0  0.00000000000E+00  0.00000000000E+00  0.45593999997E+02  0.45594000000E+02  0.51100000000E-03 0. -1.
         11   -1    0    0    0    0 -0.00000000000E+00 -0.00000000000E+00 -0.45593999997E+02  0.45594000000E+02  0.51100000000E-03 0.  1.
    9900012    2    1    2    0    0 -0.53212762055E+00  0.92978623890E+00 -0.49550819426E+00  0.90007665037E+02  0.89999925415E+02 0.  0.
        -12    1    1    2    0    0  0.53212762055E+00 -0.92978623890E+00  0.49550819426E+00  0.11803349631E+01  0.00000000000E+00 0.  1.
         11    1    3    3    0    0  0.82038518043E+01  0.37205529373E+01 -0.75012267707E+01  0.11722376121E+02  0.51100000000E-03 0. -1.
        -11    1    3    3    0    0 -0.30725391713E+02  0.15702574636E+02 -0.19122162912E+02  0.39449685180E+02  0.51100000000E-03 0.  1.
         12    1    3    3    0    0  0.21989412288E+02 -0.18493341335E+02  0.26127881488E+02  0.38835603736E+02  0.00000000000E+00 0. -1.
</event>
<event>
 7    1  0.2879200E-015  0.9000765E+02  0.7816164E-02  0.1186339E+00
        -11   -1    0    0    0    0  0.00000000000E+00  0.00000000000E+00  0.45593999997E+02  0.45594000000E+02  0.51100000000E-03 0. -1.
         11   -1    0    0    0    0 -0.00000000000E+00 -0.00000000000E+00 -0.45593999997E+02  0.45594000000E+02  0.51100000000E-03 0.  1.
    9900012    2    1    2    0    0 -0.87942221495E-01 -0.20800476860E-01  0.11768880223E+01  0.90007647548E+02  0.89999907696E+02 0.  0.
        -12    1    1    2    0    0  0.87942221495E-01  0.20800476860E-01 -0.11768880223E+01  0.11803524521E+01  0.00000000000E+00 0.  1.
         11    1    3    3    0    0  0.29428020106E+01 -0.85758623766E+01 -0.65868468248E+01  0.11206785914E+02  0.51100000000E-03 0. -1.
        -11    1    3    3    0    0 -0.21741808165E+01 -0.28585981405E+02  0.24821679145E+02  0.37920985627E+02  0.51100000000E-03 0.  1.
         12    1    3    3    0    0 -0.85656341553E+00  0.37141043305E+02 -0.17057944297E+02  0.40879876007E+02  0.00000000000E+00 0. -1.
</event>
<event>
 7    1  0.2879200E-015  0.9000770E+02  0.7816164E-02  0.1186339E+00
        -11   -1    0    0    0    0  0.00000000000E+00  0.00000000000E+00  0.45593999997E+02  0.45594000000E+02  0.51100000000E-03 0.  1.
         11   -1    0    0    0    0 -0.00000000000E+00 -0.00000000000E+00 -0.45593999997E+02  0.45594000000E+02  0.51100000000E-03 0. -1.
    9900012    2    1    2    0    0  0.85379467439E+00  0.14865082189E+00 -0.80127688164E+00  0.90007700439E+02  0.89999961285E+02 0.  0.
        -12    1    1    2    0    0 -0.85379467439E+00 -0.14865082189E+00  0.80127688164E+00  0.11802995611E+01  0.00000000000E+00 0.  1.
         11    1    3    3    0    0  0.81129464509E+01  0.12408796373E+01  0.51234538743E+01  0.96751983056E+01  0.51100000000E-03 0. -1.
        -11    1    3    3    0    0  0.83894446733E+01 -0.65645033603E+01  0.34783521799E+02  0.36378137326E+02  0.51100000000E-03 0.  1.
         12    1    3    3    0    0 -0.15648596450E+02  0.54722745448E+01 -0.40708252555E+02  0.43954364807E+02  0.00000000000E+00 0. -1.
</event>
<event>
 7    1  0.2879200E-015  0.9000777E+02  0.7816164E-02  0.1186339E+00
        -11   -1    0    0    0    0  0.00000000000E+00  0.00000000000E+00  0.45593999997E+02  0.45594000000E+02  0.51100000000E-03 0.  1.
         11   -1    0    0    0    0 -0.00000000000E+00 -0.00000000000E+00 -0.45593999997E+02  0.45594000000E+02  0.51100000000E-03 0. -1.
    9900012    2    1    2    0    0 -0.45415072724E+00  0.36058487989E+00 -0.10279447972E+01  0.90007769156E+02  0.90000030909E+02 0.  0.
        -12    1    1    2    0    0  0.45415072724E+00 -0.36058487989E+00  0.10279447972E+01  0.11802308438E+01  0.00000000000E+00 0.  1.
         11    1    3    3    0    0 -0.13409498349E+02 -0.32689298462E+02  0.15748225883E+02  0.38683478368E+02  0.51100000000E-03 0. -1.
        -11    1    3    3    0    0  0.54966509239E+01 -0.63408031121E+01 -0.23126869750E+01  0.87044515503E+01  0.51100000000E-03 0.  1.
        -12    1    3    3    0    0  0.74586966982E+01  0.39390686454E+02 -0.14463483705E+02  0.42619839238E+02  0.00000000000E+00 0.  1.
</event>
<event>
 7    1  0.2879200E-015  0.9000773E+02  0.7816164E-02  0.1186339E+00
        -11   -1    0    0    0    0  0.00000000000E+00  0.00000000000E+00  0.45593999997E+02  0.45594000000E+02  0.51100000000E-03 0.  1.
         11   -1    0    0    0    0 -0.00000000000E+00 -0.00000000000E+00 -0.45593999997E+02  0.45594000000E+02  0.51100000000E-03 0. -1.
    9900012    2    1    2    0    0 -0.10486058268E+01 -0.30976027422E+00  0.44441183966E+00  0.90007734144E+02  0.89999995435E+02 0.  0.
        -12    1    1    2    0    0  0.10486058268E+01  0.30976027422E+00 -0.44441183966E+00  0.11802658560E+01  0.00000000000E+00 0.  1.
         11    1    3    3    0    0 -0.98948302024E+01 -0.11218046407E+01  0.96278054091E+01  0.13851380712E+02  0.51100000000E-03 0. -1.
        -11    1    3    3    0    0 -0.11472435760E+02  0.26234100798E+02  0.17941969013E+02  0.33789925707E+02  0.51100000000E-03 0.  1.
         12    1    3    3    0    0  0.20318660136E+02 -0.25422056432E+02 -0.27125362582E+02  0.42366427725E+02  0.00000000000E+00 0. -1.
</event>
<event>
 7    1  0.2879200E-015  0.9000764E+02  0.7816164E-02  0.1186339E+00
        -11   -1    0    0    0    0  0.00000000000E+00  0.00000000000E+00  0.45593999997E+02  0.45594000000E+02  0.51100000000E-03 0.  1.
         11   -1    0    0    0    0 -0.00000000000E+00 -0.00000000000E+00 -0.45593999997E+02  0.45594000000E+02  0.51100000000E-03 0. -1.
    9900012    2    1    2    0    0  0.64178068086E+00 -0.98939077274E+00  0.49675757727E-01  0.90007642332E+02  0.89999902411E+02 0.  0.
        -12    1    1    2    0    0 -0.64178068086E+00  0.98939077274E+00 -0.49675757727E-01  0.11803576680E+01  0.00000000000E+00 0.  1.
         11    1    3    3    0    0 -0.16263131426E+02 -0.33388111671E+02  0.49246202967E+01  0.37463413219E+02  0.51100000000E-03 0. -1.
        -11    1    3    3    0    0  0.11468914373E+02 -0.56199208290E+01  0.34867140731E+01  0.13239210033E+02  0.51100000000E-03 0.  1.
        -12    1    3    3    0    0  0.54359977340E+01  0.38018641727E+02 -0.83616586120E+01  0.39305019080E+02  0.00000000000E+00 0.  1.
</event>
<event>
 7    1  0.2879200E-015  0.9000774E+02  0.7816164E-02  0.1186339E+00
        -11   -1    0    0    0    0  0.00000000000E+00  0.00000000000E+00  0.45593999997E+02  0.45594000000E+02  0.51100000000E-03 0. -1.
         11   -1    0    0    0    0 -0.00000000000E+00 -0.00000000000E+00 -0.45593999997E+02  0.45594000000E+02  0.51100000000E-03 0.  1.
    9900012    2    1    2    0    0  0.10590864034E-01 -0.11548057312E+01 -0.24355441956E+00  0.90007742741E+02  0.90000004145E+02 0.  0.
        -12    1    1    2    0    0 -0.10590864034E-01  0.11548057312E+01  0.24355441956E+00  0.11802572594E+01  0.00000000000E+00 0.  1.
         11    1    3    3    0    0  0.24967879202E+02  0.27905603913E+02 -0.16025614061E+02  0.40730062950E+02  0.51100000000E-03 0. -1.
        -11    1    3    3    0    0  0.29379544672E+01 -0.39334885806E+00  0.79958370120E+01  0.85275852126E+01  0.51100000000E-03 0.  1.
        -12    1    3    3    0    0 -0.27895242805E+02 -0.28667060786E+02  0.77862226294E+01  0.40750094578E+02  0.00000000000E+00 0.  1.
</event>
<event>
 7    1  0.2879200E-015  0.9000777E+02  0.7816164E-02  0.1186339E+00
        -11   -1    0    0    0    0  0.00000000000E+00  0.00000000000E+00  0.45593999997E+02  0.45594000000E+02  0.51100000000E-03 0.  1.
         11   -1    0    0    0    0 -0.00000000000E+00 -0.00000000000E+00 -0.45593999997E+02  0.45594000000E+02  0.51100000000E-03 0. -1.
    9900012    2    1    2    0    0  0.17670850941E+00 -0.93002919229E+00 -0.70481317071E+00  0.90007770445E+02  0.90000032215E+02 0.  0.
        -12    1    1    2    0    0 -0.17670850941E+00  0.93002919229E+00  0.70481317071E+00  0.11802295545E+01  0.00000000000E+00 0.  1.
         11    1    3    3    0    0 -0.69982640187E+00 -0.39915483527E+02 -0.11801740644E+02  0.41629516748E+02  0.51100000000E-03 0. -1.
        -11    1    3    3    0    0 -0.79137591115E+01  0.52763413324E+01 -0.41174885614E+01  0.10364413801E+02  0.51100000000E-03 0.  1.
        -12    1    3    3    0    0  0.87902940227E+01  0.33709113002E+02  0.15214416035E+02  0.38013839896E+02  0.00000000000E+00 0.  1.
</event>
<event>
 7    1  0.2879200E-015  0.9000764E+02  0.7816164E-02  0.1186339E+00
        -11   -1    0    0    0    0  0.00000000000E+00  0.00000000000E+00  0.45593999997E+02  0.45594000000E+02  0.51100000000E-03 0. -1.
         11   -1    0    0    0    0 -0.00000000000E+00 -0.00000000000E+00 -0.45593999997E+02  0.45594000000E+02  0.51100000000E-03 0.  1.
    9900012    2    1    2    0    0  0.26005564167E+00  0.11512676249E+01 -0.14232817981E-01  0.90007640456E+02  0.89999900510E+02 0.  0.
        -12    1    1    2    0    0 -0.26005564167E+00 -0.11512676249E+01  0.14232817981E-01  0.11803595444E+01  0.00000000000E+00 0.  1.
         11    1    3    3    0    0  0.27536189737E+02 -0.86045766337E+01  0.19881458999E+02  0.35036450968E+02  0.51100000000E-03 0. -1.
        -11    1    3    3    0    0  0.10488363552E+02 -0.34659311948E+01 -0.24147018666E+01  0.11307043575E+02  0.51100000000E-03 0.  1.
        -12    1    3    3    0    0 -0.37764497647E+02  0.13221775453E+02 -0.17480989950E+02  0.43664145913E+02  0.00000000000E+00 0.  1.
</event>
<event>
 7    1  0.2879200E-015  0.9000773E+02  0.7816164E-02  0.1186339E+00
        -11   -1    0    0    0    0  0.00000000000E+00  0.00000000000E+00  0.45593999997E+02  0.45594000000E+02  0.51100000000E-03 0. -1.
         11   -1    0    0    0    0 -0.00000000000E+00 -0.00000000000E+00 -0.45593999997E+02  0.45594000000E+02  0.51100000000E-03 0.  1.
    9900012    2    1    2    0    0  0.57567402730E+00 -0.91215740890E+00  0.47916919923E+00  0.90007731028E+02  0.89999992278E+02 0.  0.
        -12    1    1    2    0    0 -0.57567402730E+00  0.91215740890E+00 -0.47916919923E+00  0.11802689718E+01  0.00000000000E+00 0.  1.
         11    1    3    3    0    0  0.30253777707E+02 -0.29105385279E+02 -0.59619707739E+01  0.42402353868E+02  0.51100000000E-03 0. -1.
        -11    1    3    3    0    0 -0.84787926053E+00  0.43920165272E+01 -0.66324177831E+01  0.79998546441E+01  0.51100000000E-03 0.  1.
        -12    1    3    3    0    0 -0.28830224419E+02  0.23801211343E+02  0.13073557756E+02  0.39605522517E+02  0.00000000000E+00 0.  1.
</event>
<event>
 7    1  0.2879200E-015  0.9000777E+02  0.7816164E-02  0.1186339E+00
        -11   -1    0    0    0    0  0.00000000000E+00  0.00000000000E+00  0.45593999997E+02  0.45594000000E+02  0.51100000000E-03 0.  1.
         11   -1    0    0    0    0 -0.00000000000E+00 -0.00000000000E+00 -0.45593999997E+02  0.45594000000E+02  0.51100000000E-03 0. -1.
    9900012    2    1    2    0    0 -0.72073150823E+00 -0.24302281418E+00 -0.90245868655E+00  0.90007768804E+02  0.90000030552E+02 0.  0.
        -12    1    1    2    0    0  0.72073150823E+00  0.24302281418E+00  0.90245868655E+00  0.11802311960E+01  0.00000000000E+00 0.  1.
         11    1    3    3    0    0 -0.31470898412E+02  0.10908474554E+02 -0.18870170914E+02  0.38281792207E+02  0.51100000000E-03 0. -1.
        -11    1    3    3    0    0 -0.81004794521E+01 -0.28057681942E+01  0.14576298668E+01  0.86956763741E+01  0.51100000000E-03 0.  1.
        -12    1    3    3    0    0  0.38850646356E+02 -0.83457291740E+01  0.16510082361E+02  0.43030300223E+02  0.00000000000E+00 0.  1.
</event>
<event>
 7    1  0.2879200E-015  0.9000769E+02  0.7816164E-02  0.1186339E+00
        -11   -1    0    0    0    0  0.00000000000E+00  0.00000000000E+00  0.45593999997E+02  0.45594000000E+02  0.51100000000E-03 0. -1.
         11   -1    0    0    0    0 -0.00000000000E+00 -0.00000000000E+00 -0.45593999997E+02  0.45594000000E+02  0.51100000000E-03 0.  1.
    9900012    2    1    2    0    0 -0.77719102490E+00  0.49331795473E-01  0.88694377630E+00  0.90007691236E+02  0.89999951961E+02 0.  0.
        -12    1    1    2    0    0  0.77719102490E+00 -0.49331795473E-01 -0.88694377630E+00  0.11803087637E+01  0.00000000000E+00 0.  1.
         11    1    3    3    0    0 -0.14394573361E+02  0.22021129219E+02  0.25515779475E+02  0.36649541290E+02  0.51100000000E-03 0. -1.
        -11    1    3    3    0    0  0.52765772070E+01  0.38334968554E+01  0.83917806345E+01  0.10628261741E+02  0.51100000000E-03 0.  1.
        -12    1    3    3    0    0  0.83408051290E+01 -0.25805294279E+02 -0.33020616333E+02  0.42729888205E+02  0.00000000000E+00 0.  1.
</event>
<event>
 7    1  0.2879200E-015  0.9000769E+02  0.7816164E-02  0.1186339E+00
        -11   -1    0    0    0    0  0.00000000000E+00  0.00000000000E+00  0.45593999997E+02  0.45594000000E+02  0.51100000000E-03 0. -1.
         11   -1    0    0    0    0 -0.00000000000E+00 -0.00000000000E+00 -0.45593999997E+02  0.45594000000E+02  0.51100000000E-03 0.  1.
    9900012    2    1    2    0    0  0.11071666970E+01 -0.30742610890E+00 -0.26981778695E+00  0.90007690487E+02  0.89999951202E+02 0.  0.
        -12    1    1    2    0    0 -0.11071666970E+01  0.30742610890E+00  0.26981778695E+00  0.11803095126E+01  0.00000000000E+00 0.  1.
         11    1    3    3    0    0 -0.36026501857E+02  0.45330038547E+01 -0.37751921727E+01  0.36506287626E+02  0.51100000000E-03 0. -1.
        -11    1    3    3    0    0 -0.53522741687E+01 -0.22779506406E+01 -0.75452116888E+01  0.95271253581E+01  0.51100000000E-03 0.  1.
        -12    1    3    3    0    0  0.42485942723E+02 -0.25624793230E+01  0.11050586075E+02  0.43974277503E+02  0.00000000000E+00 0.  1.
</event>
<event>
 7    1  0.2879200E-015  0.9000774E+02  0.7816164E-02  0.1186339E+00
        -11   -1    0    0    0    0  0.00000000000E+00  0.00000000000E+00  0.45593999997E+02  0.45594000000E+02  0.51100000000E-03 0.  1.
         11   -1    0    0    0    0 -0.00000000000E+00 -0.00000000000E+00 -0.45593999997E+02  0.45594000000E+02  0.51100000000E-03 0. -1.
    9900012    2    1    2    0    0 -0.39448499655E+00  0.72832572351E+00 -0.84078921612E+00  0.90007744401E+02  0.90000005828E+02 0.  0.
        -12    1    1    2    0    0  0.39448499655E+00 -0.72832572351E+00  0.84078921612E+00  0.11802555986E+01  0.00000000000E+00 0.  1.
         11    1    3    3    0    0  0.17095121706E+02 -0.13283732007E+02 -0.36058954859E+01  0.21947738031E+02  0.51100000000E-03 0. -1.
        -11    1    3    3    0    0  0.99424893559E+01 -0.14997021581E+02 -0.15876978395E+02  0.23996712152E+02  0.51100000000E-03 0.  1.
        -12    1    3    3    0    0 -0.27432096059E+02  0.29009079312E+02  0.18642084665E+02  0.44063294218E+02  0.00000000000E+00 0.  1.
</event>
<event>
 7    1  0.2879200E-015  0.9000772E+02  0.7816164E-02  0.1186339E+00
        -11   -1    0    0    0    0  0.00000000000E+00  0.00000000000E+00  0.45593999997E+02  0.45594000000E+02  0.51100000000E-03 0.  1.
         11   -1    0    0    0    0 -0.00000000000E+00 -0.00000000000E+00 -0.45593999997E+02  0.45594000000E+02  0.51100000000E-03 0. -1.
    9900012    2    1    2    0    0 -0.39330654401E+00 -0.80070900113E+00  0.77281685937E+00  0.90007715780E+02  0.89999976828E+02 0.  0.
        -12    1    1    2    0    0  0.39330654401E+00  0.80070900113E+00 -0.77281685937E+00  0.11802842201E+01  0.00000000000E+00 0.  1.
         11    1    3    3    0    0  0.18175253102E+02 -0.35446582374E+02 -0.14539015909E+02  0.42404988046E+02  0.51100000000E-03 0. -1.
        -11    1    3    3    0    0 -0.17660864267E+01  0.63622487496E+01 -0.55687000299E+01  0.86375743529E+01  0.51100000000E-03 0.  1.
        -12    1    3    3    0    0 -0.16802473219E+02  0.28283624623E+02  0.20880532799E+02  0.38965153381E+02  0.00000000000E+00 0.  1.
</event>
<event>
 7    1  0.2879200E-015  0.9000780E+02  0.7816164E-02  0.1186339E+00
        -11   -1    0    0    0    0  0.00000000000E+00  0.00000000000E+00  0.45593999997E+02  0.45594000000E+02  0.51100000000E-03 0.  1.
         11   -1    0    0    0    0 -0.00000000000E+00 -0.00000000000E+00 -0.45593999997E+02  0.45594000000E+02  0.51100000000E-03 0. -1.
    9900012    2    1    2    0    0  0.43551680556E+00  0.10255936093E+01  0.38904532669E+00  0.90007799421E+02  0.90000061574E+02 0.  0.
        -12    1    1    2    0    0 -0.43551680556E+00 -0.10255936093E+01 -0.38904532669E+00  0.11802005785E+01  0.00000000000E+00 0.  1.
         11    1    3    3    0    0 -0.32694715428E+02 -0.67948136338E+01 -0.17544110454E+02  0.37721475595E+02  0.51100000000E-03 0. -1.
        -11    1    3    3    0    0 -0.33414286989E+01  0.77390243798E+01 -0.44113443275E+01  0.95140739506E+01  0.51100000000E-03 0.  1.
        -12    1    3    3    0    0  0.36471660932E+02  0.81382863322E-01  0.22344500108E+02  0.42772249875E+02  0.00000000000E+00 0.  1.
</event>
<event>
 7    1  0.2879200E-015  0.9000771E+02  0.7816164E-02  0.1186339E+00
        -11   -1    0    0    0    0  0.00000000000E+00  0.00000000000E+00  0.45593999997E+02  0.45594000000E+02  0.51100000000E-03 0.  1.
         11   -1    0    0    0    0 -0.00000000000E+00 -0.00000000000E+00 -0.45593999997E+02  0.45594000000E+02  0.51100000000E-03 0. -1.
    9900012    2    1    2    0    0  0.11162123296E+01  0.26992433365E+00  0.27258677523E+00  0.90007706536E+02  0.89999967462E+02 0.  0.
        -12    1    1    2    0    0 -0.11162123296E+01 -0.26992433365E+00 -0.27258677523E+00  0.11802934638E+01  0.00000000000E+00 0.  1.
         11    1    3    3    0    0  0.64787758705E+01 -0.33437357496E+01 -0.64538947376E+01  0.97369329405E+01  0.51100000000E-03 0. -1.
        -11    1    3    3    0    0 -0.12547189045E+02 -0.23590714703E+02  0.32527477926E+02  0.42095018632E+02  0.51100000000E-03 0.  1.
         12    1    3    3    0    0  0.71846255039E+01  0.27204374787E+02 -0.25800996413E+02  0.38175754964E+02  0.00000000000E+00 0. -1.
</event>
<event>
 7    1  0.2879200E-015  0.9000758E+02  0.7816164E-02  0.1186339E+00
        -11   -1    0    0    0    0  0.00000000000E+00  0.00000000000E+00  0.45593999997E+02  0.45594000000E+02  0.51100000000E-03 0.  1.
         11   -1    0    0    0    0 -0.00000000000E+00 -0.00000000000E+00 -0.45593999997E+02  0.45594000000E+02  0.51100000000E-03 0. -1.
    9900012    2    1    2    0    0  0.10820878220E+01 -0.41603303825E+00 -0.22224793594E+00  0.90007579868E+02  0.89999839122E+02 0.  0.
        -12    1    1    2    0    0 -0.10820878220E+01  0.41603303825E+00  0.22224793594E+00  0.11804201322E+01  0.00000000000E+00 0.  1.
         11    1    3    3    0    0 -0.51337376711E+01  0.44296250869E+01  0.53695601897E+01  0.86492206457E+01  0.51100000000E-03 0. -1.
        -11    1    3    3    0    0  0.21728471805E+02  0.25934478162E+02  0.19198380593E+02  0.38901175588E+02  0.51100000000E-03 0.  1.
         12    1    3    3    0    0 -0.15512646312E+02 -0.30780136287E+02 -0.24790188718E+02  0.42457183634E+02  0.00000000000E+00 0. -1.
</event>
<event>
 7    1  0.2879200E-015  0.9000777E+02  0.7816164E-02  0.1186339E+00
        -11   -1    0    0    0    0  0.00000000000E+00  0.00000000000E+00  0.45593999997E+02  0.45594000000E+02  0.51100000000E-03 0.  1.
         11   -1    0    0    0    0 -0.00000000000E+00 -0.00000000000E+00 -0.45593999997E+02  0.45594000000E+02  0.51100000000E-03 0. -1.
    9900012    2    1    2    0    0  0.22611863622E+00 -0.10029219240E+01 -0.57963097155E+00  0.90007765241E+02  0.90000026942E+02 0.  0.
        -12    1    1    2    0    0 -0.22611863622E+00  0.10029219240E+01  0.57963097155E+00  0.11802347591E+01  0.00000000000E+00 0.  1.
         11    1    3    3    0    0  0.32213980584E+01  0.35460405378E+01  0.50977382847E+01  0.69956232622E+01  0.51100000000E-03 0. -1.
        -11    1    3    3    0    0  0.10320224394E+02  0.37372475173E+02 -0.42522835716E+01  0.39003728641E+02  0.51100000000E-03 0.  1.
         12    1    3    3    0    0 -0.13315503816E+02 -0.41921437635E+02 -0.14250856847E+01  0.44008413337E+02  0.00000000000E+00 0. -1.
</event>
<event>
 7    1  0.2879200E-015  0.9000784E+02  0.7816164E-02  0.1186339E+00
        -11   -1    0    0    0    0  0.00000000000E+00  0.00000000000E+00  0.45593999997E+02  0.45594000000E+02  0.51100000000E-03 0. -1.
         11   -1    0    0    0    0 -0.00000000000E+00 -0.00000000000E+00 -0.45593999997E+02  0.45594000000E+02  0.51100000000E-03 0.  1.
    9900012    2    1    2    0    0 -0.17788739231E-01  0.14743726999E+00  0.11707793485E+01  0.90007839642E+02  0.90000102325E+02 0.  0.
        -12    1    1    2    0    0  0.17788739231E-01 -0.14743726999E+00 -0.11707793485E+01  0.11801603580E+01  0.00000000000E+00 0.  1.
         11    1    3    3    0    0 -0.21670314203E+02 -0.14161020811E+01  0.37515912879E+02  0.43348028584E+02  0.51100000000E-03 0. -1.
        -11    1    3    3    0    0 -0.25421427478E+01 -0.33145047303E+01 -0.83613140920E+01  0.93466574220E+01  0.51100000000E-03 0.  1.
        -12    1    3    3    0    0  0.24194668211E+02  0.48780440814E+01 -0.27983819438E+02  0.37313153636E+02  0.00000000000E+00 0.  1.
</event>
<event>
 7    1  0.2879200E-015  0.9000777E+02  0.7816164E-02  0.1186339E+00
        -11   -1    0    0    0    0  0.00000000000E+00  0.00000000000E+00  0.45593999997E+02  0.45594000000E+02  0.51100000000E-03 0. -1.
         11   -1    0    0    0    0 -0.00000000000E+00 -0.00000000000E+00 -0.45593999997E+02  0.45594000000E+02  0.51100000000E-03 0.  1.
    9900012    2    1    2    0    0  0.75434079559E+00  0.40398492621E+00  0.81283580158E+00  0.90007772947E+02  0.90000034750E+02 0.  0.
        -12    1    1    2    0    0 -0.75434079559E+00 -0.40398492621E+00 -0.81283580158E+00  0.11802270531E+01  0.00000000000E+00 0.  1.
         11    1    3    3    0    0  0.52605376471E+01 -0.42098295495E+01  0.65037687143E+01  0.93645570597E+01  0.51100000000E-03 0. -1.
        -11    1    3    3    0    0  0.86741957083E+01 -0.34854186590E+02  0.80763704948E+01  0.36814178717E+02  0.51100000000E-03 0.  1.
         12    1    3    3    0    0 -0.13180392560E+02  0.39468001065E+02 -0.13767303407E+02  0.43829037170E+02  0.00000000000E+00 0. -1.
</event>
<event>
 7    1  0.2879200E-015  0.9000775E+02  0.7816164E-02  0.1186339E+00
        -11   -1    0    0    0    0  0.00000000000E+00  0.00000000000E+00  0.45593999997E+02  0.45594000000E+02  0.51100000000E-03 0. -1.
         11   -1    0    0    0    0 -0.00000000000E+00 -0.00000000000E+00 -0.45593999997E+02  0.45594000000E+02  0.51100000000E-03 0.  1.
    9900012    2    1    2    0    0  0.22208465866E-02  0.99315621730E+00  0.63767635075E+00  0.90007747767E+02  0.90000009238E+02 0.  0.
        -12    1    1    2    0    0 -0.22208465866E-02 -0.99315621730E+00 -0.63767635075E+00  0.11802522325E+01  0.00000000000E+00 0.  1.
         11    1    3    3    0    0 -0.60693715858E+01  0.50735781296E+01  0.11209094314E+02  0.13719411871E+02  0.51100000000E-03 0. -1.
        -11    1    3    3    0    0 -0.24095106077E+02  0.15919819253E+02 -0.24134312299E+02  0.37636150339E+02  0.51100000000E-03 0.  1.
         12    1    3    3    0    0  0.30166698509E+02 -0.20000241166E+02  0.13562894336E+02  0.38652185558E+02  0.00000000000E+00 0. -1.
</event>
<event>
 7    1  0.2879200E-015  0.9000763E+02  0.7816164E-02  0.1186339E+00
        -11   -1    0    0    0    0  0.00000000000E+00  0.00000000000E+00  0.45593999997E+02  0.45594000000E+02  0.51100000000E-03 0. -1.
         11   -1    0    0    0    0 -0.00000000000E+00 -0.00000000000E+00 -0.45593999997E+02  0.45594000000E+02  0.51100000000E-03 0.  1.
    9900012    2    1    2    0    0  0.16454964123E-01  0.11726562650E+01 -0.13375502767E+00  0.90007625530E+02  0.89999885387E+02 0.  0.
        -12    1    1    2    0    0 -0.16454964123E-01 -0.11726562650E+01  0.13375502767E+00  0.11803744698E+01  0.00000000000E+00 0.  1.
         11    1    3    3    0    0  0.35946384946E+01  0.44621100755E+01  0.79754889286E+01  0.98204010175E+01  0.51100000000E-03 0. -1.
        -11    1    3    3    0    0 -0.34305591801E+02  0.16849228958E+02  0.95936696047E+01  0.39405693016E+02  0.51100000000E-03 0.  1.
         12    1    3    3    0    0  0.30727408270E+02 -0.20138682769E+02 -0.17702913561E+02  0.40781531497E+02  0.00000000000E+00 0. -1.
</event>
<event>
 7    1  0.2879200E-015  0.9000780E+02  0.7816164E-02  0.1186339E+00
        -11   -1    0    0    0    0  0.00000000000E+00  0.00000000000E+00  0.45593999997E+02  0.45594000000E+02  0.51100000000E-03 0.  1.
         11   -1    0    0    0    0 -0.00000000000E+00 -0.00000000000E+00 -0.45593999997E+02  0.45594000000E+02  0.51100000000E-03 0. -1.
    9900012    2    1    2    0    0 -0.90167244707E+00 -0.55998439855E+00 -0.51601762374E+00  0.90007800900E+02  0.90000063072E+02 0.  0.
        -12    1    1    2    0    0  0.90167244707E+00  0.55998439855E+00  0.51601762374E+00  0.11801991003E+01  0.00000000000E+00 0.  1.
         11    1    3    3    0    0  0.70564398125E+01 -0.35980677541E+01  0.31621322773E+01  0.85286877766E+01  0.51100000000E-03 0. -1.
        -11    1    3    3    0    0 -0.37533754606E+02 -0.21225322107E+02 -0.28870975729E+01  0.43216112343E+02  0.51100000000E-03 0.  1.
         12    1    3    3    0    0  0.29575642347E+02  0.24263405463E+02 -0.79105232817E+00  0.38263000780E+02  0.00000000000E+00 0. -1.
</event>
<event>
 7    1  0.2879200E-015  0.9000668E+02  0.7816164E-02  0.1186341E+00
        -11   -1    0    0    0    0  0.00000000000E+00  0.00000000000E+00  0.45593999997E+02  0.45594000000E+02  0.51100000000E-03 0. -1.
         11   -1    0    0    0    0 -0.00000000000E+00 -0.00000000000E+00 -0.45593999997E+02  0.45594000000E+02  0.51100000000E-03 0.  1.
    9900012    2    1    2    0    0  0.58452959686E+00 -0.10105830828E+01  0.18043355211E+00  0.90006683242E+02  0.89998930654E+02 0.  0.
        -12    1    1    2    0    0 -0.58452959686E+00  0.10105830828E+01 -0.18043355211E+00  0.11813167583E+01  0.00000000000E+00 0.  1.
         11    1    3    3    0    0 -0.10630460789E+02 -0.49601244073E+00  0.31678395709E+01  0.11103509928E+02  0.51100000000E-03 0. -1.
        -11    1    3    3    0    0 -0.38602395401E+01 -0.38058472112E+02  0.85799759113E+00  0.38263362489E+02  0.51100000000E-03 0.  1.
         12    1    3    3    0    0  0.15075229926E+02  0.37543901470E+02 -0.38454036099E+01  0.40639810824E+02  0.00000000000E+00 0. -1.
</event>
<event>
 7    1  0.2879200E-015  0.9000776E+02  0.7816164E-02  0.1186339E+00
        -11   -1    0    0    0    0  0.00000000000E+00  0.00000000000E+00  0.45593999997E+02  0.45594000000E+02  0.51100000000E-03 0.  1.
         11   -1    0    0    0    0 -0.00000000000E+00 -0.00000000000E+00 -0.45593999997E+02  0.45594000000E+02  0.51100000000E-03 0. -1.
    9900012    2    1    2    0    0 -0.10008135600E+01  0.40684849870E+00 -0.47519160841E+00  0.90007762504E+02  0.90000024169E+02 0.  0.
        -12    1    1    2    0    0  0.10008135600E+01 -0.40684849870E+00  0.47519160841E+00  0.11802374962E+01  0.00000000000E+00 0.  1.
         11    1    3    3    0    0 -0.96128502423E+01 -0.31945857123E+01 -0.50865036425E+01  0.11335113022E+02  0.51100000000E-03 0. -1.
        -11    1    3    3    0    0 -0.24821792684E+02 -0.23900758881E+02  0.75693396817E+01  0.35279775660E+02  0.51100000000E-03 0.  1.
         12    1    3    3    0    0  0.33433829367E+02  0.27502193092E+02 -0.29580276476E+01  0.43392873822E+02  0.00000000000E+00 0. -1.
</event>
<event>
 7    1  0.2879200E-015  0.9000771E+02  0.7816164E-02  0.1186339E+00
        -11   -1    0    0    0    0  0.00000000000E+00  0.00000000000E+00  0.45593999997E+02  0.45594000000E+02  0.51100000000E-03 0.  1.
         11   -1    0    0    0    0 -0.00000000000E+00 -0.00000000000E+00 -0.45593999997E+02  0.45594000000E+02  0.51100000000E-03 0. -1.
    9900012    2    1    2    0    0 -0.11181338992E+01 -0.13065144084E+00  0.35466722129E+00  0.90007711030E+02  0.89999972015E+02 0.  0.
        -12    1    1    2    0    0  0.11181338992E+01  0.13065144084E+00 -0.35466722129E+00  0.11802889703E+01  0.00000000000E+00 0.  1.
         11    1    3    3    0    0 -0.92754097109E+01  0.26752999784E+01 -0.29981462797E+00  0.96581750011E+01  0.51100000000E-03 0. -1.
        -11    1    3    3    0    0 -0.23762690165E+02  0.27158731970E+02 -0.40645691373E+01  0.36315050443E+02  0.51100000000E-03 0.  1.
         12    1    3    3    0    0  0.31919965977E+02 -0.29964683389E+02  0.47190509865E+01  0.44034485586E+02  0.00000000000E+00 0. -1.
</event>
<event>
 7    1  0.2879200E-015  0.9000770E+02  0.7816164E-02  0.1186339E+00
        -11   -1    0    0    0    0  0.00000000000E+00  0.00000000000E+00  0.45593999997E+02  0.45594000000E+02  0.51100000000E-03 0.  1.
         11   -1    0    0    0    0 -0.00000000000E+00 -0.00000000000E+00 -0.45593999997E+02  0.45594000000E+02  0.51100000000E-03 0. -1.
    9900012    2    1    2    0    0 -0.40695672004E+00  0.78556432059E+00 -0.78126923775E+00  0.90007700591E+02  0.89999961438E+02 0.  0.
        -12    1    1    2    0    0  0.40695672004E+00 -0.78556432059E+00  0.78126923775E+00  0.11802994093E+01  0.00000000000E+00 0.  1.
         11    1    3    3    0    0  0.10044480745E+02  0.17559980614E+01 -0.26686122267E+01  0.10540237858E+02  0.51100000000E-03 0. -1.
        -11    1    3    3    0    0  0.20421686885E+02  0.22158865409E+02  0.20689761197E+02  0.36553068682E+02  0.51100000000E-03 0.  1.
         12    1    3    3    0    0 -0.30873124349E+02 -0.23129299150E+02 -0.18802418208E+02  0.42914394051E+02  0.00000000000E+00 0. -1.
</event>
<event>
 7    1  0.2879200E-015  0.9000775E+02  0.7816164E-02  0.1186339E+00
        -11   -1    0    0    0    0  0.00000000000E+00  0.00000000000E+00  0.45593999997E+02  0.45594000000E+02  0.51100000000E-03 0.  1.
         11   -1    0    0    0    0 -0.00000000000E+00 -0.00000000000E+00 -0.45593999997E+02  0.45594000000E+02  0.51100000000E-03 0. -1.
    9900012    2    1    2    0    0 -0.53055278963E+00 -0.34827413836E+00 -0.99509050111E+00  0.90007751618E+02  0.90000013139E+02 0.  0.
        -12    1    1    2    0    0  0.53055278963E+00  0.34827413836E+00  0.99509050111E+00  0.11802483821E+01  0.00000000000E+00 0.  1.
         11    1    3    3    0    0 -0.70551474532E+01 -0.46329316283E+01 -0.34489392129E+01  0.91178036289E+01  0.51100000000E-03 0. -1.
        -11    1    3    3    0    0 -0.65956129468E+01 -0.22447424952E+02  0.31535540326E+02  0.39266770953E+02  0.51100000000E-03 0.  1.
         12    1    3    3    0    0  0.13120207610E+02  0.26732082442E+02 -0.29081691614E+02  0.41623177036E+02  0.00000000000E+00 0. -1.
</event>
<event>
 7    1  0.2879200E-015  0.9000788E+02  0.7816164E-02  0.1186339E+00
        -11   -1    0    0    0    0  0.00000000000E+00  0.00000000000E+00  0.45593999997E+02  0.45594000000E+02  0.51100000000E-03 0. -1.
         11   -1    0    0    0    0 -0.00000000000E+00 -0.00000000000E+00 -0.45593999997E+02  0.45594000000E+02  0.51100000000E-03 0.  1.
    9900012    2    1    2    0    0 -0.94569268805E+00 -0.14316571702E+00  0.69126615586E+00  0.90007881370E+02  0.90000144604E+02 0.  0.
        -12    1    1    2    0    0  0.94569268805E+00  0.14316571702E+00 -0.69126615586E+00  0.11801186301E+01  0.00000000000E+00 0.  1.
         11    1    3    3    0    0  0.10476434074E+02 -0.74939148193E+01  0.39231825009E+02  0.41292257434E+02  0.51100000000E-03 0. -1.
        -11    1    3    3    0    0  0.36485023904E+01  0.51320087956E+01  0.96928149711E+00  0.63709175832E+01  0.51100000000E-03 0.  1.
        -12    1    3    3    0    0 -0.15070629152E+02  0.22187403067E+01 -0.39509840350E+02  0.42344706353E+02  0.00000000000E+00 0.  1.
</event>
<event>
 7    1  0.2879200E-015  0.9000775E+02  0.7816164E-02  0.1186339E+00
        -11   -1    0    0    0    0  0.00000000000E+00  0.00000000000E+00  0.45593999997E+02  0.45594000000E+02  0.51100000000E-03 0. -1.
         11   -1    0    0    0    0 -0.00000000000E+00 -0.00000000000E+00 -0.45593999997E+02  0.45594000000E+02  0.51100000000E-03 0.  1.
    9900012    2    1    2    0    0 -0.49282472808E+00 -0.10719030201E+01 -0.33676755806E-01  0.90007751543E+02  0.90000013063E+02 0.  0.
        -12    1    1    2    0    0  0.49282472808E+00  0.10719030201E+01  0.33676755806E-01  0.11802484573E+01  0.00000000000E+00 0.  1.
         11    1    3    3    0    0 -0.22693363538E+02 -0.58258979186E+01  0.28247645939E+02  0.36699582240E+02  0.51100000000E-03 0. -1.
        -11    1    3    3    0    0 -0.74645834994E+00  0.15560232701E+01  0.91365247364E+01  0.92980908258E+01  0.51100000000E-03 0.  1.
        -12    1    3    3    0    0  0.22946997159E+02  0.31979716284E+01 -0.37417847431E+02  0.44010078477E+02  0.00000000000E+00 0.  1.
</event>
<event>
 7    1  0.2879200E-015  0.9000773E+02  0.7816164E-02  0.1186339E+00
        -11   -1    0    0    0    0  0.00000000000E+00  0.00000000000E+00  0.45593999997E+02  0.45594000000E+02  0.51100000000E-03 0.  1.
         11   -1    0    0    0    0 -0.00000000000E+00 -0.00000000000E+00 -0.45593999997E+02  0.45594000000E+02  0.51100000000E-03 0. -1.
    9900012    2    1    2    0    0  0.10764020592E+01 -0.47760227958E+00  0.79355793749E-01  0.90007727713E+02  0.89999988918E+02 0.  0.
        -12    1    1    2    0    0 -0.10764020592E+01  0.47760227958E+00 -0.79355793749E-01  0.11802722874E+01  0.00000000000E+00 0.  1.
         11    1    3    3    0    0  0.17563576468E+01  0.12800505291E+01  0.98181673941E+01  0.10055830785E+02  0.51100000000E-03 0. -1.
        -11    1    3    3    0    0  0.26855734035E+02  0.72531266535E+00  0.24213346420E+02  0.36166872607E+02  0.51100000000E-03 0.  1.
         12    1    3    3    0    0 -0.27535689623E+02 -0.24829654740E+01 -0.33952158020E+02  0.43785024321E+02  0.00000000000E+00 0. -1.
</event>
<event>
 7    1  0.2879200E-015  0.9000771E+02  0.7816164E-02  0.1186339E+00
        -11   -1    0    0    0    0  0.00000000000E+00  0.00000000000E+00  0.45593999997E+02  0.45594000000E+02  0.51100000000E-03 0. -1.
         11   -1    0    0    0    0 -0.00000000000E+00 -0.00000000000E+00 -0.45593999997E+02  0.45594000000E+02  0.51100000000E-03 0.  1.
    9900012    2    1    2    0    0  0.29982685523E+00 -0.11206348781E+01 -0.21760998573E+00  0.90007714959E+02  0.89999975996E+02 0.  0.
        -12    1    1    2    0    0 -0.29982685523E+00  0.11206348781E+01  0.21760998573E+00  0.11802850414E+01  0.00000000000E+00 0.  1.
         11    1    3    3    0    0  0.66724443211E+01 -0.10376233874E+01 -0.23860598270E+01  0.71618054477E+01  0.51100000000E-03 0. -1.
        -11    1    3    3    0    0 -0.34225916027E+02  0.22634572881E+02 -0.14105897801E+02  0.43390247412E+02  0.51100000000E-03 0.  1.
         12    1    3    3    0    0  0.27853298562E+02 -0.22717584372E+02  0.16274347643E+02  0.39455662099E+02  0.00000000000E+00 0. -1.
</event>
<event>
 7    1  0.2879200E-015  0.9000772E+02  0.7816164E-02  0.1186339E+00
        -11   -1    0    0    0    0  0.00000000000E+00  0.00000000000E+00  0.45593999997E+02  0.45594000000E+02  0.51100000000E-03 0. -1.
         11   -1    0    0    0    0 -0.00000000000E+00 -0.00000000000E+00 -0.45593999997E+02  0.45594000000E+02  0.51100000000E-03 0.  1.
    9900012    2    1    2    0    0 -0.92910391664E+00 -0.11029570202E+00 -0.71948836811E+00  0.90007719211E+02  0.89999980304E+02 0.  0.
        -12    1    1    2    0    0  0.92910391664E+00  0.11029570202E+00  0.71948836811E+00  0.11802807893E+01  0.00000000000E+00 0.  1.
         11    1    3    3    0    0 -0.20180330778E+02  0.65731272907E+01  0.34083420054E+02  0.40151354592E+02  0.51100000000E-03 0. -1.
        -11    1    3    3    0    0 -0.21027017688E+01  0.80476672760E+01 -0.30639343009E+01  0.88641974806E+01  0.51100000000E-03 0.  1.
        -12    1    3    3    0    0  0.21353928630E+02 -0.14731090269E+02 -0.31738974121E+02  0.40992167139E+02  0.00000000000E+00 0.  1.
</event>
<event>
 7    1  0.2879200E-015  0.9000769E+02  0.7816164E-02  0.1186339E+00
        -11   -1    0    0    0    0  0.00000000000E+00  0.00000000000E+00  0.45593999997E+02  0.45594000000E+02  0.51100000000E-03 0.  1.
         11   -1    0    0    0    0 -0.00000000000E+00 -0.00000000000E+00 -0.45593999997E+02  0.45594000000E+02  0.51100000000E-03 0. -1.
    9900012    2    1    2    0    0  0.38557532265E+00  0.94387252123E+00 -0.59462455482E+00  0.90007685624E+02  0.89999946274E+02 0.  0.
        -12    1    1    2    0    0 -0.38557532265E+00 -0.94387252123E+00  0.59462455482E+00  0.11803143763E+01  0.00000000000E+00 0.  1.
         11    1    3    3    0    0  0.89991137736E+01  0.64170457374E+00  0.40308741561E+01  0.98814867400E+01  0.51100000000E-03 0. -1.
        -11    1    3    3    0    0  0.30325431137E+02  0.19843094499E+02  0.60956062876E+00  0.36245713365E+02  0.51100000000E-03 0.  1.
         12    1    3    3    0    0 -0.38938969588E+02 -0.19540926551E+02 -0.52350593397E+01  0.43880485518E+02  0.00000000000E+00 0. -1.
</event>
<event>
 7    1  0.2879200E-015  0.9000767E+02  0.7816164E-02  0.1186339E+00
        -11   -1    0    0    0    0  0.00000000000E+00  0.00000000000E+00  0.45593999997E+02  0.45594000000E+02  0.51100000000E-03 0.  1.
         11   -1    0    0    0    0 -0.00000000000E+00 -0.00000000000E+00 -0.45593999997E+02  0.45594000000E+02  0.51100000000E-03 0. -1.
    9900012    2    1    2    0    0 -0.18605708849E+00 -0.11561731557E+01  0.14769875090E+00  0.90007674398E+02  0.89999934900E+02 0.  0.
        -12    1    1    2    0    0  0.18605708849E+00  0.11561731557E+01 -0.14769875090E+00  0.11803256022E+01  0.00000000000E+00 0.  1.
         11    1    3    3    0    0  0.12515751589E+02 -0.60266311886E+01  0.29838355060E+00  0.13894364121E+02  0.51100000000E-03 0. -1.
        -11    1    3    3    0    0  0.28627167050E+01 -0.14800544368E+02  0.31977544824E+02  0.35352717487E+02  0.51100000000E-03 0.  1.
         12    1    3    3    0    0 -0.15564525382E+02  0.19671002401E+02 -0.32128229624E+02  0.40760592790E+02  0.00000000000E+00 0. -1.
</event>
<event>
 7    1  0.4382647E-015  0.9000772E+02  0.7816164E-02  0.1186339E+00
        -11   -1    0    0    0    0  0.00000000000E+00  0.00000000000E+00  0.45593999997E+02  0.45594000000E+02  0.51100000000E-03 0. -1.
         11   -1    0    0    0    0 -0.00000000000E+00 -0.00000000000E+00 -0.45593999997E+02  0.45594000000E+02  0.51100000000E-03 0.  1.
    9900012    2    1    2    0    0 -0.14624318174E+00  0.32200034121E+00  0.11260474266E+01  0.90007722874E+02  0.89999984016E+02 0.  0.
        -12    1    1    2    0    0  0.14624318174E+00 -0.32200034121E+00 -0.11260474266E+01  0.11802771263E+01  0.00000000000E+00 0.  1.
         11    1    3    3    0    0 -0.26332528552E+02 -0.43541552169E+01  0.25329172461E+02  0.36795756622E+02  0.51100000000E-03 0. -1.
        -11    1    3    3    0    0 -0.93295204454E+01 -0.21277337258E+01  0.22642214318E+00  0.95717537472E+01  0.51100000000E-03 0.  1.
        -12    1    3    3    0    0  0.35515805816E+02  0.68038892839E+01 -0.24429547177E+02  0.43640212504E+02  0.00000000000E+00 0.  1.
</event>
<event>
 7    1  0.2879200E-015  0.9000792E+02  0.7816164E-02  0.1186339E+00
        -11   -1    0    0    0    0  0.00000000000E+00  0.00000000000E+00  0.45593999997E+02  0.45594000000E+02  0.51100000000E-03 0.  1.
         11   -1    0    0    0    0 -0.00000000000E+00 -0.00000000000E+00 -0.45593999997E+02  0.45594000000E+02  0.51100000000E-03 0. -1.
    9900012    2    1    2    0    0  0.14937983422E+00  0.17046140337E+00 -0.11581080990E+01  0.90007921276E+02  0.90000185037E+02 0.  0.
        -12    1    1    2    0    0 -0.14937983422E+00 -0.17046140337E+00  0.11581080990E+01  0.11800787236E+01  0.00000000000E+00 0.  1.
         11    1    3    3    0    0 -0.19039305300E+02  0.44802202281E+01  0.20780272121E+01  0.19669410692E+02  0.51100000000E-03 0. -1.
        -11    1    3    3    0    0 -0.38503938666E+01  0.28224281933E+02  0.66794062005E+01  0.29258333702E+02  0.51100000000E-03 0.  1.
         12    1    3    3    0    0  0.23039079001E+02 -0.32534040758E+02 -0.99155415116E+01  0.41080176883E+02  0.00000000000E+00 0. -1.
</event>
<event>
 7    1  0.2879200E-015  0.9000778E+02  0.7816164E-02  0.1186339E+00
        -11   -1    0    0    0    0  0.00000000000E+00  0.00000000000E+00  0.45593999997E+02  0.45594000000E+02  0.51100000000E-03 0.  1.
         11   -1    0    0    0    0 -0.00000000000E+00 -0.00000000000E+00 -0.45593999997E+02  0.45594000000E+02  0.51100000000E-03 0. -1.
    9900012    2    1    2    0    0 -0.43090340892E+00 -0.22515976268E+00 -0.10754241133E+01  0.90007783202E+02  0.90000045140E+02 0.  0.
        -12    1    1    2    0    0  0.43090340892E+00  0.22515976268E+00  0.10754241133E+01  0.11802167979E+01  0.00000000000E+00 0.  1.
         11    1    3    3    0    0 -0.84014818537E+01 -0.10744130320E+01  0.52679138907E+01  0.99744763132E+01  0.51100000000E-03 0. -1.
        -11    1    3    3    0    0  0.63305087446E+01 -0.11225795342E+02  0.34807128868E+02  0.37116438977E+02  0.51100000000E-03 0.  1.
         12    1    3    3    0    0  0.16400697002E+01  0.12075048612E+02 -0.41150466872E+02  0.42916867912E+02  0.00000000000E+00 0. -1.
</event>
<event>
 7    1  0.2879200E-015  0.9000758E+02  0.7816164E-02  0.1186339E+00
        -11   -1    0    0    0    0  0.00000000000E+00  0.00000000000E+00  0.45593999997E+02  0.45594000000E+02  0.51100000000E-03 0. -1.
         11   -1    0    0    0    0 -0.00000000000E+00 -0.00000000000E+00 -0.45593999997E+02  0.45594000000E+02  0.51100000000E-03 0.  1.
    9900012    2    1    2    0    0  0.88082566234E+00 -0.76972226373E+00  0.15830060059E+00  0.90007582578E+02  0.89999841868E+02 0.  0.
        -12    1    1    2    0    0 -0.88082566234E+00  0.76972226373E+00 -0.15830060059E+00  0.11804174223E+01  0.00000000000E+00 0.  1.
         11    1    3    3    0    0 -0.45122081452E+01  0.20612813915E+01  0.47570242905E+01  0.68730039781E+01  0.51100000000E-03 0. -1.
        -11    1    3    3    0    0 -0.41770420722E+01 -0.24243372792E+02 -0.36207941076E+02  0.43774465183E+02  0.51100000000E-03 0.  1.
         12    1    3    3    0    0  0.95700758797E+01  0.21412369137E+02  0.31609217386E+02  0.39360113417E+02  0.00000000000E+00 0. -1.
</event>
<event>
 7    1  0.2879200E-015  0.9000776E+02  0.7816164E-02  0.1186339E+00
        -11   -1    0    0    0    0  0.00000000000E+00  0.00000000000E+00  0.45593999997E+02  0.45594000000E+02  0.51100000000E-03 0. -1.
         11   -1    0    0    0    0 -0.00000000000E+00 -0.00000000000E+00 -0.45593999997E+02  0.45594000000E+02  0.51100000000E-03 0.  1.
    9900012    2    1    2    0    0  0.36809716654E+00 -0.11158189020E+01  0.11144710204E+00  0.90007759430E+02  0.90000021055E+02 0.  0.
        -12    1    1    2    0    0 -0.36809716654E+00  0.11158189020E+01 -0.11144710204E+00  0.11802405698E+01  0.00000000000E+00 0.  1.
         11    1    3    3    0    0  0.17458006050E+02 -0.26309088711E+02  0.22835238446E+02  0.38966629816E+02  0.51100000000E-03 0. -1.
        -11    1    3    3    0    0 -0.12945305559E+02 -0.10778823178E+01  0.37443194542E+01  0.13518975358E+02  0.51100000000E-03 0.  1.
        -12    1    3    3    0    0 -0.41446033246E+01  0.26271152127E+02 -0.26468110798E+02  0.37522154256E+02  0.00000000000E+00 0.  1.
</event>
<event>
 7    1  0.2879200E-015  0.9000796E+02  0.7816164E-02  0.1186339E+00
        -11   -1    0    0    0    0  0.00000000000E+00  0.00000000000E+00  0.45593999997E+02  0.45594000000E+02  0.51100000000E-03 0.  1.
         11   -1    0    0    0    0 -0.00000000000E+00 -0.00000000000E+00 -0.45593999997E+02  0.45594000000E+02  0.51100000000E-03 0. -1.
    9900012    2    1    2    0    0  0.46437381009E+00  0.16098496997E+00 -0.10728148059E+01  0.90007961524E+02  0.90000225816E+02 0.  0.
        -12    1    1    2    0    0 -0.46437381009E+00 -0.16098496997E+00  0.10728148059E+01  0.11800384756E+01  0.00000000000E+00 0.  1.
         11    1    3    3    0    0 -0.46080268716E+01 -0.33402093549E+01 -0.67839842582E+01  0.88551314423E+01  0.51100000000E-03 0. -1.
        -11    1    3    3    0    0  0.23396511131E+02 -0.26023846101E+02 -0.17736334790E+02  0.39232828996E+02  0.51100000000E-03 0.  1.
         12    1    3    3    0    0 -0.18324110449E+02  0.29525040426E+02  0.23447504242E+02  0.41920001086E+02  0.00000000000E+00 0. -1.
</event>
<event>
 7    1  0.2879200E-015  0.9000897E+02  0.7816164E-02  0.1186337E+00
        -11   -1    0    0    0    0  0.00000000000E+00  0.00000000000E+00  0.45593999997E+02  0.45594000000E+02  0.51100000000E-03 0.  1.
         11   -1    0    0    0    0 -0.00000000000E+00 -0.00000000000E+00 -0.45593999997E+02  0.45594000000E+02  0.51100000000E-03 0. -1.
    9900012    2    1    2    0    0 -0.56634031299E+00 -0.10147857499E+01  0.19896538516E+00  0.90008967052E+02  0.90001244608E+02 0.  0.
        -12    1    1    2    0    0  0.56634031299E+00  0.10147857499E+01 -0.19896538516E+00  0.11790329481E+01  0.00000000000E+00 0.  1.
         11    1    3    3    0    0  0.78988446698E+01 -0.13285346557E+01  0.63799125036E+01  0.10240118909E+02  0.51100000000E-03 0. -1.
        -11    1    3    3    0    0  0.47515086390E+00 -0.14933496812E+02  0.33307522694E+02  0.36505152564E+02  0.51100000000E-03 0.  1.
         12    1    3    3    0    0 -0.89403358467E+01  0.15247245718E+02 -0.39488469813E+02  0.43263695580E+02  0.00000000000E+00 0. -1.
</event>
<event>
 7    1  0.2879200E-015  0.9000775E+02  0.7816164E-02  0.1186339E+00
        -11   -1    0    0    0    0  0.00000000000E+00  0.00000000000E+00  0.45593999997E+02  0.45594000000E+02  0.51100000000E-03 0.  1.
         11   -1    0    0    0    0 -0.00000000000E+00 -0.00000000000E+00 -0.45593999997E+02  0.45594000000E+02  0.51100000000E-03 0. -1.
    9900012    2    1    2    0    0  0.11942895219E+00 -0.71913071201E+00  0.92821629838E+00  0.90007746742E+02  0.90000008199E+02 0.  0.
        -12    1    1    2    0    0 -0.11942895219E+00  0.71913071201E+00 -0.92821629838E+00  0.11802532576E+01  0.00000000000E+00 0.  1.
         11    1    3    3    0    0 -0.10312994003E+02  0.39880266196E+02 -0.54987723090E+01  0.41557550149E+02  0.51100000000E-03 0. -1.
        -11    1    3    3    0    0 -0.66728141133E+01 -0.55400559346E+01 -0.10315464770E+01  0.87340000197E+01  0.51100000000E-03 0.  1.
        -12    1    3    3    0    0  0.17105237069E+02 -0.35059340974E+02  0.74585350843E+01  0.39716196574E+02  0.00000000000E+00 0.  1.
</event>
<event>
 7    1  0.2879200E-015  0.9000778E+02  0.7816164E-02  0.1186339E+00
        -11   -1    0    0    0    0  0.00000000000E+00  0.00000000000E+00  0.45593999997E+02  0.45594000000E+02  0.51100000000E-03 0.  1.
         11   -1    0    0    0    0 -0.00000000000E+00 -0.00000000000E+00 -0.45593999997E+02  0.45594000000E+02  0.51100000000E-03 0. -1.
    9900012    2    1    2    0    0 -0.10724468659E+01  0.47969012295E+00 -0.11261295924E+00  0.90007776897E+02  0.90000038752E+02 0.  0.
        -12    1    1    2    0    0  0.10724468659E+01 -0.47969012295E+00  0.11261295924E+00  0.11802231030E+01  0.00000000000E+00 0.  1.
         11    1    3    3    0    0 -0.28392301089E+02  0.24444420488E+02  0.19505341359E+02  0.42238735729E+02  0.51100000000E-03 0. -1.
        -11    1    3    3    0    0  0.90806406631E+01 -0.51003974653E+00  0.38803633481E+01  0.98881441823E+01  0.51100000000E-03 0.  1.
        -12    1    3    3    0    0  0.18239213560E+02 -0.23454690619E+02 -0.23498317667E+02  0.37880896986E+02  0.00000000000E+00 0.  1.
</event>
<event>
 7    1  0.2879200E-015  0.9000776E+02  0.7816164E-02  0.1186339E+00
        -11   -1    0    0    0    0  0.00000000000E+00  0.00000000000E+00  0.45593999997E+02  0.45594000000E+02  0.51100000000E-03 0.  1.
         11   -1    0    0    0    0 -0.00000000000E+00 -0.00000000000E+00 -0.45593999997E+02  0.45594000000E+02  0.51100000000E-03 0. -1.
    9900012    2    1    2    0    0  0.91125168494E+00  0.61884607079E+00 -0.42379949442E+00  0.90007764386E+02  0.90000026076E+02 0.  0.
        -12    1    1    2    0    0 -0.91125168494E+00 -0.61884607079E+00  0.42379949442E+00  0.11802356138E+01  0.00000000000E+00 0.  1.
         11    1    3    3    0    0  0.17910675688E+02  0.39219919703E+02  0.56214064291E+01  0.43480968430E+02  0.51100000000E-03 0. -1.
        -11    1    3    3    0    0 -0.62394671512E+00 -0.11043907624E+02  0.56293593810E+01  0.12411562852E+02  0.51100000000E-03 0.  1.
        -12    1    3    3    0    0 -0.16375477288E+02 -0.27557166007E+02 -0.11674565305E+02  0.34115233105E+02  0.00000000000E+00 0.  1.
</event>
<event>
 7    1  0.2879200E-015  0.9000772E+02  0.7816164E-02  0.1186339E+00
        -11   -1    0    0    0    0  0.00000000000E+00  0.00000000000E+00  0.45593999997E+02  0.45594000000E+02  0.51100000000E-03 0.  1.
         11   -1    0    0    0    0 -0.00000000000E+00 -0.00000000000E+00 -0.45593999997E+02  0.45594000000E+02  0.51100000000E-03 0. -1.
    9900012    2    1    2    0    0 -0.11346210061E+01 -0.17284070939E+00 -0.27533846783E+00  0.90007724604E+02  0.89999985769E+02 0.  0.
        -12    1    1    2    0    0  0.11346210061E+01  0.17284070939E+00  0.27533846783E+00  0.11802753959E+01  0.00000000000E+00 0.  1.
         11    1    3    3    0    0 -0.44135327771E+01  0.60854461781E+01  0.43532185573E+01  0.86869119271E+01  0.51100000000E-03 0. -1.
        -11    1    3    3    0    0 -0.21259644986E+02  0.29444387179E+02 -0.99946095004E+01  0.37667448289E+02  0.51100000000E-03 0.  1.
         12    1    3    3    0    0  0.24538556757E+02 -0.35702674066E+02  0.53660524754E+01  0.43653364388E+02  0.00000000000E+00 0. -1.
</event>
<event>
 7    1  0.2879200E-015  0.9000776E+02  0.7816164E-02  0.1186339E+00
        -11   -1    0    0    0    0  0.00000000000E+00  0.00000000000E+00  0.45593999997E+02  0.45594000000E+02  0.51100000000E-03 0. -1.
         11   -1    0    0    0    0 -0.00000000000E+00 -0.00000000000E+00 -0.45593999997E+02  0.45594000000E+02  0.51100000000E-03 0.  1.
    9900012    2    1    2    0    0 -0.26815503585E+00  0.11454768299E+01 -0.94559602628E-01  0.90007760275E+02  0.90000021910E+02 0.  0.
        -12    1    1    2    0    0  0.26815503585E+00 -0.11454768299E+01  0.94559602628E-01  0.11802397254E+01  0.00000000000E+00 0.  1.
         11    1    3    3    0    0  0.97413959148E+01  0.12937612766E+02  0.37161230486E+02  0.40536818695E+02  0.51100000000E-03 0. -1.
        -11    1    3    3    0    0  0.10001278615E+02 -0.51912654472E+01 -0.10388516722E+02  0.15326320199E+02  0.51100000000E-03 0.  1.
        -12    1    3    3    0    0 -0.20010829566E+02 -0.66008704884E+01 -0.26867273366E+02  0.34144621381E+02  0.00000000000E+00 0.  1.
</event>
<event>
 7    1  0.2879200E-015  0.9000774E+02  0.7816164E-02  0.1186339E+00
        -11   -1    0    0    0    0  0.00000000000E+00  0.00000000000E+00  0.45593999997E+02  0.45594000000E+02  0.51100000000E-03 0. -1.
         11   -1    0    0    0    0 -0.00000000000E+00 -0.00000000000E+00 -0.45593999997E+02  0.45594000000E+02  0.51100000000E-03 0.  1.
    9900012    2    1    2    0    0  0.98796322194E+00  0.27223367717E+00 -0.58551825020E+00  0.90007739807E+02  0.90000001172E+02 0.  0.
        -12    1    1    2    0    0 -0.98796322194E+00 -0.27223367717E+00  0.58551825020E+00  0.11802601934E+01  0.00000000000E+00 0.  1.
         11    1    3    3    0    0 -0.19890071221E+02 -0.33386639339E+02  0.52602125700E+01  0.39216736938E+02  0.51100000000E-03 0. -1.
        -11    1    3    3    0    0  0.78752223459E+01 -0.44625858313E+01  0.30323265184E+01  0.95461407738E+01  0.51100000000E-03 0.  1.
        -12    1    3    3    0    0  0.13002812097E+02  0.38121458848E+02 -0.88780573386E+01  0.41244862095E+02  0.00000000000E+00 0.  1.
</event>
<event>
 7    1  0.2879200E-015  0.9000789E+02  0.7816164E-02  0.1186339E+00
        -11   -1    0    0    0    0  0.00000000000E+00  0.00000000000E+00  0.45593999997E+02  0.45594000000E+02  0.51100000000E-03 0. -1.
         11   -1    0    0    0    0 -0.00000000000E+00 -0.00000000000E+00 -0.45593999997E+02  0.45594000000E+02  0.51100000000E-03 0.  1.
    9900012    2    1    2    0    0 -0.99392619041E+00 -0.26175210504E+00 -0.57988546671E+00  0.90007885348E+02  0.90000148635E+02 0.  0.
        -12    1    1    2    0    0  0.99392619041E+00  0.26175210504E+00  0.57988546671E+00  0.11801146516E+01  0.00000000000E+00 0.  1.
         11    1    3    3    0    0 -0.35914764095E+01  0.60471865933E+00 -0.10468796859E+02  0.11084227325E+02  0.51100000000E-03 0. -1.
        -11    1    3    3    0    0 -0.15650116646E+02 -0.18768386443E+02 -0.25466637925E+02  0.35294873964E+02  0.51100000000E-03 0.  1.
         12    1    3    3    0    0  0.18247666866E+02  0.17901915678E+02  0.35355549317E+02  0.43628784059E+02  0.00000000000E+00 0. -1.
</event>
<event>
 7    1  0.2879200E-015  0.9000775E+02  0.7816164E-02  0.1186339E+00
        -11   -1    0    0    0    0  0.00000000000E+00  0.00000000000E+00  0.45593999997E+02  0.45594000000E+02  0.51100000000E-03 0. -1.
         11   -1    0    0    0    0 -0.00000000000E+00 -0.00000000000E+00 -0.45593999997E+02  0.45594000000E+02  0.51100000000E-03 0.  1.
    9900012    2    1    2    0    0 -0.32036727588E+00 -0.30309260423E+00  0.10947553121E+01  0.90007750233E+02  0.90000011736E+02 0.  0.
        -12    1    1    2    0    0  0.32036727588E+00  0.30309260423E+00 -0.10947553121E+01  0.11802497666E+01  0.00000000000E+00 0.  1.
         11    1    3    3    0    0 -0.20638186660E+02  0.19593085260E+02  0.30689532316E+02  0.41852970416E+02  0.51100000000E-03 0. -1.
        -11    1    3    3    0    0  0.28984847479E+00 -0.63934147986E+01  0.34128555909E+01  0.72530923385E+01  0.51100000000E-03 0.  1.
        -12    1    3    3    0    0  0.20027970909E+02 -0.13502763066E+02 -0.33007632595E+02  0.40901687479E+02  0.00000000000E+00 0.  1.
</event>
<event>
 7    1  0.2879200E-015  0.9000770E+02  0.7816164E-02  0.1186339E+00
        -11   -1    0    0    0    0  0.00000000000E+00  0.00000000000E+00  0.45593999997E+02  0.45594000000E+02  0.51100000000E-03 0.  1.
         11   -1    0    0    0    0 -0.00000000000E+00 -0.00000000000E+00 -0.45593999997E+02  0.45594000000E+02  0.51100000000E-03 0. -1.
    9900012    2    1    2    0    0 -0.10169430702E+01 -0.33257983928E+00 -0.49831706816E+00  0.90007702386E+02  0.89999963257E+02 0.  0.
        -12    1    1    2    0    0  0.10169430702E+01  0.33257983928E+00  0.49831706816E+00  0.11802976141E+01  0.00000000000E+00 0.  1.
         11    1    3    3    0    0  0.23051189408E+01 -0.49774569893E+01  0.95184284468E+01  0.10985860538E+02  0.51100000000E-03 0. -1.
        -11    1    3    3    0    0  0.12285476450E+02  0.30366715338E+02  0.18455343746E+02  0.37598803771E+02  0.51100000000E-03 0.  1.
         12    1    3    3    0    0 -0.15607538461E+02 -0.25721838188E+02 -0.28472089261E+02  0.41423038076E+02  0.00000000000E+00 0. -1.
</event>
<event>
 7    1  0.2879200E-015  0.9000773E+02  0.7816164E-02  0.1186339E+00
        -11   -1    0    0    0    0  0.00000000000E+00  0.00000000000E+00  0.45593999997E+02  0.45594000000E+02  0.51100000000E-03 0. -1.
         11   -1    0    0    0    0 -0.00000000000E+00 -0.00000000000E+00 -0.45593999997E+02  0.45594000000E+02  0.51100000000E-03 0.  1.
    9900012    2    1    2    0    0 -0.10793074350E+01 -0.42507452517E+00  0.21784276755E+00  0.90007725302E+02  0.89999986476E+02 0.  0.
        -12    1    1    2    0    0  0.10793074350E+01  0.42507452517E+00 -0.21784276755E+00  0.11802746979E+01  0.00000000000E+00 0.  1.
         11    1    3    3    0    0 -0.12709794982E+02  0.33836658639E+02  0.12420855276E+02  0.38219576167E+02  0.51100000000E-03 0. -1.
        -11    1    3    3    0    0  0.42763697784E+01  0.64403533009E+01 -0.63712834417E+01  0.10017921046E+02  0.51100000000E-03 0.  1.
        -12    1    3    3    0    0  0.73541177684E+01 -0.40702086465E+02 -0.58317290666E+01  0.41770228090E+02  0.00000000000E+00 0.  1.
</event>
<event>
 7    1  0.2879200E-015  0.9000836E+02  0.7816164E-02  0.1186338E+00
        -11   -1    0    0    0    0  0.00000000000E+00  0.00000000000E+00  0.45593999997E+02  0.45594000000E+02  0.51100000000E-03 0. -1.
         11   -1    0    0    0    0 -0.00000000000E+00 -0.00000000000E+00 -0.45593999997E+02  0.45594000000E+02  0.51100000000E-03 0.  1.
    9900012    2    1    2    0    0 -0.10641981216E+01 -0.34360670632E+00 -0.37545768765E+00  0.90008359510E+02  0.90000629053E+02 0.  0.
        -12    1    1    2    0    0  0.10641981216E+01  0.34360670632E+00  0.37545768765E+00  0.11796404901E+01  0.00000000000E+00 0.  1.
         11    1    3    3    0    0 -0.33820127368E+02 -0.13034706243E+02  0.28861657697E+01  0.36359792837E+02  0.51100000000E-03 0. -1.
        -11    1    3    3    0    0 -0.85854409681E+01 -0.15824183166E+01 -0.46485220993E+01  0.98905309420E+01  0.51100000000E-03 0.  1.
        -12    1    3    3    0    0  0.41341370215E+02  0.14273517854E+02  0.13868986420E+01  0.43758035731E+02  0.00000000000E+00 0.  1.
</event>
<event>
 7    1  0.2879200E-015  0.9000769E+02  0.7816164E-02  0.1186339E+00
        -11   -1    0    0    0    0  0.00000000000E+00  0.00000000000E+00  0.45593999997E+02  0.45594000000E+02  0.51100000000E-03 0.  1.
         11   -1    0    0    0    0 -0.00000000000E+00 -0.00000000000E+00 -0.45593999997E+02  0.45594000000E+02  0.51100000000E-03 0. -1.
    9900012    2    1    2    0    0 -0.30753653179E+00 -0.72371767492E+00 -0.88021893888E+00  0.90007690137E+02  0.89999950847E+02 0.  0.
        -12    1    1    2    0    0  0.30753653179E+00  0.72371767492E+00  0.88021893888E+00  0.11803098626E+01  0.00000000000E+00 0.  1.
         11    1    3    3    0    0  0.27573956684E+02 -0.63443518615E+01 -0.48815659892E+01  0.28712428921E+02  0.51100000000E-03 0. -1.
        -11    1    3    3    0    0  0.15247139653E+02 -0.50078337167E+01  0.51707725381E+01  0.16860917978E+02  0.51100000000E-03 0.  1.
        -12    1    3    3    0    0 -0.43128632869E+02  0.10628467903E+02 -0.11694254878E+01  0.44434343239E+02  0.00000000000E+00 0.  1.
</event>
<event>
 7    1  0.2879200E-015  0.9000772E+02  0.7816164E-02  0.1186339E+00
        -11   -1    0    0    0    0  0.00000000000E+00  0.00000000000E+00  0.45593999997E+02  0.45594000000E+02  0.51100000000E-03 0.  1.
         11   -1    0    0    0    0 -0.00000000000E+00 -0.00000000000E+00 -0.45593999997E+02  0.45594000000E+02  0.51100000000E-03 0. -1.
    9900012    2    1    2    0    0  0.40709335574E+00  0.66704527316E+00 -0.88452717654E+00  0.90007719219E+02  0.89999980312E+02 0.  0.
        -12    1    1    2    0    0 -0.40709335574E+00 -0.66704527316E+00  0.88452717654E+00  0.11802807813E+01  0.00000000000E+00 0.  1.
         11    1    3    3    0    0 -0.81852889583E+01 -0.52456290239E+01  0.24454731435E+01  0.10024765251E+02  0.51100000000E-03 0. -1.
        -11    1    3    3    0    0  0.15712270059E+02  0.30590629542E+02  0.24414404267E+02  0.42174935473E+02  0.51100000000E-03 0.  1.
         12    1    3    3    0    0 -0.71198877450E+01 -0.24677955245E+02 -0.27744404587E+02  0.37808018494E+02  0.00000000000E+00 0. -1.
</event>
<event>
 7    1  0.2879200E-015  0.9000777E+02  0.7816164E-02  0.1186339E+00
        -11   -1    0    0    0    0  0.00000000000E+00  0.00000000000E+00  0.45593999997E+02  0.45594000000E+02  0.51100000000E-03 0.  1.
         11   -1    0    0    0    0 -0.00000000000E+00 -0.00000000000E+00 -0.45593999997E+02  0.45594000000E+02  0.51100000000E-03 0. -1.
    9900012    2    1    2    0    0 -0.48746472058E+00  0.82319272623E+00 -0.69113512301E+00  0.90007772955E+02  0.90000034758E+02 0.  0.
        -12    1    1    2    0    0  0.48746472058E+00 -0.82319272623E+00  0.69113512301E+00  0.11802270445E+01  0.00000000000E+00 0.  1.
         11    1    3    3    0    0  0.39306443933E+02  0.61774149944E+01  0.13151558696E+01  0.39810634583E+02  0.51100000000E-03 0. -1.
        -11    1    3    3    0    0 -0.21433031218E+00 -0.42440645839E+01  0.82632494443E+01  0.92918950335E+01  0.51100000000E-03 0.  1.
        -12    1    3    3    0    0 -0.39579578342E+02 -0.11101576842E+01 -0.10269540437E+02  0.40905243339E+02  0.00000000000E+00 0.  1.
</event>
<event>
 7    1  0.2879200E-015  0.9000775E+02  0.7816164E-02  0.1186339E+00
        -11   -1    0    0    0    0  0.00000000000E+00  0.00000000000E+00  0.45593999997E+02  0.45594000000E+02  0.51100000000E-03 0. -1.
         11   -1    0    0    0    0 -0.00000000000E+00 -0.00000000000E+00 -0.45593999997E+02  0.45594000000E+02  0.51100000000E-03 0.  1.
    9900012    2    1    2    0    0 -0.38075574730E+00  0.56764487343E+00  0.96218753246E+00  0.90007745583E+02  0.90000007025E+02 0.  0.
        -12    1    1    2    0    0  0.38075574730E+00 -0.56764487343E+00 -0.96218753246E+00  0.11802544171E+01  0.00000000000E+00 0.  1.
         11    1    3    3    0    0  0.70177009256E+01 -0.19678074127E+02  0.98451539816E+01  0.23095492738E+02  0.51100000000E-03 0. -1.
        -11    1    3    3    0    0 -0.29795019168E+02  0.70413817970E+01 -0.22087905295E+02  0.37751818306E+02  0.51100000000E-03 0.  1.
         12    1    3    3    0    0  0.22396562495E+02  0.13204337203E+02  0.13204938846E+02  0.29160434539E+02  0.00000000000E+00 0. -1.
</event>
<event>
 7    1  0.2879200E-015  0.9000778E+02  0.7816164E-02  0.1186339E+00
        -11   -1    0    0    0    0  0.00000000000E+00  0.00000000000E+00  0.45593999997E+02  0.45594000000E+02  0.51100000000E-03 0.  1.
         11   -1    0    0    0    0 -0.00000000000E+00 -0.00000000000E+00 -0.45593999997E+02  0.45594000000E+02  0.51100000000E-03 0. -1.
    9900012    2    1    2    0    0 -0.25967214529E+00 -0.30750822173E+00 -0.11094743020E+01  0.90007777921E+02  0.90000039789E+02 0.  0.
        -12    1    1    2    0    0  0.25967214529E+00  0.30750822173E+00  0.11094743020E+01  0.11802220792E+01  0.00000000000E+00 0.  1.
         11    1    3    3    0    0  0.74850433717E+01  0.10463219081E+01  0.64536810404E+01  0.99383430734E+01  0.51100000000E-03 0. -1.
        -11    1    3    3    0    0  0.75072565209E+01  0.10725862886E+02  0.32770183026E+02  0.35288637419E+02  0.51100000000E-03 0.  1.
         12    1    3    3    0    0 -0.15251972038E+02 -0.12079693016E+02 -0.40333338368E+02  0.44780797428E+02  0.00000000000E+00 0. -1.
</event>
<event>
 7    1  0.2879200E-015  0.9000769E+02  0.7816164E-02  0.1186339E+00
        -11   -1    0    0    0    0  0.00000000000E+00  0.00000000000E+00  0.45593999997E+02  0.45594000000E+02  0.51100000000E-03 0. -1.
         11   -1    0    0    0    0 -0.00000000000E+00 -0.00000000000E+00 -0.45593999997E+02  0.45594000000E+02  0.51100000000E-03 0.  1.
    9900012    2    1    2    0    0 -0.80463491231E+00 -0.85582537064E+00  0.11515113963E+00  0.90007688943E+02  0.89999949637E+02 0.  0.
        -12    1    1    2    0    0  0.80463491231E+00  0.85582537064E+00 -0.11515113963E+00  0.11803110573E+01  0.00000000000E+00 0.  1.
         11    1    3    3    0    0  0.83382137961E+00  0.21338305602E+02  0.36015005563E+02  0.41870027108E+02  0.51100000000E-03 0. -1.
        -11    1    3    3    0    0 -0.46807078295E+01 -0.75855868751E+01  0.36692519845E+00  0.89210306796E+01  0.51100000000E-03 0.  1.
        -12    1    3    3    0    0  0.30422515375E+01 -0.14608544098E+02 -0.36266779621E+02  0.39216631155E+02  0.00000000000E+00 0.  1.
</event>
<event>
 7    1  0.2879200E-015  0.9000777E+02  0.7816164E-02  0.1186339E+00
        -11   -1    0    0    0    0  0.00000000000E+00  0.00000000000E+00  0.45593999997E+02  0.45594000000E+02  0.51100000000E-03 0. -1.
         11   -1    0    0    0    0 -0.00000000000E+00 -0.00000000000E+00 -0.45593999997E+02  0.45594000000E+02  0.51100000000E-03 0.  1.
    9900012    2    1    2    0    0  0.86389245020E-01 -0.11502718462E+01 -0.24972349871E+00  0.90007766867E+02  0.90000028590E+02 0.  0.
        -12    1    1    2    0    0 -0.86389245020E-01  0.11502718462E+01  0.24972349871E+00  0.11802331328E+01  0.00000000000E+00 0.  1.
         11    1    3    3    0    0 -0.23280193707E+02 -0.30972008861E+01  0.26942960566E+02  0.35741896937E+02  0.51100000000E-03 0. -1.
        -11    1    3    3    0    0 -0.75446718478E+01  0.15041330458E-01  0.54202548269E+01  0.92898580282E+01  0.51100000000E-03 0.  1.
        -12    1    3    3    0    0  0.30911254800E+02  0.19318877094E+01 -0.32612938892E+02  0.44976011902E+02  0.00000000000E+00 0.  1.
</event>
<event>
 7    1  0.2879200E-015  0.9000785E+02  0.7816164E-02  0.1186339E+00
        -11   -1    0    0    0    0  0.00000000000E+00  0.00000000000E+00  0.45593999997E+02  0.45594000000E+02  0.51100000000E-03 0.  1.
         11   -1    0    0    0    0 -0.00000000000E+00 -0.00000000000E+00 -0.45593999997E+02  0.45594000000E+02  0.51100000000E-03 0. -1.
    9900012    2    1    2    0    0  0.76912522300E+00 -0.88208712952E+00 -0.15204836921E+00  0.90007851696E+02  0.90000114538E+02 0.  0.
        -12    1    1    2    0    0 -0.76912522300E+00  0.88208712952E+00  0.15204836921E+00  0.11801483039E+01  0.00000000000E+00 0.  1.
         11    1    3    3    0    0 -0.13635402734E+01 -0.25149349748E+02 -0.31787669359E+02  0.40556195067E+02  0.51100000000E-03 0. -1.
        -11    1    3    3    0    0 -0.73367839271E+01 -0.36550967070E+01  0.43522549276E+01  0.92806386390E+01  0.51100000000E-03 0.  1.
        -12    1    3    3    0    0  0.94694494235E+01  0.27922359325E+02  0.27283366062E+02  0.40171017990E+02  0.00000000000E+00 0.  1.
</event>
<event>
 7    1  0.2879200E-015  0.9000776E+02  0.7816164E-02  0.1186339E+00
        -11   -1    0    0    0    0  0.00000000000E+00  0.00000000000E+00  0.45593999997E+02  0.45594000000E+02  0.51100000000E-03 0. -1.
         11   -1    0    0    0    0 -0.00000000000E+00 -0.00000000000E+00 -0.45593999997E+02  0.45594000000E+02  0.51100000000E-03 0.  1.
    9900012    2    1    2    0    0  0.10418922914E+01  0.32274461851E+00 -0.45084458352E+00  0.90007760840E+02  0.90000022483E+02 0.  0.
        -12    1    1    2    0    0 -0.10418922914E+01 -0.32274461851E+00  0.45084458352E+00  0.11802391597E+01  0.00000000000E+00 0.  1.
         11    1    3    3    0    0  0.89469969624E+01  0.10110078990E+02  0.12862582671E+02  0.18646943049E+02  0.51100000000E-03 0. -1.
        -11    1    3    3    0    0 -0.13873334265E+02  0.27774836157E+02  0.53346786293E-01  0.31046960774E+02  0.51100000000E-03 0.  1.
         12    1    3    3    0    0  0.59682295940E+01 -0.37562170529E+02 -0.13366774041E+02  0.40313857017E+02  0.00000000000E+00 0. -1.
</event>
<event>
 7    1  0.2879200E-015  0.9000771E+02  0.7816164E-02  0.1186339E+00
        -11   -1    0    0    0    0  0.00000000000E+00  0.00000000000E+00  0.45593999997E+02  0.45594000000E+02  0.51100000000E-03 0.  1.
         11   -1    0    0    0    0 -0.00000000000E+00 -0.00000000000E+00 -0.45593999997E+02  0.45594000000E+02  0.51100000000E-03 0. -1.
    9900012    2    1    2    0    0 -0.10094127392E+01 -0.48918573609E+00 -0.36722973393E+00  0.90007714255E+02  0.89999975283E+02 0.  0.
        -12    1    1    2    0    0  0.10094127392E+01  0.48918573609E+00  0.36722973393E+00  0.11802857451E+01  0.00000000000E+00 0.  1.
         11    1    3    3    0    0  0.22646021905E+02  0.17298038679E+02 -0.29722257647E+02  0.41176170901E+02  0.51100000000E-03 0. -1.
        -11    1    3    3    0    0 -0.10947954421E+02 -0.48207260344E+01 -0.24489910608E+01  0.12210432547E+02  0.51100000000E-03 0.  1.
        -12    1    3    3    0    0 -0.12707480223E+02 -0.12966498380E+02  0.31804018973E+02  0.36621110807E+02  0.00000000000E+00 0.  1.
</event>
<event>
 7    1  0.2879200E-015  0.9000765E+02  0.7816164E-02  0.1186339E+00
        -11   -1    0    0    0    0  0.00000000000E+00  0.00000000000E+00  0.45593999997E+02  0.45594000000E+02  0.51100000000E-03 0. -1.
         11   -1    0    0    0    0 -0.00000000000E+00 -0.00000000000E+00 -0.45593999997E+02  0.45594000000E+02  0.51100000000E-03 0.  1.
    9900012    2    1    2    0    0 -0.10705025986E+01  0.44640076780E+00 -0.21901437240E+00  0.90007653968E+02  0.89999914201E+02 0.  0.
        -12    1    1    2    0    0  0.10705025986E+01 -0.44640076780E+00  0.21901437240E+00  0.11803460317E+01  0.00000000000E+00 0.  1.
         11    1    3    3    0    0 -0.12913941435E+02  0.27859862215E+02  0.18252967249E+02  0.35722718537E+02  0.51100000000E-03 0. -1.
        -11    1    3    3    0    0 -0.32560237962E+01  0.76543533869E+01  0.47679743946E+01  0.95877211485E+01  0.51100000000E-03 0.  1.
        -12    1    3    3    0    0  0.15099462633E+02 -0.35067814834E+02 -0.23239956016E+02  0.44697214283E+02  0.00000000000E+00 0.  1.
</event>
<event>
 7    1  0.2879200E-015  0.9000771E+02  0.7816164E-02  0.1186339E+00
        -11   -1    0    0    0    0  0.00000000000E+00  0.00000000000E+00  0.45593999997E+02  0.45594000000E+02  0.51100000000E-03 0. -1.
         11   -1    0    0    0    0 -0.00000000000E+00 -0.00000000000E+00 -0.45593999997E+02  0.45594000000E+02  0.51100000000E-03 0.  1.
    9900012    2    1    2    0    0 -0.80576512233E+00 -0.45794841502E+00  0.73083651872E+00  0.90007705037E+02  0.89999965943E+02 0.  0.
        -12    1    1    2    0    0  0.80576512233E+00  0.45794841502E+00 -0.73083651872E+00  0.11802949632E+01  0.00000000000E+00 0.  1.
         11    1    3    3    0    0 -0.96158306268E+01  0.31330679001E+01 -0.79991196747E+00  0.10144957985E+02  0.51100000000E-03 0. -1.
        -11    1    3    3    0    0  0.51304352372E+01 -0.40863745968E+02 -0.61160236636E+01  0.41636196344E+02  0.51100000000E-03 0.  1.
         12    1    3    3    0    0  0.36796302673E+01  0.37272729653E+02  0.76467721498E+01  0.38226550707E+02  0.00000000000E+00 0. -1.
</event>
<event>
 7    1  0.2879200E-015  0.9000793E+02  0.7816164E-02  0.1186339E+00
        -11   -1    0    0    0    0  0.00000000000E+00  0.00000000000E+00  0.45593999997E+02  0.45594000000E+02  0.51100000000E-03 0.  1.
         11   -1    0    0    0    0 -0.00000000000E+00 -0.00000000000E+00 -0.45593999997E+02  0.45594000000E+02  0.51100000000E-03 0. -1.
    9900012    2    1    2    0    0 -0.52799293561E+00 -0.10440306865E+01 -0.15425149031E+00  0.90007927910E+02  0.90000191759E+02 0.  0.
        -12    1    1    2    0    0  0.52799293561E+00  0.10440306865E+01  0.15425149031E+00  0.11800720897E+01  0.00000000000E+00 0.  1.
         11    1    3    3    0    0 -0.32365398772E+01  0.91260019238E+01  0.17348449621E+01  0.98371128281E+01  0.51100000000E-03 0. -1.
        -11    1    3    3    0    0 -0.21712882730E+02 -0.34206031858E+02 -0.15391888985E+02  0.43340652264E+02  0.51100000000E-03 0.  1.
         12    1    3    3    0    0  0.24421429671E+02  0.24035999248E+02  0.13502792533E+02  0.36830162818E+02  0.00000000000E+00 0. -1.
</event>
<event>
 7    1  0.2879200E-015  0.9000761E+02  0.7816164E-02  0.1186339E+00
        -11   -1    0    0    0    0  0.00000000000E+00  0.00000000000E+00  0.45593999997E+02  0.45594000000E+02  0.51100000000E-03 0. -1.
         11   -1    0    0    0    0 -0.00000000000E+00 -0.00000000000E+00 -0.45593999997E+02  0.45594000000E+02  0.51100000000E-03 0.  1.
    9900012    2    1    2    0    0 -0.20493784857E+00  0.77429295972E+00  0.86706564830E+00  0.90007605173E+02  0.89999864761E+02 0.  0.
        -12    1    1    2    0    0  0.20493784857E+00 -0.77429295972E+00 -0.86706564830E+00  0.11803948270E+01  0.00000000000E+00 0.  1.
         11    1    3    3    0    0  0.82093349170E+01 -0.24173299648E+01  0.23061921041E+01  0.88631363648E+01  0.51100000000E-03 0. -1.
        -11    1    3    3    0    0  0.35953125894E+01  0.25945488274E+02 -0.31897265310E+02  0.41273843641E+02  0.51100000000E-03 0.  1.
         12    1    3    3    0    0 -0.12009585355E+02 -0.22753865349E+02  0.30458138855E+02  0.39870625167E+02  0.00000000000E+00 0. -1.
</event>
<event>
 7    1  0.2879200E-015  0.9000773E+02  0.7816164E-02  0.1186339E+00
        -11   -1    0    0    0    0  0.00000000000E+00  0.00000000000E+00  0.45593999997E+02  0.45594000000E+02  0.51100000000E-03 0. -1.
         11   -1    0    0    0    0 -0.00000000000E+00 -0.00000000000E+00 -0.45593999997E+02  0.45594000000E+02  0.51100000000E-03 0.  1.
    9900012    2    1    2    0    0 -0.58342992728E+00  0.69328215465E+00  0.75631041610E+00  0.90007730509E+02  0.89999991752E+02 0.  0.
        -12    1    1    2    0    0  0.58342992728E+00 -0.69328215465E+00 -0.75631041610E+00  0.11802694911E+01  0.00000000000E+00 0.  1.
         11    1    3    3    0    0 -0.13653732085E+02 -0.21593002240E+02 -0.10578942862E+02  0.27651332299E+02  0.51100000000E-03 0. -1.
        -11    1    3    3    0    0  0.23546159224E+02 -0.10730866588E+02  0.98432319762E+01  0.27685056040E+02  0.51100000000E-03 0.  1.
        -12    1    3    3    0    0 -0.10475857067E+02  0.33017150983E+02  0.14920213020E+01  0.34671342170E+02  0.00000000000E+00 0.  1.
</event>
<event>
 7    1  0.2879200E-015  0.9000777E+02  0.7816164E-02  0.1186339E+00
        -11   -1    0    0    0    0  0.00000000000E+00  0.00000000000E+00  0.45593999997E+02  0.45594000000E+02  0.51100000000E-03 0.  1.
         11   -1    0    0    0    0 -0.00000000000E+00 -0.00000000000E+00 -0.45593999997E+02  0.45594000000E+02  0.51100000000E-03 0. -1.
    9900012    2    1    2    0    0  0.16330112979E+00  0.11248135698E+01 -0.31793293657E+00  0.90007765202E+02  0.90000026903E+02 0.  0.
        -12    1    1    2    0    0 -0.16330112979E+00 -0.11248135698E+01  0.31793293657E+00  0.11802347978E+01  0.00000000000E+00 0.  1.
         11    1    3    3    0    0 -0.43480683219E+01 -0.56796661295E+01 -0.26056993990E+01  0.76127508230E+01  0.51100000000E-03 0. -1.
        -11    1    3    3    0    0 -0.33598463552E+02 -0.60161092625E+01  0.18753792093E+02  0.38945539435E+02  0.51100000000E-03 0.  1.
         12    1    3    3    0    0  0.38109833004E+02  0.12820588962E+02 -0.16466025631E+02  0.43449474945E+02  0.00000000000E+00 0. -1.
</event>
<event>
 7    1  0.2879200E-015  0.9000790E+02  0.7816164E-02  0.1186339E+00
        -11   -1    0    0    0    0  0.00000000000E+00  0.00000000000E+00  0.45593999997E+02  0.45594000000E+02  0.51100000000E-03 0.  1.
         11   -1    0    0    0    0 -0.00000000000E+00 -0.00000000000E+00 -0.45593999997E+02  0.45594000000E+02  0.51100000000E-03 0. -1.
    9900012    2    1    2    0    0  0.81257452694E+00 -0.23950061755E+00 -0.82157998841E+00  0.90007901875E+02  0.90000165379E+02 0.  0.
        -12    1    1    2    0    0 -0.81257452694E+00  0.23950061755E+00  0.82157998841E+00  0.11800981252E+01  0.00000000000E+00 0.  1.
         11    1    3    3    0    0  0.58308461476E+01 -0.65754536826E+01  0.84747025037E+01  0.12208846822E+02  0.51100000000E-03 0. -1.
        -11    1    3    3    0    0 -0.88230770000E+01 -0.72757665737E+01  0.32089541407E+02  0.34066437074E+02  0.51100000000E-03 0.  1.
         12    1    3    3    0    0  0.38048053794E+01  0.13611719639E+02 -0.41385823899E+02  0.43732617979E+02  0.00000000000E+00 0. -1.
</event>
<event>
 7    1  0.2879200E-015  0.9000776E+02  0.7816164E-02  0.1186339E+00
        -11   -1    0    0    0    0  0.00000000000E+00  0.00000000000E+00  0.45593999997E+02  0.45594000000E+02  0.51100000000E-03 0.  1.
         11   -1    0    0    0    0 -0.00000000000E+00 -0.00000000000E+00 -0.45593999997E+02  0.45594000000E+02  0.51100000000E-03 0. -1.
    9900012    2    1    2    0    0  0.14043459954E+00 -0.75834543935E+00 -0.89339366730E+00  0.90007761919E+02  0.90000023577E+02 0.  0.
        -12    1    1    2    0    0 -0.14043459954E+00  0.75834543935E+00  0.89339366730E+00  0.11802380806E+01  0.00000000000E+00 0.  1.
         11    1    3    3    0    0  0.12685401148E+02  0.18689291410E+02 -0.72544590964E+01  0.23724168958E+02  0.51100000000E-03 0. -1.
        -11    1    3    3    0    0  0.19364596986E+02  0.97043563712E+01  0.78450469133E+01  0.23037076862E+02  0.51100000000E-03 0.  1.
         12    1    3    3    0    0 -0.31909563534E+02 -0.29151993221E+02 -0.14839814842E+01  0.43246516100E+02  0.00000000000E+00 0. -1.
</event>
<event>
 7    1  0.2879200E-015  0.9000771E+02  0.7816164E-02  0.1186339E+00
        -11   -1    0    0    0    0  0.00000000000E+00  0.00000000000E+00  0.45593999997E+02  0.45594000000E+02  0.51100000000E-03 0.  1.
         11   -1    0    0    0    0 -0.00000000000E+00 -0.00000000000E+00 -0.45593999997E+02  0.45594000000E+02  0.51100000000E-03 0. -1.
    9900012    2    1    2    0    0  0.31786175932E+00  0.96947903615E+00 -0.59343187907E+00  0.90007708894E+02  0.89999969851E+02 0.  0.
        -12    1    1    2    0    0 -0.31786175932E+00 -0.96947903615E+00  0.59343187907E+00  0.11802911059E+01  0.00000000000E+00 0.  1.
         11    1    3    3    0    0 -0.46851916880E+01  0.37788059079E+02  0.54070707697E+00  0.38081239403E+02  0.51100000000E-03 0. -1.
        -11    1    3    3    0    0  0.82436929038E+01  0.45699337390E+01 -0.41564808059E+01  0.10301412526E+02  0.51100000000E-03 0.  1.
        -12    1    3    3    0    0 -0.32406394565E+01 -0.41388513781E+02  0.30223418499E+01  0.41625056965E+02  0.00000000000E+00 0.  1.
</event>
<event>
 7    1  0.2879200E-015  0.9000771E+02  0.7816164E-02  0.1186339E+00
        -11   -1    0    0    0    0  0.00000000000E+00  0.00000000000E+00  0.45593999997E+02  0.45594000000E+02  0.51100000000E-03 0.  1.
         11   -1    0    0    0    0 -0.00000000000E+00 -0.00000000000E+00 -0.45593999997E+02  0.45594000000E+02  0.51100000000E-03 0. -1.
    9900012    2    1    2    0    0 -0.22097919874E+00 -0.11592568653E+01  0.19483937612E-01  0.90007708549E+02  0.89999969502E+02 0.  0.
        -12    1    1    2    0    0  0.22097919874E+00  0.11592568653E+01 -0.19483937612E-01  0.11802914512E+01  0.00000000000E+00 0.  1.
         11    1    3    3    0    0 -0.58135314360E+01 -0.18506248684E+00 -0.51305332332E+01  0.77558859842E+01  0.51100000000E-03 0. -1.
        -11    1    3    3    0    0  0.19981067850E+02 -0.37269883018E+02 -0.28980405703E+01  0.42387331739E+02  0.51100000000E-03 0.  1.
         12    1    3    3    0    0 -0.14388515613E+02  0.36295688639E+02  0.80480577411E+01  0.39864490825E+02  0.00000000000E+00 0. -1.
</event>
<event>
 7    1  0.2879200E-015  0.9000770E+02  0.7816164E-02  0.1186339E+00
        -11   -1    0    0    0    0  0.00000000000E+00  0.00000000000E+00  0.45593999997E+02  0.45594000000E+02  0.51100000000E-03 0.  1.
         11   -1    0    0    0    0 -0.00000000000E+00 -0.00000000000E+00 -0.45593999997E+02  0.45594000000E+02  0.51100000000E-03 0. -1.
    9900012    2    1    2    0    0 -0.10747571211E+01 -0.24365958648E+00 -0.42266174306E+00  0.90007696729E+02  0.89999957525E+02 0.  0.
        -12    1    1    2    0    0  0.10747571211E+01  0.24365958648E+00  0.42266174306E+00  0.11803032714E+01  0.00000000000E+00 0.  1.
         11    1    3    3    0    0 -0.31416253251E+00 -0.93409249570E+01  0.11591543192E+01  0.94178137668E+01  0.51100000000E-03 0. -1.
        -11    1    3    3    0    0 -0.27737710336E+02  0.29814049192E+02  0.14155248039E+02  0.43111821479E+02  0.51100000000E-03 0.  1.
         12    1    3    3    0    0  0.26977115748E+02 -0.20716783822E+02 -0.15737064101E+02  0.37478061483E+02  0.00000000000E+00 0. -1.
</event>
<event>
 7    1  0.2879200E-015  0.9000775E+02  0.7816164E-02  0.1186339E+00
        -11   -1    0    0    0    0  0.00000000000E+00  0.00000000000E+00  0.45593999997E+02  0.45594000000E+02  0.51100000000E-03 0.  1.
         11   -1    0    0    0    0 -0.00000000000E+00 -0.00000000000E+00 -0.45593999997E+02  0.45594000000E+02  0.51100000000E-03 0. -1.
    9900012    2    1    2    0    0 -0.83954319650E+00  0.54748133154E-01  0.82773999594E+00  0.90007752722E+02  0.90000014258E+02 0.  0.
        -12    1    1    2    0    0  0.83954319650E+00 -0.54748133154E-01 -0.82773999594E+00  0.11802472782E+01  0.00000000000E+00 0.  1.
         11    1    3    3    0    0 -0.20266517081E+02  0.27838167125E+02 -0.15849395551E+02  0.37906445403E+02  0.51100000000E-03 0. -1.
        -11    1    3    3    0    0  0.24900600197E+01  0.58426745213E+01  0.12752641751E+02  0.14246652812E+02  0.51100000000E-03 0.  1.
        -12    1    3    3    0    0  0.16936913865E+02 -0.33626093513E+02  0.39244937963E+01  0.37854654506E+02  0.00000000000E+00 0.  1.
</event>
<event>
 7    1  0.2879200E-015  0.9000772E+02  0.7816164E-02  0.1186339E+00
        -11   -1    0    0    0    0  0.00000000000E+00  0.00000000000E+00  0.45593999997E+02  0.45594000000E+02  0.51100000000E-03 0.  1.
         11   -1    0    0    0    0 -0.00000000000E+00 -0.00000000000E+00 -0.45593999997E+02  0.45594000000E+02  0.51100000000E-03 0. -1.
    9900012    2    1    2    0    0 -0.91590692242E+00 -0.48437456407E+00 -0.56528697498E+00  0.90007723095E+02  0.89999984240E+02 0.  0.
        -12    1    1    2    0    0  0.91590692242E+00  0.48437456407E+00  0.56528697498E+00  0.11802769052E+01  0.00000000000E+00 0.  1.
         11    1    3    3    0    0  0.39034670151E+01  0.77662098722E+01 -0.36006852104E+01  0.94082944662E+01  0.51100000000E-03 0. -1.
        -11    1    3    3    0    0  0.31767620907E+02  0.64210031789E+01  0.19562019822E+02  0.37856091183E+02  0.51100000000E-03 0.  1.
         12    1    3    3    0    0 -0.36586994844E+02 -0.14671587615E+02 -0.16526621587E+02  0.42743337445E+02  0.00000000000E+00 0. -1.
</event>
<event>
 7    1  0.2879200E-015  0.9000777E+02  0.7816164E-02  0.1186339E+00
        -11   -1    0    0    0    0  0.00000000000E+00  0.00000000000E+00  0.45593999997E+02  0.45594000000E+02  0.51100000000E-03 0.  1.
         11   -1    0    0    0    0 -0.00000000000E+00 -0.00000000000E+00 -0.45593999997E+02  0.45594000000E+02  0.51100000000E-03 0. -1.
    9900012    2    1    2    0    0 -0.11012804857E+01  0.23144270891E+00 -0.35575212435E+00  0.90007769510E+02  0.90000031267E+02 0.  0.
        -12    1    1    2    0    0  0.11012804857E+01 -0.23144270891E+00  0.35575212435E+00  0.11802304901E+01  0.00000000000E+00 0.  1.
         11    1    3    3    0    0  0.81765601013E+01  0.51861124226E+01  0.50369263365E+00  0.96956486983E+01  0.51100000000E-03 0. -1.
        -11    1    3    3    0    0 -0.14473233671E+02  0.84639524514E+01  0.36560094136E+02  0.40221306139E+02  0.51100000000E-03 0.  1.
         12    1    3    3    0    0  0.51953930837E+01 -0.13418622165E+02 -0.37419538894E+02  0.40090814673E+02  0.00000000000E+00 0. -1.
</event>
<event>
 7    1  0.2879200E-015  0.9000790E+02  0.7816164E-02  0.1186339E+00
        -11   -1    0    0    0    0  0.00000000000E+00  0.00000000000E+00  0.45593999997E+02  0.45594000000E+02  0.51100000000E-03 0.  1.
         11   -1    0    0    0    0 -0.00000000000E+00 -0.00000000000E+00 -0.45593999997E+02  0.45594000000E+02  0.51100000000E-03 0. -1.
    9900012    2    1    2    0    0  0.15821901711E+00 -0.48248842894E+00 -0.10652721809E+01  0.90007901207E+02  0.90000164703E+02 0.  0.
        -12    1    1    2    0    0 -0.15821901711E+00  0.48248842894E+00  0.10652721809E+01  0.11800987929E+01  0.00000000000E+00 0.  1.
         11    1    3    3    0    0 -0.41531432869E+01 -0.34911760858E+01  0.82020329363E+01  0.98341371850E+01  0.51100000000E-03 0. -1.
        -11    1    3    3    0    0  0.81088630778E+01  0.18416123034E+02  0.30962881369E+02  0.36927053375E+02  0.51100000000E-03 0.  1.
         12    1    3    3    0    0 -0.37975007738E+01 -0.15407435377E+02 -0.40230186487E+02  0.43246710647E+02  0.00000000000E+00 0. -1.
</event>
<event>
 7    1  0.2879200E-015  0.9000774E+02  0.7816164E-02  0.1186339E+00
        -11   -1    0    0    0    0  0.00000000000E+00  0.00000000000E+00  0.45593999997E+02  0.45594000000E+02  0.51100000000E-03 0. -1.
         11   -1    0    0    0    0 -0.00000000000E+00 -0.00000000000E+00 -0.45593999997E+02  0.45594000000E+02  0.51100000000E-03 0.  1.
    9900012    2    1    2    0    0  0.10868984274E+01 -0.45613564718E+00 -0.60046477238E-01  0.90007740071E+02  0.90000001440E+02 0.  0.
        -12    1    1    2    0    0 -0.10868984274E+01  0.45613564718E+00  0.60046477238E-01  0.11802599288E+01  0.00000000000E+00 0.  1.
         11    1    3    3    0    0 -0.26658425590E+02 -0.20606483573E+02  0.12251705506E+02  0.35852518855E+02  0.51100000000E-03 0. -1.
        -11    1    3    3    0    0 -0.41508025273E+01 -0.82691015762E+01 -0.58558953191E+01  0.10949827065E+02  0.51100000000E-03 0.  1.
        -12    1    3    3    0    0  0.31896126545E+02  0.28419449502E+02 -0.64558566640E+01  0.43205394152E+02  0.00000000000E+00 0.  1.
</event>
<event>
 7    1  0.2879200E-015  0.9000779E+02  0.7816164E-02  0.1186339E+00
        -11   -1    0    0    0    0  0.00000000000E+00  0.00000000000E+00  0.45593999997E+02  0.45594000000E+02  0.51100000000E-03 0.  1.
         11   -1    0    0    0    0 -0.00000000000E+00 -0.00000000000E+00 -0.45593999997E+02  0.45594000000E+02  0.51100000000E-03 0. -1.
    9900012    2    1    2    0    0 -0.10764259495E+01 -0.72424651479E-01 -0.47850524334E+00  0.90007785857E+02  0.90000047831E+02 0.  0.
        -12    1    1    2    0    0  0.10764259495E+01  0.72424651479E-01  0.47850524334E+00  0.11802141428E+01  0.00000000000E+00 0.  1.
         11    1    3    3    0    0 -0.37786854527E+02 -0.75862949454E+01  0.68874756796E+01  0.39151444003E+02  0.51100000000E-03 0. -1.
        -11    1    3    3    0    0  0.19888798908E+00 -0.64423825612E+01  0.67165662579E+01  0.93089264717E+01  0.51100000000E-03 0.  1.
        -12    1    3    3    0    0  0.36511540588E+02  0.13956252855E+02 -0.14082547181E+02  0.41547415383E+02  0.00000000000E+00 0.  1.
</event>
<event>
 7    1  0.2879200E-015  0.9000810E+02  0.7816164E-02  0.1186338E+00
        -11   -1    0    0    0    0  0.00000000000E+00  0.00000000000E+00  0.45593999997E+02  0.45594000000E+02  0.51100000000E-03 0.  1.
         11   -1    0    0    0    0 -0.00000000000E+00 -0.00000000000E+00 -0.45593999997E+02  0.45594000000E+02  0.51100000000E-03 0. -1.
    9900012    2    1    2    0    0  0.83340432797E+00 -0.13489488861E+00 -0.82425602557E+00  0.90008102801E+02  0.90000368957E+02 0.  0.
        -12    1    1    2    0    0 -0.83340432797E+00  0.13489488861E+00  0.82425602557E+00  0.11798971991E+01  0.00000000000E+00 0.  1.
         11    1    3    3    0    0 -0.97890873301E+01  0.66710563874E+01  0.95974460603E+01  0.15245989480E+02  0.51100000000E-03 0. -1.
        -11    1    3    3    0    0  0.11368513596E+02 -0.28575378992E+02  0.20484383561E+02  0.36951391801E+02  0.51100000000E-03 0.  1.
         12    1    3    3    0    0 -0.74602193831E+00  0.21769427716E+02 -0.30906085647E+02  0.37810721520E+02  0.00000000000E+00 0. -1.
</event>
<event>
 7    1  0.2879200E-015  0.9000776E+02  0.7816164E-02  0.1186339E+00
        -11   -1    0    0    0    0  0.00000000000E+00  0.00000000000E+00  0.45593999997E+02  0.45594000000E+02  0.51100000000E-03 0. -1.
         11   -1    0    0    0    0 -0.00000000000E+00 -0.00000000000E+00 -0.45593999997E+02  0.45594000000E+02  0.51100000000E-03 0.  1.
    9900012    2    1    2    0    0 -0.97663231290E+00  0.48929840971E+00  0.44693618126E+00  0.90007756144E+02  0.90000017726E+02 0.  0.
        -12    1    1    2    0    0  0.97663231290E+00 -0.48929840971E+00 -0.44693618126E+00  0.11802438555E+01  0.00000000000E+00 0.  1.
         11    1    3    3    0    0  0.61497830775E+01  0.35647156950E+01  0.98861217299E+00  0.71766555007E+01  0.51100000000E-03 0. -1.
        -11    1    3    3    0    0  0.15570964694E+02  0.15186689627E+02 -0.32805619671E+02  0.39361137758E+02  0.51100000000E-03 0.  1.
         12    1    3    3    0    0 -0.22697380084E+02 -0.18262106912E+02  0.32263943679E+02  0.43469962886E+02  0.00000000000E+00 0. -1.
</event>
<event>
 7    1  0.2879200E-015  0.9000775E+02  0.7816164E-02  0.1186339E+00
        -11   -1    0    0    0    0  0.00000000000E+00  0.00000000000E+00  0.45593999997E+02  0.45594000000E+02  0.51100000000E-03 0.  1.
         11   -1    0    0    0    0 -0.00000000000E+00 -0.00000000000E+00 -0.45593999997E+02  0.45594000000E+02  0.51100000000E-03 0. -1.
    9900012    2    1    2    0    0  0.55417695316E-01  0.99322272926E+00 -0.63516277170E+00  0.90007748223E+02  0.90000009699E+02 0.  0.
        -12    1    1    2    0    0 -0.55417695316E-01 -0.99322272926E+00  0.63516277170E+00  0.11802517771E+01  0.00000000000E+00 0.  1.
         11    1    3    3    0    0 -0.37287915380E+02  0.36743137072E+01  0.19647324293E+02  0.42307287395E+02  0.51100000000E-03 0. -1.
        -11    1    3    3    0    0  0.13693859167E-03 -0.39546386269E+01  0.17487821030E+01  0.43240496982E+01  0.51100000000E-03 0.  1.
        -12    1    3    3    0    0  0.37343196137E+02  0.12735476489E+01 -0.22031269167E+02  0.43376411129E+02  0.00000000000E+00 0.  1.
</event>
<event>
 7    1  0.2879200E-015  0.9000775E+02  0.7816164E-02  0.1186339E+00
        -11   -1    0    0    0    0  0.00000000000E+00  0.00000000000E+00  0.45593999997E+02  0.45594000000E+02  0.51100000000E-03 0.  1.
         11   -1    0    0    0    0 -0.00000000000E+00 -0.00000000000E+00 -0.45593999997E+02  0.45594000000E+02  0.51100000000E-03 0. -1.
    9900012    2    1    2    0    0 -0.65200342334E+00  0.82824485400E+00  0.53094190619E+00  0.90007746930E+02  0.90000008389E+02 0.  0.
        -12    1    1    2    0    0  0.65200342334E+00 -0.82824485400E+00 -0.53094190619E+00  0.11802530703E+01  0.00000000000E+00 0.  1.
         11    1    3    3    0    0 -0.47273019780E+01  0.16590704911E+01  0.77976485055E+01  0.92683990723E+01  0.51100000000E-03 0. -1.
        -11    1    3    3    0    0 -0.14306600455E+02 -0.17011983522E+02  0.29270701121E+02  0.36754052080E+02  0.51100000000E-03 0.  1.
         12    1    3    3    0    0  0.18381899009E+02  0.16181157885E+02 -0.36537407721E+02  0.43985295777E+02  0.00000000000E+00 0. -1.
</event>
<event>
 7    1  0.3468851E-015  0.9000768E+02  0.7816164E-02  0.1186339E+00
        -11   -1    0    0    0    0  0.00000000000E+00  0.00000000000E+00  0.45593999997E+02  0.45594000000E+02  0.51100000000E-03 0. -1.
         11   -1    0    0    0    0 -0.00000000000E+00 -0.00000000000E+00 -0.45593999997E+02  0.45594000000E+02  0.51100000000E-03 0.  1.
    9900012    2    1    2    0    0 -0.84165361963E+00  0.56340811377E+00  0.60609167040E+00  0.90007679437E+02  0.89999940006E+02 0.  0.
        -12    1    1    2    0    0  0.84165361963E+00 -0.56340811377E+00 -0.60609167040E+00  0.11803205628E+01  0.00000000000E+00 0.  1.
         11    1    3    3    0    0  0.20780975035E+02  0.12049040402E+02  0.31470885677E+02  0.39590970480E+02  0.51100000000E-03 0. -1.
        -11    1    3    3    0    0 -0.42368293469E+01 -0.72882187996E+01  0.53790290398E+01  0.10000140492E+02  0.51100000000E-03 0.  1.
        -12    1    3    3    0    0 -0.17385799307E+02 -0.41974134881E+01 -0.36243823046E+02  0.40416568466E+02  0.00000000000E+00 0.  1.
</event>
<event>
 7    1  0.2879200E-015  0.9000766E+02  0.7816164E-02  0.1186339E+00
        -11   -1    0    0    0    0  0.00000000000E+00  0.00000000000E+00  0.45593999997E+02  0.45594000000E+02  0.51100000000E-03 0. -1.
         11   -1    0    0    0    0 -0.00000000000E+00 -0.00000000000E+00 -0.45593999997E+02  0.45594000000E+02  0.51100000000E-03 0.  1.
    9900012    2    1    2    0    0 -0.41885079838E+00  0.91351806492E-02  0.11034838362E+01  0.90007662752E+02  0.89999923100E+02 0.  0.
        -12    1    1    2    0    0  0.41885079838E+00 -0.91351806492E-02 -0.11034838362E+01  0.11803372483E+01  0.00000000000E+00 0.  1.
         11    1    3    3    0    0 -0.33140393334E+02 -0.14247192648E+02  0.26433372283E+02  0.44721262719E+02  0.51100000000E-03 0. -1.
        -11    1    3    3    0    0  0.70178643568E+01 -0.14407561154E+01 -0.28769575345E+01  0.77203033121E+01  0.51100000000E-03 0.  1.
        -12    1    3    3    0    0  0.25703678178E+02  0.15697083945E+02 -0.22452930912E+02  0.37566096721E+02  0.00000000000E+00 0.  1.
</event>
<event>
 7    1  0.2879200E-015  0.9000771E+02  0.7816164E-02  0.1186339E+00
        -11   -1    0    0    0    0  0.00000000000E+00  0.00000000000E+00  0.45593999997E+02  0.45594000000E+02  0.51100000000E-03 0.  1.
         11   -1    0    0    0    0 -0.00000000000E+00 -0.00000000000E+00 -0.45593999997E+02  0.45594000000E+02  0.51100000000E-03 0. -1.
    9900012    2    1    2    0    0 -0.73273858972E+00 -0.84517799321E+00 -0.37663518581E+00  0.90007709466E+02  0.89999970431E+02 0.  0.
        -12    1    1    2    0    0  0.73273858972E+00  0.84517799321E+00  0.37663518581E+00  0.11802905338E+01  0.00000000000E+00 0.  1.
         11    1    3    3    0    0 -0.79355410210E+01  0.34724636358E+02 -0.23569969061E+02  0.42712019658E+02  0.51100000000E-03 0. -1.
        -11    1    3    3    0    0 -0.57223140757E+01 -0.37517695942E+01  0.45671926057E+01  0.82267795660E+01  0.51100000000E-03 0.  1.
        -12    1    3    3    0    0  0.12925116507E+02 -0.31818044757E+02  0.18626141269E+02  0.39068910242E+02  0.00000000000E+00 0.  1.
</event>
<event>
 7    1  0.2879200E-015  0.9000781E+02  0.7816164E-02  0.1186339E+00
        -11   -1    0    0    0    0  0.00000000000E+00  0.00000000000E+00  0.45593999997E+02  0.45594000000E+02  0.51100000000E-03 0.  1.
         11   -1    0    0    0    0 -0.00000000000E+00 -0.00000000000E+00 -0.45593999997E+02  0.45594000000E+02  0.51100000000E-03 0. -1.
    9900012    2    1    2    0    0 -0.20842159477E+00  0.88341138688E+00 -0.75431731542E+00  0.90007809400E+02  0.90000071684E+02 0.  0.
        -12    1    1    2    0    0  0.20842159477E+00 -0.88341138688E+00  0.75431731542E+00  0.11801905998E+01  0.00000000000E+00 0.  1.
         11    1    3    3    0    0  0.89568163105E+01  0.99984647136E+00  0.11321073757E+01  0.90832768733E+01  0.51100000000E-03 0. -1.
        -11    1    3    3    0    0  0.18313997752E+02 -0.28343787992E+01  0.32142011271E+02  0.37101820786E+02  0.51100000000E-03 0.  1.
         12    1    3    3    0    0 -0.27479235657E+02  0.27179437147E+01 -0.34028435962E+02  0.43822711741E+02  0.00000000000E+00 0. -1.
</event>
<event>
 7    1  0.2879200E-015  0.9000769E+02  0.7816164E-02  0.1186339E+00
        -11   -1    0    0    0    0  0.00000000000E+00  0.00000000000E+00  0.45593999997E+02  0.45594000000E+02  0.51100000000E-03 0. -1.
         11   -1    0    0    0    0 -0.00000000000E+00 -0.00000000000E+00 -0.45593999997E+02  0.45594000000E+02  0.51100000000E-03 0.  1.
    9900012    2    1    2    0    0  0.10153945497E+01  0.55047094528E+00 -0.24307276171E+00  0.90007691260E+02  0.89999951985E+02 0.  0.
        -12    1    1    2    0    0 -0.10153945497E+01 -0.55047094528E+00  0.24307276171E+00  0.11803087396E+01  0.00000000000E+00 0.  1.
         11    1    3    3    0    0 -0.27317208593E+01 -0.75015857359E+01  0.42182478050E+02  0.42931311907E+02  0.51100000000E-03 0. -1.
        -11    1    3    3    0    0 -0.39962227479E+01 -0.39442311158E+01 -0.76985368163E+01  0.95286003547E+01  0.51100000000E-03 0.  1.
        -12    1    3    3    0    0  0.77433381569E+01  0.11996287797E+02 -0.34727013995E+02  0.37547778999E+02  0.00000000000E+00 0.  1.
</event>
<event>
 7    1  0.2879200E-015  0.9000774E+02  0.7816164E-02  0.1186339E+00
        -11   -1    0    0    0    0  0.00000000000E+00  0.00000000000E+00  0.45593999997E+02  0.45594000000E+02  0.51100000000E-03 0. -1.
         11   -1    0    0    0    0 -0.00000000000E+00 -0.00000000000E+00 -0.45593999997E+02  0.45594000000E+02  0.51100000000E-03 0.  1.
    9900012    2    1    2    0    0 -0.79241728509E+00  0.60845986820E+00  0.62837751946E+00  0.90007742879E+02  0.90000004285E+02 0.  0.
        -12    1    1    2    0    0  0.79241728509E+00 -0.60845986820E+00 -0.62837751946E+00  0.11802571211E+01  0.00000000000E+00 0.  1.
         11    1    3    3    0    0  0.26161030366E+02  0.31680226524E+01  0.95011429900E+01  0.28012632788E+02  0.51100000000E-03 0. -1.
        -11    1    3    3    0    0  0.95359900872E+01  0.64378239133E+01 -0.19761679608E+02  0.22867108800E+02  0.51100000000E-03 0.  1.
         12    1    3    3    0    0 -0.36489437739E+02 -0.89973866975E+01  0.10888914138E+02  0.39128001290E+02  0.00000000000E+00 0. -1.
</event>
<event>
 7    1  0.2879200E-015  0.9000726E+02  0.7816164E-02  0.1186340E+00
        -11   -1    0    0    0    0  0.00000000000E+00  0.00000000000E+00  0.45593999997E+02  0.45594000000E+02  0.51100000000E-03 0.  1.
         11   -1    0    0    0    0 -0.00000000000E+00 -0.00000000000E+00 -0.45593999997E+02  0.45594000000E+02  0.51100000000E-03 0. -1.
    9900012    2    1    2    0    0  0.96448846481E-02  0.69835788147E+00 -0.95202274679E+00  0.90007261221E+02  0.89999516268E+02 0.  0.
        -12    1    1    2    0    0 -0.96448846481E-02 -0.69835788147E+00  0.95202274679E+00  0.11807387792E+01  0.00000000000E+00 0.  1.
         11    1    3    3    0    0  0.87752712111E+01 -0.19750312993E+01 -0.64352734544E+01  0.11059786533E+02  0.51100000000E-03 0. -1.
        -11    1    3    3    0    0  0.82401811284E+01 -0.11474189749E+02 -0.32249813781E+02  0.35208068742E+02  0.51100000000E-03 0.  1.
         12    1    3    3    0    0 -0.17005807455E+02  0.14147578930E+02  0.37733064488E+02  0.43739405945E+02  0.00000000000E+00 0. -1.
</event>
<event>
 7    1  0.2879200E-015  0.9000774E+02  0.7816164E-02  0.1186339E+00
        -11   -1    0    0    0    0  0.00000000000E+00  0.00000000000E+00  0.45593999997E+02  0.45594000000E+02  0.51100000000E-03 0.  1.
         11   -1    0    0    0    0 -0.00000000000E+00 -0.00000000000E+00 -0.45593999997E+02  0.45594000000E+02  0.51100000000E-03 0. -1.
    9900012    2    1    2    0    0  0.95800314270E-01  0.56397275237E+00 -0.10323614327E+01  0.90007740243E+02  0.90000001614E+02 0.  0.
        -12    1    1    2    0    0 -0.95800314270E-01 -0.56397275237E+00  0.10323614327E+01  0.11802597567E+01  0.00000000000E+00 0.  1.
         11    1    3    3    0    0  0.25800472305E+01 -0.94853589247E+01 -0.60618286003E+00  0.98486616128E+01  0.51100000000E-03 0. -1.
        -11    1    3    3    0    0 -0.18066335032E+02  0.34996192281E+02 -0.20644375378E+02  0.44467023407E+02  0.51100000000E-03 0.  1.
         12    1    3    3    0    0  0.15582088115E+02 -0.24946860604E+02  0.20218196805E+02  0.35692055224E+02  0.00000000000E+00 0. -1.
</event>
<event>
 7    1  0.2879200E-015  0.9000854E+02  0.7816164E-02  0.1186337E+00
        -11   -1    0    0    0    0  0.00000000000E+00  0.00000000000E+00  0.45593999997E+02  0.45594000000E+02  0.51100000000E-03 0.  1.
         11   -1    0    0    0    0 -0.00000000000E+00 -0.00000000000E+00 -0.45593999997E+02  0.45594000000E+02  0.51100000000E-03 0. -1.
    9900012    2    1    2    0    0  0.69772738281E+00 -0.48359301740E+00 -0.81880974276E+00  0.90008536095E+02  0.90000807968E+02 0.  0.
        -12    1    1    2    0    0 -0.69772738281E+00  0.48359301740E+00  0.81880974276E+00  0.11794639045E+01  0.00000000000E+00 0.  1.
         11    1    3    3    0    0 -0.68361638686E+01  0.15651532687E+01  0.53496346313E+01  0.88205120113E+01  0.51100000000E-03 0. -1.
        -11    1    3    3    0    0 -0.18246914573E+02 -0.33145550940E+02 -0.13425472005E+02  0.40147487311E+02  0.51100000000E-03 0.  1.
         12    1    3    3    0    0  0.25780805824E+02  0.31096804654E+02  0.72570276308E+01  0.41040536774E+02  0.00000000000E+00 0. -1.
</event>
<event>
 7    1  0.3202609E-015  0.9000723E+02  0.7816164E-02  0.1186340E+00
        -11   -1    0    0    0    0  0.00000000000E+00  0.00000000000E+00  0.45593999997E+02  0.45594000000E+02  0.51100000000E-03 0. -1.
         11   -1    0    0    0    0 -0.00000000000E+00 -0.00000000000E+00 -0.45593999997E+02  0.45594000000E+02  0.51100000000E-03 0.  1.
    9900012    2    1    2    0    0 -0.77660302240E+00 -0.28210511632E+00  0.84352370075E+00  0.90007225769E+02  0.89999480348E+02 0.  0.
        -12    1    1    2    0    0  0.77660302240E+00  0.28210511632E+00 -0.84352370075E+00  0.11807742311E+01  0.00000000000E+00 0.  1.
         11    1    3    3    0    0  0.96899825910E+01 -0.36190665785E+02  0.22910510253E+02  0.43915276760E+02  0.51100000000E-03 0. -1.
        -11    1    3    3    0    0  0.50511670679E+00  0.95461286378E+01  0.68148592454E+00  0.95837434326E+01  0.51100000000E-03 0.  1.
        -12    1    3    3    0    0 -0.10971702320E+02  0.26362432031E+02 -0.22748472477E+02  0.36508205576E+02  0.00000000000E+00 0.  1.
</event>
<event>
 7    1  0.2879200E-015  0.9000788E+02  0.7816164E-02  0.1186339E+00
        -11   -1    0    0    0    0  0.00000000000E+00  0.00000000000E+00  0.45593999997E+02  0.45594000000E+02  0.51100000000E-03 0.  1.
         11   -1    0    0    0    0 -0.00000000000E+00 -0.00000000000E+00 -0.45593999997E+02  0.45594000000E+02  0.51100000000E-03 0. -1.
    9900012    2    1    2    0    0  0.60155792842E+00  0.58404581641E+00 -0.83048730082E+00  0.90007876865E+02  0.90000140040E+02 0.  0.
        -12    1    1    2    0    0 -0.60155792842E+00 -0.58404581641E+00  0.83048730082E+00  0.11801231350E+01  0.00000000000E+00 0.  1.
         11    1    3    3    0    0  0.22935558640E+02  0.58945761273E+01 -0.36376052101E+02  0.43405103900E+02  0.51100000000E-03 0. -1.
        -11    1    3    3    0    0 -0.85455357734E+01 -0.70884210473E+01  0.34514953155E+01  0.11626896180E+02  0.51100000000E-03 0.  1.
        -12    1    3    3    0    0 -0.13788464938E+02  0.17778907364E+01  0.32094069485E+02  0.34975876785E+02  0.00000000000E+00 0.  1.
</event>
<event>
 7    1  0.2879200E-015  0.9000773E+02  0.7816164E-02  0.1186339E+00
        -11   -1    0    0    0    0  0.00000000000E+00  0.00000000000E+00  0.45593999997E+02  0.45594000000E+02  0.51100000000E-03 0. -1.
         11   -1    0    0    0    0 -0.00000000000E+00 -0.00000000000E+00 -0.45593999997E+02  0.45594000000E+02  0.51100000000E-03 0.  1.
    9900012    2    1    2    0    0 -0.58112778156E+00 -0.46361328880E+00  0.91673196058E+00  0.90007727037E+02  0.89999988234E+02 0.  0.
        -12    1    1    2    0    0  0.58112778156E+00  0.46361328880E+00 -0.91673196058E+00  0.11802729632E+01  0.00000000000E+00 0.  1.
         11    1    3    3    0    0 -0.82448593519E+01 -0.85814037502E+01 -0.25812247993E+00  0.11903143431E+02  0.51100000000E-03 0. -1.
        -11    1    3    3    0    0  0.21433182031E+02 -0.30249677700E+02 -0.26148701843E+01  0.37165331148E+02  0.51100000000E-03 0.  1.
         12    1    3    3    0    0 -0.13769450461E+02  0.38367468162E+02  0.37897246248E+01  0.40939252459E+02  0.00000000000E+00 0. -1.
</event>
<event>
 7    1  0.2879200E-015  0.9000775E+02  0.7816164E-02  0.1186339E+00
        -11   -1    0    0    0    0  0.00000000000E+00  0.00000000000E+00  0.45593999997E+02  0.45594000000E+02  0.51100000000E-03 0. -1.
         11   -1    0    0    0    0 -0.00000000000E+00 -0.00000000000E+00 -0.45593999997E+02  0.45594000000E+02  0.51100000000E-03 0.  1.
    9900012    2    1    2    0    0 -0.10297077770E+01 -0.23814511836E+00  0.52534666668E+00  0.90007745653E+02  0.90000007096E+02 0.  0.
        -12    1    1    2    0    0  0.10297077770E+01  0.23814511836E+00 -0.52534666668E+00  0.11802543470E+01  0.00000000000E+00 0.  1.
         11    1    3    3    0    0  0.78203252961E+01  0.19306876857E+01  0.32090017459E+01  0.86707978377E+01  0.51100000000E-03 0. -1.
        -11    1    3    3    0    0  0.19502559108E+02  0.31442570604E+02  0.23655165716E+01  0.37075338527E+02  0.51100000000E-03 0.  1.
         12    1    3    3    0    0 -0.28352592181E+02 -0.33611403408E+02 -0.50491716508E+01  0.44261609289E+02  0.00000000000E+00 0. -1.
</event>
<event>
 7    1  0.2879200E-015  0.9000784E+02  0.7816164E-02  0.1186339E+00
        -11   -1    0    0    0    0  0.00000000000E+00  0.00000000000E+00  0.45593999997E+02  0.45594000000E+02  0.51100000000E-03 0. -1.
         11   -1    0    0    0    0 -0.00000000000E+00 -0.00000000000E+00 -0.45593999997E+02  0.45594000000E+02  0.51100000000E-03 0.  1.
    9900012    2    1    2    0    0 -0.27407588807E+00 -0.10422757047E+01  0.48094920717E+00  0.90007843918E+02  0.90000106658E+02 0.  0.
        -12    1    1    2    0    0  0.27407588807E+00  0.10422757047E+01 -0.48094920717E+00  0.11801560816E+01  0.00000000000E+00 0.  1.
         11    1    3    3    0    0  0.20919950359E+02  0.20403881823E+02  0.31100571228E+02  0.42675616544E+02  0.51100000000E-03 0. -1.
        -11    1    3    3    0    0  0.13211622949E+01 -0.78855972358E+01 -0.15540868564E+01  0.81451396424E+01  0.51100000000E-03 0.  1.
        -12    1    3    3    0    0 -0.22515188542E+02 -0.13560560292E+02 -0.29065535164E+02  0.39187087732E+02  0.00000000000E+00 0.  1.
</event>
<event>
 7    1  0.2879200E-015  0.9000775E+02  0.7816164E-02  0.1186339E+00
        -11   -1    0    0    0    0  0.00000000000E+00  0.00000000000E+00  0.45593999997E+02  0.45594000000E+02  0.51100000000E-03 0.  1.
         11   -1    0    0    0    0 -0.00000000000E+00 -0.00000000000E+00 -0.45593999997E+02  0.45594000000E+02  0.51100000000E-03 0. -1.
    9900012    2    1    2    0    0 -0.10737722316E+01 -0.44589459720E+00 -0.20295715198E+00  0.90007745620E+02  0.90000007062E+02 0.  0.
        -12    1    1    2    0    0  0.10737722316E+01  0.44589459720E+00  0.20295715198E+00  0.11802543805E+01  0.00000000000E+00 0.  1.
         11    1    3    3    0    0 -0.71080566392E+01 -0.34955325325E+01  0.27710361717E+01  0.83917732690E+01  0.51100000000E-03 0. -1.
        -11    1    3    3    0    0  0.18229942303E+02  0.38295397212E+02  0.70530807144E+01  0.42995513624E+02  0.51100000000E-03 0.  1.
         12    1    3    3    0    0 -0.12195657896E+02 -0.35245759276E+02 -0.10027074038E+02  0.38620458726E+02  0.00000000000E+00 0. -1.
</event>
<event>
 7    1  0.2879200E-015  0.9000784E+02  0.7816164E-02  0.1186339E+00
        -11   -1    0    0    0    0  0.00000000000E+00  0.00000000000E+00  0.45593999997E+02  0.45594000000E+02  0.51100000000E-03 0.  1.
         11   -1    0    0    0    0 -0.00000000000E+00 -0.00000000000E+00 -0.45593999997E+02  0.45594000000E+02  0.51100000000E-03 0. -1.
    9900012    2    1    2    0    0 -0.96755621224E+00 -0.60389250218E+00 -0.30320176106E+00  0.90007837941E+02  0.90000100602E+02 0.  0.
        -12    1    1    2    0    0  0.96755621224E+00  0.60389250218E+00  0.30320176106E+00  0.11801620592E+01  0.00000000000E+00 0.  1.
         11    1    3    3    0    0 -0.94345455819E+01  0.16988676316E+02 -0.34185951248E+02  0.39323085284E+02  0.51100000000E-03 0. -1.
        -11    1    3    3    0    0  0.12525935408E+01 -0.10783542716E+02 -0.39658007535E+01  0.11557740262E+02  0.51100000000E-03 0.  1.
        -12    1    3    3    0    0  0.72143958289E+01 -0.68090261026E+01  0.37848550240E+02  0.39127012395E+02  0.00000000000E+00 0.  1.
</event>
<event>
 7    1  0.2879200E-015  0.9000773E+02  0.7816164E-02  0.1186339E+00
        -11   -1    0    0    0    0  0.00000000000E+00  0.00000000000E+00  0.45593999997E+02  0.45594000000E+02  0.51100000000E-03 0.  1.
         11   -1    0    0    0    0 -0.00000000000E+00 -0.00000000000E+00 -0.45593999997E+02  0.45594000000E+02  0.51100000000E-03 0. -1.
    9900012    2    1    2    0    0  0.48113555554E+00  0.10766396024E+01  0.48917510676E-01  0.90007730040E+02  0.89999991276E+02 0.  0.
        -12    1    1    2    0    0 -0.48113555554E+00 -0.10766396024E+01 -0.48917510676E-01  0.11802699603E+01  0.00000000000E+00 0.  1.
         11    1    3    3    0    0  0.17435845739E+02  0.24296811524E+02 -0.22734453563E+02  0.37565930655E+02  0.51100000000E-03 0. -1.
        -11    1    3    3    0    0  0.27805683356E+01  0.82464924422E+01 -0.30378842844E+00  0.87079553019E+01  0.51100000000E-03 0.  1.
        -12    1    3    3    0    0 -0.19735278519E+02 -0.31466664364E+02  0.23087159502E+02  0.43733844083E+02  0.00000000000E+00 0.  1.
</event>
<event>
 7    1  0.2879200E-015  0.9000766E+02  0.7816164E-02  0.1186339E+00
        -11   -1    0    0    0    0  0.00000000000E+00  0.00000000000E+00  0.45593999997E+02  0.45594000000E+02  0.51100000000E-03 0.  1.
         11   -1    0    0    0    0 -0.00000000000E+00 -0.00000000000E+00 -0.45593999997E+02  0.45594000000E+02  0.51100000000E-03 0. -1.
    9900012    2    1    2    0    0 -0.84772418822E+00 -0.38234951594E+00 -0.72688800216E+00  0.90007663769E+02  0.89999924130E+02 0.  0.
        -12    1    1    2    0    0  0.84772418822E+00  0.38234951594E+00  0.72688800216E+00  0.11803362315E+01  0.00000000000E+00 0.  1.
         11    1    3    3    0    0  0.42106680413E+01 -0.68375477982E+01 -0.50241997719E+01  0.94722948040E+01  0.51100000000E-03 0. -1.
        -11    1    3    3    0    0  0.22547773548E+02 -0.26846210613E+02  0.11042162800E+02  0.36756638527E+02  0.51100000000E-03 0.  1.
         12    1    3    3    0    0 -0.27606165777E+02  0.33301408895E+02 -0.67448510300E+01  0.43778730438E+02  0.00000000000E+00 0. -1.
</event>
<event>
 7    1  0.2879200E-015  0.9000773E+02  0.7816164E-02  0.1186339E+00
        -11   -1    0    0    0    0  0.00000000000E+00  0.00000000000E+00  0.45593999997E+02  0.45594000000E+02  0.51100000000E-03 0.  1.
         11   -1    0    0    0    0 -0.00000000000E+00 -0.00000000000E+00 -0.45593999997E+02  0.45594000000E+02  0.51100000000E-03 0. -1.
    9900012    2    1    2    0    0  0.54378014659E+00 -0.10704202139E-01 -0.10474899939E+01  0.90007726000E+02  0.89999987183E+02 0.  0.
        -12    1    1    2    0    0 -0.54378014659E+00  0.10704202139E-01  0.10474899939E+01  0.11802740000E+01  0.00000000000E+00 0.  1.
         11    1    3    3    0    0 -0.27329810598E+01  0.11943118745E+02  0.38560109137E+01  0.12844301899E+02  0.51100000000E-03 0. -1.
        -11    1    3    3    0    0  0.24749088527E+02 -0.15749735882E+02  0.26096118561E+02  0.39262946495E+02  0.51100000000E-03 0.  1.
         12    1    3    3    0    0 -0.21472327321E+02  0.37959129347E+01 -0.30999619469E+02  0.37900477606E+02  0.00000000000E+00 0. -1.
</event>
<event>
 7    1  0.2879200E-015  0.9000725E+02  0.7816164E-02  0.1186340E+00
        -11   -1    0    0    0    0  0.00000000000E+00  0.00000000000E+00  0.45593999997E+02  0.45594000000E+02  0.51100000000E-03 0.  1.
         11   -1    0    0    0    0 -0.00000000000E+00 -0.00000000000E+00 -0.45593999997E+02  0.45594000000E+02  0.51100000000E-03 0. -1.
    9900012    2    1    2    0    0 -0.11542453578E+01 -0.21183688946E+00 -0.13041219744E+00  0.90007252544E+02  0.89999507476E+02 0.  0.
        -12    1    1    2    0    0  0.11542453578E+01  0.21183688946E+00  0.13041219744E+00  0.11807474561E+01  0.00000000000E+00 0.  1.
         11    1    3    3    0    0  0.10563516474E+02  0.20990541236E+02 -0.24829330715E+02  0.34186055135E+02  0.51100000000E-03 0. -1.
        -11    1    3    3    0    0  0.11925325236E+02 -0.11230347495E+02 -0.44622328977E+01  0.16977797546E+02  0.51100000000E-03 0.  1.
        -12    1    3    3    0    0 -0.23643087067E+02 -0.99720306309E+01  0.29161151416E+02  0.38843399862E+02  0.00000000000E+00 0.  1.
</event>
<event>
 7    1  0.2879200E-015  0.9000776E+02  0.7816164E-02  0.1186339E+00
        -11   -1    0    0    0    0  0.00000000000E+00  0.00000000000E+00  0.45593999997E+02  0.45594000000E+02  0.51100000000E-03 0. -1.
         11   -1    0    0    0    0 -0.00000000000E+00 -0.00000000000E+00 -0.45593999997E+02  0.45594000000E+02  0.51100000000E-03 0.  1.
    9900012    2    1    2    0    0  0.26807389347E+00  0.91887106895E-01  0.11457091649E+01  0.90007764285E+02  0.90000025973E+02 0.  0.
        -12    1    1    2    0    0 -0.26807389347E+00 -0.91887106895E-01 -0.11457091649E+01  0.11802357151E+01  0.00000000000E+00 0.  1.
         11    1    3    3    0    0 -0.27962917735E+02  0.16906821379E+02 -0.11801776753E+02  0.34742586434E+02  0.51100000000E-03 0. -1.
        -11    1    3    3    0    0 -0.89966692584E+01  0.52846102085E+01  0.25594152585E+01  0.10743266241E+02  0.51100000000E-03 0.  1.
        -12    1    3    3    0    0  0.37227660887E+02 -0.22099544480E+02  0.10388070659E+02  0.44521911609E+02  0.00000000000E+00 0.  1.
</event>
<event>
 7    1  0.2879200E-015  0.9000771E+02  0.7816164E-02  0.1186339E+00
        -11   -1    0    0    0    0  0.00000000000E+00  0.00000000000E+00  0.45593999997E+02  0.45594000000E+02  0.51100000000E-03 0.  1.
         11   -1    0    0    0    0 -0.00000000000E+00 -0.00000000000E+00 -0.45593999997E+02  0.45594000000E+02  0.51100000000E-03 0. -1.
    9900012    2    1    2    0    0  0.48497225860E-01 -0.73150094608E-01 -0.11770202789E+01  0.90007712046E+02  0.89999973045E+02 0.  0.
        -12    1    1    2    0    0 -0.48497225860E-01  0.73150094608E-01  0.11770202789E+01  0.11802879540E+01  0.00000000000E+00 0.  1.
         11    1    3    3    0    0 -0.65993513461E+01 -0.57711134713E+01 -0.84967620005E+00  0.88079020654E+01  0.51100000000E-03 0. -1.
        -11    1    3    3    0    0 -0.21167357985E+02 -0.29191602674E+02  0.44175696502E+01  0.36327973142E+02  0.51100000000E-03 0.  1.
         12    1    3    3    0    0  0.27815206556E+02  0.34889566051E+02 -0.47449137291E+01  0.44871836839E+02  0.00000000000E+00 0. -1.
</event>
<event>
 7    1  0.2879200E-015  0.9000778E+02  0.7816164E-02  0.1186339E+00
        -11   -1    0    0    0    0  0.00000000000E+00  0.00000000000E+00  0.45593999997E+02  0.45594000000E+02  0.51100000000E-03 0. -1.
         11   -1    0    0    0    0 -0.00000000000E+00 -0.00000000000E+00 -0.45593999997E+02  0.45594000000E+02  0.51100000000E-03 0.  1.
    9900012    2    1    2    0    0 -0.90840555175E+00 -0.34353674067E+00  0.67058939725E+00  0.90007784647E+02  0.90000046605E+02 0.  0.
        -12    1    1    2    0    0  0.90840555175E+00  0.34353674067E+00 -0.67058939725E+00  0.11802153525E+01  0.00000000000E+00 0.  1.
         11    1    3    3    0    0 -0.32750537119E+01  0.49903518611E+01  0.79991115909E+01  0.99807502232E+01  0.51100000000E-03 0. -1.
        -11    1    3    3    0    0  0.32503913342E+02  0.17931516043E+02  0.96261128815E+01  0.38349780959E+02  0.51100000000E-03 0.  1.
         12    1    3    3    0    0 -0.30137265181E+02 -0.23265404645E+02 -0.16954635075E+02  0.41677253466E+02  0.00000000000E+00 0. -1.
</event>
<event>
 7    1  0.2879200E-015  0.9000831E+02  0.7816164E-02  0.1186338E+00
        -11   -1    0    0    0    0  0.00000000000E+00  0.00000000000E+00  0.45593999997E+02  0.45594000000E+02  0.51100000000E-03 0. -1.
         11   -1    0    0    0    0 -0.00000000000E+00 -0.00000000000E+00 -0.45593999997E+02  0.45594000000E+02  0.51100000000E-03 0.  1.
    9900012    2    1    2    0    0  0.31224898556E+00  0.68607071304E+00  0.90745737425E+00  0.90008308795E+02  0.90000577670E+02 0.  0.
        -12    1    1    2    0    0 -0.31224898556E+00 -0.68607071304E+00 -0.90745737425E+00  0.11796912047E+01  0.00000000000E+00 0.  1.
         11    1    3    3    0    0  0.31413536245E+02 -0.14161440474E+02  0.86546557742E+01  0.35528294675E+02  0.51100000000E-03 0. -1.
        -11    1    3    3    0    0 -0.23622409054E+01 -0.10266793385E+02  0.79639676739E+01  0.13206513919E+02  0.51100000000E-03 0.  1.
        -12    1    3    3    0    0 -0.28739046354E+02  0.25114304572E+02 -0.15711166074E+02  0.41273500201E+02  0.00000000000E+00 0.  1.
</event>
<event>
 7    1  0.3055263E-015  0.9000770E+02  0.7816164E-02  0.1186339E+00
        -11   -1    0    0    0    0  0.00000000000E+00  0.00000000000E+00  0.45593999997E+02  0.45594000000E+02  0.51100000000E-03 0.  1.
         11   -1    0    0    0    0 -0.00000000000E+00 -0.00000000000E+00 -0.45593999997E+02  0.45594000000E+02  0.51100000000E-03 0. -1.
    9900012    2    1    2    0    0  0.22933596579E+00  0.73811017016E+00 -0.89202126613E+00  0.90007701924E+02  0.89999962790E+02 0.  0.
        -12    1    1    2    0    0 -0.22933596579E+00 -0.73811017016E+00  0.89202126613E+00  0.11802980758E+01  0.00000000000E+00 0.  1.
         11    1    3    3    0    0 -0.12962147560E+02  0.14100867300E+02 -0.32978742464E+02  0.38137241415E+02  0.51100000000E-03 0. -1.
        -11    1    3    3    0    0  0.53378300938E+01 -0.25541954313E+01 -0.78085612589E+01  0.97974473005E+01  0.51100000000E-03 0.  1.
        -12    1    3    3    0    0  0.78536534315E+01 -0.10808561699E+02  0.39895282456E+02  0.42073013209E+02  0.00000000000E+00 0.  1.
</event>
<event>
 7    1  0.2879200E-015  0.9000771E+02  0.7816164E-02  0.1186339E+00
        -11   -1    0    0    0    0  0.00000000000E+00  0.00000000000E+00  0.45593999997E+02  0.45594000000E+02  0.51100000000E-03 0.  1.
         11   -1    0    0    0    0 -0.00000000000E+00 -0.00000000000E+00 -0.45593999997E+02  0.45594000000E+02  0.51100000000E-03 0. -1.
    9900012    2    1    2    0    0 -0.91233835965E+00 -0.21838605983E+00 -0.71626054202E+00  0.90007710664E+02  0.89999971644E+02 0.  0.
        -12    1    1    2    0    0  0.91233835965E+00  0.21838605983E+00  0.71626054202E+00  0.11802893364E+01  0.00000000000E+00 0.  1.
         11    1    3    3    0    0  0.11819639343E+01  0.94772665444E+01  0.22206804358E+01  0.98054597931E+01  0.51100000000E-03 0. -1.
        -11    1    3    3    0    0  0.14639206118E+02  0.14514681530E+02  0.29765187737E+02  0.36207026071E+02  0.51100000000E-03 0.  1.
         12    1    3    3    0    0 -0.16733508412E+02 -0.24210334135E+02 -0.32702128714E+02  0.43995224799E+02  0.00000000000E+00 0. -1.
</event>
<event>
 7    1  0.2879200E-015  0.9000776E+02  0.7816164E-02  0.1186339E+00
        -11   -1    0    0    0    0  0.00000000000E+00  0.00000000000E+00  0.45593999997E+02  0.45594000000E+02  0.51100000000E-03 0. -1.
         11   -1    0    0    0    0 -0.00000000000E+00 -0.00000000000E+00 -0.45593999997E+02  0.45594000000E+02  0.51100000000E-03 0.  1.
    9900012    2    1    2    0    0 -0.68020857867E+00  0.56567147448E+00  0.78122268258E+00  0.90007755615E+02  0.90000017190E+02 0.  0.
        -12    1    1    2    0    0  0.68020857867E+00 -0.56567147448E+00 -0.78122268258E+00  0.11802443846E+01  0.00000000000E+00 0.  1.
         11    1    3    3    0    0 -0.97138525844E+01  0.52832451877E+01  0.39654536587E+01  0.11747188375E+02  0.51100000000E-03 0. -1.
        -11    1    3    3    0    0 -0.21435572559E+02 -0.31178104318E+02 -0.11101197162E+01  0.37852216921E+02  0.51100000000E-03 0.  1.
         12    1    3    3    0    0  0.30469216565E+02  0.26460530605E+02 -0.20741112599E+01  0.40408350319E+02  0.00000000000E+00 0. -1.
</event>
<event>
 7    1  0.2879200E-015  0.9000779E+02  0.7816164E-02  0.1186339E+00
        -11   -1    0    0    0    0  0.00000000000E+00  0.00000000000E+00  0.45593999997E+02  0.45594000000E+02  0.51100000000E-03 0.  1.
         11   -1    0    0    0    0 -0.00000000000E+00 -0.00000000000E+00 -0.45593999997E+02  0.45594000000E+02  0.51100000000E-03 0. -1.
    9900012    2    1    2    0    0  0.98981859708E+00 -0.34771087272E+00 -0.54060053392E+00  0.90007791271E+02  0.90000053316E+02 0.  0.
        -12    1    1    2    0    0 -0.98981859708E+00  0.34771087272E+00  0.54060053392E+00  0.11802087287E+01  0.00000000000E+00 0.  1.
         11    1    3    3    0    0  0.95510523390E+01  0.30942580627E+01  0.38101312741E+01  0.10738441895E+02  0.51100000000E-03 0. -1.
        -11    1    3    3    0    0 -0.18832285331E+01 -0.32526781742E+02  0.22118872234E+02  0.39379977011E+02  0.51100000000E-03 0.  1.
         12    1    3    3    0    0 -0.66780052089E+01  0.29084812807E+02 -0.26469604042E+02  0.39889372366E+02  0.00000000000E+00 0. -1.
</event>
<event>
 7    1  0.3360969E-015  0.9000781E+02  0.7816164E-02  0.1186339E+00
        -11   -1    0    0    0    0  0.00000000000E+00  0.00000000000E+00  0.45593999997E+02  0.45594000000E+02  0.51100000000E-03 0.  1.
         11   -1    0    0    0    0 -0.00000000000E+00 -0.00000000000E+00 -0.45593999997E+02  0.45594000000E+02  0.51100000000E-03 0. -1.
    9900012    2    1    2    0    0  0.94643709525E+00 -0.66654575683E+00 -0.22983133091E+00  0.90007809820E+02  0.90000072109E+02 0.  0.
        -12    1    1    2    0    0 -0.94643709525E+00  0.66654575683E+00  0.22983133091E+00  0.11801901804E+01  0.00000000000E+00 0.  1.
         11    1    3    3    0    0  0.28239724268E+02 -0.84443259692E+01 -0.27218665844E+02  0.40120374356E+02  0.51100000000E-03 0. -1.
        -11    1    3    3    0    0  0.61255897104E+01  0.58310486304E+01  0.47763800945E+01  0.97127639989E+01  0.51100000000E-03 0.  1.
        -12    1    3    3    0    0 -0.33418876884E+02  0.19467315819E+01  0.22212454419E+02  0.40174671465E+02  0.00000000000E+00 0.  1.
</event>
<event>
 7    1  0.2879200E-015  0.9000795E+02  0.7816164E-02  0.1186339E+00
        -11   -1    0    0    0    0  0.00000000000E+00  0.00000000000E+00  0.45593999997E+02  0.45594000000E+02  0.51100000000E-03 0. -1.
         11   -1    0    0    0    0 -0.00000000000E+00 -0.00000000000E+00 -0.45593999997E+02  0.45594000000E+02  0.51100000000E-03 0.  1.
    9900012    2    1    2    0    0  0.72547847019E-01  0.20067288874E-01  0.11776486333E+01  0.90007948226E+02  0.90000212342E+02 0.  0.
        -12    1    1    2    0    0 -0.72547847019E-01 -0.20067288874E-01 -0.11776486333E+01  0.11800517742E+01  0.00000000000E+00 0.  1.
         11    1    3    3    0    0  0.23420222508E+01 -0.13110413707E+01  0.87894013599E+01  0.91900747671E+01  0.51100000000E-03 0. -1.
        -11    1    3    3    0    0 -0.32499646656E+02  0.24138260066E+02  0.52557321477E+01  0.40822853311E+02  0.51100000000E-03 0.  1.
         12    1    3    3    0    0  0.30230172252E+02 -0.22807151407E+02 -0.12867484874E+02  0.39995020148E+02  0.00000000000E+00 0. -1.
</event>
<event>
 7    1  0.2879200E-015  0.9000766E+02  0.7816164E-02  0.1186339E+00
        -11   -1    0    0    0    0  0.00000000000E+00  0.00000000000E+00  0.45593999997E+02  0.45594000000E+02  0.51100000000E-03 0. -1.
         11   -1    0    0    0    0 -0.00000000000E+00 -0.00000000000E+00 -0.45593999997E+02  0.45594000000E+02  0.51100000000E-03 0.  1.
    9900012    2    1    2    0    0 -0.39226675222E-01 -0.16821999266E+00  0.11676363573E+01  0.90007656253E+02  0.89999916516E+02 0.  0.
        -12    1    1    2    0    0  0.39226675222E-01  0.16821999266E+00 -0.11676363573E+01  0.11803437469E+01  0.00000000000E+00 0.  1.
         11    1    3    3    0    0 -0.47415671841E+01  0.37832443819E+01  0.75157248092E+01  0.96582357127E+01  0.51100000000E-03 0. -1.
        -11    1    3    3    0    0 -0.36166655011E+02  0.82181720834E+01 -0.67883866071E+01  0.37704740816E+02  0.51100000000E-03 0.  1.
         12    1    3    3    0    0  0.40868995519E+02 -0.12169636458E+02  0.44029815527E+00  0.42644679724E+02  0.00000000000E+00 0. -1.
</event>
<event>
 7    1  0.2879200E-015  0.9000753E+02  0.7816164E-02  0.1186339E+00
        -11   -1    0    0    0    0  0.00000000000E+00  0.00000000000E+00  0.45593999997E+02  0.45594000000E+02  0.51100000000E-03 0.  1.
         11   -1    0    0    0    0 -0.00000000000E+00 -0.00000000000E+00 -0.45593999997E+02  0.45594000000E+02  0.51100000000E-03 0. -1.
    9900012    2    1    2    0    0  0.11527171364E+01 -0.77826415401E-01 -0.24225171629E+00  0.90007534142E+02  0.89999792793E+02 0.  0.
        -12    1    1    2    0    0 -0.11527171364E+01  0.77826415401E-01  0.24225171629E+00  0.11804658578E+01  0.00000000000E+00 0.  1.
         11    1    3    3    0    0  0.15265026809E+02 -0.12491688351E+02 -0.29570082171E+02  0.35545085190E+02  0.51100000000E-03 0. -1.
        -11    1    3    3    0    0  0.91983103843E+01 -0.39315071644E+01 -0.38724837166E+01  0.10726686017E+02  0.51100000000E-03 0.  1.
        -12    1    3    3    0    0 -0.23310620056E+02  0.16345369100E+02  0.33200314171E+02  0.43735762935E+02  0.00000000000E+00 0.  1.
</event>
<event>
 7    1  0.2879200E-015  0.9000777E+02  0.7816164E-02  0.1186339E+00
        -11   -1    0    0    0    0  0.00000000000E+00  0.00000000000E+00  0.45593999997E+02  0.45594000000E+02  0.51100000000E-03 0. -1.
         11   -1    0    0    0    0 -0.00000000000E+00 -0.00000000000E+00 -0.45593999997E+02  0.45594000000E+02  0.51100000000E-03 0.  1.
    9900012    2    1    2    0    0 -0.15546426765E+00 -0.82525062206E+00  0.82930402857E+00  0.90007765744E+02  0.90000027452E+02 0.  0.
        -12    1    1    2    0    0  0.15546426765E+00  0.82525062206E+00 -0.82930402857E+00  0.11802342562E+01  0.00000000000E+00 0.  1.
         11    1    3    3    0    0 -0.10314724929E+02  0.22816827202E+01 -0.48043805766E+01  0.11605244477E+02  0.51100000000E-03 0. -1.
        -11    1    3    3    0    0  0.31729891534E+02  0.96398005690E+00 -0.25215424070E+02  0.40540509193E+02  0.51100000000E-03 0.  1.
         12    1    3    3    0    0 -0.21570630873E+02 -0.40709133992E+01  0.30849108676E+02  0.37862012073E+02  0.00000000000E+00 0. -1.
</event>
<event>
 7    1  0.2879200E-015  0.9000771E+02  0.7816164E-02  0.1186339E+00
        -11   -1    0    0    0    0  0.00000000000E+00  0.00000000000E+00  0.45593999997E+02  0.45594000000E+02  0.51100000000E-03 0.  1.
         11   -1    0    0    0    0 -0.00000000000E+00 -0.00000000000E+00 -0.45593999997E+02  0.45594000000E+02  0.51100000000E-03 0. -1.
    9900012    2    1    2    0    0 -0.11180750107E+01 -0.37810030323E+00 -0.59511347318E-02  0.90007708941E+02  0.89999969899E+02 0.  0.
        -12    1    1    2    0    0  0.11180750107E+01  0.37810030323E+00  0.59511347318E-02  0.11802910593E+01  0.00000000000E+00 0.  1.
         11    1    3    3    0    0 -0.25614280286E+02  0.22426769618E+02  0.12937400490E+02  0.36420154884E+02  0.51100000000E-03 0. -1.
        -11    1    3    3    0    0 -0.10544572567E+02 -0.70808838750E+00 -0.29720812955E+01  0.10978281617E+02  0.51100000000E-03 0.  1.
        -12    1    3    3    0    0  0.35040777842E+02 -0.22096781533E+02 -0.99712703297E+01  0.42609272440E+02  0.00000000000E+00 0.  1.
</event>
<event>
 7    1  0.2879200E-015  0.9000775E+02  0.7816164E-02  0.1186339E+00
        -11   -1    0    0    0    0  0.00000000000E+00  0.00000000000E+00  0.45593999997E+02  0.45594000000E+02  0.51100000000E-03 0. -1.
         11   -1    0    0    0    0 -0.00000000000E+00 -0.00000000000E+00 -0.45593999997E+02  0.45594000000E+02  0.51100000000E-03 0.  1.
    9900012    2    1    2    0    0 -0.71764784541E+00 -0.66473232975E+00 -0.66037696912E+00  0.90007752042E+02  0.90000013569E+02 0.  0.
        -12    1    1    2    0    0  0.71764784541E+00  0.66473232975E+00  0.66037696912E+00  0.11802479577E+01  0.00000000000E+00 0.  1.
         11    1    3    3    0    0 -0.68551498416E+01 -0.24477030753E+00 -0.59720473790E+01  0.90949624525E+01  0.51100000000E-03 0. -1.
        -11    1    3    3    0    0 -0.45569917814E+01 -0.17609256920E+02 -0.32943315683E+02  0.37631292189E+02  0.51100000000E-03 0.  1.
         12    1    3    3    0    0  0.10694493778E+02  0.17189294898E+02  0.38254986093E+02  0.43281497400E+02  0.00000000000E+00 0. -1.
</event>
<event>
 7    1  0.2879200E-015  0.9000777E+02  0.7816164E-02  0.1186339E+00
        -11   -1    0    0    0    0  0.00000000000E+00  0.00000000000E+00  0.45593999997E+02  0.45594000000E+02  0.51100000000E-03 0. -1.
         11   -1    0    0    0    0 -0.00000000000E+00 -0.00000000000E+00 -0.45593999997E+02  0.45594000000E+02  0.51100000000E-03 0.  1.
    9900012    2    1    2    0    0  0.46121370588E+00 -0.10816871956E+01 -0.10087556342E+00  0.90007770721E+02  0.90000032495E+02 0.  0.
        -12    1    1    2    0    0 -0.46121370588E+00  0.10816871956E+01  0.10087556342E+00  0.11802292790E+01  0.00000000000E+00 0.  1.
         11    1    3    3    0    0  0.28972342203E+02 -0.22471736966E+02  0.11136822875E+01  0.36682637085E+02  0.51100000000E-03 0. -1.
        -11    1    3    3    0    0  0.67844461290E+01 -0.12934197049E+00 -0.89883680405E+01  0.11262157827E+02  0.51100000000E-03 0.  1.
        -12    1    3    3    0    0 -0.35295574626E+02  0.21519391741E+02  0.77738101896E+01  0.42062975809E+02  0.00000000000E+00 0.  1.
</event>
<event>
 7    1  0.2879200E-015  0.9000815E+02  0.7816164E-02  0.1186338E+00
        -11   -1    0    0    0    0  0.00000000000E+00  0.00000000000E+00  0.45593999997E+02  0.45594000000E+02  0.51100000000E-03 0.  1.
         11   -1    0    0    0    0 -0.00000000000E+00 -0.00000000000E+00 -0.45593999997E+02  0.45594000000E+02  0.51100000000E-03 0. -1.
    9900012    2    1    2    0    0  0.60148739529E+00  0.51193209114E+00 -0.87645836481E+00  0.90008152206E+02  0.90000419014E+02 0.  0.
        -12    1    1    2    0    0 -0.60148739529E+00 -0.51193209114E+00  0.87645836481E+00  0.11798477944E+01  0.00000000000E+00 0.  1.
         11    1    3    3    0    0 -0.30683176013E+02  0.38819605239E+01 -0.23325285158E+02  0.38737524905E+02  0.51100000000E-03 0. -1.
        -11    1    3    3    0    0 -0.43330450085E+01 -0.80720255379E+01  0.51145127818E+00  0.91757538111E+01  0.51100000000E-03 0.  1.
        -12    1    3    3    0    0  0.35617708417E+02  0.47019971051E+01  0.21937375515E+02  0.42094873490E+02  0.00000000000E+00 0.  1.
</event>
<event>
 7    1  0.2879200E-015  0.9000775E+02  0.7816164E-02  0.1186339E+00
        -11   -1    0    0    0    0  0.00000000000E+00  0.00000000000E+00  0.45593999997E+02  0.45594000000E+02  0.51100000000E-03 0. -1.
         11   -1    0    0    0    0 -0.00000000000E+00 -0.00000000000E+00 -0.45593999997E+02  0.45594000000E+02  0.51100000000E-03 0.  1.
    9900012    2    1    2    0    0 -0.24057026439E+00 -0.87815250009E+00 -0.75097549150E+00  0.90007750003E+02  0.90000011503E+02 0.  0.
        -12    1    1    2    0    0  0.24057026439E+00  0.87815250009E+00  0.75097549150E+00  0.11802499965E+01  0.00000000000E+00 0.  1.
         11    1    3    3    0    0  0.30915514668E+02 -0.30319943443E+02  0.15703876464E+01  0.43330521982E+02  0.51100000000E-03 0. -1.
        -11    1    3    3    0    0 -0.22346034076E+01  0.59105578989E+01 -0.66123701030E+01  0.91461240811E+01  0.51100000000E-03 0.  1.
        -12    1    3    3    0    0 -0.28921481525E+02  0.23531233044E+02  0.42910069652E+01  0.37531103940E+02  0.00000000000E+00 0.  1.
</event>
<event>
 7    1  0.2879200E-015  0.9000775E+02  0.7816164E-02  0.1186339E+00
        -11   -1    0    0    0    0  0.00000000000E+00  0.00000000000E+00  0.45593999997E+02  0.45594000000E+02  0.51100000000E-03 0.  1.
         11   -1    0    0    0    0 -0.00000000000E+00 -0.00000000000E+00 -0.45593999997E+02  0.45594000000E+02  0.51100000000E-03 0. -1.
    9900012    2    1    2    0    0  0.11703778033E+01  0.15041261611E+00 -0.24007882701E-01  0.90007752341E+02  0.90000013872E+02 0.  0.
        -12    1    1    2    0    0 -0.11703778033E+01 -0.15041261611E+00  0.24007882701E-01  0.11802476588E+01  0.00000000000E+00 0.  1.
         11    1    3    3    0    0 -0.28409893235E+02  0.14699411578E+02  0.22353975611E+02  0.39024286800E+02  0.51100000000E-03 0. -1.
        -11    1    3    3    0    0  0.67241487133E+01  0.78855433985E+01  0.22228464673E+01  0.10598915854E+02  0.51100000000E-03 0.  1.
        -12    1    3    3    0    0  0.22856122325E+02 -0.22434542360E+02 -0.24600829961E+02  0.40384549687E+02  0.00000000000E+00 0.  1.
</event>
<event>
 7    1  0.2879200E-015  0.9000786E+02  0.7816164E-02  0.1186339E+00
        -11   -1    0    0    0    0  0.00000000000E+00  0.00000000000E+00  0.45593999997E+02  0.45594000000E+02  0.51100000000E-03 0.  1.
         11   -1    0    0    0    0 -0.00000000000E+00 -0.00000000000E+00 -0.45593999997E+02  0.45594000000E+02  0.51100000000E-03 0. -1.
    9900012    2    1    2    0    0 -0.51516007504E+00  0.18097511602E+00 -0.10462210411E+01  0.90007864261E+02  0.90000127269E+02 0.  0.
        -12    1    1    2    0    0  0.51516007504E+00 -0.18097511602E+00  0.10462210411E+01  0.11801357390E+01  0.00000000000E+00 0.  1.
         11    1    3    3    0    0  0.24204413462E+02 -0.20863703558E+02 -0.28433626807E+02  0.42774044594E+02  0.51100000000E-03 0. -1.
        -11    1    3    3    0    0 -0.49611974986E+01  0.70874541935E+01 -0.22869611027E+01  0.89485014897E+01  0.51100000000E-03 0.  1.
        -12    1    3    3    0    0 -0.19758376039E+02  0.13957224481E+02  0.29674366869E+02  0.38285318178E+02  0.00000000000E+00 0.  1.
</event>
<event>
 7    1  0.2879200E-015  0.9000775E+02  0.7816164E-02  0.1186339E+00
        -11   -1    0    0    0    0  0.00000000000E+00  0.00000000000E+00  0.45593999997E+02  0.45594000000E+02  0.51100000000E-03 0.  1.
         11   -1    0    0    0    0 -0.00000000000E+00 -0.00000000000E+00 -0.45593999997E+02  0.45594000000E+02  0.51100000000E-03 0. -1.
    9900012    2    1    2    0    0  0.24081384711E+00  0.86495316248E+00  0.76607197381E+00  0.90007745133E+02  0.90000006569E+02 0.  0.
        -12    1    1    2    0    0 -0.24081384711E+00 -0.86495316248E+00 -0.76607197381E+00  0.11802548671E+01  0.00000000000E+00 0.  1.
         11    1    3    3    0    0 -0.83746499382E+01 -0.33588658043E+01  0.44740193448E+01  0.10071424449E+02  0.51100000000E-03 0. -1.
        -11    1    3    3    0    0 -0.16763260965E+02  0.34331129510E+02 -0.11285421396E+02  0.39837094622E+02  0.51100000000E-03 0.  1.
         12    1    3    3    0    0  0.25378724751E+02 -0.30107310543E+02  0.75774740249E+01  0.40099226061E+02  0.00000000000E+00 0. -1.
</event>
<event>
 7    1  0.2879200E-015  0.9000775E+02  0.7816164E-02  0.1186339E+00
        -11   -1    0    0    0    0  0.00000000000E+00  0.00000000000E+00  0.45593999997E+02  0.45594000000E+02  0.51100000000E-03 0.  1.
         11   -1    0    0    0    0 -0.00000000000E+00 -0.00000000000E+00 -0.45593999997E+02  0.45594000000E+02  0.51100000000E-03 0. -1.
    9900012    2    1    2    0    0 -0.63528068273E+00  0.73750863191E+00 -0.66744935266E+00  0.90007750380E+02  0.90000011885E+02 0.  0.
        -12    1    1    2    0    0  0.63528068273E+00 -0.73750863191E+00  0.66744935266E+00  0.11802496204E+01  0.00000000000E+00 0.  1.
         11    1    3    3    0    0 -0.10604839260E+02 -0.17644113169E+01  0.27559046727E+00  0.10754148660E+02  0.51100000000E-03 0. -1.
        -11    1    3    3    0    0  0.92648011282E+01 -0.27859241502E+02  0.25574640134E+02  0.38936308187E+02  0.51100000000E-03 0.  1.
         12    1    3    3    0    0  0.70475744912E+00  0.30361161450E+02 -0.26517679954E+02  0.40317293533E+02  0.00000000000E+00 0. -1.
</event>
<event>
 7    1  0.3149920E-015  0.9000755E+02  0.7816164E-02  0.1186339E+00
        -11   -1    0    0    0    0  0.00000000000E+00  0.00000000000E+00  0.45593999997E+02  0.45594000000E+02  0.51100000000E-03 0.  1.
         11   -1    0    0    0    0 -0.00000000000E+00 -0.00000000000E+00 -0.45593999997E+02  0.45594000000E+02  0.51100000000E-03 0. -1.
    9900012    2    1    2    0    0  0.45041551739E+00  0.10242768736E+01 -0.37610491674E+00  0.90007545782E+02  0.89999804586E+02 0.  0.
        -12    1    1    2    0    0 -0.45041551739E+00 -0.10242768736E+01  0.37610491674E+00  0.11804542179E+01  0.00000000000E+00 0.  1.
         11    1    3    3    0    0 -0.20263954008E+01  0.23898947186E+02 -0.33341157832E+02  0.41071873110E+02  0.51100000000E-03 0. -1.
        -11    1    3    3    0    0 -0.92062215858E+01 -0.16752572202E+01  0.18910697254E+01  0.95465777957E+01  0.51100000000E-03 0.  1.
        -12    1    3    3    0    0  0.11683032504E+02 -0.21199413092E+02  0.31073983190E+02  0.39389094877E+02  0.00000000000E+00 0.  1.
</event>
<event>
 7    1  0.2879200E-015  0.9000773E+02  0.7816164E-02  0.1186339E+00
        -11   -1    0    0    0    0  0.00000000000E+00  0.00000000000E+00  0.45593999997E+02  0.45594000000E+02  0.51100000000E-03 0.  1.
         11   -1    0    0    0    0 -0.00000000000E+00 -0.00000000000E+00 -0.45593999997E+02  0.45594000000E+02  0.51100000000E-03 0. -1.
    9900012    2    1    2    0    0 -0.93266970633E+00  0.16076289016E+00  0.70520650830E+00  0.90007731511E+02  0.89999992766E+02 0.  0.
        -12    1    1    2    0    0  0.93266970633E+00 -0.16076289016E+00 -0.70520650830E+00  0.11802684895E+01  0.00000000000E+00 0.  1.
         11    1    3    3    0    0  0.69797252781E+01  0.12174369269E+01 -0.81472401914E+01  0.10797047774E+02  0.51100000000E-03 0. -1.
        -11    1    3    3    0    0  0.90206861164E+01  0.85782315992E+01  0.40321346244E+02  0.42199168222E+02  0.51100000000E-03 0.  1.
         12    1    3    3    0    0 -0.16933081101E+02 -0.96349056359E+01 -0.31468899545E+02  0.37011515515E+02  0.00000000000E+00 0. -1.
</event>
<event>
 7    1  0.2879200E-015  0.9000771E+02  0.7816164E-02  0.1186339E+00
        -11   -1    0    0    0    0  0.00000000000E+00  0.00000000000E+00  0.45593999997E+02  0.45594000000E+02  0.51100000000E-03 0.  1.
         11   -1    0    0    0    0 -0.00000000000E+00 -0.00000000000E+00 -0.45593999997E+02  0.45594000000E+02  0.51100000000E-03 0. -1.
    9900012    2    1    2    0    0  0.22548672598E-01  0.97362930354E+00 -0.66679694181E+00  0.90007711635E+02  0.89999972628E+02 0.  0.
        -12    1    1    2    0    0 -0.22548672598E-01 -0.97362930354E+00  0.66679694181E+00  0.11802883652E+01  0.00000000000E+00 0.  1.
         11    1    3    3    0    0  0.14381647892E+01  0.81415370473E+01  0.68388604779E+01  0.10729536633E+02  0.51100000000E-03 0. -1.
        -11    1    3    3    0    0  0.24169615224E+01 -0.29085988328E+02  0.25979797592E+02  0.39074112954E+02  0.51100000000E-03 0.  1.
         12    1    3    3    0    0 -0.38325776390E+01  0.21918080584E+02 -0.33485455011E+02  0.40204062048E+02  0.00000000000E+00 0. -1.
</event>
<event>
 7    1  0.2879200E-015  0.9000774E+02  0.7816164E-02  0.1186339E+00
        -11   -1    0    0    0    0  0.00000000000E+00  0.00000000000E+00  0.45593999997E+02  0.45594000000E+02  0.51100000000E-03 0. -1.
         11   -1    0    0    0    0 -0.00000000000E+00 -0.00000000000E+00 -0.45593999997E+02  0.45594000000E+02  0.51100000000E-03 0.  1.
    9900012    2    1    2    0    0 -0.53907985549E+00 -0.45513597915E+00  0.94618279079E+00  0.90007738282E+02  0.89999999627E+02 0.  0.
        -12    1    1    2    0    0  0.53907985549E+00  0.45513597915E+00 -0.94618279079E+00  0.11802617183E+01  0.00000000000E+00 0.  1.
         11    1    3    3    0    0 -0.33264105035E+02 -0.10071221339E+02 -0.14194606640E+02  0.37542203465E+02  0.51100000000E-03 0. -1.
        -11    1    3    3    0    0 -0.41871246031E+01 -0.82077606009E+01  0.20933431913E+01  0.94488852518E+01  0.51100000000E-03 0.  1.
        -12    1    3    3    0    0  0.36912149783E+02  0.17823845961E+02  0.13047446239E+02  0.43016649565E+02  0.00000000000E+00 0.  1.
</event>
<event>
 7    1  0.2879200E-015  0.9000768E+02  0.7816164E-02  0.1186339E+00
        -11   -1    0    0    0    0  0.00000000000E+00  0.00000000000E+00  0.45593999997E+02  0.45594000000E+02  0.51100000000E-03 0. -1.
         11   -1    0    0    0    0 -0.00000000000E+00 -0.00000000000E+00 -0.45593999997E+02  0.45594000000E+02  0.51100000000E-03 0.  1.
    9900012    2    1    2    0    0 -0.94104877909E+00 -0.34272690787E+00  0.62460351402E+00  0.90007676278E+02  0.89999936805E+02 0.  0.
        -12    1    1    2    0    0  0.94104877909E+00  0.34272690787E+00 -0.62460351402E+00  0.11803237216E+01  0.00000000000E+00 0.  1.
         11    1    3    3    0    0  0.35525053581E+01 -0.68936502270E+01  0.28979475447E+01  0.82789376133E+01  0.51100000000E-03 0. -1.
        -11    1    3    3    0    0  0.23602072025E+02 -0.27101210606E+02 -0.97964700818E+01  0.37249218066E+02  0.51100000000E-03 0.  1.
         12    1    3    3    0    0 -0.28095626162E+02  0.33652133925E+02  0.75231260511E+01  0.44479520599E+02  0.00000000000E+00 0. -1.
</event>
<event>
 7    1  0.2879200E-015  0.9000771E+02  0.7816164E-02  0.1186339E+00
        -11   -1    0    0    0    0  0.00000000000E+00  0.00000000000E+00  0.45593999997E+02  0.45594000000E+02  0.51100000000E-03 0.  1.
         11   -1    0    0    0    0 -0.00000000000E+00 -0.00000000000E+00 -0.45593999997E+02  0.45594000000E+02  0.51100000000E-03 0. -1.
    9900012    2    1    2    0    0  0.92080963797E+00  0.26011119988E+00 -0.69103611810E+00  0.90007712263E+02  0.89999973265E+02 0.  0.
        -12    1    1    2    0    0 -0.92080963797E+00 -0.26011119988E+00  0.69103611810E+00  0.11802877370E+01  0.00000000000E+00 0.  1.
         11    1    3    3    0    0  0.60600947647E+01  0.61856321863E+01  0.39456459002E+01  0.95160346748E+01  0.51100000000E-03 0. -1.
        -11    1    3    3    0    0  0.34972748353E+02  0.53388697389E+01  0.92631783467E+01  0.36570522703E+02  0.51100000000E-03 0.  1.
         12    1    3    3    0    0 -0.40112033479E+02 -0.11264390725E+02 -0.13899860365E+02  0.43921154885E+02  0.00000000000E+00 0. -1.
</event>
<event>
 7    1  0.2879200E-015  0.9000774E+02  0.7816164E-02  0.1186339E+00
        -11   -1    0    0    0    0  0.00000000000E+00  0.00000000000E+00  0.45593999997E+02  0.45594000000E+02  0.51100000000E-03 0. -1.
         11   -1    0    0    0    0 -0.00000000000E+00 -0.00000000000E+00 -0.45593999997E+02  0.45594000000E+02  0.51100000000E-03 0.  1.
    9900012    2    1    2    0    0 -0.73385703789E+00  0.76974467132E+00  0.51181688256E+00  0.90007741752E+02  0.90000003143E+02 0.  0.
        -12    1    1    2    0    0  0.73385703789E+00 -0.76974467132E+00 -0.51181688256E+00  0.11802582482E+01  0.00000000000E+00 0.  1.
         11    1    3    3    0    0 -0.42575429327E+00 -0.94018656656E+01  0.64950220346E+00  0.94338856303E+01  0.51100000000E-03 0. -1.
        -11    1    3    3    0    0 -0.26368010500E+02  0.31126051205E+02  0.15525139411E+02  0.43647829217E+02  0.51100000000E-03 0.  1.
         12    1    3    3    0    0  0.26059907756E+02 -0.20954440868E+02 -0.15662824732E+02  0.36926026904E+02  0.00000000000E+00 0. -1.
</event>
<event>
 7    1  0.2879200E-015  0.9000777E+02  0.7816164E-02  0.1186339E+00
        -11   -1    0    0    0    0  0.00000000000E+00  0.00000000000E+00  0.45593999997E+02  0.45594000000E+02  0.51100000000E-03 0. -1.
         11   -1    0    0    0    0 -0.00000000000E+00 -0.00000000000E+00 -0.45593999997E+02  0.45594000000E+02  0.51100000000E-03 0.  1.
    9900012    2    1    2    0    0  0.11582026385E+00  0.39493697368E+00  0.11061396198E+01  0.90007773579E+02  0.90000035390E+02 0.  0.
        -12    1    1    2    0    0 -0.11582026385E+00 -0.39493697368E+00 -0.11061396198E+01  0.11802264212E+01  0.00000000000E+00 0.  1.
         11    1    3    3    0    0 -0.90835818636E+01 -0.16402864754E+01 -0.21237855127E+01  0.94716663982E+01  0.51100000000E-03 0. -1.
        -11    1    3    3    0    0 -0.15898525101E+02 -0.29276685328E+02  0.17888176758E+02  0.37813678374E+02  0.51100000000E-03 0.  1.
         12    1    3    3    0    0  0.25097927228E+02  0.31311908777E+02 -0.14658251625E+02  0.42722428807E+02  0.00000000000E+00 0. -1.
</event>
<event>
 7    1  0.2879200E-015  0.9000816E+02  0.7816164E-02  0.1186338E+00
        -11   -1    0    0    0    0  0.00000000000E+00  0.00000000000E+00  0.45593999997E+02  0.45594000000E+02  0.51100000000E-03 0.  1.
         11   -1    0    0    0    0 -0.00000000000E+00 -0.00000000000E+00 -0.45593999997E+02  0.45594000000E+02  0.51100000000E-03 0. -1.
    9900012    2    1    2    0    0  0.36960997471E-01  0.11743710700E+01  0.10728441130E+00  0.90008159557E+02  0.90000426462E+02 0.  0.
        -12    1    1    2    0    0 -0.36960997471E-01 -0.11743710700E+01 -0.10728441130E+00  0.11798404428E+01  0.00000000000E+00 0.  1.
         11    1    3    3    0    0 -0.32405110488E+02  0.18340149164E+02 -0.99565905555E+01  0.38543299714E+02  0.51100000000E-03 0. -1.
        -11    1    3    3    0    0 -0.64701436838E+01 -0.77929616354E+01  0.43912801741E+01  0.11039762324E+02  0.51100000000E-03 0.  1.
        -12    1    3    3    0    0  0.38912215169E+02 -0.93728164590E+01  0.56725947927E+01  0.40425097519E+02  0.00000000000E+00 0.  1.
</event>
<event>
 7    1  0.2879200E-015  0.9000784E+02  0.7816164E-02  0.1186339E+00
        -11   -1    0    0    0    0  0.00000000000E+00  0.00000000000E+00  0.45593999997E+02  0.45594000000E+02  0.51100000000E-03 0. -1.
         11   -1    0    0    0    0 -0.00000000000E+00 -0.00000000000E+00 -0.45593999997E+02  0.45594000000E+02  0.51100000000E-03 0.  1.
    9900012    2    1    2    0    0 -0.63629629633E+00  0.89797407829E+00  0.42607859118E+00  0.90007841795E+02  0.90000104507E+02 0.  0.
        -12    1    1    2    0    0  0.63629629633E+00 -0.89797407829E+00 -0.42607859118E+00  0.11801582046E+01  0.00000000000E+00 0.  1.
         11    1    3    3    0    0  0.82595350566E+01  0.36806230158E+01 -0.33173366485E+01  0.96318029380E+01  0.51100000000E-03 0. -1.
        -11    1    3    3    0    0  0.15345905133E+02  0.28186892503E+02 -0.16561385235E+02  0.36114778062E+02  0.51100000000E-03 0.  1.
         12    1    3    3    0    0 -0.24241736486E+02 -0.30969541440E+02  0.20304800475E+02  0.44261260795E+02  0.00000000000E+00 0. -1.
</event>
<event>
 7    1  0.2879200E-015  0.9000772E+02  0.7816164E-02  0.1186339E+00
        -11   -1    0    0    0    0  0.00000000000E+00  0.00000000000E+00  0.45593999997E+02  0.45594000000E+02  0.51100000000E-03 0.  1.
         11   -1    0    0    0    0 -0.00000000000E+00 -0.00000000000E+00 -0.45593999997E+02  0.45594000000E+02  0.51100000000E-03 0. -1.
    9900012    2    1    2    0    0  0.95640974072E-01 -0.56247210698E-01 -0.11750502796E+01  0.90007722870E+02  0.89999984012E+02 0.  0.
        -12    1    1    2    0    0 -0.95640974072E-01  0.56247210698E-01  0.11750502796E+01  0.11802771302E+01  0.00000000000E+00 0.  1.
         11    1    3    3    0    0 -0.94242462383E+01 -0.50453540697E-01 -0.12505843348E+01  0.95069934343E+01  0.51100000000E-03 0. -1.
        -11    1    3    3    0    0 -0.17763716872E+02 -0.97385910221E+01  0.31696385328E+02  0.37617158789E+02  0.51100000000E-03 0.  1.
         12    1    3    3    0    0  0.27283604085E+02  0.97327973521E+01 -0.31620851273E+02  0.42883570646E+02  0.00000000000E+00 0. -1.
</event>
<event>
 7    1  0.2879200E-015  0.9000775E+02  0.7816164E-02  0.1186339E+00
        -11   -1    0    0    0    0  0.00000000000E+00  0.00000000000E+00  0.45593999997E+02  0.45594000000E+02  0.51100000000E-03 0.  1.
         11   -1    0    0    0    0 -0.00000000000E+00 -0.00000000000E+00 -0.45593999997E+02  0.45594000000E+02  0.51100000000E-03 0. -1.
    9900012    2    1    2    0    0  0.44375152647E+00  0.34552571811E+00 -0.10376335412E+01  0.90007751380E+02  0.90000012898E+02 0.  0.
        -12    1    1    2    0    0 -0.44375152647E+00 -0.34552571811E+00  0.10376335412E+01  0.11802486199E+01  0.00000000000E+00 0.  1.
         11    1    3    3    0    0  0.78711959643E+01 -0.46138304103E+01  0.66354031067E+01  0.11281477368E+02  0.51100000000E-03 0. -1.
        -11    1    3    3    0    0  0.25170993873E+01  0.38275527496E+02  0.10117887753E+02  0.39670183353E+02  0.51100000000E-03 0.  1.
         12    1    3    3    0    0 -0.99445438251E+01 -0.33316171368E+02 -0.17790924401E+02  0.39056090659E+02  0.00000000000E+00 0. -1.
</event>
<event>
 7    1  0.2879200E-015  0.9000778E+02  0.7816164E-02  0.1186339E+00
        -11   -1    0    0    0    0  0.00000000000E+00  0.00000000000E+00  0.45593999997E+02  0.45594000000E+02  0.51100000000E-03 0. -1.
         11   -1    0    0    0    0 -0.00000000000E+00 -0.00000000000E+00 -0.45593999997E+02  0.45594000000E+02  0.51100000000E-03 0.  1.
    9900012    2    1    2    0    0 -0.95681302430E+00  0.64516384772E+00 -0.24736803198E+00  0.90007780318E+02  0.90000042218E+02 0.  0.
        -12    1    1    2    0    0  0.95681302430E+00 -0.64516384772E+00  0.24736803198E+00  0.11802196817E+01  0.00000000000E+00 0.  1.
         11    1    3    3    0    0 -0.22161253952E+01 -0.55413130086E+01  0.75038548891E+01  0.95877630386E+01  0.51100000000E-03 0. -1.
        -11    1    3    3    0    0 -0.38219146104E+02  0.10168163081E+02  0.18652107309E+01  0.39592596287E+02  0.51100000000E-03 0.  1.
         12    1    3    3    0    0  0.39478458475E+02 -0.39816862243E+01 -0.96164336520E+01  0.40827420993E+02  0.00000000000E+00 0. -1.
</event>
<event>
 7    1  0.2879200E-015  0.9000755E+02  0.7816164E-02  0.1186339E+00
        -11   -1    0    0    0    0  0.00000000000E+00  0.00000000000E+00  0.45593999997E+02  0.45594000000E+02  0.51100000000E-03 0. -1.
         11   -1    0    0    0    0 -0.00000000000E+00 -0.00000000000E+00 -0.45593999997E+02  0.45594000000E+02  0.51100000000E-03 0.  1.
    9900012    2    1    2    0    0  0.24329400597E+00 -0.11484182117E+01 -0.12412248542E+00  0.90007549767E+02  0.89999808623E+02 0.  0.
        -12    1    1    2    0    0 -0.24329400597E+00  0.11484182117E+01  0.12412248542E+00  0.11804502334E+01  0.00000000000E+00 0.  1.
         11    1    3    3    0    0 -0.62384342803E+01 -0.52374294537E+01 -0.10506206296E+02  0.13293949772E+02  0.51100000000E-03 0. -1.
        -11    1    3    3    0    0  0.83073830751E+01 -0.31382369995E+01 -0.32242003021E+02  0.33442606120E+02  0.51100000000E-03 0.  1.
         12    1    3    3    0    0 -0.18256547888E+01  0.72272482416E+01  0.42624086832E+02  0.43270993874E+02  0.00000000000E+00 0. -1.
</event>
<event>
 7    1  0.2879200E-015  0.9000781E+02  0.7816164E-02  0.1186339E+00
        -11   -1    0    0    0    0  0.00000000000E+00  0.00000000000E+00  0.45593999997E+02  0.45594000000E+02  0.51100000000E-03 0. -1.
         11   -1    0    0    0    0 -0.00000000000E+00 -0.00000000000E+00 -0.45593999997E+02  0.45594000000E+02  0.51100000000E-03 0.  1.
    9900012    2    1    2    0    0 -0.79245445359E+00  0.37402561602E+00 -0.79054630970E+00  0.90007812434E+02  0.90000074758E+02 0.  0.
        -12    1    1    2    0    0  0.79245445359E+00 -0.37402561602E+00  0.79054630970E+00  0.11801875657E+01  0.00000000000E+00 0.  1.
         11    1    3    3    0    0  0.10915933282E+02  0.74789704475E+01  0.28401679269E+02  0.31332857896E+02  0.51100000000E-03 0. -1.
        -11    1    3    3    0    0  0.14917082785E+02  0.49528133101E+01  0.20976650161E+01  0.15857172424E+02  0.51100000000E-03 0.  1.
        -12    1    3    3    0    0 -0.26625470520E+02 -0.12057758142E+02 -0.31289890594E+02  0.42817782115E+02  0.00000000000E+00 0.  1.
</event>
<event>
 7    1  0.2879200E-015  0.9000745E+02  0.7816164E-02  0.1186340E+00
        -11   -1    0    0    0    0  0.00000000000E+00  0.00000000000E+00  0.45593999997E+02  0.45594000000E+02  0.51100000000E-03 0. -1.
         11   -1    0    0    0    0 -0.00000000000E+00 -0.00000000000E+00 -0.45593999997E+02  0.45594000000E+02  0.51100000000E-03 0.  1.
    9900012    2    1    2    0    0  0.64230972504E+00 -0.85663992466E+00  0.49728598410E+00  0.90007454747E+02  0.89999712350E+02 0.  0.
        -12    1    1    2    0    0 -0.64230972504E+00  0.85663992466E+00 -0.49728598410E+00  0.11805452526E+01  0.00000000000E+00 0.  1.
         11    1    3    3    0    0 -0.37086286881E+01 -0.63926464518E+01  0.93712722858E+01  0.11934848131E+02  0.51100000000E-03 0. -1.
        -11    1    3    3    0    0  0.11849821444E+02  0.38992571443E+02  0.50528171204E+01  0.41065433848E+02  0.51100000000E-03 0.  1.
         12    1    3    3    0    0 -0.74988830314E+01 -0.33456564916E+02 -0.13926803422E+02  0.37007172768E+02  0.00000000000E+00 0. -1.
</event>
<event>
 7    1  0.2879200E-015  0.9000771E+02  0.7816164E-02  0.1186339E+00
        -11   -1    0    0    0    0  0.00000000000E+00  0.00000000000E+00  0.45593999997E+02  0.45594000000E+02  0.51100000000E-03 0. -1.
         11   -1    0    0    0    0 -0.00000000000E+00 -0.00000000000E+00 -0.45593999997E+02  0.45594000000E+02  0.51100000000E-03 0.  1.
    9900012    2    1    2    0    0 -0.10310244329E+01  0.35776975111E+00 -0.44953739067E+00  0.90007705782E+02  0.89999966698E+02 0.  0.
        -12    1    1    2    0    0  0.10310244329E+01 -0.35776975111E+00  0.44953739067E+00  0.11802942183E+01  0.00000000000E+00 0.  1.
         11    1    3    3    0    0 -0.10106788617E+01 -0.36565315285E+01  0.13154474842E+02  0.13690577168E+02  0.51100000000E-03 0. -1.
        -11    1    3    3    0    0  0.33463027910E+02  0.18482901089E+02 -0.10847657154E+02  0.39737432423E+02  0.51100000000E-03 0.  1.
         12    1    3    3    0    0 -0.33483373481E+02 -0.14468599809E+02 -0.27563550784E+01  0.36579696191E+02  0.00000000000E+00 0. -1.
</event>
<event>
 7    1  0.2879200E-015  0.9000761E+02  0.7816164E-02  0.1186339E+00
        -11   -1    0    0    0    0  0.00000000000E+00  0.00000000000E+00  0.45593999997E+02  0.45594000000E+02  0.51100000000E-03 0.  1.
         11   -1    0    0    0    0 -0.00000000000E+00 -0.00000000000E+00 -0.45593999997E+02  0.45594000000E+02  0.51100000000E-03 0. -1.
    9900012    2    1    2    0    0 -0.11372836994E+01 -0.12635948124E+00  0.28973943325E+00  0.90007606053E+02  0.89999865653E+02 0.  0.
        -12    1    1    2    0    0  0.11372836994E+01  0.12635948124E+00 -0.28973943325E+00  0.11803939472E+01  0.00000000000E+00 0.  1.
         11    1    3    3    0    0 -0.51645387196E+00  0.31223551925E+01 -0.65691328338E+01  0.72917304530E+01  0.51100000000E-03 0. -1.
        -11    1    3    3    0    0  0.18164999848E+02  0.35214471156E+02  0.35703607441E+01  0.39784088206E+02  0.51100000000E-03 0.  1.
         12    1    3    3    0    0 -0.18785829676E+02 -0.38463185830E+02  0.32885115229E+01  0.42931787394E+02  0.00000000000E+00 0. -1.
</event>
<event>
 7    1  0.2879200E-015  0.9000774E+02  0.7816164E-02  0.1186339E+00
        -11   -1    0    0    0    0  0.00000000000E+00  0.00000000000E+00  0.45593999997E+02  0.45594000000E+02  0.51100000000E-03 0.  1.
         11   -1    0    0    0    0 -0.00000000000E+00 -0.00000000000E+00 -0.45593999997E+02  0.45594000000E+02  0.51100000000E-03 0. -1.
    9900012    2    1    2    0    0 -0.67806945882E+00  0.96602975425E+00 -0.56814994726E-02  0.90007735641E+02  0.89999996952E+02 0.  0.
        -12    1    1    2    0    0  0.67806945882E+00 -0.96602975425E+00  0.56814994726E-02  0.11802643587E+01  0.00000000000E+00 0.  1.
         11    1    3    3    0    0 -0.56879481744E+01  0.10685385344E+02 -0.38979534228E+01  0.12717085182E+02  0.51100000000E-03 0. -1.
        -11    1    3    3    0    0 -0.31905844431E+02  0.11758067572E+02 -0.25484928440E+01  0.34098825169E+02  0.51100000000E-03 0.  1.
         12    1    3    3    0    0  0.36915723146E+02 -0.21477423162E+02  0.64407647673E+01  0.43191825290E+02  0.00000000000E+00 0. -1.
</event>
<event>
 7    1  0.2879200E-015  0.9000789E+02  0.7816164E-02  0.1186339E+00
        -11   -1    0    0    0    0  0.00000000000E+00  0.00000000000E+00  0.45593999997E+02  0.45594000000E+02  0.51100000000E-03 0.  1.
         11   -1    0    0    0    0 -0.00000000000E+00 -0.00000000000E+00 -0.45593999997E+02  0.45594000000E+02  0.51100000000E-03 0. -1.
    9900012    2    1    2    0    0  0.85932772593E+00  0.79007242532E+00 -0.17321473302E+00  0.90007889022E+02  0.90000152356E+02 0.  0.
        -12    1    1    2    0    0 -0.85932772593E+00 -0.79007242532E+00  0.17321473302E+00  0.11801109785E+01  0.00000000000E+00 0.  1.
         11    1    3    3    0    0 -0.33197931306E+02  0.32368244867E+01  0.18665494045E+02  0.38222772584E+02  0.51100000000E-03 0. -1.
        -11    1    3    3    0    0 -0.65980102729E+01  0.26533375214E+01 -0.42879450011E+01  0.83042406129E+01  0.51100000000E-03 0.  1.
        -12    1    3    3    0    0  0.40655269305E+02 -0.51000895828E+01 -0.14550763777E+02  0.43480875825E+02  0.00000000000E+00 0.  1.
</event>
<event>
 7    1  0.2879200E-015  0.9000776E+02  0.7816164E-02  0.1186339E+00
        -11   -1    0    0    0    0  0.00000000000E+00  0.00000000000E+00  0.45593999997E+02  0.45594000000E+02  0.51100000000E-03 0.  1.
         11   -1    0    0    0    0 -0.00000000000E+00 -0.00000000000E+00 -0.45593999997E+02  0.45594000000E+02  0.51100000000E-03 0. -1.
    9900012    2    1    2    0    0 -0.87243361344E+00  0.74159639387E+00  0.28612291944E+00  0.90007757675E+02  0.90000019276E+02 0.  0.
        -12    1    1    2    0    0  0.87243361344E+00 -0.74159639387E+00 -0.28612291944E+00  0.11802423252E+01  0.00000000000E+00 0.  1.
         11    1    3    3    0    0 -0.95181251921E+01  0.49744638595E+01  0.47387283973E-01  0.10739750634E+02  0.51100000000E-03 0. -1.
        -11    1    3    3    0    0  0.18583047964E+02  0.76322027970E+01  0.35483006547E+02  0.40775285959E+02  0.51100000000E-03 0.  1.
         12    1    3    3    0    0 -0.99373563848E+01 -0.11865070263E+02 -0.35244270911E+02  0.38492721082E+02  0.00000000000E+00 0. -1.
</event>
<event>
 7    1  0.2879200E-015  0.9000773E+02  0.7816164E-02  0.1186339E+00
        -11   -1    0    0    0    0  0.00000000000E+00  0.00000000000E+00  0.45593999997E+02  0.45594000000E+02  0.51100000000E-03 0.  1.
         11   -1    0    0    0    0 -0.00000000000E+00 -0.00000000000E+00 -0.45593999997E+02  0.45594000000E+02  0.51100000000E-03 0. -1.
    9900012    2    1    2    0    0  0.40518626404E+00  0.10335281289E+01 -0.40084147457E+00  0.90007733001E+02  0.89999994276E+02 0.  0.
        -12    1    1    2    0    0 -0.40518626404E+00 -0.10335281289E+01  0.40084147457E+00  0.11802669993E+01  0.00000000000E+00 0.  1.
         11    1    3    3    0    0  0.10358343781E+02 -0.80252760959E+00  0.93794009351E+01  0.13996874601E+02  0.51100000000E-03 0. -1.
        -11    1    3    3    0    0  0.29988759604E+02  0.63503439779E+01  0.85626036071E+01  0.31827201448E+02  0.51100000000E-03 0.  1.
         12    1    3    3    0    0 -0.39941917121E+02 -0.45142882394E+01 -0.18342846017E+02  0.44183656951E+02  0.00000000000E+00 0. -1.
</event>
<event>
 7    1  0.2879200E-015  0.9000783E+02  0.7816164E-02  0.1186339E+00
        -11   -1    0    0    0    0  0.00000000000E+00  0.00000000000E+00  0.45593999997E+02  0.45594000000E+02  0.51100000000E-03 0. -1.
         11   -1    0    0    0    0 -0.00000000000E+00 -0.00000000000E+00 -0.45593999997E+02  0.45594000000E+02  0.51100000000E-03 0.  1.
    9900012    2    1    2    0    0  0.25847363346E+00 -0.11460792117E+01  0.11183255529E+00  0.90007825140E+02  0.90000087632E+02 0.  0.
        -12    1    1    2    0    0 -0.25847363346E+00  0.11460792117E+01 -0.11183255529E+00  0.11801748595E+01  0.00000000000E+00 0.  1.
         11    1    3    3    0    0  0.30440448411E+02  0.77299443826E+01 -0.54624769568E+01  0.31878073881E+02  0.51100000000E-03 0.  1.
        -11    1    3    3    0    0 -0.22869451654E-01  0.65881232825E+01  0.20176851519E+02  0.21225202682E+02  0.51100000000E-03 0. -1.
         12    1    3    3    0    0 -0.30159105325E+02 -0.15464146877E+02 -0.14602542007E+02  0.36904548578E+02  0.00000000000E+00 0. -1.
</event>
<event>
 7    1  0.2879200E-015  0.9000773E+02  0.7816164E-02  0.1186339E+00
        -11   -1    0    0    0    0  0.00000000000E+00  0.00000000000E+00  0.45593999997E+02  0.45594000000E+02  0.51100000000E-03 0.  1.
         11   -1    0    0    0    0 -0.00000000000E+00 -0.00000000000E+00 -0.45593999997E+02  0.45594000000E+02  0.51100000000E-03 0. -1.
    9900012    2    1    2    0    0 -0.96078434724E+00  0.55529559780E+00  0.40196259085E+00  0.90007731519E+02  0.89999992775E+02 0.  0.
        -12    1    1    2    0    0  0.96078434724E+00 -0.55529559780E+00 -0.40196259085E+00  0.11802684810E+01  0.00000000000E+00 0.  1.
         11    1    3    3    0    0 -0.30880412331E+02  0.23738005470E+02 -0.15776670300E+02  0.42023756322E+02  0.51100000000E-03 0. -1.
        -11    1    3    3    0    0  0.47613321301E+01  0.40604501639E+01  0.77400883119E+01  0.99532158885E+01  0.51100000000E-03 0.  1.
        -12    1    3    3    0    0  0.25158295854E+02 -0.27243160036E+02  0.84385445785E+01  0.38030759309E+02  0.00000000000E+00 0.  1.
</event>
<event>
 7    1  0.2879200E-015  0.9000778E+02  0.7816164E-02  0.1186339E+00
        -11   -1    0    0    0    0  0.00000000000E+00  0.00000000000E+00  0.45593999997E+02  0.45594000000E+02  0.51100000000E-03 0.  1.
         11   -1    0    0    0    0 -0.00000000000E+00 -0.00000000000E+00 -0.45593999997E+02  0.45594000000E+02  0.51100000000E-03 0. -1.
    9900012    2    1    2    0    0  0.10110826551E+01  0.47181862181E+00  0.38473402086E+00  0.90007779167E+02  0.90000041052E+02 0.  0.
        -12    1    1    2    0    0 -0.10110826551E+01 -0.47181862181E+00 -0.38473402086E+00  0.11802208328E+01  0.00000000000E+00 0.  1.
         11    1    3    3    0    0  0.18094507559E+01 -0.30472434806E+01 -0.45458013627E+01  0.57640363599E+01  0.51100000000E-03 0. -1.
        -11    1    3    3    0    0  0.52086040542E-01 -0.39586666592E+02  0.10006599953E+02  0.40831837182E+02  0.51100000000E-03 0.  1.
         12    1    3    3    0    0 -0.85045414138E+00  0.43105728694E+02 -0.50760645698E+01  0.43411905625E+02  0.00000000000E+00 0. -1.
</event>
<event>
 7    1  0.2879200E-015  0.9000770E+02  0.7816164E-02  0.1186339E+00
        -11   -1    0    0    0    0  0.00000000000E+00  0.00000000000E+00  0.45593999997E+02  0.45594000000E+02  0.51100000000E-03 0.  1.
         11   -1    0    0    0    0 -0.00000000000E+00 -0.00000000000E+00 -0.45593999997E+02  0.45594000000E+02  0.51100000000E-03 0. -1.
    9900012    2    1    2    0    0  0.37976680942E+00  0.79323702023E+00 -0.78718743501E+00  0.90007698404E+02  0.89999959223E+02 0.  0.
        -12    1    1    2    0    0 -0.37976680942E+00 -0.79323702023E+00  0.78718743501E+00  0.11803015960E+01  0.00000000000E+00 0.  1.
         11    1    3    3    0    0  0.39230696705E+02  0.61060338790E+01  0.24882858985E+01  0.39780934890E+02  0.51100000000E-03 0. -1.
        -11    1    3    3    0    0 -0.82558210456E+00  0.93337814484E+01 -0.73694974360E+00  0.93991572560E+01  0.51100000000E-03 0.  1.
        -12    1    3    3    0    0 -0.38025347791E+02 -0.14646578307E+02 -0.25385235899E+01  0.40827606258E+02  0.00000000000E+00 0.  1.
</event>
<event>
 7    1  0.2879200E-015  0.9000776E+02  0.7816164E-02  0.1186339E+00
        -11   -1    0    0    0    0  0.00000000000E+00  0.00000000000E+00  0.45593999997E+02  0.45594000000E+02  0.51100000000E-03 0.  1.
         11   -1    0    0    0    0 -0.00000000000E+00 -0.00000000000E+00 -0.45593999997E+02  0.45594000000E+02  0.51100000000E-03 0. -1.
    9900012    2    1    2    0    0 -0.10259275608E+01 -0.38797343306E+00 -0.43578342277E+00  0.90007763610E+02  0.90000025290E+02 0.  0.
        -12    1    1    2    0    0  0.10259275608E+01  0.38797343306E+00  0.43578342277E+00  0.11802363900E+01  0.00000000000E+00 0.  1.
         11    1    3    3    0    0 -0.35029648489E+02  0.35462762298E+01 -0.15079990806E+02  0.38302199301E+02  0.51100000000E-03 0. -1.
        -11    1    3    3    0    0 -0.52942725061E+01  0.70021855104E+01  0.20553522712E+01  0.90157859618E+01  0.51100000000E-03 0.  1.
        -12    1    3    3    0    0  0.39297993434E+02 -0.10936435173E+02  0.12588855112E+02  0.42689778347E+02  0.00000000000E+00 0.  1.
</event>
<event>
 7    1  0.2879200E-015  0.9000776E+02  0.7816164E-02  0.1186339E+00
        -11   -1    0    0    0    0  0.00000000000E+00  0.00000000000E+00  0.45593999997E+02  0.45594000000E+02  0.51100000000E-03 0.  1.
         11   -1    0    0    0    0 -0.00000000000E+00 -0.00000000000E+00 -0.45593999997E+02  0.45594000000E+02  0.51100000000E-03 0. -1.
    9900012    2    1    2    0    0  0.24984911790E+00  0.97505912951E+00 -0.61627884934E+00  0.90007760826E+02  0.90000022469E+02 0.  0.
        -12    1    1    2    0    0 -0.24984911790E+00 -0.97505912951E+00  0.61627884934E+00  0.11802391740E+01  0.00000000000E+00 0.  1.
         11    1    3    3    0    0  0.81627333482E+01 -0.49997815465E+01 -0.22492033583E+01  0.98329521119E+01  0.51100000000E-03 0. -1.
        -11    1    3    3    0    0 -0.71073204296E+01 -0.36590788260E+02 -0.27533066801E+01  0.37376202150E+02  0.51100000000E-03 0.  1.
         12    1    3    3    0    0 -0.80556380068E+00  0.42565628936E+02  0.43862311891E+01  0.42798606564E+02  0.00000000000E+00 0. -1.
</event>
<event>
 7    1  0.2904917E-015  0.9000752E+02  0.7816164E-02  0.1186339E+00
        -11   -1    0    0    0    0  0.00000000000E+00  0.00000000000E+00  0.45593999997E+02  0.45594000000E+02  0.51100000000E-03 0.  1.
         11   -1    0    0    0    0 -0.00000000000E+00 -0.00000000000E+00 -0.45593999997E+02  0.45594000000E+02  0.51100000000E-03 0. -1.
    9900012    2    1    2    0    0 -0.10607107417E+01 -0.41055696598E+00  0.31602870562E+00  0.90007517708E+02  0.89999776141E+02 0.  0.
        -12    1    1    2    0    0  0.10607107417E+01  0.41055696598E+00 -0.31602870562E+00  0.11804822924E+01  0.00000000000E+00 0.  1.
         11    1    3    3    0    0 -0.26590297861E+02  0.19620817399E+02 -0.20003985050E+02  0.38628743622E+02  0.51100000000E-03 0. -1.
        -11    1    3    3    0    0  0.23443115304E+01 -0.15130528586E+01 -0.91452804208E+01  0.95614475756E+01  0.51100000000E-03 0.  1.
        -12    1    3    3    0    0  0.23185275589E+02 -0.18518321507E+02  0.29465294176E+02  0.41817326510E+02  0.00000000000E+00 0.  1.
</event>
<event>
 7    1  0.2879200E-015  0.9000767E+02  0.7816164E-02  0.1186339E+00
        -11   -1    0    0    0    0  0.00000000000E+00  0.00000000000E+00  0.45593999997E+02  0.45594000000E+02  0.51100000000E-03 0.  1.
         11   -1    0    0    0    0 -0.00000000000E+00 -0.00000000000E+00 -0.45593999997E+02  0.45594000000E+02  0.51100000000E-03 0. -1.
    9900012    2    1    2    0    0 -0.72175411431E-01 -0.10586334064E+01 -0.51697008151E+00  0.90007672908E+02  0.89999933390E+02 0.  0.
        -12    1    1    2    0    0  0.72175411431E-01  0.10586334064E+01  0.51697008151E+00  0.11803270921E+01  0.00000000000E+00 0.  1.
         11    1    3    3    0    0  0.10388494563E+00 -0.42892935580E+01  0.87976864912E+01  0.97881621956E+01  0.51100000000E-03 0. -1.
        -11    1    3    3    0    0 -0.73479259068E+01 -0.35777741706E+02  0.72501816419E+01  0.37237131345E+02  0.51100000000E-03 0.  1.
         12    1    3    3    0    0  0.71718655497E+01  0.39008401858E+02 -0.16564838215E+02  0.42982379367E+02  0.00000000000E+00 0. -1.
</event>
<event>
 7    1  0.2879200E-015  0.9000768E+02  0.7816164E-02  0.1186339E+00
        -11   -1    0    0    0    0  0.00000000000E+00  0.00000000000E+00  0.45593999997E+02  0.45594000000E+02  0.51100000000E-03 0. -1.
         11   -1    0    0    0    0 -0.00000000000E+00 -0.00000000000E+00 -0.45593999997E+02  0.45594000000E+02  0.51100000000E-03 0.  1.
    9900012    2    1    2    0    0  0.86569317422E+00  0.57656025601E+00  0.55794255580E+00  0.90007683815E+02  0.89999944441E+02 0.  0.
        -12    1    1    2    0    0 -0.86569317422E+00 -0.57656025601E+00 -0.55794255580E+00  0.11803161849E+01  0.00000000000E+00 0.  1.
         11    1    3    3    0    0 -0.34449352887E+02 -0.71593932216E+00  0.23071852039E+02  0.41467828978E+02  0.51100000000E-03 0. -1.
        -11    1    3    3    0    0  0.37513667475E+01  0.16670322567E+00  0.52725161162E+01  0.64730185305E+01  0.51100000000E-03 0.  1.
        -12    1    3    3    0    0  0.31563679313E+02  0.11257963525E+01 -0.27786425599E+02  0.42066836306E+02  0.00000000000E+00 0.  1.
</event>
<event>
 7    1  0.3039236E-015  0.9000774E+02  0.7816164E-02  0.1186339E+00
        -11   -1    0    0    0    0  0.00000000000E+00  0.00000000000E+00  0.45593999997E+02  0.45594000000E+02  0.51100000000E-03 0.  1.
         11   -1    0    0    0    0 -0.00000000000E+00 -0.00000000000E+00 -0.45593999997E+02  0.45594000000E+02  0.51100000000E-03 0. -1.
    9900012    2    1    2    0    0  0.64197670576E+00 -0.29731474439E-01 -0.98994874316E+00  0.90007738772E+02  0.90000000124E+02 0.  0.
        -12    1    1    2    0    0 -0.64197670576E+00  0.29731474439E-01  0.98994874316E+00  0.11802612276E+01  0.00000000000E+00 0.  1.
         11    1    3    3    0    0  0.19916883164E+02 -0.18170972960E+02 -0.26550433601E+02  0.37839027709E+02  0.51100000000E-03 0. -1.
        -11    1    3    3    0    0  0.84168434519E+01  0.32998588503E+01 -0.31844252509E+01  0.95850345104E+01  0.51100000000E-03 0.  1.
        -12    1    3    3    0    0 -0.27691749911E+02  0.14841382635E+02  0.28744910109E+02  0.42583676553E+02  0.00000000000E+00 0.  1.
</event>
<event>
 7    1  0.2879200E-015  0.9000772E+02  0.7816164E-02  0.1186339E+00
        -11   -1    0    0    0    0  0.00000000000E+00  0.00000000000E+00  0.45593999997E+02  0.45594000000E+02  0.51100000000E-03 0. -1.
         11   -1    0    0    0    0 -0.00000000000E+00 -0.00000000000E+00 -0.45593999997E+02  0.45594000000E+02  0.51100000000E-03 0.  1.
    9900012    2    1    2    0    0 -0.22866624170E+00  0.11579204152E+01 -0.20518854360E-02  0.90007715226E+02  0.89999976267E+02 0.  0.
        -12    1    1    2    0    0  0.22866624170E+00 -0.11579204152E+01  0.20518854360E-02  0.11802847742E+01  0.00000000000E+00 0.  1.
         11    1    3    3    0    0 -0.22748547492E+02 -0.10887659767E+02  0.18007286799E+02  0.30988706432E+02  0.51100000000E-03 0. -1.
        -11    1    3    3    0    0  0.98381664638E+01 -0.90090744609E+01  0.13551961014E+02  0.19016008771E+02  0.51100000000E-03 0.  1.
        -12    1    3    3    0    0  0.12681714787E+02  0.21054654643E+02 -0.31561299699E+02  0.40003000022E+02  0.00000000000E+00 0.  1.
</event>
<event>
 7    1  0.2879200E-015  0.9000804E+02  0.7816164E-02  0.1186338E+00
        -11   -1    0    0    0    0  0.00000000000E+00  0.00000000000E+00  0.45593999997E+02  0.45594000000E+02  0.51100000000E-03 0.  1.
         11   -1    0    0    0    0 -0.00000000000E+00 -0.00000000000E+00 -0.45593999997E+02  0.45594000000E+02  0.51100000000E-03 0. -1.
    9900012    2    1    2    0    0  0.38067837023E+00  0.34565751707E+00 -0.10620308793E+01  0.90008040370E+02  0.90000305702E+02 0.  0.
        -12    1    1    2    0    0 -0.38067837023E+00 -0.34565751707E+00  0.10620308793E+01  0.11799596304E+01  0.00000000000E+00 0.  1.
         11    1    3    3    0    0 -0.95630541029E+01  0.32102079673E+02 -0.17536744545E+02  0.37809164664E+02  0.51100000000E-03 0. -1.
        -11    1    3    3    0    0 -0.80488862259E+00  0.81561387724E+01  0.28177155743E+01  0.86666006420E+01  0.51100000000E-03 0.  1.
        -12    1    3    3    0    0  0.10748621096E+02 -0.39912560929E+02  0.13656998091E+02  0.43532275063E+02  0.00000000000E+00 0.  1.
</event>
<event>
 7    1  0.2879200E-015  0.9000785E+02  0.7816164E-02  0.1186339E+00
        -11   -1    0    0    0    0  0.00000000000E+00  0.00000000000E+00  0.45593999997E+02  0.45594000000E+02  0.51100000000E-03 0.  1.
         11   -1    0    0    0    0 -0.00000000000E+00 -0.00000000000E+00 -0.45593999997E+02  0.45594000000E+02  0.51100000000E-03 0. -1.
    9900012    2    1    2    0    0 -0.90574526067E+00 -0.75390668764E+00 -0.63366561662E-01  0.90007845310E+02  0.90000108068E+02 0.  0.
        -12    1    1    2    0    0  0.90574526067E+00  0.75390668764E+00  0.63366561662E-01  0.11801546899E+01  0.00000000000E+00 0.  1.
         11    1    3    3    0    0  0.88922408671E+01 -0.12291817833E+02 -0.38358059735E+02  0.41249260359E+02  0.51100000000E-03 0. -1.
        -11    1    3    3    0    0 -0.12871701471E+01 -0.80701735816E+01  0.15415836001E+02  0.17447994398E+02  0.51100000000E-03 0.  1.
        -12    1    3    3    0    0 -0.85108159807E+01  0.19608084727E+02  0.22878857171E+02  0.31310590553E+02  0.00000000000E+00 0.  1.
</event>
<event>
 7    1  0.2879200E-015  0.9000777E+02  0.7816164E-02  0.1186339E+00
        -11   -1    0    0    0    0  0.00000000000E+00  0.00000000000E+00  0.45593999997E+02  0.45594000000E+02  0.51100000000E-03 0.  1.
         11   -1    0    0    0    0 -0.00000000000E+00 -0.00000000000E+00 -0.45593999997E+02  0.45594000000E+02  0.51100000000E-03 0. -1.
    9900012    2    1    2    0    0  0.44566825757E+00  0.82493191036E+00 -0.71680105646E+00  0.90007772646E+02  0.90000034445E+02 0.  0.
        -12    1    1    2    0    0 -0.44566825757E+00 -0.82493191036E+00  0.71680105646E+00  0.11802273540E+01  0.00000000000E+00 0.  1.
         11    1    3    3    0    0 -0.33133353088E+00 -0.74733487938E+01  0.29361989352E+01  0.80362919653E+01  0.51100000000E-03 0. -1.
        -11    1    3    3    0    0  0.19009702575E+02 -0.28562093640E+02 -0.17583180511E+02  0.38552953483E+02  0.51100000000E-03 0.  1.
         12    1    3    3    0    0 -0.18232700786E+02  0.36860374344E+02  0.13930180519E+02  0.43418527198E+02  0.00000000000E+00 0. -1.
</event>
<event>
 7    1  0.2879200E-015  0.9000750E+02  0.7816164E-02  0.1186340E+00
        -11   -1    0    0    0    0  0.00000000000E+00  0.00000000000E+00  0.45593999997E+02  0.45594000000E+02  0.51100000000E-03 0. -1.
         11   -1    0    0    0    0 -0.00000000000E+00 -0.00000000000E+00 -0.45593999997E+02  0.45594000000E+02  0.51100000000E-03 0.  1.
    9900012    2    1    2    0    0 -0.30363425565E+00  0.10713625880E+01  0.39187842717E+00  0.90007499997E+02  0.89999758196E+02 0.  0.
        -12    1    1    2    0    0  0.30363425565E+00 -0.10713625880E+01 -0.39187842717E+00  0.11805000034E+01  0.00000000000E+00 0.  1.
         11    1    3    3    0    0 -0.66208823975E+01  0.12569833157E+02 -0.36710909157E+02  0.39364039944E+02  0.51100000000E-03 0. -1.
        -11    1    3    3    0    0 -0.72108132244E+01 -0.67079111827E+01 -0.10274745763E+01  0.99018990127E+01  0.51100000000E-03 0.  1.
        -12    1    3    3    0    0  0.13528061366E+02 -0.47905593858E+01  0.38130262160E+02  0.40741561040E+02  0.00000000000E+00 0.  1.
</event>
<event>
 7    1  0.2879200E-015  0.9000791E+02  0.7816164E-02  0.1186339E+00
        -11   -1    0    0    0    0  0.00000000000E+00  0.00000000000E+00  0.45593999997E+02  0.45594000000E+02  0.51100000000E-03 0. -1.
         11   -1    0    0    0    0 -0.00000000000E+00 -0.00000000000E+00 -0.45593999997E+02  0.45594000000E+02  0.51100000000E-03 0.  1.
    9900012    2    1    2    0    0 -0.11109271147E+01  0.23585478805E+00 -0.32065307335E+00  0.90007913169E+02  0.90000176823E+02 0.  0.
        -12    1    1    2    0    0  0.11109271147E+01 -0.23585478805E+00  0.32065307335E+00  0.11800868310E+01  0.00000000000E+00 0.  1.
         11    1    3    3    0    0  0.25315313200E+02  0.28101114134E+02  0.73555567168E+01  0.38531051282E+02  0.51100000000E-03 0. -1.
        -11    1    3    3    0    0 -0.15227770258E+02 -0.14581425897E+02  0.12767347528E+02  0.24647680041E+02  0.51100000000E-03 0.  1.
        -12    1    3    3    0    0 -0.11198470057E+02 -0.13283833449E+02 -0.20443557318E+02  0.26829181846E+02  0.00000000000E+00 0.  1.
</event>
<event>
 7    1  0.2879200E-015  0.9000775E+02  0.7816164E-02  0.1186339E+00
        -11   -1    0    0    0    0  0.00000000000E+00  0.00000000000E+00  0.45593999997E+02  0.45594000000E+02  0.51100000000E-03 0.  1.
         11   -1    0    0    0    0 -0.00000000000E+00 -0.00000000000E+00 -0.45593999997E+02  0.45594000000E+02  0.51100000000E-03 0. -1.
    9900012    2    1    2    0    0 -0.27583059954E+00 -0.67569107206E+00 -0.92755364648E+00  0.90007747183E+02  0.90000008646E+02 0.  0.
        -12    1    1    2    0    0  0.27583059954E+00  0.67569107206E+00  0.92755364648E+00  0.11802528168E+01  0.00000000000E+00 0.  1.
         11    1    3    3    0    0 -0.84000958783E+01 -0.34773240545E+01 -0.22795803627E+01  0.93728266940E+01  0.51100000000E-03 0. -1.
        -11    1    3    3    0    0  0.17468255312E+02 -0.31295589806E+02  0.19599049291E+02  0.40849438408E+02  0.51100000000E-03 0.  1.
         12    1    3    3    0    0 -0.93439900330E+01  0.34097222788E+02 -0.18247022574E+02  0.39785482081E+02  0.00000000000E+00 0. -1.
</event>
<event>
 7    1  0.2879200E-015  0.9000784E+02  0.7816164E-02  0.1186339E+00
        -11   -1    0    0    0    0  0.00000000000E+00  0.00000000000E+00  0.45593999997E+02  0.45594000000E+02  0.51100000000E-03 0.  1.
         11   -1    0    0    0    0 -0.00000000000E+00 -0.00000000000E+00 -0.45593999997E+02  0.45594000000E+02  0.51100000000E-03 0. -1.
    9900012    2    1    2    0    0 -0.15781572735E+00  0.97303502593E-01 -0.11655084783E+01  0.90007837389E+02  0.90000100042E+02 0.  0.
        -12    1    1    2    0    0  0.15781572735E+00 -0.97303502593E-01  0.11655084783E+01  0.11801626110E+01  0.00000000000E+00 0.  1.
         11    1    3    3    0    0 -0.35296754339E+01 -0.26528868666E+02 -0.13643000705E+02  0.30039489841E+02  0.51100000000E-03 0. -1.
        -11    1    3    3    0    0  0.23437927896E+02 -0.17143403665E+01  0.86117925248E+01  0.25028751421E+02  0.51100000000E-03 0.  1.
        -12    1    3    3    0    0 -0.20066068189E+02  0.28340512536E+02  0.38656997021E+01  0.34939596127E+02  0.00000000000E+00 0.  1.
</event>
<event>
 7    1  0.2879200E-015  0.9000775E+02  0.7816164E-02  0.1186339E+00
        -11   -1    0    0    0    0  0.00000000000E+00  0.00000000000E+00  0.45593999997E+02  0.45594000000E+02  0.51100000000E-03 0.  1.
         11   -1    0    0    0    0 -0.00000000000E+00 -0.00000000000E+00 -0.45593999997E+02  0.45594000000E+02  0.51100000000E-03 0. -1.
    9900012    2    1    2    0    0  0.35145674218E+00  0.73780454117E+00 -0.85153940021E+00  0.90007747174E+02  0.90000008637E+02 0.  0.
        -12    1    1    2    0    0 -0.35145674218E+00 -0.73780454117E+00  0.85153940021E+00  0.11802528258E+01  0.00000000000E+00 0.  1.
         11    1    3    3    0    0  0.72561612982E+01 -0.39160679895E+01 -0.44913659143E+01  0.93893467995E+01  0.51100000000E-03 0. -1.
        -11    1    3    3    0    0 -0.28956497871E+02 -0.19816001748E+02 -0.19707263843E+02  0.40243371412E+02  0.51100000000E-03 0.  1.
         12    1    3    3    0    0  0.22051793315E+02  0.24469874278E+02  0.23347090357E+02  0.40375028962E+02  0.00000000000E+00 0. -1.
</event>
<event>
 7    1  0.2879200E-015  0.9000774E+02  0.7816164E-02  0.1186339E+00
        -11   -1    0    0    0    0  0.00000000000E+00  0.00000000000E+00  0.45593999997E+02  0.45594000000E+02  0.51100000000E-03 0.  1.
         11   -1    0    0    0    0 -0.00000000000E+00 -0.00000000000E+00 -0.45593999997E+02  0.45594000000E+02  0.51100000000E-03 0. -1.
    9900012    2    1    2    0    0  0.65565815434E+00 -0.95151273456E+00  0.24032489368E+00  0.90007737252E+02  0.89999998584E+02 0.  0.
        -12    1    1    2    0    0 -0.65565815434E+00  0.95151273456E+00 -0.24032489368E+00  0.11802627478E+01  0.00000000000E+00 0.  1.
         11    1    3    3    0    0  0.19841933640E+02 -0.32970125522E+02 -0.12802647323E+02  0.40554152516E+02  0.51100000000E-03 0. -1.
        -11    1    3    3    0    0  0.77465603912E+01  0.48607422440E+01  0.34189119676E+00  0.91516612104E+01  0.51100000000E-03 0.  1.
        -12    1    3    3    0    0 -0.26932835877E+02  0.27157870543E+02  0.12701081020E+02  0.40301923526E+02  0.00000000000E+00 0.  1.
</event>
<event>
 7    1  0.2879200E-015  0.9000782E+02  0.7816164E-02  0.1186339E+00
        -11   -1    0    0    0    0  0.00000000000E+00  0.00000000000E+00  0.45593999997E+02  0.45594000000E+02  0.51100000000E-03 0.  1.
         11   -1    0    0    0    0 -0.00000000000E+00 -0.00000000000E+00 -0.45593999997E+02  0.45594000000E+02  0.51100000000E-03 0. -1.
    9900012    2    1    2    0    0  0.56577783895E+00  0.17699761419E+00 -0.10204912103E+01  0.90007815680E+02  0.90000078047E+02 0.  0.
        -12    1    1    2    0    0 -0.56577783895E+00 -0.17699761419E+00  0.10204912103E+01  0.11801843199E+01  0.00000000000E+00 0.  1.
         11    1    3    3    0    0  0.58024491696E+01  0.91385694447E+00  0.66073198673E+01  0.88408272787E+01  0.51100000000E-03 0. -1.
        -11    1    3    3    0    0 -0.23007997167E+02 -0.68121173693E+01  0.30415014817E+02  0.38740753778E+02  0.51100000000E-03 0.  1.
         12    1    3    3    0    0  0.17771325837E+02  0.60752580390E+01 -0.38042825895E+02  0.42426234623E+02  0.00000000000E+00 0. -1.
</event>
<event>
 7    1  0.2879200E-015  0.9000765E+02  0.7816164E-02  0.1186339E+00
        -11   -1    0    0    0    0  0.00000000000E+00  0.00000000000E+00  0.45593999997E+02  0.45594000000E+02  0.51100000000E-03 0.  1.
         11   -1    0    0    0    0 -0.00000000000E+00 -0.00000000000E+00 -0.45593999997E+02  0.45594000000E+02  0.51100000000E-03 0. -1.
    9900012    2    1    2    0    0  0.11620388529E+01  0.20121653326E+00  0.48934680128E-01  0.90007653868E+02  0.89999914099E+02 0.  0.
        -12    1    1    2    0    0 -0.11620388529E+01 -0.20121653326E+00 -0.48934680128E-01  0.11803461322E+01  0.00000000000E+00 0.  1.
         11    1    3    3    0    0 -0.10002257948E+02  0.37695757252E+02 -0.57479611982E+01  0.39421495876E+02  0.51100000000E-03 0. -1.
        -11    1    3    3    0    0 -0.22378052942E+01  0.13445742410E+01  0.90039279059E+01  0.93747730863E+01  0.51100000000E-03 0.  1.
        -12    1    3    3    0    0  0.13402102095E+02 -0.38839114960E+02 -0.32070320276E+01  0.41211384906E+02  0.00000000000E+00 0.  1.
</event>
<event>
 7    1  0.2879200E-015  0.9000777E+02  0.7816164E-02  0.1186339E+00
        -11   -1    0    0    0    0  0.00000000000E+00  0.00000000000E+00  0.45593999997E+02  0.45594000000E+02  0.51100000000E-03 0. -1.
         11   -1    0    0    0    0 -0.00000000000E+00 -0.00000000000E+00 -0.45593999997E+02  0.45594000000E+02  0.51100000000E-03 0.  1.
    9900012    2    1    2    0    0  0.19977817910E+00 -0.43761902827E+00  0.10777387047E+01  0.90007770171E+02  0.90000031937E+02 0.  0.
        -12    1    1    2    0    0 -0.19977817910E+00  0.43761902827E+00 -0.10777387047E+01  0.11802298294E+01  0.00000000000E+00 0.  1.
         11    1    3    3    0    0 -0.26906281800E+01 -0.52515265414E+01 -0.74131679078E+01  0.94748651552E+01  0.51100000000E-03 0. -1.
        -11    1    3    3    0    0  0.73566857214E+01 -0.35956754496E+02 -0.56814771915E+01  0.37138769528E+02  0.51100000000E-03 0.  1.
         12    1    3    3    0    0 -0.44662793623E+01  0.40770662009E+02  0.14172383804E+02  0.43394135488E+02  0.00000000000E+00 0. -1.
</event>
<event>
 7    1  0.2879200E-015  0.9000789E+02  0.7816164E-02  0.1186339E+00
        -11   -1    0    0    0    0  0.00000000000E+00  0.00000000000E+00  0.45593999997E+02  0.45594000000E+02  0.51100000000E-03 0. -1.
         11   -1    0    0    0    0 -0.00000000000E+00 -0.00000000000E+00 -0.45593999997E+02  0.45594000000E+02  0.51100000000E-03 0.  1.
    9900012    2    1    2    0    0  0.47635420483E+00 -0.78213005193E+00  0.74431926566E+00  0.90007893261E+02  0.90000156652E+02 0.  0.
        -12    1    1    2    0    0 -0.47635420483E+00  0.78213005193E+00 -0.74431926566E+00  0.11801067392E+01  0.00000000000E+00 0.  1.
         11    1    3    3    0    0  0.51633372906E+01 -0.43583426511E+01 -0.62915400479E+01  0.92324795736E+01  0.51100000000E-03 0. -1.
        -11    1    3    3    0    0 -0.18715187129E+02 -0.11097160207E+02 -0.30875153879E+02  0.37771422018E+02  0.51100000000E-03 0.  1.
         12    1    3    3    0    0  0.14028204043E+02  0.14673372806E+02  0.37911013193E+02  0.43003991669E+02  0.00000000000E+00 0. -1.
</event>
<event>
 7    1  0.2879200E-015  0.9000774E+02  0.7816164E-02  0.1186339E+00
        -11   -1    0    0    0    0  0.00000000000E+00  0.00000000000E+00  0.45593999997E+02  0.45594000000E+02  0.51100000000E-03 0.  1.
         11   -1    0    0    0    0 -0.00000000000E+00 -0.00000000000E+00 -0.45593999997E+02  0.45594000000E+02  0.51100000000E-03 0. -1.
    9900012    2    1    2    0    0  0.22803341311E+00 -0.93049117779E+00 -0.68934894794E+00  0.90007739418E+02  0.90000000778E+02 0.  0.
        -12    1    1    2    0    0 -0.22803341311E+00  0.93049117779E+00  0.68934894794E+00  0.11802605820E+01  0.00000000000E+00 0.  1.
         11    1    3    3    0    0 -0.10889152165E+02 -0.21701370138E+01 -0.56880731730E+01  0.12475468176E+02  0.51100000000E-03 0. -1.
        -11    1    3    3    0    0 -0.26370642944E+00 -0.25279108181E+02  0.30083975858E+02  0.39295654406E+02  0.51100000000E-03 0.  1.
         12    1    3    3    0    0  0.11380892007E+02  0.26518754017E+02 -0.25085251633E+02  0.38236616835E+02  0.00000000000E+00 0. -1.
</event>
<event>
 7    1  0.2879200E-015  0.9000767E+02  0.7816164E-02  0.1186339E+00
        -11   -1    0    0    0    0  0.00000000000E+00  0.00000000000E+00  0.45593999997E+02  0.45594000000E+02  0.51100000000E-03 0. -1.
         11   -1    0    0    0    0 -0.00000000000E+00 -0.00000000000E+00 -0.45593999997E+02  0.45594000000E+02  0.51100000000E-03 0.  1.
    9900012    2    1    2    0    0 -0.27171789884E+00  0.47304560581E+00  0.10467025580E+01  0.90007665722E+02  0.89999926110E+02 0.  0.
        -12    1    1    2    0    0  0.27171789884E+00 -0.47304560581E+00 -0.10467025580E+01  0.11803342775E+01  0.00000000000E+00 0.  1.
         11    1    3    3    0    0  0.12764617547E+01  0.40004073364E+01  0.31033576782E+02  0.31316377530E+02  0.51100000000E-03 0. -1.
        -11    1    3    3    0    0  0.28406536925E+01  0.22941738407E+02 -0.97701685295E+01  0.25096789992E+02  0.51100000000E-03 0.  1.
         12    1    3    3    0    0 -0.43888333460E+01 -0.26469100137E+02 -0.20216705694E+02  0.33594498201E+02  0.00000000000E+00 0. -1.
</event>
<event>
 7    1  0.2879200E-015  0.9000760E+02  0.7816164E-02  0.1186339E+00
        -11   -1    0    0    0    0  0.00000000000E+00  0.00000000000E+00  0.45593999997E+02  0.45594000000E+02  0.51100000000E-03 0.  1.
         11   -1    0    0    0    0 -0.00000000000E+00 -0.00000000000E+00 -0.45593999997E+02  0.45594000000E+02  0.51100000000E-03 0. -1.
    9900012    2    1    2    0    0  0.92299420530E+00  0.58613317749E+00  0.44483068509E+00  0.90007599753E+02  0.89999859270E+02 0.  0.
        -12    1    1    2    0    0 -0.92299420530E+00 -0.58613317749E+00 -0.44483068509E+00  0.11804002470E+01  0.00000000000E+00 0.  1.
         11    1    3    3    0    0  0.23865487079E+01  0.47040677634E+01 -0.87674907112E+01  0.10231948099E+02  0.51100000000E-03 0. -1.
        -11    1    3    3    0    0  0.42064730552E+01 -0.30760985654E+02  0.31760270003E+02  0.44414495436E+02  0.51100000000E-03 0.  1.
         12    1    3    3    0    0 -0.56700275578E+01  0.26643051068E+02 -0.22547948606E+02  0.35361156218E+02  0.00000000000E+00 0. -1.
</event>
<event>
 7    1  0.2879200E-015  0.9000769E+02  0.7816164E-02  0.1186339E+00
        -11   -1    0    0    0    0  0.00000000000E+00  0.00000000000E+00  0.45593999997E+02  0.45594000000E+02  0.51100000000E-03 0.  1.
         11   -1    0    0    0    0 -0.00000000000E+00 -0.00000000000E+00 -0.45593999997E+02  0.45594000000E+02  0.51100000000E-03 0. -1.
    9900012    2    1    2    0    0 -0.99975760421E-01  0.57724595402E+00 -0.10246538884E+01  0.90007693415E+02  0.89999954168E+02 0.  0.
        -12    1    1    2    0    0  0.99975760421E-01 -0.57724595402E+00  0.10246538884E+01  0.11803065852E+01  0.00000000000E+00 0.  1.
         11    1    3    3    0    0 -0.55173377916E+01  0.59662964805E+00  0.68409064975E+01  0.88088015764E+01  0.51100000000E-03 0. -1.
        -11    1    3    3    0    0  0.23288851493E+02 -0.22183827910E+02  0.22745482871E+02  0.39393525050E+02  0.51100000000E-03 0.  1.
         12    1    3    3    0    0 -0.17871489462E+02  0.22164444215E+02 -0.30611043257E+02  0.41805366788E+02  0.00000000000E+00 0. -1.
</event>
<event>
 7    1  0.2879200E-015  0.9000717E+02  0.7816164E-02  0.1186340E+00
        -11   -1    0    0    0    0  0.00000000000E+00  0.00000000000E+00  0.45593999997E+02  0.45594000000E+02  0.51100000000E-03 0.  1.
         11   -1    0    0    0    0 -0.00000000000E+00 -0.00000000000E+00 -0.45593999997E+02  0.45594000000E+02  0.51100000000E-03 0. -1.
    9900012    2    1    2    0    0 -0.37295466730E+00 -0.96290738110E+00 -0.57277624345E+00  0.90007170447E+02  0.89999424295E+02 0.  0.
        -12    1    1    2    0    0  0.37295466730E+00  0.96290738110E+00  0.57277624345E+00  0.11808295531E+01  0.00000000000E+00 0.  1.
         11    1    3    3    0    0  0.13855156577E+00  0.66042052146E+01  0.37866375012E+01  0.76140230417E+01  0.51100000000E-03 0. -1.
        -11    1    3    3    0    0  0.16433921239E+02  0.28621158262E+02 -0.20988227803E+02  0.39112020839E+02  0.51100000000E-03 0.  1.
         12    1    3    3    0    0 -0.16945427472E+02 -0.36188270857E+02  0.16628814059E+02  0.43281126566E+02  0.00000000000E+00 0. -1.
</event>
<event>
 7    1  0.2879200E-015  0.9000767E+02  0.7816164E-02  0.1186339E+00
        -11   -1    0    0    0    0  0.00000000000E+00  0.00000000000E+00  0.45593999997E+02  0.45594000000E+02  0.51100000000E-03 0.  1.
         11   -1    0    0    0    0 -0.00000000000E+00 -0.00000000000E+00 -0.45593999997E+02  0.45594000000E+02  0.51100000000E-03 0. -1.
    9900012    2    1    2    0    0  0.15196993741E+00  0.74841396113E+00  0.89997533212E+00  0.90007672114E+02  0.89999932586E+02 0.  0.
        -12    1    1    2    0    0 -0.15196993741E+00 -0.74841396113E+00 -0.89997533212E+00  0.11803278856E+01  0.00000000000E+00 0.  1.
         11    1    3    3    0    0 -0.37590890476E+02 -0.63045741223E+01  0.42157109612E+01  0.38348336611E+02  0.51100000000E-03 0. -1.
        -11    1    3    3    0    0 -0.52898009712E+01  0.58676133064E+01  0.23426364888E+01  0.82400744055E+01  0.51100000000E-03 0.  1.
        -12    1    3    3    0    0  0.43032661385E+02  0.11853747771E+01 -0.56583721179E+01  0.43419261098E+02  0.00000000000E+00 0.  1.
</event>
<event>
 7    1  0.2879200E-015  0.9000769E+02  0.7816164E-02  0.1186339E+00
        -11   -1    0    0    0    0  0.00000000000E+00  0.00000000000E+00  0.45593999997E+02  0.45594000000E+02  0.51100000000E-03 0.  1.
         11   -1    0    0    0    0 -0.00000000000E+00 -0.00000000000E+00 -0.45593999997E+02  0.45594000000E+02  0.51100000000E-03 0. -1.
    9900012    2    1    2    0    0 -0.77353507626E+00  0.44779392005E+00  0.77088439621E+00  0.90007687049E+02  0.89999947718E+02 0.  0.
        -12    1    1    2    0    0  0.77353507626E+00 -0.44779392005E+00 -0.77088439621E+00  0.11803129506E+01  0.00000000000E+00 0.  1.
         11    1    3    3    0    0  0.26232606343E+02  0.19282572779E+02 -0.19721389839E+02  0.38064425202E+02  0.51100000000E-03 0. -1.
        -11    1    3    3    0    0  0.43294051016E+01 -0.66964147365E+01 -0.53060251297E+01  0.95780802771E+01  0.51100000000E-03 0.  1.
        -12    1    3    3    0    0 -0.31335546521E+02 -0.12138364122E+02  0.25798299365E+02  0.42365181570E+02  0.00000000000E+00 0.  1.
</event>
<event>
 7    1  0.2879200E-015  0.9000772E+02  0.7816164E-02  0.1186339E+00
        -11   -1    0    0    0    0  0.00000000000E+00  0.00000000000E+00  0.45593999997E+02  0.45594000000E+02  0.51100000000E-03 0. -1.
         11   -1    0    0    0    0 -0.00000000000E+00 -0.00000000000E+00 -0.45593999997E+02  0.45594000000E+02  0.51100000000E-03 0.  1.
    9900012    2    1    2    0    0 -0.86915831568E+00  0.69222756983E+00  0.39805251488E+00  0.90007719952E+02  0.89999981056E+02 0.  0.
        -12    1    1    2    0    0  0.86915831568E+00 -0.69222756983E+00 -0.39805251488E+00  0.11802800476E+01  0.00000000000E+00 0.  1.
         11    1    3    3    0    0 -0.79707061981E+01  0.14819086343E+01 -0.64428596042E+01  0.10355609622E+02  0.51100000000E-03 0. -1.
        -11    1    3    3    0    0 -0.22970149939E+02  0.26201925562E+02  0.15803994448E+02  0.38261402642E+02  0.51100000000E-03 0.  1.
         12    1    3    3    0    0  0.30071697822E+02 -0.26991606626E+02 -0.89630823287E+01  0.41390707689E+02  0.00000000000E+00 0. -1.
</event>
<event>
 7    1  0.2879200E-015  0.9000778E+02  0.7816164E-02  0.1186339E+00
        -11   -1    0    0    0    0  0.00000000000E+00  0.00000000000E+00  0.45593999997E+02  0.45594000000E+02  0.51100000000E-03 0. -1.
         11   -1    0    0    0    0 -0.00000000000E+00 -0.00000000000E+00 -0.45593999997E+02  0.45594000000E+02  0.51100000000E-03 0.  1.
    9900012    2    1    2    0    0  0.77518372635E+00 -0.59241882599E+00  0.66412157122E+00  0.90007776574E+02  0.90000038424E+02 0.  0.
        -12    1    1    2    0    0 -0.77518372635E+00  0.59241882599E+00 -0.66412157122E+00  0.11802234264E+01  0.00000000000E+00 0.  1.
         11    1    3    3    0    0  0.91579900390E+00 -0.75130781460E+01 -0.35690864584E+01  0.83679991308E+01  0.51100000000E-03 0. -1.
        -11    1    3    3    0    0 -0.21818815206E+02 -0.29159904515E+02 -0.90030182365E+01  0.37515530996E+02  0.51100000000E-03 0.  1.
         12    1    3    3    0    0  0.21678199928E+02  0.36080563835E+02  0.13236226266E+02  0.44124246447E+02  0.00000000000E+00 0. -1.
</event>
<event>
 7    1  0.2879200E-015  0.9000779E+02  0.7816164E-02  0.1186339E+00
        -11   -1    0    0    0    0  0.00000000000E+00  0.00000000000E+00  0.45593999997E+02  0.45594000000E+02  0.51100000000E-03 0. -1.
         11   -1    0    0    0    0 -0.00000000000E+00 -0.00000000000E+00 -0.45593999997E+02  0.45594000000E+02  0.51100000000E-03 0.  1.
    9900012    2    1    2    0    0  0.10128900833E+00  0.43635301489E+00  0.10918913740E+01  0.90007792311E+02  0.90000054369E+02 0.  0.
        -12    1    1    2    0    0 -0.10128900833E+00 -0.43635301489E+00 -0.10918913740E+01  0.11802076891E+01  0.00000000000E+00 0.  1.
         11    1    3    3    0    0 -0.90329361359E+01 -0.59719500046E+00 -0.43577362586E+01  0.10046912096E+02  0.51100000000E-03 0. -1.
        -11    1    3    3    0    0  0.15128918115E+01  0.13012647502E+02 -0.34851290151E+02  0.37232113318E+02  0.51100000000E-03 0.  1.
         12    1    3    3    0    0  0.76213333327E+01 -0.11979099487E+02  0.40300917784E+02  0.42728766897E+02  0.00000000000E+00 0. -1.
</event>
<event>
 7    1  0.2879200E-015  0.9000771E+02  0.7816164E-02  0.1186339E+00
        -11   -1    0    0    0    0  0.00000000000E+00  0.00000000000E+00  0.45593999997E+02  0.45594000000E+02  0.51100000000E-03 0.  1.
         11   -1    0    0    0    0 -0.00000000000E+00 -0.00000000000E+00 -0.45593999997E+02  0.45594000000E+02  0.51100000000E-03 0. -1.
    9900012    2    1    2    0    0 -0.58328965031E+00 -0.41588767915E+00 -0.93802332353E+00  0.90007713114E+02  0.89999974127E+02 0.  0.
        -12    1    1    2    0    0  0.58328965031E+00  0.41588767915E+00  0.93802332353E+00  0.11802868860E+01  0.00000000000E+00 0.  1.
         11    1    3    3    0    0  0.16724655946E+01  0.53492372535E+01 -0.79991271036E+01  0.97671651486E+01  0.51100000000E-03 0. -1.
        -11    1    3    3    0    0  0.25209436828E+02 -0.31745869626E+02 -0.42964009501E+01  0.40764874645E+02  0.51100000000E-03 0.  1.
         12    1    3    3    0    0 -0.27465192073E+02  0.25980744693E+02  0.11357504730E+02  0.39475673320E+02  0.00000000000E+00 0. -1.
</event>
<event>
 7    1  0.2879200E-015  0.9000781E+02  0.7816164E-02  0.1186339E+00
        -11   -1    0    0    0    0  0.00000000000E+00  0.00000000000E+00  0.45593999997E+02  0.45594000000E+02  0.51100000000E-03 0. -1.
         11   -1    0    0    0    0 -0.00000000000E+00 -0.00000000000E+00 -0.45593999997E+02  0.45594000000E+02  0.51100000000E-03 0.  1.
    9900012    2    1    2    0    0  0.45592657900E+00  0.96899068443E-01  0.10842413596E+01  0.90007814506E+02  0.90000076857E+02 0.  0.
        -12    1    1    2    0    0 -0.45592657900E+00 -0.96899068443E-01 -0.10842413596E+01  0.11801854942E+01  0.00000000000E+00 0.  1.
         11    1    3    3    0    0 -0.92268006003E+00 -0.78917792046E+01 -0.59821886848E+00  0.79680225642E+01  0.51100000000E-03 0. -1.
        -11    1    3    3    0    0 -0.21345055437E+02 -0.18143429776E+02  0.27182144033E+02  0.39034143901E+02  0.51100000000E-03 0.  1.
         12    1    3    3    0    0  0.22723662076E+02  0.26132108049E+02 -0.25499683805E+02  0.43005648040E+02  0.00000000000E+00 0. -1.
</event>
<event>
 7    1  0.2879200E-015  0.9000782E+02  0.7816164E-02  0.1186339E+00
        -11   -1    0    0    0    0  0.00000000000E+00  0.00000000000E+00  0.45593999997E+02  0.45594000000E+02  0.51100000000E-03 0. -1.
         11   -1    0    0    0    0 -0.00000000000E+00 -0.00000000000E+00 -0.45593999997E+02  0.45594000000E+02  0.51100000000E-03 0.  1.
    9900012    2    1    2    0    0  0.32592068971E+00  0.85264109799E+00  0.74806728837E+00  0.90007819588E+02  0.90000082006E+02 0.  0.
        -12    1    1    2    0    0 -0.32592068971E+00 -0.85264109799E+00 -0.74806728837E+00  0.11801804124E+01  0.00000000000E+00 0.  1.
         11    1    3    3    0    0 -0.93684848157E+01 -0.43512386288E+01 -0.35936380263E+01  0.10936910893E+02  0.51100000000E-03 0. -1.
        -11    1    3    3    0    0 -0.17160812762E+02 -0.29210469878E+02 -0.55018074667E+01  0.34322222113E+02  0.51100000000E-03 0.  1.
         12    1    3    3    0    0  0.26855218267E+02  0.34414349605E+02  0.98435127813E+01  0.44748686582E+02  0.00000000000E+00 0. -1.
</event>
<event>
 7    1  0.2879200E-015  0.9000767E+02  0.7816164E-02  0.1186339E+00
        -11   -1    0    0    0    0  0.00000000000E+00  0.00000000000E+00  0.45593999997E+02  0.45594000000E+02  0.51100000000E-03 0. -1.
         11   -1    0    0    0    0 -0.00000000000E+00 -0.00000000000E+00 -0.45593999997E+02  0.45594000000E+02  0.51100000000E-03 0.  1.
    9900012    2    1    2    0    0  0.95207494298E+00  0.60830968297E+00  0.34158841985E+00  0.90007673767E+02  0.89999934261E+02 0.  0.
        -12    1    1    2    0    0 -0.95207494298E+00 -0.60830968297E+00 -0.34158841985E+00  0.11803262329E+01  0.00000000000E+00 0.  1.
         11    1    3    3    0    0 -0.24728478944E+02  0.17465659377E+02  0.29652731568E+02  0.42377251186E+02  0.51100000000E-03 0. -1.
        -11    1    3    3    0    0  0.11676764121E+02  0.27508756691E+00 -0.10354548900E+01  0.11725811724E+02  0.51100000000E-03 0.  1.
        -12    1    3    3    0    0  0.14003789766E+02 -0.17132437261E+02 -0.28275688259E+02  0.35904610857E+02  0.00000000000E+00 0.  1.
</event>
<event>
 7    1  0.2879200E-015  0.9000762E+02  0.7816164E-02  0.1186339E+00
        -11   -1    0    0    0    0  0.00000000000E+00  0.00000000000E+00  0.45593999997E+02  0.45594000000E+02  0.51100000000E-03 0. -1.
         11   -1    0    0    0    0 -0.00000000000E+00 -0.00000000000E+00 -0.45593999997E+02  0.45594000000E+02  0.51100000000E-03 0.  1.
    9900012    2    1    2    0    0  0.20876920587E+00 -0.51281611203E+00 -0.10424592370E+01  0.90007624548E+02  0.89999884392E+02 0.  0.
        -12    1    1    2    0    0 -0.20876920587E+00  0.51281611203E+00  0.10424592370E+01  0.11803754517E+01  0.00000000000E+00 0.  1.
         11    1    3    3    0    0  0.20686217677E+02  0.27555929431E+02  0.21637744672E+02  0.40687109056E+02  0.51100000000E-03 0. -1.
        -11    1    3    3    0    0 -0.51635645682E+01  0.48807324305E+01 -0.61730601565E+01  0.94122590309E+01  0.51100000000E-03 0.  1.
        -12    1    3    3    0    0 -0.15313883902E+02 -0.32949477974E+02 -0.16507143753E+02  0.39908256461E+02  0.00000000000E+00 0.  1.
</event>
<event>
 7    1  0.2879200E-015  0.9000777E+02  0.7816164E-02  0.1186339E+00
        -11   -1    0    0    0    0  0.00000000000E+00  0.00000000000E+00  0.45593999997E+02  0.45594000000E+02  0.51100000000E-03 0. -1.
         11   -1    0    0    0    0 -0.00000000000E+00 -0.00000000000E+00 -0.45593999997E+02  0.45594000000E+02  0.51100000000E-03 0.  1.
    9900012    2    1    2    0    0 -0.10820128329E+01  0.40432730393E+00 -0.24232531498E+00  0.90007765321E+02  0.90000027023E+02 0.  0.
        -12    1    1    2    0    0  0.10820128329E+01 -0.40432730393E+00  0.24232531498E+00  0.11802346790E+01  0.00000000000E+00 0.  1.
         11    1    3    3    0    0  0.32001147051E+01  0.72057266323E+01  0.67979801393E+01  0.10410368133E+02  0.51100000000E-03 0. -1.
        -11    1    3    3    0    0  0.14008674462E+02 -0.13622806085E+00 -0.39409320040E+02  0.41825303639E+02  0.51100000000E-03 0.  1.
         12    1    3    3    0    0 -0.18290802000E+02 -0.66651712675E+01  0.32369014585E+02  0.37772093549E+02  0.00000000000E+00 0. -1.
</event>
<event>
 7    1  0.2879200E-015  0.9000774E+02  0.7816164E-02  0.1186339E+00
        -11   -1    0    0    0    0  0.00000000000E+00  0.00000000000E+00  0.45593999997E+02  0.45594000000E+02  0.51100000000E-03 0. -1.
         11   -1    0    0    0    0 -0.00000000000E+00 -0.00000000000E+00 -0.45593999997E+02  0.45594000000E+02  0.51100000000E-03 0.  1.
    9900012    2    1    2    0    0 -0.10245754583E+01  0.11569771485E+00  0.57433836591E+00  0.90007743507E+02  0.90000004921E+02 0.  0.
        -12    1    1    2    0    0  0.10245754583E+01 -0.11569771485E+00 -0.57433836591E+00  0.11802564931E+01  0.00000000000E+00 0.  1.
         11    1    3    3    0    0  0.45659957743E+01 -0.34910797384E+01  0.30844714189E+01  0.65230299207E+01  0.51100000000E-03 0. -1.
        -11    1    3    3    0    0  0.20006352702E+02  0.36502954326E+02  0.11571582124E+01  0.41642032111E+02  0.51100000000E-03 0.  1.
         12    1    3    3    0    0 -0.25596923935E+02 -0.32896176873E+02 -0.36672912654E+01  0.41842681475E+02  0.00000000000E+00 0. -1.
</event>
<event>
 7    1  0.2879200E-015  0.9000779E+02  0.7816164E-02  0.1186339E+00
        -11   -1    0    0    0    0  0.00000000000E+00  0.00000000000E+00  0.45593999997E+02  0.45594000000E+02  0.51100000000E-03 0. -1.
         11   -1    0    0    0    0 -0.00000000000E+00 -0.00000000000E+00 -0.45593999997E+02  0.45594000000E+02  0.51100000000E-03 0.  1.
    9900012    2    1    2    0    0 -0.75223500940E+00 -0.90035383075E+00  0.12810453486E+00  0.90007785909E+02  0.90000047882E+02 0.  0.
        -12    1    1    2    0    0  0.75223500940E+00  0.90035383075E+00 -0.12810453486E+00  0.11802140915E+01  0.00000000000E+00 0.  1.
         11    1    3    3    0    0 -0.13230338113E+02  0.27925729571E+02  0.20452927255E+02  0.37056854321E+02  0.51100000000E-03 0. -1.
        -11    1    3    3    0    0 -0.29342408117E+01  0.17664352349E+01  0.78709260691E+01  0.85837951994E+01  0.51100000000E-03 0.  1.
        -12    1    3    3    0    0  0.15412343915E+02 -0.30592518637E+02 -0.28195748789E+02  0.44367136388E+02  0.00000000000E+00 0.  1.
</event>
<event>
 7    1  0.2879200E-015  0.9000771E+02  0.7816164E-02  0.1186339E+00
        -11   -1    0    0    0    0  0.00000000000E+00  0.00000000000E+00  0.45593999997E+02  0.45594000000E+02  0.51100000000E-03 0.  1.
         11   -1    0    0    0    0 -0.00000000000E+00 -0.00000000000E+00 -0.45593999997E+02  0.45594000000E+02  0.51100000000E-03 0. -1.
    9900012    2    1    2    0    0 -0.45130150635E+00  0.11975418887E+00 -0.10840095502E+01  0.90007707316E+02  0.89999968252E+02 0.  0.
        -12    1    1    2    0    0  0.45130150635E+00 -0.11975418887E+00  0.10840095502E+01  0.11802926842E+01  0.00000000000E+00 0.  1.
         11    1    3    3    0    0  0.40665735965E+01  0.19426333697E+01  0.77916027175E+01  0.90011065093E+01  0.51100000000E-03 0. -1.
        -11    1    3    3    0    0  0.24708874665E+02 -0.30674520872E+02 -0.59329082613E+01  0.39832827149E+02  0.51100000000E-03 0.  1.
         12    1    3    3    0    0 -0.29226749768E+02  0.28851641692E+02 -0.29427040064E+01  0.41173773657E+02  0.00000000000E+00 0. -1.
</event>
<event>
 7    1  0.2879200E-015  0.9000769E+02  0.7816164E-02  0.1186339E+00
        -11   -1    0    0    0    0  0.00000000000E+00  0.00000000000E+00  0.45593999997E+02  0.45594000000E+02  0.51100000000E-03 0.  1.
         11   -1    0    0    0    0 -0.00000000000E+00 -0.00000000000E+00 -0.45593999997E+02  0.45594000000E+02  0.51100000000E-03 0. -1.
    9900012    2    1    2    0    0 -0.47440783048E+00 -0.10735563072E+01  0.12471069098E+00  0.90007687037E+02  0.89999947706E+02 0.  0.
        -12    1    1    2    0    0  0.47440783048E+00  0.10735563072E+01 -0.12471069098E+00  0.11803129630E+01  0.00000000000E+00 0.  1.
         11    1    3    3    0    0  0.37552596661E+01  0.73140275914E+01  0.59947349241E+01  0.10175157092E+02  0.51100000000E-03 0. -1.
        -11    1    3    3    0    0 -0.12846277083E+02  0.68807692871E+01  0.33610798790E+02  0.36634104553E+02  0.51100000000E-03 0.  1.
         12    1    3    3    0    0  0.86166095863E+01 -0.15268353186E+02 -0.39480823023E+02  0.43198425392E+02  0.00000000000E+00 0. -1.
</event>
<event>
 7    1  0.2879200E-015  0.9000777E+02  0.7816164E-02  0.1186339E+00
        -11   -1    0    0    0    0  0.00000000000E+00  0.00000000000E+00  0.45593999997E+02  0.45594000000E+02  0.51100000000E-03 0.  1.
         11   -1    0    0    0    0 -0.00000000000E+00 -0.00000000000E+00 -0.45593999997E+02  0.45594000000E+02  0.51100000000E-03 0. -1.
    9900012    2    1    2    0    0  0.85634659581E+00 -0.75115285759E+00 -0.30885477758E+00  0.90007766387E+02  0.90000028103E+02 0.  0.
        -12    1    1    2    0    0 -0.85634659581E+00  0.75115285759E+00  0.30885477758E+00  0.11802336130E+01  0.00000000000E+00 0.  1.
         11    1    3    3    0    0 -0.71348809317E+01  0.18247438803E+02 -0.31825513473E+02  0.37372969602E+02  0.51100000000E-03 0. -1.
        -11    1    3    3    0    0  0.44175418158E+01 -0.88940345913E+00 -0.79086923488E+01  0.91023694243E+01  0.51100000000E-03 0.  1.
        -12    1    3    3    0    0  0.35736857117E+01 -0.18109188202E+02  0.39425351045E+02  0.43532427360E+02  0.00000000000E+00 0.  1.
</event>
<event>
 7    1  0.2879200E-015  0.9000765E+02  0.7816164E-02  0.1186339E+00
        -11   -1    0    0    0    0  0.00000000000E+00  0.00000000000E+00  0.45593999997E+02  0.45594000000E+02  0.51100000000E-03 0.  1.
         11   -1    0    0    0    0 -0.00000000000E+00 -0.00000000000E+00 -0.45593999997E+02  0.45594000000E+02  0.51100000000E-03 0. -1.
    9900012    2    1    2    0    0 -0.15631274691E+00 -0.92542836212E+00 -0.71580992096E+00  0.90007646167E+02  0.89999906296E+02 0.  0.
        -12    1    1    2    0    0  0.15631274691E+00  0.92542836212E+00  0.71580992096E+00  0.11803538331E+01  0.00000000000E+00 0.  1.
         11    1    3    3    0    0 -0.32459176335E+02 -0.13506546416E+01 -0.23126639800E+02  0.39878112606E+02  0.51100000000E-03 0. -1.
        -11    1    3    3    0    0 -0.47265000670E+01 -0.47485063265E+01  0.69983421972E+01  0.96883904228E+01  0.51100000000E-03 0.  1.
        -12    1    3    3    0    0  0.37029363655E+02  0.51737326059E+01  0.15412487682E+02  0.40441143138E+02  0.00000000000E+00 0.  1.
</event>
<event>
 7    1  0.2879200E-015  0.9000778E+02  0.7816164E-02  0.1186339E+00
        -11   -1    0    0    0    0  0.00000000000E+00  0.00000000000E+00  0.45593999997E+02  0.45594000000E+02  0.51100000000E-03 0.  1.
         11   -1    0    0    0    0 -0.00000000000E+00 -0.00000000000E+00 -0.45593999997E+02  0.45594000000E+02  0.51100000000E-03 0. -1.
    9900012    2    1    2    0    0 -0.11155669400E+00 -0.59881982733E-01 -0.11734128064E+01  0.90007776139E+02  0.90000037984E+02 0.  0.
        -12    1    1    2    0    0  0.11155669400E+00  0.59881982733E-01  0.11734128064E+01  0.11802238610E+01  0.00000000000E+00 0.  1.
         11    1    3    3    0    0 -0.30422904918E+01 -0.25304756593E+01  0.69786169206E+01  0.80224642650E+01  0.51100000000E-03 0. -1.
        -11    1    3    3    0    0 -0.34747046110E+01 -0.17462878969E+02  0.32046684447E+02  0.36660819663E+02  0.51100000000E-03 0.  1.
         12    1    3    3    0    0  0.64054384088E+01  0.19933472646E+02 -0.40198714174E+02  0.45324492211E+02  0.00000000000E+00 0. -1.
</event>
<event>
 7    1  0.2879200E-015  0.9000776E+02  0.7816164E-02  0.1186339E+00
        -11   -1    0    0    0    0  0.00000000000E+00  0.00000000000E+00  0.45593999997E+02  0.45594000000E+02  0.51100000000E-03 0.  1.
         11   -1    0    0    0    0 -0.00000000000E+00 -0.00000000000E+00 -0.45593999997E+02  0.45594000000E+02  0.51100000000E-03 0. -1.
    9900012    2    1    2    0    0 -0.36266295330E+00 -0.40950878028E+00 -0.10458239419E+01  0.90007758679E+02  0.90000020293E+02 0.  0.
        -12    1    1    2    0    0  0.36266295330E+00  0.40950878028E+00  0.10458239419E+01  0.11802413212E+01  0.00000000000E+00 0.  1.
         11    1    3    3    0    0  0.18871195900E+02 -0.22962540551E+02 -0.58792038560E+01  0.30297942859E+02  0.51100000000E-03 0. -1.
        -11    1    3    3    0    0  0.11288251521E+02 -0.92429969056E+01  0.56023969371E+01  0.15628322556E+02  0.51100000000E-03 0.  1.
        -12    1    3    3    0    0 -0.30522110374E+02  0.31796028676E+02 -0.76901702303E+00  0.44081493265E+02  0.00000000000E+00 0.  1.
</event>
<event>
 7    1  0.2879200E-015  0.9000786E+02  0.7816164E-02  0.1186339E+00
        -11   -1    0    0    0    0  0.00000000000E+00  0.00000000000E+00  0.45593999997E+02  0.45594000000E+02  0.51100000000E-03 0. -1.
         11   -1    0    0    0    0 -0.00000000000E+00 -0.00000000000E+00 -0.45593999997E+02  0.45594000000E+02  0.51100000000E-03 0.  1.
    9900012    2    1    2    0    0 -0.82312799292E+00  0.35104261167E+00  0.76938169904E+00  0.90007864920E+02  0.90000127937E+02 0.  0.
        -12    1    1    2    0    0  0.82312799292E+00 -0.35104261167E+00 -0.76938169904E+00  0.11801350799E+01  0.00000000000E+00 0.  1.
         11    1    3    3    0    0  0.11063923023E+01 -0.47808868642E+00 -0.96653808931E+01  0.97402392572E+01  0.51100000000E-03 0. -1.
        -11    1    3    3    0    0  0.24293535402E+02 -0.30293391903E+02  0.66274405409E+01  0.39392745826E+02  0.51100000000E-03 0.  1.
         12    1    3    3    0    0 -0.26223055697E+02  0.31122523201E+02  0.38073220512E+01  0.40874879837E+02  0.00000000000E+00 0. -1.
</event>
<event>
 7    1  0.2879200E-015  0.9000773E+02  0.7816164E-02  0.1186339E+00
        -11   -1    0    0    0    0  0.00000000000E+00  0.00000000000E+00  0.45593999997E+02  0.45594000000E+02  0.51100000000E-03 0.  1.
         11   -1    0    0    0    0 -0.00000000000E+00 -0.00000000000E+00 -0.45593999997E+02  0.45594000000E+02  0.51100000000E-03 0. -1.
    9900012    2    1    2    0    0 -0.37570144377E+00  0.49380497338E+00 -0.10040183531E+01  0.90007725549E+02  0.89999986726E+02 0.  0.
        -12    1    1    2    0    0  0.37570144377E+00 -0.49380497338E+00  0.10040183531E+01  0.11802744511E+01  0.00000000000E+00 0.  1.
         11    1    3    3    0    0 -0.23536205058E+02 -0.28188158553E+02 -0.51941513630E+01  0.37087793676E+02  0.51100000000E-03 0. -1.
        -11    1    3    3    0    0 -0.82939177673E+01 -0.71488437081E+00  0.52715902117E+01  0.98534154086E+01  0.51100000000E-03 0.  1.
        -12    1    3    3    0    0  0.31454421381E+02  0.29396847897E+02 -0.10814572018E+01  0.43066516464E+02  0.00000000000E+00 0.  1.
</event>
<event>
 7    1  0.2879200E-015  0.9000797E+02  0.7816164E-02  0.1186339E+00
        -11   -1    0    0    0    0  0.00000000000E+00  0.00000000000E+00  0.45593999997E+02  0.45594000000E+02  0.51100000000E-03 0.  1.
         11   -1    0    0    0    0 -0.00000000000E+00 -0.00000000000E+00 -0.45593999997E+02  0.45594000000E+02  0.51100000000E-03 0. -1.
    9900012    2    1    2    0    0  0.10246341808E+00  0.11668893623E+01  0.14264339576E+00  0.90007967511E+02  0.90000231882E+02 0.  0.
        -12    1    1    2    0    0 -0.10246341808E+00 -0.11668893623E+01 -0.14264339576E+00  0.11800324886E+01  0.00000000000E+00 0.  1.
         11    1    3    3    0    0 -0.67435504419E+01 -0.54718152635E+01  0.27810518351E+01  0.91186887441E+01  0.51100000000E-03 0. -1.
        -11    1    3    3    0    0  0.16140094746E+02 -0.33834728066E+02  0.72961297921E+01  0.38190640109E+02  0.51100000000E-03 0.  1.
         12    1    3    3    0    0 -0.92940808864E+01  0.40473432692E+02 -0.99345382313E+01  0.42698638658E+02  0.00000000000E+00 0. -1.
</event>
<event>
 7    1  0.2879200E-015  0.9000777E+02  0.7816164E-02  0.1186339E+00
        -11   -1    0    0    0    0  0.00000000000E+00  0.00000000000E+00  0.45593999997E+02  0.45594000000E+02  0.51100000000E-03 0. -1.
         11   -1    0    0    0    0 -0.00000000000E+00 -0.00000000000E+00 -0.45593999997E+02  0.45594000000E+02  0.51100000000E-03 0.  1.
    9900012    2    1    2    0    0 -0.30723420590E+00  0.19053998828E+00  0.11234958406E+01  0.90007770680E+02  0.90000032453E+02 0.  0.
        -12    1    1    2    0    0  0.30723420590E+00 -0.19053998828E+00 -0.11234958406E+01  0.11802293202E+01  0.00000000000E+00 0.  1.
         11    1    3    3    0    0  0.30575744826E+02 -0.58655622100E+00  0.18895536785E+01  0.30639690488E+02  0.51100000000E-03 0. -1.
        -11    1    3    3    0    0  0.11426111567E+02 -0.70912736468E+01  0.77181140667E+01  0.15505207915E+02  0.51100000000E-03 0.  1.
        -12    1    3    3    0    0 -0.42309090599E+02  0.78683698561E+01 -0.84841719046E+01  0.43862872277E+02  0.00000000000E+00 0.  1.
</event>
<event>
 7    1  0.2879200E-015  0.9000767E+02  0.7816164E-02  0.1186339E+00
        -11   -1    0    0    0    0  0.00000000000E+00  0.00000000000E+00  0.45593999997E+02  0.45594000000E+02  0.51100000000E-03 0. -1.
         11   -1    0    0    0    0 -0.00000000000E+00 -0.00000000000E+00 -0.45593999997E+02  0.45594000000E+02  0.51100000000E-03 0.  1.
    9900012    2    1    2    0    0  0.35701455380E+00 -0.10969026300E+01 -0.25004574817E+00  0.90007670534E+02  0.89999930985E+02 0.  0.
        -12    1    1    2    0    0 -0.35701455380E+00  0.10969026300E+01  0.25004574817E+00  0.11803294656E+01  0.00000000000E+00 0.  1.
         11    1    3    3    0    0 -0.93250894801E+01 -0.75265847041E-01 -0.42196505423E+01  0.10235644079E+02  0.51100000000E-03 0. -1.
        -11    1    3    3    0    0  0.12695435180E+02 -0.71318637328E+01 -0.36205142381E+02  0.39023709329E+02  0.51100000000E-03 0.  1.
         12    1    3    3    0    0 -0.30133311461E+01  0.61102269499E+01  0.40174747175E+02  0.40748317126E+02  0.00000000000E+00 0. -1.
</event>
<event>
 7    1  0.2879200E-015  0.9000777E+02  0.7816164E-02  0.1186339E+00
        -11   -1    0    0    0    0  0.00000000000E+00  0.00000000000E+00  0.45593999997E+02  0.45594000000E+02  0.51100000000E-03 0. -1.
         11   -1    0    0    0    0 -0.00000000000E+00 -0.00000000000E+00 -0.45593999997E+02  0.45594000000E+02  0.51100000000E-03 0.  1.
    9900012    2    1    2    0    0 -0.26962224201E+00  0.86345786783E-01  0.11457714781E+01  0.90007769502E+02  0.90000031259E+02 0.  0.
        -12    1    1    2    0    0  0.26962224201E+00 -0.86345786783E-01 -0.11457714781E+01  0.11802304979E+01  0.00000000000E+00 0.  1.
         11    1    3    3    0    0 -0.67432681399E+01  0.61728506565E+01  0.35365234154E+01  0.98021808065E+01  0.51100000000E-03 0. -1.
        -11    1    3    3    0    0 -0.22007460228E+02 -0.17627480798E+02 -0.28345108963E+02  0.39981265455E+02  0.51100000000E-03 0.  1.
         12    1    3    3    0    0  0.28481106126E+02  0.11540975928E+02  0.25954357026E+02  0.40224323241E+02  0.00000000000E+00 0. -1.
</event>
<event>
 7    1  0.2879200E-015  0.9000740E+02  0.7816164E-02  0.1186340E+00
        -11   -1    0    0    0    0  0.00000000000E+00  0.00000000000E+00  0.45593999997E+02  0.45594000000E+02  0.51100000000E-03 0.  1.
         11   -1    0    0    0    0 -0.00000000000E+00 -0.00000000000E+00 -0.45593999997E+02  0.45594000000E+02  0.51100000000E-03 0. -1.
    9900012    2    1    2    0    0  0.13809452973E+00 -0.38239098511E+00 -0.11083893826E+01  0.90007398463E+02  0.89999655323E+02 0.  0.
        -12    1    1    2    0    0 -0.13809452973E+00  0.38239098511E+00  0.11083893826E+01  0.11806015365E+01  0.00000000000E+00 0.  1.
         11    1    3    3    0    0  0.73372640331E+01 -0.13533706162E+02 -0.29985640963E+02  0.33706606329E+02  0.51100000000E-03 0. -1.
        -11    1    3    3    0    0 -0.13490826456E+01 -0.13069211059E+02 -0.41019872514E+01  0.13764105542E+02  0.51100000000E-03 0.  1.
        -12    1    3    3    0    0 -0.58500868578E+01  0.26220526237E+02  0.32979238832E+02  0.42536686593E+02  0.00000000000E+00 0.  1.
</event>
<event>
 7    1  0.2879200E-015  0.9000770E+02  0.7816164E-02  0.1186339E+00
        -11   -1    0    0    0    0  0.00000000000E+00  0.00000000000E+00  0.45593999997E+02  0.45594000000E+02  0.51100000000E-03 0.  1.
         11   -1    0    0    0    0 -0.00000000000E+00 -0.00000000000E+00 -0.45593999997E+02  0.45594000000E+02  0.51100000000E-03 0. -1.
    9900012    2    1    2    0    0  0.10583576661E+01 -0.25384783826E+00 -0.45666487317E+00  0.90007702376E+02  0.89999963248E+02 0.  0.
        -12    1    1    2    0    0 -0.10583576661E+01  0.25384783826E+00  0.45666487317E+00  0.11802976238E+01  0.00000000000E+00 0.  1.
         11    1    3    3    0    0  0.35014244979E+01  0.24374254166E+01 -0.97704456509E+01  0.10661267498E+02  0.51100000000E-03 0. -1.
        -11    1    3    3    0    0 -0.40493823401E+02 -0.70390343992E+00  0.75887480092E+01  0.41204785041E+02  0.51100000000E-03 0.  1.
         12    1    3    3    0    0  0.38050756569E+02 -0.19873698150E+01  0.17250327685E+01  0.38141649837E+02  0.00000000000E+00 0. -1.
</event>
<event>
 7    1  0.2879200E-015  0.9000774E+02  0.7816164E-02  0.1186339E+00
        -11   -1    0    0    0    0  0.00000000000E+00  0.00000000000E+00  0.45593999997E+02  0.45594000000E+02  0.51100000000E-03 0. -1.
         11   -1    0    0    0    0 -0.00000000000E+00 -0.00000000000E+00 -0.45593999997E+02  0.45594000000E+02  0.51100000000E-03 0.  1.
    9900012    2    1    2    0    0 -0.58447862836E-01 -0.11445870567E+01 -0.28200439572E+00  0.90007736401E+02  0.89999997722E+02 0.  0.
        -12    1    1    2    0    0  0.58447862836E-01  0.11445870567E+01  0.28200439572E+00  0.11802635986E+01  0.00000000000E+00 0.  1.
         11    1    3    3    0    0 -0.80101803085E+01 -0.95595091022E+00 -0.61136940768E+01  0.10121960593E+02  0.51100000000E-03 0. -1.
        -11    1    3    3    0    0  0.23869955472E+02  0.17014373943E+02 -0.26794187980E+02  0.39713879244E+02  0.51100000000E-03 0.  1.
         12    1    3    3    0    0 -0.15918223026E+02 -0.17203010089E+02  0.32625877661E+02  0.40171896564E+02  0.00000000000E+00 0. -1.
</event>
<event>
 7    1  0.2879200E-015  0.9000785E+02  0.7816164E-02  0.1186339E+00
        -11   -1    0    0    0    0  0.00000000000E+00  0.00000000000E+00  0.45593999997E+02  0.45594000000E+02  0.51100000000E-03 0. -1.
         11   -1    0    0    0    0 -0.00000000000E+00 -0.00000000000E+00 -0.45593999997E+02  0.45594000000E+02  0.51100000000E-03 0.  1.
    9900012    2    1    2    0    0  0.70972609623E+00 -0.76480516295E+00  0.55147763347E+00  0.90007845074E+02  0.90000107829E+02 0.  0.
        -12    1    1    2    0    0 -0.70972609623E+00  0.76480516295E+00 -0.55147763347E+00  0.11801549259E+01  0.00000000000E+00 0.  1.
         11    1    3    3    0    0 -0.12144785722E+02 -0.36023507266E+02 -0.90503122216E+01  0.39078089098E+02  0.51100000000E-03 0. -1.
        -11    1    3    3    0    0  0.58507260154E+01 -0.50663843865E+01  0.60944451758E+01  0.98509648218E+01  0.51100000000E-03 0.  1.
        -12    1    3    3    0    0  0.70037858029E+01  0.40325086490E+02  0.35073446792E+01  0.41078791154E+02  0.00000000000E+00 0.  1.
</event>
<event>
 7    1  0.2879200E-015  0.9000789E+02  0.7816164E-02  0.1186339E+00
        -11   -1    0    0    0    0  0.00000000000E+00  0.00000000000E+00  0.45593999997E+02  0.45594000000E+02  0.51100000000E-03 0.  1.
         11   -1    0    0    0    0 -0.00000000000E+00 -0.00000000000E+00 -0.45593999997E+02  0.45594000000E+02  0.51100000000E-03 0. -1.
    9900012    2    1    2    0    0  0.80039892830E+00 -0.66467970474E+00  0.55697759744E+00  0.90007889158E+02  0.90000152495E+02 0.  0.
        -12    1    1    2    0    0 -0.80039892830E+00  0.66467970474E+00 -0.55697759744E+00  0.11801108416E+01  0.00000000000E+00 0.  1.
         11    1    3    3    0    0  0.38425148098E+02  0.10279241910E+02  0.55259511281E+01  0.40158323629E+02  0.51100000000E-03 0. -1.
        -11    1    3    3    0    0 -0.14953439538E+01 -0.70100565065E+00 -0.11598567368E+02  0.11715554947E+02  0.51100000000E-03 0.  1.
        -12    1    3    3    0    0 -0.36129405216E+02 -0.10242915964E+02  0.66295938373E+01  0.38134010583E+02  0.00000000000E+00 0.  1.
</event>
<event>
 7    1  0.2879200E-015  0.9000775E+02  0.7816164E-02  0.1186339E+00
        -11   -1    0    0    0    0  0.00000000000E+00  0.00000000000E+00  0.45593999997E+02  0.45594000000E+02  0.51100000000E-03 0.  1.
         11   -1    0    0    0    0 -0.00000000000E+00 -0.00000000000E+00 -0.45593999997E+02  0.45594000000E+02  0.51100000000E-03 0. -1.
    9900012    2    1    2    0    0  0.85634668215E+00 -0.77791722956E+00 -0.23344563308E+00  0.90007753534E+02  0.90000015081E+02 0.  0.
        -12    1    1    2    0    0 -0.85634668215E+00  0.77791722956E+00  0.23344563308E+00  0.11802464657E+01  0.00000000000E+00 0.  1.
         11    1    3    3    0    0  0.51108547041E+01  0.23587229558E+01 -0.67787338254E+01  0.88111090293E+01  0.51100000000E-03 0. -1.
        -11    1    3    3    0    0  0.64605065306E+00 -0.82197310612E+01  0.43143133023E+02  0.43923926139E+02  0.51100000000E-03 0.  1.
         12    1    3    3    0    0 -0.49005586751E+01  0.50830908759E+01 -0.36597844830E+02  0.37272718366E+02  0.00000000000E+00 0. -1.
</event>
<event>
 7    1  0.2879200E-015  0.9000785E+02  0.7816164E-02  0.1186339E+00
        -11   -1    0    0    0    0  0.00000000000E+00  0.00000000000E+00  0.45593999997E+02  0.45594000000E+02  0.51100000000E-03 0.  1.
         11   -1    0    0    0    0 -0.00000000000E+00 -0.00000000000E+00 -0.45593999997E+02  0.45594000000E+02  0.51100000000E-03 0. -1.
    9900012    2    1    2    0    0 -0.82049492051E+00  0.58107859383E+00 -0.61797762985E+00  0.90007847214E+02  0.90000109997E+02 0.  0.
        -12    1    1    2    0    0  0.82049492051E+00 -0.58107859383E+00  0.61797762985E+00  0.11801527858E+01  0.00000000000E+00 0.  1.
         11    1    3    3    0    0 -0.27070471958E+02  0.34042556314E+02  0.68631562232E+01  0.44031908953E+02  0.51100000000E-03 0. -1.
        -11    1    3    3    0    0  0.74480074305E+01 -0.37042156473E+01 -0.68418808871E+01  0.10770578563E+02  0.51100000000E-03 0.  1.
        -12    1    3    3    0    0  0.18801969607E+02 -0.29757262073E+02 -0.63925296591E+00  0.35205359699E+02  0.00000000000E+00 0.  1.
</event>
<event>
 7    1  0.2879200E-015  0.9000773E+02  0.7816164E-02  0.1186339E+00
        -11   -1    0    0    0    0  0.00000000000E+00  0.00000000000E+00  0.45593999997E+02  0.45594000000E+02  0.51100000000E-03 0.  1.
         11   -1    0    0    0    0 -0.00000000000E+00 -0.00000000000E+00 -0.45593999997E+02  0.45594000000E+02  0.51100000000E-03 0. -1.
    9900012    2    1    2    0    0  0.46614155486E+00  0.10826494307E+01 -0.60152930395E-01  0.90007730491E+02  0.89999991733E+02 0.  0.
        -12    1    1    2    0    0 -0.46614155486E+00 -0.10826494307E+01  0.60152930395E-01  0.11802695090E+01  0.00000000000E+00 0.  1.
         11    1    3    3    0    0  0.80840845854E+01  0.21047864289E+02  0.33282601018E+02  0.40200703296E+02  0.51100000000E-03 0. -1.
        -11    1    3    3    0    0  0.80546345141E+01  0.22861565592E+01 -0.26433927142E+01  0.87801579867E+01  0.51100000000E-03 0.  1.
        -12    1    3    3    0    0 -0.15672577545E+02 -0.22251371417E+02 -0.30699361234E+02  0.41026869208E+02  0.00000000000E+00 0.  1.
</event>
<event>
 7    1  0.2879200E-015  0.9000861E+02  0.7816164E-02  0.1186337E+00
        -11   -1    0    0    0    0  0.00000000000E+00  0.00000000000E+00  0.45593999997E+02  0.45594000000E+02  0.51100000000E-03 0. -1.
         11   -1    0    0    0    0 -0.00000000000E+00 -0.00000000000E+00 -0.45593999997E+02  0.45594000000E+02  0.51100000000E-03 0.  1.
    9900012    2    1    2    0    0 -0.80429434577E+00 -0.33393117546E+00  0.79533278851E+00  0.90008613011E+02  0.90000885899E+02 0.  0.
        -12    1    1    2    0    0  0.80429434577E+00  0.33393117546E+00 -0.79533278851E+00  0.11793869887E+01  0.00000000000E+00 0.  1.
         11    1    3    3    0    0 -0.30989169781E+01 -0.33907636184E+02  0.17788188831E+02  0.38415501301E+02  0.51100000000E-03 0. -1.
        -11    1    3    3    0    0 -0.76646023508E+01 -0.41209239167E+01  0.79602959537E+00  0.87385242748E+01  0.51100000000E-03 0.  1.
        -12    1    3    3    0    0  0.99592249832E+01  0.37694628925E+02 -0.17788885637E+02  0.42854587436E+02  0.00000000000E+00 0.  1.
</event>
<event>
 7    1  0.2879200E-015  0.9000765E+02  0.7816164E-02  0.1186339E+00
        -11   -1    0    0    0    0  0.00000000000E+00  0.00000000000E+00  0.45593999997E+02  0.45594000000E+02  0.51100000000E-03 0. -1.
         11   -1    0    0    0    0 -0.00000000000E+00 -0.00000000000E+00 -0.45593999997E+02  0.45594000000E+02  0.51100000000E-03 0.  1.
    9900012    2    1    2    0    0 -0.10046176791E+01 -0.18615364598E+00 -0.59103377715E+00  0.90007648024E+02  0.89999908178E+02 0.  0.
        -12    1    1    2    0    0  0.10046176791E+01  0.18615364598E+00  0.59103377715E+00  0.11803519758E+01  0.00000000000E+00 0.  1.
         11    1    3    3    0    0  0.17372380756E+02  0.12261615167E+02  0.23974110215E+02  0.32045355053E+02  0.51100000000E-03 0. -1.
        -11    1    3    3    0    0  0.15434347661E+02 -0.41606185885E+01 -0.11881495437E+01  0.16029395944E+02  0.51100000000E-03 0.  1.
        -12    1    3    3    0    0 -0.33811346095E+02 -0.82871502246E+01 -0.23376994448E+02  0.41932897027E+02  0.00000000000E+00 0.  1.
</event>
<event>
 7    1  0.2879200E-015  0.9000843E+02  0.7816164E-02  0.1186338E+00
        -11   -1    0    0    0    0  0.00000000000E+00  0.00000000000E+00  0.45593999997E+02  0.45594000000E+02  0.51100000000E-03 0. -1.
         11   -1    0    0    0    0 -0.00000000000E+00 -0.00000000000E+00 -0.45593999997E+02  0.45594000000E+02  0.51100000000E-03 0.  1.
    9900012    2    1    2    0    0  0.10009159076E+01  0.36812153477E+00  0.50401457213E+00  0.90008433636E+02  0.90000704157E+02 0.  0.
        -12    1    1    2    0    0 -0.10009159076E+01 -0.36812153477E+00 -0.50401457213E+00  0.11795663641E+01  0.00000000000E+00 0.  1.
         11    1    3    3    0    0 -0.23574340351E+02 -0.40165866560E+01 -0.30413160843E+02  0.38689053285E+02  0.51100000000E-03 0. -1.
        -11    1    3    3    0    0  0.56332304441E+01 -0.46423639053E+01 -0.56018310336E+01  0.92013770196E+01  0.51100000000E-03 0.  1.
         12    1    3    3    0    0  0.18942025814E+02  0.90270720961E+01  0.36519006449E+02  0.42118003331E+02  0.00000000000E+00 0. -1.
</event>
<event>
 7    1  0.2879200E-015  0.9000779E+02  0.7816164E-02  0.1186339E+00
        -11   -1    0    0    0    0  0.00000000000E+00  0.00000000000E+00  0.45593999997E+02  0.45594000000E+02  0.51100000000E-03 0. -1.
         11   -1    0    0    0    0 -0.00000000000E+00 -0.00000000000E+00 -0.45593999997E+02  0.45594000000E+02  0.51100000000E-03 0.  1.
    9900012    2    1    2    0    0  0.25513923657E+00  0.64158588349E+00  0.95716089183E+00  0.90007794319E+02  0.90000056404E+02 0.  0.
        -12    1    1    2    0    0 -0.25513923657E+00 -0.64158588349E+00 -0.95716089183E+00  0.11802056807E+01  0.00000000000E+00 0.  1.
         11    1    3    3    0    0 -0.18854635437E+02  0.12372286589E+02  0.31607743007E+02  0.38828084825E+02  0.51100000000E-03 0. -1.
        -11    1    3    3    0    0  0.10000316527E+02  0.15974774304E+01  0.55459484530E+01  0.11546246545E+02  0.51100000000E-03 0.  1.
        -12    1    3    3    0    0  0.91094581467E+01 -0.13328178136E+02 -0.36196530568E+02  0.39633462949E+02  0.00000000000E+00 0.  1.
</event>
<event>
 7    1  0.2879200E-015  0.9000771E+02  0.7816164E-02  0.1186339E+00
        -11   -1    0    0    0    0  0.00000000000E+00  0.00000000000E+00  0.45593999997E+02  0.45594000000E+02  0.51100000000E-03 0.  1.
         11   -1    0    0    0    0 -0.00000000000E+00 -0.00000000000E+00 -0.45593999997E+02  0.45594000000E+02  0.51100000000E-03 0. -1.
    9900012    2    1    2    0    0  0.52076604604E+00 -0.10265833860E+01 -0.26079760654E+00  0.90007709309E+02  0.89999970272E+02 0.  0.
        -12    1    1    2    0    0 -0.52076604604E+00  0.10265833860E+01  0.26079760654E+00  0.11802906907E+01  0.00000000000E+00 0.  1.
         11    1    3    3    0    0 -0.45331706716E+01 -0.44547889669E+00 -0.66902953990E+01  0.80937099387E+01  0.51100000000E-03 0. -1.
        -11    1    3    3    0    0  0.10141948127E+02 -0.34961300516E+02 -0.16819133327E+02  0.40100310369E+02  0.51100000000E-03 0.  1.
         12    1    3    3    0    0 -0.50880114091E+01  0.34380196027E+02  0.23248631120E+02  0.41813689001E+02  0.00000000000E+00 0. -1.
</event>
<event>
 7    1  0.2879200E-015  0.9000844E+02  0.7816164E-02  0.1186338E+00
        -11   -1    0    0    0    0  0.00000000000E+00  0.00000000000E+00  0.45593999997E+02  0.45594000000E+02  0.51100000000E-03 0.  1.
         11   -1    0    0    0    0 -0.00000000000E+00 -0.00000000000E+00 -0.45593999997E+02  0.45594000000E+02  0.51100000000E-03 0. -1.
    9900012    2    1    2    0    0  0.71906813538E+00  0.61470619090E+00 -0.70458472181E+00  0.90008439779E+02  0.90000710381E+02 0.  0.
        -12    1    1    2    0    0 -0.71906813538E+00 -0.61470619090E+00  0.70458472181E+00  0.11795602209E+01  0.00000000000E+00 0.  1.
         11    1    3    3    0    0  0.28007373133E+01 -0.10817155147E+02 -0.13103402701E+01  0.11250420741E+02  0.51100000000E-03 0. -1.
        -11    1    3    3    0    0 -0.38941531936E-01 -0.16540437849E+02  0.32389810744E+02  0.36368770133E+02  0.51100000000E-03 0.  1.
         12    1    3    3    0    0 -0.20427276460E+01  0.27972299187E+02 -0.31784055196E+02  0.42389248905E+02  0.00000000000E+00 0. -1.
</event>
<event>
 7    1  0.2879200E-015  0.9000777E+02  0.7816164E-02  0.1186339E+00
        -11   -1    0    0    0    0  0.00000000000E+00  0.00000000000E+00  0.45593999997E+02  0.45594000000E+02  0.51100000000E-03 0.  1.
         11   -1    0    0    0    0 -0.00000000000E+00 -0.00000000000E+00 -0.45593999997E+02  0.45594000000E+02  0.51100000000E-03 0. -1.
    9900012    2    1    2    0    0 -0.10686871403E+01  0.32415047992E+00 -0.38180768828E+00  0.90007770002E+02  0.90000031766E+02 0.  0.
        -12    1    1    2    0    0  0.10686871403E+01 -0.32415047992E+00  0.38180768828E+00  0.11802299980E+01  0.00000000000E+00 0.  1.
         11    1    3    3    0    0 -0.22201670403E+01  0.86902392374E+01 -0.17236343737E+01  0.91334722535E+01  0.51100000000E-03 0. -1.
        -11    1    3    3    0    0 -0.38524346986E+02  0.46306078874E+01  0.41886661178E+01  0.39027077321E+02  0.51100000000E-03 0.  1.
         12    1    3    3    0    0  0.39675826886E+02 -0.12996696645E+02 -0.28468394324E+01  0.41847220428E+02  0.00000000000E+00 0. -1.
</event>
<event>
 7    1  0.2879200E-015  0.9000763E+02  0.7816164E-02  0.1186339E+00
        -11   -1    0    0    0    0  0.00000000000E+00  0.00000000000E+00  0.45593999997E+02  0.45594000000E+02  0.51100000000E-03 0. -1.
         11   -1    0    0    0    0 -0.00000000000E+00 -0.00000000000E+00 -0.45593999997E+02  0.45594000000E+02  0.51100000000E-03 0.  1.
    9900012    2    1    2    0    0 -0.86023924606E+00 -0.74441830300E+00  0.31481783110E+00  0.90007626992E+02  0.89999886869E+02 0.  0.
        -12    1    1    2    0    0  0.86023924606E+00  0.74441830300E+00 -0.31481783110E+00  0.11803730076E+01  0.00000000000E+00 0.  1.
         11    1    3    3    0    0  0.72932398583E+01  0.31062254513E+01 -0.29695844929E+00  0.79327277003E+01  0.51100000000E-03 0. -1.
        -11    1    3    3    0    0  0.22500618791E+02 -0.26448537824E+02  0.19219560714E+02  0.39688720228E+02  0.51100000000E-03 0.  1.
         12    1    3    3    0    0 -0.30654097895E+02  0.22597894070E+02 -0.18607784433E+02  0.42386179065E+02  0.00000000000E+00 0. -1.
</event>
<event>
 7    1  0.2879200E-015  0.9000662E+02  0.7816164E-02  0.1186341E+00
        -11   -1    0    0    0    0  0.00000000000E+00  0.00000000000E+00  0.45593999997E+02  0.45594000000E+02  0.51100000000E-03 0.  1.
         11   -1    0    0    0    0 -0.00000000000E+00 -0.00000000000E+00 -0.45593999997E+02  0.45594000000E+02  0.51100000000E-03 0. -1.
    9900012    2    1    2    0    0 -0.96842670901E+00  0.60450393736E+00  0.30393334272E+00  0.90006623355E+02  0.89998869976E+02 0.  0.
        -12    1    1    2    0    0  0.96842670901E+00 -0.60450393736E+00 -0.30393334272E+00  0.11813766452E+01  0.00000000000E+00 0.  1.
         11    1    3    3    0    0 -0.11046794499E+02  0.32110165227E+02  0.12063496181E+02  0.36036402706E+02  0.51100000000E-03 0. -1.
        -11    1    3    3    0    0  0.48719043513E+00  0.71287597416E+01  0.69656556325E+01  0.99788240102E+01  0.51100000000E-03 0.  1.
        -12    1    3    3    0    0  0.95911773549E+01 -0.38634421031E+02 -0.18725218471E+02  0.43991396639E+02  0.00000000000E+00 0.  1.
</event>
<event>
 7    1  0.2879200E-015  0.9000773E+02  0.7816164E-02  0.1186339E+00
        -11   -1    0    0    0    0  0.00000000000E+00  0.00000000000E+00  0.45593999997E+02  0.45594000000E+02  0.51100000000E-03 0.  1.
         11   -1    0    0    0    0 -0.00000000000E+00 -0.00000000000E+00 -0.45593999997E+02  0.45594000000E+02  0.51100000000E-03 0. -1.
    9900012    2    1    2    0    0 -0.10914275186E+01  0.44883968764E+00 -0.19065022749E-01  0.90007731146E+02  0.89999992397E+02 0.  0.
        -12    1    1    2    0    0  0.10914275186E+01 -0.44883968764E+00  0.19065022749E-01  0.11802688543E+01  0.00000000000E+00 0.  1.
         11    1    3    3    0    0  0.31576567777E+02  0.18455765997E+02 -0.80328297394E+01  0.37446245272E+02  0.51100000000E-03 0. -1.
        -11    1    3    3    0    0 -0.16295398535E+01  0.89840386669E+01  0.68462174929E+01  0.11412232259E+02  0.51100000000E-03 0.  1.
        -12    1    3    3    0    0 -0.31038455442E+02 -0.26990964976E+02  0.11675472237E+01  0.41149253615E+02  0.00000000000E+00 0.  1.
</event>
<event>
 7    1  0.2879200E-015  0.9000789E+02  0.7816164E-02  0.1186339E+00
        -11   -1    0    0    0    0  0.00000000000E+00  0.00000000000E+00  0.45593999997E+02  0.45594000000E+02  0.51100000000E-03 0.  1.
         11   -1    0    0    0    0 -0.00000000000E+00 -0.00000000000E+00 -0.45593999997E+02  0.45594000000E+02  0.51100000000E-03 0. -1.
    9900012    2    1    2    0    0  0.54845009158E+00  0.77606608191E+00 -0.69969980690E+00  0.90007891579E+02  0.90000154947E+02 0.  0.
        -12    1    1    2    0    0 -0.54845009158E+00 -0.77606608191E+00  0.69969980690E+00  0.11801084214E+01  0.00000000000E+00 0.  1.
         11    1    3    3    0    0  0.34997924933E+02 -0.16640329848E+02  0.10610119171E+02  0.40178725168E+02  0.51100000000E-03 0. -1.
        -11    1    3    3    0    0  0.16649859823E+01 -0.26148818026E+00 -0.94266323451E+01  0.95761136178E+01  0.51100000000E-03 0.  1.
        -12    1    3    3    0    0 -0.36114460824E+02  0.17677884110E+02 -0.18831866331E+01  0.40253052792E+02  0.00000000000E+00 0.  1.
</event>
<event>
 7    1  0.2879200E-015  0.9000774E+02  0.7816164E-02  0.1186339E+00
        -11   -1    0    0    0    0  0.00000000000E+00  0.00000000000E+00  0.45593999997E+02  0.45594000000E+02  0.51100000000E-03 0. -1.
         11   -1    0    0    0    0 -0.00000000000E+00 -0.00000000000E+00 -0.45593999997E+02  0.45594000000E+02  0.51100000000E-03 0.  1.
    9900012    2    1    2    0    0 -0.72493618861E-01  0.55262850905E+00  0.10403610217E+01  0.90007743821E+02  0.90000005239E+02 0.  0.
        -12    1    1    2    0    0  0.72493618861E-01 -0.55262850905E+00 -0.10403610217E+01  0.11802561795E+01  0.00000000000E+00 0.  1.
         11    1    3    3    0    0 -0.26246429426E+00  0.29800081710E+02 -0.21015921767E+01  0.29875248072E+02  0.51100000000E-03 0. -1.
        -11    1    3    3    0    0 -0.88042334058E+01 -0.11033391840E+02 -0.23024203042E+02  0.27006743368E+02  0.51100000000E-03 0.  1.
        -12    1    3    3    0    0  0.89942040812E+01 -0.18214061361E+02  0.26166156241E+02  0.33125752380E+02  0.00000000000E+00 0.  1.
</event>
<event>
 7    1  0.2879200E-015  0.9000783E+02  0.7816164E-02  0.1186339E+00
        -11   -1    0    0    0    0  0.00000000000E+00  0.00000000000E+00  0.45593999997E+02  0.45594000000E+02  0.51100000000E-03 0. -1.
         11   -1    0    0    0    0 -0.00000000000E+00 -0.00000000000E+00 -0.45593999997E+02  0.45594000000E+02  0.51100000000E-03 0.  1.
    9900012    2    1    2    0    0 -0.61067284509E+00  0.12600089278E+00  0.10019986945E+01  0.90007830973E+02  0.90000093542E+02 0.  0.
        -12    1    1    2    0    0  0.61067284509E+00 -0.12600089278E+00 -0.10019986945E+01  0.11801690271E+01  0.00000000000E+00 0.  1.
         11    1    3    3    0    0 -0.71537911526E+01  0.33621770903E+01  0.58358386330E+01  0.98253740618E+01  0.51100000000E-03 0. -1.
        -11    1    3    3    0    0 -0.19402112270E+02 -0.18365053411E+02 -0.30592483942E+02  0.40615480070E+02  0.51100000000E-03 0.  1.
         12    1    3    3    0    0  0.25945230578E+02  0.15128877213E+02  0.25758644003E+02  0.39566976841E+02  0.00000000000E+00 0. -1.
</event>
<event>
 7    1  0.2879200E-015  0.9000794E+02  0.7816164E-02  0.1186339E+00
        -11   -1    0    0    0    0  0.00000000000E+00  0.00000000000E+00  0.45593999997E+02  0.45594000000E+02  0.51100000000E-03 0. -1.
         11   -1    0    0    0    0 -0.00000000000E+00 -0.00000000000E+00 -0.45593999997E+02  0.45594000000E+02  0.51100000000E-03 0.  1.
    9900012    2    1    2    0    0  0.57708606147E+00 -0.93435766791E+00  0.43184844603E+00  0.90007938284E+02  0.90000202269E+02 0.  0.
        -12    1    1    2    0    0 -0.57708606147E+00  0.93435766791E+00 -0.43184844603E+00  0.11800617163E+01  0.00000000000E+00 0.  1.
         11    1    3    3    0    0  0.46939809349E+01  0.12940009272E+02  0.69456991092E+01  0.15418172180E+02  0.51100000000E-03 0. -1.
        -11    1    3    3    0    0 -0.14214655756E+02  0.11578924522E+01 -0.36708213411E+02  0.39381341842E+02  0.51100000000E-03 0.  1.
         12    1    3    3    0    0  0.10097760882E+02 -0.15032259392E+02  0.30194362748E+02  0.35208424262E+02  0.00000000000E+00 0. -1.
</event>
<event>
 7    1  0.2879200E-015  0.9000771E+02  0.7816164E-02  0.1186339E+00
        -11   -1    0    0    0    0  0.00000000000E+00  0.00000000000E+00  0.45593999997E+02  0.45594000000E+02  0.51100000000E-03 0. -1.
         11   -1    0    0    0    0 -0.00000000000E+00 -0.00000000000E+00 -0.45593999997E+02  0.45594000000E+02  0.51100000000E-03 0.  1.
    9900012    2    1    2    0    0 -0.50588742929E+00  0.10305961735E+01  0.27393913620E+00  0.90007706302E+02  0.89999967225E+02 0.  0.
        -12    1    1    2    0    0  0.50588742929E+00 -0.10305961735E+01 -0.27393913620E+00  0.11802936983E+01  0.00000000000E+00 0.  1.
         11    1    3    3    0    0  0.13465015551E+01  0.81026467100E+01 -0.60528039160E+01  0.10203057662E+02  0.51100000000E-03 0. -1.
        -11    1    3    3    0    0  0.25889693647E+02  0.17106824088E+02 -0.17825848966E+02  0.35786597479E+02  0.51100000000E-03 0.  1.
         12    1    3    3    0    0 -0.27742082631E+02 -0.24178874624E+02  0.24152592018E+02  0.44018051161E+02  0.00000000000E+00 0. -1.
</event>
<event>
 7    1  0.2879200E-015  0.9000771E+02  0.7816164E-02  0.1186339E+00
        -11   -1    0    0    0    0  0.00000000000E+00  0.00000000000E+00  0.45593999997E+02  0.45594000000E+02  0.51100000000E-03 0.  1.
         11   -1    0    0    0    0 -0.00000000000E+00 -0.00000000000E+00 -0.45593999997E+02  0.45594000000E+02  0.51100000000E-03 0. -1.
    9900012    2    1    2    0    0  0.56523908303E+00 -0.93379401708E+00 -0.44901385068E+00  0.90007711931E+02  0.89999972929E+02 0.  0.
        -12    1    1    2    0    0 -0.56523908303E+00  0.93379401708E+00  0.44901385068E+00  0.11802880688E+01  0.00000000000E+00 0.  1.
         11    1    3    3    0    0  0.13530286738E+02 -0.56987890276E+01 -0.30948182643E+02  0.34253975897E+02  0.51100000000E-03 0. -1.
        -11    1    3    3    0    0  0.83331174224E+01  0.42444727589E+01 -0.76345208447E+01  0.12072377718E+02  0.51100000000E-03 0.  1.
        -12    1    3    3    0    0 -0.21298165077E+02  0.52052225168E+00  0.38133689637E+02  0.43681358316E+02  0.00000000000E+00 0.  1.
</event>
<event>
 7    1  0.2879200E-015  0.9000776E+02  0.7816164E-02  0.1186339E+00
        -11   -1    0    0    0    0  0.00000000000E+00  0.00000000000E+00  0.45593999997E+02  0.45594000000E+02  0.51100000000E-03 0.  1.
         11   -1    0    0    0    0 -0.00000000000E+00 -0.00000000000E+00 -0.45593999997E+02  0.45594000000E+02  0.51100000000E-03 0. -1.
    9900012    2    1    2    0    0 -0.29431667922E-01  0.11772327307E+01 -0.78848642674E-01  0.90007762637E+02  0.90000024303E+02 0.  0.
        -12    1    1    2    0    0  0.29431667922E-01 -0.11772327307E+01  0.78848642674E-01  0.11802373633E+01  0.00000000000E+00 0.  1.
         11    1    3    3    0    0 -0.15852949880E+02  0.81187016192E+00  0.73763430022E+01  0.17503873554E+02  0.51100000000E-03 0. -1.
        -11    1    3    3    0    0 -0.23423802430E+02  0.14351263662E+02 -0.13142729467E+02  0.30452662069E+02  0.51100000000E-03 0.  1.
         12    1    3    3    0    0  0.39247320641E+02 -0.13985901093E+02  0.56875378225E+01  0.42051227014E+02  0.00000000000E+00 0. -1.
</event>
<event>
 7    1  0.2905616E-015  0.9000770E+02  0.7816164E-02  0.1186339E+00
        -11   -1    0    0    0    0  0.00000000000E+00  0.00000000000E+00  0.45593999997E+02  0.45594000000E+02  0.51100000000E-03 0. -1.
         11   -1    0    0    0    0 -0.00000000000E+00 -0.00000000000E+00 -0.45593999997E+02  0.45594000000E+02  0.51100000000E-03 0.  1.
    9900012    2    1    2    0    0 -0.94740269656E+00 -0.47167141556E+00  0.52255555249E+00  0.90007699149E+02  0.89999959978E+02 0.  0.
        -12    1    1    2    0    0  0.94740269656E+00  0.47167141556E+00 -0.52255555249E+00  0.11803008511E+01  0.00000000000E+00 0.  1.
         11    1    3    3    0    0  0.25854512628E+02  0.23315017717E+02  0.10777868805E+02  0.36444592612E+02  0.51100000000E-03 0. -1.
        -11    1    3    3    0    0  0.43059882621E+01  0.50702772280E+00  0.87427844689E+01  0.97588366395E+01  0.51100000000E-03 0.  1.
        -12    1    3    3    0    0 -0.31107903587E+02 -0.24293716856E+02 -0.18998097721E+02  0.43804269898E+02  0.00000000000E+00 0.  1.
</event>
<event>
 7    1  0.2879200E-015  0.9000771E+02  0.7816164E-02  0.1186339E+00
        -11   -1    0    0    0    0  0.00000000000E+00  0.00000000000E+00  0.45593999997E+02  0.45594000000E+02  0.51100000000E-03 0.  1.
         11   -1    0    0    0    0 -0.00000000000E+00 -0.00000000000E+00 -0.45593999997E+02  0.45594000000E+02  0.51100000000E-03 0. -1.
    9900012    2    1    2    0    0  0.11678413261E+01  0.17093674334E+00  0.25363397213E-02  0.90007712253E+02  0.89999973255E+02 0.  0.
        -12    1    1    2    0    0 -0.11678413261E+01 -0.17093674334E+00 -0.25363397213E-02  0.11802877472E+01  0.00000000000E+00 0.  1.
         11    1    3    3    0    0 -0.16097419901E+02 -0.15113000142E+02 -0.34311271190E+02  0.40801875345E+02  0.51100000000E-03 0. -1.
        -11    1    3    3    0    0 -0.23429044737E+01 -0.58911045756E+01  0.73976140795E+01  0.97426386992E+01  0.51100000000E-03 0.  1.
        -12    1    3    3    0    0  0.19608165701E+02  0.21175041461E+02  0.26916193450E+02  0.39463198209E+02  0.00000000000E+00 0.  1.
</event>
<event>
 7    1  0.2879200E-015  0.9000774E+02  0.7816164E-02  0.1186339E+00
        -11   -1    0    0    0    0  0.00000000000E+00  0.00000000000E+00  0.45593999997E+02  0.45594000000E+02  0.51100000000E-03 0.  1.
         11   -1    0    0    0    0 -0.00000000000E+00 -0.00000000000E+00 -0.45593999997E+02  0.45594000000E+02  0.51100000000E-03 0. -1.
    9900012    2    1    2    0    0 -0.85522985341E-01  0.11542976896E+01  0.23083736931E+00  0.90007744423E+02  0.90000005849E+02 0.  0.
        -12    1    1    2    0    0  0.85522985341E-01 -0.11542976896E+01 -0.23083736931E+00  0.11802555775E+01  0.00000000000E+00 0.  1.
         11    1    3    3    0    0  0.66287480327E+01  0.10382045815E+02 -0.28795138773E+01  0.12649852814E+02  0.51100000000E-03 0. -1.
        -11    1    3    3    0    0  0.21443171151E+02  0.23939337838E+02  0.91920052776E+01  0.33427450493E+02  0.51100000000E-03 0.  1.
         12    1    3    3    0    0 -0.28157442169E+02 -0.33167085964E+02 -0.60816540310E+01  0.43930441116E+02  0.00000000000E+00 0. -1.
</event>
<event>
 7    1  0.2879200E-015  0.9000777E+02  0.7816164E-02  0.1186339E+00
        -11   -1    0    0    0    0  0.00000000000E+00  0.00000000000E+00  0.45593999997E+02  0.45594000000E+02  0.51100000000E-03 0.  1.
         11   -1    0    0    0    0 -0.00000000000E+00 -0.00000000000E+00 -0.45593999997E+02  0.45594000000E+02  0.51100000000E-03 0. -1.
    9900012    2    1    2    0    0 -0.10381937051E+01 -0.31824257355E-02 -0.56131726401E+00  0.90007774018E+02  0.90000035835E+02 0.  0.
        -12    1    1    2    0    0  0.10381937051E+01  0.31824257355E-02  0.56131726401E+00  0.11802259817E+01  0.00000000000E+00 0.  1.
         11    1    3    3    0    0 -0.11361007554E+02  0.20540782260E+02 -0.15095970221E+02  0.27908503107E+02  0.51100000000E-03 0. -1.
        -11    1    3    3    0    0 -0.98486841670E+00  0.17147446236E+02 -0.53765312715E+01  0.17997554472E+02  0.51100000000E-03 0.  1.
        -12    1    3    3    0    0  0.11307682265E+02 -0.37691410922E+02  0.19911184229E+02  0.44101716439E+02  0.00000000000E+00 0.  1.
</event>
<event>
 7    1  0.2879200E-015  0.9000775E+02  0.7816164E-02  0.1186339E+00
        -11   -1    0    0    0    0  0.00000000000E+00  0.00000000000E+00  0.45593999997E+02  0.45594000000E+02  0.51100000000E-03 0.  1.
         11   -1    0    0    0    0 -0.00000000000E+00 -0.00000000000E+00 -0.45593999997E+02  0.45594000000E+02  0.51100000000E-03 0. -1.
    9900012    2    1    2    0    0  0.10767891104E+01  0.48045962651E+00  0.51744518799E-01  0.90007748444E+02  0.90000009923E+02 0.  0.
        -12    1    1    2    0    0 -0.10767891104E+01 -0.48045962651E+00 -0.51744518799E-01  0.11802515563E+01  0.00000000000E+00 0.  1.
         11    1    3    3    0    0  0.36198618060E+02  0.62380857587E+01  0.94183274911E+01  0.37920424001E+02  0.51100000000E-03 0. -1.
        -11    1    3    3    0    0  0.39184673807E+01 -0.71439352857E+01  0.59895392127E+01  0.10112604918E+02  0.51100000000E-03 0.  1.
        -12    1    3    3    0    0 -0.39040296331E+02  0.13863091535E+01 -0.15356122185E+02  0.41974719525E+02  0.00000000000E+00 0.  1.
</event>
<event>
 7    1  0.2879200E-015  0.9000772E+02  0.7816164E-02  0.1186339E+00
        -11   -1    0    0    0    0  0.00000000000E+00  0.00000000000E+00  0.45593999997E+02  0.45594000000E+02  0.51100000000E-03 0.  1.
         11   -1    0    0    0    0 -0.00000000000E+00 -0.00000000000E+00 -0.45593999997E+02  0.45594000000E+02  0.51100000000E-03 0. -1.
    9900012    2    1    2    0    0  0.11109353244E+01 -0.35757482947E+00 -0.17614838220E+00  0.90007718124E+02  0.89999979203E+02 0.  0.
        -12    1    1    2    0    0 -0.11109353244E+01  0.35757482947E+00  0.17614838220E+00  0.11802818758E+01  0.00000000000E+00 0.  1.
         11    1    3    3    0    0  0.27965892468E+02  0.18739789345E+02 -0.16336733606E+02  0.37418708040E+02  0.51100000000E-03 0. -1.
        -11    1    3    3    0    0  0.50286016342E+01 -0.24447436125E+01 -0.76325524600E+01  0.94614725621E+01  0.51100000000E-03 0.  1.
        -12    1    3    3    0    0 -0.31883558778E+02 -0.16652620562E+02  0.23793137684E+02  0.43127537522E+02  0.00000000000E+00 0.  1.
</event>
<event>
 7    1  0.2879200E-015  0.9000776E+02  0.7816164E-02  0.1186339E+00
        -11   -1    0    0    0    0  0.00000000000E+00  0.00000000000E+00  0.45593999997E+02  0.45594000000E+02  0.51100000000E-03 0.  1.
         11   -1    0    0    0    0 -0.00000000000E+00 -0.00000000000E+00 -0.45593999997E+02  0.45594000000E+02  0.51100000000E-03 0. -1.
    9900012    2    1    2    0    0  0.10579757692E+01  0.32291351980E+00  0.41156768529E+00  0.90007756877E+02  0.90000018468E+02 0.  0.
        -12    1    1    2    0    0 -0.10579757692E+01 -0.32291351980E+00 -0.41156768529E+00  0.11802431229E+01  0.00000000000E+00 0.  1.
         11    1    3    3    0    0  0.12822847651E+02 -0.15337645250E+02 -0.26420761398E+02  0.33131939527E+02  0.51100000000E-03 0. -1.
        -11    1    3    3    0    0 -0.72641566889E+00 -0.14494848891E+02 -0.76650143513E+00  0.14533266969E+02  0.51100000000E-03 0.  1.
        -12    1    3    3    0    0 -0.11038456213E+02  0.30155407661E+02  0.27598830519E+02  0.42342550381E+02  0.00000000000E+00 0.  1.
</event>
<event>
 7    1  0.2879200E-015  0.9000734E+02  0.7816164E-02  0.1186340E+00
        -11   -1    0    0    0    0  0.00000000000E+00  0.00000000000E+00  0.45593999997E+02  0.45594000000E+02  0.51100000000E-03 0.  1.
         11   -1    0    0    0    0 -0.00000000000E+00 -0.00000000000E+00 -0.45593999997E+02  0.45594000000E+02  0.51100000000E-03 0. -1.
    9900012    2    1    2    0    0  0.11203417934E+01  0.19712556683E+00  0.31613976442E+00  0.90007335537E+02  0.89999591565E+02 0.  0.
        -12    1    1    2    0    0 -0.11203417934E+01 -0.19712556683E+00 -0.31613976442E+00  0.11806644628E+01  0.00000000000E+00 0.  1.
         11    1    3    3    0    0  0.21072735569E+02  0.13099368850E+02  0.15437472663E+02  0.29222751601E+02  0.51100000000E-03 0. -1.
        -11    1    3    3    0    0  0.17117918732E+02  0.40260045265E+01 -0.85053638696E+00  0.17605546472E+02  0.51100000000E-03 0.  1.
        -12    1    3    3    0    0 -0.37070312507E+02 -0.16928247810E+02 -0.14270796512E+02  0.43179037465E+02  0.00000000000E+00 0.  1.
</event>
<event>
 7    1  0.2879200E-015  0.9000743E+02  0.7816164E-02  0.1186340E+00
        -11   -1    0    0    0    0  0.00000000000E+00  0.00000000000E+00  0.45593999997E+02  0.45594000000E+02  0.51100000000E-03 0. -1.
         11   -1    0    0    0    0 -0.00000000000E+00 -0.00000000000E+00 -0.45593999997E+02  0.45594000000E+02  0.51100000000E-03 0.  1.
    9900012    2    1    2    0    0 -0.53717789688E-01  0.59707676514E+00  0.10170313152E+01  0.90007432780E+02  0.89999690092E+02 0.  0.
        -12    1    1    2    0    0  0.53717789688E-01 -0.59707676514E+00 -0.10170313152E+01  0.11805672198E+01  0.00000000000E+00 0.  1.
         11    1    3    3    0    0 -0.21859200500E+01  0.28314643734E+02  0.27208386467E+02  0.39329296850E+02  0.51100000000E-03 0. -1.
        -11    1    3    3    0    0  0.25797120403E+01  0.65063315126E+01 -0.11432513083E+02  0.13404835680E+02  0.51100000000E-03 0.  1.
        -12    1    3    3    0    0 -0.44750978004E+00 -0.34223898482E+02 -0.14758842069E+02  0.37273300250E+02  0.00000000000E+00 0.  1.
</event>
<event>
 7    1  0.2879200E-015  0.9000721E+02  0.7816164E-02  0.1186340E+00
        -11   -1    0    0    0    0  0.00000000000E+00  0.00000000000E+00  0.45593999997E+02  0.45594000000E+02  0.51100000000E-03 0. -1.
         11   -1    0    0    0    0 -0.00000000000E+00 -0.00000000000E+00 -0.45593999997E+02  0.45594000000E+02  0.51100000000E-03 0.  1.
    9900012    2    1    2    0    0  0.72311114176E+00 -0.73643502897E+00  0.57361869448E+00  0.90007210145E+02  0.89999464517E+02 0.  0.
        -12    1    1    2    0    0 -0.72311114176E+00  0.73643502897E+00 -0.57361869448E+00  0.11807898551E+01  0.00000000000E+00 0.  1.
         11    1    3    3    0    0  0.32871220408E+02 -0.15364407647E+02  0.20609240811E+02  0.41729161992E+02  0.51100000000E-03 0. -1.
        -11    1    3    3    0    0  0.35054544430E+01  0.14825504150E+01 -0.72441654465E+01  0.81831595281E+01  0.51100000000E-03 0.  1.
        -12    1    3    3    0    0 -0.35653563710E+02  0.13145422203E+02 -0.12791456670E+02  0.40094888625E+02  0.00000000000E+00 0.  1.
</event>
<event>
 7    1  0.2879200E-015  0.9000656E+02  0.7816164E-02  0.1186341E+00
        -11   -1    0    0    0    0  0.00000000000E+00  0.00000000000E+00  0.45593999997E+02  0.45594000000E+02  0.51100000000E-03 0.  1.
         11   -1    0    0    0    0 -0.00000000000E+00 -0.00000000000E+00 -0.45593999997E+02  0.45594000000E+02  0.51100000000E-03 0. -1.
    9900012    2    1    2    0    0 -0.95909877452E-03  0.14653801684E+00 -0.11723213340E+01  0.90006555283E+02  0.89998801004E+02 0.  0.
        -12    1    1    2    0    0  0.95909877452E-03 -0.14653801684E+00  0.11723213340E+01  0.11814447174E+01  0.00000000000E+00 0.  1.
         11    1    3    3    0    0  0.21677605551E+02  0.77871859630E+01 -0.30276085946E+02  0.38042084960E+02  0.51100000000E-03 0. -1.
        -11    1    3    3    0    0  0.88965187709E+01  0.33628464263E+01  0.21621826419E+01  0.97535540377E+01  0.51100000000E-03 0.  1.
        -12    1    3    3    0    0 -0.30575083420E+02 -0.11003494372E+02  0.26941581970E+02  0.42210916285E+02  0.00000000000E+00 0.  1.
</event>
<event>
 7    1  0.2879200E-015  0.9000771E+02  0.7816164E-02  0.1186339E+00
        -11   -1    0    0    0    0  0.00000000000E+00  0.00000000000E+00  0.45593999997E+02  0.45594000000E+02  0.51100000000E-03 0.  1.
         11   -1    0    0    0    0 -0.00000000000E+00 -0.00000000000E+00 -0.45593999997E+02  0.45594000000E+02  0.51100000000E-03 0. -1.
    9900012    2    1    2    0    0 -0.86830501731E+00 -0.77716720271E+00  0.18749271210E+00  0.90007705130E+02  0.89999966037E+02 0.  0.
        -12    1    1    2    0    0  0.86830501731E+00  0.77716720271E+00 -0.18749271210E+00  0.11802948704E+01  0.00000000000E+00 0.  1.
         11    1    3    3    0    0 -0.17120158541E+01 -0.28561548651E+02  0.27709848344E+02  0.39831253497E+02  0.51100000000E-03 0. -1.
        -11    1    3    3    0    0  0.74099369537E+01  0.31068809548E+01  0.45075669920E+01  0.92129276223E+01  0.51100000000E-03 0.  1.
        -12    1    3    3    0    0 -0.65662261169E+01  0.24677500493E+02 -0.32029922624E+02  0.40963524010E+02  0.00000000000E+00 0.  1.
</event>
<event>
 7    1  0.2879200E-015  0.9000774E+02  0.7816164E-02  0.1186339E+00
        -11   -1    0    0    0    0  0.00000000000E+00  0.00000000000E+00  0.45593999997E+02  0.45594000000E+02  0.51100000000E-03 0. -1.
         11   -1    0    0    0    0 -0.00000000000E+00 -0.00000000000E+00 -0.45593999997E+02  0.45594000000E+02  0.51100000000E-03 0.  1.
    9900012    2    1    2    0    0 -0.94787547575E+00 -0.59143206112E+00  0.38045325419E+00  0.90007743893E+02  0.90000005312E+02 0.  0.
        -12    1    1    2    0    0  0.94787547575E+00  0.59143206112E+00 -0.38045325419E+00  0.11802561074E+01  0.00000000000E+00 0.  1.
         11    1    3    3    0    0  0.40785551313E+00 -0.47291633985E+01  0.93693912843E+01  0.10503181702E+02  0.51100000000E-03 0. -1.
        -11    1    3    3    0    0  0.36661740887E+02 -0.11520777752E+01 -0.16783714058E+02  0.40337372075E+02  0.51100000000E-03 0.  1.
         12    1    3    3    0    0 -0.38017471875E+02  0.52898091126E+01  0.77947760280E+01  0.39167190116E+02  0.00000000000E+00 0. -1.
</event>
<event>
 7    1  0.2879200E-015  0.9000776E+02  0.7816164E-02  0.1186339E+00
        -11   -1    0    0    0    0  0.00000000000E+00  0.00000000000E+00  0.45593999997E+02  0.45594000000E+02  0.51100000000E-03 0.  1.
         11   -1    0    0    0    0 -0.00000000000E+00 -0.00000000000E+00 -0.45593999997E+02  0.45594000000E+02  0.51100000000E-03 0. -1.
    9900012    2    1    2    0    0 -0.93529736472E+00  0.63100534829E+00 -0.34645024356E+00  0.90007755669E+02  0.90000017244E+02 0.  0.
        -12    1    1    2    0    0  0.93529736472E+00 -0.63100534829E+00  0.34645024356E+00  0.11802443312E+01  0.00000000000E+00 0.  1.
         11    1    3    3    0    0 -0.28932306892E+02  0.44381992946E+01 -0.26694839312E+02  0.39615532828E+02  0.51100000000E-03 0. -1.
        -11    1    3    3    0    0 -0.68709767596E+01  0.23602491455E+01  0.67717023512E+01  0.99316187328E+01  0.51100000000E-03 0.  1.
        -12    1    3    3    0    0  0.34867986287E+02 -0.61674430918E+01  0.19576686717E+02  0.40460604108E+02  0.00000000000E+00 0.  1.
</event>
<event>
 7    1  0.2879200E-015  0.9000750E+02  0.7816164E-02  0.1186340E+00
        -11   -1    0    0    0    0  0.00000000000E+00  0.00000000000E+00  0.45593999997E+02  0.45594000000E+02  0.51100000000E-03 0.  1.
         11   -1    0    0    0    0 -0.00000000000E+00 -0.00000000000E+00 -0.45593999997E+02  0.45594000000E+02  0.51100000000E-03 0. -1.
    9900012    2    1    2    0    0  0.10956842900E+01  0.36376652619E+00 -0.24643971234E+00  0.90007498970E+02  0.89999757157E+02 0.  0.
        -12    1    1    2    0    0 -0.10956842900E+01 -0.36376652619E+00  0.24643971234E+00  0.11805010295E+01  0.00000000000E+00 0.  1.
         11    1    3    3    0    0 -0.40413781894E+01 -0.16436521359E+01 -0.83556747419E+01  0.94261142931E+01  0.51100000000E-03 0. -1.
        -11    1    3    3    0    0 -0.34676207327E+02  0.52183728758E+01  0.18022695602E+02  0.39426999976E+02  0.51100000000E-03 0.  1.
         12    1    3    3    0    0  0.39813269806E+02 -0.32109542137E+01 -0.99134605728E+01  0.41154384702E+02  0.00000000000E+00 0. -1.
</event>
<event>
 7    1  0.2879200E-015  0.9000781E+02  0.7816164E-02  0.1186339E+00
        -11   -1    0    0    0    0  0.00000000000E+00  0.00000000000E+00  0.45593999997E+02  0.45594000000E+02  0.51100000000E-03 0. -1.
         11   -1    0    0    0    0 -0.00000000000E+00 -0.00000000000E+00 -0.45593999997E+02  0.45594000000E+02  0.51100000000E-03 0.  1.
    9900012    2    1    2    0    0 -0.58427361485E+00  0.31291364582E-01  0.10249346280E+01  0.90007811118E+02  0.90000073424E+02 0.  0.
        -12    1    1    2    0    0  0.58427361485E+00 -0.31291364582E-01 -0.10249346280E+01  0.11801888824E+01  0.00000000000E+00 0.  1.
         11    1    3    3    0    0 -0.22768613005E+00  0.78378806452E+01 -0.34197822680E+01  0.85544798207E+01  0.51100000000E-03 0. -1.
        -11    1    3    3    0    0  0.10191977257E+02  0.18411919112E+02  0.34364677822E+02  0.40296479349E+02  0.51100000000E-03 0.  1.
         12    1    3    3    0    0 -0.10548564742E+02 -0.26218508392E+02 -0.29919960927E+02  0.41156851948E+02  0.00000000000E+00 0. -1.
</event>
<event>
 7    1  0.2879200E-015  0.9000769E+02  0.7816164E-02  0.1186339E+00
        -11   -1    0    0    0    0  0.00000000000E+00  0.00000000000E+00  0.45593999997E+02  0.45594000000E+02  0.51100000000E-03 0.  1.
         11   -1    0    0    0    0 -0.00000000000E+00 -0.00000000000E+00 -0.45593999997E+02  0.45594000000E+02  0.51100000000E-03 0. -1.
    9900012    2    1    2    0    0 -0.70585346151E+00  0.11968462439E+00 -0.93839286936E+00  0.90007688729E+02  0.89999949421E+02 0.  0.
        -12    1    1    2    0    0  0.70585346151E+00 -0.11968462439E+00  0.93839286936E+00  0.11803112707E+01  0.00000000000E+00 0.  1.
         11    1    3    3    0    0  0.83387574754E+01  0.43284467771E+01 -0.34980984503E+00  0.94017389309E+01  0.51100000000E-03 0. -1.
        -11    1    3    3    0    0  0.31126962155E+02 -0.43121766259E+01  0.18138689506E+02  0.36283532043E+02  0.51100000000E-03 0.  1.
         12    1    3    3    0    0 -0.40171573092E+02  0.10341447319E+00 -0.18727272530E+02  0.44322417755E+02  0.00000000000E+00 0. -1.
</event>
<event>
 7    1  0.2879200E-015  0.9000769E+02  0.7816164E-02  0.1186339E+00
        -11   -1    0    0    0    0  0.00000000000E+00  0.00000000000E+00  0.45593999997E+02  0.45594000000E+02  0.51100000000E-03 0. -1.
         11   -1    0    0    0    0 -0.00000000000E+00 -0.00000000000E+00 -0.45593999997E+02  0.45594000000E+02  0.51100000000E-03 0.  1.
    9900012    2    1    2    0    0  0.56843552636E+00  0.55280007964E+00  0.87430928077E+00  0.90007693432E+02  0.89999954185E+02 0.  0.
        -12    1    1    2    0    0 -0.56843552636E+00 -0.55280007964E+00 -0.87430928077E+00  0.11803065679E+01  0.00000000000E+00 0.  1.
         11    1    3    3    0    0  0.36168498896E+02 -0.45219573639E+01 -0.35431649793E+01  0.36621884565E+02  0.51100000000E-03 0. -1.
        -11    1    3    3    0    0  0.61592421555E+01 -0.81011444580E+00 -0.73298516887E+01  0.96082920118E+01  0.51100000000E-03 0.  1.
        -12    1    3    3    0    0 -0.41759305525E+02  0.58848718893E+01  0.11747325949E+02  0.43777516855E+02  0.00000000000E+00 0.  1.
</event>
<event>
 7    1  0.2879200E-015  0.9000777E+02  0.7816164E-02  0.1186339E+00
        -11   -1    0    0    0    0  0.00000000000E+00  0.00000000000E+00  0.45593999997E+02  0.45594000000E+02  0.51100000000E-03 0. -1.
         11   -1    0    0    0    0 -0.00000000000E+00 -0.00000000000E+00 -0.45593999997E+02  0.45594000000E+02  0.51100000000E-03 0.  1.
    9900012    2    1    2    0    0 -0.66186854182E+00  0.88819605342E+00 -0.40739629555E+00  0.90007773777E+02  0.90000035591E+02 0.  0.
        -12    1    1    2    0    0  0.66186854182E+00 -0.88819605342E+00  0.40739629555E+00  0.11802262231E+01  0.00000000000E+00 0.  1.
         11    1    3    3    0    0  0.38256528680E+00 -0.90223848904E+01  0.66565562351E+01  0.11218713228E+02  0.51100000000E-03 0. -1.
        -11    1    3    3    0    0 -0.14985612061E+02 -0.28205548030E+02 -0.18124120716E+02  0.36723361236E+02  0.51100000000E-03 0.  1.
         12    1    3    3    0    0  0.13941178232E+02  0.38116128973E+02  0.11060168186E+02  0.42065699313E+02  0.00000000000E+00 0. -1.
</event>
<event>
 7    1  0.2879200E-015  0.9000772E+02  0.7816164E-02  0.1186339E+00
        -11   -1    0    0    0    0  0.00000000000E+00  0.00000000000E+00  0.45593999997E+02  0.45594000000E+02  0.51100000000E-03 0.  1.
         11   -1    0    0    0    0 -0.00000000000E+00 -0.00000000000E+00 -0.45593999997E+02  0.45594000000E+02  0.51100000000E-03 0. -1.
    9900012    2    1    2    0    0 -0.57829358960E+00 -0.32979145270E+00 -0.97461594662E+00  0.90007719473E+02  0.89999980570E+02 0.  0.
        -12    1    1    2    0    0  0.57829358960E+00  0.32979145270E+00  0.97461594662E+00  0.11802805266E+01  0.00000000000E+00 0.  1.
         11    1    3    3    0    0 -0.28605414367E+01 -0.24950066045E+01  0.96181403290E+01  0.10340037665E+02  0.51100000000E-03 0. -1.
        -11    1    3    3    0    0 -0.25377218660E+02 -0.12476813702E+02  0.20980837795E+02  0.35211782999E+02  0.51100000000E-03 0.  1.
         12    1    3    3    0    0  0.27659466507E+02  0.14642028854E+02 -0.31573594071E+02  0.44455898810E+02  0.00000000000E+00 0. -1.
</event>
<event>
 7    1  0.2879200E-015  0.9000765E+02  0.7816164E-02  0.1186339E+00
        -11   -1    0    0    0    0  0.00000000000E+00  0.00000000000E+00  0.45593999997E+02  0.45594000000E+02  0.51100000000E-03 0.  1.
         11   -1    0    0    0    0 -0.00000000000E+00 -0.00000000000E+00 -0.45593999997E+02  0.45594000000E+02  0.51100000000E-03 0. -1.
    9900012    2    1    2    0    0 -0.18911868115E+00 -0.44508602586E+00 -0.10767303690E+01  0.90007654401E+02  0.89999914639E+02 0.  0.
        -12    1    1    2    0    0  0.18911868115E+00  0.44508602586E+00  0.10767303690E+01  0.11803455991E+01  0.00000000000E+00 0.  1.
         11    1    3    3    0    0 -0.29760993642E+01  0.35376982531E+02 -0.10569475607E+02  0.37041893517E+02  0.51100000000E-03 0. -1.
        -11    1    3    3    0    0  0.50336537123E+01 -0.95943424409E+01 -0.13986629760E+02  0.17692226793E+02  0.51100000000E-03 0.  1.
        -12    1    3    3    0    0 -0.22466730293E+01 -0.26227726116E+02  0.23479374999E+02  0.35273534091E+02  0.00000000000E+00 0.  1.
</event>
<event>
 7    1  0.2879200E-015  0.9000778E+02  0.7816164E-02  0.1186339E+00
        -11   -1    0    0    0    0  0.00000000000E+00  0.00000000000E+00  0.45593999997E+02  0.45594000000E+02  0.51100000000E-03 0.  1.
         11   -1    0    0    0    0 -0.00000000000E+00 -0.00000000000E+00 -0.45593999997E+02  0.45594000000E+02  0.51100000000E-03 0. -1.
    9900012    2    1    2    0    0 -0.21287373909E+00 -0.11604616637E+01  0.30596725482E-01  0.90007778554E+02  0.90000040431E+02 0.  0.
        -12    1    1    2    0    0  0.21287373909E+00  0.11604616637E+01 -0.30596725482E-01  0.11802214459E+01  0.00000000000E+00 0.  1.
         11    1    3    3    0    0  0.69772854214E+01  0.58114309033E+01  0.14079937306E+01  0.91889981827E+01  0.51100000000E-03 0. -1.
        -11    1    3    3    0    0  0.34592329761E+02  0.30261227365E+01  0.10442156671E+02  0.36260520312E+02  0.51100000000E-03 0.  1.
         12    1    3    3    0    0 -0.41782488921E+02 -0.99980153035E+01 -0.11819553676E+02  0.44558260060E+02  0.00000000000E+00 0. -1.
</event>
<event>
 7    1  0.2879200E-015  0.9000773E+02  0.7816164E-02  0.1186339E+00
        -11   -1    0    0    0    0  0.00000000000E+00  0.00000000000E+00  0.45593999997E+02  0.45594000000E+02  0.51100000000E-03 0. -1.
         11   -1    0    0    0    0 -0.00000000000E+00 -0.00000000000E+00 -0.45593999997E+02  0.45594000000E+02  0.51100000000E-03 0.  1.
    9900012    2    1    2    0    0 -0.11003353367E+01 -0.12825916760E+00 -0.40725305087E+00  0.90007727440E+02  0.89999988643E+02 0.  0.
        -12    1    1    2    0    0  0.11003353367E+01  0.12825916760E+00  0.40725305087E+00  0.11802725595E+01  0.00000000000E+00 0.  1.
         11    1    3    3    0    0 -0.60439159413E+01  0.62742708012E+01  0.21530495027E+01  0.89739075332E+01  0.51100000000E-03 0. -1.
        -11    1    3    3    0    0  0.75425045684E+01  0.30010669115E+02 -0.23584206578E+02  0.38906868751E+02  0.51100000000E-03 0.  1.
         12    1    3    3    0    0 -0.25989239637E+01 -0.36413199083E+02  0.21023904025E+02  0.42126951156E+02  0.00000000000E+00 0. -1.
</event>
<event>
 7    1  0.2879200E-015  0.9000779E+02  0.7816164E-02  0.1186339E+00
        -11   -1    0    0    0    0  0.00000000000E+00  0.00000000000E+00  0.45593999997E+02  0.45594000000E+02  0.51100000000E-03 0.  1.
         11   -1    0    0    0    0 -0.00000000000E+00 -0.00000000000E+00 -0.45593999997E+02  0.45594000000E+02  0.51100000000E-03 0. -1.
    9900012    2    1    2    0    0 -0.48959260449E+00 -0.48760228060E+00 -0.95678245937E+00  0.90007792570E+02  0.90000054632E+02 0.  0.
        -12    1    1    2    0    0  0.48959260449E+00  0.48760228060E+00  0.95678245937E+00  0.11802074296E+01  0.00000000000E+00 0.  1.
         11    1    3    3    0    0 -0.29297605566E+02  0.28051908882E+02 -0.11725197170E+02  0.42222500314E+02  0.51100000000E-03 0. -1.
        -11    1    3    3    0    0  0.56598341170E+01  0.15970050002E+01  0.76608909504E+01  0.96578153646E+01  0.51100000000E-03 0.  1.
        -12    1    3    3    0    0  0.23148178844E+02 -0.30136516162E+02  0.31075237604E+01  0.38127476892E+02  0.00000000000E+00 0.  1.
</event>
<event>
 7    1  0.2879200E-015  0.9000823E+02  0.7816164E-02  0.1186338E+00
        -11   -1    0    0    0    0  0.00000000000E+00  0.00000000000E+00  0.45593999997E+02  0.45594000000E+02  0.51100000000E-03 0.  1.
         11   -1    0    0    0    0 -0.00000000000E+00 -0.00000000000E+00 -0.45593999997E+02  0.45594000000E+02  0.51100000000E-03 0. -1.
    9900012    2    1    2    0    0 -0.95423128601E+00 -0.25978883859E+00  0.64328358625E+00  0.90008228259E+02  0.90000496071E+02 0.  0.
        -12    1    1    2    0    0  0.95423128601E+00  0.25978883859E+00 -0.64328358625E+00  0.11797717407E+01  0.00000000000E+00 0.  1.
         11    1    3    3    0    0 -0.27904948921E+01 -0.47956248466E+01  0.64419047341E+01  0.85019419121E+01  0.51100000000E-03 0. -1.
        -11    1    3    3    0    0 -0.31990689464E+02 -0.21531289254E+02 -0.15985138465E+01  0.38594764879E+02  0.51100000000E-03 0.  1.
         12    1    3    3    0    0  0.33826953070E+02  0.26067125262E+02 -0.42001073013E+01  0.42911521468E+02  0.00000000000E+00 0. -1.
</event>
<event>
 7    1  0.2879200E-015  0.9000776E+02  0.7816164E-02  0.1186339E+00
        -11   -1    0    0    0    0  0.00000000000E+00  0.00000000000E+00  0.45593999997E+02  0.45594000000E+02  0.51100000000E-03 0. -1.
         11   -1    0    0    0    0 -0.00000000000E+00 -0.00000000000E+00 -0.45593999997E+02  0.45594000000E+02  0.51100000000E-03 0.  1.
    9900012    2    1    2    0    0  0.59433664619E+00  0.26224132602E+00  0.98537475982E+00  0.90007758508E+02  0.90000020120E+02 0.  0.
        -12    1    1    2    0    0 -0.59433664619E+00 -0.26224132602E+00 -0.98537475982E+00  0.11802414920E+01  0.00000000000E+00 0.  1.
         11    1    3    3    0    0  0.64682831365E+01 -0.64715110469E+01 -0.93433467388E+01  0.13077357168E+02  0.51100000000E-03 0. -1.
        -11    1    3    3    0    0 -0.25949441888E+02 -0.14938980331E+02 -0.18871027279E+02  0.35392970184E+02  0.51100000000E-03 0.  1.
         12    1    3    3    0    0  0.20075495398E+02  0.21672732704E+02  0.29199748778E+02  0.41537431155E+02  0.00000000000E+00 0. -1.
</event>
<event>
 7    1  0.2879200E-015  0.9000735E+02  0.7816164E-02  0.1186340E+00
        -11   -1    0    0    0    0  0.00000000000E+00  0.00000000000E+00  0.45593999997E+02  0.45594000000E+02  0.51100000000E-03 0.  1.
         11   -1    0    0    0    0 -0.00000000000E+00 -0.00000000000E+00 -0.45593999997E+02  0.45594000000E+02  0.51100000000E-03 0. -1.
    9900012    2    1    2    0    0  0.52970202940E+00 -0.10489867241E+01 -0.11387028727E+00  0.90007354486E+02  0.89999610764E+02 0.  0.
        -12    1    1    2    0    0 -0.52970202940E+00  0.10489867241E+01  0.11387028727E+00  0.11806455140E+01  0.00000000000E+00 0.  1.
         11    1    3    3    0    0  0.47361519261E+01  0.76266181474E+01 -0.35686173467E+00  0.89846418956E+01  0.51100000000E-03 0. -1.
        -11    1    3    3    0    0 -0.32571412106E+02  0.11871845106E+02  0.20782097946E+02  0.40419465461E+02  0.51100000000E-03 0.  1.
         12    1    3    3    0    0  0.28364962210E+02 -0.20547449977E+02 -0.20539106499E+02  0.40603247130E+02  0.00000000000E+00 0. -1.
</event>
<event>
 7    1  0.2879200E-015  0.9000752E+02  0.7816164E-02  0.1186339E+00
        -11   -1    0    0    0    0  0.00000000000E+00  0.00000000000E+00  0.45593999997E+02  0.45594000000E+02  0.51100000000E-03 0.  1.
         11   -1    0    0    0    0 -0.00000000000E+00 -0.00000000000E+00 -0.45593999997E+02  0.45594000000E+02  0.51100000000E-03 0. -1.
    9900012    2    1    2    0    0 -0.11434644818E+01 -0.13689206100E+00 -0.25938829608E+00  0.90007520121E+02  0.89999778586E+02 0.  0.
        -12    1    1    2    0    0  0.11434644818E+01  0.13689206100E+00  0.25938829608E+00  0.11804798794E+01  0.00000000000E+00 0.  1.
         11    1    3    3    0    0  0.21717420503E+02  0.13603320709E+02 -0.13785899951E+01  0.25663148643E+02  0.51100000000E-03 0. -1.
        -11    1    3    3    0    0  0.14970018487E+02 -0.16861475184E+02 -0.10179163020E+02  0.24739162454E+02  0.51100000000E-03 0.  1.
         12    1    3    3    0    0 -0.37830903472E+02  0.31212624135E+01  0.11298364719E+02  0.39605209024E+02  0.00000000000E+00 0. -1.
</event>
<event>
 7    1  0.2879200E-015  0.9000770E+02  0.7816164E-02  0.1186339E+00
        -11   -1    0    0    0    0  0.00000000000E+00  0.00000000000E+00  0.45593999997E+02  0.45594000000E+02  0.51100000000E-03 0. -1.
         11   -1    0    0    0    0 -0.00000000000E+00 -0.00000000000E+00 -0.45593999997E+02  0.45594000000E+02  0.51100000000E-03 0.  1.
    9900012    2    1    2    0    0 -0.62012206383E+00 -0.86311613240E+00 -0.51339984016E+00  0.90007703331E+02  0.89999964215E+02 0.  0.
        -12    1    1    2    0    0  0.62012206383E+00  0.86311613240E+00  0.51339984016E+00  0.11802966695E+01  0.00000000000E+00 0.  1.
         11    1    3    3    0    0 -0.32826613984E+01  0.49646016159E+01 -0.50607601470E+01  0.78124534294E+01  0.51100000000E-03 0. -1.
        -11    1    3    3    0    0  0.58097319391E+01  0.16202331033E+02 -0.33759096976E+02  0.37893866852E+02  0.51100000000E-03 0.  1.
         12    1    3    3    0    0 -0.31471926045E+01 -0.22030048781E+02  0.38306457282E+02  0.44301383050E+02  0.00000000000E+00 0. -1.
</event>
<event>
 7    1  0.2879200E-015  0.9000776E+02  0.7816164E-02  0.1186339E+00
        -11   -1    0    0    0    0  0.00000000000E+00  0.00000000000E+00  0.45593999997E+02  0.45594000000E+02  0.51100000000E-03 0. -1.
         11   -1    0    0    0    0 -0.00000000000E+00 -0.00000000000E+00 -0.45593999997E+02  0.45594000000E+02  0.51100000000E-03 0.  1.
    9900012    2    1    2    0    0  0.13538169017E+00 -0.73195003540E+00 -0.91591352299E+00  0.90007755687E+02  0.90000017262E+02 0.  0.
        -12    1    1    2    0    0 -0.13538169017E+00  0.73195003540E+00  0.91591352299E+00  0.11802443128E+01  0.00000000000E+00 0.  1.
         11    1    3    3    0    0 -0.16617284274E+02 -0.80633471736E+01  0.20643473590E+01  0.18585296193E+02  0.51100000000E-03 0. -1.
        -11    1    3    3    0    0 -0.30298216904E+01  0.23945188069E+02 -0.26952510384E+02  0.36179962236E+02  0.51100000000E-03 0.  1.
         12    1    3    3    0    0  0.19782487655E+02 -0.16613790930E+02  0.23972249502E+02  0.35242497259E+02  0.00000000000E+00 0. -1.
</event>
<event>
 7    1  0.2879200E-015  0.9000774E+02  0.7816164E-02  0.1186339E+00
        -11   -1    0    0    0    0  0.00000000000E+00  0.00000000000E+00  0.45593999997E+02  0.45594000000E+02  0.51100000000E-03 0.  1.
         11   -1    0    0    0    0 -0.00000000000E+00 -0.00000000000E+00 -0.45593999997E+02  0.45594000000E+02  0.51100000000E-03 0. -1.
    9900012    2    1    2    0    0  0.87008836359E+00 -0.73056567749E+00 -0.31975538089E+00  0.90007735846E+02  0.89999997159E+02 0.  0.
        -12    1    1    2    0    0 -0.87008836359E+00  0.73056567749E+00  0.31975538089E+00  0.11802641540E+01  0.00000000000E+00 0.  1.
         11    1    3    3    0    0 -0.71119972762E+00  0.87681850262E+00  0.74297977992E+01  0.75150855842E+01  0.51100000000E-03 0. -1.
        -11    1    3    3    0    0 -0.38837822542E+02  0.95143344983E+01 -0.68018163376E+01  0.40560617925E+02  0.51100000000E-03 0.  1.
         12    1    3    3    0    0  0.40419110633E+02 -0.11121718678E+02 -0.94773684252E+00  0.41932032336E+02  0.00000000000E+00 0. -1.
</event>
<event>
 7    1  0.2879200E-015  0.9000772E+02  0.7816164E-02  0.1186339E+00
        -11   -1    0    0    0    0  0.00000000000E+00  0.00000000000E+00  0.45593999997E+02  0.45594000000E+02  0.51100000000E-03 0.  1.
         11   -1    0    0    0    0 -0.00000000000E+00 -0.00000000000E+00 -0.45593999997E+02  0.45594000000E+02  0.51100000000E-03 0. -1.
    9900012    2    1    2    0    0 -0.26754939218E+00 -0.10684686924E+01  0.42409917245E+00  0.90007716927E+02  0.89999977991E+02 0.  0.
        -12    1    1    2    0    0  0.26754939218E+00  0.10684686924E+01 -0.42409917245E+00  0.11802830728E+01  0.00000000000E+00 0.  1.
         11    1    3    3    0    0  0.31085178998E+02 -0.57364067892E+01  0.10036140262E+02  0.33165024164E+02  0.51100000000E-03 0. -1.
        -11    1    3    3    0    0  0.56210902719E+01  0.53557638397E+01  0.11789258947E+02  0.14116213690E+02  0.51100000000E-03 0.  1.
        -12    1    3    3    0    0 -0.36973818662E+02 -0.68782574286E+00 -0.21401300036E+02  0.42726479073E+02  0.00000000000E+00 0.  1.
</event>
<event>
 7    1  0.2879200E-015  0.9000774E+02  0.7816164E-02  0.1186339E+00
        -11   -1    0    0    0    0  0.00000000000E+00  0.00000000000E+00  0.45593999997E+02  0.45594000000E+02  0.51100000000E-03 0.  1.
         11   -1    0    0    0    0 -0.00000000000E+00 -0.00000000000E+00 -0.45593999997E+02  0.45594000000E+02  0.51100000000E-03 0. -1.
    9900012    2    1    2    0    0 -0.60402763179E+00  0.75267358222E+00  0.67944819233E+00  0.90007738695E+02  0.90000000046E+02 0.  0.
        -12    1    1    2    0    0  0.60402763179E+00 -0.75267358222E+00 -0.67944819233E+00  0.11802613047E+01  0.00000000000E+00 0.  1.
         11    1    3    3    0    0  0.25555163774E+01  0.43707665121E+01  0.98670143309E+01  0.11090186469E+02  0.51100000000E-03 0. -1.
        -11    1    3    3    0    0  0.22698914163E+02 -0.55933665298E+01  0.26155494966E+02  0.35080427171E+02  0.51100000000E-03 0.  1.
         12    1    3    3    0    0 -0.25858458173E+02  0.19752736000E+01 -0.35343061104E+02  0.43837125055E+02  0.00000000000E+00 0. -1.
</event>
<event>
 7    1  0.2879200E-015  0.9000775E+02  0.7816164E-02  0.1186339E+00
        -11   -1    0    0    0    0  0.00000000000E+00  0.00000000000E+00  0.45593999997E+02  0.45594000000E+02  0.51100000000E-03 0. -1.
         11   -1    0    0    0    0 -0.00000000000E+00 -0.00000000000E+00 -0.45593999997E+02  0.45594000000E+02  0.51100000000E-03 0.  1.
    9900012    2    1    2    0    0 -0.54546032132E+00  0.95132728220E+00 -0.43638059085E+00  0.90007754864E+02  0.90000016429E+02 0.  0.
        -12    1    1    2    0    0  0.54546032132E+00 -0.95132728220E+00  0.43638059085E+00  0.11802451356E+01  0.00000000000E+00 0.  1.
         11    1    3    3    0    0  0.75139356845E+01  0.17371465975E+02  0.38239717711E+02  0.42667353685E+02  0.51100000000E-03 0. -1.
        -11    1    3    3    0    0  0.35262539357E+01  0.29495179338E+01 -0.84208260999E+01  0.95939791185E+01  0.51100000000E-03 0.  1.
        -12    1    3    3    0    0 -0.11585649942E+02 -0.19369656627E+02 -0.30255272202E+02  0.37746422061E+02  0.00000000000E+00 0.  1.
</event>
<event>
 7    1  0.2879200E-015  0.9000782E+02  0.7816164E-02  0.1186339E+00
        -11   -1    0    0    0    0  0.00000000000E+00  0.00000000000E+00  0.45593999997E+02  0.45594000000E+02  0.51100000000E-03 0.  1.
         11   -1    0    0    0    0 -0.00000000000E+00 -0.00000000000E+00 -0.45593999997E+02  0.45594000000E+02  0.51100000000E-03 0. -1.
    9900012    2    1    2    0    0 -0.16185762908E+00 -0.65807346274E+00 -0.96620829776E+00  0.90007823298E+02  0.90000085765E+02 0.  0.
        -12    1    1    2    0    0  0.16185762908E+00  0.65807346274E+00  0.96620829776E+00  0.11801767025E+01  0.00000000000E+00 0.  1.
         11    1    3    3    0    0 -0.73291806857E+01  0.29651073051E+01 -0.36204176397E+02  0.37057403305E+02  0.51100000000E-03 0. -1.
        -11    1    3    3    0    0 -0.10181570836E+02  0.55408150084E+00 -0.31045535252E+01  0.10658782475E+02  0.51100000000E-03 0.  1.
        -12    1    3    3    0    0  0.17348893893E+02 -0.41772622687E+01  0.38342521625E+02  0.42291637517E+02  0.00000000000E+00 0.  1.
</event>
<event>
 7    1  0.2879200E-015  0.9000770E+02  0.7816164E-02  0.1186339E+00
        -11   -1    0    0    0    0  0.00000000000E+00  0.00000000000E+00  0.45593999997E+02  0.45594000000E+02  0.51100000000E-03 0. -1.
         11   -1    0    0    0    0 -0.00000000000E+00 -0.00000000000E+00 -0.45593999997E+02  0.45594000000E+02  0.51100000000E-03 0.  1.
    9900012    2    1    2    0    0 -0.10728884555E+01 -0.31498018992E+00 -0.37789234493E+00  0.90007701401E+02  0.89999962260E+02 0.  0.
        -12    1    1    2    0    0  0.10728884555E+01  0.31498018992E+00  0.37789234493E+00  0.11802985988E+01  0.00000000000E+00 0.  1.
         11    1    3    3    0    0  0.27474787492E+01 -0.46329533272E+01 -0.77484628933E+01  0.94367141251E+01  0.51100000000E-03 0. -1.
        -11    1    3    3    0    0  0.31347231005E+01 -0.36156567369E+02  0.14139118354E+02  0.38949178693E+02  0.51100000000E-03 0.  1.
         12    1    3    3    0    0 -0.69550903052E+01  0.40474540506E+02 -0.67685478056E+01  0.41621808583E+02  0.00000000000E+00 0. -1.
</event>
<event>
 7    1  0.3098503E-015  0.9000771E+02  0.7816164E-02  0.1186339E+00
        -11   -1    0    0    0    0  0.00000000000E+00  0.00000000000E+00  0.45593999997E+02  0.45594000000E+02  0.51100000000E-03 0.  1.
         11   -1    0    0    0    0 -0.00000000000E+00 -0.00000000000E+00 -0.45593999997E+02  0.45594000000E+02  0.51100000000E-03 0. -1.
    9900012    2    1    2    0    0  0.10893027140E+01  0.41870032776E+00  0.17659309838E+00  0.90007713810E+02  0.89999974833E+02 0.  0.
        -12    1    1    2    0    0 -0.10893027140E+01 -0.41870032776E+00 -0.17659309838E+00  0.11802861897E+01  0.00000000000E+00 0.  1.
         11    1    3    3    0    0  0.40113604932E+02  0.26454371713E+01  0.29306551262E+01  0.40307423364E+02  0.51100000000E-03 0. -1.
        -11    1    3    3    0    0 -0.78255005679E+00  0.15389666707E+01  0.92753658286E+01  0.94346814743E+01  0.51100000000E-03 0.  1.
        -12    1    3    3    0    0 -0.38241752162E+02 -0.37657035143E+01 -0.12029427856E+02  0.40265608972E+02  0.00000000000E+00 0.  1.
</event>
<event>
 7    1  0.2879200E-015  0.9000766E+02  0.7816164E-02  0.1186339E+00
        -11   -1    0    0    0    0  0.00000000000E+00  0.00000000000E+00  0.45593999997E+02  0.45594000000E+02  0.51100000000E-03 0.  1.
         11   -1    0    0    0    0 -0.00000000000E+00 -0.00000000000E+00 -0.45593999997E+02  0.45594000000E+02  0.51100000000E-03 0. -1.
    9900012    2    1    2    0    0 -0.16392205298E+00  0.68983457396E+00 -0.94363838342E+00  0.90007662939E+02  0.89999923290E+02 0.  0.
        -12    1    1    2    0    0  0.16392205298E+00 -0.68983457396E+00  0.94363838342E+00  0.11803370610E+01  0.00000000000E+00 0.  1.
         11    1    3    3    0    0 -0.17455820455E+02 -0.26572196008E+02 -0.22799409248E+02  0.39122887556E+02  0.51100000000E-03 0. -1.
        -11    1    3    3    0    0 -0.30057633233E+01 -0.53969363441E+01  0.77859023311E+01  0.99389038846E+01  0.51100000000E-03 0.  1.
        -12    1    3    3    0    0  0.20297661726E+02  0.32658966926E+02  0.14069868533E+02  0.40945871498E+02  0.00000000000E+00 0.  1.
</event>
<event>
 7    1  0.2879200E-015  0.9000776E+02  0.7816164E-02  0.1186339E+00
        -11   -1    0    0    0    0  0.00000000000E+00  0.00000000000E+00  0.45593999997E+02  0.45594000000E+02  0.51100000000E-03 0.  1.
         11   -1    0    0    0    0 -0.00000000000E+00 -0.00000000000E+00 -0.45593999997E+02  0.45594000000E+02  0.51100000000E-03 0. -1.
    9900012    2    1    2    0    0 -0.83798383840E+00  0.68886514483E+00  0.46499268890E+00  0.90007758371E+02  0.90000019982E+02 0.  0.
        -12    1    1    2    0    0  0.83798383840E+00 -0.68886514483E+00 -0.46499268890E+00  0.11802416286E+01  0.00000000000E+00 0.  1.
         11    1    3    3    0    0  0.94509115808E+01  0.54471235868E+01 -0.82354521427E+01  0.13667975612E+02  0.51100000000E-03 0. -1.
        -11    1    3    3    0    0  0.29251314531E+02  0.11852164359E+02 -0.34895121666E+01  0.31753580856E+02  0.51100000000E-03 0.  1.
         12    1    3    3    0    0 -0.39540209950E+02 -0.16610422801E+02  0.12189956998E+02  0.44586201903E+02  0.00000000000E+00 0. -1.
</event>
<event>
 7    1  0.2879200E-015  0.9000787E+02  0.7816164E-02  0.1186339E+00
        -11   -1    0    0    0    0  0.00000000000E+00  0.00000000000E+00  0.45593999997E+02  0.45594000000E+02  0.51100000000E-03 0. -1.
         11   -1    0    0    0    0 -0.00000000000E+00 -0.00000000000E+00 -0.45593999997E+02  0.45594000000E+02  0.51100000000E-03 0.  1.
    9900012    2    1    2    0    0 -0.78630887370E+00 -0.63097738133E+00 -0.61342904236E+00  0.90007868952E+02  0.90000132022E+02 0.  0.
        -12    1    1    2    0    0  0.78630887370E+00  0.63097738133E+00  0.61342904236E+00  0.11801310481E+01  0.00000000000E+00 0.  1.
         11    1    3    3    0    0  0.23005303101E+01 -0.61404534896E+01 -0.65182273282E+01  0.92458042662E+01  0.51100000000E-03 0. -1.
        -11    1    3    3    0    0  0.17415442802E+02 -0.27139224806E+01 -0.32205121854E+02  0.36712843762E+02  0.51100000000E-03 0.  1.
         12    1    3    3    0    0 -0.20502281986E+02  0.82233985888E+01  0.38109920139E+02  0.44049220924E+02  0.00000000000E+00 0. -1.
</event>
<event>
 7    1  0.2879200E-015  0.9000771E+02  0.7816164E-02  0.1186339E+00
        -11   -1    0    0    0    0  0.00000000000E+00  0.00000000000E+00  0.45593999997E+02  0.45594000000E+02  0.51100000000E-03 0. -1.
         11   -1    0    0    0    0 -0.00000000000E+00 -0.00000000000E+00 -0.45593999997E+02  0.45594000000E+02  0.51100000000E-03 0.  1.
    9900012    2    1    2    0    0 -0.36622730597E+00  0.49245641005E+00  0.10081885655E+01  0.90007711925E+02  0.89999972923E+02 0.  0.
        -12    1    1    2    0    0  0.36622730597E+00 -0.49245641005E+00 -0.10081885655E+01  0.11802880746E+01  0.00000000000E+00 0.  1.
         11    1    3    3    0    0  0.40138681789E+01 -0.55615031265E+01 -0.92892250443E+01  0.11546911144E+02  0.51100000000E-03 0. -1.
        -11    1    3    3    0    0 -0.34397719317E+02 -0.17973301728E+02  0.63401841075E+00  0.38815520720E+02  0.51100000000E-03 0.  1.
         12    1    3    3    0    0  0.30017623832E+02  0.24027261264E+02  0.96633951991E+01  0.39645280061E+02  0.00000000000E+00 0. -1.
</event>
<event>
 7    1  0.2879200E-015  0.9000747E+02  0.7816164E-02  0.1186340E+00
        -11   -1    0    0    0    0  0.00000000000E+00  0.00000000000E+00  0.45593999997E+02  0.45594000000E+02  0.51100000000E-03 0.  1.
         11   -1    0    0    0    0 -0.00000000000E+00 -0.00000000000E+00 -0.45593999997E+02  0.45594000000E+02  0.51100000000E-03 0. -1.
    9900012    2    1    2    0    0 -0.52713876160E+00 -0.31498471207E+00 -0.10082470769E+01  0.90007469267E+02  0.89999727061E+02 0.  0.
        -12    1    1    2    0    0  0.52713876160E+00  0.31498471207E+00  0.10082470769E+01  0.11805307327E+01  0.00000000000E+00 0.  1.
         11    1    3    3    0    0 -0.32798420941E+02 -0.16249231656E+02  0.65467329878E+01  0.37183782200E+02  0.51100000000E-03 0. -1.
        -11    1    3    3    0    0 -0.14064478581E+01 -0.84806746982E+01  0.42425969699E+01  0.95864262488E+01  0.51100000000E-03 0.  1.
        -12    1    3    3    0    0  0.33677730037E+02  0.24414921642E+02 -0.11797577035E+02  0.43237260819E+02  0.00000000000E+00 0.  1.
</event>
<event>
 7    1  0.2879200E-015  0.9000767E+02  0.7816164E-02  0.1186339E+00
        -11   -1    0    0    0    0  0.00000000000E+00  0.00000000000E+00  0.45593999997E+02  0.45594000000E+02  0.51100000000E-03 0.  1.
         11   -1    0    0    0    0 -0.00000000000E+00 -0.00000000000E+00 -0.45593999997E+02  0.45594000000E+02  0.51100000000E-03 0. -1.
    9900012    2    1    2    0    0 -0.76467446590E+00  0.85677433667E+00  0.27275846245E+00  0.90007666792E+02  0.89999927194E+02 0.  0.
        -12    1    1    2    0    0  0.76467446590E+00 -0.85677433667E+00 -0.27275846245E+00  0.11803332079E+01  0.00000000000E+00 0.  1.
         11    1    3    3    0    0  0.54937888073E+01  0.12657003506E+02 -0.17885487985E+01  0.13913315934E+02  0.51100000000E-03 0. -1.
        -11    1    3    3    0    0  0.22269444781E+02 -0.39779565480E+01  0.28523043501E+02  0.36404894176E+02  0.51100000000E-03 0.  1.
         12    1    3    3    0    0 -0.28527908054E+02 -0.78222726218E+01 -0.26461736240E+02  0.39689456682E+02  0.00000000000E+00 0. -1.
</event>
<event>
 7    1  0.2879200E-015  0.9000780E+02  0.7816164E-02  0.1186339E+00
        -11   -1    0    0    0    0  0.00000000000E+00  0.00000000000E+00  0.45593999997E+02  0.45594000000E+02  0.51100000000E-03 0.  1.
         11   -1    0    0    0    0 -0.00000000000E+00 -0.00000000000E+00 -0.45593999997E+02  0.45594000000E+02  0.51100000000E-03 0. -1.
    9900012    2    1    2    0    0  0.11015379050E+01  0.10038155464E+00 -0.41160459157E+00  0.90007796394E+02  0.90000058506E+02 0.  0.
        -12    1    1    2    0    0 -0.11015379050E+01 -0.10038155464E+00  0.41160459157E+00  0.11802036063E+01  0.00000000000E+00 0.  1.
         11    1    3    3    0    0 -0.69527673237E+01  0.38685089289E+02  0.18699294500E+02  0.43526322173E+02  0.51100000000E-03 0. -1.
        -11    1    3    3    0    0  0.65034630388E+01 -0.45153044201E+01 -0.60386778367E+01  0.99573407986E+01  0.51100000000E-03 0.  1.
        -12    1    3    3    0    0  0.15508421898E+01 -0.34069403315E+02 -0.13072221255E+02  0.36524133423E+02  0.00000000000E+00 0.  1.
</event>
<event>
 7    1  0.2879200E-015  0.9000769E+02  0.7816164E-02  0.1186339E+00
        -11   -1    0    0    0    0  0.00000000000E+00  0.00000000000E+00  0.45593999997E+02  0.45594000000E+02  0.51100000000E-03 0. -1.
         11   -1    0    0    0    0 -0.00000000000E+00 -0.00000000000E+00 -0.45593999997E+02  0.45594000000E+02  0.51100000000E-03 0.  1.
    9900012    2    1    2    0    0  0.10268823651E+01  0.31727455813E+00  0.48783194791E+00  0.90007690487E+02  0.89999951201E+02 0.  0.
        -12    1    1    2    0    0 -0.10268823651E+01 -0.31727455813E+00 -0.48783194791E+00  0.11803095129E+01  0.00000000000E+00 0.  1.
         11    1    3    3    0    0 -0.15041528945E+01  0.38145075648E+01  0.98336744164E+01  0.10654299446E+02  0.51100000000E-03 0. -1.
        -11    1    3    3    0    0 -0.23988690521E+02 -0.31372936538E+02  0.10190387381E+01  0.39506415431E+02  0.51100000000E-03 0.  1.
         12    1    3    3    0    0  0.26519725781E+02  0.27875703532E+02 -0.10364881207E+02  0.39846975611E+02  0.00000000000E+00 0. -1.
</event>
<event>
 7    1  0.2879200E-015  0.9000781E+02  0.7816164E-02  0.1186339E+00
        -11   -1    0    0    0    0  0.00000000000E+00  0.00000000000E+00  0.45593999997E+02  0.45594000000E+02  0.51100000000E-03 0.  1.
         11   -1    0    0    0    0 -0.00000000000E+00 -0.00000000000E+00 -0.45593999997E+02  0.45594000000E+02  0.51100000000E-03 0. -1.
    9900012    2    1    2    0    0 -0.48996974817E+00 -0.10725720455E+01 -0.48591673094E-01  0.90007812601E+02  0.90000074927E+02 0.  0.
        -12    1    1    2    0    0  0.48996974817E+00  0.10725720455E+01  0.48591673094E-01  0.11801873993E+01  0.00000000000E+00 0.  1.
         11    1    3    3    0    0  0.17994656519E+02  0.94358431194E+01 -0.31437947787E+02  0.37432437269E+02  0.51100000000E-03 0. -1.
        -11    1    3    3    0    0 -0.28522918115E+01  0.87448187174E+01 -0.34384301249E+01  0.98198892541E+01  0.51100000000E-03 0.  1.
        -12    1    3    3    0    0 -0.15632334455E+02 -0.19253233882E+02  0.34827786238E+02  0.42755486078E+02  0.00000000000E+00 0.  1.
</event>
<event>
 7    1  0.2879200E-015  0.9000774E+02  0.7816164E-02  0.1186339E+00
        -11   -1    0    0    0    0  0.00000000000E+00  0.00000000000E+00  0.45593999997E+02  0.45594000000E+02  0.51100000000E-03 0. -1.
         11   -1    0    0    0    0 -0.00000000000E+00 -0.00000000000E+00 -0.45593999997E+02  0.45594000000E+02  0.51100000000E-03 0.  1.
    9900012    2    1    2    0    0  0.30909385548E+00  0.53773499520E+00  0.10041510565E+01  0.90007738469E+02  0.89999999817E+02 0.  0.
        -12    1    1    2    0    0 -0.30909385548E+00 -0.53773499520E+00 -0.10041510565E+01  0.11802615307E+01  0.00000000000E+00 0.  1.
         11    1    3    3    0    0 -0.28857895214E+01  0.56891422363E+01  0.70080565460E+01  0.94766543337E+01  0.51100000000E-03 0. -1.
        -11    1    3    3    0    0  0.10160915121E+02  0.27606338370E+02  0.22114234935E+02  0.36802085557E+02  0.51100000000E-03 0.  1.
         12    1    3    3    0    0 -0.69660317439E+01 -0.32757745611E+02 -0.28118140425E+02  0.43728998579E+02  0.00000000000E+00 0. -1.
</event>
<event>
 7    1  0.2879200E-015  0.9000769E+02  0.7816164E-02  0.1186339E+00
        -11   -1    0    0    0    0  0.00000000000E+00  0.00000000000E+00  0.45593999997E+02  0.45594000000E+02  0.51100000000E-03 0. -1.
         11   -1    0    0    0    0 -0.00000000000E+00 -0.00000000000E+00 -0.45593999997E+02  0.45594000000E+02  0.51100000000E-03 0.  1.
    9900012    2    1    2    0    0  0.25134998651E+00 -0.91875189687E+00  0.69702698198E+00  0.90007691364E+02  0.89999952090E+02 0.  0.
        -12    1    1    2    0    0 -0.25134998651E+00  0.91875189687E+00 -0.69702698198E+00  0.11803086365E+01  0.00000000000E+00 0.  1.
         11    1    3    3    0    0  0.95955458001E+01  0.14793713337E+01 -0.34581399801E+01  0.10306394672E+02  0.51100000000E-03 0. -1.
        -11    1    3    3    0    0 -0.78149022879E+01  0.35055114947E+02 -0.13368541294E+02  0.38322991510E+02  0.51100000000E-03 0.  1.
         12    1    3    3    0    0 -0.15292935258E+01 -0.37453238177E+02  0.17523708256E+02  0.41378305182E+02  0.00000000000E+00 0. -1.
</event>
<event>
 7    1  0.2879200E-015  0.9000749E+02  0.7816164E-02  0.1186340E+00
        -11   -1    0    0    0    0  0.00000000000E+00  0.00000000000E+00  0.45593999997E+02  0.45594000000E+02  0.51100000000E-03 0.  1.
         11   -1    0    0    0    0 -0.00000000000E+00 -0.00000000000E+00 -0.45593999997E+02  0.45594000000E+02  0.51100000000E-03 0. -1.
    9900012    2    1    2    0    0  0.30231506477E+00  0.11410991377E+01  0.96934987917E-02  0.90007493497E+02  0.89999751611E+02 0.  0.
        -12    1    1    2    0    0 -0.30231506477E+00 -0.11410991377E+01 -0.96934987917E-02  0.11805065033E+01  0.00000000000E+00 0.  1.
         11    1    3    3    0    0 -0.34874421956E+01 -0.77569573489E+01  0.36709129945E+01  0.92632738735E+01  0.51100000000E-03 0. -1.
        -11    1    3    3    0    0  0.10582767744E+02 -0.32894929484E+02  0.10470369564E+02  0.36106786037E+02  0.51100000000E-03 0.  1.
         12    1    3    3    0    0 -0.67930104837E+01  0.41792985971E+02 -0.14131589060E+02  0.44637433586E+02  0.00000000000E+00 0. -1.
</event>
<event>
 7    1  0.2879200E-015  0.9000772E+02  0.7816164E-02  0.1186339E+00
        -11   -1    0    0    0    0  0.00000000000E+00  0.00000000000E+00  0.45593999997E+02  0.45594000000E+02  0.51100000000E-03 0.  1.
         11   -1    0    0    0    0 -0.00000000000E+00 -0.00000000000E+00 -0.45593999997E+02  0.45594000000E+02  0.51100000000E-03 0. -1.
    9900012    2    1    2    0    0 -0.33893639210E+00 -0.94527160188E+00 -0.62020016823E+00  0.90007718454E+02  0.89999979538E+02 0.  0.
        -12    1    1    2    0    0  0.33893639210E+00  0.94527160188E+00  0.62020016823E+00  0.11802815460E+01  0.00000000000E+00 0.  1.
         11    1    3    3    0    0 -0.21055602277E+01 -0.70956712905E+01 -0.34346685171E+00  0.74094469884E+01  0.51100000000E-03 0. -1.
        -11    1    3    3    0    0 -0.87434353058E+01 -0.35233643745E+02 -0.12147952151E+02  0.38280935911E+02  0.51100000000E-03 0.  1.
         12    1    3    3    0    0  0.10510059141E+02  0.41384043433E+02  0.11871218834E+02  0.44317335555E+02  0.00000000000E+00 0. -1.
</event>
<event>
 7    1  0.2879200E-015  0.9000773E+02  0.7816164E-02  0.1186339E+00
        -11   -1    0    0    0    0  0.00000000000E+00  0.00000000000E+00  0.45593999997E+02  0.45594000000E+02  0.51100000000E-03 0. -1.
         11   -1    0    0    0    0 -0.00000000000E+00 -0.00000000000E+00 -0.45593999997E+02  0.45594000000E+02  0.51100000000E-03 0.  1.
    9900012    2    1    2    0    0 -0.78749694553E+00 -0.24075496985E+00 -0.84553203898E+00  0.90007729343E+02  0.89999990570E+02 0.  0.
        -12    1    1    2    0    0  0.78749694553E+00  0.24075496985E+00  0.84553203898E+00  0.11802706570E+01  0.00000000000E+00 0.  1.
         11    1    3    3    0    0 -0.16021495080E+02  0.20992928377E+01  0.22284206476E+02  0.27526009401E+02  0.51100000000E-03 0. -1.
        -11    1    3    3    0    0 -0.17634005348E+02 -0.12452933581E+02 -0.10466660679E+01  0.21613172130E+02  0.51100000000E-03 0.  1.
        -12    1    3    3    0    0  0.32868003483E+02  0.10112885774E+02 -0.22083072447E+02  0.40868547812E+02  0.00000000000E+00 0.  1.
</event>
<event>
 7    1  0.2879200E-015  0.9000765E+02  0.7816164E-02  0.1186339E+00
        -11   -1    0    0    0    0  0.00000000000E+00  0.00000000000E+00  0.45593999997E+02  0.45594000000E+02  0.51100000000E-03 0.  1.
         11   -1    0    0    0    0 -0.00000000000E+00 -0.00000000000E+00 -0.45593999997E+02  0.45594000000E+02  0.51100000000E-03 0. -1.
    9900012    2    1    2    0    0 -0.26048024916E+00  0.97497324809E+00  0.61221085448E+00  0.90007650507E+02  0.89999910694E+02 0.  0.
        -12    1    1    2    0    0  0.26048024916E+00 -0.97497324809E+00 -0.61221085448E+00  0.11803494927E+01  0.00000000000E+00 0.  1.
         11    1    3    3    0    0 -0.40916403684E+01  0.19697658178E+02 -0.32541474015E+02  0.38258159782E+02  0.51100000000E-03 0. -1.
        -11    1    3    3    0    0  0.34473921496E+01 -0.58364216350E+01 -0.68997698320E+01  0.96723913346E+01  0.51100000000E-03 0.  1.
        -12    1    3    3    0    0  0.38376796956E+00 -0.12886263294E+02  0.40053454702E+02  0.42077099390E+02  0.00000000000E+00 0.  1.
</event>
<event>
 7    1  0.2879200E-015  0.9000772E+02  0.7816164E-02  0.1186339E+00
        -11   -1    0    0    0    0  0.00000000000E+00  0.00000000000E+00  0.45593999997E+02  0.45594000000E+02  0.51100000000E-03 0.  1.
         11   -1    0    0    0    0 -0.00000000000E+00 -0.00000000000E+00 -0.45593999997E+02  0.45594000000E+02  0.51100000000E-03 0. -1.
    9900012    2    1    2    0    0 -0.61638877549E+00  0.94392182194E+00  0.34949044447E+00  0.90007717365E+02  0.89999978434E+02 0.  0.
        -12    1    1    2    0    0  0.61638877549E+00 -0.94392182194E+00 -0.34949044447E+00  0.11802826353E+01  0.00000000000E+00 0.  1.
         11    1    3    3    0    0  0.46674983146E+01 -0.25045900458E+02 -0.24500319978E+02  0.35346122129E+02  0.51100000000E-03 0. -1.
        -11    1    3    3    0    0  0.69773915426E+01 -0.27025933558E+01 -0.68767138680E+01  0.10162538928E+02  0.51100000000E-03 0.  1.
        -12    1    3    3    0    0 -0.12261278633E+02  0.28692415636E+02  0.31726524290E+02  0.44499056308E+02  0.00000000000E+00 0.  1.
</event>
<event>
 7    1  0.2879200E-015  0.9000759E+02  0.7816164E-02  0.1186339E+00
        -11   -1    0    0    0    0  0.00000000000E+00  0.00000000000E+00  0.45593999997E+02  0.45594000000E+02  0.51100000000E-03 0.  1.
         11   -1    0    0    0    0 -0.00000000000E+00 -0.00000000000E+00 -0.45593999997E+02  0.45594000000E+02  0.51100000000E-03 0. -1.
    9900012    2    1    2    0    0  0.31323889431E+00  0.64181819206E+00 -0.93985519592E+00  0.90007586096E+02  0.89999845432E+02 0.  0.
        -12    1    1    2    0    0 -0.31323889431E+00 -0.64181819206E+00  0.93985519592E+00  0.11804139045E+01  0.00000000000E+00 0.  1.
         11    1    3    3    0    0 -0.58805556861E+01 -0.26690958120E+01 -0.60934671972E+01  0.88789273212E+01  0.51100000000E-03 0. -1.
        -11    1    3    3    0    0 -0.32288469514E+02  0.20612798897E+02  0.67892899778E+01  0.38904076915E+02  0.51100000000E-03 0.  1.
         12    1    3    3    0    0  0.38482264095E+02 -0.17301884893E+02 -0.16356779766E+01  0.42224581859E+02  0.00000000000E+00 0. -1.
</event>
<event>
 7    1  0.2879200E-015  0.9000776E+02  0.7816164E-02  0.1186339E+00
        -11   -1    0    0    0    0  0.00000000000E+00  0.00000000000E+00  0.45593999997E+02  0.45594000000E+02  0.51100000000E-03 0. -1.
         11   -1    0    0    0    0 -0.00000000000E+00 -0.00000000000E+00 -0.45593999997E+02  0.45594000000E+02  0.51100000000E-03 0.  1.
    9900012    2    1    2    0    0 -0.90114466669E+00 -0.29546576039E+00 -0.70257014495E+00  0.90007759967E+02  0.90000021599E+02 0.  0.
        -12    1    1    2    0    0  0.90114466669E+00  0.29546576039E+00  0.70257014495E+00  0.11802400326E+01  0.00000000000E+00 0.  1.
         11    1    3    3    0    0  0.34399772565E+01  0.11294688343E+02  0.37586150889E+02  0.39396981701E+02  0.51100000000E-03 0. -1.
        -11    1    3    3    0    0  0.31396297750E+01  0.88433669607E+01 -0.44651107510E+01  0.10392286977E+02  0.51100000000E-03 0.  1.
        -12    1    3    3    0    0 -0.74807516982E+01 -0.20433521064E+02 -0.33823610283E+02  0.40218491289E+02  0.00000000000E+00 0.  1.
</event>
<event>
 7    1  0.2879200E-015  0.9000784E+02  0.7816164E-02  0.1186339E+00
        -11   -1    0    0    0    0  0.00000000000E+00  0.00000000000E+00  0.45593999997E+02  0.45594000000E+02  0.51100000000E-03 0.  1.
         11   -1    0    0    0    0 -0.00000000000E+00 -0.00000000000E+00 -0.45593999997E+02  0.45594000000E+02  0.51100000000E-03 0. -1.
    9900012    2    1    2    0    0 -0.74754256827E+00  0.76603462834E+00 -0.49712956079E+00  0.90007844610E+02  0.90000107359E+02 0.  0.
        -12    1    1    2    0    0  0.74754256827E+00 -0.76603462834E+00  0.49712956079E+00  0.11801553895E+01  0.00000000000E+00 0.  1.
         11    1    3    3    0    0 -0.57758311373E+01 -0.16049995773E+01  0.18188713521E+02  0.19151123956E+02  0.51100000000E-03 0. -1.
        -11    1    3    3    0    0  0.25804372118E+02 -0.16222084772E+02  0.87802649739E+01  0.31719311279E+02  0.51100000000E-03 0.  1.
         12    1    3    3    0    0 -0.20776083549E+02  0.18593118978E+02 -0.27466108055E+02  0.39137409376E+02  0.00000000000E+00 0. -1.
</event>
<event>
 7    1  0.2879200E-015  0.9000778E+02  0.7816164E-02  0.1186339E+00
        -11   -1    0    0    0    0  0.00000000000E+00  0.00000000000E+00  0.45593999997E+02  0.45594000000E+02  0.51100000000E-03 0. -1.
         11   -1    0    0    0    0 -0.00000000000E+00 -0.00000000000E+00 -0.45593999997E+02  0.45594000000E+02  0.51100000000E-03 0.  1.
    9900012    2    1    2    0    0  0.29082368502E+00  0.11312456153E+01 -0.16915849666E+00  0.90007784064E+02  0.90000046014E+02 0.  0.
        -12    1    1    2    0    0 -0.29082368502E+00 -0.11312456153E+01  0.16915849666E+00  0.11802159357E+01  0.00000000000E+00 0.  1.
         11    1    3    3    0    0 -0.77502224251E+01  0.26330225826E+01  0.51144900003E+01  0.96517751623E+01  0.51100000000E-03 0. -1.
        -11    1    3    3    0    0 -0.12991728354E+02  0.25146186086E+02  0.22762187068E+02  0.36321245032E+02  0.51100000000E-03 0.  1.
         12    1    3    3    0    0  0.21032774465E+02 -0.26647963053E+02 -0.28045835565E+02  0.44034763870E+02  0.00000000000E+00 0. -1.
</event>
<event>
 7    1  0.2879200E-015  0.9000784E+02  0.7816164E-02  0.1186339E+00
        -11   -1    0    0    0    0  0.00000000000E+00  0.00000000000E+00  0.45593999997E+02  0.45594000000E+02  0.51100000000E-03 0.  1.
         11   -1    0    0    0    0 -0.00000000000E+00 -0.00000000000E+00 -0.45593999997E+02  0.45594000000E+02  0.51100000000E-03 0. -1.
    9900012    2    1    2    0    0 -0.94860933473E+00  0.60915333583E+00  0.34906387765E+00  0.90007841940E+02  0.90000104653E+02 0.  0.
        -12    1    1    2    0    0  0.94860933473E+00 -0.60915333583E+00 -0.34906387765E+00  0.11801580602E+01  0.00000000000E+00 0.  1.
         11    1    3    3    0    0 -0.35509492307E+00  0.48898057755E+01 -0.92471018418E+01  0.10466383600E+02  0.51100000000E-03 0. -1.
        -11    1    3    3    0    0 -0.26636878266E+02  0.27380548132E+01 -0.24343790381E+02  0.36188953540E+02  0.51100000000E-03 0.  1.
         12    1    3    3    0    0  0.26043363854E+02 -0.70187072529E+01  0.33939956100E+02  0.43352504800E+02  0.00000000000E+00 0. -1.
</event>
<event>
 7    1  0.2879200E-015  0.9000753E+02  0.7816164E-02  0.1186339E+00
        -11   -1    0    0    0    0  0.00000000000E+00  0.00000000000E+00  0.45593999997E+02  0.45594000000E+02  0.51100000000E-03 0.  1.
         11   -1    0    0    0    0 -0.00000000000E+00 -0.00000000000E+00 -0.45593999997E+02  0.45594000000E+02  0.51100000000E-03 0. -1.
    9900012    2    1    2    0    0 -0.11413535178E+01  0.29756972291E+00  0.47748198509E-01  0.90007527432E+02  0.89999785994E+02 0.  0.
        -12    1    1    2    0    0  0.11413535178E+01 -0.29756972291E+00 -0.47748198509E-01  0.11804725676E+01  0.00000000000E+00 0.  1.
         11    1    3    3    0    0 -0.29749605334E+02  0.21675416372E+02 -0.10130757940E+02  0.38177152187E+02  0.51100000000E-03 0. -1.
        -11    1    3    3    0    0  0.54926998307E+01 -0.16483279361E+01 -0.12604777767E+02  0.13848001994E+02  0.51100000000E-03 0.  1.
        -12    1    3    3    0    0  0.23115551986E+02 -0.19729518713E+02  0.22783283906E+02  0.37982373251E+02  0.00000000000E+00 0.  1.
</event>
<event>
 7    1  0.2879200E-015  0.9000778E+02  0.7816164E-02  0.1186339E+00
        -11   -1    0    0    0    0  0.00000000000E+00  0.00000000000E+00  0.45593999997E+02  0.45594000000E+02  0.51100000000E-03 0. -1.
         11   -1    0    0    0    0 -0.00000000000E+00 -0.00000000000E+00 -0.45593999997E+02  0.45594000000E+02  0.51100000000E-03 0.  1.
    9900012    2    1    2    0    0 -0.65206080426E-01  0.41734414597E+00  0.11020413182E+01  0.90007778395E+02  0.90000040270E+02 0.  0.
        -12    1    1    2    0    0  0.65206080426E-01 -0.41734414597E+00 -0.11020413182E+01  0.11802216046E+01  0.00000000000E+00 0.  1.
         11    1    3    3    0    0 -0.61352559307E+01  0.94635669590E+01 -0.54463704118E+01  0.12524512599E+02  0.51100000000E-03 0. -1.
        -11    1    3    3    0    0 -0.23682384805E+02  0.19994776839E+02 -0.10244795473E+02  0.32643564227E+02  0.51100000000E-03 0.  1.
         12    1    3    3    0    0  0.29752434655E+02 -0.29040999652E+02  0.16793207203E+02  0.44839701570E+02  0.00000000000E+00 0. -1.
</event>
<event>
 7    1  0.2879200E-015  0.9000756E+02  0.7816164E-02  0.1186339E+00
        -11   -1    0    0    0    0  0.00000000000E+00  0.00000000000E+00  0.45593999997E+02  0.45594000000E+02  0.51100000000E-03 0.  1.
         11   -1    0    0    0    0 -0.00000000000E+00 -0.00000000000E+00 -0.45593999997E+02  0.45594000000E+02  0.51100000000E-03 0. -1.
    9900012    2    1    2    0    0 -0.11593164706E+01 -0.73927375524E-01 -0.20965848674E+00  0.90007560837E+02  0.89999819840E+02 0.  0.
        -12    1    1    2    0    0  0.11593164706E+01  0.73927375524E-01  0.20965848674E+00  0.11804391628E+01  0.00000000000E+00 0.  1.
         11    1    3    3    0    0  0.68790615400E+01 -0.38336074839E+01 -0.29801189525E+01  0.84201628989E+01  0.51100000000E-03 0. -1.
        -11    1    3    3    0    0 -0.20947490032E+02 -0.26726955123E+02  0.24599407494E+02  0.41931590932E+02  0.51100000000E-03 0.  1.
         12    1    3    3    0    0  0.12909112021E+02  0.30486635232E+02 -0.21828947029E+02  0.39655807006E+02  0.00000000000E+00 0. -1.
</event>
<event>
 7    1  0.2879200E-015  0.9000774E+02  0.7816164E-02  0.1186339E+00
        -11   -1    0    0    0    0  0.00000000000E+00  0.00000000000E+00  0.45593999997E+02  0.45594000000E+02  0.51100000000E-03 0.  1.
         11   -1    0    0    0    0 -0.00000000000E+00 -0.00000000000E+00 -0.45593999997E+02  0.45594000000E+02  0.51100000000E-03 0. -1.
    9900012    2    1    2    0    0 -0.64617938383E+00  0.56046801072E+00  0.81323018196E+00  0.90007739217E+02  0.90000000575E+02 0.  0.
        -12    1    1    2    0    0  0.64617938383E+00 -0.56046801072E+00 -0.81323018196E+00  0.11802607830E+01  0.00000000000E+00 0.  1.
         11    1    3    3    0    0  0.18023949196E+02  0.27083683004E+02 -0.18680462047E+02  0.37514641038E+02  0.51100000000E-03 0. -1.
        -11    1    3    3    0    0  0.81480780340E+01  0.31461438257E+01  0.39317190263E+01  0.95785077847E+01  0.51100000000E-03 0.  1.
        -12    1    3    3    0    0 -0.26818206614E+02 -0.29669358819E+02  0.15561973202E+02  0.42914590394E+02  0.00000000000E+00 0.  1.
</event>
<event>
 7    1  0.2879200E-015  0.9000772E+02  0.7816164E-02  0.1186339E+00
        -11   -1    0    0    0    0  0.00000000000E+00  0.00000000000E+00  0.45593999997E+02  0.45594000000E+02  0.51100000000E-03 0.  1.
         11   -1    0    0    0    0 -0.00000000000E+00 -0.00000000000E+00 -0.45593999997E+02  0.45594000000E+02  0.51100000000E-03 0. -1.
    9900012    2    1    2    0    0 -0.63248512959E+00  0.85508258349E+00 -0.51170908057E+00  0.90007724673E+02  0.89999985839E+02 0.  0.
        -12    1    1    2    0    0  0.63248512959E+00 -0.85508258349E+00  0.51170908057E+00  0.11802753267E+01  0.00000000000E+00 0.  1.
         11    1    3    3    0    0 -0.85103559467E+01  0.96823065172E+00 -0.24761805571E+01  0.89160024308E+01  0.51100000000E-03 0. -1.
        -11    1    3    3    0    0  0.75878777186E+01  0.15466291983E+02  0.38059519253E+02  0.41776896510E+02  0.51100000000E-03 0.  1.
         12    1    3    3    0    0  0.28999309849E+00 -0.15579440052E+02 -0.36095047777E+02  0.39314825732E+02  0.00000000000E+00 0. -1.
</event>
<event>
 7    1  0.2879200E-015  0.9000765E+02  0.7816164E-02  0.1186339E+00
        -11   -1    0    0    0    0  0.00000000000E+00  0.00000000000E+00  0.45593999997E+02  0.45594000000E+02  0.51100000000E-03 0. -1.
         11   -1    0    0    0    0 -0.00000000000E+00 -0.00000000000E+00 -0.45593999997E+02  0.45594000000E+02  0.51100000000E-03 0.  1.
    9900012    2    1    2    0    0 -0.11685331980E+00  0.18022935819E+00  0.11606394732E+01  0.90007652040E+02  0.89999912247E+02 0.  0.
        -12    1    1    2    0    0  0.11685331980E+00 -0.18022935819E+00 -0.11606394732E+01  0.11803479600E+01  0.00000000000E+00 0.  1.
         11    1    3    3    0    0 -0.48908330954E+01 -0.39751700079E+02  0.71233649344E+01  0.40679973399E+02  0.51100000000E-03 0. -1.
        -11    1    3    3    0    0 -0.21735389328E+01  0.27653113801E+01  0.82230888737E+01  0.89437357635E+01  0.51100000000E-03 0.  1.
        -12    1    3    3    0    0  0.69475187084E+01  0.37166618057E+02 -0.14185814335E+02  0.40383942877E+02  0.00000000000E+00 0.  1.
</event>
<event>
 7    1  0.2879200E-015  0.9000758E+02  0.7816164E-02  0.1186339E+00
        -11   -1    0    0    0    0  0.00000000000E+00  0.00000000000E+00  0.45593999997E+02  0.45594000000E+02  0.51100000000E-03 0. -1.
         11   -1    0    0    0    0 -0.00000000000E+00 -0.00000000000E+00 -0.45593999997E+02  0.45594000000E+02  0.51100000000E-03 0.  1.
    9900012    2    1    2    0    0 -0.89151084475E+00 -0.41627892626E+00  0.65215852864E+00  0.90007580381E+02  0.89999839642E+02 0.  0.
        -12    1    1    2    0    0  0.89151084475E+00  0.41627892626E+00 -0.65215852864E+00  0.11804196191E+01  0.00000000000E+00 0.  1.
         11    1    3    3    0    0  0.98185906643E+01  0.71463894414E+01  0.42396127175E+01  0.12862733805E+02  0.51100000000E-03 0. -1.
        -11    1    3    3    0    0  0.26656893803E+02 -0.30919464598E+01 -0.22505860592E+02  0.35023761668E+02  0.51100000000E-03 0.  1.
         12    1    3    3    0    0 -0.37366995312E+02 -0.44707219078E+01  0.18918406403E+02  0.42121084908E+02  0.00000000000E+00 0. -1.
</event>
<event>
 7    1  0.2879200E-015  0.9000775E+02  0.7816164E-02  0.1186339E+00
        -11   -1    0    0    0    0  0.00000000000E+00  0.00000000000E+00  0.45593999997E+02  0.45594000000E+02  0.51100000000E-03 0.  1.
         11   -1    0    0    0    0 -0.00000000000E+00 -0.00000000000E+00 -0.45593999997E+02  0.45594000000E+02  0.51100000000E-03 0. -1.
    9900012    2    1    2    0    0 -0.84197090654E+00  0.82640948599E+00 -0.33426093366E-01  0.90007752166E+02  0.90000013695E+02 0.  0.
        -12    1    1    2    0    0  0.84197090654E+00 -0.82640948599E+00  0.33426093366E-01  0.11802478340E+01  0.00000000000E+00 0.  1.
         11    1    3    3    0    0  0.13837936714E+02  0.21895449187E+02 -0.33345364185E+02  0.42223364391E+02  0.51100000000E-03 0. -1.
        -11    1    3    3    0    0  0.38898524190E+01 -0.83876499207E+01  0.23882289130E+01  0.95492020942E+01  0.51100000000E-03 0.  1.
        -12    1    3    3    0    0 -0.18569760040E+02 -0.12681389781E+02  0.30923709178E+02  0.38235185681E+02  0.00000000000E+00 0.  1.
</event>
<event>
 7    1  0.2879200E-015  0.9000776E+02  0.7816164E-02  0.1186339E+00
        -11   -1    0    0    0    0  0.00000000000E+00  0.00000000000E+00  0.45593999997E+02  0.45594000000E+02  0.51100000000E-03 0.  1.
         11   -1    0    0    0    0 -0.00000000000E+00 -0.00000000000E+00 -0.45593999997E+02  0.45594000000E+02  0.51100000000E-03 0. -1.
    9900012    2    1    2    0    0  0.63750954105E-01 -0.56606356302E+00 -0.10336750703E+01  0.90007755834E+02  0.90000017411E+02 0.  0.
        -12    1    1    2    0    0 -0.63750954105E-01  0.56606356302E+00  0.10336750703E+01  0.11802441665E+01  0.00000000000E+00 0.  1.
         11    1    3    3    0    0 -0.15504997223E+02  0.79702480877E+01 -0.36162463981E+02  0.40145405651E+02  0.51100000000E-03 0. -1.
        -11    1    3    3    0    0 -0.93704875553E+00 -0.75670240242E+01 -0.30847359235E+01  0.82251753131E+01  0.51100000000E-03 0.  1.
        -12    1    3    3    0    0  0.16505796932E+02 -0.96928762655E+00  0.38213524834E+02  0.41637174869E+02  0.00000000000E+00 0.  1.
</event>
<event>
 7    1  0.2879200E-015  0.9000779E+02  0.7816164E-02  0.1186339E+00
        -11   -1    0    0    0    0  0.00000000000E+00  0.00000000000E+00  0.45593999997E+02  0.45594000000E+02  0.51100000000E-03 0. -1.
         11   -1    0    0    0    0 -0.00000000000E+00 -0.00000000000E+00 -0.45593999997E+02  0.45594000000E+02  0.51100000000E-03 0.  1.
    9900012    2    1    2    0    0 -0.36563461606E+00 -0.62980873810E-01  0.11203783800E+01  0.90007786893E+02  0.90000048880E+02 0.  0.
        -12    1    1    2    0    0  0.36563461606E+00  0.62980873810E-01 -0.11203783800E+01  0.11802131068E+01  0.00000000000E+00 0.  1.
         11    1    3    3    0    0  0.22956174824E+02 -0.34440499994E+02  0.17611403225E+01  0.41427474191E+02  0.51100000000E-03 0. -1.
        -11    1    3    3    0    0 -0.16607329946E+02  0.10946159671E+02 -0.10255017860E+02  0.22378275426E+02  0.51100000000E-03 0.  1.
        -12    1    3    3    0    0 -0.67144794935E+01  0.23431359450E+02  0.96142559177E+01  0.26202037275E+02  0.00000000000E+00 0.  1.
</event>
<event>
 7    1  0.2879200E-015  0.9000755E+02  0.7816164E-02  0.1186339E+00
        -11   -1    0    0    0    0  0.00000000000E+00  0.00000000000E+00  0.45593999997E+02  0.45594000000E+02  0.51100000000E-03 0.  1.
         11   -1    0    0    0    0 -0.00000000000E+00 -0.00000000000E+00 -0.45593999997E+02  0.45594000000E+02  0.51100000000E-03 0. -1.
    9900012    2    1    2    0    0 -0.77802588638E+00  0.87984519972E+00  0.11835879840E+00  0.90007550653E+02  0.89999809522E+02 0.  0.
        -12    1    1    2    0    0  0.77802588638E+00 -0.87984519972E+00 -0.11835879840E+00  0.11804493469E+01  0.00000000000E+00 0.  1.
         11    1    3    3    0    0  0.46955176885E+01 -0.99942091443E+01 -0.56578352529E+01  0.12407385010E+02  0.51100000000E-03 0. -1.
        -11    1    3    3    0    0  0.11036405464E+02 -0.74290396940E+01  0.36128255696E+02  0.38499918652E+02  0.51100000000E-03 0.  1.
         12    1    3    3    0    0 -0.16509949039E+02  0.18303094038E+02 -0.30352061645E+02  0.39100246991E+02  0.00000000000E+00 0. -1.
</event>
<event>
 7    1  0.2879200E-015  0.9000770E+02  0.7816164E-02  0.1186339E+00
        -11   -1    0    0    0    0  0.00000000000E+00  0.00000000000E+00  0.45593999997E+02  0.45594000000E+02  0.51100000000E-03 0.  1.
         11   -1    0    0    0    0 -0.00000000000E+00 -0.00000000000E+00 -0.45593999997E+02  0.45594000000E+02  0.51100000000E-03 0. -1.
    9900012    2    1    2    0    0 -0.92805446657E+00  0.35330602461E+00 -0.63796008127E+00  0.90007702027E+02  0.89999962894E+02 0.  0.
        -12    1    1    2    0    0  0.92805446657E+00 -0.35330602461E+00  0.63796008127E+00  0.11802979731E+01  0.00000000000E+00 0.  1.
         11    1    3    3    0    0  0.25269882473E+00  0.17066501483E+02  0.61062869193E+01  0.18127770678E+02  0.51100000000E-03 0. -1.
        -11    1    3    3    0    0 -0.18859572719E+01  0.18672505131E+02  0.20069231063E+02  0.27477141744E+02  0.51100000000E-03 0.  1.
         12    1    3    3    0    0  0.70520398056E+00 -0.35385700589E+02 -0.26813478063E+02  0.44402789605E+02  0.00000000000E+00 0. -1.
</event>
<event>
 7    1  0.2879200E-015  0.9000770E+02  0.7816164E-02  0.1186339E+00
        -11   -1    0    0    0    0  0.00000000000E+00  0.00000000000E+00  0.45593999997E+02  0.45594000000E+02  0.51100000000E-03 0.  1.
         11   -1    0    0    0    0 -0.00000000000E+00 -0.00000000000E+00 -0.45593999997E+02  0.45594000000E+02  0.51100000000E-03 0. -1.
    9900012    2    1    2    0    0  0.20647039590E+00  0.20377019060E+00 -0.11440972765E+01  0.90007698813E+02  0.89999959637E+02 0.  0.
        -12    1    1    2    0    0 -0.20647039590E+00 -0.20377019060E+00  0.11440972765E+01  0.11803011874E+01  0.00000000000E+00 0.  1.
         11    1    3    3    0    0  0.20171114005E+02 -0.29051158740E+02 -0.12579355842E+02  0.37537765757E+02  0.51100000000E-03 0. -1.
        -11    1    3    3    0    0 -0.40227791917E+01 -0.86674061800E+01 -0.69818250261E+00  0.95809259147E+01  0.51100000000E-03 0.  1.
        -12    1    3    3    0    0 -0.15941864417E+02  0.37922335111E+02  0.12133441068E+02  0.42889007141E+02  0.00000000000E+00 0.  1.
</event>
<event>
 7    1  0.2879200E-015  0.9000775E+02  0.7816164E-02  0.1186339E+00
        -11   -1    0    0    0    0  0.00000000000E+00  0.00000000000E+00  0.45593999997E+02  0.45594000000E+02  0.51100000000E-03 0.  1.
         11   -1    0    0    0    0 -0.00000000000E+00 -0.00000000000E+00 -0.45593999997E+02  0.45594000000E+02  0.51100000000E-03 0. -1.
    9900012    2    1    2    0    0 -0.57380426274E+00 -0.96184774563E+00 -0.37228198432E+00  0.90007747360E+02  0.90000008825E+02 0.  0.
        -12    1    1    2    0    0  0.57380426274E+00  0.96184774563E+00  0.37228198432E+00  0.11802526397E+01  0.00000000000E+00 0.  1.
         11    1    3    3    0    0 -0.36734777605E+02 -0.27618436356E+01 -0.11958425856E+02  0.38730809637E+02  0.51100000000E-03 0. -1.
        -11    1    3    3    0    0 -0.36191872154E+01  0.78829186820E+01 -0.18145978283E+01  0.88618106833E+01  0.51100000000E-03 0.  1.
        -12    1    3    3    0    0  0.39780160557E+02 -0.60829227920E+01  0.13400741700E+02  0.42415127040E+02  0.00000000000E+00 0.  1.
</event>
<event>
 7    1  0.2879200E-015  0.9000775E+02  0.7816164E-02  0.1186339E+00
        -11   -1    0    0    0    0  0.00000000000E+00  0.00000000000E+00  0.45593999997E+02  0.45594000000E+02  0.51100000000E-03 0.  1.
         11   -1    0    0    0    0 -0.00000000000E+00 -0.00000000000E+00 -0.45593999997E+02  0.45594000000E+02  0.51100000000E-03 0. -1.
    9900012    2    1    2    0    0  0.15376679672E+00 -0.83104110978E+00  0.82384116757E+00  0.90007750949E+02  0.90000012461E+02 0.  0.
        -12    1    1    2    0    0 -0.15376679672E+00  0.83104110978E+00 -0.82384116757E+00  0.11802490514E+01  0.00000000000E+00 0.  1.
         11    1    3    3    0    0  0.92519403686E+01  0.33195115460E+02  0.50155956342E+01  0.34823415840E+02  0.51100000000E-03 0. -1.
        -11    1    3    3    0    0  0.11784716808E+02 -0.21348906185E+01  0.88536363630E+01  0.14893763302E+02  0.51100000000E-03 0.  1.
        -12    1    3    3    0    0 -0.20882890380E+02 -0.31891265951E+02 -0.13045390830E+02  0.40290571806E+02  0.00000000000E+00 0.  1.
</event>
<event>
 7    1  0.2879200E-015  0.9000772E+02  0.7816164E-02  0.1186339E+00
        -11   -1    0    0    0    0  0.00000000000E+00  0.00000000000E+00  0.45593999997E+02  0.45594000000E+02  0.51100000000E-03 0. -1.
         11   -1    0    0    0    0 -0.00000000000E+00 -0.00000000000E+00 -0.45593999997E+02  0.45594000000E+02  0.51100000000E-03 0.  1.
    9900012    2    1    2    0    0  0.96886585242E+00 -0.46886634968E+00  0.48428140088E+00  0.90007718182E+02  0.89999979262E+02 0.  0.
        -12    1    1    2    0    0 -0.96886585242E+00  0.46886634968E+00 -0.48428140088E+00  0.11802818177E+01  0.00000000000E+00 0.  1.
         11    1    3    3    0    0 -0.43780963784E+01  0.34614804058E+01 -0.17504364924E+02  0.18372598242E+02  0.51100000000E-03 0. -1.
        -11    1    3    3    0    0  0.14155030334E+02  0.71464105360E+01 -0.23189777143E+02  0.28092736277E+02  0.51100000000E-03 0.  1.
         12    1    3    3    0    0 -0.88080681032E+01 -0.11076757291E+02  0.41178423468E+02  0.43542383664E+02  0.00000000000E+00 0. -1.
</event>
<event>
 7    1  0.2879200E-015  0.9000772E+02  0.7816164E-02  0.1186339E+00
        -11   -1    0    0    0    0  0.00000000000E+00  0.00000000000E+00  0.45593999997E+02  0.45594000000E+02  0.51100000000E-03 0.  1.
         11   -1    0    0    0    0 -0.00000000000E+00 -0.00000000000E+00 -0.45593999997E+02  0.45594000000E+02  0.51100000000E-03 0. -1.
    9900012    2    1    2    0    0  0.93032579868E+00  0.27126868378E+00  0.67377154570E+00  0.90007719997E+02  0.89999981101E+02 0.  0.
        -12    1    1    2    0    0 -0.93032579868E+00 -0.27126868378E+00 -0.67377154570E+00  0.11802800033E+01  0.00000000000E+00 0.  1.
         11    1    3    3    0    0 -0.12633281908E+02  0.17898716349E+02 -0.30242964469E+02  0.37344353775E+02  0.51100000000E-03 0. -1.
        -11    1    3    3    0    0  0.63789636119E+01  0.10185899887E+01 -0.71713496337E+01  0.96517852316E+01  0.51100000000E-03 0.  1.
        -12    1    3    3    0    0  0.71846440952E+01 -0.18646037654E+02  0.38088085648E+02  0.43011580991E+02  0.00000000000E+00 0.  1.
</event>
<event>
 7    1  0.2879200E-015  0.9000778E+02  0.7816164E-02  0.1186339E+00
        -11   -1    0    0    0    0  0.00000000000E+00  0.00000000000E+00  0.45593999997E+02  0.45594000000E+02  0.51100000000E-03 0.  1.
         11   -1    0    0    0    0 -0.00000000000E+00 -0.00000000000E+00 -0.45593999997E+02  0.45594000000E+02  0.51100000000E-03 0. -1.
    9900012    2    1    2    0    0 -0.15136451252E+00 -0.20146513031E+00 -0.11530064634E+01  0.90007778276E+02  0.90000040149E+02 0.  0.
        -12    1    1    2    0    0  0.15136451252E+00  0.20146513031E+00  0.11530064634E+01  0.11802217245E+01  0.00000000000E+00 0.  1.
         11    1    3    3    0    0 -0.54757586733E+01  0.95093167800E+01 -0.36328729908E+02  0.37949804422E+02  0.51100000000E-03 0. -1.
        -11    1    3    3    0    0 -0.81629329401E+01 -0.16458147351E+02  0.61941674892E+01  0.19387413431E+02  0.51100000000E-03 0.  1.
        -12    1    3    3    0    0  0.13487327101E+02  0.67473654408E+01  0.28981555955E+02  0.32670560422E+02  0.00000000000E+00 0.  1.
</event>
<event>
 7    1  0.2879200E-015  0.9000773E+02  0.7816164E-02  0.1186339E+00
        -11   -1    0    0    0    0  0.00000000000E+00  0.00000000000E+00  0.45593999997E+02  0.45594000000E+02  0.51100000000E-03 0. -1.
         11   -1    0    0    0    0 -0.00000000000E+00 -0.00000000000E+00 -0.45593999997E+02  0.45594000000E+02  0.51100000000E-03 0.  1.
    9900012    2    1    2    0    0 -0.11229932491E+01 -0.27352527715E-01  0.36219699791E+00  0.90007725175E+02  0.89999986347E+02 0.  0.
        -12    1    1    2    0    0  0.11229932491E+01  0.27352527715E-01 -0.36219699791E+00  0.11802748254E+01  0.00000000000E+00 0.  1.
         11    1    3    3    0    0  0.81073842113E+01  0.27946779159E+01  0.14396914921E+01  0.86955514636E+01  0.51100000000E-03 0. -1.
        -11    1    3    3    0    0 -0.28168350241E+02  0.31335927964E+02 -0.27007708160E+01  0.42221919662E+02  0.51100000000E-03 0.  1.
         12    1    3    3    0    0  0.18937972781E+02 -0.34157958407E+02  0.16232763218E+01  0.39090254049E+02  0.00000000000E+00 0. -1.
</event>
<event>
 7    1  0.2879200E-015  0.9000726E+02  0.7816164E-02  0.1186340E+00
        -11   -1    0    0    0    0  0.00000000000E+00  0.00000000000E+00  0.45593999997E+02  0.45594000000E+02  0.51100000000E-03 0. -1.
         11   -1    0    0    0    0 -0.00000000000E+00 -0.00000000000E+00 -0.45593999997E+02  0.45594000000E+02  0.51100000000E-03 0.  1.
    9900012    2    1    2    0    0 -0.47992183228E+00  0.10446379679E+01 -0.26933682214E+00  0.90007264732E+02  0.89999519825E+02 0.  0.
        -12    1    1    2    0    0  0.47992183228E+00 -0.10446379679E+01  0.26933682214E+00  0.11807352679E+01  0.00000000000E+00 0.  1.
         11    1    3    3    0    0 -0.96717185468E+01  0.24577307683E+01  0.36214933249E+01  0.10615921738E+02  0.51100000000E-03 0. -1.
        -11    1    3    3    0    0 -0.15530947033E+02  0.11901771886E+02 -0.33366909976E+02  0.38680914821E+02  0.51100000000E-03 0.  1.
         12    1    3    3    0    0  0.24722743748E+02 -0.13314864686E+02  0.29476079829E+02  0.40710428174E+02  0.00000000000E+00 0. -1.
</event>
<event>
 7    1  0.2879200E-015  0.9000776E+02  0.7816164E-02  0.1186339E+00
        -11   -1    0    0    0    0  0.00000000000E+00  0.00000000000E+00  0.45593999997E+02  0.45594000000E+02  0.51100000000E-03 0.  1.
         11   -1    0    0    0    0 -0.00000000000E+00 -0.00000000000E+00 -0.45593999997E+02  0.45594000000E+02  0.51100000000E-03 0. -1.
    9900012    2    1    2    0    0 -0.12178603144E+00 -0.54052454056E+00 -0.10420967792E+01  0.90007760908E+02  0.90000022552E+02 0.  0.
        -12    1    1    2    0    0  0.12178603144E+00  0.54052454056E+00  0.10420967792E+01  0.11802390917E+01  0.00000000000E+00 0.  1.
         11    1    3    3    0    0 -0.13673224117E+02  0.35039559570E+02  0.77873475342E+01  0.38410552906E+02  0.51100000000E-03 0. -1.
        -11    1    3    3    0    0  0.75338390373E+00  0.39991358234E+01 -0.91335965168E+01  0.99991629766E+01  0.51100000000E-03 0.  1.
        -12    1    3    3    0    0  0.12798054182E+02 -0.39579219934E+02  0.30415220339E+00  0.41598045026E+02  0.00000000000E+00 0.  1.
</event>
<event>
 7    1  0.2879200E-015  0.9000753E+02  0.7816164E-02  0.1186339E+00
        -11   -1    0    0    0    0  0.00000000000E+00  0.00000000000E+00  0.45593999997E+02  0.45594000000E+02  0.51100000000E-03 0. -1.
         11   -1    0    0    0    0 -0.00000000000E+00 -0.00000000000E+00 -0.45593999997E+02  0.45594000000E+02  0.51100000000E-03 0.  1.
    9900012    2    1    2    0    0  0.22440554949E+00  0.53994237237E+00  0.10254856041E+01  0.90007527069E+02  0.89999785626E+02 0.  0.
        -12    1    1    2    0    0 -0.22440554949E+00 -0.53994237237E+00 -0.10254856041E+01  0.11804729308E+01  0.00000000000E+00 0.  1.
         11    1    3    3    0    0  0.12638024293E+01  0.55572361234E+01  0.31757923133E+02  0.32265240614E+02  0.51100000000E-03 0. -1.
        -11    1    3    3    0    0 -0.14287014799E+02  0.17510463193E+02 -0.16518150296E+02  0.27992577633E+02  0.51100000000E-03 0.  1.
        -12    1    3    3    0    0  0.13247617919E+02 -0.22527756944E+02 -0.14214287232E+02  0.29749708822E+02  0.00000000000E+00 0.  1.
</event>
<event>
 7    1  0.2879200E-015  0.9000817E+02  0.7816164E-02  0.1186338E+00
        -11   -1    0    0    0    0  0.00000000000E+00  0.00000000000E+00  0.45593999997E+02  0.45594000000E+02  0.51100000000E-03 0. -1.
         11   -1    0    0    0    0 -0.00000000000E+00 -0.00000000000E+00 -0.45593999997E+02  0.45594000000E+02  0.51100000000E-03 0.  1.
    9900012    2    1    2    0    0 -0.19633537543E+00 -0.96605861041E+00  0.64822236703E+00  0.90008165666E+02  0.90000432652E+02 0.  0.
        -12    1    1    2    0    0  0.19633537543E+00  0.96605861041E+00 -0.64822236703E+00  0.11798343339E+01  0.00000000000E+00 0.  1.
         11    1    3    3    0    0  0.26881373313E+02 -0.41999723411E+01 -0.67298826822E+01  0.28027474379E+02  0.51100000000E-03 0. -1.
        -11    1    3    3    0    0 -0.12217452936E+02 -0.25834329243E+02  0.31696384459E+00  0.28579349013E+02  0.51100000000E-03 0.  1.
        -12    1    3    3    0    0 -0.14860255753E+02  0.29068242973E+02  0.70611412046E+01  0.33401342274E+02  0.00000000000E+00 0.  1.
</event>
<event>
 7    1  0.2879200E-015  0.9000776E+02  0.7816164E-02  0.1186339E+00
        -11   -1    0    0    0    0  0.00000000000E+00  0.00000000000E+00  0.45593999997E+02  0.45594000000E+02  0.51100000000E-03 0.  1.
         11   -1    0    0    0    0 -0.00000000000E+00 -0.00000000000E+00 -0.45593999997E+02  0.45594000000E+02  0.51100000000E-03 0. -1.
    9900012    2    1    2    0    0 -0.51463329202E+00 -0.76191151448E-01  0.10593887861E+01  0.90007763957E+02  0.90000025641E+02 0.  0.
        -12    1    1    2    0    0  0.51463329202E+00  0.76191151448E-01 -0.10593887861E+01  0.11802360429E+01  0.00000000000E+00 0.  1.
         11    1    3    3    0    0 -0.18577382640E+02  0.83618091270E+01 -0.33109210787E+02  0.38874912692E+02  0.51100000000E-03 0. -1.
        -11    1    3    3    0    0  0.60263246004E+01 -0.49121221799E+01 -0.55034504435E+01  0.95254133530E+01  0.51100000000E-03 0.  1.
        -12    1    3    3    0    0  0.12036424747E+02 -0.35258780985E+01  0.39672050017E+02  0.41607437912E+02  0.00000000000E+00 0.  1.
</event>
<event>
 7    1  0.2879200E-015  0.9000781E+02  0.7816164E-02  0.1186339E+00
        -11   -1    0    0    0    0  0.00000000000E+00  0.00000000000E+00  0.45593999997E+02  0.45594000000E+02  0.51100000000E-03 0.  1.
         11   -1    0    0    0    0 -0.00000000000E+00 -0.00000000000E+00 -0.45593999997E+02  0.45594000000E+02  0.51100000000E-03 0. -1.
    9900012    2    1    2    0    0  0.11506194715E+01 -0.13430931156E-02 -0.26253603177E+00  0.90007808431E+02  0.90000070702E+02 0.  0.
        -12    1    1    2    0    0 -0.11506194715E+01  0.13430931156E-02  0.26253603177E+00  0.11801915692E+01  0.00000000000E+00 0.  1.
         11    1    3    3    0    0 -0.54150473819E+01 -0.65138823906E+01  0.85609039735E+00  0.85138882407E+01  0.51100000000E-03 0. -1.
        -11    1    3    3    0    0 -0.19613852825E+02 -0.20490157779E+02 -0.24268931929E+02  0.37330026060E+02  0.51100000000E-03 0.  1.
         12    1    3    3    0    0  0.26179519678E+02  0.27002697076E+02  0.23150305499E+02  0.44163894130E+02  0.00000000000E+00 0. -1.
</event>
<event>
 7    1  0.2879200E-015  0.9000769E+02  0.7816164E-02  0.1186339E+00
        -11   -1    0    0    0    0  0.00000000000E+00  0.00000000000E+00  0.45593999997E+02  0.45594000000E+02  0.51100000000E-03 0.  1.
         11   -1    0    0    0    0 -0.00000000000E+00 -0.00000000000E+00 -0.45593999997E+02  0.45594000000E+02  0.51100000000E-03 0. -1.
    9900012    2    1    2    0    0  0.57761536853E+00  0.10277855971E+01  0.56069744197E-01  0.90007692174E+02  0.89999952911E+02 0.  0.
        -12    1    1    2    0    0 -0.57761536853E+00 -0.10277855971E+01 -0.56069744197E-01  0.11803078258E+01  0.00000000000E+00 0.  1.
         11    1    3    3    0    0  0.36782243501E+02  0.88539586159E+01 -0.15040319301E+02  0.40712863141E+02  0.51100000000E-03 0. -1.
        -11    1    3    3    0    0 -0.17764968841E+01  0.80422192417E+01  0.63240130547E+01  0.10383947847E+02  0.51100000000E-03 0.  1.
        -12    1    3    3    0    0 -0.34428131249E+02 -0.15868392260E+02  0.87723759902E+01  0.38910881187E+02  0.00000000000E+00 0.  1.
</event>
<event>
 7    1  0.2879200E-015  0.9000775E+02  0.7816164E-02  0.1186339E+00
        -11   -1    0    0    0    0  0.00000000000E+00  0.00000000000E+00  0.45593999997E+02  0.45594000000E+02  0.51100000000E-03 0. -1.
         11   -1    0    0    0    0 -0.00000000000E+00 -0.00000000000E+00 -0.45593999997E+02  0.45594000000E+02  0.51100000000E-03 0.  1.
    9900012    2    1    2    0    0 -0.61809215712E+00 -0.48382649051E+00  0.88140271212E+00  0.90007747176E+02  0.90000008639E+02 0.  0.
        -12    1    1    2    0    0  0.61809215712E+00  0.48382649051E+00 -0.88140271212E+00  0.11802528240E+01  0.00000000000E+00 0.  1.
         11    1    3    3    0    0 -0.47292026584E+01  0.34485082239E+01 -0.80157144431E+01  0.99251823686E+01  0.51100000000E-03 0. -1.
        -11    1    3    3    0    0  0.28495287721E+02  0.75601017067E+01 -0.23669166369E+02  0.37806956992E+02  0.51100000000E-03 0.  1.
         12    1    3    3    0    0 -0.24384177220E+02 -0.11492436421E+02  0.32566283524E+02  0.42275607815E+02  0.00000000000E+00 0. -1.
</event>
<event>
 7    1  0.2879200E-015  0.9000767E+02  0.7816164E-02  0.1186339E+00
        -11   -1    0    0    0    0  0.00000000000E+00  0.00000000000E+00  0.45593999997E+02  0.45594000000E+02  0.51100000000E-03 0.  1.
         11   -1    0    0    0    0 -0.00000000000E+00 -0.00000000000E+00 -0.45593999997E+02  0.45594000000E+02  0.51100000000E-03 0. -1.
    9900012    2    1    2    0    0 -0.45698941771E+00 -0.76698559246E+00 -0.77205578382E+00  0.90007671080E+02  0.89999931538E+02 0.  0.
        -12    1    1    2    0    0  0.45698941771E+00  0.76698559246E+00  0.77205578382E+00  0.11803289204E+01  0.00000000000E+00 0.  1.
         11    1    3    3    0    0 -0.32357525557E+01  0.97555632628E+01  0.20587593902E+01  0.10482347049E+02  0.51100000000E-03 0. -1.
        -11    1    3    3    0    0  0.30455791168E+02 -0.41142964974E+00  0.24687957774E+02  0.39207394065E+02  0.51100000000E-03 0.  1.
         12    1    3    3    0    0 -0.27677028030E+02 -0.10111119206E+02 -0.27518772948E+02  0.40317929966E+02  0.00000000000E+00 0. -1.
</event>
<event>
 7    1  0.2879200E-015  0.9000705E+02  0.7816164E-02  0.1186340E+00
        -11   -1    0    0    0    0  0.00000000000E+00  0.00000000000E+00  0.45593999997E+02  0.45594000000E+02  0.51100000000E-03 0.  1.
         11   -1    0    0    0    0 -0.00000000000E+00 -0.00000000000E+00 -0.45593999997E+02  0.45594000000E+02  0.51100000000E-03 0. -1.
    9900012    2    1    2    0    0 -0.11508425230E+01  0.13012509025E+00 -0.23080806225E+00  0.90007049784E+02  0.89999302038E+02 0.  0.
        -12    1    1    2    0    0  0.11508425230E+01 -0.13012509025E+00  0.23080806225E+00  0.11809502163E+01  0.00000000000E+00 0.  1.
         11    1    3    3    0    0 -0.13636027437E+02 -0.21543075701E+01  0.41554227365E+01  0.14416997737E+02  0.51100000000E-03 0. -1.
        -11    1    3    3    0    0 -0.21812103488E+02 -0.46521860572E+01  0.22333969672E+02  0.31562903784E+02  0.51100000000E-03 0.  1.
         12    1    3    3    0    0  0.34297288402E+02  0.69366187175E+01 -0.26720200471E+02  0.44027148263E+02  0.00000000000E+00 0. -1.
</event>
<event>
 7    1  0.2879200E-015  0.9000733E+02  0.7816164E-02  0.1186340E+00
        -11   -1    0    0    0    0  0.00000000000E+00  0.00000000000E+00  0.45593999997E+02  0.45594000000E+02  0.51100000000E-03 0.  1.
         11   -1    0    0    0    0 -0.00000000000E+00 -0.00000000000E+00 -0.45593999997E+02  0.45594000000E+02  0.51100000000E-03 0. -1.
    9900012    2    1    2    0    0  0.52725586582E+00  0.10542835681E+01  0.66926005531E-01  0.90007325752E+02  0.89999581651E+02 0.  0.
        -12    1    1    2    0    0 -0.52725586582E+00 -0.10542835681E+01 -0.66926005531E-01  0.11806742481E+01  0.00000000000E+00 0.  1.
         11    1    3    3    0    0 -0.71241502303E+01 -0.42240578051E+02  0.20534179722E+01  0.42886320386E+02  0.51100000000E-03 0. -1.
        -11    1    3    3    0    0  0.28906106060E+00  0.62352389586E+01  0.58254686455E+01  0.85380235633E+01  0.51100000000E-03 0.  1.
        -12    1    3    3    0    0  0.73623450356E+01  0.37059622661E+02 -0.78119606122E+01  0.38582981803E+02  0.00000000000E+00 0.  1.
</event>
<event>
 7    1  0.2879200E-015  0.9000781E+02  0.7816164E-02  0.1186339E+00
        -11   -1    0    0    0    0  0.00000000000E+00  0.00000000000E+00  0.45593999997E+02  0.45594000000E+02  0.51100000000E-03 0.  1.
         11   -1    0    0    0    0 -0.00000000000E+00 -0.00000000000E+00 -0.45593999997E+02  0.45594000000E+02  0.51100000000E-03 0. -1.
    9900012    2    1    2    0    0  0.24851277025E-01  0.29131090156E+00 -0.11434045352E+01  0.90007807830E+02  0.90000070093E+02 0.  0.
        -12    1    1    2    0    0 -0.24851277025E-01 -0.29131090156E+00  0.11434045352E+01  0.11801921701E+01  0.00000000000E+00 0.  1.
         11    1    3    3    0    0 -0.10807068909E+02 -0.63530071971E+01 -0.63435623924E+01  0.14049705440E+02  0.51100000000E-03 0. -1.
        -11    1    3    3    0    0 -0.50228063909E+01  0.26319731874E+00  0.38341238772E+02  0.38669735552E+02  0.51100000000E-03 0.  1.
         12    1    3    3    0    0  0.15854726577E+02  0.63811207799E+01 -0.33141080915E+02  0.37288366838E+02  0.00000000000E+00 0. -1.
</event>
<event>
 7    1  0.2879200E-015  0.9000772E+02  0.7816164E-02  0.1186339E+00
        -11   -1    0    0    0    0  0.00000000000E+00  0.00000000000E+00  0.45593999997E+02  0.45594000000E+02  0.51100000000E-03 0. -1.
         11   -1    0    0    0    0 -0.00000000000E+00 -0.00000000000E+00 -0.45593999997E+02  0.45594000000E+02  0.51100000000E-03 0.  1.
    9900012    2    1    2    0    0  0.99672271434E+00 -0.57766586581E-01  0.62949953191E+00  0.90007719182E+02  0.89999980276E+02 0.  0.
        -12    1    1    2    0    0 -0.99672271434E+00  0.57766586581E-01 -0.62949953191E+00  0.11802808176E+01  0.00000000000E+00 0.  1.
         11    1    3    3    0    0  0.40950575716E+01  0.68768628303E+01  0.20122707472E+01  0.82528766332E+01  0.51100000000E-03 0. -1.
        -11    1    3    3    0    0  0.32410212118E+02  0.80478710043E+01 -0.20029819193E+02  0.38940772134E+02  0.51100000000E-03 0.  1.
         12    1    3    3    0    0 -0.35508546976E+02 -0.14982500421E+02  0.18647047978E+02  0.42814070415E+02  0.00000000000E+00 0. -1.
</event>
<event>
 7    1  0.2879200E-015  0.9000767E+02  0.7816164E-02  0.1186339E+00
        -11   -1    0    0    0    0  0.00000000000E+00  0.00000000000E+00  0.45593999997E+02  0.45594000000E+02  0.51100000000E-03 0.  1.
         11   -1    0    0    0    0 -0.00000000000E+00 -0.00000000000E+00 -0.45593999997E+02  0.45594000000E+02  0.51100000000E-03 0. -1.
    9900012    2    1    2    0    0  0.10083733184E+01  0.40702107085E+00 -0.45901399036E+00  0.90007670917E+02  0.89999931373E+02 0.  0.
        -12    1    1    2    0    0 -0.10083733184E+01 -0.40702107085E+00  0.45901399036E+00  0.11803290833E+01  0.00000000000E+00 0.  1.
         11    1    3    3    0    0 -0.34506166268E+00 -0.15854840852E+01 -0.93817982715E+01  0.95210801070E+01  0.51100000000E-03 0. -1.
        -11    1    3    3    0    0  0.36338363360E+02  0.16545859070E+02  0.13881675756E+02  0.42272248888E+02  0.51100000000E-03 0.  1.
         12    1    3    3    0    0 -0.34984928379E+02 -0.14553353914E+02 -0.49588914744E+01  0.38214341921E+02  0.00000000000E+00 0. -1.
</event>
<event>
 7    1  0.2879200E-015  0.9000774E+02  0.7816164E-02  0.1186339E+00
        -11   -1    0    0    0    0  0.00000000000E+00  0.00000000000E+00  0.45593999997E+02  0.45594000000E+02  0.51100000000E-03 0.  1.
         11   -1    0    0    0    0 -0.00000000000E+00 -0.00000000000E+00 -0.45593999997E+02  0.45594000000E+02  0.51100000000E-03 0. -1.
    9900012    2    1    2    0    0  0.66724396389E+00 -0.79679259033E+00 -0.55939564177E+00  0.90007738833E+02  0.90000000185E+02 0.  0.
        -12    1    1    2    0    0 -0.66724396389E+00  0.79679259033E+00  0.55939564177E+00  0.11802611674E+01  0.00000000000E+00 0.  1.
         11    1    3    3    0    0 -0.29154371870E+02  0.17907793306E+02 -0.49642166728E+01  0.34573254224E+02  0.51100000000E-03 0. -1.
        -11    1    3    3    0    0 -0.68665000718E+01  0.74947852810E+01  0.36140183663E+00  0.10171098328E+02  0.51100000000E-03 0.  1.
        -12    1    3    3    0    0  0.36688115906E+02 -0.26199371178E+02  0.40434191944E+01  0.45263386281E+02  0.00000000000E+00 0.  1.
</event>
<event>
 7    1  0.2879200E-015  0.9000729E+02  0.7816164E-02  0.1186340E+00
        -11   -1    0    0    0    0  0.00000000000E+00  0.00000000000E+00  0.45593999997E+02  0.45594000000E+02  0.51100000000E-03 0. -1.
         11   -1    0    0    0    0 -0.00000000000E+00 -0.00000000000E+00 -0.45593999997E+02  0.45594000000E+02  0.51100000000E-03 0.  1.
    9900012    2    1    2    0    0 -0.74248076368E+00  0.90787921884E+00  0.13624255239E+00  0.90007286490E+02  0.89999541870E+02 0.  0.
        -12    1    1    2    0    0  0.74248076368E+00 -0.90787921884E+00 -0.13624255239E+00  0.11807135103E+01  0.00000000000E+00 0.  1.
         11    1    3    3    0    0  0.20664044537E+01 -0.86643143390E+01 -0.92165869304E+00  0.89548771817E+01  0.51100000000E-03 0. -1.
        -11    1    3    3    0    0 -0.19548154175E+02 -0.69809987731E+01 -0.33397505433E+02  0.39322487777E+02  0.51100000000E-03 0.  1.
         12    1    3    3    0    0  0.16739268958E+02  0.16553192331E+02  0.34455406679E+02  0.41729921531E+02  0.00000000000E+00 0. -1.
</event>
<event>
 7    1  0.2879200E-015  0.9000769E+02  0.7816164E-02  0.1186339E+00
        -11   -1    0    0    0    0  0.00000000000E+00  0.00000000000E+00  0.45593999997E+02  0.45594000000E+02  0.51100000000E-03 0. -1.
         11   -1    0    0    0    0 -0.00000000000E+00 -0.00000000000E+00 -0.45593999997E+02  0.45594000000E+02  0.51100000000E-03 0.  1.
    9900012    2    1    2    0    0 -0.25321599186E-01 -0.10619051070E+01  0.51462701903E+00  0.90007693003E+02  0.89999953750E+02 0.  0.
        -12    1    1    2    0    0  0.25321599186E-01  0.10619051070E+01 -0.51462701903E+00  0.11803069975E+01  0.00000000000E+00 0.  1.
         11    1    3    3    0    0  0.29225654977E+02  0.20518225676E+01 -0.22114109140E+02  0.36706712029E+02  0.51100000000E-03 0. -1.
        -11    1    3    3    0    0  0.31862680279E+01  0.39054608708E+01 -0.71254529457E+01  0.87279441165E+01  0.51100000000E-03 0.  1.
        -12    1    3    3    0    0 -0.32437244604E+02 -0.70191885454E+01  0.29754189105E+02  0.44573036857E+02  0.00000000000E+00 0.  1.
</event>
<event>
 7    1  0.2879200E-015  0.9000800E+02  0.7816164E-02  0.1186339E+00
        -11   -1    0    0    0    0  0.00000000000E+00  0.00000000000E+00  0.45593999997E+02  0.45594000000E+02  0.51100000000E-03 0.  1.
         11   -1    0    0    0    0 -0.00000000000E+00 -0.00000000000E+00 -0.45593999997E+02  0.45594000000E+02  0.51100000000E-03 0. -1.
    9900012    2    1    2    0    0 -0.54979283294E+00 -0.10198771742E+01 -0.22357825001E+00  0.90007996253E+02  0.90000261003E+02 0.  0.
        -12    1    1    2    0    0  0.54979283294E+00  0.10198771742E+01  0.22357825001E+00  0.11800037472E+01  0.00000000000E+00 0.  1.
         11    1    3    3    0    0 -0.23587770244E+01  0.35019349003E+01  0.10213144309E+02  0.11051501890E+02  0.51100000000E-03 0. -1.
        -11    1    3    3    0    0  0.90850404711E+01 -0.18512157251E+02  0.29515028740E+02  0.36005205849E+02  0.51100000000E-03 0.  1.
         12    1    3    3    0    0 -0.72760562796E+01  0.13990345177E+02 -0.39951751299E+02  0.42951288514E+02  0.00000000000E+00 0. -1.
</event>
<event>
 7    1  0.2879200E-015  0.9000787E+02  0.7816164E-02  0.1186339E+00
        -11   -1    0    0    0    0  0.00000000000E+00  0.00000000000E+00  0.45593999997E+02  0.45594000000E+02  0.51100000000E-03 0. -1.
         11   -1    0    0    0    0 -0.00000000000E+00 -0.00000000000E+00 -0.45593999997E+02  0.45594000000E+02  0.51100000000E-03 0.  1.
    9900012    2    1    2    0    0 -0.70658249944E+00 -0.71779790033E+00  0.61498449149E+00  0.90007873490E+02  0.90000136620E+02 0.  0.
        -12    1    1    2    0    0  0.70658249944E+00  0.71779790033E+00 -0.61498449149E+00  0.11801265097E+01  0.00000000000E+00 0.  1.
         11    1    3    3    0    0 -0.12010523443E+02 -0.14545801572E+02  0.29878123218E+02  0.35334618492E+02  0.51100000000E-03 0. -1.
        -11    1    3    3    0    0  0.19603063107E+01 -0.70711904980E+00  0.10822863887E+02  0.11021669618E+02  0.51100000000E-03 0.  1.
        -12    1    3    3    0    0  0.93436346332E+01  0.14535122721E+02 -0.40086002613E+02  0.43651585380E+02  0.00000000000E+00 0.  1.
</event>
<event>
 7    1  0.2879200E-015  0.9000762E+02  0.7816164E-02  0.1186339E+00
        -11   -1    0    0    0    0  0.00000000000E+00  0.00000000000E+00  0.45593999997E+02  0.45594000000E+02  0.51100000000E-03 0.  1.
         11   -1    0    0    0    0 -0.00000000000E+00 -0.00000000000E+00 -0.45593999997E+02  0.45594000000E+02  0.51100000000E-03 0. -1.
    9900012    2    1    2    0    0 -0.79798176947E+00  0.72502554438E+00 -0.48047354331E+00  0.90007622192E+02  0.89999882005E+02 0.  0.
        -12    1    1    2    0    0  0.79798176947E+00 -0.72502554438E+00  0.48047354331E+00  0.11803778083E+01  0.00000000000E+00 0.  1.
         11    1    3    3    0    0  0.37506487150E+02 -0.67942611920E+01 -0.15515196882E+02  0.41153613426E+02  0.51100000000E-03 0. -1.
        -11    1    3    3    0    0  0.26790218605E+00  0.68771774775E+01  0.62321188709E+01  0.92847534981E+01  0.51100000000E-03 0.  1.
        -12    1    3    3    0    0 -0.38572371106E+02  0.64210925888E+00  0.88026044676E+01  0.39569255267E+02  0.00000000000E+00 0.  1.
</event>
<event>
 7    1  0.2879200E-015  0.9000745E+02  0.7816164E-02  0.1186340E+00
        -11   -1    0    0    0    0  0.00000000000E+00  0.00000000000E+00  0.45593999997E+02  0.45594000000E+02  0.51100000000E-03 0.  1.
         11   -1    0    0    0    0 -0.00000000000E+00 -0.00000000000E+00 -0.45593999997E+02  0.45594000000E+02  0.51100000000E-03 0. -1.
    9900012    2    1    2    0    0  0.17221056676E+00  0.78518150570E+00 -0.86460134251E+00  0.90007448452E+02  0.89999705971E+02 0.  0.
        -12    1    1    2    0    0 -0.17221056676E+00 -0.78518150570E+00  0.86460134251E+00  0.11805515481E+01  0.00000000000E+00 0.  1.
         11    1    3    3    0    0 -0.64305451610E+00  0.40009428072E+02  0.67513909096E+01  0.40580156891E+02  0.51100000000E-03 0. -1.
        -11    1    3    3    0    0  0.69825747214E+01 -0.21911625254E+01 -0.93147573354E+01  0.11845769179E+02  0.51100000000E-03 0.  1.
        -12    1    3    3    0    0 -0.61673096386E+01 -0.37033084041E+02  0.16987650833E+01  0.37581522383E+02  0.00000000000E+00 0.  1.
</event>
<event>
 7    1  0.2879200E-015  0.9000771E+02  0.7816164E-02  0.1186339E+00
        -11   -1    0    0    0    0  0.00000000000E+00  0.00000000000E+00  0.45593999997E+02  0.45594000000E+02  0.51100000000E-03 0.  1.
         11   -1    0    0    0    0 -0.00000000000E+00 -0.00000000000E+00 -0.45593999997E+02  0.45594000000E+02  0.51100000000E-03 0. -1.
    9900012    2    1    2    0    0  0.11454064914E+01  0.15668002917E+00 -0.23785528401E+00  0.90007711985E+02  0.89999972983E+02 0.  0.
        -12    1    1    2    0    0 -0.11454064914E+01 -0.15668002917E+00  0.23785528401E+00  0.11802880149E+01  0.00000000000E+00 0.  1.
         11    1    3    3    0    0  0.10867638972E+02 -0.85567567901E+00 -0.60550661702E+01  0.12470027437E+02  0.51100000000E-03 0. -1.
        -11    1    3    3    0    0  0.29843582925E+02  0.13410368277E+02 -0.82699335048E+01  0.33747136465E+02  0.51100000000E-03 0.  1.
        -12    1    3    3    0    0 -0.39565815405E+02 -0.12398012569E+02  0.14087144391E+02  0.43790548083E+02  0.00000000000E+00 0.  1.
</event>
<event>
 7    1  0.2879200E-015  0.9000772E+02  0.7816164E-02  0.1186339E+00
        -11   -1    0    0    0    0  0.00000000000E+00  0.00000000000E+00  0.45593999997E+02  0.45594000000E+02  0.51100000000E-03 0. -1.
         11   -1    0    0    0    0 -0.00000000000E+00 -0.00000000000E+00 -0.45593999997E+02  0.45594000000E+02  0.51100000000E-03 0.  1.
    9900012    2    1    2    0    0  0.76906975925E+00  0.54982300930E+00  0.70660449067E+00  0.90007718871E+02  0.89999979961E+02 0.  0.
        -12    1    1    2    0    0 -0.76906975925E+00 -0.54982300930E+00 -0.70660449067E+00  0.11802811285E+01  0.00000000000E+00 0.  1.
         11    1    3    3    0    0 -0.19523185226E+02 -0.57677478683E+01 -0.70826443212E+00  0.20369666557E+02  0.51100000000E-03 0. -1.
        -11    1    3    3    0    0 -0.61057085495E+01  0.37722931416E+01 -0.28657290670E+02  0.29542345561E+02  0.51100000000E-03 0.  1.
         12    1    3    3    0    0  0.26397963535E+02  0.25452777360E+01  0.30072159593E+02  0.40095706754E+02  0.00000000000E+00 0. -1.
</event>
<event>
 7    1  0.2879200E-015  0.9000771E+02  0.7816164E-02  0.1186339E+00
        -11   -1    0    0    0    0  0.00000000000E+00  0.00000000000E+00  0.45593999997E+02  0.45594000000E+02  0.51100000000E-03 0. -1.
         11   -1    0    0    0    0 -0.00000000000E+00 -0.00000000000E+00 -0.45593999997E+02  0.45594000000E+02  0.51100000000E-03 0.  1.
    9900012    2    1    2    0    0 -0.27407948196E+00  0.10879886754E+01  0.36640569559E+00  0.90007706793E+02  0.89999967723E+02 0.  0.
        -12    1    1    2    0    0  0.27407948196E+00 -0.10879886754E+01 -0.36640569559E+00  0.11802932068E+01  0.00000000000E+00 0.  1.
         11    1    3    3    0    0  0.78000148796E+01  0.33604995233E+02  0.15696289501E+02  0.37901311865E+02  0.51100000000E-03 0. -1.
        -11    1    3    3    0    0 -0.47668525014E+01  0.78802127950E+01 -0.18712641284E+01  0.93979926667E+01  0.51100000000E-03 0.  1.
        -12    1    3    3    0    0 -0.33072418601E+01 -0.40397219352E+02 -0.13458619677E+02  0.42708402262E+02  0.00000000000E+00 0.  1.
</event>
<event>
 7    1  0.2879200E-015  0.9000779E+02  0.7816164E-02  0.1186339E+00
        -11   -1    0    0    0    0  0.00000000000E+00  0.00000000000E+00  0.45593999997E+02  0.45594000000E+02  0.51100000000E-03 0. -1.
         11   -1    0    0    0    0 -0.00000000000E+00 -0.00000000000E+00 -0.45593999997E+02  0.45594000000E+02  0.51100000000E-03 0.  1.
    9900012    2    1    2    0    0  0.37789234275E-01 -0.14144690443E+00  0.11710918125E+01  0.90007791846E+02  0.90000053899E+02 0.  0.
        -12    1    1    2    0    0 -0.37789234275E-01  0.14144690443E+00 -0.11710918125E+01  0.11802081538E+01  0.00000000000E+00 0.  1.
         11    1    3    3    0    0  0.12802290897E+02 -0.80664043394E-01  0.20980429560E+01  0.12973316593E+02  0.51100000000E-03 0. -1.
        -11    1    3    3    0    0  0.23660871269E+02 -0.23389910944E+02 -0.47600520122E+01  0.33609267451E+02  0.51100000000E-03 0.  1.
         12    1    3    3    0    0 -0.36425372932E+02  0.23329128083E+02  0.38331008687E+01  0.43425207802E+02  0.00000000000E+00 0. -1.
</event>
<event>
 7    1  0.2879200E-015  0.9000766E+02  0.7816164E-02  0.1186339E+00
        -11   -1    0    0    0    0  0.00000000000E+00  0.00000000000E+00  0.45593999997E+02  0.45594000000E+02  0.51100000000E-03 0.  1.
         11   -1    0    0    0    0 -0.00000000000E+00 -0.00000000000E+00 -0.45593999997E+02  0.45594000000E+02  0.51100000000E-03 0. -1.
    9900012    2    1    2    0    0  0.34029149445E+00  0.45155591764E+00 -0.10360955275E+01  0.90007663188E+02  0.89999923542E+02 0.  0.
        -12    1    1    2    0    0 -0.34029149445E+00 -0.45155591764E+00  0.10360955275E+01  0.11803368121E+01  0.00000000000E+00 0.  1.
         11    1    3    3    0    0  0.15239318085E+01 -0.37305360229E+02 -0.10993803830E+02  0.38921407899E+02  0.51100000000E-03 0. -1.
        -11    1    3    3    0    0  0.10687090712E+02  0.21747649188E+00  0.30234430110E+01  0.11108663818E+02  0.51100000000E-03 0.  1.
        -12    1    3    3    0    0 -0.11870731027E+02  0.37539439654E+02  0.69342652911E+01  0.39977591471E+02  0.00000000000E+00 0.  1.
</event>
<event>
 7    1  0.2879200E-015  0.9000767E+02  0.7816164E-02  0.1186339E+00
        -11   -1    0    0    0    0  0.00000000000E+00  0.00000000000E+00  0.45593999997E+02  0.45594000000E+02  0.51100000000E-03 0.  1.
         11   -1    0    0    0    0 -0.00000000000E+00 -0.00000000000E+00 -0.45593999997E+02  0.45594000000E+02  0.51100000000E-03 0. -1.
    9900012    2    1    2    0    0  0.32901418529E+00 -0.25657359461E+00 -0.11041292538E+01  0.90007668795E+02  0.89999929223E+02 0.  0.
        -12    1    1    2    0    0 -0.32901418529E+00  0.25657359461E+00  0.11041292538E+01  0.11803312046E+01  0.00000000000E+00 0.  1.
         11    1    3    3    0    0 -0.81121091603E+01  0.21862520281E+02 -0.17674239529E+02  0.29260123911E+02  0.51100000000E-03 0. -1.
        -11    1    3    3    0    0  0.26245908846E+02  0.42093274830E+01  0.59755296067E+01  0.27244689820E+02  0.51100000000E-03 0.  1.
        -12    1    3    3    0    0 -0.17804785501E+02 -0.26328421359E+02  0.10594580669E+02  0.33502855065E+02  0.00000000000E+00 0.  1.
</event>
<event>
 7    1  0.2879200E-015  0.9000775E+02  0.7816164E-02  0.1186339E+00
        -11   -1    0    0    0    0  0.00000000000E+00  0.00000000000E+00  0.45593999997E+02  0.45594000000E+02  0.51100000000E-03 0.  1.
         11   -1    0    0    0    0 -0.00000000000E+00 -0.00000000000E+00 -0.45593999997E+02  0.45594000000E+02  0.51100000000E-03 0. -1.
    9900012    2    1    2    0    0 -0.50482210082E+00  0.10661935893E+01 -0.36966653794E-01  0.90007753985E+02  0.90000015537E+02 0.  0.
        -12    1    1    2    0    0  0.50482210082E+00 -0.10661935893E+01  0.36966653794E-01  0.11802460154E+01  0.00000000000E+00 0.  1.
         11    1    3    3    0    0 -0.11745511957E+01  0.25325582805E+02 -0.18942869336E+02  0.31648017534E+02  0.51100000000E-03 0. -1.
        -11    1    3    3    0    0  0.23360821258E+01  0.16067321166E+01 -0.15233791954E+02  0.15495395617E+02  0.51100000000E-03 0.  1.
        -12    1    3    3    0    0 -0.16663530310E+01 -0.25866121332E+02  0.34139694636E+02  0.42864340833E+02  0.00000000000E+00 0.  1.
</event>
<event>
 7    1  0.2879200E-015  0.9000782E+02  0.7816164E-02  0.1186339E+00
        -11   -1    0    0    0    0  0.00000000000E+00  0.00000000000E+00  0.45593999997E+02  0.45594000000E+02  0.51100000000E-03 0. -1.
         11   -1    0    0    0    0 -0.00000000000E+00 -0.00000000000E+00 -0.45593999997E+02  0.45594000000E+02  0.51100000000E-03 0.  1.
    9900012    2    1    2    0    0 -0.58170121904E+00  0.69228931190E+00 -0.75840730293E+00  0.90007821015E+02  0.90000083452E+02 0.  0.
        -12    1    1    2    0    0  0.58170121904E+00 -0.69228931190E+00  0.75840730293E+00  0.11801789850E+01  0.00000000000E+00 0.  1.
         11    1    3    3    0    0  0.34060099752E+02 -0.13029107322E+01  0.58604134077E+01  0.34585147348E+02  0.51100000000E-03 0. -1.
        -11    1    3    3    0    0  0.95734052840E+01 -0.67511487676E+00 -0.56076270123E+01  0.11115365482E+02  0.51100000000E-03 0.  1.
        -12    1    3    3    0    0 -0.44215206255E+02  0.26703149209E+01 -0.10111936983E+01  0.44307308185E+02  0.00000000000E+00 0.  1.
</event>
<event>
 7    1  0.2879200E-015  0.9000781E+02  0.7816164E-02  0.1186339E+00
        -11   -1    0    0    0    0  0.00000000000E+00  0.00000000000E+00  0.45593999997E+02  0.45594000000E+02  0.51100000000E-03 0.  1.
         11   -1    0    0    0    0 -0.00000000000E+00 -0.00000000000E+00 -0.45593999997E+02  0.45594000000E+02  0.51100000000E-03 0. -1.
    9900012    2    1    2    0    0  0.37978405424E+00  0.80984516975E+00 -0.76991401935E+00  0.90007808183E+02  0.90000070451E+02 0.  0.
        -12    1    1    2    0    0 -0.37978405424E+00 -0.80984516975E+00  0.76991401935E+00  0.11801918166E+01  0.00000000000E+00 0.  1.
         11    1    3    3    0    0 -0.41511246011E+00  0.42312171158E+02  0.90754151709E+01  0.43276498324E+02  0.51100000000E-03 0. -1.
        -11    1    3    3    0    0  0.70793004643E+01 -0.51001728791E+01 -0.23793927240E+01  0.90437695933E+01  0.51100000000E-03 0.  1.
        -12    1    3    3    0    0 -0.62844039500E+01 -0.36402153109E+02 -0.74659364663E+01  0.37687540266E+02  0.00000000000E+00 0.  1.
</event>
<event>
 7    1  0.2879200E-015  0.9000774E+02  0.7816164E-02  0.1186339E+00
        -11   -1    0    0    0    0  0.00000000000E+00  0.00000000000E+00  0.45593999997E+02  0.45594000000E+02  0.51100000000E-03 0.  1.
         11   -1    0    0    0    0 -0.00000000000E+00 -0.00000000000E+00 -0.45593999997E+02  0.45594000000E+02  0.51100000000E-03 0. -1.
    9900012    2    1    2    0    0  0.79848874831E+00 -0.11136104952E+00 -0.86198544349E+00  0.90007743897E+02  0.90000005316E+02 0.  0.
        -12    1    1    2    0    0 -0.79848874831E+00  0.11136104952E+00  0.86198544349E+00  0.11802561033E+01  0.00000000000E+00 0.  1.
         11    1    3    3    0    0  0.67973242057E+01  0.22445391722E+01 -0.79548276411E+01  0.10701441749E+02  0.51100000000E-03 0. -1.
        -11    1    3    3    0    0  0.28593735225E+02  0.20680049532E+02 -0.58648586412E+01  0.35772373557E+02  0.51100000000E-03 0.  1.
         12    1    3    3    0    0 -0.34592570682E+02 -0.23035949754E+02  0.12957700839E+02  0.43533928590E+02  0.00000000000E+00 0. -1.
</event>
<event>
 7    1  0.2879200E-015  0.9000772E+02  0.7816164E-02  0.1186339E+00
        -11   -1    0    0    0    0  0.00000000000E+00  0.00000000000E+00  0.45593999997E+02  0.45594000000E+02  0.51100000000E-03 0.  1.
         11   -1    0    0    0    0 -0.00000000000E+00 -0.00000000000E+00 -0.45593999997E+02  0.45594000000E+02  0.51100000000E-03 0. -1.
    9900012    2    1    2    0    0  0.56570473802E+00  0.10320486506E+01 -0.88912849983E-01  0.90007723862E+02  0.89999985017E+02 0.  0.
        -12    1    1    2    0    0 -0.56570473802E+00 -0.10320486506E+01  0.88912849983E-01  0.11802761384E+01  0.00000000000E+00 0.  1.
         11    1    3    3    0    0 -0.82576357412E+00 -0.19461225868E+02 -0.15156561905E+02  0.24680813739E+02  0.51100000000E-03 0. -1.
        -11    1    3    3    0    0 -0.44492449306E+00 -0.23510065876E+01  0.34922575594E+02  0.35004449377E+02  0.51100000000E-03 0.  1.
         12    1    3    3    0    0  0.18363928052E+01  0.22844281106E+02 -0.19854926540E+02  0.30322460746E+02  0.00000000000E+00 0. -1.
</event>
<event>
 7    1  0.2879200E-015  0.9000758E+02  0.7816164E-02  0.1186339E+00
        -11   -1    0    0    0    0  0.00000000000E+00  0.00000000000E+00  0.45593999997E+02  0.45594000000E+02  0.51100000000E-03 0.  1.
         11   -1    0    0    0    0 -0.00000000000E+00 -0.00000000000E+00 -0.45593999997E+02  0.45594000000E+02  0.51100000000E-03 0. -1.
    9900012    2    1    2    0    0  0.84210973288E+00  0.67625029688E+00  0.47637353644E+00  0.90007578460E+02  0.89999837695E+02 0.  0.
        -12    1    1    2    0    0 -0.84210973288E+00 -0.67625029688E+00 -0.47637353644E+00  0.11804215402E+01  0.00000000000E+00 0.  1.
         11    1    3    3    0    0  0.89542382271E+01 -0.43883006962E+01  0.13854990391E+01  0.10067530635E+02  0.51100000000E-03 0. -1.
        -11    1    3    3    0    0  0.31997768971E+00 -0.35956881457E+02  0.86494877398E+01  0.36983960689E+02  0.51100000000E-03 0.  1.
         12    1    3    3    0    0 -0.84321061840E+01  0.41021432450E+02 -0.95586132425E+01  0.42956087136E+02  0.00000000000E+00 0. -1.
</event>
<event>
 7    1  0.4021138E-015  0.9000776E+02  0.7816164E-02  0.1186339E+00
        -11   -1    0    0    0    0  0.00000000000E+00  0.00000000000E+00  0.45593999997E+02  0.45594000000E+02  0.51100000000E-03 0. -1.
         11   -1    0    0    0    0 -0.00000000000E+00 -0.00000000000E+00 -0.45593999997E+02  0.45594000000E+02  0.51100000000E-03 0.  1.
    9900012    2    1    2    0    0 -0.76473286941E+00  0.45147011009E+00  0.77738769752E+00  0.90007757121E+02  0.90000018715E+02 0.  0.
        -12    1    1    2    0    0  0.76473286941E+00 -0.45147011009E+00 -0.77738769752E+00  0.11802428793E+01  0.00000000000E+00 0.  1.
         11    1    3    3    0    0  0.10405671984E+02  0.24627620606E+02  0.28519557629E+02  0.39091723853E+02  0.51100000000E-03 0. -1.
        -11    1    3    3    0    0  0.65449941689E+01 -0.45270156997E+01  0.45526053565E+01  0.91682624095E+01  0.51100000000E-03 0.  1.
        -12    1    3    3    0    0 -0.17715399022E+02 -0.19649134796E+02 -0.32294775288E+02  0.41747770859E+02  0.00000000000E+00 0.  1.
</event>
<event>
 7    1  0.2879200E-015  0.9000771E+02  0.7816164E-02  0.1186339E+00
        -11   -1    0    0    0    0  0.00000000000E+00  0.00000000000E+00  0.45593999997E+02  0.45594000000E+02  0.51100000000E-03 0. -1.
         11   -1    0    0    0    0 -0.00000000000E+00 -0.00000000000E+00 -0.45593999997E+02  0.45594000000E+02  0.51100000000E-03 0.  1.
    9900012    2    1    2    0    0  0.41962931827E+00  0.10568052291E+01  0.31646655452E+00  0.90007713112E+02  0.89999974125E+02 0.  0.
        -12    1    1    2    0    0 -0.41962931827E+00 -0.10568052291E+01 -0.31646655452E+00  0.11802868876E+01  0.00000000000E+00 0.  1.
         11    1    3    3    0    0 -0.28218495041E+02 -0.19899478170E+02  0.20399414257E+02  0.40104972212E+02  0.51100000000E-03 0. -1.
        -11    1    3    3    0    0  0.17869154896E+01  0.35578089676E+01  0.69544274691E+01  0.80134345508E+01  0.51100000000E-03 0.  1.
        -12    1    3    3    0    0  0.26851208870E+02  0.17398474432E+02 -0.27037375171E+02  0.41889306350E+02  0.00000000000E+00 0.  1.
</event>
<event>
 7    1  0.2879200E-015  0.9000752E+02  0.7816164E-02  0.1186339E+00
        -11   -1    0    0    0    0  0.00000000000E+00  0.00000000000E+00  0.45593999997E+02  0.45594000000E+02  0.51100000000E-03 0.  1.
         11   -1    0    0    0    0 -0.00000000000E+00 -0.00000000000E+00 -0.45593999997E+02  0.45594000000E+02  0.51100000000E-03 0. -1.
    9900012    2    1    2    0    0 -0.11367869678E+01  0.18464295855E+00  0.25912291859E+00  0.90007524537E+02  0.89999783060E+02 0.  0.
        -12    1    1    2    0    0  0.11367869678E+01 -0.18464295855E+00 -0.25912291859E+00  0.11804754632E+01  0.00000000000E+00 0.  1.
         11    1    3    3    0    0  0.10016137520E+01 -0.10076796933E+02 -0.39671993634E+01  0.10875832731E+02  0.51100000000E-03 0. -1.
        -11    1    3    3    0    0 -0.22524050785E+02 -0.14298613301E+02  0.28494883872E+02  0.39035133063E+02  0.51100000000E-03 0.  1.
         12    1    3    3    0    0  0.20385650065E+02  0.24560053193E+02 -0.24268561590E+02  0.40096558743E+02  0.00000000000E+00 0. -1.
</event>
<event>
 7    1  0.2879200E-015  0.9000775E+02  0.7816164E-02  0.1186339E+00
        -11   -1    0    0    0    0  0.00000000000E+00  0.00000000000E+00  0.45593999997E+02  0.45594000000E+02  0.51100000000E-03 0. -1.
         11   -1    0    0    0    0 -0.00000000000E+00 -0.00000000000E+00 -0.45593999997E+02  0.45594000000E+02  0.51100000000E-03 0.  1.
    9900012    2    1    2    0    0 -0.54107497523E+00  0.70506492536E+00  0.77660111266E+00  0.90007750888E+02  0.90000012400E+02 0.  0.
        -12    1    1    2    0    0  0.54107497523E+00 -0.70506492536E+00 -0.77660111266E+00  0.11802491118E+01  0.00000000000E+00 0.  1.
         11    1    3    3    0    0 -0.10751335818E+02  0.56579845595E+01  0.36429391855E+02  0.38401882797E+02  0.51100000000E-03 0. -1.
        -11    1    3    3    0    0  0.61307724332E+01 -0.66573438072E+01  0.52513870480E+01  0.10463444145E+02  0.51100000000E-03 0.  1.
        -12    1    3    3    0    0  0.40794884095E+01  0.17044241731E+01 -0.40904177790E+02  0.41142423946E+02  0.00000000000E+00 0.  1.
</event>
<event>
 7    1  0.2879200E-015  0.9000778E+02  0.7816164E-02  0.1186339E+00
        -11   -1    0    0    0    0  0.00000000000E+00  0.00000000000E+00  0.45593999997E+02  0.45594000000E+02  0.51100000000E-03 0.  1.
         11   -1    0    0    0    0 -0.00000000000E+00 -0.00000000000E+00 -0.45593999997E+02  0.45594000000E+02  0.51100000000E-03 0. -1.
    9900012    2    1    2    0    0 -0.12599716966E+00  0.11717590451E+01  0.63427135991E-01  0.90007780720E+02  0.90000042626E+02 0.  0.
        -12    1    1    2    0    0  0.12599716966E+00 -0.11717590451E+01 -0.63427135991E-01  0.11802192796E+01  0.00000000000E+00 0.  1.
         11    1    3    3    0    0 -0.82993359405E+01  0.14954015236E+01 -0.43688627330E+01  0.94974820142E+01  0.51100000000E-03 0. -1.
        -11    1    3    3    0    0 -0.12558124323E+02  0.27095625041E+02  0.26279527858E+02  0.39780560172E+02  0.51100000000E-03 0.  1.
         12    1    3    3    0    0  0.20731463094E+02 -0.27419267520E+02 -0.21847237989E+02  0.40729738534E+02  0.00000000000E+00 0. -1.
</event>
<event>
 7    1  0.2879200E-015  0.9000773E+02  0.7816164E-02  0.1186339E+00
        -11   -1    0    0    0    0  0.00000000000E+00  0.00000000000E+00  0.45593999997E+02  0.45594000000E+02  0.51100000000E-03 0.  1.
         11   -1    0    0    0    0 -0.00000000000E+00 -0.00000000000E+00 -0.45593999997E+02  0.45594000000E+02  0.51100000000E-03 0. -1.
    9900012    2    1    2    0    0  0.10028936775E+01  0.46683603198E-01 -0.62053812280E+00  0.90007727723E+02  0.89999988928E+02 0.  0.
        -12    1    1    2    0    0 -0.10028936775E+01 -0.46683603198E-01  0.62053812280E+00  0.11802722775E+01  0.00000000000E+00 0.  1.
         11    1    3    3    0    0 -0.34014500572E+01  0.97525576209E+01 -0.30036810622E+01  0.10756595318E+02  0.51100000000E-03 0. -1.
        -11    1    3    3    0    0 -0.34491590170E+02  0.73606417969E+01  0.86562387017E+01  0.36315001154E+02  0.51100000000E-03 0.  1.
         12    1    3    3    0    0  0.38895933904E+02 -0.17066515815E+02 -0.62730957622E+01  0.42936131251E+02  0.00000000000E+00 0. -1.
</event>
<event>
 7    1  0.2879200E-015  0.9000727E+02  0.7816164E-02  0.1186340E+00
        -11   -1    0    0    0    0  0.00000000000E+00  0.00000000000E+00  0.45593999997E+02  0.45594000000E+02  0.51100000000E-03 0. -1.
         11   -1    0    0    0    0 -0.00000000000E+00 -0.00000000000E+00 -0.45593999997E+02  0.45594000000E+02  0.51100000000E-03 0.  1.
    9900012    2    1    2    0    0  0.11020193976E+00 -0.57584056316E+00  0.10248872555E+01  0.90007266877E+02  0.89999521998E+02 0.  0.
        -12    1    1    2    0    0 -0.11020193976E+00  0.57584056316E+00 -0.10248872555E+01  0.11807331231E+01  0.00000000000E+00 0.  1.
         11    1    3    3    0    0  0.76898469744E+01  0.67946969236E+01 -0.32041989500E+01  0.10750281110E+02  0.51100000000E-03 0. -1.
        -11    1    3    3    0    0 -0.18069348301E+02  0.17850970846E+02 -0.27469188609E+02  0.37412762946E+02  0.51100000000E-03 0.  1.
         12    1    3    3    0    0  0.10489703266E+02 -0.25221508333E+02  0.31698274815E+02  0.41844222820E+02  0.00000000000E+00 0. -1.
</event>
<event>
 7    1  0.2879200E-015  0.9000780E+02  0.7816164E-02  0.1186339E+00
        -11   -1    0    0    0    0  0.00000000000E+00  0.00000000000E+00  0.45593999997E+02  0.45594000000E+02  0.51100000000E-03 0.  1.
         11   -1    0    0    0    0 -0.00000000000E+00 -0.00000000000E+00 -0.45593999997E+02  0.45594000000E+02  0.51100000000E-03 0. -1.
    9900012    2    1    2    0    0 -0.64995945188E+00 -0.76144436482E+00  0.62499953510E+00  0.90007801191E+02  0.90000063367E+02 0.  0.
        -12    1    1    2    0    0  0.64995945188E+00  0.76144436482E+00 -0.62499953510E+00  0.11801988090E+01  0.00000000000E+00 0.  1.
         11    1    3    3    0    0 -0.89469014531E+01 -0.12766126021E+02  0.10442064862E+02  0.18763201700E+02  0.51100000000E-03 0. -1.
        -11    1    3    3    0    0  0.98659696543E+01  0.14116068577E+02  0.28250571030E+02  0.33086183115E+02  0.51100000000E-03 0.  1.
         12    1    3    3    0    0 -0.15690276531E+01 -0.21113869207E+01 -0.38067636357E+02  0.38158416376E+02  0.00000000000E+00 0. -1.
</event>
<event>
 7    1  0.2879200E-015  0.9000762E+02  0.7816164E-02  0.1186339E+00
        -11   -1    0    0    0    0  0.00000000000E+00  0.00000000000E+00  0.45593999997E+02  0.45594000000E+02  0.51100000000E-03 0.  1.
         11   -1    0    0    0    0 -0.00000000000E+00 -0.00000000000E+00 -0.45593999997E+02  0.45594000000E+02  0.51100000000E-03 0. -1.
    9900012    2    1    2    0    0  0.11409781474E+01  0.23176861805E+00  0.19430445708E+00  0.90007617839E+02  0.89999877594E+02 0.  0.
        -12    1    1    2    0    0 -0.11409781474E+01 -0.23176861805E+00 -0.19430445708E+00  0.11803821615E+01  0.00000000000E+00 0.  1.
         11    1    3    3    0    0  0.51105775768E+01 -0.72081803574E+01  0.14324970217E+01  0.89514197316E+01  0.51100000000E-03 0. -1.
        -11    1    3    3    0    0  0.23061888016E+02  0.34804422959E+02 -0.64267207446E+01  0.42243357776E+02  0.51100000000E-03 0.  1.
         12    1    3    3    0    0 -0.27031487445E+02 -0.27364473984E+02  0.51885281800E+01  0.38812840331E+02  0.00000000000E+00 0. -1.
</event>
<event>
 7    1  0.2879200E-015  0.9000775E+02  0.7816164E-02  0.1186339E+00
        -11   -1    0    0    0    0  0.00000000000E+00  0.00000000000E+00  0.45593999997E+02  0.45594000000E+02  0.51100000000E-03 0.  1.
         11   -1    0    0    0    0 -0.00000000000E+00 -0.00000000000E+00 -0.45593999997E+02  0.45594000000E+02  0.51100000000E-03 0. -1.
    9900012    2    1    2    0    0  0.33048746703E+00 -0.63310477031E+00 -0.93965460642E+00  0.90007748164E+02  0.90000009640E+02 0.  0.
        -12    1    1    2    0    0 -0.33048746703E+00  0.63310477031E+00  0.93965460642E+00  0.11802518356E+01  0.00000000000E+00 0.  1.
         11    1    3    3    0    0 -0.39689971539E+01 -0.36710400600E+02 -0.20060238994E+02  0.42021656790E+02  0.51100000000E-03 0. -1.
        -11    1    3    3    0    0 -0.41091732719E+01  0.73846674489E+01 -0.47790188338E+01  0.97086373701E+01  0.51100000000E-03 0.  1.
        -12    1    3    3    0    0  0.84086578928E+01  0.28692628380E+02  0.23899603222E+02  0.38277454005E+02  0.00000000000E+00 0.  1.
</event>
<event>
 7    1  0.2879200E-015  0.9000774E+02  0.7816164E-02  0.1186339E+00
        -11   -1    0    0    0    0  0.00000000000E+00  0.00000000000E+00  0.45593999997E+02  0.45594000000E+02  0.51100000000E-03 0.  1.
         11   -1    0    0    0    0 -0.00000000000E+00 -0.00000000000E+00 -0.45593999997E+02  0.45594000000E+02  0.51100000000E-03 0. -1.
    9900012    2    1    2    0    0 -0.52744453307E+00  0.38689482350E+00 -0.98241070206E+00  0.90007738958E+02  0.90000000312E+02 0.  0.
        -12    1    1    2    0    0  0.52744453307E+00 -0.38689482350E+00  0.98241070206E+00  0.11802610421E+01  0.00000000000E+00 0.  1.
         11    1    3    3    0    0  0.47518182135E+01 -0.44075949430E+01  0.58432921793E+01  0.87264387506E+01  0.51100000000E-03 0. -1.
        -11    1    3    3    0    0 -0.24830633369E+02  0.35087232873E+01  0.30282461376E+02  0.39317921611E+02  0.51100000000E-03 0.  1.
         12    1    3    3    0    0  0.19551370623E+02  0.12857664792E+01 -0.37108164257E+02  0.41963378596E+02  0.00000000000E+00 0. -1.
</event>
<event>
 7    1  0.2879200E-015  0.9000769E+02  0.7816164E-02  0.1186339E+00
        -11   -1    0    0    0    0  0.00000000000E+00  0.00000000000E+00  0.45593999997E+02  0.45594000000E+02  0.51100000000E-03 0. -1.
         11   -1    0    0    0    0 -0.00000000000E+00 -0.00000000000E+00 -0.45593999997E+02  0.45594000000E+02  0.51100000000E-03 0.  1.
    9900012    2    1    2    0    0 -0.10901489766E+01 -0.16292919806E+00  0.42208437599E+00  0.90007692440E+02  0.89999953181E+02 0.  0.
        -12    1    1    2    0    0  0.10901489766E+01  0.16292919806E+00 -0.42208437599E+00  0.11803075595E+01  0.00000000000E+00 0.  1.
         11    1    3    3    0    0 -0.25459672266E+02 -0.25802134769E+02  0.85368384340E+01  0.37240068223E+02  0.51100000000E-03 0. -1.
        -11    1    3    3    0    0 -0.13803218493E+01 -0.53471778006E+01  0.77086238752E+01  0.94826410429E+01  0.51100000000E-03 0.  1.
        -12    1    3    3    0    0  0.25749845139E+02  0.30986383372E+02 -0.15823377933E+02  0.43284983174E+02  0.00000000000E+00 0.  1.
</event>
<event>
 7    1  0.2879200E-015  0.9000766E+02  0.7816164E-02  0.1186339E+00
        -11   -1    0    0    0    0  0.00000000000E+00  0.00000000000E+00  0.45593999997E+02  0.45594000000E+02  0.51100000000E-03 0.  1.
         11   -1    0    0    0    0 -0.00000000000E+00 -0.00000000000E+00 -0.45593999997E+02  0.45594000000E+02  0.51100000000E-03 0. -1.
    9900012    2    1    2    0    0 -0.47985824985E+00 -0.99607477555E+00 -0.41325614835E+00  0.90007657023E+02  0.89999917296E+02 0.  0.
        -12    1    1    2    0    0  0.47985824985E+00  0.99607477555E+00  0.41325614835E+00  0.11803429767E+01  0.00000000000E+00 0.  1.
         11    1    3    3    0    0  0.57536544907E+01 -0.91600438324E+01  0.57970320616E+00  0.10832681989E+02  0.51100000000E-03 0. -1.
        -11    1    3    3    0    0  0.10854265631E+02  0.35673613962E+02  0.18239094703E+02  0.41510075781E+02  0.51100000000E-03 0.  1.
         12    1    3    3    0    0 -0.17087778371E+02 -0.27509644905E+02 -0.19232054058E+02  0.37664899253E+02  0.00000000000E+00 0. -1.
</event>
<event>
 7    1  0.2879200E-015  0.9000750E+02  0.7816164E-02  0.1186340E+00
        -11   -1    0    0    0    0  0.00000000000E+00  0.00000000000E+00  0.45593999997E+02  0.45594000000E+02  0.51100000000E-03 0.  1.
         11   -1    0    0    0    0 -0.00000000000E+00 -0.00000000000E+00 -0.45593999997E+02  0.45594000000E+02  0.51100000000E-03 0. -1.
    9900012    2    1    2    0    0 -0.48947887061E-01  0.88043184364E+00 -0.78487868743E+00  0.90007495582E+02  0.89999753723E+02 0.  0.
        -12    1    1    2    0    0  0.48947887061E-01 -0.88043184364E+00  0.78487868743E+00  0.11805044180E+01  0.00000000000E+00 0.  1.
         11    1    3    3    0    0  0.13082775344E+02  0.60930052335E+01  0.17730556191E+01  0.14540545037E+02  0.51100000000E-03 0. -1.
        -11    1    3    3    0    0  0.15333875687E+02 -0.19984365110E+02  0.23267517923E+02  0.34291106471E+02  0.51100000000E-03 0.  1.
         12    1    3    3    0    0 -0.28465598918E+02  0.14771791720E+02 -0.25825452229E+02  0.41175844074E+02  0.00000000000E+00 0. -1.
</event>
<event>
 7    1  0.2879200E-015  0.9000779E+02  0.7816164E-02  0.1186339E+00
        -11   -1    0    0    0    0  0.00000000000E+00  0.00000000000E+00  0.45593999997E+02  0.45594000000E+02  0.51100000000E-03 0. -1.
         11   -1    0    0    0    0 -0.00000000000E+00 -0.00000000000E+00 -0.45593999997E+02  0.45594000000E+02  0.51100000000E-03 0.  1.
    9900012    2    1    2    0    0  0.21490997894E+00 -0.41484763073E-01  0.11597388602E+01  0.90007787516E+02  0.90000049511E+02 0.  0.
        -12    1    1    2    0    0 -0.21490997894E+00  0.41484763073E-01 -0.11597388602E+01  0.11802124844E+01  0.00000000000E+00 0.  1.
         11    1    3    3    0    0  0.13754372773E+02  0.48273285274E-01  0.24912693060E+02  0.28457466093E+02  0.51100000000E-03 0. -1.
        -11    1    3    3    0    0  0.24007130775E+01 -0.22412750953E+02  0.35840801666E+01  0.22824120125E+02  0.51100000000E-03 0.  1.
        -12    1    3    3    0    0 -0.15940175871E+02  0.22322992905E+02 -0.27337034366E+02  0.38726201298E+02  0.00000000000E+00 0.  1.
</event>
<event>
 7    1  0.2879200E-015  0.9000760E+02  0.7816164E-02  0.1186339E+00
        -11   -1    0    0    0    0  0.00000000000E+00  0.00000000000E+00  0.45593999997E+02  0.45594000000E+02  0.51100000000E-03 0.  1.
         11   -1    0    0    0    0 -0.00000000000E+00 -0.00000000000E+00 -0.45593999997E+02  0.45594000000E+02  0.51100000000E-03 0. -1.
    9900012    2    1    2    0    0  0.77617021626E+00  0.67912146652E-01 -0.88672552808E+00  0.90007604123E+02  0.89999863697E+02 0.  0.
        -12    1    1    2    0    0 -0.77617021626E+00 -0.67912146652E-01  0.88672552808E+00  0.11803958770E+01  0.00000000000E+00 0.  1.
         11    1    3    3    0    0 -0.17042998279E+02 -0.29907218270E+02  0.63333249280E+01  0.35000235712E+02  0.51100000000E-03 0. -1.
        -11    1    3    3    0    0 -0.36863318968E+01 -0.79833677223E+01 -0.72238924432E+01  0.11380150497E+02  0.51100000000E-03 0.  1.
        -12    1    3    3    0    0  0.21505500393E+02  0.37958498139E+02  0.38419871121E-02  0.43627217914E+02  0.00000000000E+00 0.  1.
</event>
<event>
 7    1  0.2879200E-015  0.9000794E+02  0.7816164E-02  0.1186339E+00
        -11   -1    0    0    0    0  0.00000000000E+00  0.00000000000E+00  0.45593999997E+02  0.45594000000E+02  0.51100000000E-03 0.  1.
         11   -1    0    0    0    0 -0.00000000000E+00 -0.00000000000E+00 -0.45593999997E+02  0.45594000000E+02  0.51100000000E-03 0. -1.
    9900012    2    1    2    0    0 -0.88575218078E+00  0.37788933151E+00 -0.68204195289E+00  0.90007941316E+02  0.90000205341E+02 0.  0.
        -12    1    1    2    0    0  0.88575218078E+00 -0.37788933151E+00  0.68204195289E+00  0.11800586842E+01  0.00000000000E+00 0.  1.
         11    1    3    3    0    0  0.18657095259E+01  0.29650081471E+01  0.89127822061E+01  0.95765250619E+01  0.51100000000E-03 0. -1.
        -11    1    3    3    0    0  0.31151098841E+02  0.38359984684E+01  0.18059755203E+02  0.36211332502E+02  0.51100000000E-03 0.  1.
         12    1    3    3    0    0 -0.33902560548E+02 -0.64231172839E+01 -0.27654579362E+02  0.44220083752E+02  0.00000000000E+00 0. -1.
</event>
<event>
 7    1  0.2879200E-015  0.9000778E+02  0.7816164E-02  0.1186339E+00
        -11   -1    0    0    0    0  0.00000000000E+00  0.00000000000E+00  0.45593999997E+02  0.45594000000E+02  0.51100000000E-03 0.  1.
         11   -1    0    0    0    0 -0.00000000000E+00 -0.00000000000E+00 -0.45593999997E+02  0.45594000000E+02  0.51100000000E-03 0. -1.
    9900012    2    1    2    0    0  0.60354837535E+00  0.43228800478E+00 -0.91747783750E+00  0.90007784281E+02  0.90000046234E+02 0.  0.
        -12    1    1    2    0    0 -0.60354837535E+00 -0.43228800478E+00  0.91747783750E+00  0.11802157187E+01  0.00000000000E+00 0.  1.
         11    1    3    3    0    0  0.64482672502E+00 -0.71159412718E+01 -0.58142901585E+01  0.92118614838E+01  0.51100000000E-03 0. -1.
        -11    1    3    3    0    0  0.42091945053E+01 -0.36138452286E+02 -0.16356884493E+01  0.36419507533E+02  0.51100000000E-03 0.  1.
         12    1    3    3    0    0 -0.42504728549E+01  0.43686681562E+02  0.65325007703E+01  0.44376415264E+02  0.00000000000E+00 0. -1.
</event>
<event>
 7    1  0.2879200E-015  0.9000770E+02  0.7816164E-02  0.1186339E+00
        -11   -1    0    0    0    0  0.00000000000E+00  0.00000000000E+00  0.45593999997E+02  0.45594000000E+02  0.51100000000E-03 0.  1.
         11   -1    0    0    0    0 -0.00000000000E+00 -0.00000000000E+00 -0.45593999997E+02  0.45594000000E+02  0.51100000000E-03 0. -1.
    9900012    2    1    2    0    0  0.27343934855E-01  0.10453388066E+01 -0.54738183357E+00  0.90007700130E+02  0.89999960972E+02 0.  0.
        -12    1    1    2    0    0 -0.27343934855E-01 -0.10453388066E+01  0.54738183357E+00  0.11802998700E+01  0.00000000000E+00 0.  1.
         11    1    3    3    0    0  0.35845366236E+02  0.13489322318E+01 -0.22632425793E+02  0.42413872687E+02  0.51100000000E-03 0. -1.
        -11    1    3    3    0    0 -0.15788288262E+01  0.68599263451E+01  0.51977417004E+01  0.87503033643E+01  0.51100000000E-03 0.  1.
        -12    1    3    3    0    0 -0.34239193475E+02 -0.71635197703E+01  0.16887302259E+02  0.38843524079E+02  0.00000000000E+00 0.  1.
</event>
<event>
 7    1  0.2879200E-015  0.9000770E+02  0.7816164E-02  0.1186339E+00
        -11   -1    0    0    0    0  0.00000000000E+00  0.00000000000E+00  0.45593999997E+02  0.45594000000E+02  0.51100000000E-03 0. -1.
         11   -1    0    0    0    0 -0.00000000000E+00 -0.00000000000E+00 -0.45593999997E+02  0.45594000000E+02  0.51100000000E-03 0.  1.
    9900012    2    1    2    0    0  0.88504596065E+00 -0.77032066058E+00  0.12806379286E+00  0.90007703170E+02  0.89999964052E+02 0.  0.
        -12    1    1    2    0    0 -0.88504596065E+00  0.77032066058E+00 -0.12806379286E+00  0.11802968303E+01  0.00000000000E+00 0.  1.
         11    1    3    3    0    0 -0.90192754324E+00  0.38976657166E+02  0.92135324209E+01  0.40060984225E+02  0.51100000000E-03 0. -1.
        -11    1    3    3    0    0  0.38766632293E+01 -0.21552988927E+01  0.75729455716E+01  0.87762939788E+01  0.51100000000E-03 0.  1.
        -12    1    3    3    0    0 -0.20896897254E+01 -0.37591678934E+02 -0.16658414200E+02  0.41170424966E+02  0.00000000000E+00 0.  1.
</event>
<event>
 7    1  0.2879200E-015  0.9000771E+02  0.7816164E-02  0.1186339E+00
        -11   -1    0    0    0    0  0.00000000000E+00  0.00000000000E+00  0.45593999997E+02  0.45594000000E+02  0.51100000000E-03 0.  1.
         11   -1    0    0    0    0 -0.00000000000E+00 -0.00000000000E+00 -0.45593999997E+02  0.45594000000E+02  0.51100000000E-03 0. -1.
    9900012    2    1    2    0    0 -0.19366026372E+00 -0.11336204842E+01 -0.26547571828E+00  0.90007713146E+02  0.89999974160E+02 0.  0.
        -12    1    1    2    0    0  0.19366026372E+00  0.11336204842E+01  0.26547571828E+00  0.11802868536E+01  0.00000000000E+00 0.  1.
         11    1    3    3    0    0 -0.36213772338E+02  0.15313673986E+02 -0.11619161577E+02  0.40999400409E+02  0.51100000000E-03 0. -1.
        -11    1    3    3    0    0  0.51125453276E+01 -0.30222175022E+01 -0.81418512207E+01  0.10077780506E+02  0.51100000000E-03 0.  1.
        -12    1    3    3    0    0  0.30907566747E+02 -0.13425076968E+02  0.19495537079E+02  0.38930532231E+02  0.00000000000E+00 0.  1.
</event>
<event>
 7    1  0.2879200E-015  0.9000774E+02  0.7816164E-02  0.1186339E+00
        -11   -1    0    0    0    0  0.00000000000E+00  0.00000000000E+00  0.45593999997E+02  0.45594000000E+02  0.51100000000E-03 0. -1.
         11   -1    0    0    0    0 -0.00000000000E+00 -0.00000000000E+00 -0.45593999997E+02  0.45594000000E+02  0.51100000000E-03 0.  1.
    9900012    2    1    2    0    0  0.92082955148E+00  0.56691018513E+00  0.47297213309E+00  0.90007738648E+02  0.89999999998E+02 0.  0.
        -12    1    1    2    0    0 -0.92082955148E+00 -0.56691018513E+00 -0.47297213309E+00  0.11802613522E+01  0.00000000000E+00 0.  1.
         11    1    3    3    0    0 -0.86426718789E+01 -0.14040413497E+01  0.47772706122E+01  0.99744385347E+01  0.51100000000E-03 0. -1.
        -11    1    3    3    0    0 -0.12114261996E+02  0.46612431902E+01 -0.37843573990E+02  0.40007732058E+02  0.51100000000E-03 0.  1.
         12    1    3    3    0    0  0.21677763427E+02 -0.26902916553E+01  0.33539275511E+02  0.40025568056E+02  0.00000000000E+00 0. -1.
</event>
<event>
 7    1  0.2879200E-015  0.9000792E+02  0.7816164E-02  0.1186339E+00
        -11   -1    0    0    0    0  0.00000000000E+00  0.00000000000E+00  0.45593999997E+02  0.45594000000E+02  0.51100000000E-03 0.  1.
         11   -1    0    0    0    0 -0.00000000000E+00 -0.00000000000E+00 -0.45593999997E+02  0.45594000000E+02  0.51100000000E-03 0. -1.
    9900012    2    1    2    0    0  0.73221848759E+00  0.20582007328E+00 -0.90226045144E+00  0.90007923842E+02  0.90000187637E+02 0.  0.
        -12    1    1    2    0    0 -0.73221848759E+00 -0.20582007328E+00  0.90226045144E+00  0.11800761579E+01  0.00000000000E+00 0.  1.
         11    1    3    3    0    0  0.73694492066E+01  0.50872155999E+01  0.18460394719E+01  0.91431070300E+01  0.51100000000E-03 0. -1.
        -11    1    3    3    0    0  0.23689286951E+02  0.26967023406E+02  0.48999129636E+01  0.36227224775E+02  0.51100000000E-03 0.  1.
         12    1    3    3    0    0 -0.30326517670E+02 -0.31848418932E+02 -0.76482128869E+01  0.44637592037E+02  0.00000000000E+00 0. -1.
</event>
<event>
 7    1  0.2879200E-015  0.9000799E+02  0.7816164E-02  0.1186339E+00
        -11   -1    0    0    0    0  0.00000000000E+00  0.00000000000E+00  0.45593999997E+02  0.45594000000E+02  0.51100000000E-03 0.  1.
         11   -1    0    0    0    0 -0.00000000000E+00 -0.00000000000E+00 -0.45593999997E+02  0.45594000000E+02  0.51100000000E-03 0. -1.
    9900012    2    1    2    0    0 -0.83385959715E+00  0.83371966479E+00  0.44894435481E-01  0.90007989060E+02  0.90000253716E+02 0.  0.
        -12    1    1    2    0    0  0.83385959715E+00 -0.83371966479E+00 -0.44894435481E-01  0.11800109396E+01  0.00000000000E+00 0.  1.
         11    1    3    3    0    0  0.29131884323E+02  0.17549755023E+02  0.22320103303E+01  0.34082876287E+02  0.51100000000E-03 0. -1.
        -11    1    3    3    0    0  0.64457933880E+01  0.73345517494E+01  0.60923032976E+01  0.11509129485E+02  0.51100000000E-03 0.  1.
        -12    1    3    3    0    0 -0.36411537309E+02 -0.24050587107E+02 -0.82794191924E+01  0.44415983289E+02  0.00000000000E+00 0.  1.
</event>
<event>
 7    1  0.4284572E-015  0.9000774E+02  0.7816164E-02  0.1186339E+00
        -11   -1    0    0    0    0  0.00000000000E+00  0.00000000000E+00  0.45593999997E+02  0.45594000000E+02  0.51100000000E-03 0. -1.
         11   -1    0    0    0    0 -0.00000000000E+00 -0.00000000000E+00 -0.45593999997E+02  0.45594000000E+02  0.51100000000E-03 0.  1.
    9900012    2    1    2    0    0 -0.35711323128E+00 -0.41906872996E+00  0.10439663745E+01  0.90007739753E+02  0.90000001117E+02 0.  0.
        -12    1    1    2    0    0  0.35711323128E+00  0.41906872996E+00 -0.10439663745E+01  0.11802602473E+01  0.00000000000E+00 0.  1.
         11    1    3    3    0    0 -0.80468017311E+01 -0.24409835083E+02  0.27562079919E+02  0.37686327980E+02  0.51100000000E-03 0. -1.
        -11    1    3    3    0    0 -0.80349068121E+01  0.70028701437E+00  0.54679946361E+01  0.97441826227E+01  0.51100000000E-03 0.  1.
        -12    1    3    3    0    0  0.15724595312E+02  0.23290479339E+02 -0.31986108181E+02  0.42577229150E+02  0.00000000000E+00 0.  1.
</event>
<event>
 7    1  0.2879200E-015  0.9000778E+02  0.7816164E-02  0.1186339E+00
        -11   -1    0    0    0    0  0.00000000000E+00  0.00000000000E+00  0.45593999997E+02  0.45594000000E+02  0.51100000000E-03 0.  1.
         11   -1    0    0    0    0 -0.00000000000E+00 -0.00000000000E+00 -0.45593999997E+02  0.45594000000E+02  0.51100000000E-03 0. -1.
    9900012    2    1    2    0    0  0.10967724535E+01 -0.25292567458E+00 -0.35502753928E+00  0.90007777239E+02  0.90000039099E+02 0.  0.
        -12    1    1    2    0    0 -0.10967724535E+01  0.25292567458E+00  0.35502753928E+00  0.11802227608E+01  0.00000000000E+00 0.  1.
         11    1    3    3    0    0 -0.56114522723E+01 -0.36464687637E+02  0.20680621952E+02  0.42294798329E+02  0.51100000000E-03 0. -1.
        -11    1    3    3    0    0 -0.67346929223E+01  0.88486205237E+01 -0.85690805069E+00  0.11152957706E+02  0.51100000000E-03 0.  1.
        -12    1    3    3    0    0  0.13442917648E+02  0.27363141439E+02 -0.20178741441E+02  0.36560021204E+02  0.00000000000E+00 0.  1.
</event>
<event>
 7    1  0.2879200E-015  0.9000769E+02  0.7816164E-02  0.1186339E+00
        -11   -1    0    0    0    0  0.00000000000E+00  0.00000000000E+00  0.45593999997E+02  0.45594000000E+02  0.51100000000E-03 0.  1.
         11   -1    0    0    0    0 -0.00000000000E+00 -0.00000000000E+00 -0.45593999997E+02  0.45594000000E+02  0.51100000000E-03 0. -1.
    9900012    2    1    2    0    0  0.65384655795E+00 -0.52749191728E+00 -0.82908272192E+00  0.90007685972E+02  0.89999946627E+02 0.  0.
        -12    1    1    2    0    0 -0.65384655795E+00  0.52749191728E+00  0.82908272192E+00  0.11803140277E+01  0.00000000000E+00 0.  1.
         11    1    3    3    0    0 -0.19228721708E+02  0.36623357838E+02  0.90780109566E+01  0.42348841318E+02  0.51100000000E-03 0. -1.
        -11    1    3    3    0    0  0.14811295637E+01 -0.66657646081E+01 -0.99291746281E+01  0.12050505037E+02  0.51100000000E-03 0.  1.
        -12    1    3    3    0    0  0.18401438702E+02 -0.30485085147E+02  0.22080949596E-01  0.35608339617E+02  0.00000000000E+00 0.  1.
</event>
<event>
 7    1  0.3172919E-015  0.9000775E+02  0.7816164E-02  0.1186339E+00
        -11   -1    0    0    0    0  0.00000000000E+00  0.00000000000E+00  0.45593999997E+02  0.45594000000E+02  0.51100000000E-03 0. -1.
         11   -1    0    0    0    0 -0.00000000000E+00 -0.00000000000E+00 -0.45593999997E+02  0.45594000000E+02  0.51100000000E-03 0.  1.
    9900012    2    1    2    0    0  0.11797090407E+01 -0.18161101681E-01  0.30611755176E-01  0.90007754125E+02  0.90000015679E+02 0.  0.
        -12    1    1    2    0    0 -0.11797090407E+01  0.18161101681E-01 -0.30611755176E-01  0.11802458752E+01  0.00000000000E+00 0.  1.
         11    1    3    3    0    0  0.35829008750E+02  0.14163362399E+01  0.84696345787E+01  0.36843704843E+02  0.51100000000E-03 0. -1.
        -11    1    3    3    0    0  0.65082724894E+01  0.40094377601E+01  0.54480909740E+01  0.93869535777E+01  0.51100000000E-03 0.  1.
        -12    1    3    3    0    0 -0.41157572199E+02 -0.54439351017E+01 -0.13887113797E+02  0.43777095705E+02  0.00000000000E+00 0.  1.
</event>
<event>
 7    1  0.2879200E-015  0.9000768E+02  0.7816164E-02  0.1186339E+00
        -11   -1    0    0    0    0  0.00000000000E+00  0.00000000000E+00  0.45593999997E+02  0.45594000000E+02  0.51100000000E-03 0.  1.
         11   -1    0    0    0    0 -0.00000000000E+00 -0.00000000000E+00 -0.45593999997E+02  0.45594000000E+02  0.51100000000E-03 0. -1.
    9900012    2    1    2    0    0 -0.20171425249E+00  0.98876501977E+00 -0.61220957882E+00  0.90007684164E+02  0.89999944795E+02 0.  0.
        -12    1    1    2    0    0  0.20171425249E+00 -0.98876501977E+00  0.61220957882E+00  0.11803158359E+01  0.00000000000E+00 0.  1.
         11    1    3    3    0    0  0.18894566715E+02  0.26878844460E+02  0.36909343991E+00  0.32857467357E+02  0.51100000000E-03 0. -1.
        -11    1    3    3    0    0  0.37802573303E+00  0.12167104185E+02  0.64226079134E+01  0.13763401483E+02  0.51100000000E-03 0.  1.
        -12    1    3    3    0    0 -0.19474306700E+02 -0.38057183625E+02 -0.74039109321E+01  0.43386815325E+02  0.00000000000E+00 0.  1.
</event>
<event>
 7    1  0.2879200E-015  0.9000740E+02  0.7816164E-02  0.1186340E+00
        -11   -1    0    0    0    0  0.00000000000E+00  0.00000000000E+00  0.45593999997E+02  0.45594000000E+02  0.51100000000E-03 0.  1.
         11   -1    0    0    0    0 -0.00000000000E+00 -0.00000000000E+00 -0.45593999997E+02  0.45594000000E+02  0.51100000000E-03 0. -1.
    9900012    2    1    2    0    0 -0.71861892811E+00 -0.93046534497E+00 -0.10783094852E+00  0.90007404203E+02  0.89999661138E+02 0.  0.
        -12    1    1    2    0    0  0.71861892811E+00  0.93046534497E+00  0.10783094852E+00  0.11805957968E+01  0.00000000000E+00 0.  1.
         11    1    3    3    0    0  0.38422665644E+00  0.10095619881E+02 -0.60489143673E+01  0.11775335927E+02  0.51100000000E-03 0. -1.
        -11    1    3    3    0    0 -0.12800155459E+02  0.29357172714E+02  0.14775894792E+02  0.35270591670E+02  0.51100000000E-03 0.  1.
         12    1    3    3    0    0  0.11697309874E+02 -0.40383257941E+02 -0.88348113736E+01  0.42961476606E+02  0.00000000000E+00 0. -1.
</event>
<event>
 7    1  0.2879200E-015  0.9000770E+02  0.7816164E-02  0.1186339E+00
        -11   -1    0    0    0    0  0.00000000000E+00  0.00000000000E+00  0.45593999997E+02  0.45594000000E+02  0.51100000000E-03 0. -1.
         11   -1    0    0    0    0 -0.00000000000E+00 -0.00000000000E+00 -0.45593999997E+02  0.45594000000E+02  0.51100000000E-03 0.  1.
    9900012    2    1    2    0    0 -0.12183249423E+00  0.86633577903E+00 -0.79229067246E+00  0.90007701161E+02  0.89999962017E+02 0.  0.
        -12    1    1    2    0    0  0.12183249423E+00 -0.86633577903E+00  0.79229067246E+00  0.11802988386E+01  0.00000000000E+00 0.  1.
         11    1    3    3    0    0  0.38463391609E+01 -0.64846047493E+01 -0.60882521328E+01  0.96907810825E+01  0.51100000000E-03 0. -1.
        -11    1    3    3    0    0 -0.67884935488E+00  0.35933529823E+02 -0.20756431025E+02  0.41503118330E+02  0.51100000000E-03 0.  1.
         12    1    3    3    0    0 -0.32893223003E+01 -0.28582589294E+02  0.26052392486E+02  0.38813801749E+02  0.00000000000E+00 0. -1.
</event>
<event>
 7    1  0.2879200E-015  0.9000772E+02  0.7816164E-02  0.1186339E+00
        -11   -1    0    0    0    0  0.00000000000E+00  0.00000000000E+00  0.45593999997E+02  0.45594000000E+02  0.51100000000E-03 0.  1.
         11   -1    0    0    0    0 -0.00000000000E+00 -0.00000000000E+00 -0.45593999997E+02  0.45594000000E+02  0.51100000000E-03 0. -1.
    9900012    2    1    2    0    0 -0.10716947274E+01  0.37063616408E+00 -0.32737003531E+00  0.90007715333E+02  0.89999976376E+02 0.  0.
        -12    1    1    2    0    0  0.10716947274E+01 -0.37063616408E+00  0.32737003531E+00  0.11802846669E+01  0.00000000000E+00 0.  1.
         11    1    3    3    0    0 -0.71696310930E+01 -0.41986701996E+01 -0.58540062631E+01  0.10163750835E+02  0.51100000000E-03 0. -1.
        -11    1    3    3    0    0 -0.43193610963E+01 -0.23366566890E+02  0.32077743360E+02  0.39920357561E+02  0.51100000000E-03 0.  1.
         12    1    3    3    0    0  0.10417297462E+02  0.27935873254E+02 -0.26551107132E+02  0.39923606936E+02  0.00000000000E+00 0. -1.
</event>
<event>
 7    1  0.2879200E-015  0.9000765E+02  0.7816164E-02  0.1186339E+00
        -11   -1    0    0    0    0  0.00000000000E+00  0.00000000000E+00  0.45593999997E+02  0.45594000000E+02  0.51100000000E-03 0. -1.
         11   -1    0    0    0    0 -0.00000000000E+00 -0.00000000000E+00 -0.45593999997E+02  0.45594000000E+02  0.51100000000E-03 0.  1.
    9900012    2    1    2    0    0 -0.11011640342E+01 -0.33023960009E+00 -0.26760848256E+00  0.90007646357E+02  0.89999906488E+02 0.  0.
        -12    1    1    2    0    0  0.11011640342E+01  0.33023960009E+00  0.26760848256E+00  0.11803536434E+01  0.00000000000E+00 0.  1.
         11    1    3    3    0    0 -0.72252908646E+01 -0.28752592872E+01 -0.47202036460E+01  0.90968272913E+01  0.51100000000E-03 0. -1.
        -11    1    3    3    0    0 -0.34802702004E+02  0.14222189361E+01  0.16058709514E+02  0.38355350670E+02  0.51100000000E-03 0.  1.
         12    1    3    3    0    0  0.40926828835E+02  0.11228007510E+01 -0.11606114351E+02  0.42555468395E+02  0.00000000000E+00 0. -1.
</event>
<event>
 7    1  0.2879200E-015  0.9000776E+02  0.7816164E-02  0.1186339E+00
        -11   -1    0    0    0    0  0.00000000000E+00  0.00000000000E+00  0.45593999997E+02  0.45594000000E+02  0.51100000000E-03 0.  1.
         11   -1    0    0    0    0 -0.00000000000E+00 -0.00000000000E+00 -0.45593999997E+02  0.45594000000E+02  0.51100000000E-03 0. -1.
    9900012    2    1    2    0    0 -0.65232795921E+00  0.24575792871E+00  0.95238460281E+00  0.90007760551E+02  0.90000022190E+02 0.  0.
        -12    1    1    2    0    0  0.65232795921E+00 -0.24575792871E+00 -0.95238460281E+00  0.11802394492E+01  0.00000000000E+00 0.  1.
         11    1    3    3    0    0 -0.28747702554E+01  0.27587564551E+02 -0.23393553277E+02  0.36284932921E+02  0.51100000000E-03 0. -1.
        -11    1    3    3    0    0 -0.47665866586E+01  0.31314835633E+01 -0.72825895170E+01  0.92500080008E+01  0.51100000000E-03 0.  1.
        -12    1    3    3    0    0  0.69890289548E+01 -0.30473290186E+02  0.31628527396E+02  0.44472819629E+02  0.00000000000E+00 0.  1.
</event>
<event>
 7    1  0.2879200E-015  0.9000756E+02  0.7816164E-02  0.1186339E+00
        -11   -1    0    0    0    0  0.00000000000E+00  0.00000000000E+00  0.45593999997E+02  0.45594000000E+02  0.51100000000E-03 0.  1.
         11   -1    0    0    0    0 -0.00000000000E+00 -0.00000000000E+00 -0.45593999997E+02  0.45594000000E+02  0.51100000000E-03 0. -1.
    9900012    2    1    2    0    0 -0.59257339677E+00 -0.10202645475E+01 -0.36847590919E-01  0.90007559098E+02  0.89999818078E+02 0.  0.
        -12    1    1    2    0    0  0.59257339677E+00  0.10202645475E+01  0.36847590919E-01  0.11804409017E+01  0.00000000000E+00 0.  1.
         11    1    3    3    0    0 -0.21076673966E+02 -0.27225899103E+02  0.21922121728E+02  0.40817339315E+02  0.51100000000E-03 0. -1.
        -11    1    3    3    0    0  0.95859546797E+01 -0.27418856404E+01  0.18706635302E+01  0.10144350462E+02  0.51100000000E-03 0.  1.
        -12    1    3    3    0    0  0.10898145889E+02  0.28947520196E+02 -0.23829632849E+02  0.39045869321E+02  0.00000000000E+00 0.  1.
</event>
<event>
 7    1  0.2879200E-015  0.9000838E+02  0.7816164E-02  0.1186338E+00
        -11   -1    0    0    0    0  0.00000000000E+00  0.00000000000E+00  0.45593999997E+02  0.45594000000E+02  0.51100000000E-03 0.  1.
         11   -1    0    0    0    0 -0.00000000000E+00 -0.00000000000E+00 -0.45593999997E+02  0.45594000000E+02  0.51100000000E-03 0. -1.
    9900012    2    1    2    0    0  0.35675517957E+00  0.50962158994E-01 -0.11232266868E+01  0.90008377353E+02  0.90000647132E+02 0.  0.
        -12    1    1    2    0    0 -0.35675517957E+00 -0.50962158994E-01  0.11232266868E+01  0.11796226472E+01  0.00000000000E+00 0.  1.
         11    1    3    3    0    0  0.36914321823E+02  0.12059446280E+02  0.94328120438E+01  0.39963425073E+02  0.51100000000E-03 0. -1.
        -11    1    3    3    0    0  0.45627233851E+01 -0.57036048823E+01 -0.11507770334E+01  0.73941761802E+01  0.51100000000E-03 0.  1.
        -12    1    3    3    0    0 -0.41120290029E+02 -0.63048792391E+01 -0.94052616972E+01  0.42650776099E+02  0.00000000000E+00 0.  1.
</event>
<event>
 7    1  0.2879200E-015  0.9000773E+02  0.7816164E-02  0.1186339E+00
        -11   -1    0    0    0    0  0.00000000000E+00  0.00000000000E+00  0.45593999997E+02  0.45594000000E+02  0.51100000000E-03 0.  1.
         11   -1    0    0    0    0 -0.00000000000E+00 -0.00000000000E+00 -0.45593999997E+02  0.45594000000E+02  0.51100000000E-03 0. -1.
    9900012    2    1    2    0    0 -0.62445305259E+00 -0.54164217318E+00 -0.84245377851E+00  0.90007726207E+02  0.89999987392E+02 0.  0.
        -12    1    1    2    0    0  0.62445305259E+00  0.54164217318E+00  0.84245377851E+00  0.11802737935E+01  0.00000000000E+00 0.  1.
         11    1    3    3    0    0  0.67220170752E+00 -0.80157381623E+01 -0.39308254611E+01  0.89529493737E+01  0.51100000000E-03 0. -1.
        -11    1    3    3    0    0 -0.29614079053E+02 -0.20582129395E+02 -0.12620509548E+02  0.38208572207E+02  0.51100000000E-03 0.  1.
         12    1    3    3    0    0  0.28317424293E+02  0.28056225384E+02  0.15708881231E+02  0.42846204626E+02  0.00000000000E+00 0. -1.
</event>
<event>
 7    1  0.2879200E-015  0.9000787E+02  0.7816164E-02  0.1186339E+00
        -11   -1    0    0    0    0  0.00000000000E+00  0.00000000000E+00  0.45593999997E+02  0.45594000000E+02  0.51100000000E-03 0.  1.
         11   -1    0    0    0    0 -0.00000000000E+00 -0.00000000000E+00 -0.45593999997E+02  0.45594000000E+02  0.51100000000E-03 0. -1.
    9900012    2    1    2    0    0 -0.77423608120E+00 -0.54516183496E+00  0.70431661904E+00  0.90007870839E+02  0.90000133934E+02 0.  0.
        -12    1    1    2    0    0  0.77423608120E+00  0.54516183496E+00 -0.70431661904E+00  0.11801291606E+01  0.00000000000E+00 0.  1.
         11    1    3    3    0    0 -0.17780052675E+01  0.20974451058E+02  0.82495260262E+00  0.21065836014E+02  0.51100000000E-03 0. -1.
        -11    1    3    3    0    0  0.14611600689E+02  0.20271215206E+02  0.26605267732E+00  0.24989834431E+02  0.51100000000E-03 0.  1.
         12    1    3    3    0    0 -0.13607831503E+02 -0.41790828099E+02 -0.38668866089E+00  0.43952200394E+02  0.00000000000E+00 0. -1.
</event>
<event>
 7    1  0.2879200E-015  0.9000771E+02  0.7816164E-02  0.1186339E+00
        -11   -1    0    0    0    0  0.00000000000E+00  0.00000000000E+00  0.45593999997E+02  0.45594000000E+02  0.51100000000E-03 0. -1.
         11   -1    0    0    0    0 -0.00000000000E+00 -0.00000000000E+00 -0.45593999997E+02  0.45594000000E+02  0.51100000000E-03 0.  1.
    9900012    2    1    2    0    0  0.87505187221E+00 -0.29606810731E+00  0.73465807200E+00  0.90007705721E+02  0.89999966636E+02 0.  0.
        -12    1    1    2    0    0 -0.87505187221E+00  0.29606810731E+00 -0.73465807200E+00  0.11802942794E+01  0.00000000000E+00 0.  1.
         11    1    3    3    0    0  0.86184127040E+01  0.55014307646E+01  0.26523759623E+01  0.10563042957E+02  0.51100000000E-03 0. -1.
        -11    1    3    3    0    0  0.12389417869E+02  0.32784455252E+02 -0.66381711711E+01  0.35670484971E+02  0.51100000000E-03 0.  1.
         12    1    3    3    0    0 -0.20132778701E+02 -0.38581954124E+02  0.47204532808E+01  0.43774177793E+02  0.00000000000E+00 0. -1.
</event>
<event>
 7    1  0.2879200E-015  0.9000776E+02  0.7816164E-02  0.1186339E+00
        -11   -1    0    0    0    0  0.00000000000E+00  0.00000000000E+00  0.45593999997E+02  0.45594000000E+02  0.51100000000E-03 0. -1.
         11   -1    0    0    0    0 -0.00000000000E+00 -0.00000000000E+00 -0.45593999997E+02  0.45594000000E+02  0.51100000000E-03 0.  1.
    9900012    2    1    2    0    0  0.25442869911E+00  0.11469295348E+01  0.11308233962E+00  0.90007758950E+02  0.90000020568E+02 0.  0.
        -12    1    1    2    0    0 -0.25442869911E+00 -0.11469295348E+01 -0.11308233962E+00  0.11802410501E+01  0.00000000000E+00 0.  1.
         11    1    3    3    0    0 -0.10716536560E+02 -0.68908172941E+01  0.33067837221E+02  0.35437400830E+02  0.51100000000E-03 0. -1.
        -11    1    3    3    0    0 -0.20856542433E+01 -0.10975005846E+02  0.32576489954E+01  0.11636708477E+02  0.51100000000E-03 0.  1.
        -12    1    3    3    0    0  0.13056619502E+02  0.19012752675E+02 -0.36212403877E+02  0.42933649643E+02  0.00000000000E+00 0.  1.
</event>
<event>
 7    1  0.2879200E-015  0.9000774E+02  0.7816164E-02  0.1186339E+00
        -11   -1    0    0    0    0  0.00000000000E+00  0.00000000000E+00  0.45593999997E+02  0.45594000000E+02  0.51100000000E-03 0.  1.
         11   -1    0    0    0    0 -0.00000000000E+00 -0.00000000000E+00 -0.45593999997E+02  0.45594000000E+02  0.51100000000E-03 0. -1.
    9900012    2    1    2    0    0  0.91616265201E+00  0.63008798692E+00 -0.39579486614E+00  0.90007737973E+02  0.89999999314E+02 0.  0.
        -12    1    1    2    0    0 -0.91616265201E+00 -0.63008798692E+00  0.39579486614E+00  0.11802620270E+01  0.00000000000E+00 0.  1.
         11    1    3    3    0    0 -0.39854523539E+02  0.51484198425E+01 -0.10492963520E+02  0.41533017674E+02  0.51100000000E-03 0. -1.
        -11    1    3    3    0    0  0.30438863935E-01  0.54605743626E+01  0.91321730745E+00  0.55364939272E+01  0.51100000000E-03 0.  1.
        -12    1    3    3    0    0  0.40740247328E+02 -0.99789062182E+01  0.91839513463E+01  0.42938226372E+02  0.00000000000E+00 0.  1.
</event>
<event>
 7    1  0.2879200E-015  0.9000774E+02  0.7816164E-02  0.1186339E+00
        -11   -1    0    0    0    0  0.00000000000E+00  0.00000000000E+00  0.45593999997E+02  0.45594000000E+02  0.51100000000E-03 0. -1.
         11   -1    0    0    0    0 -0.00000000000E+00 -0.00000000000E+00 -0.45593999997E+02  0.45594000000E+02  0.51100000000E-03 0.  1.
    9900012    2    1    2    0    0 -0.87071931502E+00 -0.66162022703E+00 -0.44399005136E+00  0.90007737056E+02  0.89999998386E+02 0.  0.
        -12    1    1    2    0    0  0.87071931502E+00  0.66162022703E+00  0.44399005136E+00  0.11802629436E+01  0.00000000000E+00 0.  1.
         11    1    3    3    0    0 -0.58831447548E+01  0.50046791588E+01  0.61315292757E+00  0.77481715561E+01  0.51100000000E-03 0. -1.
        -11    1    3    3    0    0  0.86050978270E+01  0.36067043598E+02 -0.11988015330E+02  0.38969114107E+02  0.51100000000E-03 0.  1.
         12    1    3    3    0    0 -0.35926723872E+01 -0.41733342984E+02  0.10930872351E+02  0.43290451393E+02  0.00000000000E+00 0. -1.
</event>
<event>
 7    1  0.2879200E-015  0.9000760E+02  0.7816164E-02  0.1186339E+00
        -11   -1    0    0    0    0  0.00000000000E+00  0.00000000000E+00  0.45593999997E+02  0.45594000000E+02  0.51100000000E-03 0. -1.
         11   -1    0    0    0    0 -0.00000000000E+00 -0.00000000000E+00 -0.45593999997E+02  0.45594000000E+02  0.51100000000E-03 0.  1.
    9900012    2    1    2    0    0  0.73309217014E+00  0.78982514365E+00  0.48177124621E+00  0.90007596924E+02  0.89999856404E+02 0.  0.
        -12    1    1    2    0    0 -0.73309217014E+00 -0.78982514365E+00 -0.48177124621E+00  0.11804030757E+01  0.00000000000E+00 0.  1.
         11    1    3    3    0    0  0.21783861612E+02 -0.10339289630E+02  0.36314710648E+02  0.43591234744E+02  0.51100000000E-03 0. -1.
        -11    1    3    3    0    0  0.62207701242E+00  0.66029079821E+01 -0.43638053532E+01  0.79390283443E+01  0.51100000000E-03 0.  1.
        -12    1    3    3    0    0 -0.21672846455E+02  0.45262067912E+01 -0.31469134049E+02  0.38477333836E+02  0.00000000000E+00 0.  1.
</event>
<event>
 7    1  0.2879200E-015  0.9000782E+02  0.7816164E-02  0.1186339E+00
        -11   -1    0    0    0    0  0.00000000000E+00  0.00000000000E+00  0.45593999997E+02  0.45594000000E+02  0.51100000000E-03 0.  1.
         11   -1    0    0    0    0 -0.00000000000E+00 -0.00000000000E+00 -0.45593999997E+02  0.45594000000E+02  0.51100000000E-03 0. -1.
    9900012    2    1    2    0    0 -0.60524030313E+00 -0.13090943707E+00 -0.10046756286E+01  0.90007819410E+02  0.90000081827E+02 0.  0.
        -12    1    1    2    0    0  0.60524030313E+00  0.13090943707E+00  0.10046756286E+01  0.11801805896E+01  0.00000000000E+00 0.  1.
         11    1    3    3    0    0  0.27699619257E+02  0.28777322976E+02 -0.14329876268E+02  0.42435228040E+02  0.51100000000E-03 0. -1.
        -11    1    3    3    0    0 -0.95318862754E+01  0.14753036606E+01  0.62205510969E+00  0.96654192707E+01  0.51100000000E-03 0.  1.
        -12    1    3    3    0    0 -0.18772973285E+02 -0.30383536073E+02  0.12703145529E+02  0.37907172100E+02  0.00000000000E+00 0.  1.
</event>
<event>
 7    1  0.2879200E-015  0.9000727E+02  0.7816164E-02  0.1186340E+00
        -11   -1    0    0    0    0  0.00000000000E+00  0.00000000000E+00  0.45593999997E+02  0.45594000000E+02  0.51100000000E-03 0. -1.
         11   -1    0    0    0    0 -0.00000000000E+00 -0.00000000000E+00 -0.45593999997E+02  0.45594000000E+02  0.51100000000E-03 0.  1.
    9900012    2    1    2    0    0 -0.53656707111E+00 -0.42478660772E+00  0.96217681611E+00  0.90007266283E+02  0.89999521397E+02 0.  0.
        -12    1    1    2    0    0  0.53656707111E+00  0.42478660772E+00 -0.96217681611E+00  0.11807337165E+01  0.00000000000E+00 0.  1.
         11    1    3    3    0    0 -0.10604300821E+02 -0.31324760025E+01 -0.30397171679E+00  0.11061464680E+02  0.51100000000E-03 0. -1.
        -11    1    3    3    0    0  0.35250021593E+02 -0.98249314575E+01 -0.21777433426E+02  0.42583446400E+02  0.51100000000E-03 0.  1.
         12    1    3    3    0    0 -0.25182287843E+02  0.12532620852E+02  0.23043581959E+02  0.36362355203E+02  0.00000000000E+00 0. -1.
</event>
<event>
 7    1  0.2879200E-015  0.9000749E+02  0.7816164E-02  0.1186340E+00
        -11   -1    0    0    0    0  0.00000000000E+00  0.00000000000E+00  0.45593999997E+02  0.45594000000E+02  0.51100000000E-03 0. -1.
         11   -1    0    0    0    0 -0.00000000000E+00 -0.00000000000E+00 -0.45593999997E+02  0.45594000000E+02  0.51100000000E-03 0.  1.
    9900012    2    1    2    0    0  0.25442817243E+00 -0.29816371110E+00  0.11135348148E+01  0.90007493720E+02  0.89999751837E+02 0.  0.
        -12    1    1    2    0    0 -0.25442817243E+00  0.29816371110E+00 -0.11135348148E+01  0.11805062801E+01  0.00000000000E+00 0.  1.
         11    1    3    3    0    0  0.69773643018E+01 -0.36997036969E+01 -0.65753831300E+01  0.10276530719E+02  0.51100000000E-03 0. -1.
        -11    1    3    3    0    0  0.69741942052E+01  0.39491904693E+02 -0.11908173543E+01  0.40120667583E+02  0.51100000000E-03 0.  1.
         12    1    3    3    0    0 -0.13697130335E+02 -0.36090364707E+02  0.88797352992E+01  0.39610295418E+02  0.00000000000E+00 0. -1.
</event>
<event>
 7    1  0.2879200E-015  0.9000758E+02  0.7816164E-02  0.1186339E+00
        -11   -1    0    0    0    0  0.00000000000E+00  0.00000000000E+00  0.45593999997E+02  0.45594000000E+02  0.51100000000E-03 0.  1.
         11   -1    0    0    0    0 -0.00000000000E+00 -0.00000000000E+00 -0.45593999997E+02  0.45594000000E+02  0.51100000000E-03 0. -1.
    9900012    2    1    2    0    0 -0.67352325399E+00  0.86785383870E+00 -0.43195031693E+00  0.90007582728E+02  0.89999842020E+02 0.  0.
        -12    1    1    2    0    0  0.67352325399E+00 -0.86785383870E+00  0.43195031693E+00  0.11804172717E+01  0.00000000000E+00 0.  1.
         11    1    3    3    0    0  0.22547027905E+02  0.25491378300E+02  0.12279557656E+02  0.36179640289E+02  0.51100000000E-03 0. -1.
        -11    1    3    3    0    0  0.90696796562E+01  0.18651552082E+01  0.21354709605E+01  0.95025327940E+01  0.51100000000E-03 0.  1.
        -12    1    3    3    0    0 -0.32290230815E+02 -0.26488679670E+02 -0.14846978934E+02  0.44325409645E+02  0.00000000000E+00 0.  1.
</event>
<event>
 7    1  0.2879200E-015  0.9000769E+02  0.7816164E-02  0.1186339E+00
        -11   -1    0    0    0    0  0.00000000000E+00  0.00000000000E+00  0.45593999997E+02  0.45594000000E+02  0.51100000000E-03 0.  1.
         11   -1    0    0    0    0 -0.00000000000E+00 -0.00000000000E+00 -0.45593999997E+02  0.45594000000E+02  0.51100000000E-03 0. -1.
    9900012    2    1    2    0    0 -0.30661241051E+00  0.32641251592E+00 -0.10920456163E+01  0.90007694985E+02  0.89999955759E+02 0.  0.
        -12    1    1    2    0    0  0.30661241051E+00 -0.32641251592E+00  0.10920456163E+01  0.11803050152E+01  0.00000000000E+00 0.  1.
         11    1    3    3    0    0  0.88650945625E+01 -0.28236210837E+01 -0.23755937426E+01  0.96024050902E+01  0.51100000000E-03 0. -1.
        -11    1    3    3    0    0 -0.54443979824E+01  0.82204814257E+01  0.39991536750E+02  0.41189085887E+02  0.51100000000E-03 0.  1.
         12    1    3    3    0    0 -0.37273089906E+01 -0.50704478261E+01 -0.38707988624E+02  0.39216204008E+02  0.00000000000E+00 0. -1.
</event>
<event>
 7    1  0.2879200E-015  0.9000769E+02  0.7816164E-02  0.1186339E+00
        -11   -1    0    0    0    0  0.00000000000E+00  0.00000000000E+00  0.45593999997E+02  0.45594000000E+02  0.51100000000E-03 0.  1.
         11   -1    0    0    0    0 -0.00000000000E+00 -0.00000000000E+00 -0.45593999997E+02  0.45594000000E+02  0.51100000000E-03 0. -1.
    9900012    2    1    2    0    0  0.10087025571E+01 -0.57906715405E+00 -0.20081587115E+00  0.90007692145E+02  0.89999952882E+02 0.  0.
        -12    1    1    2    0    0 -0.10087025571E+01  0.57906715405E+00  0.20081587115E+00  0.11803078546E+01  0.00000000000E+00 0.  1.
         11    1    3    3    0    0 -0.26324684416E+02 -0.21431962314E+02  0.10268444245E+02  0.35464897655E+02  0.51100000000E-03 0. -1.
        -11    1    3    3    0    0 -0.93773545534E+01 -0.25150200240E+01 -0.41926819277E+01  0.10575381135E+02  0.51100000000E-03 0.  1.
        -12    1    3    3    0    0  0.36710741526E+02  0.23367915184E+02 -0.62765781887E+01  0.43967413356E+02  0.00000000000E+00 0.  1.
</event>
<event>
 7    1  0.2879200E-015  0.9000783E+02  0.7816164E-02  0.1186339E+00
        -11   -1    0    0    0    0  0.00000000000E+00  0.00000000000E+00  0.45593999997E+02  0.45594000000E+02  0.51100000000E-03 0.  1.
         11   -1    0    0    0    0 -0.00000000000E+00 -0.00000000000E+00 -0.45593999997E+02  0.45594000000E+02  0.51100000000E-03 0. -1.
    9900012    2    1    2    0    0 -0.87646910303E+00 -0.19393847156E+00  0.76615205435E+00  0.90007830864E+02  0.90000093431E+02 0.  0.
        -12    1    1    2    0    0  0.87646910303E+00  0.19393847156E+00 -0.76615205435E+00  0.11801691361E+01  0.00000000000E+00 0.  1.
         11    1    3    3    0    0 -0.56555703639E+01 -0.13628394711E+01 -0.64516606350E+01  0.86871590739E+01  0.51100000000E-03 0. -1.
        -11    1    3    3    0    0 -0.20760474833E+02  0.28622506075E+02  0.21286715660E+02  0.41271896409E+02  0.51100000000E-03 0.  1.
         12    1    3    3    0    0  0.25539576094E+02 -0.27453605075E+02 -0.14068902971E+02  0.40048775381E+02  0.00000000000E+00 0. -1.
</event>
<event>
 7    1  0.2879200E-015  0.9000771E+02  0.7816164E-02  0.1186339E+00
        -11   -1    0    0    0    0  0.00000000000E+00  0.00000000000E+00  0.45593999997E+02  0.45594000000E+02  0.51100000000E-03 0.  1.
         11   -1    0    0    0    0 -0.00000000000E+00 -0.00000000000E+00 -0.45593999997E+02  0.45594000000E+02  0.51100000000E-03 0. -1.
    9900012    2    1    2    0    0  0.85651891547E+00  0.28353544334E+00 -0.76096913960E+00  0.90007707226E+02  0.89999968162E+02 0.  0.
        -12    1    1    2    0    0 -0.85651891547E+00 -0.28353544334E+00  0.76096913960E+00  0.11802927737E+01  0.00000000000E+00 0.  1.
         11    1    3    3    0    0  0.10935205478E+02 -0.31573839344E+01 -0.33800499188E+01  0.11873185330E+02  0.51100000000E-03 0. -1.
        -11    1    3    3    0    0 -0.58528226672E+01 -0.30435076246E+02  0.22801161042E+02  0.38476516792E+02  0.51100000000E-03 0.  1.
         12    1    3    3    0    0 -0.42258638953E+01  0.33875995624E+02 -0.20182080263E+02  0.39658005105E+02  0.00000000000E+00 0. -1.
</event>
<event>
 7    1  0.2879200E-015  0.9000783E+02  0.7816164E-02  0.1186339E+00
        -11   -1    0    0    0    0  0.00000000000E+00  0.00000000000E+00  0.45593999997E+02  0.45594000000E+02  0.51100000000E-03 0.  1.
         11   -1    0    0    0    0 -0.00000000000E+00 -0.00000000000E+00 -0.45593999997E+02  0.45594000000E+02  0.51100000000E-03 0. -1.
    9900012    2    1    2    0    0 -0.26368993543E+00  0.11197352961E+01  0.26353690002E+00  0.90007834243E+02  0.90000096855E+02 0.  0.
        -12    1    1    2    0    0  0.26368993543E+00 -0.11197352961E+01 -0.26353690002E+00  0.11801657566E+01  0.00000000000E+00 0.  1.
         11    1    3    3    0    0  0.24387924054E+01 -0.94271993858E+01  0.28285652025E+01  0.10140048226E+02  0.51100000000E-03 0. -1.
        -11    1    3    3    0    0  0.36765851269E+02  0.11238662321E+02  0.74094140603E+01  0.39152710855E+02  0.51100000000E-03 0.  1.
         12    1    3    3    0    0 -0.39468333610E+02 -0.69172763910E+00 -0.99744423628E+01  0.40715075163E+02  0.00000000000E+00 0. -1.
</event>
<event>
 7    1  0.2879200E-015  0.9000774E+02  0.7816164E-02  0.1186339E+00
        -11   -1    0    0    0    0  0.00000000000E+00  0.00000000000E+00  0.45593999997E+02  0.45594000000E+02  0.51100000000E-03 0. -1.
         11   -1    0    0    0    0 -0.00000000000E+00 -0.00000000000E+00 -0.45593999997E+02  0.45594000000E+02  0.51100000000E-03 0.  1.
    9900012    2    1    2    0    0 -0.92962851164E+00 -0.36224240389E+00  0.63054888236E+00  0.90007737054E+02  0.89999998383E+02 0.  0.
        -12    1    1    2    0    0  0.92962851164E+00  0.36224240389E+00 -0.63054888236E+00  0.11802629461E+01  0.00000000000E+00 0.  1.
         11    1    3    3    0    0 -0.23751206159E+02  0.26544843046E+02 -0.70309448472E+00  0.35626434406E+02  0.51100000000E-03 0. -1.
        -11    1    3    3    0    0 -0.73964383164E+01  0.58481188975E+01 -0.21808757313E+01  0.96780170296E+01  0.51100000000E-03 0.  1.
        -12    1    3    3    0    0  0.30218015964E+02 -0.32755204347E+02  0.35145190984E+01  0.44703285619E+02  0.00000000000E+00 0.  1.
</event>
<event>
 7    1  0.2879200E-015  0.9000767E+02  0.7816164E-02  0.1186339E+00
        -11   -1    0    0    0    0  0.00000000000E+00  0.00000000000E+00  0.45593999997E+02  0.45594000000E+02  0.51100000000E-03 0.  1.
         11   -1    0    0    0    0 -0.00000000000E+00 -0.00000000000E+00 -0.45593999997E+02  0.45594000000E+02  0.51100000000E-03 0. -1.
    9900012    2    1    2    0    0  0.91425070316E+00  0.37207619720E+00 -0.64720352363E+00  0.90007674856E+02  0.89999935364E+02 0.  0.
        -12    1    1    2    0    0 -0.91425070316E+00 -0.37207619720E+00  0.64720352363E+00  0.11803251441E+01  0.00000000000E+00 0.  1.
         11    1    3    3    0    0  0.98122837926E+01 -0.37046379950E+02  0.51689593868E+01  0.38670832963E+02  0.51100000000E-03 0. -1.
        -11    1    3    3    0    0 -0.56736370480E+01 -0.40025871939E+01 -0.68829384208E+01  0.97767941147E+01  0.51100000000E-03 0.  1.
        -12    1    3    3    0    0 -0.32243960415E+01  0.41421043341E+02  0.10667755103E+01  0.41560047778E+02  0.00000000000E+00 0.  1.
</event>
<event>
 7    1  0.2879200E-015  0.9000771E+02  0.7816164E-02  0.1186339E+00
        -11   -1    0    0    0    0  0.00000000000E+00  0.00000000000E+00  0.45593999997E+02  0.45594000000E+02  0.51100000000E-03 0. -1.
         11   -1    0    0    0    0 -0.00000000000E+00 -0.00000000000E+00 -0.45593999997E+02  0.45594000000E+02  0.51100000000E-03 0.  1.
    9900012    2    1    2    0    0 -0.44196937848E+00 -0.23381496845E+00  0.10691437433E+01  0.90007714139E+02  0.89999975165E+02 0.  0.
        -12    1    1    2    0    0  0.44196937848E+00  0.23381496845E+00 -0.10691437433E+01  0.11802858615E+01  0.00000000000E+00 0.  1.
         11    1    3    3    0    0  0.21711923975E+01 -0.12476191960E+01 -0.88625511282E+01  0.92095300014E+01  0.51100000000E-03 0. -1.
        -11    1    3    3    0    0 -0.12560408174E+01  0.15112280091E+02 -0.32608482618E+02  0.35962088190E+02  0.51100000000E-03 0.  1.
         12    1    3    3    0    0 -0.13571209586E+01 -0.14098475863E+02  0.42540177489E+02  0.44836095947E+02  0.00000000000E+00 0. -1.
</event>
<event>
 7    1  0.2879200E-015  0.9000768E+02  0.7816164E-02  0.1186339E+00
        -11   -1    0    0    0    0  0.00000000000E+00  0.00000000000E+00  0.45593999997E+02  0.45594000000E+02  0.51100000000E-03 0.  1.
         11   -1    0    0    0    0 -0.00000000000E+00 -0.00000000000E+00 -0.45593999997E+02  0.45594000000E+02  0.51100000000E-03 0. -1.
    9900012    2    1    2    0    0  0.29764388936E+00  0.11356707545E+01 -0.12169285061E+00  0.90007682629E+02  0.89999943239E+02 0.  0.
        -12    1    1    2    0    0 -0.29764388936E+00 -0.11356707545E+01  0.12169285061E+00  0.11803173714E+01  0.00000000000E+00 0.  1.
         11    1    3    3    0    0  0.52491100164E+01  0.90151969487E+01  0.47556620252E+01  0.11464870411E+02  0.51100000000E-03 0. -1.
        -11    1    3    3    0    0  0.19285958972E+02  0.21864441005E+02  0.17619267995E+02  0.34065240332E+02  0.51100000000E-03 0.  1.
         12    1    3    3    0    0 -0.24237425099E+02 -0.29743967199E+02 -0.22496622871E+02  0.44477571885E+02  0.00000000000E+00 0. -1.
</event>
<event>
 7    1  0.2879200E-015  0.9000769E+02  0.7816164E-02  0.1186339E+00
        -11   -1    0    0    0    0  0.00000000000E+00  0.00000000000E+00  0.45593999997E+02  0.45594000000E+02  0.51100000000E-03 0. -1.
         11   -1    0    0    0    0 -0.00000000000E+00 -0.00000000000E+00 -0.45593999997E+02  0.45594000000E+02  0.51100000000E-03 0.  1.
    9900012    2    1    2    0    0 -0.41608908163E+00  0.78442865373E+00  0.77760640471E+00  0.90007690652E+02  0.89999951368E+02 0.  0.
        -12    1    1    2    0    0  0.41608908163E+00 -0.78442865373E+00 -0.77760640471E+00  0.11803093481E+01  0.00000000000E+00 0.  1.
         11    1    3    3    0    0 -0.63154023907E+00  0.13363476169E+02 -0.15884697113E+02  0.20767882439E+02  0.51100000000E-03 0. -1.
        -11    1    3    3    0    0 -0.12707176759E+02  0.22363495067E+02  0.18897464020E+02  0.31917274311E+02  0.51100000000E-03 0.  1.
         12    1    3    3    0    0  0.12922627916E+02 -0.34942542582E+02 -0.22351605031E+01  0.37322533902E+02  0.00000000000E+00 0. -1.
</event>
<event>
 7    1  0.2879200E-015  0.9000778E+02  0.7816164E-02  0.1186339E+00
        -11   -1    0    0    0    0  0.00000000000E+00  0.00000000000E+00  0.45593999997E+02  0.45594000000E+02  0.51100000000E-03 0. -1.
         11   -1    0    0    0    0 -0.00000000000E+00 -0.00000000000E+00 -0.45593999997E+02  0.45594000000E+02  0.51100000000E-03 0.  1.
    9900012    2    1    2    0    0  0.63204423616E+00  0.97452107004E+00  0.20915137614E+00  0.90007781575E+02  0.90000043492E+02 0.  0.
        -12    1    1    2    0    0 -0.63204423616E+00 -0.97452107004E+00 -0.20915137614E+00  0.11802184249E+01  0.00000000000E+00 0.  1.
         11    1    3    3    0    0 -0.95242753145E+01  0.55012585310E+00  0.37584497722E+01  0.10253799475E+02  0.51100000000E-03 0. -1.
        -11    1    3    3    0    0 -0.32165852352E+02 -0.11030975091E+02  0.68608507186E+01  0.34689994837E+02  0.51100000000E-03 0.  1.
         12    1    3    3    0    0  0.42322171902E+02  0.11455370308E+02 -0.10410149115E+02  0.45063987263E+02  0.00000000000E+00 0. -1.
</event>
<event>
 7    1  0.2879200E-015  0.9000780E+02  0.7816164E-02  0.1186339E+00
        -11   -1    0    0    0    0  0.00000000000E+00  0.00000000000E+00  0.45593999997E+02  0.45594000000E+02  0.51100000000E-03 0. -1.
         11   -1    0    0    0    0 -0.00000000000E+00 -0.00000000000E+00 -0.45593999997E+02  0.45594000000E+02  0.51100000000E-03 0.  1.
    9900012    2    1    2    0    0 -0.80065443097E+00 -0.50567148307E+00  0.70436623471E+00  0.90007795374E+02  0.90000057473E+02 0.  0.
        -12    1    1    2    0    0  0.80065443097E+00  0.50567148307E+00 -0.70436623471E+00  0.11802046260E+01  0.00000000000E+00 0.  1.
         11    1    3    3    0    0  0.25746689201E+02  0.22449724799E+02 -0.17208150113E+02  0.38249216710E+02  0.51100000000E-03 0. -1.
        -11    1    3    3    0    0 -0.55762445766E+01  0.73631519999E+01 -0.25682050875E+01  0.95867715412E+01  0.51100000000E-03 0.  1.
        -12    1    3    3    0    0 -0.20971099056E+02 -0.30318548282E+02  0.20480721435E+02  0.42171807123E+02  0.00000000000E+00 0.  1.
</event>
<event>
 7    1  0.2879200E-015  0.9000800E+02  0.7816164E-02  0.1186339E+00
        -11   -1    0    0    0    0  0.00000000000E+00  0.00000000000E+00  0.45593999997E+02  0.45594000000E+02  0.51100000000E-03 0. -1.
         11   -1    0    0    0    0 -0.00000000000E+00 -0.00000000000E+00 -0.45593999997E+02  0.45594000000E+02  0.51100000000E-03 0.  1.
    9900012    2    1    2    0    0  0.76574757479E+00  0.89692407624E+00 -0.39411639278E-01  0.90008001939E+02  0.90000266764E+02 0.  0.
        -12    1    1    2    0    0 -0.76574757479E+00 -0.89692407624E+00  0.39411639278E-01  0.11799980611E+01  0.00000000000E+00 0.  1.
         11    1    3    3    0    0  0.14070945473E+02 -0.28638079803E+02  0.37136973770E+01  0.32123553194E+02  0.51100000000E-03 0.  1.
        -11    1    3    3    0    0 -0.19989789776E+02 -0.55404730135E+01 -0.73267229800E+01  0.21999304680E+02  0.51100000000E-03 0. -1.
         12    1    3    3    0    0  0.66845918778E+01  0.35075476893E+02  0.35736139638E+01  0.35885144066E+02  0.00000000000E+00 0. -1.
</event>
<event>
 7    1  0.2879200E-015  0.9000755E+02  0.7816164E-02  0.1186339E+00
        -11   -1    0    0    0    0  0.00000000000E+00  0.00000000000E+00  0.45593999997E+02  0.45594000000E+02  0.51100000000E-03 0. -1.
         11   -1    0    0    0    0 -0.00000000000E+00 -0.00000000000E+00 -0.45593999997E+02  0.45594000000E+02  0.51100000000E-03 0.  1.
    9900012    2    1    2    0    0 -0.10996060933E+00  0.73682964431E+00  0.91566508854E+00  0.90007554400E+02  0.89999813318E+02 0.  0.
        -12    1    1    2    0    0  0.10996060933E+00 -0.73682964431E+00 -0.91566508854E+00  0.11804456001E+01  0.00000000000E+00 0.  1.
         11    1    3    3    0    0 -0.24194392005E+02  0.25533507028E+02  0.74896481812E+00  0.35183654361E+02  0.51100000000E-03 0. -1.
        -11    1    3    3    0    0 -0.22420879289E+01  0.10468682676E+02 -0.13411844971E+01  0.10789766048E+02  0.51100000000E-03 0.  1.
        -12    1    3    3    0    0  0.26326519324E+02 -0.35265360060E+02  0.15078847676E+01  0.44034133991E+02  0.00000000000E+00 0.  1.
</event>
<event>
 7    1  0.2879200E-015  0.9000780E+02  0.7816164E-02  0.1186339E+00
        -11   -1    0    0    0    0  0.00000000000E+00  0.00000000000E+00  0.45593999997E+02  0.45594000000E+02  0.51100000000E-03 0. -1.
         11   -1    0    0    0    0 -0.00000000000E+00 -0.00000000000E+00 -0.45593999997E+02  0.45594000000E+02  0.51100000000E-03 0.  1.
    9900012    2    1    2    0    0 -0.41769289696E-01 -0.12096283576E+00  0.11732416225E+01  0.90007799769E+02  0.90000061926E+02 0.  0.
        -12    1    1    2    0    0  0.41769289696E-01  0.12096283576E+00 -0.11732416225E+01  0.11802002313E+01  0.00000000000E+00 0.  1.
         11    1    3    3    0    0  0.40503738571E+02 -0.33673204309E+01 -0.15974050365E+02  0.43669920660E+02  0.51100000000E-03 0. -1.
        -11    1    3    3    0    0 -0.85544428395E+01 -0.47522676262E+01  0.17364614881E+01  0.99387040727E+01  0.51100000000E-03 0.  1.
        -12    1    3    3    0    0 -0.31991065021E+02  0.79986252213E+01  0.15410830499E+02  0.36399175036E+02  0.00000000000E+00 0.  1.
</event>
<event>
 7    1  0.2879200E-015  0.9000773E+02  0.7816164E-02  0.1186339E+00
        -11   -1    0    0    0    0  0.00000000000E+00  0.00000000000E+00  0.45593999997E+02  0.45594000000E+02  0.51100000000E-03 0.  1.
         11   -1    0    0    0    0 -0.00000000000E+00 -0.00000000000E+00 -0.45593999997E+02  0.45594000000E+02  0.51100000000E-03 0. -1.
    9900012    2    1    2    0    0 -0.10243220091E+01 -0.97529497180E-01 -0.57818444576E+00  0.90007726797E+02  0.89999987990E+02 0.  0.
        -12    1    1    2    0    0  0.10243220091E+01  0.97529497180E-01  0.57818444576E+00  0.11802732033E+01  0.00000000000E+00 0.  1.
         11    1    3    3    0    0  0.65512825570E+01  0.47214750130E+01 -0.15902098811E+01  0.82304554653E+01  0.51100000000E-03 0. -1.
        -11    1    3    3    0    0 -0.25982261672E+02  0.29790322429E+02  0.11557519487E+02  0.41183946981E+02  0.51100000000E-03 0.  1.
         12    1    3    3    0    0  0.18406657106E+02 -0.34609326939E+02 -0.10545494051E+02  0.40593324350E+02  0.00000000000E+00 0. -1.
</event>
<event>
 7    1  0.2879200E-015  0.9000775E+02  0.7816164E-02  0.1186339E+00
        -11   -1    0    0    0    0  0.00000000000E+00  0.00000000000E+00  0.45593999997E+02  0.45594000000E+02  0.51100000000E-03 0. -1.
         11   -1    0    0    0    0 -0.00000000000E+00 -0.00000000000E+00 -0.45593999997E+02  0.45594000000E+02  0.51100000000E-03 0.  1.
    9900012    2    1    2    0    0 -0.10297201810E+01  0.25045093140E+00  0.51954947967E+00  0.90007753847E+02  0.90000015398E+02 0.  0.
        -12    1    1    2    0    0  0.10297201810E+01 -0.25045093140E+00 -0.51954947967E+00  0.11802461532E+01  0.00000000000E+00 0.  1.
         11    1    3    3    0    0 -0.65565741866E+01  0.88960113722E+01 -0.39745116624E+01  0.11744123067E+02  0.51100000000E-03 0. -1.
        -11    1    3    3    0    0 -0.32827203534E+02 -0.86221690506E+01 -0.12690738688E+02  0.36235644602E+02  0.51100000000E-03 0.  1.
         12    1    3    3    0    0  0.38354057540E+02 -0.23391390208E-01  0.17184799830E+02  0.42027986178E+02  0.00000000000E+00 0. -1.
</event>
<event>
 7    1  0.2879200E-015  0.9000773E+02  0.7816164E-02  0.1186339E+00
        -11   -1    0    0    0    0  0.00000000000E+00  0.00000000000E+00  0.45593999997E+02  0.45594000000E+02  0.51100000000E-03 0.  1.
         11   -1    0    0    0    0 -0.00000000000E+00 -0.00000000000E+00 -0.45593999997E+02  0.45594000000E+02  0.51100000000E-03 0. -1.
    9900012    2    1    2    0    0 -0.86427381580E-01 -0.10801867942E+01 -0.46772198317E+00  0.90007730092E+02  0.89999991329E+02 0.  0.
        -12    1    1    2    0    0  0.86427381580E-01  0.10801867942E+01  0.46772198317E+00  0.11802699082E+01  0.00000000000E+00 0.  1.
         11    1    3    3    0    0  0.80223934559E+01  0.18669904686E+02  0.27069595553E+02  0.33848000552E+02  0.51100000000E-03 0. -1.
        -11    1    3    3    0    0 -0.11370565893E+02  0.60748924740E+01  0.55711668714E+01  0.14043930642E+02  0.51100000000E-03 0.  1.
        -12    1    3    3    0    0  0.32617450555E+01 -0.25824983954E+02 -0.33108484407E+02  0.42115798898E+02  0.00000000000E+00 0.  1.
</event>
<event>
 7    1  0.2879200E-015  0.9000783E+02  0.7816164E-02  0.1186339E+00
        -11   -1    0    0    0    0  0.00000000000E+00  0.00000000000E+00  0.45593999997E+02  0.45594000000E+02  0.51100000000E-03 0.  1.
         11   -1    0    0    0    0 -0.00000000000E+00 -0.00000000000E+00 -0.45593999997E+02  0.45594000000E+02  0.51100000000E-03 0. -1.
    9900012    2    1    2    0    0  0.11704457248E+00  0.13701582603E+00 -0.11663310167E+01  0.90007830178E+02  0.90000092736E+02 0.  0.
        -12    1    1    2    0    0 -0.11704457248E+00 -0.13701582603E+00  0.11663310167E+01  0.11801698222E+01  0.00000000000E+00 0.  1.
         11    1    3    3    0    0 -0.12402406126E+02  0.24263601604E+02 -0.27604906932E+02  0.38788824776E+02  0.51100000000E-03 0. -1.
        -11    1    3    3    0    0  0.79947094325E+01  0.53885711031E+00 -0.61484874416E+01  0.10099982375E+02  0.51100000000E-03 0.  1.
        -12    1    3    3    0    0  0.45247412661E+01 -0.24665442889E+02  0.32587063357E+02  0.41119023026E+02  0.00000000000E+00 0.  1.
</event>
<event>
 7    1  0.2879200E-015  0.9000771E+02  0.7816164E-02  0.1186339E+00
        -11   -1    0    0    0    0  0.00000000000E+00  0.00000000000E+00  0.45593999997E+02  0.45594000000E+02  0.51100000000E-03 0. -1.
         11   -1    0    0    0    0 -0.00000000000E+00 -0.00000000000E+00 -0.45593999997E+02  0.45594000000E+02  0.51100000000E-03 0.  1.
    9900012    2    1    2    0    0 -0.78089483509E+00  0.50721749878E+00  0.72526558701E+00  0.90007713380E+02  0.89999974396E+02 0.  0.
        -12    1    1    2    0    0  0.78089483509E+00 -0.50721749878E+00 -0.72526558701E+00  0.11802866204E+01  0.00000000000E+00 0.  1.
         11    1    3    3    0    0 -0.13601682069E+01  0.39682953005E+02  0.33906752241E+01  0.39850765306E+02  0.51100000000E-03 0. -1.
        -11    1    3    3    0    0 -0.75860335142E+01  0.17735819010E+01 -0.31379152547E+01  0.83988100136E+01  0.51100000000E-03 0.  1.
        -12    1    3    3    0    0  0.81653068860E+01 -0.40949317407E+02  0.47250561762E+00  0.41758138060E+02  0.00000000000E+00 0.  1.
</event>
<event>
 7    1  0.2879200E-015  0.9000776E+02  0.7816164E-02  0.1186339E+00
        -11   -1    0    0    0    0  0.00000000000E+00  0.00000000000E+00  0.45593999997E+02  0.45594000000E+02  0.51100000000E-03 0.  1.
         11   -1    0    0    0    0 -0.00000000000E+00 -0.00000000000E+00 -0.45593999997E+02  0.45594000000E+02  0.51100000000E-03 0. -1.
    9900012    2    1    2    0    0 -0.77019670821E+00 -0.51021284480E+00  0.73447461611E+00  0.90007757195E+02  0.90000018790E+02 0.  0.
        -12    1    1    2    0    0  0.77019670821E+00  0.51021284480E+00 -0.73447461611E+00  0.11802428047E+01  0.00000000000E+00 0.  1.
         11    1    3    3    0    0 -0.69982818343E+01 -0.14574209405E+01  0.56682610437E+01  0.91230043270E+01  0.51100000000E-03 0. -1.
        -11    1    3    3    0    0 -0.13532603460E+02 -0.21472205814E+02  0.27062838967E+02  0.37102348068E+02  0.51100000000E-03 0.  1.
         12    1    3    3    0    0  0.19760688586E+02  0.22419413909E+02 -0.31996625395E+02  0.43782404800E+02  0.00000000000E+00 0. -1.
</event>
<event>
 7    1  0.2879200E-015  0.9000769E+02  0.7816164E-02  0.1186339E+00
        -11   -1    0    0    0    0  0.00000000000E+00  0.00000000000E+00  0.45593999997E+02  0.45594000000E+02  0.51100000000E-03 0.  1.
         11   -1    0    0    0    0 -0.00000000000E+00 -0.00000000000E+00 -0.45593999997E+02  0.45594000000E+02  0.51100000000E-03 0. -1.
    9900012    2    1    2    0    0 -0.46011349059E+00  0.62247540974E+00 -0.89103369847E+00  0.90007694484E+02  0.89999955251E+02 0.  0.
        -12    1    1    2    0    0  0.46011349059E+00 -0.62247540974E+00  0.89103369847E+00  0.11803055163E+01  0.00000000000E+00 0.  1.
         11    1    3    3    0    0 -0.10875523188E+02 -0.16015315679E+01 -0.37937197093E+02  0.39497757297E+02  0.51100000000E-03 0. -1.
        -11    1    3    3    0    0 -0.79141945481E+01  0.36500035414E+01 -0.47327206474E+00  0.87281720827E+01  0.51100000000E-03 0.  1.
        -12    1    3    3    0    0  0.18329604246E+02 -0.14259965637E+01  0.37519435459E+02  0.41781765104E+02  0.00000000000E+00 0.  1.
</event>
<event>
 7    1  0.2879200E-015  0.9000804E+02  0.7816164E-02  0.1186338E+00
        -11   -1    0    0    0    0  0.00000000000E+00  0.00000000000E+00  0.45593999997E+02  0.45594000000E+02  0.51100000000E-03 0. -1.
         11   -1    0    0    0    0 -0.00000000000E+00 -0.00000000000E+00 -0.45593999997E+02  0.45594000000E+02  0.51100000000E-03 0.  1.
    9900012    2    1    2    0    0 -0.12707606332E+00 -0.11639263616E+01  0.14637847558E+00  0.90008042560E+02  0.90000307922E+02 0.  0.
        -12    1    1    2    0    0  0.12707606332E+00  0.11639263616E+01 -0.14637847558E+00  0.11799574396E+01  0.00000000000E+00 0.  1.
         11    1    3    3    0    0 -0.35464230214E+02  0.47525525021E+00  0.15362005371E+02  0.38651373863E+02  0.51100000000E-03 0. -1.
        -11    1    3    3    0    0  0.58969843267E+01 -0.12621364941E+02  0.40388946335E+01  0.14504687079E+02  0.51100000000E-03 0.  1.
        -12    1    3    3    0    0  0.29440169824E+02  0.10982183329E+02 -0.19254521529E+02  0.36851981619E+02  0.00000000000E+00 0.  1.
</event>
<event>
 7    1  0.2879200E-015  0.9000769E+02  0.7816164E-02  0.1186339E+00
        -11   -1    0    0    0    0  0.00000000000E+00  0.00000000000E+00  0.45593999997E+02  0.45594000000E+02  0.51100000000E-03 0. -1.
         11   -1    0    0    0    0 -0.00000000000E+00 -0.00000000000E+00 -0.45593999997E+02  0.45594000000E+02  0.51100000000E-03 0.  1.
    9900012    2    1    2    0    0 -0.50378679617E+00  0.88159160372E+00  0.60177482962E+00  0.90007687398E+02  0.89999948072E+02 0.  0.
        -12    1    1    2    0    0  0.50378679617E+00 -0.88159160372E+00 -0.60177482962E+00  0.11803126015E+01  0.00000000000E+00 0.  1.
         11    1    3    3    0    0  0.10883886542E+01 -0.29647959377E+00 -0.42409146428E+01  0.43883763832E+01  0.51100000000E-03 0. -1.
        -11    1    3    3    0    0  0.22264486751E+01 -0.34461736327E+02 -0.21905506178E+02  0.40895226439E+02  0.51100000000E-03 0.  1.
         12    1    3    3    0    0 -0.38186241255E+01  0.35639807524E+02  0.26748195650E+02  0.44724084576E+02  0.00000000000E+00 0. -1.
</event>
<event>
 7    1  0.2879200E-015  0.9000670E+02  0.7816164E-02  0.1186341E+00
        -11   -1    0    0    0    0  0.00000000000E+00  0.00000000000E+00  0.45593999997E+02  0.45594000000E+02  0.51100000000E-03 0. -1.
         11   -1    0    0    0    0 -0.00000000000E+00 -0.00000000000E+00 -0.45593999997E+02  0.45594000000E+02  0.51100000000E-03 0.  1.
    9900012    2    1    2    0    0  0.12731184525E+00  0.11713626938E+01  0.84611775878E-01  0.90006704940E+02  0.89998952639E+02 0.  0.
        -12    1    1    2    0    0 -0.12731184525E+00 -0.11713626938E+01 -0.84611775878E-01  0.11812950601E+01  0.00000000000E+00 0.  1.
         11    1    3    3    0    0  0.23307885658E+01  0.17447117066E+02  0.28059699219E+02  0.33123725481E+02  0.51100000000E-03 0. -1.
        -11    1    3    3    0    0 -0.98501895270E+01  0.33928760405E+01  0.93544110036E+01  0.14001530167E+02  0.51100000000E-03 0.  1.
        -12    1    3    3    0    0  0.76467128064E+01 -0.19668630413E+02 -0.37329498446E+02  0.42881449291E+02  0.00000000000E+00 0.  1.
</event>
<event>
 7    1  0.2879200E-015  0.9000769E+02  0.7816164E-02  0.1186339E+00
        -11   -1    0    0    0    0  0.00000000000E+00  0.00000000000E+00  0.45593999997E+02  0.45594000000E+02  0.51100000000E-03 0.  1.
         11   -1    0    0    0    0 -0.00000000000E+00 -0.00000000000E+00 -0.45593999997E+02  0.45594000000E+02  0.51100000000E-03 0. -1.
    9900012    2    1    2    0    0 -0.69108840362E+00  0.53403030740E+00 -0.79393540715E+00  0.90007692844E+02  0.89999953590E+02 0.  0.
        -12    1    1    2    0    0  0.69108840362E+00 -0.53403030740E+00  0.79393540715E+00  0.11803071556E+01  0.00000000000E+00 0.  1.
         11    1    3    3    0    0 -0.13195673874E+02  0.31655931308E+02  0.13038831336E+02  0.36691074104E+02  0.51100000000E-03 0. -1.
        -11    1    3    3    0    0  0.74225974262E+01  0.76646790950E+01  0.24461161252E+01  0.10946494532E+02  0.51100000000E-03 0.  1.
        -12    1    3    3    0    0  0.50819880447E+01 -0.38786580096E+02 -0.16278882868E+02  0.42370124209E+02  0.00000000000E+00 0.  1.
</event>
<event>
 7    1  0.2879200E-015  0.9000777E+02  0.7816164E-02  0.1186339E+00
        -11   -1    0    0    0    0  0.00000000000E+00  0.00000000000E+00  0.45593999997E+02  0.45594000000E+02  0.51100000000E-03 0.  1.
         11   -1    0    0    0    0 -0.00000000000E+00 -0.00000000000E+00 -0.45593999997E+02  0.45594000000E+02  0.51100000000E-03 0. -1.
    9900012    2    1    2    0    0 -0.31721071652E+00 -0.54582555501E+00 -0.99718843641E+00  0.90007774194E+02  0.90000036013E+02 0.  0.
        -12    1    1    2    0    0  0.31721071652E+00  0.54582555501E+00  0.99718843641E+00  0.11802258059E+01  0.00000000000E+00 0.  1.
         11    1    3    3    0    0  0.28806054717E+02 -0.15640204514E+02 -0.24712988357E+02  0.41050415095E+02  0.51100000000E-03 0. -1.
        -11    1    3    3    0    0 -0.60953121800E+01 -0.74218426043E+01  0.12402489404E+01  0.96837387362E+01  0.51100000000E-03 0.  1.
        -12    1    3    3    0    0 -0.23027953254E+02  0.22516221563E+02  0.22475550981E+02  0.39273620363E+02  0.00000000000E+00 0.  1.
</event>
<event>
 7    1  0.2879200E-015  0.9000768E+02  0.7816164E-02  0.1186339E+00
        -11   -1    0    0    0    0  0.00000000000E+00  0.00000000000E+00  0.45593999997E+02  0.45594000000E+02  0.51100000000E-03 0.  1.
         11   -1    0    0    0    0 -0.00000000000E+00 -0.00000000000E+00 -0.45593999997E+02  0.45594000000E+02  0.51100000000E-03 0. -1.
    9900012    2    1    2    0    0 -0.45061243052E+00  0.78277399128E+00 -0.75984753333E+00  0.90007680146E+02  0.89999940724E+02 0.  0.
        -12    1    1    2    0    0  0.45061243052E+00 -0.78277399128E+00  0.75984753333E+00  0.11803198541E+01  0.00000000000E+00 0.  1.
         11    1    3    3    0    0  0.54354569056E+01 -0.82864084639E+01  0.75315646102E+00  0.99386116696E+01  0.51100000000E-03 0. -1.
        -11    1    3    3    0    0  0.75579489153E+01 -0.23941299277E+02  0.25165598297E+02  0.35547373191E+02  0.51100000000E-03 0.  1.
         12    1    3    3    0    0 -0.13444018251E+02  0.33010481732E+02 -0.26678602291E+02  0.44521695286E+02  0.00000000000E+00 0. -1.
</event>
<event>
 7    1  0.2879200E-015  0.9000774E+02  0.7816164E-02  0.1186339E+00
        -11   -1    0    0    0    0  0.00000000000E+00  0.00000000000E+00  0.45593999997E+02  0.45594000000E+02  0.51100000000E-03 0. -1.
         11   -1    0    0    0    0 -0.00000000000E+00 -0.00000000000E+00 -0.45593999997E+02  0.45594000000E+02  0.51100000000E-03 0.  1.
    9900012    2    1    2    0    0 -0.17926207181E-01 -0.14021592764E+00  0.11717594267E+01  0.90007744939E+02  0.90000006372E+02 0.  0.
        -12    1    1    2    0    0  0.17926207181E-01  0.14021592764E+00 -0.11717594267E+01  0.11802550611E+01  0.00000000000E+00 0.  1.
         11    1    3    3    0    0  0.82866964510E+01  0.11040575127E+01  0.39224675410E+01  0.92343940210E+01  0.51100000000E-03 0. -1.
        -11    1    3    3    0    0  0.10058721885E+02 -0.17780292592E+02  0.32101027060E+02  0.38049870291E+02  0.51100000000E-03 0.  1.
         12    1    3    3    0    0 -0.18363344543E+02  0.16536019151E+02 -0.34851735174E+02  0.42723480627E+02  0.00000000000E+00 0. -1.
</event>
<event>
 7    1  0.2879200E-015  0.9000777E+02  0.7816164E-02  0.1186339E+00
        -11   -1    0    0    0    0  0.00000000000E+00  0.00000000000E+00  0.45593999997E+02  0.45594000000E+02  0.51100000000E-03 0. -1.
         11   -1    0    0    0    0 -0.00000000000E+00 -0.00000000000E+00 -0.45593999997E+02  0.45594000000E+02  0.51100000000E-03 0.  1.
    9900012    2    1    2    0    0  0.92190473573E+00 -0.72703747523E+00 -0.12019603658E+00  0.90007771666E+02  0.90000033452E+02 0.  0.
        -12    1    1    2    0    0 -0.92190473573E+00  0.72703747523E+00  0.12019603658E+00  0.11802283336E+01  0.00000000000E+00 0.  1.
         11    1    3    3    0    0 -0.36503116678E+02 -0.12264828526E+02 -0.28788147761E+01  0.38615943867E+02  0.51100000000E-03 0. -1.
        -11    1    3    3    0    0  0.16855637730E+01 -0.96309295755E+01  0.71258369126E+00  0.98032497418E+01  0.51100000000E-03 0.  1.
        -12    1    3    3    0    0  0.35739457641E+02  0.21168720627E+02  0.20460350483E+01  0.41588578057E+02  0.00000000000E+00 0.  1.
</event>
<event>
 7    1  0.2879200E-015  0.9000769E+02  0.7816164E-02  0.1186339E+00
        -11   -1    0    0    0    0  0.00000000000E+00  0.00000000000E+00  0.45593999997E+02  0.45594000000E+02  0.51100000000E-03 0.  1.
         11   -1    0    0    0    0 -0.00000000000E+00 -0.00000000000E+00 -0.45593999997E+02  0.45594000000E+02  0.51100000000E-03 0. -1.
    9900012    2    1    2    0    0  0.18218958231E+00 -0.11571609375E+01 -0.14463867891E+00  0.90007688674E+02  0.89999949364E+02 0.  0.
        -12    1    1    2    0    0 -0.18218958231E+00  0.11571609375E+01  0.14463867891E+00  0.11803113262E+01  0.00000000000E+00 0.  1.
         11    1    3    3    0    0 -0.19978470349E+02  0.17293997494E+01  0.59862861236E+01  0.20927630606E+02  0.51100000000E-03 0. -1.
        -11    1    3    3    0    0 -0.91476560224E+01 -0.97076353560E+01  0.23389807303E+02  0.26925840393E+02  0.51100000000E-03 0.  1.
         12    1    3    3    0    0  0.29308315954E+02  0.68210746690E+01 -0.29520732106E+02  0.42154217675E+02  0.00000000000E+00 0. -1.
</event>
<event>
 7    1  0.2879200E-015  0.9000755E+02  0.7816164E-02  0.1186339E+00
        -11   -1    0    0    0    0  0.00000000000E+00  0.00000000000E+00  0.45593999997E+02  0.45594000000E+02  0.51100000000E-03 0.  1.
         11   -1    0    0    0    0 -0.00000000000E+00 -0.00000000000E+00 -0.45593999997E+02  0.45594000000E+02  0.51100000000E-03 0. -1.
    9900012    2    1    2    0    0 -0.11649670772E+01 -0.11411707276E+00  0.15261369120E+00  0.90007550113E+02  0.89999808974E+02 0.  0.
        -12    1    1    2    0    0  0.11649670772E+01  0.11411707276E+00 -0.15261369120E+00  0.11804498871E+01  0.00000000000E+00 0.  1.
         11    1    3    3    0    0  0.29278717604E+02 -0.65340238520E+01 -0.28770913581E+02  0.41565637741E+02  0.51100000000E-03 0. -1.
        -11    1    3    3    0    0 -0.78404170918E+01 -0.41114051120E+01 -0.16324791039E+01  0.90022652957E+01  0.51100000000E-03 0.  1.
        -12    1    3    3    0    0 -0.22603267589E+02  0.10531311891E+02  0.30556006376E+02  0.39439647077E+02  0.00000000000E+00 0.  1.
</event>
<event>
 7    1  0.3517970E-015  0.9000754E+02  0.7816164E-02  0.1186339E+00
        -11   -1    0    0    0    0  0.00000000000E+00  0.00000000000E+00  0.45593999997E+02  0.45594000000E+02  0.51100000000E-03 0. -1.
         11   -1    0    0    0    0 -0.00000000000E+00 -0.00000000000E+00 -0.45593999997E+02  0.45594000000E+02  0.51100000000E-03 0.  1.
    9900012    2    1    2    0    0 -0.75225795467E+00  0.70709336669E+00  0.57237737859E+00  0.90007538682E+02  0.89999797392E+02 0.  0.
        -12    1    1    2    0    0  0.75225795467E+00 -0.70709336669E+00 -0.57237737859E+00  0.11804613179E+01  0.00000000000E+00 0.  1.
         11    1    3    3    0    0  0.32916470661E+01 -0.26903851394E+01  0.39546837927E+02  0.39774684196E+02  0.51100000000E-03 0. -1.
        -11    1    3    3    0    0 -0.16664406826E+01  0.88646198651E+01  0.16531712992E+01  0.91701409754E+01  0.51100000000E-03 0.  1.
        -12    1    3    3    0    0 -0.23774643381E+01 -0.54671413590E+01 -0.40627631848E+02  0.41062713511E+02  0.00000000000E+00 0.  1.
</event>
<event>
 7    1  0.2879200E-015  0.9000775E+02  0.7816164E-02  0.1186339E+00
        -11   -1    0    0    0    0  0.00000000000E+00  0.00000000000E+00  0.45593999997E+02  0.45594000000E+02  0.51100000000E-03 0.  1.
         11   -1    0    0    0    0 -0.00000000000E+00 -0.00000000000E+00 -0.45593999997E+02  0.45594000000E+02  0.51100000000E-03 0. -1.
    9900012    2    1    2    0    0  0.39414942701E-01  0.10901166576E+01 -0.45064621428E+00  0.90007750079E+02  0.90000011580E+02 0.  0.
        -12    1    1    2    0    0 -0.39414942701E-01 -0.10901166576E+01  0.45064621428E+00  0.11802499207E+01  0.00000000000E+00 0.  1.
         11    1    3    3    0    0  0.49358052476E+01  0.39633908628E+00 -0.14499549845E+02  0.15321755907E+02  0.51100000000E-03 0. -1.
        -11    1    3    3    0    0  0.30877703482E+02  0.11378936426E+02 -0.41192095531E+01  0.33164448648E+02  0.51100000000E-03 0.  1.
        -12    1    3    3    0    0 -0.35774093787E+02 -0.10685158854E+02  0.18168113184E+02  0.41521545524E+02  0.00000000000E+00 0.  1.
</event>
<event>
 7    1  0.2879200E-015  0.9000782E+02  0.7816164E-02  0.1186339E+00
        -11   -1    0    0    0    0  0.00000000000E+00  0.00000000000E+00  0.45593999997E+02  0.45594000000E+02  0.51100000000E-03 0.  1.
         11   -1    0    0    0    0 -0.00000000000E+00 -0.00000000000E+00 -0.45593999997E+02  0.45594000000E+02  0.51100000000E-03 0. -1.
    9900012    2    1    2    0    0  0.31160383044E+00 -0.11281387895E+01 -0.15176536515E+00  0.90007819166E+02  0.90000081579E+02 0.  0.
        -12    1    1    2    0    0 -0.31160383044E+00  0.11281387895E+01  0.15176536515E+00  0.11801808343E+01  0.00000000000E+00 0.  1.
         11    1    3    3    0    0 -0.16021189923E+02 -0.74349724626E+01  0.16894985311E+02  0.24441723977E+02  0.51100000000E-03 0. -1.
        -11    1    3    3    0    0  0.53306860793E+01  0.22838716851E+02  0.15018819909E+02  0.27849383354E+02  0.51100000000E-03 0.  1.
         12    1    3    3    0    0  0.11002107674E+02 -0.16531883178E+02 -0.32065570585E+02  0.37716711835E+02  0.00000000000E+00 0. -1.
</event>
<event>
 7    1  0.2879200E-015  0.9000774E+02  0.7816164E-02  0.1186339E+00
        -11   -1    0    0    0    0  0.00000000000E+00  0.00000000000E+00  0.45593999997E+02  0.45594000000E+02  0.51100000000E-03 0. -1.
         11   -1    0    0    0    0 -0.00000000000E+00 -0.00000000000E+00 -0.45593999997E+02  0.45594000000E+02  0.51100000000E-03 0.  1.
    9900012    2    1    2    0    0  0.69641635951E-01 -0.11159282445E+01  0.37797930383E+00  0.90007739792E+02  0.90000001157E+02 0.  0.
        -12    1    1    2    0    0 -0.69641635951E-01  0.11159282445E+01 -0.37797930383E+00  0.11802602080E+01  0.00000000000E+00 0.  1.
         11    1    3    3    0    0 -0.89151184821E+01  0.29760844349E-01  0.29325350191E+01  0.93850937746E+01  0.51100000000E-03 0. -1.
        -11    1    3    3    0    0 -0.19130751626E+02 -0.14189453365E+02 -0.30631569322E+02  0.38802310292E+02  0.51100000000E-03 0.  1.
         12    1    3    3    0    0  0.28115511744E+02  0.13043764276E+02  0.28077013607E+02  0.41820335726E+02  0.00000000000E+00 0. -1.
</event>
<event>
 7    1  0.2879200E-015  0.9000772E+02  0.7816164E-02  0.1186339E+00
        -11   -1    0    0    0    0  0.00000000000E+00  0.00000000000E+00  0.45593999997E+02  0.45594000000E+02  0.51100000000E-03 0.  1.
         11   -1    0    0    0    0 -0.00000000000E+00 -0.00000000000E+00 -0.45593999997E+02  0.45594000000E+02  0.51100000000E-03 0. -1.
    9900012    2    1    2    0    0  0.81931034922E-01  0.11738475161E+01 -0.91789458371E-01  0.90007722071E+02  0.89999983202E+02 0.  0.
        -12    1    1    2    0    0 -0.81931034922E-01 -0.11738475161E+01  0.91789458371E-01  0.11802779292E+01  0.00000000000E+00 0.  1.
         11    1    3    3    0    0 -0.19842311179E+01  0.79896413520E+01  0.39095937198E+01  0.91135319925E+01  0.51100000000E-03 0. -1.
        -11    1    3    3    0    0  0.37797590019E+01 -0.15337280691E+02  0.36341240940E+02  0.39625806622E+02  0.51100000000E-03 0.  1.
         12    1    3    3    0    0 -0.17135968491E+01  0.85214868554E+01 -0.40342624118E+02  0.41268383457E+02  0.00000000000E+00 0. -1.
</event>
<event>
 7    1  0.2879200E-015  0.9000773E+02  0.7816164E-02  0.1186339E+00
        -11   -1    0    0    0    0  0.00000000000E+00  0.00000000000E+00  0.45593999997E+02  0.45594000000E+02  0.51100000000E-03 0.  1.
         11   -1    0    0    0    0 -0.00000000000E+00 -0.00000000000E+00 -0.45593999997E+02  0.45594000000E+02  0.51100000000E-03 0. -1.
    9900012    2    1    2    0    0  0.44404942496E+00 -0.47233257148E+00 -0.98629113167E+00  0.90007725394E+02  0.89999986569E+02 0.  0.
        -12    1    1    2    0    0 -0.44404942496E+00  0.47233257148E+00  0.98629113167E+00  0.11802746063E+01  0.00000000000E+00 0.  1.
         11    1    3    3    0    0  0.20976231171E+01  0.91827740205E+01  0.69834257499E+01  0.11725681085E+02  0.51100000000E-03 0. -1.
        -11    1    3    3    0    0 -0.33848563725E+02 -0.24854569656E+02 -0.10116040957E+01  0.42005931035E+02  0.51100000000E-03 0.  1.
         12    1    3    3    0    0  0.32194990033E+02  0.15199463064E+02 -0.69581127859E+01  0.36276113273E+02  0.00000000000E+00 0. -1.
</event>
<event>
 7    1  0.2879200E-015  0.9000780E+02  0.7816164E-02  0.1186339E+00
        -11   -1    0    0    0    0  0.00000000000E+00  0.00000000000E+00  0.45593999997E+02  0.45594000000E+02  0.51100000000E-03 0. -1.
         11   -1    0    0    0    0 -0.00000000000E+00 -0.00000000000E+00 -0.45593999997E+02  0.45594000000E+02  0.51100000000E-03 0.  1.
    9900012    2    1    2    0    0 -0.17973967946E+00  0.54182864326E-02  0.11664243725E+01  0.90007795981E+02  0.90000058088E+02 0.  0.
        -12    1    1    2    0    0  0.17973967946E+00 -0.54182864326E-02 -0.11664243725E+01  0.11802040192E+01  0.00000000000E+00 0.  1.
         11    1    3    3    0    0 -0.16261097104E+02 -0.74298068703E+01  0.37015417169E+02  0.41106768513E+02  0.51100000000E-03 0. -1.
        -11    1    3    3    0    0  0.69524026554E+01 -0.53685633132E+01  0.99648880093E+00  0.88402695051E+01  0.51100000000E-03 0.  1.
        -12    1    3    3    0    0  0.91289547695E+01  0.12803788470E+02 -0.36845481597E+02  0.40060757962E+02  0.00000000000E+00 0.  1.
</event>
<event>
 7    1  0.2879200E-015  0.9000782E+02  0.7816164E-02  0.1186339E+00
        -11   -1    0    0    0    0  0.00000000000E+00  0.00000000000E+00  0.45593999997E+02  0.45594000000E+02  0.51100000000E-03 0. -1.
         11   -1    0    0    0    0 -0.00000000000E+00 -0.00000000000E+00 -0.45593999997E+02  0.45594000000E+02  0.51100000000E-03 0.  1.
    9900012    2    1    2    0    0  0.18266306406E-01 -0.68414577337E+00  0.96147314879E+00  0.90007822169E+02  0.90000084621E+02 0.  0.
        -12    1    1    2    0    0 -0.18266306406E-01  0.68414577337E+00 -0.96147314879E+00  0.11801778311E+01  0.00000000000E+00 0.  1.
         11    1    3    3    0    0  0.10656662109E+02 -0.31396746540E+01 -0.17559004666E+01  0.11247452643E+02  0.51100000000E-03 0. -1.
        -11    1    3    3    0    0 -0.22917169266E+01  0.40013574067E+02  0.38954594629E+01  0.40268010638E+02  0.51100000000E-03 0.  1.
         12    1    3    3    0    0 -0.83466788763E+01 -0.37558045186E+02 -0.11780858474E+01  0.38492358888E+02  0.00000000000E+00 0. -1.
</event>
<event>
 7    1  0.2879200E-015  0.9000809E+02  0.7816164E-02  0.1186338E+00
        -11   -1    0    0    0    0  0.00000000000E+00  0.00000000000E+00  0.45593999997E+02  0.45594000000E+02  0.51100000000E-03 0.  1.
         11   -1    0    0    0    0 -0.00000000000E+00 -0.00000000000E+00 -0.45593999997E+02  0.45594000000E+02  0.51100000000E-03 0. -1.
    9900012    2    1    2    0    0 -0.46237269741E+00  0.37310642784E+00 -0.10194074602E+01  0.90008089627E+02  0.90000355610E+02 0.  0.
        -12    1    1    2    0    0  0.46237269741E+00 -0.37310642784E+00  0.10194074602E+01  0.11799103727E+01  0.00000000000E+00 0.  1.
         11    1    3    3    0    0  0.26731675513E+02 -0.21126494756E+02  0.68136410338E+01  0.34746754680E+02  0.51100000000E-03 0. -1.
        -11    1    3    3    0    0  0.10432495181E+02 -0.29837415597E+00 -0.52940662366E+01  0.11702697143E+02  0.51100000000E-03 0.  1.
        -12    1    3    3    0    0 -0.37626543391E+02  0.21797975340E+02 -0.25389822574E+01  0.43558637804E+02  0.00000000000E+00 0.  1.
</event>
<event>
 7    1  0.2879200E-015  0.9000771E+02  0.7816164E-02  0.1186339E+00
        -11   -1    0    0    0    0  0.00000000000E+00  0.00000000000E+00  0.45593999997E+02  0.45594000000E+02  0.51100000000E-03 0. -1.
         11   -1    0    0    0    0 -0.00000000000E+00 -0.00000000000E+00 -0.45593999997E+02  0.45594000000E+02  0.51100000000E-03 0.  1.
    9900012    2    1    2    0    0  0.51071524326E+00  0.10640705192E+01 -0.22963317149E-03  0.90007713517E+02  0.89999974535E+02 0.  0.
        -12    1    1    2    0    0 -0.51071524326E+00 -0.10640705192E+01  0.22963317148E-03  0.11802864831E+01  0.00000000000E+00 0.  1.
         11    1    3    3    0    0  0.54828229760E+01 -0.19493734295E+02  0.31724067507E+02  0.37636199117E+02  0.51100000000E-03 0. -1.
        -11    1    3    3    0    0 -0.94638870247E+01 -0.13068181411E+00  0.44491978175E+01  0.10458374483E+02  0.51100000000E-03 0.  1.
        -12    1    3    3    0    0  0.44917792920E+01  0.20688486629E+02 -0.36173494958E+02  0.41913139916E+02  0.00000000000E+00 0.  1.
</event>
<event>
 7    1  0.2879200E-015  0.9000785E+02  0.7816164E-02  0.1186339E+00
        -11   -1    0    0    0    0  0.00000000000E+00  0.00000000000E+00  0.45593999997E+02  0.45594000000E+02  0.51100000000E-03 0. -1.
         11   -1    0    0    0    0 -0.00000000000E+00 -0.00000000000E+00 -0.45593999997E+02  0.45594000000E+02  0.51100000000E-03 0.  1.
    9900012    2    1    2    0    0 -0.93781380078E+00 -0.12662709975E+00 -0.70514833693E+00  0.90007846059E+02  0.90000108827E+02 0.  0.
        -12    1    1    2    0    0  0.93781380078E+00  0.12662709975E+00  0.70514833693E+00  0.11801539410E+01  0.00000000000E+00 0.  1.
         11    1    3    3    0    0 -0.28768262048E+02  0.21841245476E+02  0.12355209076E+02  0.38174652543E+02  0.51100000000E-03 0. -1.
        -11    1    3    3    0    0 -0.72496992582E+01  0.18640556095E+01 -0.39197505019E+01  0.84496915274E+01  0.51100000000E-03 0.  1.
        -12    1    3    3    0    0  0.35080147506E+02 -0.23831928186E+02 -0.91406069107E+01  0.43383501988E+02  0.00000000000E+00 0.  1.
</event>
<event>
 7    1  0.2879200E-015  0.9000772E+02  0.7816164E-02  0.1186339E+00
        -11   -1    0    0    0    0  0.00000000000E+00  0.00000000000E+00  0.45593999997E+02  0.45594000000E+02  0.51100000000E-03 0.  1.
         11   -1    0    0    0    0 -0.00000000000E+00 -0.00000000000E+00 -0.45593999997E+02  0.45594000000E+02  0.51100000000E-03 0. -1.
    9900012    2    1    2    0    0 -0.93514898543E+00  0.30818496423E+00 -0.65082065169E+00  0.90007724982E+02  0.89999986152E+02 0.  0.
        -12    1    1    2    0    0  0.93514898543E+00 -0.30818496423E+00  0.65082065169E+00  0.11802750179E+01  0.00000000000E+00 0.  1.
         11    1    3    3    0    0  0.16529249454E+02  0.37323200917E+02  0.80991629252E+00  0.40827605598E+02  0.51100000000E-03 0. -1.
        -11    1    3    3    0    0 -0.35934763845E+01  0.42268905909E-01 -0.82821272262E+01  0.90282052944E+01  0.51100000000E-03 0.  1.
        -12    1    3    3    0    0 -0.13870922055E+02 -0.37057284858E+02  0.68213902820E+01  0.40151914090E+02  0.00000000000E+00 0.  1.
</event>
<event>
 7    1  0.2879200E-015  0.9000776E+02  0.7816164E-02  0.1186339E+00
        -11   -1    0    0    0    0  0.00000000000E+00  0.00000000000E+00  0.45593999997E+02  0.45594000000E+02  0.51100000000E-03 0.  1.
         11   -1    0    0    0    0 -0.00000000000E+00 -0.00000000000E+00 -0.45593999997E+02  0.45594000000E+02  0.51100000000E-03 0. -1.
    9900012    2    1    2    0    0 -0.25135014860E+00  0.23947220018E+00 -0.11280222109E+01  0.90007763608E+02  0.90000025288E+02 0.  0.
        -12    1    1    2    0    0  0.25135014860E+00 -0.23947220018E+00  0.11280222109E+01  0.11802363916E+01  0.00000000000E+00 0.  1.
         11    1    3    3    0    0  0.36536614852E+00 -0.54516992491E+01  0.89380498554E+01  0.10475841379E+02  0.51100000000E-03 0. -1.
        -11    1    3    3    0    0 -0.19247048824E+02  0.17228167141E+01  0.29703424344E+02  0.35436004344E+02  0.51100000000E-03 0.  1.
         12    1    3    3    0    0  0.18630332527E+02  0.39683547352E+01 -0.39769496410E+02  0.44095917885E+02  0.00000000000E+00 0. -1.
</event>
<event>
 7    1  0.2879200E-015  0.9000776E+02  0.7816164E-02  0.1186339E+00
        -11   -1    0    0    0    0  0.00000000000E+00  0.00000000000E+00  0.45593999997E+02  0.45594000000E+02  0.51100000000E-03 0.  1.
         11   -1    0    0    0    0 -0.00000000000E+00 -0.00000000000E+00 -0.45593999997E+02  0.45594000000E+02  0.51100000000E-03 0. -1.
    9900012    2    1    2    0    0 -0.61583428761E+00  0.96827199245E+00 -0.27597913613E+00  0.90007759768E+02  0.90000021397E+02 0.  0.
        -12    1    1    2    0    0  0.61583428761E+00 -0.96827199245E+00  0.27597913613E+00  0.11802402318E+01  0.00000000000E+00 0.  1.
         11    1    3    3    0    0  0.68980369635E+01  0.43134290468E+01  0.10186612349E+02  0.13036704166E+02  0.51100000000E-03 0. -1.
        -11    1    3    3    0    0 -0.16429728517E+02  0.13834587402E+01  0.30560635653E+02  0.34724665426E+02  0.51100000000E-03 0.  1.
         12    1    3    3    0    0  0.89158572655E+01 -0.47286157945E+01 -0.41023227138E+02  0.42246390176E+02  0.00000000000E+00 0. -1.
</event>
<event>
 7    1  0.2879200E-015  0.9000788E+02  0.7816164E-02  0.1186339E+00
        -11   -1    0    0    0    0  0.00000000000E+00  0.00000000000E+00  0.45593999997E+02  0.45594000000E+02  0.51100000000E-03 0. -1.
         11   -1    0    0    0    0 -0.00000000000E+00 -0.00000000000E+00 -0.45593999997E+02  0.45594000000E+02  0.51100000000E-03 0.  1.
    9900012    2    1    2    0    0 -0.11344982913E+01 -0.12120170976E+00  0.30152371042E+00  0.90007875949E+02  0.90000139112E+02 0.  0.
        -12    1    1    2    0    0  0.11344982913E+01  0.12120170976E+00 -0.30152371042E+00  0.11801240508E+01  0.00000000000E+00 0.  1.
         11    1    3    3    0    0 -0.32555030952E+02 -0.47925567268E+01  0.24331385149E+02  0.40924502976E+02  0.51100000000E-03 0. -1.
        -11    1    3    3    0    0 -0.41949365532E-01  0.75676365584E+01  0.23487291630E+01  0.79238508171E+01  0.51100000000E-03 0.  1.
        -12    1    3    3    0    0  0.31462482027E+02 -0.28962815413E+01 -0.26378590601E+02  0.41159522156E+02  0.00000000000E+00 0.  1.
</event>
<event>
 7    1  0.2879200E-015  0.9000764E+02  0.7816164E-02  0.1186339E+00
        -11   -1    0    0    0    0  0.00000000000E+00  0.00000000000E+00  0.45593999997E+02  0.45594000000E+02  0.51100000000E-03 0. -1.
         11   -1    0    0    0    0 -0.00000000000E+00 -0.00000000000E+00 -0.45593999997E+02  0.45594000000E+02  0.51100000000E-03 0.  1.
    9900012    2    1    2    0    0 -0.21314727489E+00  0.76007704076E+00  0.87755280056E+00  0.90007640823E+02  0.89999900882E+02 0.  0.
        -12    1    1    2    0    0  0.21314727489E+00 -0.76007704076E+00 -0.87755280056E+00  0.11803591769E+01  0.00000000000E+00 0.  1.
         11    1    3    3    0    0  0.80680863037E+01  0.58186090961E+01  0.12903942188E+01  0.10030720110E+02  0.51100000000E-03 0. -1.
        -11    1    3    3    0    0 -0.21355082696E+02  0.33219906172E+02 -0.13788803289E+01  0.39515858010E+02  0.51100000000E-03 0.  1.
         12    1    3    3    0    0  0.13073849118E+02 -0.38278438228E+02  0.96603891067E+00  0.40461062703E+02  0.00000000000E+00 0. -1.
</event>
<event>
 7    1  0.2879200E-015  0.9000785E+02  0.7816164E-02  0.1186339E+00
        -11   -1    0    0    0    0  0.00000000000E+00  0.00000000000E+00  0.45593999997E+02  0.45594000000E+02  0.51100000000E-03 0.  1.
         11   -1    0    0    0    0 -0.00000000000E+00 -0.00000000000E+00 -0.45593999997E+02  0.45594000000E+02  0.51100000000E-03 0. -1.
    9900012    2    1    2    0    0 -0.65704305624E+00  0.95511044762E+00  0.22094404906E+00  0.90007848392E+02  0.90000111191E+02 0.  0.
        -12    1    1    2    0    0  0.65704305624E+00 -0.95511044762E+00 -0.22094404906E+00  0.11801516079E+01  0.00000000000E+00 0.  1.
         11    1    3    3    0    0 -0.79884104644E+01  0.41266976161E+01  0.15795452052E+01  0.91290359994E+01  0.51100000000E-03 0. -1.
        -11    1    3    3    0    0  0.11180508668E+02  0.35078451979E+02  0.14126212177E+02  0.39434140513E+02  0.51100000000E-03 0.  1.
         12    1    3    3    0    0 -0.38491412596E+01 -0.38250039147E+02 -0.15484813333E+02  0.41444671879E+02  0.00000000000E+00 0. -1.
</event>
<event>
 7    1  0.2879200E-015  0.9000776E+02  0.7816164E-02  0.1186339E+00
        -11   -1    0    0    0    0  0.00000000000E+00  0.00000000000E+00  0.45593999997E+02  0.45594000000E+02  0.51100000000E-03 0. -1.
         11   -1    0    0    0    0 -0.00000000000E+00 -0.00000000000E+00 -0.45593999997E+02  0.45594000000E+02  0.51100000000E-03 0.  1.
    9900012    2    1    2    0    0  0.37693061246E+00  0.42009045640E+00  0.10365443762E+01  0.90007755567E+02  0.90000017140E+02 0.  0.
        -12    1    1    2    0    0 -0.37693061246E+00 -0.42009045640E+00 -0.10365443762E+01  0.11802444332E+01  0.00000000000E+00 0.  1.
         11    1    3    3    0    0  0.32802470718E+02 -0.76502107452E+01  0.19957898533E+02  0.39151571153E+02  0.51100000000E-03 0. -1.
        -11    1    3    3    0    0  0.68492343355E+01  0.24675159994E+00 -0.49037396526E+01  0.84273103762E+01  0.51100000000E-03 0.  1.
        -12    1    3    3    0    0 -0.39274774441E+02  0.78235496017E+01 -0.14017614504E+02  0.42428874038E+02  0.00000000000E+00 0.  1.
</event>
<event>
 7    1  0.2879200E-015  0.9000789E+02  0.7816164E-02  0.1186339E+00
        -11   -1    0    0    0    0  0.00000000000E+00  0.00000000000E+00  0.45593999997E+02  0.45594000000E+02  0.51100000000E-03 0.  1.
         11   -1    0    0    0    0 -0.00000000000E+00 -0.00000000000E+00 -0.45593999997E+02  0.45594000000E+02  0.51100000000E-03 0. -1.
    9900012    2    1    2    0    0  0.40951977082E+00  0.10657391268E+01 -0.29859919449E+00  0.90007886527E+02  0.90000149830E+02 0.  0.
        -12    1    1    2    0    0 -0.40951977082E+00 -0.10657391268E+01  0.29859919449E+00  0.11801134725E+01  0.00000000000E+00 0.  1.
         11    1    3    3    0    0  0.42481672976E+01  0.54851717712E+01  0.63676496422E+01  0.94170588282E+01  0.51100000000E-03 0. -1.
        -11    1    3    3    0    0  0.28352196331E+02 -0.26338691788E+02  0.69827071600E+01  0.39323427133E+02  0.51100000000E-03 0.  1.
         12    1    3    3    0    0 -0.32190843858E+02  0.21919259144E+02 -0.13648955997E+02  0.41267400566E+02  0.00000000000E+00 0. -1.
</event>
<event>
 7    1  0.2879200E-015  0.9000769E+02  0.7816164E-02  0.1186339E+00
        -11   -1    0    0    0    0  0.00000000000E+00  0.00000000000E+00  0.45593999997E+02  0.45594000000E+02  0.51100000000E-03 0.  1.
         11   -1    0    0    0    0 -0.00000000000E+00 -0.00000000000E+00 -0.45593999997E+02  0.45594000000E+02  0.51100000000E-03 0. -1.
    9900012    2    1    2    0    0 -0.15068712820E+00 -0.11696566071E+01 -0.48225823121E-01  0.90007691176E+02  0.89999951900E+02 0.  0.
        -12    1    1    2    0    0  0.15068712820E+00  0.11696566071E+01  0.48225823121E-01  0.11803088237E+01  0.00000000000E+00 0.  1.
         11    1    3    3    0    0 -0.87292092908E+01 -0.92111027136E+00 -0.22137014913E+01  0.90525142103E+01  0.51100000000E-03 0. -1.
        -11    1    3    3    0    0 -0.33894687261E+02  0.97461379984E+01 -0.79761269156E+01  0.36158755941E+02  0.51100000000E-03 0.  1.
         12    1    3    3    0    0  0.42473209423E+02 -0.99946843342E+01  0.10141602584E+02  0.44796421025E+02  0.00000000000E+00 0. -1.
</event>
<event>
 7    1  0.2879200E-015  0.9000774E+02  0.7816164E-02  0.1186339E+00
        -11   -1    0    0    0    0  0.00000000000E+00  0.00000000000E+00  0.45593999997E+02  0.45594000000E+02  0.51100000000E-03 0. -1.
         11   -1    0    0    0    0 -0.00000000000E+00 -0.00000000000E+00 -0.45593999997E+02  0.45594000000E+02  0.51100000000E-03 0.  1.
    9900012    2    1    2    0    0  0.28902736722E+00 -0.73766351036E+00  0.87483326216E+00  0.90007738372E+02  0.89999999719E+02 0.  0.
        -12    1    1    2    0    0 -0.28902736722E+00  0.73766351036E+00 -0.87483326216E+00  0.11802616278E+01  0.00000000000E+00 0.  1.
         11    1    3    3    0    0 -0.17800644150E+02  0.11182937711E+02  0.28222865624E+02  0.35191634976E+02  0.51100000000E-03 0. -1.
        -11    1    3    3    0    0 -0.83120048402E+01 -0.54135242130E+01  0.61497269760E+01  0.11671110102E+02  0.51100000000E-03 0.  1.
        -12    1    3    3    0    0  0.26401676357E+02 -0.65070770079E+01 -0.33497759338E+02  0.43144993294E+02  0.00000000000E+00 0.  1.
</event>
<event>
 7    1  0.4030663E-015  0.9000785E+02  0.7816164E-02  0.1186339E+00
        -11   -1    0    0    0    0  0.00000000000E+00  0.00000000000E+00  0.45593999997E+02  0.45594000000E+02  0.51100000000E-03 0.  1.
         11   -1    0    0    0    0 -0.00000000000E+00 -0.00000000000E+00 -0.45593999997E+02  0.45594000000E+02  0.51100000000E-03 0. -1.
    9900012    2    1    2    0    0  0.88788890216E+00 -0.15006946648E+00 -0.76281704641E+00  0.90007848572E+02  0.90000111373E+02 0.  0.
        -12    1    1    2    0    0 -0.88788890216E+00  0.15006946648E+00  0.76281704641E+00  0.11801514283E+01  0.00000000000E+00 0.  1.
         11    1    3    3    0    0  0.11077726957E+02 -0.20161824926E+02 -0.30300768035E+02  0.38044076578E+02  0.51100000000E-03 0. -1.
        -11    1    3    3    0    0  0.36615164352E+01  0.44248810634E+01 -0.75077562612E+01  0.94526546203E+01  0.51100000000E-03 0.  1.
        -12    1    3    3    0    0 -0.13851354490E+02  0.15586874396E+02  0.37045707250E+02  0.42511117373E+02  0.00000000000E+00 0.  1.
</event>
<event>
 7    1  0.2879200E-015  0.9000775E+02  0.7816164E-02  0.1186339E+00
        -11   -1    0    0    0    0  0.00000000000E+00  0.00000000000E+00  0.45593999997E+02  0.45594000000E+02  0.51100000000E-03 0.  1.
         11   -1    0    0    0    0 -0.00000000000E+00 -0.00000000000E+00 -0.45593999997E+02  0.45594000000E+02  0.51100000000E-03 0. -1.
    9900012    2    1    2    0    0 -0.10893308866E+00  0.10310668533E+01  0.56394373257E+00  0.90007746719E+02  0.90000008176E+02 0.  0.
        -12    1    1    2    0    0  0.10893308866E+00 -0.10310668533E+01 -0.56394373257E+00  0.11802532810E+01  0.00000000000E+00 0.  1.
         11    1    3    3    0    0  0.18204677912E+02  0.84283839342E+01 -0.13522115862E+02  0.24192882658E+02  0.51100000000E-03 0. -1.
        -11    1    3    3    0    0 -0.77532716785E+01 -0.14165732237E+01 -0.24305106213E+02  0.25551087838E+02  0.51100000000E-03 0.  1.
        -12    1    3    3    0    0 -0.10560339323E+02 -0.59807438572E+01  0.38391165808E+02  0.40263776223E+02  0.00000000000E+00 0.  1.
</event>
<event>
 7    1  0.2879200E-015  0.9000769E+02  0.7816164E-02  0.1186339E+00
        -11   -1    0    0    0    0  0.00000000000E+00  0.00000000000E+00  0.45593999997E+02  0.45594000000E+02  0.51100000000E-03 0.  1.
         11   -1    0    0    0    0 -0.00000000000E+00 -0.00000000000E+00 -0.45593999997E+02  0.45594000000E+02  0.51100000000E-03 0. -1.
    9900012    2    1    2    0    0 -0.11282415024E+01  0.33297454877E+00  0.96640202603E-01  0.90007686369E+02  0.89999947029E+02 0.  0.
        -12    1    1    2    0    0  0.11282415024E+01 -0.33297454877E+00 -0.96640202603E-01  0.11803136306E+01  0.00000000000E+00 0.  1.
         11    1    3    3    0    0  0.20950170453E+02 -0.23825201327E+02 -0.26235214623E+02  0.41168390142E+02  0.51100000000E-03 0. -1.
        -11    1    3    3    0    0  0.27171136231E+01 -0.31259862729E+01  0.15784792420E+01  0.44323914085E+01  0.51100000000E-03 0.  1.
        -12    1    3    3    0    0 -0.24795525578E+02  0.27284162148E+02  0.24753375584E+02  0.44406904819E+02  0.00000000000E+00 0.  1.
</event>
<event>
 7    1  0.2879200E-015  0.9000735E+02  0.7816164E-02  0.1186340E+00
        -11   -1    0    0    0    0  0.00000000000E+00  0.00000000000E+00  0.45593999997E+02  0.45594000000E+02  0.51100000000E-03 0.  1.
         11   -1    0    0    0    0 -0.00000000000E+00 -0.00000000000E+00 -0.45593999997E+02  0.45594000000E+02  0.51100000000E-03 0. -1.
    9900012    2    1    2    0    0 -0.64331150169E+00  0.75675473872E+00  0.63829152427E+00  0.90007346159E+02  0.89999602327E+02 0.  0.
        -12    1    1    2    0    0  0.64331150169E+00 -0.75675473872E+00 -0.63829152427E+00  0.11806538412E+01  0.00000000000E+00 0.  1.
         11    1    3    3    0    0  0.47793769485E+00  0.38309100628E+01  0.86988375483E+01  0.95170411001E+01  0.51100000000E-03 0. -1.
        -11    1    3    3    0    0  0.21865741807E+02  0.50892920293E+01  0.28659799263E+02  0.36405983741E+02  0.51100000000E-03 0.  1.
         12    1    3    3    0    0 -0.22986991003E+02 -0.81634473534E+01 -0.36720345287E+02  0.44084321318E+02  0.00000000000E+00 0. -1.
</event>
<event>
 7    1  0.2879200E-015  0.9000772E+02  0.7816164E-02  0.1186339E+00
        -11   -1    0    0    0    0  0.00000000000E+00  0.00000000000E+00  0.45593999997E+02  0.45594000000E+02  0.51100000000E-03 0.  1.
         11   -1    0    0    0    0 -0.00000000000E+00 -0.00000000000E+00 -0.45593999997E+02  0.45594000000E+02  0.51100000000E-03 0. -1.
    9900012    2    1    2    0    0 -0.14112278529E+00 -0.56020158493E+00 -0.10292369305E+01  0.90007716087E+02  0.89999977139E+02 0.  0.
        -12    1    1    2    0    0  0.14112278529E+00  0.56020158493E+00  0.10292369305E+01  0.11802839131E+01  0.00000000000E+00 0.  1.
         11    1    3    3    0    0  0.59226235965E+01  0.35467500953E+01 -0.12495089025E+02  0.14275298824E+02  0.51100000000E-03 0. -1.
        -11    1    3    3    0    0  0.28422775177E+02  0.34186791386E+01  0.24922585240E+02  0.37956248117E+02  0.51100000000E-03 0.  1.
         12    1    3    3    0    0 -0.34486521559E+02 -0.75256308188E+01 -0.13456733145E+02  0.37776169147E+02  0.00000000000E+00 0. -1.
</event>
<event>
 7    1  0.2879200E-015  0.9000762E+02  0.7816164E-02  0.1186339E+00
        -11   -1    0    0    0    0  0.00000000000E+00  0.00000000000E+00  0.45593999997E+02  0.45594000000E+02  0.51100000000E-03 0.  1.
         11   -1    0    0    0    0 -0.00000000000E+00 -0.00000000000E+00 -0.45593999997E+02  0.45594000000E+02  0.51100000000E-03 0. -1.
    9900012    2    1    2    0    0  0.84798363900E-01 -0.11501984404E+01  0.25127977027E+00  0.90007623476E+02  0.89999883306E+02 0.  0.
        -12    1    1    2    0    0 -0.84798363900E-01  0.11501984404E+01 -0.25127977027E+00  0.11803765238E+01  0.00000000000E+00 0.  1.
         11    1    3    3    0    0 -0.56653698477E+01 -0.24018928166E+01 -0.68026983026E+01  0.91729062500E+01  0.51100000000E-03 0. -1.
        -11    1    3    3    0    0 -0.11412340866E+02 -0.28851729458E+02  0.26758753620E+02  0.40971877090E+02  0.51100000000E-03 0.  1.
         12    1    3    3    0    0  0.17162509077E+02  0.30103423834E+02 -0.19704775547E+02  0.39862840136E+02  0.00000000000E+00 0. -1.
</event>
<event>
 7    1  0.2879200E-015  0.9000780E+02  0.7816164E-02  0.1186339E+00
        -11   -1    0    0    0    0  0.00000000000E+00  0.00000000000E+00  0.45593999997E+02  0.45594000000E+02  0.51100000000E-03 0.  1.
         11   -1    0    0    0    0 -0.00000000000E+00 -0.00000000000E+00 -0.45593999997E+02  0.45594000000E+02  0.51100000000E-03 0. -1.
    9900012    2    1    2    0    0  0.51487492528E-01  0.68359600511E+00 -0.96068501065E+00  0.90007800801E+02  0.90000062971E+02 0.  0.
        -12    1    1    2    0    0 -0.51487492528E-01 -0.68359600511E+00  0.96068501065E+00  0.11801991992E+01  0.00000000000E+00 0.  1.
         11    1    3    3    0    0 -0.26101722882E+01 -0.41201637773E+02  0.27337598730E+01  0.41374646800E+02  0.51100000000E-03 0. -1.
        -11    1    3    3    0    0 -0.79479061506E+01  0.61419357080E+01 -0.52147272224E+01  0.11317507088E+02  0.51100000000E-03 0.  1.
        -12    1    3    3    0    0  0.10609565931E+02  0.35743298070E+02  0.15202823388E+01  0.37315646913E+02  0.00000000000E+00 0.  1.
</event>
<event>
 7    1  0.2879200E-015  0.9000768E+02  0.7816164E-02  0.1186339E+00
        -11   -1    0    0    0    0  0.00000000000E+00  0.00000000000E+00  0.45593999997E+02  0.45594000000E+02  0.51100000000E-03 0.  1.
         11   -1    0    0    0    0 -0.00000000000E+00 -0.00000000000E+00 -0.45593999997E+02  0.45594000000E+02  0.51100000000E-03 0. -1.
    9900012    2    1    2    0    0 -0.42536172783E+00 -0.50997374961E+00 -0.97578042864E+00  0.90007680861E+02  0.89999941448E+02 0.  0.
        -12    1    1    2    0    0  0.42536172783E+00  0.50997374961E+00  0.97578042864E+00  0.11803191389E+01  0.00000000000E+00 0.  1.
         11    1    3    3    0    0  0.76056391661E+01 -0.19263781531E+01 -0.11435251367E+02  0.13868008293E+02  0.51100000000E-03 0. -1.
        -11    1    3    3    0    0  0.31541308583E+02  0.13092287673E+02  0.53020420628E+01  0.34559713453E+02  0.51100000000E-03 0.  1.
         12    1    3    3    0    0 -0.39572309477E+02 -0.11675883269E+02  0.51574288758E+01  0.41579959116E+02  0.00000000000E+00 0. -1.
</event>
<event>
 7    1  0.2879200E-015  0.9000764E+02  0.7816164E-02  0.1186339E+00
        -11   -1    0    0    0    0  0.00000000000E+00  0.00000000000E+00  0.45593999997E+02  0.45594000000E+02  0.51100000000E-03 0. -1.
         11   -1    0    0    0    0 -0.00000000000E+00 -0.00000000000E+00 -0.45593999997E+02  0.45594000000E+02  0.51100000000E-03 0.  1.
    9900012    2    1    2    0    0 -0.97155641637E+00 -0.10270810575E+00  0.66241041220E+00  0.90007636336E+02  0.89999896336E+02 0.  0.
        -12    1    1    2    0    0  0.97155641637E+00  0.10270810575E+00 -0.66241041220E+00  0.11803636640E+01  0.00000000000E+00 0.  1.
         11    1    3    3    0    0  0.30242444904E+01 -0.91674885496E+01 -0.40415859425E+01  0.10465338897E+02  0.51100000000E-03 0. -1.
        -11    1    3    3    0    0 -0.30136101792E+02  0.23252010806E+02  0.23144066418E+02  0.44547597559E+02  0.51100000000E-03 0.  1.
         12    1    3    3    0    0  0.26140300885E+02 -0.14187230362E+02 -0.18440070063E+02  0.34994699879E+02  0.00000000000E+00 0. -1.
</event>
<event>
 7    1  0.2879200E-015  0.9000778E+02  0.7816164E-02  0.1186339E+00
        -11   -1    0    0    0    0  0.00000000000E+00  0.00000000000E+00  0.45593999997E+02  0.45594000000E+02  0.51100000000E-03 0. -1.
         11   -1    0    0    0    0 -0.00000000000E+00 -0.00000000000E+00 -0.45593999997E+02  0.45594000000E+02  0.51100000000E-03 0.  1.
    9900012    2    1    2    0    0 -0.32018504491E+00  0.47349122898E+00  0.10325741770E+01  0.90007778903E+02  0.90000040784E+02 0.  0.
        -12    1    1    2    0    0  0.32018504491E+00 -0.47349122898E+00 -0.10325741770E+01  0.11802210970E+01  0.00000000000E+00 0.  1.
         11    1    3    3    0    0  0.99309402107E+01  0.14952932613E+01 -0.45918410730E+01  0.11042847464E+02  0.51100000000E-03 0. -1.
        -11    1    3    3    0    0 -0.39952315657E+02 -0.15582742923E+02 -0.72068531569E+01  0.43485033472E+02  0.51100000000E-03 0.  1.
         12    1    3    3    0    0  0.29701190401E+02  0.14560940891E+02  0.12831268407E+02  0.35479897968E+02  0.00000000000E+00 0. -1.
</event>
<event>
 7    1  0.2879200E-015  0.9000772E+02  0.7816164E-02  0.1186339E+00
        -11   -1    0    0    0    0  0.00000000000E+00  0.00000000000E+00  0.45593999997E+02  0.45594000000E+02  0.51100000000E-03 0.  1.
         11   -1    0    0    0    0 -0.00000000000E+00 -0.00000000000E+00 -0.45593999997E+02  0.45594000000E+02  0.51100000000E-03 0. -1.
    9900012    2    1    2    0    0  0.95414449120E+00 -0.56543908188E-01 -0.69244309621E+00  0.90007717676E+02  0.89999978749E+02 0.  0.
        -12    1    1    2    0    0 -0.95414449120E+00  0.56543908188E-01  0.69244309621E+00  0.11802823243E+01  0.00000000000E+00 0.  1.
         11    1    3    3    0    0  0.44158609413E+01 -0.25711500235E+01 -0.60888296473E+01  0.79488670282E+01  0.51100000000E-03 0. -1.
        -11    1    3    3    0    0  0.20242431904E+02 -0.20946286298E+01  0.37034832797E+02  0.42257808262E+02  0.51100000000E-03 0.  1.
         12    1    3    3    0    0 -0.23704148354E+02  0.46092347452E+01 -0.31638446246E+02  0.39801042386E+02  0.00000000000E+00 0. -1.
</event>
<event>
 7    1  0.2879200E-015  0.9000751E+02  0.7816164E-02  0.1186339E+00
        -11   -1    0    0    0    0  0.00000000000E+00  0.00000000000E+00  0.45593999997E+02  0.45594000000E+02  0.51100000000E-03 0.  1.
         11   -1    0    0    0    0 -0.00000000000E+00 -0.00000000000E+00 -0.45593999997E+02  0.45594000000E+02  0.51100000000E-03 0. -1.
    9900012    2    1    2    0    0  0.61190272552E+00 -0.85714109034E+00  0.53332338368E+00  0.90007512971E+02  0.89999771342E+02 0.  0.
        -12    1    1    2    0    0 -0.61190272552E+00  0.85714109034E+00 -0.53332338368E+00  0.11804870291E+01  0.00000000000E+00 0.  1.
         11    1    3    3    0    0 -0.27665201159E+01  0.10630918209E+01  0.12323370788E+02  0.12674749134E+02  0.51100000000E-03 0. -1.
        -11    1    3    3    0    0  0.34291065473E+02 -0.10728490517E+02  0.11402433524E+02  0.37696063065E+02  0.51100000000E-03 0.  1.
         12    1    3    3    0    0 -0.30912642632E+02  0.88082576060E+01 -0.23192480928E+02  0.39636700772E+02  0.00000000000E+00 0. -1.
</event>
<event>
 7    1  0.2879200E-015  0.9000786E+02  0.7816164E-02  0.1186339E+00
        -11   -1    0    0    0    0  0.00000000000E+00  0.00000000000E+00  0.45593999997E+02  0.45594000000E+02  0.51100000000E-03 0. -1.
         11   -1    0    0    0    0 -0.00000000000E+00 -0.00000000000E+00 -0.45593999997E+02  0.45594000000E+02  0.51100000000E-03 0.  1.
    9900012    2    1    2    0    0  0.46906511211E+00 -0.36340038288E+00  0.10201245026E+01  0.90007857670E+02  0.90000120591E+02 0.  0.
        -12    1    1    2    0    0 -0.46906511211E+00  0.36340038288E+00 -0.10201245026E+01  0.11801423298E+01  0.00000000000E+00 0.  1.
         11    1    3    3    0    0 -0.78274147485E+01 -0.77036553883E-01 -0.45433224332E+01  0.90507532984E+01  0.51100000000E-03 0. -1.
        -11    1    3    3    0    0 -0.94637461135E+01 -0.19187014294E+02 -0.30057898081E+02  0.36894189858E+02  0.51100000000E-03 0.  1.
         12    1    3    3    0    0  0.17760225974E+02  0.18900650465E+02  0.35621345017E+02  0.44062914514E+02  0.00000000000E+00 0. -1.
</event>
<event>
 7    1  0.2879200E-015  0.9000773E+02  0.7816164E-02  0.1186339E+00
        -11   -1    0    0    0    0  0.00000000000E+00  0.00000000000E+00  0.45593999997E+02  0.45594000000E+02  0.51100000000E-03 0.  1.
         11   -1    0    0    0    0 -0.00000000000E+00 -0.00000000000E+00 -0.45593999997E+02  0.45594000000E+02  0.51100000000E-03 0. -1.
    9900012    2    1    2    0    0  0.18964645619E-01  0.10188774959E+01 -0.59546020430E+00  0.90007727208E+02  0.89999988407E+02 0.  0.
        -12    1    1    2    0    0 -0.18964645619E-01 -0.10188774959E+01  0.59546020430E+00  0.11802727924E+01  0.00000000000E+00 0.  1.
         11    1    3    3    0    0 -0.11354016234E+02 -0.99348724446E+00 -0.11069355671E+01  0.11451026511E+02  0.51100000000E-03 0. -1.
        -11    1    3    3    0    0 -0.29862437744E+02  0.15208740139E+02 -0.79494065444E+01  0.34442183864E+02  0.51100000000E-03 0.  1.
         12    1    3    3    0    0  0.41235418624E+02 -0.13196375399E+02  0.84608819072E+01  0.44114516833E+02  0.00000000000E+00 0. -1.
</event>
<event>
 7    1  0.2879200E-015  0.9000761E+02  0.7816164E-02  0.1186339E+00
        -11   -1    0    0    0    0  0.00000000000E+00  0.00000000000E+00  0.45593999997E+02  0.45594000000E+02  0.51100000000E-03 0.  1.
         11   -1    0    0    0    0 -0.00000000000E+00 -0.00000000000E+00 -0.45593999997E+02  0.45594000000E+02  0.51100000000E-03 0. -1.
    9900012    2    1    2    0    0 -0.30487678187E+00 -0.11077818941E+01  0.27053621020E+00  0.90007610057E+02  0.89999869709E+02 0.  0.
        -12    1    1    2    0    0  0.30487678187E+00  0.11077818941E+01 -0.27053621020E+00  0.11803899432E+01  0.00000000000E+00 0.  1.
         11    1    3    3    0    0  0.83216874568E+01 -0.33231415592E+02 -0.15656783114E+02  0.37665797776E+02  0.51100000000E-03 0. -1.
        -11    1    3    3    0    0  0.47775855594E+01 -0.69722908438E+01  0.38180141775E+01  0.92744485501E+01  0.51100000000E-03 0.  1.
        -12    1    3    3    0    0 -0.13404149798E+02  0.39095924541E+02  0.12109305147E+02  0.43067363731E+02  0.00000000000E+00 0.  1.
</event>
<event>
 7    1  0.2879200E-015  0.9000771E+02  0.7816164E-02  0.1186339E+00
        -11   -1    0    0    0    0  0.00000000000E+00  0.00000000000E+00  0.45593999997E+02  0.45594000000E+02  0.51100000000E-03 0.  1.
         11   -1    0    0    0    0 -0.00000000000E+00 -0.00000000000E+00 -0.45593999997E+02  0.45594000000E+02  0.51100000000E-03 0. -1.
    9900012    2    1    2    0    0 -0.74559288651E+00  0.88586667135E+00  0.22894197778E+00  0.90007710654E+02  0.89999971634E+02 0.  0.
        -12    1    1    2    0    0  0.74559288651E+00 -0.88586667135E+00 -0.22894197778E+00  0.11802893463E+01  0.00000000000E+00 0.  1.
         11    1    3    3    0    0  0.40999025467E+01 -0.55640196619E+01 -0.42552736801E+01  0.81163335345E+01  0.51100000000E-03 0. -1.
        -11    1    3    3    0    0  0.25668108736E+02  0.20377815371E+02  0.26178152903E+02  0.41945236381E+02  0.51100000000E-03 0.  1.
         12    1    3    3    0    0 -0.30513604170E+02 -0.13927929037E+02 -0.21693937245E+02  0.39946140738E+02  0.00000000000E+00 0. -1.
</event>
<event>
 7    1  0.2879200E-015  0.9000782E+02  0.7816164E-02  0.1186339E+00
        -11   -1    0    0    0    0  0.00000000000E+00  0.00000000000E+00  0.45593999997E+02  0.45594000000E+02  0.51100000000E-03 0.  1.
         11   -1    0    0    0    0 -0.00000000000E+00 -0.00000000000E+00 -0.45593999997E+02  0.45594000000E+02  0.51100000000E-03 0. -1.
    9900012    2    1    2    0    0  0.93417715257E+00  0.67893314895E+00  0.24327719539E+00  0.90007821638E+02  0.90000084083E+02 0.  0.
        -12    1    1    2    0    0 -0.93417715257E+00 -0.67893314895E+00 -0.24327719539E+00  0.11801783623E+01  0.00000000000E+00 0.  1.
         11    1    3    3    0    0 -0.61076090943E+01  0.33502655147E+01 -0.58945781646E+01  0.91254161476E+01  0.51100000000E-03 0. -1.
        -11    1    3    3    0    0 -0.15112270851E+02 -0.25087070995E+02 -0.23553173184E+02  0.37583158844E+02  0.51100000000E-03 0.  1.
         12    1    3    3    0    0  0.22154057098E+02  0.22415738629E+02  0.29691028544E+02  0.43299246647E+02  0.00000000000E+00 0. -1.
</event>
<event>
 7    1  0.2879200E-015  0.9000774E+02  0.7816164E-02  0.1186339E+00
        -11   -1    0    0    0    0  0.00000000000E+00  0.00000000000E+00  0.45593999997E+02  0.45594000000E+02  0.51100000000E-03 0.  1.
         11   -1    0    0    0    0 -0.00000000000E+00 -0.00000000000E+00 -0.45593999997E+02  0.45594000000E+02  0.51100000000E-03 0. -1.
    9900012    2    1    2    0    0 -0.88492055212E+00  0.57725710867E+00 -0.52603491274E+00  0.90007736096E+02  0.89999997413E+02 0.  0.
        -12    1    1    2    0    0  0.88492055212E+00 -0.57725710867E+00  0.52603491274E+00  0.11802639038E+01  0.00000000000E+00 0.  1.
         11    1    3    3    0    0 -0.12767179345E+02 -0.22506513580E+02  0.23787869921E+02  0.35148353839E+02  0.51100000000E-03 0. -1.
        -11    1    3    3    0    0 -0.62315614315E+00 -0.20701889566E+01  0.10161240595E+02  0.10388686952E+02  0.51100000000E-03 0.  1.
        -12    1    3    3    0    0  0.12505414936E+02  0.25153959645E+02 -0.34475145429E+02  0.44470695305E+02  0.00000000000E+00 0.  1.
</event>
<event>
 7    1  0.2879200E-015  0.9000790E+02  0.7816164E-02  0.1186339E+00
        -11   -1    0    0    0    0  0.00000000000E+00  0.00000000000E+00  0.45593999997E+02  0.45594000000E+02  0.51100000000E-03 0.  1.
         11   -1    0    0    0    0 -0.00000000000E+00 -0.00000000000E+00 -0.45593999997E+02  0.45594000000E+02  0.51100000000E-03 0. -1.
    9900012    2    1    2    0    0 -0.52734534867E+00 -0.96395046579E+00 -0.43051412078E+00  0.90007899993E+02  0.90000163473E+02 0.  0.
        -12    1    1    2    0    0  0.52734534867E+00  0.96395046579E+00  0.43051412078E+00  0.11801000065E+01  0.00000000000E+00 0.  1.
         11    1    3    3    0    0 -0.33242410911E+01 -0.33453384348E+00  0.86733971032E+01  0.92946387393E+01  0.51100000000E-03 0. -1.
        -11    1    3    3    0    0  0.37765926703E+02  0.72932125042E+01  0.10469767557E+02  0.39863168481E+02  0.51100000000E-03 0.  1.
         12    1    3    3    0    0 -0.34969030960E+02 -0.79226291265E+01 -0.19573678781E+02  0.40850092774E+02  0.00000000000E+00 0. -1.
</event>
<event>
 7    1  0.2879200E-015  0.9000775E+02  0.7816164E-02  0.1186339E+00
        -11   -1    0    0    0    0  0.00000000000E+00  0.00000000000E+00  0.45593999997E+02  0.45594000000E+02  0.51100000000E-03 0.  1.
         11   -1    0    0    0    0 -0.00000000000E+00 -0.00000000000E+00 -0.45593999997E+02  0.45594000000E+02  0.51100000000E-03 0. -1.
    9900012    2    1    2    0    0 -0.71155112493E+00 -0.34642725897E+00 -0.87560470651E+00  0.90007745599E+02  0.90000007041E+02 0.  0.
        -12    1    1    2    0    0  0.71155112493E+00  0.34642725897E+00  0.87560470651E+00  0.11802544011E+01  0.00000000000E+00 0.  1.
         11    1    3    3    0    0 -0.77537956790E+00 -0.40176350374E+02  0.10452486678E+02  0.41521016617E+02  0.51100000000E-03 0. -1.
        -11    1    3    3    0    0  0.83354133084E+01  0.22744869916E+01 -0.29428727893E+01  0.91275904056E+01  0.51100000000E-03 0.  1.
        -12    1    3    3    0    0 -0.82715848655E+01  0.37555436123E+02 -0.83852185953E+01  0.39359138577E+02  0.00000000000E+00 0.  1.
</event>
<event>
 7    1  0.2879200E-015  0.9000777E+02  0.7816164E-02  0.1186339E+00
        -11   -1    0    0    0    0  0.00000000000E+00  0.00000000000E+00  0.45593999997E+02  0.45594000000E+02  0.51100000000E-03 0.  1.
         11   -1    0    0    0    0 -0.00000000000E+00 -0.00000000000E+00 -0.45593999997E+02  0.45594000000E+02  0.51100000000E-03 0. -1.
    9900012    2    1    2    0    0 -0.13967449473E+00  0.59852871819E+00 -0.10075672088E+01  0.90007772365E+02  0.90000034160E+02 0.  0.
        -12    1    1    2    0    0  0.13967449473E+00 -0.59852871819E+00  0.10075672088E+01  0.11802276353E+01  0.00000000000E+00 0.  1.
         11    1    3    3    0    0  0.90292004757E+01  0.73389393520E+01 -0.93434553311E+01  0.14922689095E+02  0.51100000000E-03 0. -1.
        -11    1    3    3    0    0 -0.77241577443E+01  0.33363149615E+02  0.68751693831E+01  0.34928932412E+02  0.51100000000E-03 0.  1.
         12    1    3    3    0    0 -0.14447172261E+01 -0.40103560249E+02  0.14607187393E+01  0.40156150858E+02  0.00000000000E+00 0. -1.
</event>
<event>
 7    1  0.2879200E-015  0.9000781E+02  0.7816164E-02  0.1186339E+00
        -11   -1    0    0    0    0  0.00000000000E+00  0.00000000000E+00  0.45593999997E+02  0.45594000000E+02  0.51100000000E-03 0.  1.
         11   -1    0    0    0    0 -0.00000000000E+00 -0.00000000000E+00 -0.45593999997E+02  0.45594000000E+02  0.51100000000E-03 0. -1.
    9900012    2    1    2    0    0  0.20538674653E+00  0.85811367624E+00 -0.78376951095E+00  0.90007814657E+02  0.90000077011E+02 0.  0.
        -12    1    1    2    0    0 -0.20538674653E+00 -0.85811367624E+00  0.78376951095E+00  0.11801853428E+01  0.00000000000E+00 0.  1.
         11    1    3    3    0    0  0.21790245815E+01 -0.22999147818E+01 -0.96109298054E+01  0.10119670356E+02  0.51100000000E-03 0. -1.
        -11    1    3    3    0    0 -0.48700089737E+01 -0.37860123930E+02  0.21818926249E+01  0.38234364479E+02  0.51100000000E-03 0.  1.
         12    1    3    3    0    0  0.28963711387E+01  0.41018152388E+02  0.66452676695E+01  0.41653779822E+02  0.00000000000E+00 0. -1.
</event>
<event>
 7    1  0.2879200E-015  0.9000813E+02  0.7816164E-02  0.1186338E+00
        -11   -1    0    0    0    0  0.00000000000E+00  0.00000000000E+00  0.45593999997E+02  0.45594000000E+02  0.51100000000E-03 0. -1.
         11   -1    0    0    0    0 -0.00000000000E+00 -0.00000000000E+00 -0.45593999997E+02  0.45594000000E+02  0.51100000000E-03 0.  1.
    9900012    2    1    2    0    0 -0.51067182875E+00  0.43237392653E+00  0.97177613193E+00  0.90008134847E+02  0.90000401426E+02 0.  0.
        -12    1    1    2    0    0  0.51067182875E+00 -0.43237392653E+00 -0.97177613193E+00  0.11798651531E+01  0.00000000000E+00 0.  1.
         11    1    3    3    0    0  0.73134918766E+01 -0.24706919696E+01 -0.74467767244E+01  0.10725948260E+02  0.51100000000E-03 0. -1.
        -11    1    3    3    0    0 -0.23736989579E+02 -0.20943929935E+02 -0.21170483294E+02  0.38082571324E+02  0.51100000000E-03 0.  1.
         12    1    3    3    0    0  0.15912825874E+02  0.23846995831E+02  0.29589036151E+02  0.41199615263E+02  0.00000000000E+00 0. -1.
</event>
<event>
 7    1  0.2879200E-015  0.9000777E+02  0.7816164E-02  0.1186339E+00
        -11   -1    0    0    0    0  0.00000000000E+00  0.00000000000E+00  0.45593999997E+02  0.45594000000E+02  0.51100000000E-03 0. -1.
         11   -1    0    0    0    0 -0.00000000000E+00 -0.00000000000E+00 -0.45593999997E+02  0.45594000000E+02  0.51100000000E-03 0.  1.
    9900012    2    1    2    0    0 -0.96796728301E+00  0.63013516792E+00  0.24269535171E+00  0.90007774587E+02  0.90000036412E+02 0.  0.
        -12    1    1    2    0    0  0.96796728301E+00 -0.63013516792E+00 -0.24269535171E+00  0.11802254126E+01  0.00000000000E+00 0.  1.
         11    1    3    3    0    0  0.40965325041E+00  0.34176208835E+00  0.10933265249E+02  0.10946273630E+02  0.51100000000E-03 0. -1.
        -11    1    3    3    0    0  0.32795956901E+01  0.19635642061E+02 -0.39391721587E+02  0.44136401268E+02  0.51100000000E-03 0.  1.
         12    1    3    3    0    0 -0.46572162235E+01 -0.19347268982E+02  0.28701151690E+02  0.34925099690E+02  0.00000000000E+00 0. -1.
</event>
<event>
 7    1  0.2879200E-015  0.9000776E+02  0.7816164E-02  0.1186339E+00
        -11   -1    0    0    0    0  0.00000000000E+00  0.00000000000E+00  0.45593999997E+02  0.45594000000E+02  0.51100000000E-03 0.  1.
         11   -1    0    0    0    0 -0.00000000000E+00 -0.00000000000E+00 -0.45593999997E+02  0.45594000000E+02  0.51100000000E-03 0. -1.
    9900012    2    1    2    0    0 -0.57962141358E+00 -0.43843214019E+00 -0.92993139389E+00  0.90007764379E+02  0.90000026068E+02 0.  0.
        -12    1    1    2    0    0  0.57962141358E+00  0.43843214019E+00  0.92993139389E+00  0.11802356214E+01  0.00000000000E+00 0.  1.
         11    1    3    3    0    0 -0.87363023931E+01 -0.46541762354E+00  0.14133076682E+01  0.88621121576E+01  0.51100000000E-03 0. -1.
        -11    1    3    3    0    0  0.26403787181E+02  0.17835836960E+02 -0.29834479374E+02  0.43650580951E+02  0.51100000000E-03 0.  1.
         12    1    3    3    0    0 -0.18247106202E+02 -0.17808851477E+02  0.27491240312E+02  0.37495071270E+02  0.00000000000E+00 0. -1.
</event>
<event>
 7    1  0.2879200E-015  0.9000775E+02  0.7816164E-02  0.1186339E+00
        -11   -1    0    0    0    0  0.00000000000E+00  0.00000000000E+00  0.45593999997E+02  0.45594000000E+02  0.51100000000E-03 0. -1.
         11   -1    0    0    0    0 -0.00000000000E+00 -0.00000000000E+00 -0.45593999997E+02  0.45594000000E+02  0.51100000000E-03 0.  1.
    9900012    2    1    2    0    0  0.21492823801E+00 -0.78916586951E+00  0.85088873566E+00  0.90007750638E+02  0.90000012146E+02 0.  0.
        -12    1    1    2    0    0 -0.21492823801E+00  0.78916586951E+00 -0.85088873566E+00  0.11802493624E+01  0.00000000000E+00 0.  1.
         11    1    3    3    0    0 -0.42191279989E+01  0.23510125213E+02  0.27373830582E+02  0.36329789837E+02  0.51100000000E-03 0. -1.
        -11    1    3    3    0    0  0.18060130480E+02 -0.54421526472E+01 -0.63619196296E+00  0.18872998671E+02  0.51100000000E-03 0.  1.
        -12    1    3    3    0    0 -0.13626074243E+02 -0.18857138436E+02 -0.25886749884E+02  0.34804962129E+02  0.00000000000E+00 0.  1.
</event>
<event>
 7    1  0.2879200E-015  0.9000776E+02  0.7816164E-02  0.1186339E+00
        -11   -1    0    0    0    0  0.00000000000E+00  0.00000000000E+00  0.45593999997E+02  0.45594000000E+02  0.51100000000E-03 0.  1.
         11   -1    0    0    0    0 -0.00000000000E+00 -0.00000000000E+00 -0.45593999997E+02  0.45594000000E+02  0.51100000000E-03 0. -1.
    9900012    2    1    2    0    0 -0.50412815689E+00 -0.27999692952E+00 -0.10297636504E+01  0.90007764153E+02  0.90000025840E+02 0.  0.
        -12    1    1    2    0    0  0.50412815689E+00  0.27999692952E+00  0.10297636504E+01  0.11802358471E+01  0.00000000000E+00 0.  1.
         11    1    3    3    0    0  0.48773134519E+01  0.53251353674E+01 -0.53264551063E+01  0.89730918557E+01  0.51100000000E-03 0. -1.
        -11    1    3    3    0    0  0.33944154929E+02 -0.19558520994E+02  0.29160555497E+01  0.39284154280E+02  0.51100000000E-03 0.  1.
         12    1    3    3    0    0 -0.39325596538E+02  0.13953388697E+02  0.13806359062E+01  0.41750518017E+02  0.00000000000E+00 0. -1.
</event>
<event>
 7    1  0.2879200E-015  0.9000780E+02  0.7816164E-02  0.1186339E+00
        -11   -1    0    0    0    0  0.00000000000E+00  0.00000000000E+00  0.45593999997E+02  0.45594000000E+02  0.51100000000E-03 0.  1.
         11   -1    0    0    0    0 -0.00000000000E+00 -0.00000000000E+00 -0.45593999997E+02  0.45594000000E+02  0.51100000000E-03 0. -1.
    9900012    2    1    2    0    0  0.85054701591E+00 -0.14022714902E+00 -0.80608766974E+00  0.90007800351E+02  0.90000062516E+02 0.  0.
        -12    1    1    2    0    0 -0.85054701591E+00  0.14022714902E+00  0.80608766974E+00  0.11801996487E+01  0.00000000000E+00 0.  1.
         11    1    3    3    0    0 -0.32423656565E+02  0.64145595225E+01 -0.27574022817E+02  0.43043777872E+02  0.51100000000E-03 0. -1.
        -11    1    3    3    0    0  0.60334639228E+00 -0.24074263850E+00  0.94118186199E+01  0.94342097645E+01  0.51100000000E-03 0.  1.
        -12    1    3    3    0    0  0.32670857189E+02 -0.63140440330E+01  0.17356116527E+02  0.37529812715E+02  0.00000000000E+00 0.  1.
</event>
<event>
 7    1  0.2879200E-015  0.9000769E+02  0.7816164E-02  0.1186339E+00
        -11   -1    0    0    0    0  0.00000000000E+00  0.00000000000E+00  0.45593999997E+02  0.45594000000E+02  0.51100000000E-03 0. -1.
         11   -1    0    0    0    0 -0.00000000000E+00 -0.00000000000E+00 -0.45593999997E+02  0.45594000000E+02  0.51100000000E-03 0.  1.
    9900012    2    1    2    0    0  0.52681175246E+00  0.77013662108E+00  0.72283058340E+00  0.90007692798E+02  0.89999953543E+02 0.  0.
        -12    1    1    2    0    0 -0.52681175246E+00 -0.77013662108E+00 -0.72283058340E+00  0.11803072015E+01  0.00000000000E+00 0.  1.
         11    1    3    3    0    0  0.75942072082E+01 -0.55502551911E+01  0.10545425165E+01  0.94651664532E+01  0.51100000000E-03 0. -1.
        -11    1    3    3    0    0 -0.13104529726E+02 -0.16693566257E+02 -0.33540064595E+02  0.39690550349E+02  0.51100000000E-03 0.  1.
         12    1    3    3    0    0  0.60371342706E+01  0.23013958070E+02  0.33208352662E+02  0.40851975996E+02  0.00000000000E+00 0. -1.
</event>
<event>
 7    1  0.2879200E-015  0.9000776E+02  0.7816164E-02  0.1186339E+00
        -11   -1    0    0    0    0  0.00000000000E+00  0.00000000000E+00  0.45593999997E+02  0.45594000000E+02  0.51100000000E-03 0.  1.
         11   -1    0    0    0    0 -0.00000000000E+00 -0.00000000000E+00 -0.45593999997E+02  0.45594000000E+02  0.51100000000E-03 0. -1.
    9900012    2    1    2    0    0  0.66499301646E+00  0.28512713152E+00  0.93244968832E+00  0.90007756121E+02  0.90000017702E+02 0.  0.
        -12    1    1    2    0    0 -0.66499301646E+00 -0.28512713152E+00 -0.93244968832E+00  0.11802438792E+01  0.00000000000E+00 0.  1.
         11    1    3    3    0    0 -0.10687436789E+01  0.10848673253E+02  0.27881623871E+01  0.11252100878E+02  0.51100000000E-03 0. -1.
        -11    1    3    3    0    0  0.32199581432E+02  0.17190209437E+02  0.54358997980E+01  0.36903459889E+02  0.51100000000E-03 0.  1.
         12    1    3    3    0    0 -0.30465844737E+02 -0.27753755558E+02 -0.72916124968E+01  0.41852195354E+02  0.00000000000E+00 0. -1.
</event>
<event>
 7    1  0.2879200E-015  0.9000770E+02  0.7816164E-02  0.1186339E+00
        -11   -1    0    0    0    0  0.00000000000E+00  0.00000000000E+00  0.45593999997E+02  0.45594000000E+02  0.51100000000E-03 0.  1.
         11   -1    0    0    0    0 -0.00000000000E+00 -0.00000000000E+00 -0.45593999997E+02  0.45594000000E+02  0.51100000000E-03 0. -1.
    9900012    2    1    2    0    0 -0.33886616104E+00 -0.62485164050E-01 -0.11288843757E+01  0.90007697240E+02  0.89999958044E+02 0.  0.
        -12    1    1    2    0    0  0.33886616104E+00  0.62485164050E-01  0.11288843757E+01  0.11803027597E+01  0.00000000000E+00 0.  1.
         11    1    3    3    0    0  0.31782884717E+02 -0.14573361109E+02 -0.19605530188E+02  0.40086299768E+02  0.51100000000E-03 0. -1.
        -11    1    3    3    0    0 -0.56230197539E+01 -0.83203362194E+01 -0.63608355261E+00  0.10062353030E+02  0.51100000000E-03 0.  1.
        -12    1    3    3    0    0 -0.26498731124E+02  0.22831212164E+02  0.19112729365E+02  0.39859044442E+02  0.00000000000E+00 0.  1.
</event>
<event>
 7    1  0.2879200E-015  0.9000772E+02  0.7816164E-02  0.1186339E+00
        -11   -1    0    0    0    0  0.00000000000E+00  0.00000000000E+00  0.45593999997E+02  0.45594000000E+02  0.51100000000E-03 0. -1.
         11   -1    0    0    0    0 -0.00000000000E+00 -0.00000000000E+00 -0.45593999997E+02  0.45594000000E+02  0.51100000000E-03 0.  1.
    9900012    2    1    2    0    0  0.38631474357E+00 -0.18512708992E+00  0.10997937945E+01  0.90007721427E+02  0.89999982549E+02 0.  0.
        -12    1    1    2    0    0 -0.38631474357E+00  0.18512708992E+00 -0.10997937945E+01  0.11802785734E+01  0.00000000000E+00 0.  1.
         11    1    3    3    0    0  0.31638182066E+02  0.22622502134E+02 -0.13025651713E+02  0.41017310615E+02  0.51100000000E-03 0. -1.
        -11    1    3    3    0    0  0.29087121225E+01 -0.44973321681E+01  0.81817478854E+01  0.97789366274E+01  0.51100000000E-03 0.  1.
        -12    1    3    3    0    0 -0.34160579445E+02 -0.18310297056E+02  0.59436976226E+01  0.39211474184E+02  0.00000000000E+00 0.  1.
</event>
<event>
 7    1  0.2879200E-015  0.9000787E+02  0.7816164E-02  0.1186339E+00
        -11   -1    0    0    0    0  0.00000000000E+00  0.00000000000E+00  0.45593999997E+02  0.45594000000E+02  0.51100000000E-03 0.  1.
         11   -1    0    0    0    0 -0.00000000000E+00 -0.00000000000E+00 -0.45593999997E+02  0.45594000000E+02  0.51100000000E-03 0. -1.
    9900012    2    1    2    0    0  0.40478612937E+00  0.10370598715E+01  0.39162568462E+00  0.90007866251E+02  0.90000129286E+02 0.  0.
        -12    1    1    2    0    0 -0.40478612937E+00 -0.10370598715E+01 -0.39162568462E+00  0.11801337485E+01  0.00000000000E+00 0.  1.
         11    1    3    3    0    0 -0.66170802948E+01 -0.64568196671E+01 -0.23824694141E+01  0.95473783109E+01  0.51100000000E-03 0. -1.
        -11    1    3    3    0    0 -0.50643445528E+01 -0.33938023821E+02 -0.94735447106E+01  0.35597543402E+02  0.51100000000E-03 0.  1.
         12    1    3    3    0    0  0.12086210977E+02  0.41431903359E+02  0.12247639809E+02  0.44862944539E+02  0.00000000000E+00 0. -1.
</event>
<event>
 7    1  0.3282554E-015  0.9000769E+02  0.7816164E-02  0.1186339E+00
        -11   -1    0    0    0    0  0.00000000000E+00  0.00000000000E+00  0.45593999997E+02  0.45594000000E+02  0.51100000000E-03 0.  1.
         11   -1    0    0    0    0 -0.00000000000E+00 -0.00000000000E+00 -0.45593999997E+02  0.45594000000E+02  0.51100000000E-03 0. -1.
    9900012    2    1    2    0    0  0.66635385717E+00 -0.80552490378E+00 -0.54793516095E+00  0.90007690391E+02  0.89999951104E+02 0.  0.
        -12    1    1    2    0    0 -0.66635385717E+00  0.80552490378E+00  0.54793516095E+00  0.11803096095E+01  0.00000000000E+00 0.  1.
         11    1    3    3    0    0  0.77287241916E+01  0.36283169643E+02 -0.11304280388E+02  0.38781288430E+02  0.51100000000E-03 0. -1.
        -11    1    3    3    0    0  0.49659872384E+00 -0.14920610513E+01 -0.94652769247E+01  0.95950155808E+01  0.51100000000E-03 0.  1.
        -12    1    3    3    0    0 -0.75589690582E+01 -0.35596633495E+02  0.20221622152E+02  0.41631386379E+02  0.00000000000E+00 0.  1.
</event>
<event>
 7    1  0.2879200E-015  0.9000777E+02  0.7816164E-02  0.1186339E+00
        -11   -1    0    0    0    0  0.00000000000E+00  0.00000000000E+00  0.45593999997E+02  0.45594000000E+02  0.51100000000E-03 0. -1.
         11   -1    0    0    0    0 -0.00000000000E+00 -0.00000000000E+00 -0.45593999997E+02  0.45594000000E+02  0.51100000000E-03 0.  1.
    9900012    2    1    2    0    0 -0.10418686248E+00 -0.10016023748E+01  0.61554147754E+00  0.90007765477E+02  0.90000027181E+02 0.  0.
        -12    1    1    2    0    0  0.10418686248E+00  0.10016023748E+01 -0.61554147754E+00  0.11802345234E+01  0.00000000000E+00 0.  1.
         11    1    3    3    0    0  0.71221901681E+01 -0.54331607059E+01 -0.29987871903E+01  0.94465630216E+01  0.51100000000E-03 0. -1.
        -11    1    3    3    0    0  0.27417571848E+02  0.27120607231E+02 -0.27486221823E+01  0.38662714685E+02  0.51100000000E-03 0.  1.
         12    1    3    3    0    0 -0.34643948879E+02 -0.22689048900E+02  0.63629508501E+01  0.41898487770E+02  0.00000000000E+00 0. -1.
</event>
<event>
 7    1  0.2879200E-015  0.9000770E+02  0.7816164E-02  0.1186339E+00
        -11   -1    0    0    0    0  0.00000000000E+00  0.00000000000E+00  0.45593999997E+02  0.45594000000E+02  0.51100000000E-03 0.  1.
         11   -1    0    0    0    0 -0.00000000000E+00 -0.00000000000E+00 -0.45593999997E+02  0.45594000000E+02  0.51100000000E-03 0. -1.
    9900012    2    1    2    0    0 -0.20230042602E+00  0.11506525434E+01 -0.16786180924E+00  0.90007701595E+02  0.89999962456E+02 0.  0.
        -12    1    1    2    0    0  0.20230042602E+00 -0.11506525434E+01  0.16786180924E+00  0.11802984051E+01  0.00000000000E+00 0.  1.
         11    1    3    3    0    0 -0.81337534519E+01 -0.80308371931E+00  0.40499798329E+01  0.91216898426E+01  0.51100000000E-03 0. -1.
        -11    1    3    3    0    0 -0.19780222821E+02  0.17651013818E+02  0.25892412702E+02  0.37057152338E+02  0.51100000000E-03 0.  1.
         12    1    3    3    0    0  0.27711675847E+02 -0.15697277555E+02 -0.30110254344E+02  0.43828859414E+02  0.00000000000E+00 0. -1.
</event>
<event>
 7    1  0.2879200E-015  0.9000760E+02  0.7816164E-02  0.1186339E+00
        -11   -1    0    0    0    0  0.00000000000E+00  0.00000000000E+00  0.45593999997E+02  0.45594000000E+02  0.51100000000E-03 0.  1.
         11   -1    0    0    0    0 -0.00000000000E+00 -0.00000000000E+00 -0.45593999997E+02  0.45594000000E+02  0.51100000000E-03 0. -1.
    9900012    2    1    2    0    0  0.39736392316E+00 -0.16861216026E+00 -0.10986448725E+01  0.90007598075E+02  0.89999857570E+02 0.  0.
        -12    1    1    2    0    0 -0.39736392316E+00  0.16861216026E+00  0.10986448725E+01  0.11804019247E+01  0.00000000000E+00 0.  1.
         11    1    3    3    0    0 -0.80026224659E+01 -0.56686753930E+01 -0.69178464607E-01  0.98071725265E+01  0.51100000000E-03 0. -1.
        -11    1    3    3    0    0 -0.19992400280E+01 -0.30946003133E+02  0.19957037589E+02  0.36877302236E+02  0.51100000000E-03 0.  1.
         12    1    3    3    0    0  0.10399226417E+02  0.36446066366E+02 -0.20986503997E+02  0.43323123313E+02  0.00000000000E+00 0. -1.
</event>
<event>
 7    1  0.2879200E-015  0.9000779E+02  0.7816164E-02  0.1186339E+00
        -11   -1    0    0    0    0  0.00000000000E+00  0.00000000000E+00  0.45593999997E+02  0.45594000000E+02  0.51100000000E-03 0.  1.
         11   -1    0    0    0    0 -0.00000000000E+00 -0.00000000000E+00 -0.45593999997E+02  0.45594000000E+02  0.51100000000E-03 0. -1.
    9900012    2    1    2    0    0 -0.67532716541E-01 -0.25846887614E+00 -0.11495740830E+01  0.90007793493E+02  0.90000055567E+02 0.  0.
        -12    1    1    2    0    0  0.67532716541E-01  0.25846887614E+00  0.11495740830E+01  0.11802065073E+01  0.00000000000E+00 0.  1.
         11    1    3    3    0    0  0.10511906455E+02  0.15529112754E+01  0.26522234764E+01  0.10951986138E+02  0.51100000000E-03 0. -1.
        -11    1    3    3    0    0 -0.38845488644E+01  0.25128635093E+02  0.27340840921E+02  0.37337107601E+02  0.51100000000E-03 0.  1.
         12    1    3    3    0    0 -0.66948903068E+01 -0.26940015244E+02 -0.31142638481E+02  0.41718699753E+02  0.00000000000E+00 0. -1.
</event>
<event>
 7    1  0.2879200E-015  0.9000769E+02  0.7816164E-02  0.1186339E+00
        -11   -1    0    0    0    0  0.00000000000E+00  0.00000000000E+00  0.45593999997E+02  0.45594000000E+02  0.51100000000E-03 0.  1.
         11   -1    0    0    0    0 -0.00000000000E+00 -0.00000000000E+00 -0.45593999997E+02  0.45594000000E+02  0.51100000000E-03 0. -1.
    9900012    2    1    2    0    0  0.26187625578E-01  0.52591103762E+00 -0.10563429509E+01  0.90007691294E+02  0.89999952019E+02 0.  0.
        -12    1    1    2    0    0 -0.26187625578E-01 -0.52591103762E+00  0.10563429509E+01  0.11803087059E+01  0.00000000000E+00 0.  1.
         11    1    3    3    0    0  0.36421788465E+02  0.66670330844E+01  0.12913356006E+02  0.39214165409E+02  0.51100000000E-03 0. -1.
        -11    1    3    3    0    0  0.46377934332E+01  0.24172790397E+01 -0.62885639873E+01  0.81791444032E+01  0.51100000000E-03 0.  1.
        -12    1    3    3    0    0 -0.41033394272E+02 -0.85584010864E+01 -0.76811349696E+01  0.42614381482E+02  0.00000000000E+00 0.  1.
</event>
<event>
 7    1  0.2879200E-015  0.9000771E+02  0.7816164E-02  0.1186339E+00
        -11   -1    0    0    0    0  0.00000000000E+00  0.00000000000E+00  0.45593999997E+02  0.45594000000E+02  0.51100000000E-03 0.  1.
         11   -1    0    0    0    0 -0.00000000000E+00 -0.00000000000E+00 -0.45593999997E+02  0.45594000000E+02  0.51100000000E-03 0. -1.
    9900012    2    1    2    0    0  0.55919040191E+00  0.35151579930E+00 -0.97817260527E+00  0.90007712362E+02  0.89999973365E+02 0.  0.
        -12    1    1    2    0    0 -0.55919040191E+00 -0.35151579930E+00  0.97817260527E+00  0.11802876380E+01  0.00000000000E+00 0.  1.
         11    1    3    3    0    0 -0.10228995478E+02  0.37577035733E+02 -0.92247220655E+01  0.40022012199E+02  0.51100000000E-03 0. -1.
        -11    1    3    3    0    0 -0.24593189114E+01  0.11432854683E-01 -0.71563251147E+01  0.75671242640E+01  0.51100000000E-03 0.  1.
        -12    1    3    3    0    0  0.13247504792E+02 -0.37236952788E+02  0.15402874575E+02  0.42418575899E+02  0.00000000000E+00 0.  1.
</event>
<event>
 7    1  0.2879200E-015  0.9000775E+02  0.7816164E-02  0.1186339E+00
        -11   -1    0    0    0    0  0.00000000000E+00  0.00000000000E+00  0.45593999997E+02  0.45594000000E+02  0.51100000000E-03 0.  1.
         11   -1    0    0    0    0 -0.00000000000E+00 -0.00000000000E+00 -0.45593999997E+02  0.45594000000E+02  0.51100000000E-03 0. -1.
    9900012    2    1    2    0    0 -0.10277187520E+01  0.32936007565E-01 -0.57939145824E+00  0.90007752113E+02  0.90000013640E+02 0.  0.
        -12    1    1    2    0    0  0.10277187520E+01 -0.32936007565E-01  0.57939145824E+00  0.11802478874E+01  0.00000000000E+00 0.  1.
         11    1    3    3    0    0 -0.10178563417E+02 -0.64953893620E+01 -0.34920406271E+02  0.36948992011E+02  0.51100000000E-03 0. -1.
        -11    1    3    3    0    0 -0.46532227153E+01  0.80806651979E+01 -0.55272862893E+01  0.10839765941E+02  0.51100000000E-03 0.  1.
        -12    1    3    3    0    0  0.13804067380E+02 -0.15523398283E+01  0.39868301102E+02  0.42218994161E+02  0.00000000000E+00 0.  1.
</event>
<event>
 7    1  0.2879200E-015  0.9000776E+02  0.7816164E-02  0.1186339E+00
        -11   -1    0    0    0    0  0.00000000000E+00  0.00000000000E+00  0.45593999997E+02  0.45594000000E+02  0.51100000000E-03 0.  1.
         11   -1    0    0    0    0 -0.00000000000E+00 -0.00000000000E+00 -0.45593999997E+02  0.45594000000E+02  0.51100000000E-03 0. -1.
    9900012    2    1    2    0    0 -0.36011616504E+00 -0.42628197856E+00 -0.10399883194E+01  0.90007756092E+02  0.90000017673E+02 0.  0.
        -12    1    1    2    0    0  0.36011616504E+00  0.42628197856E+00  0.10399883194E+01  0.11802439078E+01  0.00000000000E+00 0.  1.
         11    1    3    3    0    0 -0.25563765751E+01  0.77219418712E+01 -0.59259915441E+01  0.10063837414E+02  0.51100000000E-03 0. -1.
        -11    1    3    3    0    0 -0.22730067462E+02  0.27003003046E+02  0.96439066144E+01  0.36589931339E+02  0.51100000000E-03 0.  1.
         12    1    3    3    0    0  0.24926327873E+02 -0.35151226896E+02 -0.47579033896E+01  0.43353987339E+02  0.00000000000E+00 0. -1.
</event>
<event>
 7    1  0.2879200E-015  0.9000753E+02  0.7816164E-02  0.1186339E+00
        -11   -1    0    0    0    0  0.00000000000E+00  0.00000000000E+00  0.45593999997E+02  0.45594000000E+02  0.51100000000E-03 0. -1.
         11   -1    0    0    0    0 -0.00000000000E+00 -0.00000000000E+00 -0.45593999997E+02  0.45594000000E+02  0.51100000000E-03 0.  1.
    9900012    2    1    2    0    0 -0.13346599133E+00  0.85065148301E+00 -0.80751685430E+00  0.90007532048E+02  0.89999790671E+02 0.  0.
        -12    1    1    2    0    0  0.13346599133E+00 -0.85065148301E+00  0.80751685430E+00  0.11804679523E+01  0.00000000000E+00 0.  1.
         11    1    3    3    0    0  0.20054018932E+01  0.89039535861E+01 -0.33161356552E+01  0.97107560036E+01  0.51100000000E-03 0. -1.
        -11    1    3    3    0    0 -0.20091568898E+02 -0.16755319263E+02 -0.31451675459E+02  0.40909897994E+02  0.51100000000E-03 0.  1.
         12    1    3    3    0    0  0.17952701014E+02  0.87020171596E+01  0.33960294260E+02  0.39386878051E+02  0.00000000000E+00 0. -1.
</event>
<event>
 7    1  0.2879200E-015  0.9000808E+02  0.7816164E-02  0.1186338E+00
        -11   -1    0    0    0    0  0.00000000000E+00  0.00000000000E+00  0.45593999997E+02  0.45594000000E+02  0.51100000000E-03 0.  1.
         11   -1    0    0    0    0 -0.00000000000E+00 -0.00000000000E+00 -0.45593999997E+02  0.45594000000E+02  0.51100000000E-03 0. -1.
    9900012    2    1    2    0    0  0.39601541834E+00  0.82280335613E+00 -0.74723943577E+00  0.90008084601E+02  0.90000350517E+02 0.  0.
        -12    1    1    2    0    0 -0.39601541834E+00 -0.82280335613E+00  0.74723943577E+00  0.11799153990E+01  0.00000000000E+00 0.  1.
         11    1    3    3    0    0 -0.52031887049E+01  0.87277231762E+01 -0.96130651537E+00  0.10206391871E+02  0.51100000000E-03 0. -1.
        -11    1    3    3    0    0 -0.14355798821E+02  0.16234994337E+02 -0.29516310081E+02  0.36617981402E+02  0.51100000000E-03 0.  1.
         12    1    3    3    0    0  0.19955002944E+02 -0.24139914157E+02  0.29730377161E+02  0.43183711328E+02  0.00000000000E+00 0. -1.
</event>
<event>
 7    1  0.2879200E-015  0.9000773E+02  0.7816164E-02  0.1186339E+00
        -11   -1    0    0    0    0  0.00000000000E+00  0.00000000000E+00  0.45593999997E+02  0.45594000000E+02  0.51100000000E-03 0. -1.
         11   -1    0    0    0    0 -0.00000000000E+00 -0.00000000000E+00 -0.45593999997E+02  0.45594000000E+02  0.51100000000E-03 0.  1.
    9900012    2    1    2    0    0 -0.30345544671E+00  0.75851627971E+00  0.85182731432E+00  0.90007728028E+02  0.89999989238E+02 0.  0.
        -12    1    1    2    0    0  0.30345544671E+00 -0.75851627971E+00 -0.85182731432E+00  0.11802719721E+01  0.00000000000E+00 0.  1.
         11    1    3    3    0    0 -0.30436352274E+02 -0.22932648939E+02  0.20413058669E+02  0.43231595987E+02  0.51100000000E-03 0. -1.
        -11    1    3    3    0    0  0.39118630827E+01  0.50227361193E+00 -0.96060793903E+01  0.10384204980E+02  0.51100000000E-03 0.  1.
        -12    1    3    3    0    0  0.26221033744E+02  0.23188891607E+02 -0.99551519642E+01  0.36391927061E+02  0.00000000000E+00 0.  1.
</event>
<event>
 7    1  0.2879200E-015  0.9000741E+02  0.7816164E-02  0.1186340E+00
        -11   -1    0    0    0    0  0.00000000000E+00  0.00000000000E+00  0.45593999997E+02  0.45594000000E+02  0.51100000000E-03 0.  1.
         11   -1    0    0    0    0 -0.00000000000E+00 -0.00000000000E+00 -0.45593999997E+02  0.45594000000E+02  0.51100000000E-03 0. -1.
    9900012    2    1    2    0    0 -0.43557371959E+00 -0.45349670706E+00 -0.99920392007E+00  0.90007410231E+02  0.89999667246E+02 0.  0.
        -12    1    1    2    0    0  0.43557371959E+00  0.45349670706E+00  0.99920392007E+00  0.11805897689E+01  0.00000000000E+00 0.  1.
         11    1    3    3    0    0 -0.16134692732E+02  0.32498689413E+02  0.14588922705E+02  0.39106646354E+02  0.51100000000E-03 0. -1.
        -11    1    3    3    0    0 -0.87050047605E+01 -0.63560309065E+01  0.16428203819E+01  0.10902985639E+02  0.51100000000E-03 0.  1.
        -12    1    3    3    0    0  0.24404123773E+02 -0.26596155213E+02 -0.17230947007E+02  0.39997778239E+02  0.00000000000E+00 0.  1.
</event>
<event>
 7    1  0.2879200E-015  0.9000886E+02  0.7816164E-02  0.1186337E+00
        -11   -1    0    0    0    0  0.00000000000E+00  0.00000000000E+00  0.45593999997E+02  0.45594000000E+02  0.51100000000E-03 0.  1.
         11   -1    0    0    0    0 -0.00000000000E+00 -0.00000000000E+00 -0.45593999997E+02  0.45594000000E+02  0.51100000000E-03 0. -1.
    9900012    2    1    2    0    0 -0.76793498759E+00 -0.82747181648E+00 -0.34048467449E+00  0.90008863212E+02  0.90001139399E+02 0.  0.
        -12    1    1    2    0    0  0.76793498759E+00  0.82747181648E+00  0.34048467449E+00  0.11791367884E+01  0.00000000000E+00 0.  1.
         11    1    3    3    0    0 -0.31305732974E+01  0.30255391652E+02 -0.22280653240E+02  0.37704332937E+02  0.51100000000E-03 0. -1.
        -11    1    3    3    0    0  0.19613295845E+01 -0.16611184527E+01 -0.91463684688E+01  0.95006412774E+01  0.51100000000E-03 0.  1.
        -12    1    3    3    0    0  0.40130872528E+00 -0.29421745016E+02  0.31086537034E+02  0.42803888997E+02  0.00000000000E+00 0.  1.
</event>
<event>
 7    1  0.2879200E-015  0.9000770E+02  0.7816164E-02  0.1186339E+00
        -11   -1    0    0    0    0  0.00000000000E+00  0.00000000000E+00  0.45593999997E+02  0.45594000000E+02  0.51100000000E-03 0. -1.
         11   -1    0    0    0    0 -0.00000000000E+00 -0.00000000000E+00 -0.45593999997E+02  0.45594000000E+02  0.51100000000E-03 0.  1.
    9900012    2    1    2    0    0  0.98793089103E+00  0.48841607349E+00  0.42256094928E+00  0.90007696877E+02  0.89999957676E+02 0.  0.
        -12    1    1    2    0    0 -0.98793089103E+00 -0.48841607349E+00 -0.42256094928E+00  0.11803031230E+01  0.00000000000E+00 0.  1.
         11    1    3    3    0    0 -0.41379646369E+01  0.64154113454E+01 -0.57738752964E+01  0.95717234742E+01  0.51100000000E-03 0. -1.
        -11    1    3    3    0    0 -0.18524096415E+02  0.16336868846E+02 -0.25182837705E+02  0.35273371640E+02  0.51100000000E-03 0.  1.
         12    1    3    3    0    0  0.23649991943E+02 -0.22263864118E+02  0.31379273951E+02  0.45162601763E+02  0.00000000000E+00 0. -1.
</event>
<event>
 7    1  0.2879200E-015  0.9000781E+02  0.7816164E-02  0.1186339E+00
        -11   -1    0    0    0    0  0.00000000000E+00  0.00000000000E+00  0.45593999997E+02  0.45594000000E+02  0.51100000000E-03 0. -1.
         11   -1    0    0    0    0 -0.00000000000E+00 -0.00000000000E+00 -0.45593999997E+02  0.45594000000E+02  0.51100000000E-03 0.  1.
    9900012    2    1    2    0    0 -0.44064078576E+00  0.10056411372E+01 -0.43286455314E+00  0.90007809287E+02  0.90000071569E+02 0.  0.
        -12    1    1    2    0    0  0.44064078576E+00 -0.10056411372E+01  0.43286455314E+00  0.11801907135E+01  0.00000000000E+00 0.  1.
         11    1    3    3    0    0  0.27332320220E+02 -0.10263725594E+02  0.18408294070E+02  0.34514708206E+02  0.51100000000E-03 0. -1.
        -11    1    3    3    0    0  0.83320704639E+01  0.38011694825E+00  0.60533532577E+01  0.10305870804E+02  0.51100000000E-03 0.  1.
        -12    1    3    3    0    0 -0.36105031470E+02  0.10889249783E+02 -0.24894511881E+02  0.45187230277E+02  0.00000000000E+00 0.  1.
</event>
<event>
 7    1  0.2879200E-015  0.9000763E+02  0.7816164E-02  0.1186339E+00
        -11   -1    0    0    0    0  0.00000000000E+00  0.00000000000E+00  0.45593999997E+02  0.45594000000E+02  0.51100000000E-03 0.  1.
         11   -1    0    0    0    0 -0.00000000000E+00 -0.00000000000E+00 -0.45593999997E+02  0.45594000000E+02  0.51100000000E-03 0. -1.
    9900012    2    1    2    0    0 -0.21880838168E+00  0.36373390972E+00 -0.11014014559E+01  0.90007633687E+02  0.89999893652E+02 0.  0.
        -12    1    1    2    0    0  0.21880838168E+00 -0.36373390972E+00  0.11014014559E+01  0.11803663126E+01  0.00000000000E+00 0.  1.
         11    1    3    3    0    0  0.39512694115E+01 -0.59758245492E+01  0.63588885099E+01  0.95790642731E+01  0.51100000000E-03 0. -1.
        -11    1    3    3    0    0 -0.64278817076E+01 -0.18244462808E+02  0.29921968647E+02  0.35630075699E+02  0.51100000000E-03 0.  1.
         12    1    3    3    0    0  0.22578039144E+01  0.24584021267E+02 -0.37382258612E+02  0.44798493715E+02  0.00000000000E+00 0. -1.
</event>
<event>
 7    1  0.2879200E-015  0.9000779E+02  0.7816164E-02  0.1186339E+00
        -11   -1    0    0    0    0  0.00000000000E+00  0.00000000000E+00  0.45593999997E+02  0.45594000000E+02  0.51100000000E-03 0. -1.
         11   -1    0    0    0    0 -0.00000000000E+00 -0.00000000000E+00 -0.45593999997E+02  0.45594000000E+02  0.51100000000E-03 0.  1.
    9900012    2    1    2    0    0 -0.90747582808E+00  0.60846931272E+00  0.44624877025E+00  0.90007794404E+02  0.90000056490E+02 0.  0.
        -12    1    1    2    0    0  0.90747582808E+00 -0.60846931272E+00 -0.44624877025E+00  0.11802055957E+01  0.00000000000E+00 0.  1.
         11    1    3    3    0    0  0.69965293859E+01 -0.44985123035E+01  0.30841585613E+01  0.88713060304E+01  0.51100000000E-03 0. -1.
        -11    1    3    3    0    0  0.13183857043E+02 -0.31182657142E+02 -0.15504795111E+02  0.37236687080E+02  0.51100000000E-03 0.  1.
         12    1    3    3    0    0 -0.21087862257E+02  0.36289638759E+02  0.12866885320E+02  0.43899801294E+02  0.00000000000E+00 0. -1.
</event>
<event>
 7    1  0.2879200E-015  0.9000773E+02  0.7816164E-02  0.1186339E+00
        -11   -1    0    0    0    0  0.00000000000E+00  0.00000000000E+00  0.45593999997E+02  0.45594000000E+02  0.51100000000E-03 0.  1.
         11   -1    0    0    0    0 -0.00000000000E+00 -0.00000000000E+00 -0.45593999997E+02  0.45594000000E+02  0.51100000000E-03 0. -1.
    9900012    2    1    2    0    0  0.41865525340E+00 -0.39233280158E+00 -0.10314205453E+01  0.90007734949E+02  0.89999996251E+02 0.  0.
        -12    1    1    2    0    0 -0.41865525340E+00  0.39233280158E+00  0.10314205453E+01  0.11802650506E+01  0.00000000000E+00 0.  1.
         11    1    3    3    0    0  0.56769508147E+01 -0.62125164244E+01  0.40744739731E+01  0.93501053093E+01  0.51100000000E-03 0. -1.
        -11    1    3    3    0    0 -0.29127871229E+01  0.13125755660E+02  0.36215072719E+02  0.38630315592E+02  0.51100000000E-03 0.  1.
         12    1    3    3    0    0 -0.23455084385E+01 -0.73055720368E+01 -0.41320967237E+02  0.42027314048E+02  0.00000000000E+00 0. -1.
</event>
<event>
 7    1  0.2879200E-015  0.9000782E+02  0.7816164E-02  0.1186339E+00
        -11   -1    0    0    0    0  0.00000000000E+00  0.00000000000E+00  0.45593999997E+02  0.45594000000E+02  0.51100000000E-03 0. -1.
         11   -1    0    0    0    0 -0.00000000000E+00 -0.00000000000E+00 -0.45593999997E+02  0.45594000000E+02  0.51100000000E-03 0.  1.
    9900012    2    1    2    0    0  0.64987884114E+00  0.86620840555E+00  0.46921160369E+00  0.90007822454E+02  0.90000084911E+02 0.  0.
        -12    1    1    2    0    0 -0.64987884114E+00 -0.86620840555E+00 -0.46921160369E+00  0.11801775456E+01  0.00000000000E+00 0.  1.
         11    1    3    3    0    0  0.13540003994E+02  0.28416170457E+02  0.19143697851E+02  0.36841438887E+02  0.51100000000E-03 0. -1.
        -11    1    3    3    0    0  0.11099141489E+02  0.17315462834E+01 -0.68135365817E+00  0.11254040936E+02  0.51100000000E-03 0.  1.
        -12    1    3    3    0    0 -0.23989266642E+02 -0.29281508335E+02 -0.17993132589E+02  0.41912342631E+02  0.00000000000E+00 0.  1.
</event>
<event>
 7    1  0.2879200E-015  0.9000775E+02  0.7816164E-02  0.1186339E+00
        -11   -1    0    0    0    0  0.00000000000E+00  0.00000000000E+00  0.45593999997E+02  0.45594000000E+02  0.51100000000E-03 0. -1.
         11   -1    0    0    0    0 -0.00000000000E+00 -0.00000000000E+00 -0.45593999997E+02  0.45594000000E+02  0.51100000000E-03 0.  1.
    9900012    2    1    2    0    0  0.70830600816E+00 -0.93554841536E+00 -0.12664906542E+00  0.90007750779E+02  0.90000012289E+02 0.  0.
        -12    1    1    2    0    0 -0.70830600816E+00  0.93554841536E+00  0.12664906542E+00  0.11802492213E+01  0.00000000000E+00 0.  1.
         11    1    3    3    0    0 -0.36810093228E+01 -0.78536958876E+01 -0.49740142141E+01  0.99985592158E+01  0.51100000000E-03 0. -1.
        -11    1    3    3    0    0 -0.23580447228E+02 -0.20629624386E+02  0.20829206127E+02  0.37622795243E+02  0.51100000000E-03 0.  1.
         12    1    3    3    0    0  0.27969762559E+02  0.27547771858E+02 -0.15981840978E+02  0.42386396320E+02  0.00000000000E+00 0. -1.
</event>
<event>
 7    1  0.2879200E-015  0.9000744E+02  0.7816164E-02  0.1186340E+00
        -11   -1    0    0    0    0  0.00000000000E+00  0.00000000000E+00  0.45593999997E+02  0.45594000000E+02  0.51100000000E-03 0.  1.
         11   -1    0    0    0    0 -0.00000000000E+00 -0.00000000000E+00 -0.45593999997E+02  0.45594000000E+02  0.51100000000E-03 0. -1.
    9900012    2    1    2    0    0 -0.34171793889E+00  0.91192441544E+00 -0.66733314113E+00  0.90007444702E+02  0.89999702172E+02 0.  0.
        -12    1    1    2    0    0  0.34171793889E+00 -0.91192441544E+00  0.66733314113E+00  0.11805552975E+01  0.00000000000E+00 0.  1.
         11    1    3    3    0    0 -0.27030235721E+02 -0.17547473604E+02  0.17803332643E+02  0.36817198786E+02  0.51100000000E-03 0. -1.
        -11    1    3    3    0    0 -0.60939532325E+00 -0.98488324040E+01 -0.30755280108E+00  0.98724592361E+01  0.51100000000E-03 0.  1.
        -12    1    3    3    0    0  0.27297913106E+02  0.28308230423E+02 -0.18163112983E+02  0.43317786680E+02  0.00000000000E+00 0.  1.
</event>
<event>
 7    1  0.2879200E-015  0.9000783E+02  0.7816164E-02  0.1186339E+00
        -11   -1    0    0    0    0  0.00000000000E+00  0.00000000000E+00  0.45593999997E+02  0.45594000000E+02  0.51100000000E-03 0.  1.
         11   -1    0    0    0    0 -0.00000000000E+00 -0.00000000000E+00 -0.45593999997E+02  0.45594000000E+02  0.51100000000E-03 0. -1.
    9900012    2    1    2    0    0 -0.60776125086E+00  0.10089090019E+01  0.74299078592E-01  0.90007834137E+02  0.90000096747E+02 0.  0.
        -12    1    1    2    0    0  0.60776125086E+00 -0.10089090019E+01 -0.74299078592E-01  0.11801658634E+01  0.00000000000E+00 0.  1.
         11    1    3    3    0    0  0.22808611670E+02  0.69612276087E+01 -0.29703429284E+02  0.38091799217E+02  0.51100000000E-03 0. -1.
        -11    1    3    3    0    0 -0.11528482621E+01  0.92571008423E+01 -0.26935522331E+01  0.97096961340E+01  0.51100000000E-03 0.  1.
        -12    1    3    3    0    0 -0.22263524658E+02 -0.15209419449E+02  0.32471280595E+02  0.42206338786E+02  0.00000000000E+00 0.  1.
</event>
<event>
 7    1  0.2879200E-015  0.9000796E+02  0.7816164E-02  0.1186339E+00
        -11   -1    0    0    0    0  0.00000000000E+00  0.00000000000E+00  0.45593999997E+02  0.45594000000E+02  0.51100000000E-03 0.  1.
         11   -1    0    0    0    0 -0.00000000000E+00 -0.00000000000E+00 -0.45593999997E+02  0.45594000000E+02  0.51100000000E-03 0. -1.
    9900012    2    1    2    0    0  0.45852031982E-01  0.49068200191E+00 -0.10722059612E+01  0.90007958959E+02  0.90000223217E+02 0.  0.
        -12    1    1    2    0    0 -0.45852031982E-01 -0.49068200191E+00  0.10722059612E+01  0.11800410413E+01  0.00000000000E+00 0.  1.
         11    1    3    3    0    0 -0.21710871825E+01  0.35323137409E+01  0.84704430584E+01  0.94307616758E+01  0.51100000000E-03 0. -1.
        -11    1    3    3    0    0 -0.11705359373E+02 -0.26959107415E+02  0.23388953658E+02  0.37561310735E+02  0.51100000000E-03 0.  1.
         12    1    3    3    0    0  0.13922298587E+02  0.23917475676E+02 -0.32931602677E+02  0.43015886548E+02  0.00000000000E+00 0. -1.
</event>
<event>
 7    1  0.2879200E-015  0.9000774E+02  0.7816164E-02  0.1186339E+00
        -11   -1    0    0    0    0  0.00000000000E+00  0.00000000000E+00  0.45593999997E+02  0.45594000000E+02  0.51100000000E-03 0.  1.
         11   -1    0    0    0    0 -0.00000000000E+00 -0.00000000000E+00 -0.45593999997E+02  0.45594000000E+02  0.51100000000E-03 0. -1.
    9900012    2    1    2    0    0 -0.20910586675E-01  0.95097312071E+00 -0.69873385020E+00  0.90007738960E+02  0.90000000314E+02 0.  0.
        -12    1    1    2    0    0  0.20910586675E-01 -0.95097312071E+00  0.69873385020E+00  0.11802610399E+01  0.00000000000E+00 0.  1.
         11    1    3    3    0    0 -0.19864593552E+02  0.18621413550E+02  0.84611136547E+01  0.28512270413E+02  0.51100000000E-03 0. -1.
        -11    1    3    3    0    0  0.67869270341E+00  0.15293434948E+02  0.10531141036E+02  0.18581030867E+02  0.51100000000E-03 0.  1.
         12    1    3    3    0    0  0.19164990262E+02 -0.32963875377E+02 -0.19690988541E+02  0.42914437680E+02  0.00000000000E+00 0. -1.
</event>
<event>
 7    1  0.4391699E-015  0.9000770E+02  0.7816164E-02  0.1186339E+00
        -11   -1    0    0    0    0  0.00000000000E+00  0.00000000000E+00  0.45593999997E+02  0.45594000000E+02  0.51100000000E-03 0. -1.
         11   -1    0    0    0    0 -0.00000000000E+00 -0.00000000000E+00 -0.45593999997E+02  0.45594000000E+02  0.51100000000E-03 0.  1.
    9900012    2    1    2    0    0  0.84049131476E+00 -0.52915100988E+00  0.63771235815E+00  0.90007701947E+02  0.89999962813E+02 0.  0.
        -12    1    1    2    0    0 -0.84049131476E+00  0.52915100988E+00 -0.63771235815E+00  0.11802980527E+01  0.00000000000E+00 0.  1.
         11    1    3    3    0    0 -0.24346478727E+01 -0.10216378937E+02  0.36536895011E+02  0.38016399174E+02  0.51100000000E-03 0. -1.
        -11    1    3    3    0    0 -0.87260506935E+01 -0.14927141546E+01  0.33401480173E+01  0.94619630781E+01  0.51100000000E-03 0.  1.
        -12    1    3    3    0    0  0.12001189881E+02  0.11179942082E+02 -0.39239330670E+02  0.42529339695E+02  0.00000000000E+00 0.  1.
</event>
<event>
 7    1  0.2879200E-015  0.9000778E+02  0.7816164E-02  0.1186339E+00
        -11   -1    0    0    0    0  0.00000000000E+00  0.00000000000E+00  0.45593999997E+02  0.45594000000E+02  0.51100000000E-03 0.  1.
         11   -1    0    0    0    0 -0.00000000000E+00 -0.00000000000E+00 -0.45593999997E+02  0.45594000000E+02  0.51100000000E-03 0. -1.
    9900012    2    1    2    0    0  0.35981909247E+00  0.99876602482E+00 -0.51567038897E+00  0.90007779977E+02  0.90000041873E+02 0.  0.
        -12    1    1    2    0    0 -0.35981909247E+00 -0.99876602482E+00  0.51567038897E+00  0.11802200226E+01  0.00000000000E+00 0.  1.
         11    1    3    3    0    0  0.24971877927E+02  0.19237746376E+02  0.17275374140E+02  0.35946128092E+02  0.51100000000E-03 0. -1.
        -11    1    3    3    0    0  0.90771997273E+01  0.47117149390E+01 -0.46236170371E+01  0.11223798257E+02  0.51100000000E-03 0.  1.
        -12    1    3    3    0    0 -0.33689258562E+02 -0.22950695290E+02 -0.13167427492E+02  0.42837853629E+02  0.00000000000E+00 0.  1.
</event>
<event>
 7    1  0.2879200E-015  0.9000776E+02  0.7816164E-02  0.1186339E+00
        -11   -1    0    0    0    0  0.00000000000E+00  0.00000000000E+00  0.45593999997E+02  0.45594000000E+02  0.51100000000E-03 0. -1.
         11   -1    0    0    0    0 -0.00000000000E+00 -0.00000000000E+00 -0.45593999997E+02  0.45594000000E+02  0.51100000000E-03 0.  1.
    9900012    2    1    2    0    0 -0.21385782337E-01  0.20517260595E+00  0.11620745434E+01  0.90007758332E+02  0.90000019942E+02 0.  0.
        -12    1    1    2    0    0  0.21385782337E-01 -0.20517260595E+00 -0.11620745434E+01  0.11802416678E+01  0.00000000000E+00 0.  1.
         11    1    3    3    0    0 -0.17440209889E+02  0.13197859336E+02 -0.31279517358E+02  0.38167428764E+02  0.51100000000E-03 0. -1.
        -11    1    3    3    0    0 -0.91183355587E+01  0.25457243443E+01  0.54529402153E+01  0.10925168788E+02  0.51100000000E-03 0.  1.
        -12    1    3    3    0    0  0.26537159665E+02 -0.15538411074E+02  0.26988651686E+02  0.40915160780E+02  0.00000000000E+00 0.  1.
</event>
<event>
 7    1  0.2879200E-015  0.9000794E+02  0.7816164E-02  0.1186339E+00
        -11   -1    0    0    0    0  0.00000000000E+00  0.00000000000E+00  0.45593999997E+02  0.45594000000E+02  0.51100000000E-03 0.  1.
         11   -1    0    0    0    0 -0.00000000000E+00 -0.00000000000E+00 -0.45593999997E+02  0.45594000000E+02  0.51100000000E-03 0. -1.
    9900012    2    1    2    0    0  0.89355978728E+00 -0.68262041167E+00 -0.35793624476E+00  0.90007941495E+02  0.90000205523E+02 0.  0.
        -12    1    1    2    0    0 -0.89355978728E+00  0.68262041167E+00  0.35793624476E+00  0.11800585050E+01  0.00000000000E+00 0.  1.
         11    1    3    3    0    0 -0.23361135893E+02  0.20488792637E+02 -0.22352794522E+02  0.38277679098E+02  0.51100000000E-03 0. -1.
        -11    1    3    3    0    0 -0.83788643727E+01 -0.13329503039E+01  0.24604540817E+01  0.88337964227E+01  0.51100000000E-03 0.  1.
        -12    1    3    3    0    0  0.32633560053E+02 -0.19838462744E+02  0.19534404196E+02  0.42896465974E+02  0.00000000000E+00 0.  1.
</event>
<event>
 7    1  0.2879200E-015  0.9000742E+02  0.7816164E-02  0.1186340E+00
        -11   -1    0    0    0    0  0.00000000000E+00  0.00000000000E+00  0.45593999997E+02  0.45594000000E+02  0.51100000000E-03 0. -1.
         11   -1    0    0    0    0 -0.00000000000E+00 -0.00000000000E+00 -0.45593999997E+02  0.45594000000E+02  0.51100000000E-03 0.  1.
    9900012    2    1    2    0    0  0.50652515155E+00 -0.10561096113E+01  0.14779319351E+00  0.90007416217E+02  0.89999673311E+02 0.  0.
        -12    1    1    2    0    0 -0.50652515155E+00  0.10561096113E+01 -0.14779319351E+00  0.11805837829E+01  0.00000000000E+00 0.  1.
         11    1    3    3    0    0 -0.41120396983E+01 -0.34886485843E+02  0.35374757948E+01  0.35305658190E+02  0.51100000000E-03 0.  1.
        -11    1    3    3    0    0  0.16852477999E+02  0.21395078237E+02  0.13520441747E+02  0.30406540954E+02  0.51100000000E-03 0. -1.
        -12    1    3    3    0    0 -0.12233913149E+02  0.12435297994E+02 -0.16910124349E+02  0.24295217073E+02  0.00000000000E+00 0.  1.
</event>
<event>
 7    1  0.2879200E-015  0.9000791E+02  0.7816164E-02  0.1186339E+00
        -11   -1    0    0    0    0  0.00000000000E+00  0.00000000000E+00  0.45593999997E+02  0.45594000000E+02  0.51100000000E-03 0.  1.
         11   -1    0    0    0    0 -0.00000000000E+00 -0.00000000000E+00 -0.45593999997E+02  0.45594000000E+02  0.51100000000E-03 0. -1.
    9900012    2    1    2    0    0 -0.65479559162E+00 -0.78943944515E+00 -0.58363826511E+00  0.90007912915E+02  0.90000176565E+02 0.  0.
        -12    1    1    2    0    0  0.65479559162E+00  0.78943944515E+00  0.58363826511E+00  0.11800870853E+01  0.00000000000E+00 0.  1.
         11    1    3    3    0    0  0.96192296896E+01  0.87578804929E+01 -0.33233085710E+02  0.35688486051E+02  0.51100000000E-03 0. -1.
        -11    1    3    3    0    0 -0.10860259911E+02  0.13008328908E+02  0.32418379600E+01  0.17253155651E+02  0.51100000000E-03 0.  1.
        -12    1    3    3    0    0  0.58623462960E+00 -0.22555648846E+02  0.29407609485E+02  0.37066271212E+02  0.00000000000E+00 0.  1.
</event>
<event>
 7    1  0.2879200E-015  0.9000762E+02  0.7816164E-02  0.1186339E+00
        -11   -1    0    0    0    0  0.00000000000E+00  0.00000000000E+00  0.45593999997E+02  0.45594000000E+02  0.51100000000E-03 0. -1.
         11   -1    0    0    0    0 -0.00000000000E+00 -0.00000000000E+00 -0.45593999997E+02  0.45594000000E+02  0.51100000000E-03 0.  1.
    9900012    2    1    2    0    0 -0.71925073837E+00  0.24384382232E+00  0.90361889980E+00  0.90007615084E+02  0.89999874803E+02 0.  0.
        -12    1    1    2    0    0  0.71925073837E+00 -0.24384382232E+00 -0.90361889980E+00  0.11803849162E+01  0.00000000000E+00 0.  1.
         11    1    3    3    0    0 -0.38170583005E+02 -0.98503597405E+01  0.33454688361E+01  0.39562800153E+02  0.51100000000E-03 0. -1.
        -11    1    3    3    0    0  0.39908570079E+01 -0.10399128862E+02 -0.94837932492E+00  0.11178919641E+02  0.51100000000E-03 0.  1.
        -12    1    3    3    0    0  0.33460475259E+02  0.20493332425E+02 -0.14934706114E+01  0.39265895289E+02  0.00000000000E+00 0.  1.
</event>
<event>
 7    1  0.2879200E-015  0.9000761E+02  0.7816164E-02  0.1186339E+00
        -11   -1    0    0    0    0  0.00000000000E+00  0.00000000000E+00  0.45593999997E+02  0.45594000000E+02  0.51100000000E-03 0.  1.
         11   -1    0    0    0    0 -0.00000000000E+00 -0.00000000000E+00 -0.45593999997E+02  0.45594000000E+02  0.51100000000E-03 0. -1.
    9900012    2    1    2    0    0 -0.10123678789E+01  0.57120990632E+00  0.20529473224E+00  0.90007612180E+02  0.89999871860E+02 0.  0.
        -12    1    1    2    0    0  0.10123678789E+01 -0.57120990632E+00 -0.20529473224E+00  0.11803878204E+01  0.00000000000E+00 0.  1.
         11    1    3    3    0    0  0.29551109343E+02 -0.24547532726E+02 -0.39388687952E+01  0.38618183722E+02  0.51100000000E-03 0. -1.
        -11    1    3    3    0    0  0.43200196676E+01  0.53748126198E+01  0.86402376401E+01  0.11054631942E+02  0.51100000000E-03 0.  1.
        -12    1    3    3    0    0 -0.34883496889E+02  0.19743930013E+02 -0.44960741126E+01  0.40334796516E+02  0.00000000000E+00 0.  1.
</event>
<event>
 7    1  0.2879200E-015  0.9000735E+02  0.7816164E-02  0.1186340E+00
        -11   -1    0    0    0    0  0.00000000000E+00  0.00000000000E+00  0.45593999997E+02  0.45594000000E+02  0.51100000000E-03 0.  1.
         11   -1    0    0    0    0 -0.00000000000E+00 -0.00000000000E+00 -0.45593999997E+02  0.45594000000E+02  0.51100000000E-03 0. -1.
    9900012    2    1    2    0    0  0.18528071269E-01 -0.48860320727E+00 -0.10746464685E+01  0.90007347038E+02  0.89999603218E+02 0.  0.
        -12    1    1    2    0    0 -0.18528071269E-01  0.48860320727E+00  0.10746464685E+01  0.11806529616E+01  0.00000000000E+00 0.  1.
         11    1    3    3    0    0 -0.27833978021E+02  0.16114156864E+02 -0.23438259907E+02  0.39796336661E+02  0.51100000000E-03 0. -1.
        -11    1    3    3    0    0 -0.24349087501E+01  0.63245360802E+01  0.17841786785E+01  0.70079833811E+01  0.51100000000E-03 0.  1.
        -12    1    3    3    0    0  0.30287414842E+02 -0.22927296151E+02  0.20579434760E+02  0.43203026997E+02  0.00000000000E+00 0.  1.
</event>
<event>
 7    1  0.2879200E-015  0.9000778E+02  0.7816164E-02  0.1186339E+00
        -11   -1    0    0    0    0  0.00000000000E+00  0.00000000000E+00  0.45593999997E+02  0.45594000000E+02  0.51100000000E-03 0. -1.
         11   -1    0    0    0    0 -0.00000000000E+00 -0.00000000000E+00 -0.45593999997E+02  0.45594000000E+02  0.51100000000E-03 0.  1.
    9900012    2    1    2    0    0 -0.11747721827E+01  0.10579525285E+00  0.40388955717E-01  0.90007782400E+02  0.90000044327E+02 0.  0.
        -12    1    1    2    0    0  0.11747721827E+01 -0.10579525285E+00 -0.40388955717E-01  0.11802176005E+01  0.00000000000E+00 0.  1.
         11    1    3    3    0    0  0.36225766099E+00 -0.57887555727E+01  0.72021232861E+01  0.92472429287E+01  0.51100000000E-03 0. -1.
        -11    1    3    3    0    0  0.31518947551E+02  0.23618895627E+02  0.81959290973E+01  0.40230206803E+02  0.51100000000E-03 0.  1.
         12    1    3    3    0    0 -0.33055977395E+02 -0.17724344802E+02 -0.15357663428E+02  0.40530332668E+02  0.00000000000E+00 0. -1.
</event>
<event>
 7    1  0.2879200E-015  0.9000769E+02  0.7816164E-02  0.1186339E+00
        -11   -1    0    0    0    0  0.00000000000E+00  0.00000000000E+00  0.45593999997E+02  0.45594000000E+02  0.51100000000E-03 0.  1.
         11   -1    0    0    0    0 -0.00000000000E+00 -0.00000000000E+00 -0.45593999997E+02  0.45594000000E+02  0.51100000000E-03 0. -1.
    9900012    2    1    2    0    0 -0.11489965960E+01 -0.23841922081E+00  0.12688793919E+00  0.90007687562E+02  0.89999948238E+02 0.  0.
        -12    1    1    2    0    0  0.11489965960E+01  0.23841922081E+00 -0.12688793919E+00  0.11803124381E+01  0.00000000000E+00 0.  1.
         11    1    3    3    0    0  0.35574382706E+02 -0.11432134522E+02 -0.21728897744E+02  0.43224708236E+02  0.51100000000E-03 0. -1.
        -11    1    3    3    0    0 -0.15992440895E+02  0.18878941602E+01  0.13246719212E+01  0.16157879381E+02  0.51100000000E-03 0.  1.
        -12    1    3    3    0    0 -0.20730938407E+02  0.93058211407E+01  0.20531113762E+02  0.30625099945E+02  0.00000000000E+00 0.  1.
</event>
<event>
 7    1  0.2879200E-015  0.9000775E+02  0.7816164E-02  0.1186339E+00
        -11   -1    0    0    0    0  0.00000000000E+00  0.00000000000E+00  0.45593999997E+02  0.45594000000E+02  0.51100000000E-03 0.  1.
         11   -1    0    0    0    0 -0.00000000000E+00 -0.00000000000E+00 -0.45593999997E+02  0.45594000000E+02  0.51100000000E-03 0. -1.
    9900012    2    1    2    0    0  0.55048925611E-01 -0.91238609842E+00 -0.74666117772E+00  0.90007753546E+02  0.90000015093E+02 0.  0.
        -12    1    1    2    0    0 -0.55048925611E-01  0.91238609842E+00  0.74666117772E+00  0.11802464535E+01  0.00000000000E+00 0.  1.
         11    1    3    3    0    0  0.31222935522E+01 -0.15622976002E+02 -0.25934517235E+01  0.16141625949E+02  0.51100000000E-03 0. -1.
        -11    1    3    3    0    0 -0.36344779286E+02  0.14116878091E+02  0.85461831834E+01  0.39915742203E+02  0.51100000000E-03 0.  1.
         12    1    3    3    0    0  0.33277534659E+02  0.59371181265E+00 -0.66993926377E+01  0.33950385394E+02  0.00000000000E+00 0. -1.
</event>
<event>
 7    1  0.2879200E-015  0.9000783E+02  0.7816164E-02  0.1186339E+00
        -11   -1    0    0    0    0  0.00000000000E+00  0.00000000000E+00  0.45593999997E+02  0.45594000000E+02  0.51100000000E-03 0. -1.
         11   -1    0    0    0    0 -0.00000000000E+00 -0.00000000000E+00 -0.45593999997E+02  0.45594000000E+02  0.51100000000E-03 0.  1.
    9900012    2    1    2    0    0  0.94536594409E+00  0.59877151249E+00 -0.37489894697E+00  0.90007833354E+02  0.90000095954E+02 0.  0.
        -12    1    1    2    0    0 -0.94536594409E+00 -0.59877151249E+00  0.37489894697E+00  0.11801666462E+01  0.00000000000E+00 0.  1.
         11    1    3    3    0    0 -0.32074140673E+02 -0.25637885493E+01  0.27571966499E+02  0.42373775481E+02  0.51100000000E-03 0. -1.
        -11    1    3    3    0    0  0.26074597781E+01 -0.58272482421E+01 -0.20944122614E+01  0.67187968827E+01  0.51100000000E-03 0.  1.
        -12    1    3    3    0    0  0.30412046839E+02  0.89898083039E+01 -0.25852453184E+02  0.40915260990E+02  0.00000000000E+00 0.  1.
</event>
<event>
 7    1  0.2879200E-015  0.9000772E+02  0.7816164E-02  0.1186339E+00
        -11   -1    0    0    0    0  0.00000000000E+00  0.00000000000E+00  0.45593999997E+02  0.45594000000E+02  0.51100000000E-03 0. -1.
         11   -1    0    0    0    0 -0.00000000000E+00 -0.00000000000E+00 -0.45593999997E+02  0.45594000000E+02  0.51100000000E-03 0.  1.
    9900012    2    1    2    0    0 -0.81701846677E+00 -0.84673343634E+00 -0.92618269671E-01  0.90007722562E+02  0.89999983700E+02 0.  0.
        -12    1    1    2    0    0  0.81701846677E+00  0.84673343634E+00  0.92618269671E-01  0.11802774382E+01  0.00000000000E+00 0.  1.
         11    1    3    3    0    0 -0.13274954724E+01 -0.62408801846E+00  0.16981752016E+02  0.17044988469E+02  0.51100000000E-03 0. -1.
        -11    1    3    3    0    0 -0.30364002134E+02 -0.17399385653E+02 -0.37233569785E+01  0.35193389069E+02  0.51100000000E-03 0.  1.
         12    1    3    3    0    0  0.30874479140E+02  0.17176740235E+02 -0.13351013308E+02  0.37769345025E+02  0.00000000000E+00 0. -1.
</event>
<event>
 7    1  0.2879200E-015  0.9000776E+02  0.7816164E-02  0.1186339E+00
        -11   -1    0    0    0    0  0.00000000000E+00  0.00000000000E+00  0.45593999997E+02  0.45594000000E+02  0.51100000000E-03 0. -1.
         11   -1    0    0    0    0 -0.00000000000E+00 -0.00000000000E+00 -0.45593999997E+02  0.45594000000E+02  0.51100000000E-03 0.  1.
    9900012    2    1    2    0    0  0.48245427112E-01 -0.83557360721E+00  0.83214409468E+00  0.90007756521E+02  0.90000018108E+02 0.  0.
        -12    1    1    2    0    0 -0.48245427112E-01  0.83557360721E+00 -0.83214409468E+00  0.11802434785E+01  0.00000000000E+00 0.  1.
         11    1    3    3    0    0  0.20043913282E+00  0.88501294105E+01  0.34534695999E+01  0.95021796956E+01  0.51100000000E-03 0. -1.
        -11    1    3    3    0    0  0.21765202570E+02  0.18270943477E+02 -0.25558379222E+02  0.38220180104E+02  0.51100000000E-03 0.  1.
         12    1    3    3    0    0 -0.21917396276E+02 -0.27956646495E+02  0.22937053716E+02  0.42285396722E+02  0.00000000000E+00 0. -1.
</event>
<event>
 7    1  0.2879200E-015  0.9000758E+02  0.7816164E-02  0.1186339E+00
        -11   -1    0    0    0    0  0.00000000000E+00  0.00000000000E+00  0.45593999997E+02  0.45594000000E+02  0.51100000000E-03 0.  1.
         11   -1    0    0    0    0 -0.00000000000E+00 -0.00000000000E+00 -0.45593999997E+02  0.45594000000E+02  0.51100000000E-03 0. -1.
    9900012    2    1    2    0    0 -0.66002231047E+00  0.88634127940E+00 -0.41492020890E+00  0.90007580967E+02  0.89999840236E+02 0.  0.
        -12    1    1    2    0    0  0.66002231047E+00 -0.88634127940E+00  0.41492020890E+00  0.11804190331E+01  0.00000000000E+00 0.  1.
         11    1    3    3    0    0  0.14676764729E+02  0.33579926272E+01 -0.37573507059E+02  0.40477796017E+02  0.51100000000E-03 0. -1.
        -11    1    3    3    0    0 -0.86333815573E+01  0.62249138145E+01 -0.14420926949E+00  0.10644511529E+02  0.51100000000E-03 0.  1.
        -12    1    3    3    0    0 -0.67034054819E+01 -0.86965651623E+01  0.37302796120E+02  0.38885273421E+02  0.00000000000E+00 0.  1.
</event>
<event>
 7    1  0.2879200E-015  0.9000772E+02  0.7816164E-02  0.1186339E+00
        -11   -1    0    0    0    0  0.00000000000E+00  0.00000000000E+00  0.45593999997E+02  0.45594000000E+02  0.51100000000E-03 0.  1.
         11   -1    0    0    0    0 -0.00000000000E+00 -0.00000000000E+00 -0.45593999997E+02  0.45594000000E+02  0.51100000000E-03 0. -1.
    9900012    2    1    2    0    0  0.10251954642E+01 -0.50066126317E+00 -0.30226302612E+00  0.90007724449E+02  0.89999985611E+02 0.  0.
        -12    1    1    2    0    0 -0.10251954642E+01  0.50066126317E+00  0.30226302612E+00  0.11802755514E+01  0.00000000000E+00 0.  1.
         11    1    3    3    0    0  0.14153376654E+02  0.34554682322E+02 -0.12832622911E+01  0.37362961653E+02  0.51100000000E-03 0. -1.
        -11    1    3    3    0    0  0.65755472129E+00  0.47900813594E+01  0.85361674989E+01  0.98103727489E+01  0.51100000000E-03 0.  1.
        -12    1    3    3    0    0 -0.13785735911E+02 -0.39845424945E+02 -0.75551682339E+01  0.42834390047E+02  0.00000000000E+00 0.  1.
</event>
<event>
 7    1  0.2879200E-015  0.9000769E+02  0.7816164E-02  0.1186339E+00
        -11   -1    0    0    0    0  0.00000000000E+00  0.00000000000E+00  0.45593999997E+02  0.45594000000E+02  0.51100000000E-03 0.  1.
         11   -1    0    0    0    0 -0.00000000000E+00 -0.00000000000E+00 -0.45593999997E+02  0.45594000000E+02  0.51100000000E-03 0. -1.
    9900012    2    1    2    0    0  0.11465055036E+01  0.20870371613E+00  0.18733931185E+00  0.90007691511E+02  0.89999952239E+02 0.  0.
        -12    1    1    2    0    0 -0.11465055036E+01 -0.20870371613E+00 -0.18733931185E+00  0.11803084888E+01  0.00000000000E+00 0.  1.
         11    1    3    3    0    0  0.92776566639E+00  0.79087959980E+01  0.42847711112E+01  0.90426250063E+01  0.51100000000E-03 0. -1.
        -11    1    3    3    0    0  0.23585463652E+02  0.82569571280E+01  0.28431055650E+02  0.37852032473E+02  0.51100000000E-03 0.  1.
         12    1    3    3    0    0 -0.23366723815E+02 -0.15957049410E+02 -0.32528487449E+02  0.43113034032E+02  0.00000000000E+00 0. -1.
</event>
<event>
 7    1  0.2879200E-015  0.9000773E+02  0.7816164E-02  0.1186339E+00
        -11   -1    0    0    0    0  0.00000000000E+00  0.00000000000E+00  0.45593999997E+02  0.45594000000E+02  0.51100000000E-03 0.  1.
         11   -1    0    0    0    0 -0.00000000000E+00 -0.00000000000E+00 -0.45593999997E+02  0.45594000000E+02  0.51100000000E-03 0. -1.
    9900012    2    1    2    0    0  0.54744651860E+00  0.10433217565E+01 -0.69454292904E-01  0.90007728049E+02  0.89999989260E+02 0.  0.
        -12    1    1    2    0    0 -0.54744651860E+00 -0.10433217565E+01  0.69454292904E-01  0.11802719505E+01  0.00000000000E+00 0.  1.
         11    1    3    3    0    0  0.12521722004E+02 -0.14186644038E+02 -0.33362725391E+02  0.38355258268E+02  0.51100000000E-03 0. -1.
        -11    1    3    3    0    0  0.95508069587E+01 -0.31767603655E+01  0.37897066323E+01  0.10755073064E+02  0.51100000000E-03 0.  1.
        -12    1    3    3    0    0 -0.21525082444E+02  0.18406726160E+02  0.29503564465E+02  0.40897396718E+02  0.00000000000E+00 0.  1.
</event>
<event>
 7    1  0.2879200E-015  0.9000776E+02  0.7816164E-02  0.1186339E+00
        -11   -1    0    0    0    0  0.00000000000E+00  0.00000000000E+00  0.45593999997E+02  0.45594000000E+02  0.51100000000E-03 0.  1.
         11   -1    0    0    0    0 -0.00000000000E+00 -0.00000000000E+00 -0.45593999997E+02  0.45594000000E+02  0.51100000000E-03 0. -1.
    9900012    2    1    2    0    0 -0.94562290361E+00 -0.10935060278E+00  0.69771067503E+00  0.90007762559E+02  0.90000024225E+02 0.  0.
        -12    1    1    2    0    0  0.94562290361E+00  0.10935060278E+00 -0.69771067503E+00  0.11802374406E+01  0.00000000000E+00 0.  1.
         11    1    3    3    0    0 -0.29984359406E+02  0.10658199458E+02 -0.22505828118E+02  0.38976548388E+02  0.51100000000E-03 0. -1.
        -11    1    3    3    0    0 -0.43050354260E+01 -0.25745382604E+01 -0.46337640505E+01  0.68288613114E+01  0.51100000000E-03 0.  1.
        -12    1    3    3    0    0  0.33343771929E+02 -0.81930118004E+01  0.27837302843E+02  0.44202352860E+02  0.00000000000E+00 0.  1.
</event>
<event>
 7    1  0.2879200E-015  0.9000771E+02  0.7816164E-02  0.1186339E+00
        -11   -1    0    0    0    0  0.00000000000E+00  0.00000000000E+00  0.45593999997E+02  0.45594000000E+02  0.51100000000E-03 0.  1.
         11   -1    0    0    0    0 -0.00000000000E+00 -0.00000000000E+00 -0.45593999997E+02  0.45594000000E+02  0.51100000000E-03 0. -1.
    9900012    2    1    2    0    0 -0.46392446509E+00  0.81032890878E+00 -0.72195570847E+00  0.90007712368E+02  0.89999973371E+02 0.  0.
        -12    1    1    2    0    0  0.46392446509E+00 -0.81032890878E+00  0.72195570847E+00  0.11802876322E+01  0.00000000000E+00 0.  1.
         11    1    3    3    0    0  0.33028310213E+02 -0.13700380275E+02 -0.18203594414E+02  0.40124064414E+02  0.51100000000E-03 0. -1.
        -11    1    3    3    0    0 -0.54526606405E+01 -0.81399489989E+01 -0.57423910084E-01  0.97976311184E+01  0.51100000000E-03 0.  1.
        -12    1    3    3    0    0 -0.28039574038E+02  0.22650658183E+02  0.17539062616E+02  0.40086016836E+02  0.00000000000E+00 0.  1.
</event>
<event>
 7    1  0.2879200E-015  0.9000765E+02  0.7816164E-02  0.1186339E+00
        -11   -1    0    0    0    0  0.00000000000E+00  0.00000000000E+00  0.45593999997E+02  0.45594000000E+02  0.51100000000E-03 0.  1.
         11   -1    0    0    0    0 -0.00000000000E+00 -0.00000000000E+00 -0.45593999997E+02  0.45594000000E+02  0.51100000000E-03 0. -1.
    9900012    2    1    2    0    0 -0.10700277162E+01  0.36197697740E+00 -0.34240787353E+00  0.90007648443E+02  0.89999908603E+02 0.  0.
        -12    1    1    2    0    0  0.10700277162E+01 -0.36197697740E+00  0.34240787353E+00  0.11803515567E+01  0.00000000000E+00 0.  1.
         11    1    3    3    0    0  0.16599720074E+02 -0.30540006663E+02 -0.29245503215E+01  0.34882598934E+02  0.51100000000E-03 0. -1.
        -11    1    3    3    0    0 -0.32362148553E+01 -0.83828818282E+01 -0.79167509942E+01  0.11975839883E+02  0.51100000000E-03 0.  1.
        -12    1    3    3    0    0 -0.14433532935E+02  0.39284865469E+02  0.10498893442E+02  0.43149209627E+02  0.00000000000E+00 0.  1.
</event>
<event>
 7    1  0.2879200E-015  0.9000775E+02  0.7816164E-02  0.1186339E+00
        -11   -1    0    0    0    0  0.00000000000E+00  0.00000000000E+00  0.45593999997E+02  0.45594000000E+02  0.51100000000E-03 0. -1.
         11   -1    0    0    0    0 -0.00000000000E+00 -0.00000000000E+00 -0.45593999997E+02  0.45594000000E+02  0.51100000000E-03 0.  1.
    9900012    2    1    2    0    0 -0.73207575715E+00 -0.91849182374E+00  0.11588453844E+00  0.90007749446E+02  0.90000010938E+02 0.  0.
        -12    1    1    2    0    0  0.73207575715E+00  0.91849182374E+00 -0.11588453844E+00  0.11802505542E+01  0.00000000000E+00 0.  1.
         11    1    3    3    0    0 -0.25477061744E+02  0.53870673791E+01  0.30803509454E+02  0.40335559559E+02  0.51100000000E-03 0. -1.
        -11    1    3    3    0    0 -0.53343132855E+01  0.32887700391E+01 -0.10404365549E+02  0.12145852352E+02  0.51100000000E-03 0.  1.
        -12    1    3    3    0    0  0.30079299272E+02 -0.95943292419E+01 -0.20283259366E+02  0.37526337535E+02  0.00000000000E+00 0.  1.
</event>
<event>
 7    1  0.2879200E-015  0.9000778E+02  0.7816164E-02  0.1186339E+00
        -11   -1    0    0    0    0  0.00000000000E+00  0.00000000000E+00  0.45593999997E+02  0.45594000000E+02  0.51100000000E-03 0.  1.
         11   -1    0    0    0    0 -0.00000000000E+00 -0.00000000000E+00 -0.45593999997E+02  0.45594000000E+02  0.51100000000E-03 0. -1.
    9900012    2    1    2    0    0 -0.50051871605E+00  0.78143638988E+00 -0.72921388371E+00  0.90007781925E+02  0.90000043846E+02 0.  0.
        -12    1    1    2    0    0  0.50051871605E+00 -0.78143638988E+00  0.72921388371E+00  0.11802180751E+01  0.00000000000E+00 0.  1.
         11    1    3    3    0    0  0.26717409782E+02  0.18887720817E+02  0.18126098438E+02  0.37404831612E+02  0.51100000000E-03 0. -1.
        -11    1    3    3    0    0 -0.24513028623E+01  0.82395308999E+01  0.43538001945E+01  0.96360952449E+01  0.51100000000E-03 0.  1.
        -12    1    3    3    0    0 -0.24766625635E+02 -0.26345815327E+02 -0.23209112516E+02  0.42966855068E+02  0.00000000000E+00 0.  1.
</event>
<event>
 7    1  0.2879200E-015  0.9000769E+02  0.7816164E-02  0.1186339E+00
        -11   -1    0    0    0    0  0.00000000000E+00  0.00000000000E+00  0.45593999997E+02  0.45594000000E+02  0.51100000000E-03 0.  1.
         11   -1    0    0    0    0 -0.00000000000E+00 -0.00000000000E+00 -0.45593999997E+02  0.45594000000E+02  0.51100000000E-03 0. -1.
    9900012    2    1    2    0    0  0.73575410773E+00  0.28637572971E+00 -0.87737228621E+00  0.90007691865E+02  0.89999952597E+02 0.  0.
        -12    1    1    2    0    0 -0.73575410773E+00 -0.28637572971E+00  0.87737228621E+00  0.11803081353E+01  0.00000000000E+00 0.  1.
         11    1    3    3    0    0 -0.87211899409E+01  0.44564584676E+01 -0.26158593680E+02  0.27931902900E+02  0.51100000000E-03 0. -1.
        -11    1    3    3    0    0  0.12219979444E+02 -0.26707543201E+02  0.18209362718E+01  0.29426800210E+02  0.51100000000E-03 0.  1.
        -12    1    3    3    0    0 -0.27630353952E+01  0.22537460463E+02  0.23460285122E+02  0.32648988755E+02  0.00000000000E+00 0.  1.
</event>
<event>
 7    1  0.2879200E-015  0.9000761E+02  0.7816164E-02  0.1186339E+00
        -11   -1    0    0    0    0  0.00000000000E+00  0.00000000000E+00  0.45593999997E+02  0.45594000000E+02  0.51100000000E-03 0. -1.
         11   -1    0    0    0    0 -0.00000000000E+00 -0.00000000000E+00 -0.45593999997E+02  0.45594000000E+02  0.51100000000E-03 0.  1.
    9900012    2    1    2    0    0 -0.10730504905E+01 -0.10325862372E+00 -0.48086603106E+00  0.90007605219E+02  0.89999864808E+02 0.  0.
        -12    1    1    2    0    0  0.10730504905E+01  0.10325862372E+00  0.48086603106E+00  0.11803947808E+01  0.00000000000E+00 0.  1.
         11    1    3    3    0    0  0.14467424641E+02 -0.21568322241E+02  0.10279834347E+01  0.25991453408E+02  0.51100000000E-03 0. -1.
        -11    1    3    3    0    0  0.20578677542E+02  0.11357701720E+02  0.88329929256E+01  0.25109781402E+02  0.51100000000E-03 0.  1.
        -12    1    3    3    0    0 -0.36119152674E+02  0.10107361897E+02 -0.10341842391E+02  0.38906370410E+02  0.00000000000E+00 0.  1.
</event>
<event>
 7    1  0.2879200E-015  0.9000775E+02  0.7816164E-02  0.1186339E+00
        -11   -1    0    0    0    0  0.00000000000E+00  0.00000000000E+00  0.45593999997E+02  0.45594000000E+02  0.51100000000E-03 0.  1.
         11   -1    0    0    0    0 -0.00000000000E+00 -0.00000000000E+00 -0.45593999997E+02  0.45594000000E+02  0.51100000000E-03 0. -1.
    9900012    2    1    2    0    0  0.21999812068E-01 -0.11059920334E+01  0.41144907370E+00  0.90007748878E+02  0.90000010364E+02 0.  0.
        -12    1    1    2    0    0 -0.21999812068E-01  0.11059920334E+01 -0.41144907370E+00  0.11802511215E+01  0.00000000000E+00 0.  1.
         11    1    3    3    0    0  0.16678167461E+02  0.19399449656E+02 -0.28850590546E+02  0.38559778162E+02  0.51100000000E-03 0. -1.
        -11    1    3    3    0    0  0.66283932352E+01 -0.94671523020E+00 -0.28010724775E+01  0.72579524588E+01  0.51100000000E-03 0.  1.
        -12    1    3    3    0    0 -0.23284560884E+02 -0.19558726459E+02  0.32063112097E+02  0.44190018258E+02  0.00000000000E+00 0.  1.
</event>
<event>
 7    1  0.2879200E-015  0.9000775E+02  0.7816164E-02  0.1186339E+00
        -11   -1    0    0    0    0  0.00000000000E+00  0.00000000000E+00  0.45593999997E+02  0.45594000000E+02  0.51100000000E-03 0. -1.
         11   -1    0    0    0    0 -0.00000000000E+00 -0.00000000000E+00 -0.45593999997E+02  0.45594000000E+02  0.51100000000E-03 0.  1.
    9900012    2    1    2    0    0  0.75288306304E+00  0.22339544933E+00  0.88104816098E+00  0.90007752443E+02  0.90000013975E+02 0.  0.
        -12    1    1    2    0    0 -0.75288306304E+00 -0.22339544933E+00 -0.88104816098E+00  0.11802475568E+01  0.00000000000E+00 0.  1.
         11    1    3    3    0    0 -0.23954970939E+02 -0.16808743526E+02  0.22862242536E+02  0.37135651679E+02  0.51100000000E-03 0. -1.
        -11    1    3    3    0    0 -0.82832376179E+01 -0.21498764671E+01  0.51410132541E+00  0.85731146436E+01  0.51100000000E-03 0.  1.
        -12    1    3    3    0    0  0.32991091620E+02  0.19182015442E+02 -0.22495295700E+02  0.44298986121E+02  0.00000000000E+00 0.  1.
</event>
<event>
 7    1  0.2879200E-015  0.9000655E+02  0.7816164E-02  0.1186341E+00
        -11   -1    0    0    0    0  0.00000000000E+00  0.00000000000E+00  0.45593999997E+02  0.45594000000E+02  0.51100000000E-03 0.  1.
         11   -1    0    0    0    0 -0.00000000000E+00 -0.00000000000E+00 -0.45593999997E+02  0.45594000000E+02  0.51100000000E-03 0. -1.
    9900012    2    1    2    0    0  0.23440738432E+00  0.37355272412E+00 -0.10960499313E+01  0.90006554313E+02  0.89998800022E+02 0.  0.
        -12    1    1    2    0    0 -0.23440738432E+00 -0.37355272412E+00  0.10960499313E+01  0.11814456870E+01  0.00000000000E+00 0.  1.
         11    1    3    3    0    0  0.23113453036E+00 -0.66235820699E+01 -0.67203756263E+01  0.94386816573E+01  0.51100000000E-03 0. -1.
        -11    1    3    3    0    0 -0.38682998691E+02 -0.39461616654E+01 -0.44023267677E+01  0.39132174241E+02  0.51100000000E-03 0.  1.
         12    1    3    3    0    0  0.38686271545E+02  0.10943296459E+02  0.10026652463E+02  0.41435698414E+02  0.00000000000E+00 0. -1.
</event>
<event>
 7    1  0.2879200E-015  0.9000760E+02  0.7816164E-02  0.1186339E+00
        -11   -1    0    0    0    0  0.00000000000E+00  0.00000000000E+00  0.45593999997E+02  0.45594000000E+02  0.51100000000E-03 0. -1.
         11   -1    0    0    0    0 -0.00000000000E+00 -0.00000000000E+00 -0.45593999997E+02  0.45594000000E+02  0.51100000000E-03 0.  1.
    9900012    2    1    2    0    0  0.38477506255E+00 -0.12436329241E+00  0.11089760846E+01  0.90007599206E+02  0.89999858716E+02 0.  0.
        -12    1    1    2    0    0 -0.38477506255E+00  0.12436329241E+00 -0.11089760846E+01  0.11804007936E+01  0.00000000000E+00 0.  1.
         11    1    3    3    0    0 -0.78290611370E+01 -0.30132949985E+02 -0.10945433056E+02  0.33001384488E+02  0.51100000000E-03 0. -1.
        -11    1    3    3    0    0 -0.17343816616E+02  0.25863415518E+01  0.80891526604E+01  0.19311435173E+02  0.51100000000E-03 0.  1.
        -12    1    3    3    0    0  0.25557652815E+02  0.27422245141E+02  0.39652564802E+01  0.37694779545E+02  0.00000000000E+00 0.  1.
</event>
<event>
 7    1  0.2879200E-015  0.9000789E+02  0.7816164E-02  0.1186339E+00
        -11   -1    0    0    0    0  0.00000000000E+00  0.00000000000E+00  0.45593999997E+02  0.45594000000E+02  0.51100000000E-03 0. -1.
         11   -1    0    0    0    0 -0.00000000000E+00 -0.00000000000E+00 -0.45593999997E+02  0.45594000000E+02  0.51100000000E-03 0.  1.
    9900012    2    1    2    0    0  0.75239454299E+00  0.89903411285E+00  0.13529807244E+00  0.90007887525E+02  0.90000150841E+02 0.  0.
        -12    1    1    2    0    0 -0.75239454299E+00 -0.89903411285E+00 -0.13529807244E+00  0.11801124746E+01  0.00000000000E+00 0.  1.
         11    1    3    3    0    0  0.10727839060E+02  0.48394570731E+00  0.20601784045E+01  0.10934581366E+02  0.51100000000E-03 0. -1.
        -11    1    3    3    0    0  0.23047075156E+02  0.26940065552E+02 -0.78290660102E+01  0.36307424586E+02  0.51100000000E-03 0.  1.
         12    1    3    3    0    0 -0.33022519673E+02 -0.26524977147E+02  0.59041856781E+01  0.42765881573E+02  0.00000000000E+00 0. -1.
</event>
<event>
 7    1  0.2879200E-015  0.9000776E+02  0.7816164E-02  0.1186339E+00
        -11   -1    0    0    0    0  0.00000000000E+00  0.00000000000E+00  0.45593999997E+02  0.45594000000E+02  0.51100000000E-03 0. -1.
         11   -1    0    0    0    0 -0.00000000000E+00 -0.00000000000E+00 -0.45593999997E+02  0.45594000000E+02  0.51100000000E-03 0.  1.
    9900012    2    1    2    0    0 -0.51109387722E+00  0.76235496722E+00  0.74200170361E+00  0.90007759103E+02  0.90000020723E+02 0.  0.
        -12    1    1    2    0    0  0.51109387722E+00 -0.76235496722E+00 -0.74200170361E+00  0.11802408972E+01  0.00000000000E+00 0.  1.
         11    1    3    3    0    0 -0.41944933474E+00 -0.11376086510E+02  0.24161029161E+02  0.26708549426E+02  0.51100000000E-03 0. -1.
        -11    1    3    3    0    0 -0.54708759028E+01 -0.22431084478E+02 -0.14250318349E+02  0.27132187662E+02  0.51100000000E-03 0.  1.
         12    1    3    3    0    0  0.53792313603E+01  0.34569525955E+02 -0.91687091082E+01  0.36167022016E+02  0.00000000000E+00 0. -1.
</event>
<event>
 7    1  0.2879200E-015  0.9000765E+02  0.7816164E-02  0.1186339E+00
        -11   -1    0    0    0    0  0.00000000000E+00  0.00000000000E+00  0.45593999997E+02  0.45594000000E+02  0.51100000000E-03 0.  1.
         11   -1    0    0    0    0 -0.00000000000E+00 -0.00000000000E+00 -0.45593999997E+02  0.45594000000E+02  0.51100000000E-03 0. -1.
    9900012    2    1    2    0    0 -0.38605166762E+00  0.38648982355E+00 -0.10463335455E+01  0.90007650830E+02  0.89999911021E+02 0.  0.
        -12    1    1    2    0    0  0.38605166762E+00 -0.38648982355E+00  0.10463335455E+01  0.11803491697E+01  0.00000000000E+00 0.  1.
         11    1    3    3    0    0  0.75714447154E+01  0.18753863573E+01 -0.72297899696E+01  0.10635493046E+02  0.51100000000E-03 0. -1.
        -11    1    3    3    0    0 -0.26883163074E+02 -0.32468187419E+02  0.84764750536E+01  0.42996956645E+02  0.51100000000E-03 0.  1.
         12    1    3    3    0    0  0.18925666691E+02  0.30979290885E+02 -0.22930186296E+01  0.36375201139E+02  0.00000000000E+00 0. -1.
</event>
<event>
 7    1  0.2879200E-015  0.9000771E+02  0.7816164E-02  0.1186339E+00
        -11   -1    0    0    0    0  0.00000000000E+00  0.00000000000E+00  0.45593999997E+02  0.45594000000E+02  0.51100000000E-03 0.  1.
         11   -1    0    0    0    0 -0.00000000000E+00 -0.00000000000E+00 -0.45593999997E+02  0.45594000000E+02  0.51100000000E-03 0. -1.
    9900012    2    1    2    0    0  0.25840111518E+00 -0.76562370168E+00 -0.86031236227E+00  0.90007708447E+02  0.89999969399E+02 0.  0.
        -12    1    1    2    0    0 -0.25840111518E+00  0.76562370168E+00  0.86031236227E+00  0.11802915528E+01  0.00000000000E+00 0.  1.
         11    1    3    3    0    0 -0.21471009228E+01  0.19700522793E+02 -0.32778235909E+02  0.38303177287E+02  0.51100000000E-03 0. -1.
        -11    1    3    3    0    0 -0.14997104920E+01 -0.17204519243E+02 -0.20198333011E+01  0.17387476550E+02  0.51100000000E-03 0.  1.
        -12    1    3    3    0    0  0.39052125299E+01 -0.32616272521E+01  0.33937756848E+02  0.34317054610E+02  0.00000000000E+00 0.  1.
</event>
<event>
 7    1  0.2879200E-015  0.9000757E+02  0.7816164E-02  0.1186339E+00
        -11   -1    0    0    0    0  0.00000000000E+00  0.00000000000E+00  0.45593999997E+02  0.45594000000E+02  0.51100000000E-03 0. -1.
         11   -1    0    0    0    0 -0.00000000000E+00 -0.00000000000E+00 -0.45593999997E+02  0.45594000000E+02  0.51100000000E-03 0.  1.
    9900012    2    1    2    0    0 -0.53169582303E+00  0.10538693972E+01 -0.91907222860E-02  0.90007565494E+02  0.89999824558E+02 0.  0.
        -12    1    1    2    0    0  0.53169582303E+00 -0.10538693972E+01  0.91907222860E-02  0.11804345064E+01  0.00000000000E+00 0.  1.
         11    1    3    3    0    0  0.17965214608E+01 -0.55420564961E+01  0.83285020163E+01  0.10163947346E+02  0.51100000000E-03 0. -1.
        -11    1    3    3    0    0  0.33962056633E+02  0.70705799162E+01  0.13796702059E+02  0.37333140493E+02  0.51100000000E-03 0.  1.
         12    1    3    3    0    0 -0.36290273917E+02 -0.47465402296E+00 -0.22134394797E+02  0.42510477655E+02  0.00000000000E+00 0. -1.
</event>
<event>
 7    1  0.2879200E-015  0.9000771E+02  0.7816164E-02  0.1186339E+00
        -11   -1    0    0    0    0  0.00000000000E+00  0.00000000000E+00  0.45593999997E+02  0.45594000000E+02  0.51100000000E-03 0.  1.
         11   -1    0    0    0    0 -0.00000000000E+00 -0.00000000000E+00 -0.45593999997E+02  0.45594000000E+02  0.51100000000E-03 0. -1.
    9900012    2    1    2    0    0 -0.18294375654E+00 -0.94224267204E+00 -0.68687024400E+00  0.90007711729E+02  0.89999972724E+02 0.  0.
        -12    1    1    2    0    0  0.18294375654E+00  0.94224267204E+00  0.68687024400E+00  0.11802882712E+01  0.00000000000E+00 0.  1.
         11    1    3    3    0    0  0.12718754752E+02 -0.39507068717E+02  0.77455090081E+01  0.42220470285E+02  0.51100000000E-03 0. -1.
        -11    1    3    3    0    0 -0.37503701184E+01  0.29532527082E+01  0.65317703449E+01  0.80901793356E+01  0.51100000000E-03 0.  1.
        -12    1    3    3    0    0 -0.91513283897E+01  0.35611573337E+02 -0.14964149597E+02  0.39697062108E+02  0.00000000000E+00 0.  1.
</event>
<event>
 7    1  0.2879200E-015  0.9000771E+02  0.7816164E-02  0.1186339E+00
        -11   -1    0    0    0    0  0.00000000000E+00  0.00000000000E+00  0.45593999997E+02  0.45594000000E+02  0.51100000000E-03 0.  1.
         11   -1    0    0    0    0 -0.00000000000E+00 -0.00000000000E+00 -0.45593999997E+02  0.45594000000E+02  0.51100000000E-03 0. -1.
    9900012    2    1    2    0    0  0.77412747433E+00 -0.85557278422E-01 -0.88683692363E+00  0.90007714813E+02  0.89999975848E+02 0.  0.
        -12    1    1    2    0    0 -0.77412747433E+00  0.85557278422E-01  0.88683692363E+00  0.11802851874E+01  0.00000000000E+00 0.  1.
         11    1    3    3    0    0 -0.88272029892E+01 -0.20132048206E+01 -0.19197403103E+01  0.92551558271E+01  0.51100000000E-03 0. -1.
        -11    1    3    3    0    0 -0.27366229736E+02  0.24976742628E+02  0.27653761258E+01  0.37153674215E+02  0.51100000000E-03 0.  1.
         12    1    3    3    0    0  0.36967560200E+02 -0.23049095086E+02 -0.17324727391E+01  0.43598884770E+02  0.00000000000E+00 0. -1.
</event>
<event>
 7    1  0.2879200E-015  0.9000783E+02  0.7816164E-02  0.1186339E+00
        -11   -1    0    0    0    0  0.00000000000E+00  0.00000000000E+00  0.45593999997E+02  0.45594000000E+02  0.51100000000E-03 0. -1.
         11   -1    0    0    0    0 -0.00000000000E+00 -0.00000000000E+00 -0.45593999997E+02  0.45594000000E+02  0.51100000000E-03 0.  1.
    9900012    2    1    2    0    0  0.11439587550E+01 -0.15122680453E+00  0.24755627573E+00  0.90007832516E+02  0.90000095106E+02 0.  0.
        -12    1    1    2    0    0 -0.11439587550E+01  0.15122680453E+00 -0.24755627573E+00  0.11801674835E+01  0.00000000000E+00 0.  1.
         11    1    3    3    0    0 -0.19164668608E+02  0.11956610252E+02  0.32355173113E+02  0.39460135314E+02  0.51100000000E-03 0. -1.
        -11    1    3    3    0    0  0.36167118762E+01  0.79051029940E+01  0.61605738706E+00  0.87149747622E+01  0.51100000000E-03 0.  1.
        -12    1    3    3    0    0  0.16691915486E+02 -0.20012940050E+02 -0.32723674224E+02  0.41832722441E+02  0.00000000000E+00 0.  1.
</event>
<event>
 7    1  0.2879200E-015  0.9000779E+02  0.7816164E-02  0.1186339E+00
        -11   -1    0    0    0    0  0.00000000000E+00  0.00000000000E+00  0.45593999997E+02  0.45594000000E+02  0.51100000000E-03 0.  1.
         11   -1    0    0    0    0 -0.00000000000E+00 -0.00000000000E+00 -0.45593999997E+02  0.45594000000E+02  0.51100000000E-03 0. -1.
    9900012    2    1    2    0    0 -0.94730004088E+00 -0.64879478313E+00  0.27311191744E+00  0.90007787241E+02  0.90000049232E+02 0.  0.
        -12    1    1    2    0    0  0.94730004088E+00  0.64879478313E+00 -0.27311191744E+00  0.11802127594E+01  0.00000000000E+00 0.  1.
         11    1    3    3    0    0 -0.73404427108E+00  0.30553693014E+02 -0.24583823098E+02  0.39222842021E+02  0.51100000000E-03 0. -1.
        -11    1    3    3    0    0  0.18538583273E+01 -0.64478094283E+01 -0.74541176367E+01  0.10028704160E+02  0.51100000000E-03 0.  1.
        -12    1    3    3    0    0 -0.20671140971E+01 -0.24754678369E+02  0.32311052653E+02  0.40756241060E+02  0.00000000000E+00 0.  1.
</event>
<event>
 7    1  0.2879200E-015  0.9000778E+02  0.7816164E-02  0.1186339E+00
        -11   -1    0    0    0    0  0.00000000000E+00  0.00000000000E+00  0.45593999997E+02  0.45594000000E+02  0.51100000000E-03 0. -1.
         11   -1    0    0    0    0 -0.00000000000E+00 -0.00000000000E+00 -0.45593999997E+02  0.45594000000E+02  0.51100000000E-03 0.  1.
    9900012    2    1    2    0    0 -0.49491054320E+00 -0.10020892135E+01 -0.37919629345E+00  0.90007784314E+02  0.90000046266E+02 0.  0.
        -12    1    1    2    0    0  0.49491054320E+00  0.10020892135E+01  0.37919629345E+00  0.11802156865E+01  0.00000000000E+00 0.  1.
         11    1    3    3    0    0 -0.28559730861E+02  0.12362897814E+02  0.24401178091E+02  0.39546389996E+02  0.51100000000E-03 0. -1.
        -11    1    3    3    0    0 -0.52885014054E+01  0.25723243555E+01 -0.78363532812E+01  0.97976289332E+01  0.51100000000E-03 0.  1.
        -12    1    3    3    0    0  0.33353321723E+02 -0.15937311383E+02 -0.16944021103E+02  0.40663765384E+02  0.00000000000E+00 0.  1.
</event>
<event>
 7    1  0.2879200E-015  0.9000826E+02  0.7816164E-02  0.1186338E+00
        -11   -1    0    0    0    0  0.00000000000E+00  0.00000000000E+00  0.45593999997E+02  0.45594000000E+02  0.51100000000E-03 0. -1.
         11   -1    0    0    0    0 -0.00000000000E+00 -0.00000000000E+00 -0.45593999997E+02  0.45594000000E+02  0.51100000000E-03 0.  1.
    9900012    2    1    2    0    0 -0.94456409825E+00  0.38649140603E+00  0.59178434692E+00  0.90008260344E+02  0.90000528579E+02 0.  0.
        -12    1    1    2    0    0  0.94456409825E+00 -0.38649140603E+00 -0.59178434692E+00  0.11797396560E+01  0.00000000000E+00 0.  1.
         11    1    3    3    0    0  0.63482487901E+01 -0.53293299246E+00 -0.83425889685E+01  0.10496812432E+02  0.51100000000E-03 0. -1.
        -11    1    3    3    0    0 -0.65663282417E+01  0.10702885922E+02 -0.33595167470E+02  0.35865076485E+02  0.51100000000E-03 0.  1.
         12    1    3    3    0    0 -0.72648464667E+00 -0.97834615234E+01  0.42529540786E+02  0.43646371427E+02  0.00000000000E+00 0. -1.
</event>
<event>
 7    1  0.2879200E-015  0.9000769E+02  0.7816164E-02  0.1186339E+00
        -11   -1    0    0    0    0  0.00000000000E+00  0.00000000000E+00  0.45593999997E+02  0.45594000000E+02  0.51100000000E-03 0.  1.
         11   -1    0    0    0    0 -0.00000000000E+00 -0.00000000000E+00 -0.45593999997E+02  0.45594000000E+02  0.51100000000E-03 0. -1.
    9900012    2    1    2    0    0 -0.56190842174E+00 -0.22858698493E+00 -0.10124968015E+01  0.90007685272E+02  0.89999945918E+02 0.  0.
        -12    1    1    2    0    0  0.56190842174E+00  0.22858698493E+00  0.10124968015E+01  0.11803147280E+01  0.00000000000E+00 0.  1.
         11    1    3    3    0    0  0.11902226437E+02  0.29270845952E+02  0.26743608297E+02  0.41396449146E+02  0.51100000000E-03 0. -1.
        -11    1    3    3    0    0  0.66647006644E+01 -0.32153130533E+01 -0.52213471950E+01  0.90564308515E+01  0.51100000000E-03 0.  1.
        -12    1    3    3    0    0 -0.19128835523E+02 -0.26284119883E+02 -0.22534757904E+02  0.39554805274E+02  0.00000000000E+00 0.  1.
</event>
<event>
 7    1  0.2879200E-015  0.9000779E+02  0.7816164E-02  0.1186339E+00
        -11   -1    0    0    0    0  0.00000000000E+00  0.00000000000E+00  0.45593999997E+02  0.45594000000E+02  0.51100000000E-03 0.  1.
         11   -1    0    0    0    0 -0.00000000000E+00 -0.00000000000E+00 -0.45593999997E+02  0.45594000000E+02  0.51100000000E-03 0. -1.
    9900012    2    1    2    0    0  0.71296414467E+00 -0.81237359693E+00 -0.47396052273E+00  0.90007785058E+02  0.90000047021E+02 0.  0.
        -12    1    1    2    0    0 -0.71296414467E+00  0.81237359693E+00  0.47396052273E+00  0.11802149422E+01  0.00000000000E+00 0.  1.
         11    1    3    3    0    0 -0.19320585889E+01  0.65775511205E+01  0.65883786495E+01  0.95080893257E+01  0.51100000000E-03 0. -1.
        -11    1    3    3    0    0 -0.27706708216E+02  0.21226270794E+02 -0.15080265521E+02  0.38021450004E+02  0.51100000000E-03 0.  1.
         12    1    3    3    0    0  0.30351730949E+02 -0.28616195512E+02  0.80179263490E+01  0.42478245728E+02  0.00000000000E+00 0. -1.
</event>
<event>
 7    1  0.2879200E-015  0.9000788E+02  0.7816164E-02  0.1186339E+00
        -11   -1    0    0    0    0  0.00000000000E+00  0.00000000000E+00  0.45593999997E+02  0.45594000000E+02  0.51100000000E-03 0.  1.
         11   -1    0    0    0    0 -0.00000000000E+00 -0.00000000000E+00 -0.45593999997E+02  0.45594000000E+02  0.51100000000E-03 0. -1.
    9900012    2    1    2    0    0 -0.84615500517E+00  0.11509320947E+00 -0.81452322530E+00  0.90007884402E+02  0.90000147676E+02 0.  0.
        -12    1    1    2    0    0  0.84615500517E+00 -0.11509320947E+00  0.81452322530E+00  0.11801155978E+01  0.00000000000E+00 0.  1.
         11    1    3    3    0    0 -0.64508838920E+01  0.61245257584E+01 -0.62795286078E+01  0.10888351507E+02  0.51100000000E-03 0. -1.
        -11    1    3    3    0    0  0.84912140863E+01  0.10805736539E+02  0.39078229458E+02  0.41424300557E+02  0.51100000000E-03 0.  1.
         12    1    3    3    0    0 -0.28864851995E+01 -0.16815169088E+02 -0.33613224075E+02  0.37695232338E+02  0.00000000000E+00 0. -1.
</event>
<event>
 7    1  0.2879200E-015  0.9000775E+02  0.7816164E-02  0.1186339E+00
        -11   -1    0    0    0    0  0.00000000000E+00  0.00000000000E+00  0.45593999997E+02  0.45594000000E+02  0.51100000000E-03 0.  1.
         11   -1    0    0    0    0 -0.00000000000E+00 -0.00000000000E+00 -0.45593999997E+02  0.45594000000E+02  0.51100000000E-03 0. -1.
    9900012    2    1    2    0    0 -0.23170528098E+00 -0.10247245749E+01 -0.53782093686E+00  0.90007746149E+02  0.90000007599E+02 0.  0.
        -12    1    1    2    0    0  0.23170528098E+00  0.10247245749E+01  0.53782093686E+00  0.11802538506E+01  0.00000000000E+00 0.  1.
         11    1    3    3    0    0  0.28914277767E+02  0.15670444111E+02  0.11842040859E+00  0.32887874682E+02  0.51100000000E-03 0. -1.
        -11    1    3    3    0    0  0.43655005740E+01  0.10521923948E+02  0.68616866108E+01  0.13298542109E+02  0.51100000000E-03 0.  1.
        -12    1    3    3    0    0 -0.33511483622E+02 -0.27217092634E+02 -0.75179279562E+01  0.43821329358E+02  0.00000000000E+00 0.  1.
</event>
<event>
 7    1  0.2879200E-015  0.9000822E+02  0.7816164E-02  0.1186338E+00
        -11   -1    0    0    0    0  0.00000000000E+00  0.00000000000E+00  0.45593999997E+02  0.45594000000E+02  0.51100000000E-03 0.  1.
         11   -1    0    0    0    0 -0.00000000000E+00 -0.00000000000E+00 -0.45593999997E+02  0.45594000000E+02  0.51100000000E-03 0. -1.
    9900012    2    1    2    0    0  0.97728562037E+00 -0.65928296684E+00 -0.46272734253E-01  0.90008219351E+02  0.90000487045E+02 0.  0.
        -12    1    1    2    0    0 -0.97728562037E+00  0.65928296684E+00  0.46272734253E-01  0.11797806491E+01  0.00000000000E+00 0.  1.
         11    1    3    3    0    0  0.57944850467E+01 -0.76173177474E+01 -0.12035433922E+00  0.95715240192E+01  0.51100000000E-03 0. -1.
        -11    1    3    3    0    0 -0.39482943574E+02  0.23311047447E+01  0.15148045189E+02  0.42353277983E+02  0.51100000000E-03 0.  1.
         12    1    3    3    0    0  0.34665744147E+02  0.46269300359E+01 -0.15073963584E+02  0.38083417349E+02  0.00000000000E+00 0. -1.
</event>
<event>
 7    1  0.2879200E-015  0.9000773E+02  0.7816164E-02  0.1186339E+00
        -11   -1    0    0    0    0  0.00000000000E+00  0.00000000000E+00  0.45593999997E+02  0.45594000000E+02  0.51100000000E-03 0. -1.
         11   -1    0    0    0    0 -0.00000000000E+00 -0.00000000000E+00 -0.45593999997E+02  0.45594000000E+02  0.51100000000E-03 0.  1.
    9900012    2    1    2    0    0 -0.38876315867E+00  0.89635524702E+00  0.66215843320E+00  0.90007727441E+02  0.89999988643E+02 0.  0.
        -12    1    1    2    0    0  0.38876315867E+00 -0.89635524702E+00 -0.66215843320E+00  0.11802725588E+01  0.00000000000E+00 0.  1.
         11    1    3    3    0    0 -0.20805112105E+01  0.10695732629E+01 -0.89360919733E+01  0.92372211123E+01  0.51100000000E-03 0. -1.
        -11    1    3    3    0    0 -0.38155375087E+02 -0.93990562923E+01  0.49022910562E+01  0.39600598039E+02  0.51100000000E-03 0.  1.
         12    1    3    3    0    0  0.39847123139E+02  0.92258382764E+01  0.46959593503E+01  0.41169908289E+02  0.00000000000E+00 0. -1.
</event>
<event>
 7    1  0.2879200E-015  0.9000773E+02  0.7816164E-02  0.1186339E+00
        -11   -1    0    0    0    0  0.00000000000E+00  0.00000000000E+00  0.45593999997E+02  0.45594000000E+02  0.51100000000E-03 0.  1.
         11   -1    0    0    0    0 -0.00000000000E+00 -0.00000000000E+00 -0.45593999997E+02  0.45594000000E+02  0.51100000000E-03 0. -1.
    9900012    2    1    2    0    0 -0.61480280284E+00  0.21586901276E+00 -0.98410149680E+00  0.90007729830E+02  0.89999991064E+02 0.  0.
        -12    1    1    2    0    0  0.61480280284E+00 -0.21586901276E+00  0.98410149680E+00  0.11802701695E+01  0.00000000000E+00 0.  1.
         11    1    3    3    0    0 -0.33303999597E+02 -0.11377205767E+02 -0.87475010248E+01  0.36264527774E+02  0.51100000000E-03 0. -1.
        -11    1    3    3    0    0 -0.89467890585E+01  0.59123723255E+01 -0.11538152304E+01  0.10785753141E+02  0.51100000000E-03 0.  1.
        -12    1    3    3    0    0  0.41635985852E+02  0.56807024547E+01  0.89172147584E+01  0.42957448916E+02  0.00000000000E+00 0.  1.
</event>
<event>
 7    1  0.2879200E-015  0.9000778E+02  0.7816164E-02  0.1186339E+00
        -11   -1    0    0    0    0  0.00000000000E+00  0.00000000000E+00  0.45593999997E+02  0.45594000000E+02  0.51100000000E-03 0. -1.
         11   -1    0    0    0    0 -0.00000000000E+00 -0.00000000000E+00 -0.45593999997E+02  0.45594000000E+02  0.51100000000E-03 0.  1.
    9900012    2    1    2    0    0  0.42771514901E+00 -0.27861565161E+00  0.10641242747E+01  0.90007776546E+02  0.90000038396E+02 0.  0.
        -12    1    1    2    0    0 -0.42771514901E+00  0.27861565161E+00 -0.10641242747E+01  0.11802234543E+01  0.00000000000E+00 0.  1.
         11    1    3    3    0    0 -0.31760425633E+02  0.13458107323E+02  0.58354214329E+01  0.34984245493E+02  0.51100000000E-03 0. -1.
        -11    1    3    3    0    0 -0.90916682044E+01  0.29717157878E+01  0.25346350273E+01  0.98951452968E+01  0.51100000000E-03 0.  1.
        -12    1    3    3    0    0  0.41279808987E+02 -0.16708438762E+02 -0.73059321855E+01  0.45128385756E+02  0.00000000000E+00 0.  1.
</event>
<event>
 7    1  0.2879200E-015  0.9000778E+02  0.7816164E-02  0.1186339E+00
        -11   -1    0    0    0    0  0.00000000000E+00  0.00000000000E+00  0.45593999997E+02  0.45594000000E+02  0.51100000000E-03 0. -1.
         11   -1    0    0    0    0 -0.00000000000E+00 -0.00000000000E+00 -0.45593999997E+02  0.45594000000E+02  0.51100000000E-03 0.  1.
    9900012    2    1    2    0    0  0.20045652013E+00  0.77573033176E-01  0.11604865557E+01  0.90007775683E+02  0.90000037522E+02 0.  0.
        -12    1    1    2    0    0 -0.20045652013E+00 -0.77573033176E-01 -0.11604865557E+01  0.11802243167E+01  0.00000000000E+00 0.  1.
         11    1    3    3    0    0 -0.56758469799E+00  0.97130985249E+01  0.40932568877E+01  0.10555623504E+02  0.51100000000E-03 0. -1.
        -11    1    3    3    0    0  0.48272572353E+01  0.29400478039E+02 -0.20793506243E+02  0.36332635791E+02  0.51100000000E-03 0.  1.
         12    1    3    3    0    0 -0.40592160172E+01 -0.39036003531E+02  0.17860735911E+02  0.43119516389E+02  0.00000000000E+00 0. -1.
</event>
<event>
 7    1  0.2879200E-015  0.9000769E+02  0.7816164E-02  0.1186339E+00
        -11   -1    0    0    0    0  0.00000000000E+00  0.00000000000E+00  0.45593999997E+02  0.45594000000E+02  0.51100000000E-03 0. -1.
         11   -1    0    0    0    0 -0.00000000000E+00 -0.00000000000E+00 -0.45593999997E+02  0.45594000000E+02  0.51100000000E-03 0.  1.
    9900012    2    1    2    0    0  0.60045838203E+00  0.90291293443E+00  0.46617380548E+00  0.90007694932E+02  0.89999955705E+02 0.  0.
        -12    1    1    2    0    0 -0.60045838203E+00 -0.90291293443E+00 -0.46617380548E+00  0.11803050676E+01  0.00000000000E+00 0.  1.
         11    1    3    3    0    0  0.31295399417E+02 -0.14327753274E+02 -0.26783513643E+01  0.34523326966E+02  0.51100000000E-03 0. -1.
        -11    1    3    3    0    0  0.81270113962E+01  0.78014270629E+01 -0.86862368366E+01  0.14225374831E+02  0.51100000000E-03 0.  1.
        -12    1    3    3    0    0 -0.38821952431E+02  0.74292391457E+01  0.11830762006E+02  0.41258993135E+02  0.00000000000E+00 0.  1.
</event>
<event>
 7    1  0.2879200E-015  0.9000703E+02  0.7816164E-02  0.1186340E+00
        -11   -1    0    0    0    0  0.00000000000E+00  0.00000000000E+00  0.45593999997E+02  0.45594000000E+02  0.51100000000E-03 0.  1.
         11   -1    0    0    0    0 -0.00000000000E+00 -0.00000000000E+00 -0.45593999997E+02  0.45594000000E+02  0.51100000000E-03 0. -1.
    9900012    2    1    2    0    0 -0.79164701918E+00  0.42705814845E+00  0.76524732658E+00  0.90007031272E+02  0.89999283282E+02 0.  0.
        -12    1    1    2    0    0  0.79164701918E+00 -0.42705814845E+00 -0.76524732658E+00  0.11809687278E+01  0.00000000000E+00 0.  1.
         11    1    3    3    0    0 -0.29680326174E+02  0.18325023458E+02 -0.13920727176E+02  0.37556822175E+02  0.51100000000E-03 0. -1.
        -11    1    3    3    0    0 -0.65437805671E+01  0.12327616011E+01  0.98557374001E+01  0.11894382087E+02  0.51100000000E-03 0.  1.
        -12    1    3    3    0    0  0.35432459722E+02 -0.19130726910E+02  0.48302371020E+01  0.40555827010E+02  0.00000000000E+00 0.  1.
</event>
<event>
 7    1  0.2879200E-015  0.9000764E+02  0.7816164E-02  0.1186339E+00
        -11   -1    0    0    0    0  0.00000000000E+00  0.00000000000E+00  0.45593999997E+02  0.45594000000E+02  0.51100000000E-03 0. -1.
         11   -1    0    0    0    0 -0.00000000000E+00 -0.00000000000E+00 -0.45593999997E+02  0.45594000000E+02  0.51100000000E-03 0.  1.
    9900012    2    1    2    0    0 -0.11601750923E+00 -0.11690883883E+01 -0.11414670585E+00  0.90007636839E+02  0.89999896845E+02 0.  0.
        -12    1    1    2    0    0  0.11601750923E+00  0.11690883883E+01  0.11414670585E+00  0.11803631613E+01  0.00000000000E+00 0.  1.
         11    1    3    3    0    0 -0.52261525360E+01  0.28657791012E+01  0.74538554220E+01  0.95438630072E+01  0.51100000000E-03 0. -1.
        -11    1    3    3    0    0 -0.36903939149E+02  0.10481106565E+01  0.23608599098E+01  0.36994228204E+02  0.51100000000E-03 0.  1.
         12    1    3    3    0    0  0.42014074176E+02 -0.50829781461E+01 -0.99288620376E+01  0.43469545627E+02  0.00000000000E+00 0. -1.
</event>
<event>
 7    1  0.2879200E-015  0.9000771E+02  0.7816164E-02  0.1186339E+00
        -11   -1    0    0    0    0  0.00000000000E+00  0.00000000000E+00  0.45593999997E+02  0.45594000000E+02  0.51100000000E-03 0.  1.
         11   -1    0    0    0    0 -0.00000000000E+00 -0.00000000000E+00 -0.45593999997E+02  0.45594000000E+02  0.51100000000E-03 0. -1.
    9900012    2    1    2    0    0 -0.48877870583E+00  0.46005947318E+00 -0.97083564408E+00  0.90007711395E+02  0.89999972386E+02 0.  0.
        -12    1    1    2    0    0  0.48877870583E+00 -0.46005947318E+00  0.97083564408E+00  0.11802886045E+01  0.00000000000E+00 0.  1.
         11    1    3    3    0    0  0.15878002187E+02  0.20169661017E+02 -0.28434168581E+02  0.38307024449E+02  0.51100000000E-03 0. -1.
        -11    1    3    3    0    0 -0.76040490524E+01  0.29522520929E+00 -0.73656489814E+01  0.10590632894E+02  0.51100000000E-03 0.  1.
        -12    1    3    3    0    0 -0.87627318406E+01 -0.20004826753E+02  0.34828981918E+02  0.41110054052E+02  0.00000000000E+00 0.  1.
</event>
<event>
 7    1  0.2879200E-015  0.9000771E+02  0.7816164E-02  0.1186339E+00
        -11   -1    0    0    0    0  0.00000000000E+00  0.00000000000E+00  0.45593999997E+02  0.45594000000E+02  0.51100000000E-03 0.  1.
         11   -1    0    0    0    0 -0.00000000000E+00 -0.00000000000E+00 -0.45593999997E+02  0.45594000000E+02  0.51100000000E-03 0. -1.
    9900012    2    1    2    0    0  0.32811368841E+00 -0.27005352595E+00 -0.11011341740E+01  0.90007710218E+02  0.89999971193E+02 0.  0.
        -12    1    1    2    0    0 -0.32811368841E+00  0.27005352595E+00  0.11011341740E+01  0.11802897816E+01  0.00000000000E+00 0.  1.
         11    1    3    3    0    0 -0.18075852777E+01  0.21777873742E+01  0.99742131652E+01  0.10367982008E+02  0.51100000000E-03 0. -1.
        -11    1    3    3    0    0  0.21399177961E+02  0.32475246592E+02 -0.35611669584E+01  0.39054428289E+02  0.51100000000E-03 0.  1.
         12    1    3    3    0    0 -0.19263478995E+02 -0.34923087492E+02 -0.75141803808E+01  0.40585299922E+02  0.00000000000E+00 0. -1.
</event>
<event>
 7    1  0.2879200E-015  0.9000768E+02  0.7816164E-02  0.1186339E+00
        -11   -1    0    0    0    0  0.00000000000E+00  0.00000000000E+00  0.45593999997E+02  0.45594000000E+02  0.51100000000E-03 0. -1.
         11   -1    0    0    0    0 -0.00000000000E+00 -0.00000000000E+00 -0.45593999997E+02  0.45594000000E+02  0.51100000000E-03 0.  1.
    9900012    2    1    2    0    0  0.46836846063E+00  0.45007144468E+00  0.98550092930E+00  0.90007684194E+02  0.89999944825E+02 0.  0.
        -12    1    1    2    0    0 -0.46836846063E+00 -0.45007144468E+00 -0.98550092930E+00  0.11803158060E+01  0.00000000000E+00 0.  1.
         11    1    3    3    0    0 -0.86436764055E+01  0.13257294960E+01 -0.46137428825E+01  0.98872303577E+01  0.51100000000E-03 0. -1.
        -11    1    3    3    0    0  0.37276691187E+02  0.22310486071E+02  0.28833223874E+01  0.43538753345E+02  0.51100000000E-03 0.  1.
         12    1    3    3    0    0 -0.28164646321E+02 -0.23186144122E+02  0.27159214243E+01  0.36581700491E+02  0.00000000000E+00 0. -1.
</event>
<event>
 7    1  0.2879200E-015  0.9000780E+02  0.7816164E-02  0.1186339E+00
        -11   -1    0    0    0    0  0.00000000000E+00  0.00000000000E+00  0.45593999997E+02  0.45594000000E+02  0.51100000000E-03 0.  1.
         11   -1    0    0    0    0 -0.00000000000E+00 -0.00000000000E+00 -0.45593999997E+02  0.45594000000E+02  0.51100000000E-03 0. -1.
    9900012    2    1    2    0    0  0.10036891855E+01  0.33678781526E+00 -0.52159830182E+00  0.90007795441E+02  0.90000057540E+02 0.  0.
        -12    1    1    2    0    0 -0.10036891855E+01 -0.33678781526E+00  0.52159830182E+00  0.11802045594E+01  0.00000000000E+00 0.  1.
         11    1    3    3    0    0 -0.13724708316E+01  0.10915245936E+02 -0.33666689922E+02  0.35418530187E+02  0.51100000000E-03 0. -1.
        -11    1    3    3    0    0  0.37971831065E+01 -0.80000170888E+00 -0.97904054317E+01  0.10531412111E+02  0.51100000000E-03 0.  1.
        -12    1    3    3    0    0 -0.14210230895E+01 -0.97784564117E+01  0.42935497052E+02  0.44057853142E+02  0.00000000000E+00 0.  1.
</event>
<event>
 7    1  0.2879200E-015  0.9000753E+02  0.7816164E-02  0.1186339E+00
        -11   -1    0    0    0    0  0.00000000000E+00  0.00000000000E+00  0.45593999997E+02  0.45594000000E+02  0.51100000000E-03 0.  1.
         11   -1    0    0    0    0 -0.00000000000E+00 -0.00000000000E+00 -0.45593999997E+02  0.45594000000E+02  0.51100000000E-03 0. -1.
    9900012    2    1    2    0    0  0.43235059224E+00  0.10073284337E+01 -0.43803920712E+00  0.90007527232E+02  0.89999785792E+02 0.  0.
        -12    1    1    2    0    0 -0.43235059224E+00 -0.10073284337E+01  0.43803920712E+00  0.11804727675E+01  0.00000000000E+00 0.  1.
         11    1    3    3    0    0  0.98025015701E+00 -0.41938054993E+01 -0.63092991335E+01  0.76391197630E+01  0.51100000000E-03 0. -1.
        -11    1    3    3    0    0 -0.24476763767E+02 -0.26016922129E+02 -0.13918258221E+02  0.38336798428E+02  0.51100000000E-03 0.  1.
         12    1    3    3    0    0  0.23928864202E+02  0.31218056062E+02  0.19789518147E+02  0.44031609041E+02  0.00000000000E+00 0. -1.
</event>
<event>
 7    1  0.2879200E-015  0.9000889E+02  0.7816164E-02  0.1186337E+00
        -11   -1    0    0    0    0  0.00000000000E+00  0.00000000000E+00  0.45593999997E+02  0.45594000000E+02  0.51100000000E-03 0.  1.
         11   -1    0    0    0    0 -0.00000000000E+00 -0.00000000000E+00 -0.45593999997E+02  0.45594000000E+02  0.51100000000E-03 0. -1.
    9900012    2    1    2    0    0  0.92204220108E+00 -0.58598662602E+00 -0.44358208056E+00  0.90008887109E+02  0.90001163612E+02 0.  0.
        -12    1    1    2    0    0 -0.92204220108E+00  0.58598662602E+00  0.44358208056E+00  0.11791128905E+01  0.00000000000E+00 0.  1.
         11    1    3    3    0    0 -0.27479860635E+01 -0.37665664103E+01  0.93095459126E+01  0.10411824782E+02  0.51100000000E-03 0. -1.
        -11    1    3    3    0    0 -0.71704078806E+01 -0.34530117141E+02 -0.17858713410E+02  0.39530714436E+02  0.51100000000E-03 0.  1.
         12    1    3    3    0    0  0.10840436145E+02  0.37710696925E+02  0.81055854167E+01  0.40066347891E+02  0.00000000000E+00 0. -1.
</event>
<event>
 7    1  0.2879200E-015  0.9000776E+02  0.7816164E-02  0.1186339E+00
        -11   -1    0    0    0    0  0.00000000000E+00  0.00000000000E+00  0.45593999997E+02  0.45594000000E+02  0.51100000000E-03 0.  1.
         11   -1    0    0    0    0 -0.00000000000E+00 -0.00000000000E+00 -0.45593999997E+02  0.45594000000E+02  0.51100000000E-03 0. -1.
    9900012    2    1    2    0    0 -0.46679274574E+00 -0.10475378992E+01  0.27881062291E+00  0.90007759990E+02  0.90000021622E+02 0.  0.
        -12    1    1    2    0    0  0.46679274574E+00  0.10475378992E+01 -0.27881062291E+00  0.11802400100E+01  0.00000000000E+00 0.  1.
         11    1    3    3    0    0 -0.15068897834E+02 -0.55681228394E+01  0.22515432024E+00  0.16066311606E+02  0.51100000000E-03 0. -1.
        -11    1    3    3    0    0 -0.10229886936E+02 -0.27938549493E+01  0.31484582436E+02  0.33222509592E+02  0.51100000000E-03 0.  1.
         12    1    3    3    0    0  0.24831992024E+02  0.73144398896E+01 -0.31430926133E+02  0.40718938792E+02  0.00000000000E+00 0. -1.
</event>
<event>
 7    1  0.2879200E-015  0.9000771E+02  0.7816164E-02  0.1186339E+00
        -11   -1    0    0    0    0  0.00000000000E+00  0.00000000000E+00  0.45593999997E+02  0.45594000000E+02  0.51100000000E-03 0. -1.
         11   -1    0    0    0    0 -0.00000000000E+00 -0.00000000000E+00 -0.45593999997E+02  0.45594000000E+02  0.51100000000E-03 0.  1.
    9900012    2    1    2    0    0  0.13777116337E+00 -0.71431899283E-01  0.11700427107E+01  0.90007710478E+02  0.89999971457E+02 0.  0.
        -12    1    1    2    0    0 -0.13777116337E+00  0.71431899283E-01 -0.11700427107E+01  0.11802895215E+01  0.00000000000E+00 0.  1.
         11    1    3    3    0    0  0.12468786231E-02 -0.39898613178E+01 -0.87522799548E+01  0.96188044765E+01  0.51100000000E-03 0. -1.
        -11    1    3    3    0    0 -0.38569659486E+02  0.16138720570E+01  0.14727980448E+02  0.41317509899E+02  0.51100000000E-03 0.  1.
         12    1    3    3    0    0  0.38706183771E+02  0.23045573615E+01 -0.48056577826E+01  0.39071396103E+02  0.00000000000E+00 0. -1.
</event>
<event>
 7    1  0.2879200E-015  0.9000792E+02  0.7816164E-02  0.1186339E+00
        -11   -1    0    0    0    0  0.00000000000E+00  0.00000000000E+00  0.45593999997E+02  0.45594000000E+02  0.51100000000E-03 0. -1.
         11   -1    0    0    0    0 -0.00000000000E+00 -0.00000000000E+00 -0.45593999997E+02  0.45594000000E+02  0.51100000000E-03 0.  1.
    9900012    2    1    2    0    0  0.11618435712E+01  0.20091589411E+00  0.48460063474E-01  0.90007916927E+02  0.90000180631E+02 0.  0.
        -12    1    1    2    0    0 -0.11618435712E+01 -0.20091589411E+00 -0.48460063474E-01  0.11800830726E+01  0.00000000000E+00 0.  1.
         11    1    3    3    0    0  0.53902298833E+01  0.10056672687E+02  0.35538707131E+02  0.37325473186E+02  0.51100000000E-03 0. -1.
        -11    1    3    3    0    0  0.63732755080E+01  0.22438326479E+01  0.54590939177E+01  0.86864913697E+01  0.51100000000E-03 0.  1.
        -12    1    3    3    0    0 -0.10601661820E+02 -0.12099589441E+02 -0.40949340985E+02  0.43995952372E+02  0.00000000000E+00 0.  1.
</event>
<event>
 7    1  0.2879200E-015  0.9000771E+02  0.7816164E-02  0.1186339E+00
        -11   -1    0    0    0    0  0.00000000000E+00  0.00000000000E+00  0.45593999997E+02  0.45594000000E+02  0.51100000000E-03 0.  1.
         11   -1    0    0    0    0 -0.00000000000E+00 -0.00000000000E+00 -0.45593999997E+02  0.45594000000E+02  0.51100000000E-03 0. -1.
    9900012    2    1    2    0    0 -0.55990059658E+00  0.45699301767E+00 -0.93314280281E+00  0.90007709025E+02  0.89999969984E+02 0.  0.
        -12    1    1    2    0    0  0.55990059658E+00 -0.45699301767E+00  0.93314280281E+00  0.11802909754E+01  0.00000000000E+00 0.  1.
         11    1    3    3    0    0 -0.20679176323E+02  0.96884468788E+00 -0.33946998355E+02  0.39761359269E+02  0.51100000000E-03 0. -1.
        -11    1    3    3    0    0 -0.42610524915E+01 -0.82324780201E+01  0.10770844819E+01  0.93322223467E+01  0.51100000000E-03 0.  1.
        -12    1    3    3    0    0  0.24380328217E+02  0.77206263499E+01  0.31936771070E+02  0.40914127408E+02  0.00000000000E+00 0.  1.
</event>
<event>
 7    1  0.4614236E-015  0.9000775E+02  0.7816164E-02  0.1186339E+00
        -11   -1    0    0    0    0  0.00000000000E+00  0.00000000000E+00  0.45593999997E+02  0.45594000000E+02  0.51100000000E-03 0. -1.
         11   -1    0    0    0    0 -0.00000000000E+00 -0.00000000000E+00 -0.45593999997E+02  0.45594000000E+02  0.51100000000E-03 0.  1.
    9900012    2    1    2    0    0  0.31251976291E+00 -0.38234715120E+00  0.10719810388E+01  0.90007745242E+02  0.90000006679E+02 0.  0.
        -12    1    1    2    0    0 -0.31251976291E+00  0.38234715120E+00 -0.10719810388E+01  0.11802547580E+01  0.00000000000E+00 0.  1.
         11    1    3    3    0    0 -0.33120866258E+02 -0.12427297898E+01  0.17261927195E+02  0.37369911557E+02  0.51100000000E-03 0. -1.
        -11    1    3    3    0    0 -0.26606640446E+01  0.28225134760E+01  0.81729938863E+01  0.90467422206E+01  0.51100000000E-03 0.  1.
        -12    1    3    3    0    0  0.36094050066E+02 -0.19621308374E+01 -0.24362940042E+02  0.43591091465E+02  0.00000000000E+00 0.  1.
</event>
<event>
 7    1  0.2879200E-015  0.9000809E+02  0.7816164E-02  0.1186338E+00
        -11   -1    0    0    0    0  0.00000000000E+00  0.00000000000E+00  0.45593999997E+02  0.45594000000E+02  0.51100000000E-03 0.  1.
         11   -1    0    0    0    0 -0.00000000000E+00 -0.00000000000E+00 -0.45593999997E+02  0.45594000000E+02  0.51100000000E-03 0. -1.
    9900012    2    1    2    0    0  0.29827002487E-01 -0.10273166376E+01  0.57959333737E+00  0.90008085782E+02  0.90000351714E+02 0.  0.
        -12    1    1    2    0    0 -0.29827002487E-01  0.10273166376E+01 -0.57959333737E+00  0.11799142175E+01  0.00000000000E+00 0.  1.
         11    1    3    3    0    0  0.11382452669E+01 -0.94281166719E+01  0.30175695890E+01  0.99644725275E+01  0.51100000000E-03 0. -1.
        -11    1    3    3    0    0 -0.31931461496E+02 -0.33617106213E-01  0.22872560551E+02  0.39278154104E+02  0.51100000000E-03 0.  1.
         12    1    3    3    0    0  0.30823043232E+02  0.84344171405E+01 -0.25310536803E+02  0.40765459151E+02  0.00000000000E+00 0. -1.
</event>
<event>
 7    1  0.2879200E-015  0.9000776E+02  0.7816164E-02  0.1186339E+00
        -11   -1    0    0    0    0  0.00000000000E+00  0.00000000000E+00  0.45593999997E+02  0.45594000000E+02  0.51100000000E-03 0.  1.
         11   -1    0    0    0    0 -0.00000000000E+00 -0.00000000000E+00 -0.45593999997E+02  0.45594000000E+02  0.51100000000E-03 0. -1.
    9900012    2    1    2    0    0  0.10545449849E+01  0.32962548075E+00 -0.41504186769E+00  0.90007755180E+02  0.90000016749E+02 0.  0.
        -12    1    1    2    0    0 -0.10545449849E+01 -0.32962548075E+00  0.41504186769E+00  0.11802448198E+01  0.00000000000E+00 0.  1.
         11    1    3    3    0    0  0.79869851621E+01 -0.13149317561E+00  0.50982145598E+01  0.94763397150E+01  0.51100000000E-03 0. -1.
        -11    1    3    3    0    0 -0.40629968672E+01  0.31746319112E+02  0.21945409426E+02  0.38806413334E+02  0.51100000000E-03 0.  1.
         12    1    3    3    0    0 -0.28694433100E+01 -0.31285200455E+02 -0.27458665853E+02  0.41725002132E+02  0.00000000000E+00 0. -1.
</event>
<event>
 7    1  0.2879200E-015  0.9000772E+02  0.7816164E-02  0.1186339E+00
        -11   -1    0    0    0    0  0.00000000000E+00  0.00000000000E+00  0.45593999997E+02  0.45594000000E+02  0.51100000000E-03 0. -1.
         11   -1    0    0    0    0 -0.00000000000E+00 -0.00000000000E+00 -0.45593999997E+02  0.45594000000E+02  0.51100000000E-03 0.  1.
    9900012    2    1    2    0    0  0.69278834801E+00 -0.92059280409E+00 -0.25616758513E+00  0.90007716713E+02  0.89999977774E+02 0.  0.
        -12    1    1    2    0    0 -0.69278834801E+00  0.92059280409E+00  0.25616758513E+00  0.11802832871E+01  0.00000000000E+00 0.  1.
         11    1    3    3    0    0  0.31208713015E+02 -0.17313268396E+02  0.41471855300E+01  0.35929544649E+02  0.51100000000E-03 0. -1.
        -11    1    3    3    0    0  0.19624858269E+01 -0.10538970221E+02  0.32409250409E+01  0.11199323164E+02  0.51100000000E-03 0.  1.
        -12    1    3    3    0    0 -0.32478410494E+02  0.26931645813E+02 -0.76442781560E+01  0.42878848900E+02  0.00000000000E+00 0.  1.
</event>
<event>
 7    1  0.2879200E-015  0.9000766E+02  0.7816164E-02  0.1186339E+00
        -11   -1    0    0    0    0  0.00000000000E+00  0.00000000000E+00  0.45593999997E+02  0.45594000000E+02  0.51100000000E-03 0.  1.
         11   -1    0    0    0    0 -0.00000000000E+00 -0.00000000000E+00 -0.45593999997E+02  0.45594000000E+02  0.51100000000E-03 0. -1.
    9900012    2    1    2    0    0 -0.11696808132E+01  0.12570899944E+00 -0.96135643379E-01  0.90007661905E+02  0.89999922242E+02 0.  0.
        -12    1    1    2    0    0  0.11696808132E+01 -0.12570899944E+00  0.96135643379E-01  0.11803380954E+01  0.00000000000E+00 0.  1.
         11    1    3    3    0    0 -0.37970700819E+01  0.40236395733E+02  0.15529497944E+01  0.40444986538E+02  0.51100000000E-03 0. -1.
        -11    1    3    3    0    0 -0.31601706009E+01  0.35865796591E-01 -0.79125468631E+01  0.85203499168E+01  0.51100000000E-03 0.  1.
        -12    1    3    3    0    0  0.57875598695E+01 -0.40146552530E+02  0.62634614253E+01  0.41042325449E+02  0.00000000000E+00 0.  1.
</event>
<event>
 7    1  0.2879200E-015  0.9000782E+02  0.7816164E-02  0.1186339E+00
        -11   -1    0    0    0    0  0.00000000000E+00  0.00000000000E+00  0.45593999997E+02  0.45594000000E+02  0.51100000000E-03 0. -1.
         11   -1    0    0    0    0 -0.00000000000E+00 -0.00000000000E+00 -0.45593999997E+02  0.45594000000E+02  0.51100000000E-03 0.  1.
    9900012    2    1    2    0    0  0.11242191881E+01  0.28324444185E+00 -0.22073737878E+00  0.90007821544E+02  0.90000083989E+02 0.  0.
        -12    1    1    2    0    0 -0.11242191881E+01 -0.28324444185E+00  0.22073737878E+00  0.11801784556E+01  0.00000000000E+00 0.  1.
         11    1    3    3    0    0 -0.61077631368E+01  0.21123369707E+02 -0.89816505548E+01  0.23752296000E+02  0.51100000000E-03 0. -1.
        -11    1    3    3    0    0  0.63637777624E+01 -0.12240823424E+02 -0.26540153815E+02  0.29911790155E+02  0.51100000000E-03 0.  1.
         12    1    3    3    0    0  0.86820456248E+00 -0.85993018410E+01  0.35301066991E+02  0.36343735389E+02  0.00000000000E+00 0. -1.
</event>
<event>
 7    1  0.2879200E-015  0.9000776E+02  0.7816164E-02  0.1186339E+00
        -11   -1    0    0    0    0  0.00000000000E+00  0.00000000000E+00  0.45593999997E+02  0.45594000000E+02  0.51100000000E-03 0. -1.
         11   -1    0    0    0    0 -0.00000000000E+00 -0.00000000000E+00 -0.45593999997E+02  0.45594000000E+02  0.51100000000E-03 0.  1.
    9900012    2    1    2    0    0  0.11353620858E-01  0.99748092500E-01  0.11759607962E+01  0.90007761727E+02  0.90000023382E+02 0.  0.
        -12    1    1    2    0    0 -0.11353620858E-01 -0.99748092500E-01 -0.11759607962E+01  0.11802382729E+01  0.00000000000E+00 0.  1.
         11    1    3    3    0    0  0.21032518298E+02  0.22285368418E+02 -0.15186641973E+02  0.34199979038E+02  0.51100000000E-03 0.  1.
        -11    1    3    3    0    0 -0.25076958636E+01  0.83309403651E+01  0.18089315135E+02  0.20072778289E+02  0.51100000000E-03 0. -1.
         12    1    3    3    0    0 -0.18513468814E+02 -0.30516560691E+02 -0.17267123656E+01  0.35735004401E+02  0.00000000000E+00 0. -1.
</event>
<event>
 7    1  0.2879200E-015  0.9000780E+02  0.7816164E-02  0.1186339E+00
        -11   -1    0    0    0    0  0.00000000000E+00  0.00000000000E+00  0.45593999997E+02  0.45594000000E+02  0.51100000000E-03 0. -1.
         11   -1    0    0    0    0 -0.00000000000E+00 -0.00000000000E+00 -0.45593999997E+02  0.45594000000E+02  0.51100000000E-03 0.  1.
    9900012    2    1    2    0    0  0.30790799144E+00 -0.79448635506E+00  0.81661623272E+00  0.90007797487E+02  0.90000059614E+02 0.  0.
        -12    1    1    2    0    0 -0.30790799144E+00  0.79448635506E+00 -0.81661623272E+00  0.11802025128E+01  0.00000000000E+00 0.  1.
         11    1    3    3    0    0 -0.63224656682E+01  0.37904576737E+02  0.18136097888E+02  0.42492923606E+02  0.51100000000E-03 0. -1.
        -11    1    3    3    0    0  0.80476247764E+01 -0.43637469877E+01 -0.28263730544E+00  0.91589538934E+01  0.51100000000E-03 0.  1.
        -12    1    3    3    0    0 -0.14172511167E+01 -0.34335316104E+02 -0.17036844350E+02  0.38355919988E+02  0.00000000000E+00 0.  1.
</event>
<event>
 7    1  0.2879200E-015  0.9000777E+02  0.7816164E-02  0.1186339E+00
        -11   -1    0    0    0    0  0.00000000000E+00  0.00000000000E+00  0.45593999997E+02  0.45594000000E+02  0.51100000000E-03 0.  1.
         11   -1    0    0    0    0 -0.00000000000E+00 -0.00000000000E+00 -0.45593999997E+02  0.45594000000E+02  0.51100000000E-03 0. -1.
    9900012    2    1    2    0    0  0.10125257239E+01  0.80917064975E-01  0.60098705682E+00  0.90007770634E+02  0.90000032407E+02 0.  0.
        -12    1    1    2    0    0 -0.10125257239E+01 -0.80917064975E-01 -0.60098705682E+00  0.11802293656E+01  0.00000000000E+00 0.  1.
         11    1    3    3    0    0  0.32127034919E+02  0.41305796563E+00 -0.24551263088E+02  0.40436141124E+02  0.51100000000E-03 0. -1.
        -11    1    3    3    0    0 -0.86490724417E+01 -0.56819701262E+00 -0.64450307940E+01  0.10801283449E+02  0.51100000000E-03 0.  1.
        -12    1    3    3    0    0 -0.22465436753E+02  0.23605611196E+00  0.31597280939E+02  0.38770346061E+02  0.00000000000E+00 0.  1.
</event>
<event>
 7    1  0.2879200E-015  0.9000778E+02  0.7816164E-02  0.1186339E+00
        -11   -1    0    0    0    0  0.00000000000E+00  0.00000000000E+00  0.45593999997E+02  0.45594000000E+02  0.51100000000E-03 0. -1.
         11   -1    0    0    0    0 -0.00000000000E+00 -0.00000000000E+00 -0.45593999997E+02  0.45594000000E+02  0.51100000000E-03 0.  1.
    9900012    2    1    2    0    0 -0.12821305895E+00 -0.10592246406E+01 -0.50450985447E+00  0.90007777300E+02  0.90000039161E+02 0.  0.
        -12    1    1    2    0    0  0.12821305895E+00  0.10592246406E+01  0.50450985447E+00  0.11802226997E+01  0.00000000000E+00 0.  1.
         11    1    3    3    0    0 -0.15134762220E+02  0.25557923915E+01  0.34256812817E+02  0.37538278155E+02  0.51100000000E-03 0. -1.
        -11    1    3    3    0    0 -0.67070690265E+00 -0.44693651232E+01  0.67301607060E+01  0.81067956520E+01  0.51100000000E-03 0.  1.
        -12    1    3    3    0    0  0.15677256064E+02  0.85434809115E+00 -0.41491483378E+02  0.44362703493E+02  0.00000000000E+00 0.  1.
</event>
<event>
 7    1  0.2879200E-015  0.9000741E+02  0.7816164E-02  0.1186340E+00
        -11   -1    0    0    0    0  0.00000000000E+00  0.00000000000E+00  0.45593999997E+02  0.45594000000E+02  0.51100000000E-03 0. -1.
         11   -1    0    0    0    0 -0.00000000000E+00 -0.00000000000E+00 -0.45593999997E+02  0.45594000000E+02  0.51100000000E-03 0.  1.
    9900012    2    1    2    0    0  0.10135732456E-01  0.58095829101E+00  0.10277041464E+01  0.90007410706E+02  0.89999667727E+02 0.  0.
        -12    1    1    2    0    0 -0.10135732456E-01 -0.58095829101E+00 -0.10277041464E+01  0.11805892941E+01  0.00000000000E+00 0.  1.
         11    1    3    3    0    0  0.97800699963E+00 -0.68453822663E+01  0.55014305006E+01  0.88363733441E+01  0.51100000000E-03 0. -1.
        -11    1    3    3    0    0  0.21799615001E+02 -0.29474677006E+02 -0.84754680846E+01  0.37627295389E+02  0.51100000000E-03 0.  1.
         12    1    3    3    0    0 -0.22767486268E+02  0.36901017563E+02  0.40017417304E+01  0.43543741973E+02  0.00000000000E+00 0. -1.
</event>
<event>
 7    1  0.2879200E-015  0.9000770E+02  0.7816164E-02  0.1186339E+00
        -11   -1    0    0    0    0  0.00000000000E+00  0.00000000000E+00  0.45593999997E+02  0.45594000000E+02  0.51100000000E-03 0.  1.
         11   -1    0    0    0    0 -0.00000000000E+00 -0.00000000000E+00 -0.45593999997E+02  0.45594000000E+02  0.51100000000E-03 0. -1.
    9900012    2    1    2    0    0  0.95199744921E+00 -0.69623074710E+00 -0.45488904964E-01  0.90007701039E+02  0.89999961893E+02 0.  0.
        -12    1    1    2    0    0 -0.95199744921E+00  0.69623074710E+00  0.45488904964E-01  0.11802989609E+01  0.00000000000E+00 0.  1.
         11    1    3    3    0    0  0.67775573173E+01  0.53363254515E+01 -0.12264449831E+01  0.87129684993E+01  0.51100000000E-03 0. -1.
        -11    1    3    3    0    0  0.11155068555E+02  0.33832100540E+02  0.10158922181E+02  0.37043896685E+02  0.51100000000E-03 0.  1.
         12    1    3    3    0    0 -0.16980628423E+02 -0.39864656739E+02 -0.89779661030E+01  0.44250835855E+02  0.00000000000E+00 0. -1.
</event>
<event>
 7    1  0.3210992E-015  0.9000751E+02  0.7816164E-02  0.1186340E+00
        -11   -1    0    0    0    0  0.00000000000E+00  0.00000000000E+00  0.45593999997E+02  0.45594000000E+02  0.51100000000E-03 0.  1.
         11   -1    0    0    0    0 -0.00000000000E+00 -0.00000000000E+00 -0.45593999997E+02  0.45594000000E+02  0.51100000000E-03 0. -1.
    9900012    2    1    2    0    0 -0.92546656007E+00 -0.60732802909E+00 -0.41015991839E+00  0.90007505677E+02  0.89999763951E+02 0.  0.
        -12    1    1    2    0    0  0.92546656007E+00  0.60732802909E+00  0.41015991839E+00  0.11804943233E+01  0.00000000000E+00 0.  1.
         11    1    3    3    0    0 -0.33031292324E+02 -0.10435536439E+02 -0.12853108743E+02  0.36948194787E+02  0.51100000000E-03 0. -1.
        -11    1    3    3    0    0 -0.18382983276E+01 -0.60890386370E+01 -0.81081609995E+01  0.10305241740E+02  0.51100000000E-03 0.  1.
        -12    1    3    3    0    0  0.33944124091E+02  0.15917247047E+02  0.20551109824E+02  0.42754069150E+02  0.00000000000E+00 0.  1.
</event>
<event>
 7    1  0.2879200E-015  0.9000772E+02  0.7816164E-02  0.1186339E+00
        -11   -1    0    0    0    0  0.00000000000E+00  0.00000000000E+00  0.45593999997E+02  0.45594000000E+02  0.51100000000E-03 0. -1.
         11   -1    0    0    0    0 -0.00000000000E+00 -0.00000000000E+00 -0.45593999997E+02  0.45594000000E+02  0.51100000000E-03 0.  1.
    9900012    2    1    2    0    0  0.91549304253E-02  0.82448076126E+00  0.84451492041E+00  0.90007721309E+02  0.89999982430E+02 0.  0.
        -12    1    1    2    0    0 -0.91549304253E-02 -0.82448076126E+00 -0.84451492041E+00  0.11802786913E+01  0.00000000000E+00 0.  1.
         11    1    3    3    0    0  0.31879121542E+02  0.14732524252E+01  0.17566569681E+02  0.36428467352E+02  0.51100000000E-03 0. -1.
        -11    1    3    3    0    0  0.64808057247E+01 -0.66454720421E+01  0.33644195738E+01  0.98733206589E+01  0.51100000000E-03 0.  1.
        -12    1    3    3    0    0 -0.38350772337E+02  0.59967003782E+01 -0.20086474334E+02  0.43705933298E+02  0.00000000000E+00 0.  1.
</event>
<event>
 7    1  0.2879200E-015  0.9000770E+02  0.7816164E-02  0.1186339E+00
        -11   -1    0    0    0    0  0.00000000000E+00  0.00000000000E+00  0.45593999997E+02  0.45594000000E+02  0.51100000000E-03 0.  1.
         11   -1    0    0    0    0 -0.00000000000E+00 -0.00000000000E+00 -0.45593999997E+02  0.45594000000E+02  0.51100000000E-03 0. -1.
    9900012    2    1    2    0    0  0.10752673501E+01  0.48549648244E+00 -0.34698661126E-01  0.90007698892E+02  0.89999959717E+02 0.  0.
        -12    1    1    2    0    0 -0.10752673501E+01 -0.48549648244E+00  0.34698661126E-01  0.11803011080E+01  0.00000000000E+00 0.  1.
         11    1    3    3    0    0  0.67032763796E+01  0.26109553878E+01 -0.52923781210E+01  0.89308604678E+01  0.51100000000E-03 0. -1.
        -11    1    3    3    0    0 -0.39597419598E+02  0.12880935822E+02 -0.64549465286E+01  0.42137162712E+02  0.51100000000E-03 0.  1.
         12    1    3    3    0    0  0.33969410568E+02 -0.15006394727E+02  0.11712625988E+02  0.38939675713E+02  0.00000000000E+00 0. -1.
</event>
<event>
 7    1  0.2879200E-015  0.9000777E+02  0.7816164E-02  0.1186339E+00
        -11   -1    0    0    0    0  0.00000000000E+00  0.00000000000E+00  0.45593999997E+02  0.45594000000E+02  0.51100000000E-03 0. -1.
         11   -1    0    0    0    0 -0.00000000000E+00 -0.00000000000E+00 -0.45593999997E+02  0.45594000000E+02  0.51100000000E-03 0.  1.
    9900012    2    1    2    0    0  0.11093108473E+01 -0.13804481768E+00  0.37856213360E+00  0.90007772811E+02  0.90000034613E+02 0.  0.
        -12    1    1    2    0    0 -0.11093108473E+01  0.13804481768E+00 -0.37856213360E+00  0.11802271885E+01  0.00000000000E+00 0.  1.
         11    1    3    3    0    0  0.32729536327E+02  0.25394971066E+02 -0.71647877603E+01  0.42041185611E+02  0.51100000000E-03 0. -1.
        -11    1    3    3    0    0 -0.11133233989E+02  0.19382642470E+01  0.77390791607E+01  0.13696682586E+02  0.51100000000E-03 0.  1.
        -12    1    3    3    0    0 -0.20486991491E+02 -0.27471280131E+02 -0.19572926678E+00  0.34269904615E+02  0.00000000000E+00 0.  1.
</event>
<event>
 7    1  0.2879200E-015  0.9000781E+02  0.7816164E-02  0.1186339E+00
        -11   -1    0    0    0    0  0.00000000000E+00  0.00000000000E+00  0.45593999997E+02  0.45594000000E+02  0.51100000000E-03 0. -1.
         11   -1    0    0    0    0 -0.00000000000E+00 -0.00000000000E+00 -0.45593999997E+02  0.45594000000E+02  0.51100000000E-03 0.  1.
    9900012    2    1    2    0    0  0.11299817629E+01 -0.71850612169E-01 -0.33291111824E+00  0.90007808868E+02  0.90000071145E+02 0.  0.
        -12    1    1    2    0    0 -0.11299817629E+01  0.71850612169E-01  0.33291111824E+00  0.11801911318E+01  0.00000000000E+00 0.  1.
         11    1    3    3    0    0 -0.27873372040E+02 -0.24546256677E+02  0.15456476086E+02  0.40228674338E+02  0.51100000000E-03 0. -1.
        -11    1    3    3    0    0  0.57298971085E+01 -0.61885751555E+01 -0.49832887681E+01  0.97960885325E+01  0.51100000000E-03 0.  1.
        -12    1    3    3    0    0  0.23273456694E+02  0.30662981221E+02 -0.10806098436E+02  0.39983045998E+02  0.00000000000E+00 0.  1.
</event>
<event>
 7    1  0.2879200E-015  0.9000770E+02  0.7816164E-02  0.1186339E+00
        -11   -1    0    0    0    0  0.00000000000E+00  0.00000000000E+00  0.45593999997E+02  0.45594000000E+02  0.51100000000E-03 0. -1.
         11   -1    0    0    0    0 -0.00000000000E+00 -0.00000000000E+00 -0.45593999997E+02  0.45594000000E+02  0.51100000000E-03 0.  1.
    9900012    2    1    2    0    0 -0.25645130560E+00  0.11455768178E+01  0.12245043534E+00  0.90007700196E+02  0.89999961039E+02 0.  0.
        -12    1    1    2    0    0  0.25645130560E+00 -0.11455768178E+01 -0.12245043534E+00  0.11802998038E+01  0.00000000000E+00 0.  1.
         11    1    3    3    0    0  0.29523040872E+02 -0.18864922971E+02  0.74458418664E+01  0.35818093506E+02  0.51100000000E-03 0. -1.
        -11    1    3    3    0    0  0.86808229655E+01  0.11314451987E+02 -0.20367528127E+01  0.14405619508E+02  0.51100000000E-03 0.  1.
        -12    1    3    3    0    0 -0.38460315143E+02  0.86960478019E+01 -0.52866386183E+01  0.39783987183E+02  0.00000000000E+00 0.  1.
</event>
<event>
 7    1  0.2879200E-015  0.9000775E+02  0.7816164E-02  0.1186339E+00
        -11   -1    0    0    0    0  0.00000000000E+00  0.00000000000E+00  0.45593999997E+02  0.45594000000E+02  0.51100000000E-03 0.  1.
         11   -1    0    0    0    0 -0.00000000000E+00 -0.00000000000E+00 -0.45593999997E+02  0.45594000000E+02  0.51100000000E-03 0. -1.
    9900012    2    1    2    0    0 -0.11521423040E+01  0.49895991453E-01 -0.25111298421E+00  0.90007754589E+02  0.90000016150E+02 0.  0.
        -12    1    1    2    0    0  0.11521423040E+01 -0.49895991453E-01  0.25111298421E+00  0.11802454107E+01  0.00000000000E+00 0.  1.
         11    1    3    3    0    0  0.41948943416E+01  0.41350861859E+02 -0.94851764838E+00  0.41573917316E+02  0.51100000000E-03 0. -1.
        -11    1    3    3    0    0 -0.82672054380E+00 -0.32626333008E+01 -0.84113654761E+01  0.90597633715E+01  0.51100000000E-03 0.  1.
        -12    1    3    3    0    0 -0.45203161018E+01 -0.38038332567E+02  0.91087701403E+01  0.39374073901E+02  0.00000000000E+00 0.  1.
</event>
<event>
 7    1  0.2879200E-015  0.9000760E+02  0.7816164E-02  0.1186339E+00
        -11   -1    0    0    0    0  0.00000000000E+00  0.00000000000E+00  0.45593999997E+02  0.45594000000E+02  0.51100000000E-03 0.  1.
         11   -1    0    0    0    0 -0.00000000000E+00 -0.00000000000E+00 -0.45593999997E+02  0.45594000000E+02  0.51100000000E-03 0. -1.
    9900012    2    1    2    0    0  0.40121228679E+00  0.12744349922E+00 -0.11027785253E+01  0.90007604464E+02  0.89999864043E+02 0.  0.
        -12    1    1    2    0    0 -0.40121228679E+00 -0.12744349922E+00  0.11027785253E+01  0.11803955356E+01  0.00000000000E+00 0.  1.
         11    1    3    3    0    0  0.50646862426E+01  0.31866923819E+01 -0.87839658128E+01  0.10628457590E+02  0.51100000000E-03 0. -1.
        -11    1    3    3    0    0  0.62543677312E+01  0.44993720504E+01  0.41937391038E+02  0.42639256934E+02  0.51100000000E-03 0.  1.
         12    1    3    3    0    0 -0.10917841687E+02 -0.75586209331E+01 -0.34256203750E+02  0.36739889941E+02  0.00000000000E+00 0. -1.
</event>
<event>
 7    1  0.2879200E-015  0.9000772E+02  0.7816164E-02  0.1186339E+00
        -11   -1    0    0    0    0  0.00000000000E+00  0.00000000000E+00  0.45593999997E+02  0.45594000000E+02  0.51100000000E-03 0.  1.
         11   -1    0    0    0    0 -0.00000000000E+00 -0.00000000000E+00 -0.45593999997E+02  0.45594000000E+02  0.51100000000E-03 0. -1.
    9900012    2    1    2    0    0 -0.37884007717E+00  0.42353554813E+00 -0.10344900275E+01  0.90007715381E+02  0.89999976424E+02 0.  0.
        -12    1    1    2    0    0  0.37884007717E+00 -0.42353554813E+00  0.10344900275E+01  0.11802846189E+01  0.00000000000E+00 0.  1.
         11    1    3    3    0    0 -0.82565022412E+01 -0.94434892855E+01  0.28160215800E+01  0.12856099601E+02  0.51100000000E-03 0. -1.
        -11    1    3    3    0    0  0.22523411347E+01 -0.13225436245E+02  0.31680465404E+02  0.34404027278E+02  0.51100000000E-03 0.  1.
         12    1    3    3    0    0  0.56253210293E+01  0.23092461079E+02 -0.35530977012E+02  0.42747588502E+02  0.00000000000E+00 0. -1.
</event>
<event>
 7    1  0.2879200E-015  0.9000779E+02  0.7816164E-02  0.1186339E+00
        -11   -1    0    0    0    0  0.00000000000E+00  0.00000000000E+00  0.45593999997E+02  0.45594000000E+02  0.51100000000E-03 0.  1.
         11   -1    0    0    0    0 -0.00000000000E+00 -0.00000000000E+00 -0.45593999997E+02  0.45594000000E+02  0.51100000000E-03 0. -1.
    9900012    2    1    2    0    0  0.21710182389E+00 -0.11355430605E+01  0.23728952952E+00  0.90007789186E+02  0.90000051203E+02 0.  0.
        -12    1    1    2    0    0 -0.21710182389E+00  0.11355430605E+01 -0.23728952952E+00  0.11802108138E+01  0.00000000000E+00 0.  1.
         11    1    3    3    0    0 -0.90124539186E+01 -0.71599517647E+01  0.54921545940E+00  0.11523492213E+02  0.51100000000E-03 0. -1.
        -11    1    3    3    0    0 -0.27304482910E+02 -0.78071070816E+01  0.19728716805E+02  0.34579010613E+02  0.51100000000E-03 0.  1.
         12    1    3    3    0    0  0.36534038652E+02  0.13831515786E+02 -0.20040642734E+02  0.43905286360E+02  0.00000000000E+00 0. -1.
</event>
<event>
 7    1  0.2879200E-015  0.9000782E+02  0.7816164E-02  0.1186339E+00
        -11   -1    0    0    0    0  0.00000000000E+00  0.00000000000E+00  0.45593999997E+02  0.45594000000E+02  0.51100000000E-03 0. -1.
         11   -1    0    0    0    0 -0.00000000000E+00 -0.00000000000E+00 -0.45593999997E+02  0.45594000000E+02  0.51100000000E-03 0.  1.
    9900012    2    1    2    0    0  0.89544358725E+00 -0.45206931891E+00  0.62180764833E+00  0.90007817540E+02  0.90000079932E+02 0.  0.
        -12    1    1    2    0    0 -0.89544358725E+00  0.45206931891E+00 -0.62180764833E+00  0.11801824599E+01  0.00000000000E+00 0.  1.
         11    1    3    3    0    0  0.65135876467E+01 -0.69718193350E+01 -0.29193490979E+01  0.99777596828E+01  0.51100000000E-03 0. -1.
        -11    1    3    3    0    0  0.22501565363E+02 -0.25975744570E+02  0.11672171992E+02  0.36294618734E+02  0.51100000000E-03 0.  1.
         12    1    3    3    0    0 -0.28119709422E+02  0.32495494586E+02 -0.81310152461E+01  0.43735439124E+02  0.00000000000E+00 0. -1.
</event>
<event>
 7    1  0.2879200E-015  0.9000805E+02  0.7816164E-02  0.1186338E+00
        -11   -1    0    0    0    0  0.00000000000E+00  0.00000000000E+00  0.45593999997E+02  0.45594000000E+02  0.51100000000E-03 0. -1.
         11   -1    0    0    0    0 -0.00000000000E+00 -0.00000000000E+00 -0.45593999997E+02  0.45594000000E+02  0.51100000000E-03 0.  1.
    9900012    2    1    2    0    0 -0.87759375060E+00 -0.70124176470E+00 -0.36108541494E+00  0.90008045136E+02  0.90000310531E+02 0.  0.
        -12    1    1    2    0    0  0.87759375060E+00  0.70124176470E+00  0.36108541494E+00  0.11799548638E+01  0.00000000000E+00 0.  1.
         11    1    3    3    0    0 -0.92789889138E+01 -0.28192139556E+01  0.71157394950E+00  0.97238850433E+01  0.51100000000E-03 0. -1.
        -11    1    3    3    0    0  0.20824713540E+02 -0.27713740853E+02 -0.22666235455E+02  0.41418333574E+02  0.51100000000E-03 0.  1.
         12    1    3    3    0    0 -0.12423318376E+02  0.29831713044E+02  0.21593576091E+02  0.38865826519E+02  0.00000000000E+00 0. -1.
</event>
<event>
 7    1  0.2879200E-015  0.9000773E+02  0.7816164E-02  0.1186339E+00
        -11   -1    0    0    0    0  0.00000000000E+00  0.00000000000E+00  0.45593999997E+02  0.45594000000E+02  0.51100000000E-03 0.  1.
         11   -1    0    0    0    0 -0.00000000000E+00 -0.00000000000E+00 -0.45593999997E+02  0.45594000000E+02  0.51100000000E-03 0. -1.
    9900012    2    1    2    0    0  0.20326232108E+00 -0.32878028152E+00 -0.11151831916E+01  0.90007726474E+02  0.89999987664E+02 0.  0.
        -12    1    1    2    0    0 -0.20326232108E+00  0.32878028152E+00  0.11151831916E+01  0.11802735257E+01  0.00000000000E+00 0.  1.
         11    1    3    3    0    0 -0.20185978065E+02  0.10787632138E+02 -0.34534005731E+02  0.41429992393E+02  0.51100000000E-03 0. -1.
        -11    1    3    3    0    0 -0.63670368707E+01 -0.36455424210E+01  0.53011423893E+01  0.90515882004E+01  0.51100000000E-03 0.  1.
        -12    1    3    3    0    0  0.26756277257E+02 -0.74708699989E+01  0.28117680150E+02  0.39526145881E+02  0.00000000000E+00 0.  1.
</event>
<event>
 7    1  0.2879200E-015  0.9000785E+02  0.7816164E-02  0.1186339E+00
        -11   -1    0    0    0    0  0.00000000000E+00  0.00000000000E+00  0.45593999997E+02  0.45594000000E+02  0.51100000000E-03 0.  1.
         11   -1    0    0    0    0 -0.00000000000E+00 -0.00000000000E+00 -0.45593999997E+02  0.45594000000E+02  0.51100000000E-03 0. -1.
    9900012    2    1    2    0    0 -0.31773208676E+00  0.97025837886E+00 -0.59195239715E+00  0.90007846348E+02  0.90000109120E+02 0.  0.
        -12    1    1    2    0    0  0.31773208676E+00 -0.97025837886E+00  0.59195239715E+00  0.11801536515E+01  0.00000000000E+00 0.  1.
         11    1    3    3    0    0 -0.54190283474E+01 -0.35444550261E+01  0.67563659231E+01  0.93582856555E+01  0.51100000000E-03 0. -1.
        -11    1    3    3    0    0 -0.83361137668E+01  0.77459702880E+00  0.35039509017E+02  0.36025796115E+02  0.51100000000E-03 0.  1.
         12    1    3    3    0    0  0.13437410027E+02  0.37401163762E+01 -0.42387827337E+02  0.44623764578E+02  0.00000000000E+00 0. -1.
</event>
<event>
 7    1  0.2879200E-015  0.9000783E+02  0.7816164E-02  0.1186339E+00
        -11   -1    0    0    0    0  0.00000000000E+00  0.00000000000E+00  0.45593999997E+02  0.45594000000E+02  0.51100000000E-03 0. -1.
         11   -1    0    0    0    0 -0.00000000000E+00 -0.00000000000E+00 -0.45593999997E+02  0.45594000000E+02  0.51100000000E-03 0.  1.
    9900012    2    1    2    0    0 -0.11560117743E+01  0.44037207745E-01 -0.23343782577E+00  0.90007832335E+02  0.90000094922E+02 0.  0.
        -12    1    1    2    0    0  0.11560117743E+01 -0.44037207745E-01  0.23343782577E+00  0.11801676646E+01  0.00000000000E+00 0.  1.
         11    1    3    3    0    0  0.22763605618E+02 -0.15006640376E+02  0.22094986264E+02  0.35093723290E+02  0.51100000000E-03 0. -1.
        -11    1    3    3    0    0  0.73007183387E+01 -0.69512434248E+01  0.10464993290E+01  0.10134862333E+02  0.51100000000E-03 0.  1.
        -12    1    3    3    0    0 -0.31220335731E+02  0.22001921009E+02 -0.23374923419E+02  0.44779246712E+02  0.00000000000E+00 0.  1.
</event>
<event>
 7    1  0.2879200E-015  0.9000771E+02  0.7816164E-02  0.1186339E+00
        -11   -1    0    0    0    0  0.00000000000E+00  0.00000000000E+00  0.45593999997E+02  0.45594000000E+02  0.51100000000E-03 0.  1.
         11   -1    0    0    0    0 -0.00000000000E+00 -0.00000000000E+00 -0.45593999997E+02  0.45594000000E+02  0.51100000000E-03 0. -1.
    9900012    2    1    2    0    0 -0.11716395836E+01 -0.13109539738E+00 -0.56223710743E-01  0.90007709179E+02  0.89999970140E+02 0.  0.
        -12    1    1    2    0    0  0.11716395836E+01  0.13109539738E+00  0.56223710743E-01  0.11802908212E+01  0.00000000000E+00 0.  1.
         11    1    3    3    0    0  0.84362809771E+01  0.69044837005E+01 -0.75476482912E+01  0.13259326034E+02  0.51100000000E-03 0. -1.
        -11    1    3    3    0    0  0.27681986378E+02  0.10781622929E+02  0.17156136963E+02  0.34305521401E+02  0.51100000000E-03 0.  1.
         12    1    3    3    0    0 -0.37289906939E+02 -0.17817202027E+02 -0.96647123825E+01  0.42442861744E+02  0.00000000000E+00 0. -1.
</event>
<event>
 7    1  0.2879200E-015  0.9000784E+02  0.7816164E-02  0.1186339E+00
        -11   -1    0    0    0    0  0.00000000000E+00  0.00000000000E+00  0.45593999997E+02  0.45594000000E+02  0.51100000000E-03 0. -1.
         11   -1    0    0    0    0 -0.00000000000E+00 -0.00000000000E+00 -0.45593999997E+02  0.45594000000E+02  0.51100000000E-03 0.  1.
    9900012    2    1    2    0    0 -0.10553303257E+00 -0.91730803603E-01  0.11718473620E+01  0.90007839841E+02  0.90000102527E+02 0.  0.
        -12    1    1    2    0    0  0.10553303257E+00  0.91730803603E-01 -0.11718473620E+01  0.11801601591E+01  0.00000000000E+00 0.  1.
         11    1    3    3    0    0 -0.81686205045E+01 -0.41362623349E+01  0.28937416581E+01  0.96025396690E+01  0.51100000000E-03 0. -1.
        -11    1    3    3    0    0  0.27358020767E+02  0.27393706789E+02 -0.21447053326E+02  0.44258926428E+02  0.51100000000E-03 0.  1.
         12    1    3    3    0    0 -0.19294933295E+02 -0.23349175258E+02  0.19725159030E+02  0.36146373744E+02  0.00000000000E+00 0. -1.
</event>
<event>
 7    1  0.2879200E-015  0.9000770E+02  0.7816164E-02  0.1186339E+00
        -11   -1    0    0    0    0  0.00000000000E+00  0.00000000000E+00  0.45593999997E+02  0.45594000000E+02  0.51100000000E-03 0.  1.
         11   -1    0    0    0    0 -0.00000000000E+00 -0.00000000000E+00 -0.45593999997E+02  0.45594000000E+02  0.51100000000E-03 0. -1.
    9900012    2    1    2    0    0  0.44114075255E+00 -0.63882936300E+00 -0.88904296431E+00  0.90007701093E+02  0.89999961947E+02 0.  0.
        -12    1    1    2    0    0 -0.44114075255E+00  0.63882936300E+00  0.88904296431E+00  0.11802989075E+01  0.00000000000E+00 0.  1.
         11    1    3    3    0    0 -0.67275794398E+01  0.73343359239E+01  0.18716710407E+00  0.99542875360E+01  0.51100000000E-03 0. -1.
        -11    1    3    3    0    0  0.21082488966E+02  0.26619197064E+02  0.17715402551E+02  0.38299980172E+02  0.51100000000E-03 0.  1.
         12    1    3    3    0    0 -0.13913768774E+02 -0.34592362351E+02 -0.18791612620E+02  0.41753433384E+02  0.00000000000E+00 0. -1.
</event>
<event>
 7    1  0.2879200E-015  0.9000780E+02  0.7816164E-02  0.1186339E+00
        -11   -1    0    0    0    0  0.00000000000E+00  0.00000000000E+00  0.45593999997E+02  0.45594000000E+02  0.51100000000E-03 0.  1.
         11   -1    0    0    0    0 -0.00000000000E+00 -0.00000000000E+00 -0.45593999997E+02  0.45594000000E+02  0.51100000000E-03 0. -1.
    9900012    2    1    2    0    0 -0.40707635142E+00  0.10034210441E+01 -0.46937183956E+00  0.90007798800E+02  0.90000060945E+02 0.  0.
        -12    1    1    2    0    0  0.40707635142E+00 -0.10034210441E+01  0.46937183956E+00  0.11802011996E+01  0.00000000000E+00 0.  1.
         11    1    3    3    0    0 -0.22938728790E+02 -0.30930871268E+02  0.73344469010E+01  0.39200742180E+02  0.51100000000E-03 0. -1.
        -11    1    3    3    0    0 -0.78912592498E+01  0.40286822392E+01 -0.23418319032E+01  0.91644110589E+01  0.51100000000E-03 0.  1.
        -12    1    3    3    0    0  0.30422911688E+02  0.27905610073E+02 -0.54619868374E+01  0.41642645561E+02  0.00000000000E+00 0.  1.
</event>
<event>
 7    1  0.2879200E-015  0.9000774E+02  0.7816164E-02  0.1186339E+00
        -11   -1    0    0    0    0  0.00000000000E+00  0.00000000000E+00  0.45593999997E+02  0.45594000000E+02  0.51100000000E-03 0.  1.
         11   -1    0    0    0    0 -0.00000000000E+00 -0.00000000000E+00 -0.45593999997E+02  0.45594000000E+02  0.51100000000E-03 0. -1.
    9900012    2    1    2    0    0 -0.55727256089E+00 -0.49184411311E+00 -0.91681565804E+00  0.90007739737E+02  0.90000001101E+02 0.  0.
        -12    1    1    2    0    0  0.55727256089E+00  0.49184411311E+00  0.91681565804E+00  0.11802602635E+01  0.00000000000E+00 0.  1.
         11    1    3    3    0    0  0.89032522627E+01 -0.22997739790E+01  0.18640083278E+01  0.93825043840E+01  0.51100000000E-03 0. -1.
        -11    1    3    3    0    0 -0.14018834900E+02 -0.36935970919E+02 -0.10454073907E+02  0.40866628698E+02  0.51100000000E-03 0.  1.
         12    1    3    3    0    0  0.45583100760E+01  0.38743900785E+02  0.76732499209E+01  0.39758606654E+02  0.00000000000E+00 0. -1.
</event>
<event>
 7    1  0.2879200E-015  0.9000772E+02  0.7816164E-02  0.1186339E+00
        -11   -1    0    0    0    0  0.00000000000E+00  0.00000000000E+00  0.45593999997E+02  0.45594000000E+02  0.51100000000E-03 0.  1.
         11   -1    0    0    0    0 -0.00000000000E+00 -0.00000000000E+00 -0.45593999997E+02  0.45594000000E+02  0.51100000000E-03 0. -1.
    9900012    2    1    2    0    0 -0.10127417587E+01  0.34667997307E+00  0.49721951626E+00  0.90007720321E+02  0.89999981429E+02 0.  0.
        -12    1    1    2    0    0  0.10127417587E+01 -0.34667997307E+00 -0.49721951626E+00  0.11802796791E+01  0.00000000000E+00 0.  1.
         11    1    3    3    0    0 -0.19222931850E+02  0.14366959442E+02 -0.28759029616E+02  0.37456807355E+02  0.51100000000E-03 0. -1.
        -11    1    3    3    0    0 -0.80907552461E+01 -0.64977346723E+01 -0.24626474624E+01  0.10665153966E+02  0.51100000000E-03 0.  1.
        -12    1    3    3    0    0  0.26300945337E+02 -0.75225447961E+01  0.31718896595E+02  0.41885759000E+02  0.00000000000E+00 0.  1.
</event>
<event>
 7    1  0.2879200E-015  0.9000776E+02  0.7816164E-02  0.1186339E+00
        -11   -1    0    0    0    0  0.00000000000E+00  0.00000000000E+00  0.45593999997E+02  0.45594000000E+02  0.51100000000E-03 0.  1.
         11   -1    0    0    0    0 -0.00000000000E+00 -0.00000000000E+00 -0.45593999997E+02  0.45594000000E+02  0.51100000000E-03 0. -1.
    9900012    2    1    2    0    0 -0.73964745858E+00  0.54566150749E+00 -0.74036971391E+00  0.90007757585E+02  0.90000019186E+02 0.  0.
        -12    1    1    2    0    0  0.73964745858E+00 -0.54566150749E+00  0.74036971391E+00  0.11802424145E+01  0.00000000000E+00 0.  1.
         11    1    3    3    0    0 -0.71832825103E+01  0.68862107621E+01  0.10693201236E+00  0.99514260786E+01  0.51100000000E-03 0. -1.
        -11    1    3    3    0    0  0.20302740752E+01  0.33234015154E+02  0.15851581225E+02  0.36876746110E+02  0.51100000000E-03 0.  1.
         12    1    3    3    0    0  0.44133609765E+01 -0.39574564409E+02 -0.16698882951E+02  0.43179585397E+02  0.00000000000E+00 0. -1.
</event>
<event>
 7    1  0.2879200E-015  0.9000750E+02  0.7816164E-02  0.1186340E+00
        -11   -1    0    0    0    0  0.00000000000E+00  0.00000000000E+00  0.45593999997E+02  0.45594000000E+02  0.51100000000E-03 0.  1.
         11   -1    0    0    0    0 -0.00000000000E+00 -0.00000000000E+00 -0.45593999997E+02  0.45594000000E+02  0.51100000000E-03 0. -1.
    9900012    2    1    2    0    0 -0.98953464389E+00 -0.51636002889E+00 -0.38442339931E+00  0.90007496785E+02  0.89999754942E+02 0.  0.
        -12    1    1    2    0    0  0.98953464389E+00  0.51636002889E+00  0.38442339931E+00  0.11805032151E+01  0.00000000000E+00 0.  1.
         11    1    3    3    0    0 -0.34221656885E+02  0.23162859171E-01 -0.18009674973E+02  0.38671316623E+02  0.51100000000E-03 0. -1.
        -11    1    3    3    0    0 -0.53136448881E+01 -0.72225097247E+01  0.18556433453E+01  0.91565758451E+01  0.51100000000E-03 0.  1.
        -12    1    3    3    0    0  0.38545767129E+02  0.66829868367E+01  0.15769608229E+02  0.42179604317E+02  0.00000000000E+00 0.  1.
</event>
<event>
 7    1  0.2879200E-015  0.9000732E+02  0.7816164E-02  0.1186340E+00
        -11   -1    0    0    0    0  0.00000000000E+00  0.00000000000E+00  0.45593999997E+02  0.45594000000E+02  0.51100000000E-03 0.  1.
         11   -1    0    0    0    0 -0.00000000000E+00 -0.00000000000E+00 -0.45593999997E+02  0.45594000000E+02  0.51100000000E-03 0. -1.
    9900012    2    1    2    0    0  0.10631143300E+01 -0.48678962128E+00  0.16382252033E+00  0.90007316286E+02  0.89999572060E+02 0.  0.
        -12    1    1    2    0    0 -0.10631143300E+01  0.48678962128E+00 -0.16382252033E+00  0.11806837139E+01  0.00000000000E+00 0.  1.
         11    1    3    3    0    0  0.12355687757E+02  0.82434609909E+01 -0.11537507971E+02  0.18807757960E+02  0.51100000000E-03 0. -1.
        -11    1    3    3    0    0  0.39657309955E+00  0.27473288796E+02 -0.76440259281E+01  0.28519642356E+02  0.51100000000E-03 0.  1.
         12    1    3    3    0    0 -0.11689146526E+02 -0.36203539408E+02  0.19345356419E+02  0.42679915970E+02  0.00000000000E+00 0. -1.
</event>
<event>
 7    1  0.2879200E-015  0.9000777E+02  0.7816164E-02  0.1186339E+00
        -11   -1    0    0    0    0  0.00000000000E+00  0.00000000000E+00  0.45593999997E+02  0.45594000000E+02  0.51100000000E-03 0.  1.
         11   -1    0    0    0    0 -0.00000000000E+00 -0.00000000000E+00 -0.45593999997E+02  0.45594000000E+02  0.51100000000E-03 0. -1.
    9900012    2    1    2    0    0 -0.17036553783E+00  0.40674050589E+00 -0.10947557187E+01  0.90007765981E+02  0.90000027692E+02 0.  0.
        -12    1    1    2    0    0  0.17036553783E+00 -0.40674050589E+00  0.10947557187E+01  0.11802340189E+01  0.00000000000E+00 0.  1.
         11    1    3    3    0    0  0.59202492176E+01  0.21369216082E+01 -0.84684355045E+01  0.10551312000E+02  0.51100000000E-03 0. -1.
        -11    1    3    3    0    0 -0.14826573815E+02 -0.33803821915E+02  0.22182586258E+02  0.43064983462E+02  0.51100000000E-03 0.  1.
         12    1    3    3    0    0  0.87359590597E+01  0.32073640813E+02 -0.14808906473E+02  0.36391470520E+02  0.00000000000E+00 0. -1.
</event>
<event>
 7    1  0.2879200E-015  0.9000781E+02  0.7816164E-02  0.1186339E+00
        -11   -1    0    0    0    0  0.00000000000E+00  0.00000000000E+00  0.45593999997E+02  0.45594000000E+02  0.51100000000E-03 0.  1.
         11   -1    0    0    0    0 -0.00000000000E+00 -0.00000000000E+00 -0.45593999997E+02  0.45594000000E+02  0.51100000000E-03 0. -1.
    9900012    2    1    2    0    0  0.91053096099E-01  0.86006186748E-01 -0.11735282259E+01  0.90007806699E+02  0.90000068948E+02 0.  0.
        -12    1    1    2    0    0 -0.91053096099E-01 -0.86006186748E-01  0.11735282259E+01  0.11801933009E+01  0.00000000000E+00 0.  1.
         11    1    3    3    0    0  0.30578987929E+02 -0.16360687561E+02 -0.64594943968E+00  0.34686652349E+02  0.51100000000E-03 0. -1.
        -11    1    3    3    0    0  0.49134719843E+01 -0.94084526076E+01  0.37917271744E+01  0.11271130495E+02  0.51100000000E-03 0.  1.
        -12    1    3    3    0    0 -0.35401406817E+02  0.25855146355E+02 -0.43193059606E+01  0.44050023855E+02  0.00000000000E+00 0.  1.
</event>
<event>
 7    1  0.2879200E-015  0.9000776E+02  0.7816164E-02  0.1186339E+00
        -11   -1    0    0    0    0  0.00000000000E+00  0.00000000000E+00  0.45593999997E+02  0.45594000000E+02  0.51100000000E-03 0.  1.
         11   -1    0    0    0    0 -0.00000000000E+00 -0.00000000000E+00 -0.45593999997E+02  0.45594000000E+02  0.51100000000E-03 0. -1.
    9900012    2    1    2    0    0  0.72659636070E+00  0.55479488201E+00 -0.74647314248E+00  0.90007761980E+02  0.90000023638E+02 0.  0.
        -12    1    1    2    0    0 -0.72659636070E+00 -0.55479488201E+00  0.74647314248E+00  0.11802380205E+01  0.00000000000E+00 0.  1.
         11    1    3    3    0    0 -0.31183904395E+01  0.16678162069E+02 -0.25446737287E+01  0.17156946511E+02  0.51100000000E-03 0. -1.
        -11    1    3    3    0    0 -0.22240714556E+02  0.95332969605E+01  0.20541318540E+02  0.31740808158E+02  0.51100000000E-03 0.  1.
         12    1    3    3    0    0  0.26085701356E+02 -0.25656664148E+02 -0.18743117954E+02  0.41110007310E+02  0.00000000000E+00 0. -1.
</event>
<event>
 7    1  0.2879200E-015  0.9000774E+02  0.7816164E-02  0.1186339E+00
        -11   -1    0    0    0    0  0.00000000000E+00  0.00000000000E+00  0.45593999997E+02  0.45594000000E+02  0.51100000000E-03 0.  1.
         11   -1    0    0    0    0 -0.00000000000E+00 -0.00000000000E+00 -0.45593999997E+02  0.45594000000E+02  0.51100000000E-03 0. -1.
    9900012    2    1    2    0    0 -0.53023515569E+00 -0.62081278283E+00 -0.85232706142E+00  0.90007737635E+02  0.89999998971E+02 0.  0.
        -12    1    1    2    0    0  0.53023515569E+00  0.62081278283E+00  0.85232706142E+00  0.11802623654E+01  0.00000000000E+00 0.  1.
         11    1    3    3    0    0 -0.96016703462E+00  0.51381866754E+01  0.10419516324E+02  0.11657152471E+02  0.51100000000E-03 0. -1.
        -11    1    3    3    0    0 -0.59227768706E+01  0.33292773089E+02  0.73768345040E+01  0.34610774527E+02  0.51100000000E-03 0.  1.
         12    1    3    3    0    0  0.63527087495E+01 -0.39051772547E+02 -0.18648677889E+02  0.43739810637E+02  0.00000000000E+00 0. -1.
</event>
<event>
 7    1  0.2879200E-015  0.9000777E+02  0.7816164E-02  0.1186339E+00
        -11   -1    0    0    0    0  0.00000000000E+00  0.00000000000E+00  0.45593999997E+02  0.45594000000E+02  0.51100000000E-03 0.  1.
         11   -1    0    0    0    0 -0.00000000000E+00 -0.00000000000E+00 -0.45593999997E+02  0.45594000000E+02  0.51100000000E-03 0. -1.
    9900012    2    1    2    0    0  0.73677829746E+00  0.33585377376E+00 -0.85866181869E+00  0.90007771151E+02  0.90000032930E+02 0.  0.
        -12    1    1    2    0    0 -0.73677829746E+00 -0.33585377376E+00  0.85866181869E+00  0.11802288489E+01  0.00000000000E+00 0.  1.
         11    1    3    3    0    0  0.71163927461E+01  0.35998008656E+01  0.87809683709E+01  0.11861998895E+02  0.51100000000E-03 0. -1.
        -11    1    3    3    0    0 -0.12381084681E+02  0.69553308185E-01  0.32849631175E+02  0.35105474846E+02  0.51100000000E-03 0.  1.
         12    1    3    3    0    0  0.60014702322E+01 -0.33335004000E+01 -0.42489261365E+02  0.43040297411E+02  0.00000000000E+00 0. -1.
</event>
<event>
 7    1  0.4016320E-015  0.9000755E+02  0.7816164E-02  0.1186339E+00
        -11   -1    0    0    0    0  0.00000000000E+00  0.00000000000E+00  0.45593999997E+02  0.45594000000E+02  0.51100000000E-03 0. -1.
         11   -1    0    0    0    0 -0.00000000000E+00 -0.00000000000E+00 -0.45593999997E+02  0.45594000000E+02  0.51100000000E-03 0.  1.
    9900012    2    1    2    0    0 -0.34569969335E+00 -0.10607330727E+01  0.38574066038E+00  0.90007551447E+02  0.89999810326E+02 0.  0.
        -12    1    1    2    0    0  0.34569969335E+00  0.10607330727E+01 -0.38574066038E+00  0.11804485531E+01  0.00000000000E+00 0.  1.
         11    1    3    3    0    0 -0.11789247168E+02  0.21725294559E+02  0.32749956430E+02  0.41030895907E+02  0.51100000000E-03 0. -1.
        -11    1    3    3    0    0 -0.73914766527E+01 -0.61533075692E+01 -0.24799534817E+01  0.99321342460E+01  0.51100000000E-03 0.  1.
        -12    1    3    3    0    0  0.18835024128E+02 -0.16632720062E+02 -0.29884262288E+02  0.39044521294E+02  0.00000000000E+00 0.  1.
</event>
<event>
 7    1  0.2879200E-015  0.9000780E+02  0.7816164E-02  0.1186339E+00
        -11   -1    0    0    0    0  0.00000000000E+00  0.00000000000E+00  0.45593999997E+02  0.45594000000E+02  0.51100000000E-03 0. -1.
         11   -1    0    0    0    0 -0.00000000000E+00 -0.00000000000E+00 -0.45593999997E+02  0.45594000000E+02  0.51100000000E-03 0.  1.
    9900012    2    1    2    0    0  0.23309492062E+00 -0.47772891195E+00  0.10537174135E+01  0.90007797245E+02  0.90000059369E+02 0.  0.
        -12    1    1    2    0    0 -0.23309492062E+00  0.47772891195E+00 -0.10537174135E+01  0.11802027550E+01  0.00000000000E+00 0.  1.
         11    1    3    3    0    0 -0.11762926674E+02 -0.81452725384E+01  0.28201073836E+02  0.31622973839E+02  0.51100000000E-03 0. -1.
        -11    1    3    3    0    0 -0.11282108630E+02 -0.15278657220E+02 -0.94126569977E+01  0.21197203910E+02  0.51100000000E-03 0.  1.
        -12    1    3    3    0    0  0.23278130225E+02  0.22946200847E+02 -0.17734699425E+02  0.37187619496E+02  0.00000000000E+00 0.  1.
</event>
<event>
 7    1  0.2879200E-015  0.9000764E+02  0.7816164E-02  0.1186339E+00
        -11   -1    0    0    0    0  0.00000000000E+00  0.00000000000E+00  0.45593999997E+02  0.45594000000E+02  0.51100000000E-03 0.  1.
         11   -1    0    0    0    0 -0.00000000000E+00 -0.00000000000E+00 -0.45593999997E+02  0.45594000000E+02  0.51100000000E-03 0. -1.
    9900012    2    1    2    0    0 -0.10248582950E+01 -0.35185034645E+00 -0.46809214265E+00  0.90007642662E+02  0.89999902745E+02 0.  0.
        -12    1    1    2    0    0  0.10248582950E+01  0.35185034645E+00  0.46809214265E+00  0.11803573379E+01  0.00000000000E+00 0.  1.
         11    1    3    3    0    0 -0.43298120163E+01  0.88864365003E+01  0.25713387450E+01  0.10214098539E+02  0.51100000000E-03 0. -1.
        -11    1    3    3    0    0  0.71170281219E+01  0.32859705248E+02 -0.13528566927E+02  0.36241336090E+02  0.51100000000E-03 0.  1.
         12    1    3    3    0    0 -0.38120744006E+01 -0.42097992095E+02  0.10489136039E+02  0.43552208032E+02  0.00000000000E+00 0. -1.
</event>
<event>
 7    1  0.2879200E-015  0.9000772E+02  0.7816164E-02  0.1186339E+00
        -11   -1    0    0    0    0  0.00000000000E+00  0.00000000000E+00  0.45593999997E+02  0.45594000000E+02  0.51100000000E-03 0.  1.
         11   -1    0    0    0    0 -0.00000000000E+00 -0.00000000000E+00 -0.45593999997E+02  0.45594000000E+02  0.51100000000E-03 0. -1.
    9900012    2    1    2    0    0  0.56656851160E+00 -0.49286327500E+00 -0.91057806315E+00  0.90007717621E+02  0.89999978693E+02 0.  0.
        -12    1    1    2    0    0 -0.56656851160E+00  0.49286327500E+00  0.91057806315E+00  0.11802823795E+01  0.00000000000E+00 0.  1.
         11    1    3    3    0    0  0.42984862034E+01  0.19038478389E+02 -0.32825897317E+02  0.38190053390E+02  0.51100000000E-03 0. -1.
        -11    1    3    3    0    0 -0.11808346220E+01 -0.10648221044E+02 -0.63486933085E+01  0.12453308347E+02  0.51100000000E-03 0.  1.
        -12    1    3    3    0    0 -0.25510830698E+01 -0.88831206207E+01  0.38264012562E+02  0.39364355884E+02  0.00000000000E+00 0.  1.
</event>
<event>
 7    1  0.2879200E-015  0.9000770E+02  0.7816164E-02  0.1186339E+00
        -11   -1    0    0    0    0  0.00000000000E+00  0.00000000000E+00  0.45593999997E+02  0.45594000000E+02  0.51100000000E-03 0. -1.
         11   -1    0    0    0    0 -0.00000000000E+00 -0.00000000000E+00 -0.45593999997E+02  0.45594000000E+02  0.51100000000E-03 0.  1.
    9900012    2    1    2    0    0  0.64338573832E+00 -0.76308101914E+00 -0.62998225788E+00  0.90007696863E+02  0.89999957662E+02 0.  0.
        -12    1    1    2    0    0 -0.64338573832E+00  0.76308101914E+00  0.62998225788E+00  0.11803031370E+01  0.00000000000E+00 0.  1.
         11    1    3    3    0    0  0.74409968160E+01 -0.62985108570E+01 -0.67850368696E+01  0.11877558597E+02  0.51100000000E-03 0. -1.
        -11    1    3    3    0    0 -0.23614404647E+02 -0.26541675808E+02 -0.12153645723E+02  0.37547460182E+02  0.51100000000E-03 0.  1.
         12    1    3    3    0    0  0.16816793569E+02  0.32077105646E+02  0.18308700335E+02  0.40582678084E+02  0.00000000000E+00 0. -1.
</event>
<event>
 7    1  0.2879200E-015  0.9000784E+02  0.7816164E-02  0.1186339E+00
        -11   -1    0    0    0    0  0.00000000000E+00  0.00000000000E+00  0.45593999997E+02  0.45594000000E+02  0.51100000000E-03 0.  1.
         11   -1    0    0    0    0 -0.00000000000E+00 -0.00000000000E+00 -0.45593999997E+02  0.45594000000E+02  0.51100000000E-03 0. -1.
    9900012    2    1    2    0    0 -0.32072906020E+00 -0.10677011310E+01  0.38719802320E+00  0.90007841051E+02  0.90000103753E+02 0.  0.
        -12    1    1    2    0    0  0.32072906020E+00  0.10677011310E+01 -0.38719802320E+00  0.11801589488E+01  0.00000000000E+00 0.  1.
         11    1    3    3    0    0  0.28653312315E+02  0.50975621133E+01 -0.22268072484E+02  0.36645115616E+02  0.51100000000E-03 0. -1.
        -11    1    3    3    0    0  0.53910015163E+01 -0.61797910121E+01 -0.46885427043E+01  0.94464356905E+01  0.51100000000E-03 0.  1.
        -12    1    3    3    0    0 -0.34365042892E+02  0.14527767817E-01  0.27343813211E+02  0.43916289745E+02  0.00000000000E+00 0.  1.
</event>
<event>
 7    1  0.2879200E-015  0.9000736E+02  0.7816164E-02  0.1186340E+00
        -11   -1    0    0    0    0  0.00000000000E+00  0.00000000000E+00  0.45593999997E+02  0.45594000000E+02  0.51100000000E-03 0.  1.
         11   -1    0    0    0    0 -0.00000000000E+00 -0.00000000000E+00 -0.45593999997E+02  0.45594000000E+02  0.51100000000E-03 0. -1.
    9900012    2    1    2    0    0 -0.90892775469E+00 -0.53380401827E+00  0.53180684648E+00  0.90007358261E+02  0.89999614590E+02 0.  0.
        -12    1    1    2    0    0  0.90892775469E+00  0.53380401827E+00 -0.53180684648E+00  0.11806417387E+01  0.00000000000E+00 0.  1.
         11    1    3    3    0    0 -0.11464826496E+02  0.20769648018E+00  0.75836769274E+01  0.13747637630E+02  0.51100000000E-03 0. -1.
        -11    1    3    3    0    0  0.39171099906E+02 -0.16891314182E+02 -0.20537809039E-01  0.42657847868E+02  0.51100000000E-03 0.  1.
         12    1    3    3    0    0 -0.28615201165E+02  0.16149813683E+02 -0.70313322719E+01  0.33601872764E+02  0.00000000000E+00 0. -1.
</event>
<event>
 7    1  0.2879200E-015  0.9000774E+02  0.7816164E-02  0.1186339E+00
        -11   -1    0    0    0    0  0.00000000000E+00  0.00000000000E+00  0.45593999997E+02  0.45594000000E+02  0.51100000000E-03 0. -1.
         11   -1    0    0    0    0 -0.00000000000E+00 -0.00000000000E+00 -0.45593999997E+02  0.45594000000E+02  0.51100000000E-03 0.  1.
    9900012    2    1    2    0    0  0.92369805318E+00 -0.15786585772E+00  0.71755140615E+00  0.90007737426E+02  0.89999998760E+02 0.  0.
        -12    1    1    2    0    0 -0.92369805318E+00  0.15786585772E+00 -0.71755140615E+00  0.11802625737E+01  0.00000000000E+00 0.  1.
         11    1    3    3    0    0  0.10999360809E+02 -0.33708368776E+02  0.15788723973E+02  0.38813964867E+02  0.51100000000E-03 0. -1.
        -11    1    3    3    0    0 -0.75470021175E+01 -0.55339971319E+01 -0.39086584443E+00  0.93667038806E+01  0.51100000000E-03 0.  1.
        -12    1    3    3    0    0 -0.25286606383E+01  0.39084500050E+02 -0.14680306723E+02  0.41827068679E+02  0.00000000000E+00 0.  1.
</event>
<event>
 7    1  0.2879200E-015  0.9000781E+02  0.7816164E-02  0.1186339E+00
        -11   -1    0    0    0    0  0.00000000000E+00  0.00000000000E+00  0.45593999997E+02  0.45594000000E+02  0.51100000000E-03 0. -1.
         11   -1    0    0    0    0 -0.00000000000E+00 -0.00000000000E+00 -0.45593999997E+02  0.45594000000E+02  0.51100000000E-03 0.  1.
    9900012    2    1    2    0    0 -0.25582153923E-01 -0.71779426183E+00  0.93645888949E+00  0.90007814294E+02  0.90000076643E+02 0.  0.
        -12    1    1    2    0    0  0.25582153923E-01  0.71779426183E+00 -0.93645888949E+00  0.11801857060E+01  0.00000000000E+00 0.  1.
         11    1    3    3    0    0  0.20919330059E+02 -0.13957793221E+02  0.21482315464E+02  0.33074586009E+02  0.51100000000E-03 0. -1.
        -11    1    3    3    0    0  0.75083165453E+01  0.13622076113E+02  0.72443049201E+01  0.17158546821E+02  0.51100000000E-03 0.  1.
         12    1    3    3    0    0 -0.28453228758E+02 -0.38207715388E+00 -0.27790161495E+02  0.39774681464E+02  0.00000000000E+00 0. -1.
</event>
<event>
 7    1  0.2879200E-015  0.9000778E+02  0.7816164E-02  0.1186339E+00
        -11   -1    0    0    0    0  0.00000000000E+00  0.00000000000E+00  0.45593999997E+02  0.45594000000E+02  0.51100000000E-03 0. -1.
         11   -1    0    0    0    0 -0.00000000000E+00 -0.00000000000E+00 -0.45593999997E+02  0.45594000000E+02  0.51100000000E-03 0.  1.
    9900012    2    1    2    0    0  0.96877232338E+00  0.42810790520E+00  0.52068358332E+00  0.90007784940E+02  0.90000046902E+02 0.  0.
        -12    1    1    2    0    0 -0.96877232338E+00 -0.42810790520E+00 -0.52068358332E+00  0.11802150596E+01  0.00000000000E+00 0.  1.
         11    1    3    3    0    0 -0.13621121521E+02  0.31994396720E+01  0.39140299168E+02  0.41566024407E+02  0.51100000000E-03 0. -1.
        -11    1    3    3    0    0  0.63025059281E+01 -0.64899983289E+01 -0.29079784548E+00  0.90513105642E+01  0.51100000000E-03 0.  1.
        -12    1    3    3    0    0  0.82873879166E+01  0.37186665621E+01 -0.38328817740E+02  0.39390449970E+02  0.00000000000E+00 0.  1.
</event>
<event>
 7    1  0.2879200E-015  0.9000776E+02  0.7816164E-02  0.1186339E+00
        -11   -1    0    0    0    0  0.00000000000E+00  0.00000000000E+00  0.45593999997E+02  0.45594000000E+02  0.51100000000E-03 0. -1.
         11   -1    0    0    0    0 -0.00000000000E+00 -0.00000000000E+00 -0.45593999997E+02  0.45594000000E+02  0.51100000000E-03 0.  1.
    9900012    2    1    2    0    0 -0.20677802971E+00  0.52669564993E+00  0.10357573044E+01  0.90007763306E+02  0.90000024981E+02 0.  0.
        -12    1    1    2    0    0  0.20677802971E+00 -0.52669564993E+00 -0.10357573044E+01  0.11802366945E+01  0.00000000000E+00 0.  1.
         11    1    3    3    0    0  0.31503104312E+02  0.15169084161E+02 -0.14203086296E+02  0.37739559565E+02  0.51100000000E-03 0. -1.
        -11    1    3    3    0    0  0.27579142649E+01  0.79536922121E+01  0.50369318033E+01  0.98100964903E+01  0.51100000000E-03 0.  1.
        -12    1    3    3    0    0 -0.34467796606E+02 -0.22596080723E+02  0.10201911797E+02  0.42458107250E+02  0.00000000000E+00 0.  1.
</event>
<event>
 7    1  0.2879200E-015  0.9000773E+02  0.7816164E-02  0.1186339E+00
        -11   -1    0    0    0    0  0.00000000000E+00  0.00000000000E+00  0.45593999997E+02  0.45594000000E+02  0.51100000000E-03 0. -1.
         11   -1    0    0    0    0 -0.00000000000E+00 -0.00000000000E+00 -0.45593999997E+02  0.45594000000E+02  0.51100000000E-03 0.  1.
    9900012    2    1    2    0    0 -0.93921164941E-01 -0.23422185657E+00  0.11529820028E+01  0.90007725218E+02  0.89999986390E+02 0.  0.
        -12    1    1    2    0    0  0.93921164941E-01  0.23422185657E+00 -0.11529820028E+01  0.11802747825E+01  0.00000000000E+00 0.  1.
         11    1    3    3    0    0  0.30622986478E+02 -0.11001571471E+02  0.14708562598E+02  0.35709154144E+02  0.51100000000E-03 0. -1.
        -11    1    3    3    0    0  0.47602116927E+01 -0.81009445627E+01  0.42929988616E+01  0.10330283522E+02  0.51100000000E-03 0.  1.
        -12    1    3    3    0    0 -0.35477119336E+02  0.18868294178E+02 -0.17848579457E+02  0.43968287551E+02  0.00000000000E+00 0.  1.
</event>
<event>
 7    1  0.2879200E-015  0.9000765E+02  0.7816164E-02  0.1186339E+00
        -11   -1    0    0    0    0  0.00000000000E+00  0.00000000000E+00  0.45593999997E+02  0.45594000000E+02  0.51100000000E-03 0.  1.
         11   -1    0    0    0    0 -0.00000000000E+00 -0.00000000000E+00 -0.45593999997E+02  0.45594000000E+02  0.51100000000E-03 0. -1.
    9900012    2    1    2    0    0 -0.11271251444E+01 -0.10539511564E+00 -0.33422462392E+00  0.90007650340E+02  0.89999910524E+02 0.  0.
        -12    1    1    2    0    0  0.11271251444E+01  0.10539511564E+00  0.33422462392E+00  0.11803496604E+01  0.00000000000E+00 0.  1.
         11    1    3    3    0    0  0.42703208156E+01 -0.49082172545E+01  0.71217385560E+01  0.96460041886E+01  0.51100000000E-03 0. -1.
        -11    1    3    3    0    0 -0.28708961608E+02  0.79938748715E+01  0.25940072595E+02  0.39509415063E+02  0.51100000000E-03 0.  1.
         12    1    3    3    0    0  0.23311515648E+02 -0.31910527327E+01 -0.33396035775E+02  0.40852231088E+02  0.00000000000E+00 0. -1.
</event>
<event>
 7    1  0.2879200E-015  0.9000762E+02  0.7816164E-02  0.1186339E+00
        -11   -1    0    0    0    0  0.00000000000E+00  0.00000000000E+00  0.45593999997E+02  0.45594000000E+02  0.51100000000E-03 0.  1.
         11   -1    0    0    0    0 -0.00000000000E+00 -0.00000000000E+00 -0.45593999997E+02  0.45594000000E+02  0.51100000000E-03 0. -1.
    9900012    2    1    2    0    0  0.72491463854E+00  0.92257620178E+00 -0.12898671440E+00  0.90007624783E+02  0.89999884630E+02 0.  0.
        -12    1    1    2    0    0 -0.72491463854E+00 -0.92257620178E+00  0.12898671440E+00  0.11803752174E+01  0.00000000000E+00 0.  1.
         11    1    3    3    0    0  0.20872168871E+02  0.30331129968E+02  0.68865122902E+01  0.37457294754E+02  0.51100000000E-03 0. -1.
        -11    1    3    3    0    0  0.34002996264E+01  0.32098606892E+01  0.82813638111E+01  0.95103222882E+01  0.51100000000E-03 0.  1.
        -12    1    3    3    0    0 -0.23547553859E+02 -0.32618414455E+02 -0.15296862816E+02  0.43040007741E+02  0.00000000000E+00 0.  1.
</event>
<event>
 7    1  0.2879200E-015  0.9000765E+02  0.7816164E-02  0.1186339E+00
        -11   -1    0    0    0    0  0.00000000000E+00  0.00000000000E+00  0.45593999997E+02  0.45594000000E+02  0.51100000000E-03 0. -1.
         11   -1    0    0    0    0 -0.00000000000E+00 -0.00000000000E+00 -0.45593999997E+02  0.45594000000E+02  0.51100000000E-03 0.  1.
    9900012    2    1    2    0    0 -0.69213859089E+00  0.31616614383E+00  0.90233139989E+00  0.90007653096E+02  0.89999913316E+02 0.  0.
        -12    1    1    2    0    0  0.69213859089E+00 -0.31616614383E+00 -0.90233139989E+00  0.11803469044E+01  0.00000000000E+00 0.  1.
         11    1    3    3    0    0  0.91481680139E+00 -0.90697680295E+01 -0.29811566469E+01  0.95908746787E+01  0.51100000000E-03 0. -1.
        -11    1    3    3    0    0  0.22977000912E+02 -0.21126106333E+02 -0.17493785483E+02  0.35781104937E+02  0.51100000000E-03 0.  1.
         12    1    3    3    0    0 -0.24583956304E+02  0.30512040506E+02  0.21377273530E+02  0.44635673480E+02  0.00000000000E+00 0. -1.
</event>
<event>
 7    1  0.2879200E-015  0.9000776E+02  0.7816164E-02  0.1186339E+00
        -11   -1    0    0    0    0  0.00000000000E+00  0.00000000000E+00  0.45593999997E+02  0.45594000000E+02  0.51100000000E-03 0.  1.
         11   -1    0    0    0    0 -0.00000000000E+00 -0.00000000000E+00 -0.45593999997E+02  0.45594000000E+02  0.51100000000E-03 0. -1.
    9900012    2    1    2    0    0 -0.58495895026E+00 -0.74764947621E+00 -0.70128547023E+00  0.90007763573E+02  0.90000025252E+02 0.  0.
        -12    1    1    2    0    0  0.58495895026E+00  0.74764947621E+00  0.70128547023E+00  0.11802364270E+01  0.00000000000E+00 0.  1.
         11    1    3    3    0    0 -0.29626966214E+02  0.25172089958E+02 -0.21295882666E+01  0.38934899336E+02  0.51100000000E-03 0. -1.
        -11    1    3    3    0    0 -0.47382489339E+00  0.12169105514E+01 -0.94411131008E+01  0.95310019496E+01  0.51100000000E-03 0.  1.
        -12    1    3    3    0    0  0.29515832157E+02 -0.27136649985E+02  0.10869415897E+02  0.41541862287E+02  0.00000000000E+00 0.  1.
</event>
<event>
 7    1  0.2879200E-015  0.9000773E+02  0.7816164E-02  0.1186339E+00
        -11   -1    0    0    0    0  0.00000000000E+00  0.00000000000E+00  0.45593999997E+02  0.45594000000E+02  0.51100000000E-03 0.  1.
         11   -1    0    0    0    0 -0.00000000000E+00 -0.00000000000E+00 -0.45593999997E+02  0.45594000000E+02  0.51100000000E-03 0. -1.
    9900012    2    1    2    0    0  0.65634479232E+00 -0.55775964076E+00 -0.80693462474E+00  0.90007734016E+02  0.89999995305E+02 0.  0.
        -12    1    1    2    0    0 -0.65634479232E+00  0.55775964076E+00  0.80693462474E+00  0.11802659835E+01  0.00000000000E+00 0.  1.
         11    1    3    3    0    0 -0.27421495479E+02 -0.24779121385E+02 -0.90939056818E+01  0.38061035085E+02  0.51100000000E-03 0. -1.
        -11    1    3    3    0    0 -0.10288634387E+01 -0.57468031368E+01  0.83273377361E+01  0.10169998048E+02  0.51100000000E-03 0.  1.
        -12    1    3    3    0    0  0.29106703710E+02  0.29968164881E+02 -0.40366679048E-01  0.41776700883E+02  0.00000000000E+00 0.  1.
</event>
<event>
 7    1  0.2879200E-015  0.9000775E+02  0.7816164E-02  0.1186339E+00
        -11   -1    0    0    0    0  0.00000000000E+00  0.00000000000E+00  0.45593999997E+02  0.45594000000E+02  0.51100000000E-03 0. -1.
         11   -1    0    0    0    0 -0.00000000000E+00 -0.00000000000E+00 -0.45593999997E+02  0.45594000000E+02  0.51100000000E-03 0.  1.
    9900012    2    1    2    0    0 -0.11794080350E+01  0.29507502200E-02 -0.44367023559E-01  0.90007754071E+02  0.90000015625E+02 0.  0.
        -12    1    1    2    0    0  0.11794080350E+01 -0.29507502200E-02  0.44367023559E-01  0.11802459289E+01  0.00000000000E+00 0.  1.
         11    1    3    3    0    0  0.44964432395E+00 -0.84484052204E+01  0.17296790041E+01  0.86353645264E+01  0.51100000000E-03 0. -1.
        -11    1    3    3    0    0 -0.21086927164E+02 -0.30877479560E+02 -0.26499127703E+01  0.37484653915E+02  0.51100000000E-03 0.  1.
         12    1    3    3    0    0  0.19457874805E+02  0.39328835531E+02  0.87586674257E+00  0.43887735629E+02  0.00000000000E+00 0. -1.
</event>
<event>
 7    1  0.2879200E-015  0.9000781E+02  0.7816164E-02  0.1186339E+00
        -11   -1    0    0    0    0  0.00000000000E+00  0.00000000000E+00  0.45593999997E+02  0.45594000000E+02  0.51100000000E-03 0.  1.
         11   -1    0    0    0    0 -0.00000000000E+00 -0.00000000000E+00 -0.45593999997E+02  0.45594000000E+02  0.51100000000E-03 0. -1.
    9900012    2    1    2    0    0 -0.18979750454E+00 -0.49241493096E-01 -0.11637900355E+01  0.90007807192E+02  0.90000069447E+02 0.  0.
        -12    1    1    2    0    0  0.18979750454E+00  0.49241493096E-01  0.11637900355E+01  0.11801928080E+01  0.00000000000E+00 0.  1.
         11    1    3    3    0    0  0.25470631374E+02  0.42770158930E+01 -0.33695953795E+01  0.26046114889E+02  0.51100000000E-03 0. -1.
        -11    1    3    3    0    0  0.12277802460E+02  0.16063615573E+02 -0.34864373489E+01  0.20516808333E+02  0.51100000000E-03 0.  1.
        -12    1    3    3    0    0 -0.37938231338E+02 -0.20389872959E+02  0.56922426929E+01  0.43444883970E+02  0.00000000000E+00 0.  1.
</event>
<event>
 7    1  0.2879200E-015  0.9000773E+02  0.7816164E-02  0.1186339E+00
        -11   -1    0    0    0    0  0.00000000000E+00  0.00000000000E+00  0.45593999997E+02  0.45594000000E+02  0.51100000000E-03 0. -1.
         11   -1    0    0    0    0 -0.00000000000E+00 -0.00000000000E+00 -0.45593999997E+02  0.45594000000E+02  0.51100000000E-03 0.  1.
    9900012    2    1    2    0    0  0.31323979536E+00 -0.87711505082E+00  0.72497998479E+00  0.90007726320E+02  0.89999987507E+02 0.  0.
        -12    1    1    2    0    0 -0.31323979536E+00  0.87711505082E+00 -0.72497998479E+00  0.11802736802E+01  0.00000000000E+00 0.  1.
         11    1    3    3    0    0 -0.11448470088E+02 -0.22934665669E+02  0.37016690262E+02  0.45025567347E+02  0.51100000000E-03 0. -1.
        -11    1    3    3    0    0 -0.10835356639E+01  0.54120849841E+01 -0.66830078949E+01  0.86676010634E+01  0.51100000000E-03 0.  1.
        -12    1    3    3    0    0  0.12845245547E+02  0.16645465634E+02 -0.29608702383E+02  0.36314557909E+02  0.00000000000E+00 0.  1.
</event>
<event>
 7    1  0.2879200E-015  0.9000795E+02  0.7816164E-02  0.1186339E+00
        -11   -1    0    0    0    0  0.00000000000E+00  0.00000000000E+00  0.45593999997E+02  0.45594000000E+02  0.51100000000E-03 0.  1.
         11   -1    0    0    0    0 -0.00000000000E+00 -0.00000000000E+00 -0.45593999997E+02  0.45594000000E+02  0.51100000000E-03 0. -1.
    9900012    2    1    2    0    0 -0.68985320858E+00  0.34893311551E+00 -0.89155738376E+00  0.90007946469E+02  0.90000210562E+02 0.  0.
        -12    1    1    2    0    0  0.68985320858E+00 -0.34893311550E+00  0.89155738376E+00  0.11800535314E+01  0.00000000000E+00 0.  1.
         11    1    3    3    0    0 -0.80995119902E+01 -0.16488501889E+01 -0.63118611139E+01  0.10400018866E+02  0.51100000000E-03 0. -1.
        -11    1    3    3    0    0 -0.16867527567E+02  0.20699485525E+02  0.30117275235E+02  0.40249626770E+02  0.51100000000E-03 0.  1.
         12    1    3    3    0    0  0.24277186349E+02 -0.18701702221E+02 -0.24696971505E+02  0.39358300833E+02  0.00000000000E+00 0. -1.
</event>
<event>
 7    1  0.2879200E-015  0.9000773E+02  0.7816164E-02  0.1186339E+00
        -11   -1    0    0    0    0  0.00000000000E+00  0.00000000000E+00  0.45593999997E+02  0.45594000000E+02  0.51100000000E-03 0.  1.
         11   -1    0    0    0    0 -0.00000000000E+00 -0.00000000000E+00 -0.45593999997E+02  0.45594000000E+02  0.51100000000E-03 0. -1.
    9900012    2    1    2    0    0  0.27170829483E+00 -0.64976835414E+00 -0.94711115160E+00  0.90007727216E+02  0.89999988415E+02 0.  0.
        -12    1    1    2    0    0 -0.27170829483E+00  0.64976835414E+00  0.94711115160E+00  0.11802727842E+01  0.00000000000E+00 0.  1.
         11    1    3    3    0    0 -0.72016417590E+01  0.10445460960E+01  0.68298587295E+01  0.99800646841E+01  0.51100000000E-03 0. -1.
        -11    1    3    3    0    0 -0.31219323556E+02  0.14198367917E+02 -0.15253304631E+02  0.37535358227E+02  0.51100000000E-03 0.  1.
         12    1    3    3    0    0  0.38692673610E+02 -0.15892682367E+02  0.74763347494E+01  0.42492304305E+02  0.00000000000E+00 0. -1.
</event>
<event>
 7    1  0.2879200E-015  0.9000770E+02  0.7816164E-02  0.1186339E+00
        -11   -1    0    0    0    0  0.00000000000E+00  0.00000000000E+00  0.45593999997E+02  0.45594000000E+02  0.51100000000E-03 0. -1.
         11   -1    0    0    0    0 -0.00000000000E+00 -0.00000000000E+00 -0.45593999997E+02  0.45594000000E+02  0.51100000000E-03 0.  1.
    9900012    2    1    2    0    0 -0.68969762662E+00  0.84970602201E+00  0.44207230098E+00  0.90007698742E+02  0.89999959566E+02 0.  0.
        -12    1    1    2    0    0  0.68969762662E+00 -0.84970602201E+00 -0.44207230098E+00  0.11803012579E+01  0.00000000000E+00 0.  1.
         11    1    3    3    0    0 -0.23996862958E+02 -0.24417033415E+02  0.45577656441E+01  0.34537142044E+02  0.51100000000E-03 0. -1.
        -11    1    3    3    0    0 -0.81336621024E+00 -0.73265303945E+01  0.10099173808E+02  0.12503316523E+02  0.51100000000E-03 0.  1.
        -12    1    3    3    0    0  0.24120531542E+02  0.32593269831E+02 -0.14214867151E+02  0.42967240175E+02  0.00000000000E+00 0.  1.
</event>
<event>
 7    1  0.2879200E-015  0.9000769E+02  0.7816164E-02  0.1186339E+00
        -11   -1    0    0    0    0  0.00000000000E+00  0.00000000000E+00  0.45593999997E+02  0.45594000000E+02  0.51100000000E-03 0. -1.
         11   -1    0    0    0    0 -0.00000000000E+00 -0.00000000000E+00 -0.45593999997E+02  0.45594000000E+02  0.51100000000E-03 0.  1.
    9900012    2    1    2    0    0 -0.75007672393E+00  0.89109532237E+00  0.19094666700E+00  0.90007692161E+02  0.89999952897E+02 0.  0.
        -12    1    1    2    0    0  0.75007672393E+00 -0.89109532237E+00 -0.19094666700E+00  0.11803078391E+01  0.00000000000E+00 0.  1.
         11    1    3    3    0    0  0.66740567935E+01  0.77797750325E+01 -0.14921047753E+01  0.10358296702E+02  0.51100000000E-03 0. -1.
        -11    1    3    3    0    0 -0.20028562747E+02 -0.97807415500E+01 -0.34584744612E+02  0.41144997158E+02  0.51100000000E-03 0.  1.
         12    1    3    3    0    0  0.12604429230E+02  0.28920618398E+01  0.36267796054E+02  0.38504398301E+02  0.00000000000E+00 0. -1.
</event>
<event>
 7    1  0.2879200E-015  0.9000862E+02  0.7816164E-02  0.1186337E+00
        -11   -1    0    0    0    0  0.00000000000E+00  0.00000000000E+00  0.45593999997E+02  0.45594000000E+02  0.51100000000E-03 0. -1.
         11   -1    0    0    0    0 -0.00000000000E+00 -0.00000000000E+00 -0.45593999997E+02  0.45594000000E+02  0.51100000000E-03 0.  1.
    9900012    2    1    2    0    0  0.10824347651E+01 -0.35897561593E+00 -0.30066359561E+00  0.90008624271E+02  0.90000897306E+02 0.  0.
        -12    1    1    2    0    0 -0.10824347651E+01  0.35897561593E+00  0.30066359561E+00  0.11793757295E+01  0.00000000000E+00 0.  1.
         11    1    3    3    0    0  0.19765477434E+01  0.90179752283E+01 -0.12159351427E+01  0.93117730176E+01  0.51100000000E-03 0. -1.
        -11    1    3    3    0    0  0.31851021094E+02 -0.13306005060E+01 -0.23041142265E+02  0.39333856658E+02  0.51100000000E-03 0.  1.
         12    1    3    3    0    0 -0.32745134072E+02 -0.80463503382E+01  0.23956413812E+02  0.41362994595E+02  0.00000000000E+00 0. -1.
</event>
<event>
 7    1  0.2879200E-015  0.9000779E+02  0.7816164E-02  0.1186339E+00
        -11   -1    0    0    0    0  0.00000000000E+00  0.00000000000E+00  0.45593999997E+02  0.45594000000E+02  0.51100000000E-03 0. -1.
         11   -1    0    0    0    0 -0.00000000000E+00 -0.00000000000E+00 -0.45593999997E+02  0.45594000000E+02  0.51100000000E-03 0.  1.
    9900012    2    1    2    0    0 -0.22900117795E+00  0.11569935319E+01  0.42776923588E-01  0.90007785851E+02  0.90000047824E+02 0.  0.
        -12    1    1    2    0    0  0.22900117795E+00 -0.11569935319E+01 -0.42776923588E-01  0.11802141490E+01  0.00000000000E+00 0.  1.
         11    1    3    3    0    0  0.31636938912E+02  0.16060293525E+01  0.22918044219E+02  0.39098746592E+02  0.51100000000E-03 0. -1.
        -11    1    3    3    0    0 -0.40388001936E+01  0.51002613905E+01  0.71025490452E+01  0.96317587416E+01  0.51100000000E-03 0.  1.
        -12    1    3    3    0    0 -0.27827139897E+02 -0.55492972111E+01 -0.29977816340E+02  0.41277280517E+02  0.00000000000E+00 0.  1.
</event>
<event>
 7    1  0.2879200E-015  0.9000779E+02  0.7816164E-02  0.1186339E+00
        -11   -1    0    0    0    0  0.00000000000E+00  0.00000000000E+00  0.45593999997E+02  0.45594000000E+02  0.51100000000E-03 0.  1.
         11   -1    0    0    0    0 -0.00000000000E+00 -0.00000000000E+00 -0.45593999997E+02  0.45594000000E+02  0.51100000000E-03 0. -1.
    9900012    2    1    2    0    0  0.92195213871E-01  0.12543938284E+00 -0.11698953337E+01  0.90007792354E+02  0.90000054413E+02 0.  0.
        -12    1    1    2    0    0 -0.92195213871E-01 -0.12543938284E+00  0.11698953337E+01  0.11802076461E+01  0.00000000000E+00 0.  1.
         11    1    3    3    0    0  0.61836619921E+01  0.48395890757E+01  0.66439308507E+01  0.10285966919E+02  0.51100000000E-03 0. -1.
        -11    1    3    3    0    0 -0.78395447861E+01 -0.60212789234E+01  0.35246394084E+02  0.36606318560E+02  0.51100000000E-03 0.  1.
         12    1    3    3    0    0  0.17480780079E+01  0.13071292305E+01 -0.43060220268E+02  0.43115506875E+02  0.00000000000E+00 0. -1.
</event>
<event>
 7    1  0.2879200E-015  0.9000767E+02  0.7816164E-02  0.1186339E+00
        -11   -1    0    0    0    0  0.00000000000E+00  0.00000000000E+00  0.45593999997E+02  0.45594000000E+02  0.51100000000E-03 0. -1.
         11   -1    0    0    0    0 -0.00000000000E+00 -0.00000000000E+00 -0.45593999997E+02  0.45594000000E+02  0.51100000000E-03 0.  1.
    9900012    2    1    2    0    0 -0.85339985722E+00 -0.80366884584E+00 -0.13783648827E+00  0.90007672153E+02  0.89999932625E+02 0.  0.
        -12    1    1    2    0    0  0.85339985722E+00  0.80366884584E+00  0.13783648827E+00  0.11803278475E+01  0.00000000000E+00 0.  1.
         11    1    3    3    0    0 -0.85137339084E+01  0.33952188341E+02  0.17659004559E+02  0.39205550634E+02  0.51100000000E-03 0. -1.
        -11    1    3    3    0    0 -0.58322251977E+01 -0.47092980329E+01  0.64609810695E+01  0.98962930111E+01  0.51100000000E-03 0.  1.
        -12    1    3    3    0    0  0.13492559249E+02 -0.30046559154E+02 -0.24257822117E+02  0.40905828508E+02  0.00000000000E+00 0.  1.
</event>
<event>
 7    1  0.2879200E-015  0.9000764E+02  0.7816164E-02  0.1186339E+00
        -11   -1    0    0    0    0  0.00000000000E+00  0.00000000000E+00  0.45593999997E+02  0.45594000000E+02  0.51100000000E-03 0.  1.
         11   -1    0    0    0    0 -0.00000000000E+00 -0.00000000000E+00 -0.45593999997E+02  0.45594000000E+02  0.51100000000E-03 0. -1.
    9900012    2    1    2    0    0 -0.85221079548E+00  0.63577240136E+00 -0.51261190945E+00  0.90007643801E+02  0.89999903899E+02 0.  0.
        -12    1    1    2    0    0  0.85221079548E+00 -0.63577240136E+00  0.51261190945E+00  0.11803561988E+01  0.00000000000E+00 0.  1.
         11    1    3    3    0    0  0.25196303805E+02  0.87451250923E+01 -0.24048990013E+02  0.35912182602E+02  0.51100000000E-03 0. -1.
        -11    1    3    3    0    0  0.86879345384E+00 -0.59996318453E+01 -0.95987844895E+01  0.11352843181E+02  0.51100000000E-03 0.  1.
        -12    1    3    3    0    0 -0.26917308055E+02 -0.21097208457E+01  0.33135162594E+02  0.42742618018E+02  0.00000000000E+00 0.  1.
</event>
<event>
 7    1  0.2879200E-015  0.9000773E+02  0.7816164E-02  0.1186339E+00
        -11   -1    0    0    0    0  0.00000000000E+00  0.00000000000E+00  0.45593999997E+02  0.45594000000E+02  0.51100000000E-03 0.  1.
         11   -1    0    0    0    0 -0.00000000000E+00 -0.00000000000E+00 -0.45593999997E+02  0.45594000000E+02  0.51100000000E-03 0. -1.
    9900012    2    1    2    0    0  0.29472247918E+00 -0.11115996235E+01  0.26557252477E+00  0.90007727223E+02  0.89999988422E+02 0.  0.
        -12    1    1    2    0    0 -0.29472247918E+00  0.11115996235E+01 -0.26557252477E+00  0.11802727772E+01  0.00000000000E+00 0.  1.
         11    1    3    3    0    0 -0.26357682338E+01  0.34610655572E+01  0.83024203935E+01  0.93731762826E+01  0.51100000000E-03 0. -1.
        -11    1    3    3    0    0 -0.24423151938E+02  0.22904531644E+02  0.13709556476E+02  0.36180932263E+02  0.51100000000E-03 0.  1.
         12    1    3    3    0    0  0.27353642650E+02 -0.27477196824E+02 -0.21746404345E+02  0.44453618677E+02  0.00000000000E+00 0. -1.
</event>
<event>
 7    1  0.2879200E-015  0.9000770E+02  0.7816164E-02  0.1186339E+00
        -11   -1    0    0    0    0  0.00000000000E+00  0.00000000000E+00  0.45593999997E+02  0.45594000000E+02  0.51100000000E-03 0. -1.
         11   -1    0    0    0    0 -0.00000000000E+00 -0.00000000000E+00 -0.45593999997E+02  0.45594000000E+02  0.51100000000E-03 0.  1.
    9900012    2    1    2    0    0 -0.11581772356E+01  0.22683361493E+00  0.16569424904E-01  0.90007702349E+02  0.89999963220E+02 0.  0.
        -12    1    1    2    0    0  0.11581772356E+01 -0.22683361493E+00 -0.16569424904E-01  0.11802976505E+01  0.00000000000E+00 0.  1.
         11    1    3    3    0    0  0.32973151887E+01  0.85553961996E+01 -0.57136049791E+01  0.10803350115E+02  0.51100000000E-03 0. -1.
        -11    1    3    3    0    0 -0.35447963658E+02  0.14256155503E+02  0.12628869384E+02  0.40240333490E+02  0.51100000000E-03 0.  1.
         12    1    3    3    0    0  0.30992471234E+02 -0.22584718087E+02 -0.68986949804E+01  0.38964018744E+02  0.00000000000E+00 0. -1.
</event>
<event>
 7    1  0.2879200E-015  0.9000718E+02  0.7816164E-02  0.1186340E+00
        -11   -1    0    0    0    0  0.00000000000E+00  0.00000000000E+00  0.45593999997E+02  0.45594000000E+02  0.51100000000E-03 0.  1.
         11   -1    0    0    0    0 -0.00000000000E+00 -0.00000000000E+00 -0.45593999997E+02  0.45594000000E+02  0.51100000000E-03 0. -1.
    9900012    2    1    2    0    0 -0.78742834578E+00  0.42690092168E+00 -0.76944392660E+00  0.90007181744E+02  0.89999435742E+02 0.  0.
        -12    1    1    2    0    0  0.78742834578E+00 -0.42690092168E+00  0.76944392660E+00  0.11808182556E+01  0.00000000000E+00 0.  1.
         11    1    3    3    0    0 -0.40669002494E+01 -0.28688271317E+01  0.93602515487E+01  0.10601139376E+02  0.51100000000E-03 0. -1.
        -11    1    3    3    0    0 -0.22669219412E+02  0.32322281451E+02 -0.88044575411E+01  0.40449250423E+02  0.51100000000E-03 0.  1.
         12    1    3    3    0    0  0.25948691316E+02 -0.29026553397E+02 -0.13252379342E+01  0.38956791946E+02  0.00000000000E+00 0. -1.
</event>
<event>
 7    1  0.2879200E-015  0.9000777E+02  0.7816164E-02  0.1186339E+00
        -11   -1    0    0    0    0  0.00000000000E+00  0.00000000000E+00  0.45593999997E+02  0.45594000000E+02  0.51100000000E-03 0.  1.
         11   -1    0    0    0    0 -0.00000000000E+00 -0.00000000000E+00 -0.45593999997E+02  0.45594000000E+02  0.51100000000E-03 0. -1.
    9900012    2    1    2    0    0 -0.30762173435E+00  0.78913095927E-01 -0.11367028879E+01  0.90007766183E+02  0.90000027896E+02 0.  0.
        -12    1    1    2    0    0  0.30762173435E+00 -0.78913095927E-01  0.11367028879E+01  0.11802338173E+01  0.00000000000E+00 0.  1.
         11    1    3    3    0    0  0.73000255106E+01  0.71120612946E+00 -0.35466804634E+01  0.81470932967E+01  0.51100000000E-03 0. -1.
        -11    1    3    3    0    0  0.18220546374E+02  0.41974539934E+00  0.35479553848E+02  0.39886880523E+02  0.51100000000E-03 0.  1.
         12    1    3    3    0    0 -0.25828193619E+02 -0.10520384329E+01 -0.33069576272E+02  0.41973792363E+02  0.00000000000E+00 0. -1.
</event>
<event>
 7    1  0.2879200E-015  0.9000795E+02  0.7816164E-02  0.1186339E+00
        -11   -1    0    0    0    0  0.00000000000E+00  0.00000000000E+00  0.45593999997E+02  0.45594000000E+02  0.51100000000E-03 0.  1.
         11   -1    0    0    0    0 -0.00000000000E+00 -0.00000000000E+00 -0.45593999997E+02  0.45594000000E+02  0.51100000000E-03 0. -1.
    9900012    2    1    2    0    0 -0.25093657264E+00 -0.11365997743E+01 -0.19411943782E+00  0.90007953151E+02  0.90000217332E+02 0.  0.
        -12    1    1    2    0    0  0.25093657264E+00  0.11365997743E+01  0.19411943782E+00  0.11800468493E+01  0.00000000000E+00 0.  1.
         11    1    3    3    0    0 -0.49484039411E+01  0.24552863132E+01 -0.20217515984E+01  0.58823985100E+01  0.51100000000E-03 0. -1.
        -11    1    3    3    0    0 -0.32101044775E+02 -0.25332584001E+02  0.53428088686E+01  0.41240301826E+02  0.51100000000E-03 0.  1.
         12    1    3    3    0    0  0.36798512143E+02  0.21740697914E+02 -0.35151767080E+01  0.42885252815E+02  0.00000000000E+00 0. -1.
</event>
<event>
 7    1  0.2879200E-015  0.9000775E+02  0.7816164E-02  0.1186339E+00
        -11   -1    0    0    0    0  0.00000000000E+00  0.00000000000E+00  0.45593999997E+02  0.45594000000E+02  0.51100000000E-03 0.  1.
         11   -1    0    0    0    0 -0.00000000000E+00 -0.00000000000E+00 -0.45593999997E+02  0.45594000000E+02  0.51100000000E-03 0. -1.
    9900012    2    1    2    0    0  0.74711558076E+00  0.72673852840E+00 -0.55377486847E+00  0.90007746983E+02  0.90000008443E+02 0.  0.
        -12    1    1    2    0    0 -0.74711558076E+00 -0.72673852840E+00  0.55377486847E+00  0.11802530172E+01  0.00000000000E+00 0.  1.
         11    1    3    3    0    0 -0.28079525839E+02 -0.65807237079E+01 -0.21389106276E+02  0.35906260783E+02  0.51100000000E-03 0. -1.
        -11    1    3    3    0    0 -0.70915988139E+01  0.47887709338E+01 -0.48840359212E+01  0.98527614370E+01  0.51100000000E-03 0.  1.
        -12    1    3    3    0    0  0.35918240233E+02  0.25186913025E+01  0.25719367329E+02  0.44248724763E+02  0.00000000000E+00 0.  1.
</event>
<event>
 7    1  0.2879200E-015  0.9000763E+02  0.7816164E-02  0.1186339E+00
        -11   -1    0    0    0    0  0.00000000000E+00  0.00000000000E+00  0.45593999997E+02  0.45594000000E+02  0.51100000000E-03 0.  1.
         11   -1    0    0    0    0 -0.00000000000E+00 -0.00000000000E+00 -0.45593999997E+02  0.45594000000E+02  0.51100000000E-03 0. -1.
    9900012    2    1    2    0    0  0.79492559356E+00 -0.12462674863E-01 -0.87248058088E+00  0.90007625322E+02  0.89999885176E+02 0.  0.
        -12    1    1    2    0    0 -0.79492559356E+00  0.12462674863E-01  0.87248058088E+00  0.11803746785E+01  0.00000000000E+00 0.  1.
         11    1    3    3    0    0  0.84619479718E+01  0.17239845209E+01  0.77931575387E+01  0.11632282269E+02  0.51100000000E-03 0. -1.
        -11    1    3    3    0    0  0.17554107827E+02  0.30096375140E+02  0.56827853353E+01  0.35302019030E+02  0.51100000000E-03 0.  1.
         12    1    3    3    0    0 -0.25221130206E+02 -0.31832822335E+02 -0.14348423455E+02  0.43073324022E+02  0.00000000000E+00 0. -1.
</event>
<event>
 7    1  0.2950729E-015  0.9000781E+02  0.7816164E-02  0.1186339E+00
        -11   -1    0    0    0    0  0.00000000000E+00  0.00000000000E+00  0.45593999997E+02  0.45594000000E+02  0.51100000000E-03 0. -1.
         11   -1    0    0    0    0 -0.00000000000E+00 -0.00000000000E+00 -0.45593999997E+02  0.45594000000E+02  0.51100000000E-03 0.  1.
    9900012    2    1    2    0    0 -0.29100887838E+00 -0.68860390226E+00  0.91323350447E+00  0.90007806399E+02  0.90000068644E+02 0.  0.
        -12    1    1    2    0    0  0.29100887838E+00  0.68860390226E+00 -0.91323350447E+00  0.11801936007E+01  0.00000000000E+00 0.  1.
         11    1    3    3    0    0 -0.34793340530E+02  0.15303082750E+01  0.18481054613E+02  0.39426739258E+02  0.51100000000E-03 0. -1.
        -11    1    3    3    0    0 -0.43148882230E+01  0.56928900905E+01 -0.59515878591E+01  0.92977769529E+01  0.51100000000E-03 0.  1.
        -12    1    3    3    0    0  0.38817219874E+02 -0.79118022677E+01 -0.11616233249E+02  0.41283290189E+02  0.00000000000E+00 0.  1.
</event>
<event>
 7    1  0.2879200E-015  0.9000772E+02  0.7816164E-02  0.1186339E+00
        -11   -1    0    0    0    0  0.00000000000E+00  0.00000000000E+00  0.45593999997E+02  0.45594000000E+02  0.51100000000E-03 0.  1.
         11   -1    0    0    0    0 -0.00000000000E+00 -0.00000000000E+00 -0.45593999997E+02  0.45594000000E+02  0.51100000000E-03 0. -1.
    9900012    2    1    2    0    0 -0.74278475716E+00 -0.62806341035E+00  0.66848013018E+00  0.90007720996E+02  0.89999982113E+02 0.  0.
        -12    1    1    2    0    0  0.74278475716E+00  0.62806341035E+00 -0.66848013018E+00  0.11802790040E+01  0.00000000000E+00 0.  1.
         11    1    3    3    0    0 -0.35120578189E+01  0.83747450575E+01 -0.39938341244E+01  0.99207669147E+01  0.51100000000E-03 0. -1.
        -11    1    3    3    0    0  0.19645408050E+02 -0.38837986012E+02 -0.65680467282E+01  0.44016706521E+02  0.51100000000E-03 0.  1.
         12    1    3    3    0    0 -0.16876134988E+02  0.29835177544E+02  0.11230360983E+02  0.36070247560E+02  0.00000000000E+00 0. -1.
</event>
<event>
 7    1  0.2879200E-015  0.9000746E+02  0.7816164E-02  0.1186340E+00
        -11   -1    0    0    0    0  0.00000000000E+00  0.00000000000E+00  0.45593999997E+02  0.45594000000E+02  0.51100000000E-03 0.  1.
         11   -1    0    0    0    0 -0.00000000000E+00 -0.00000000000E+00 -0.45593999997E+02  0.45594000000E+02  0.51100000000E-03 0. -1.
    9900012    2    1    2    0    0 -0.95657737689E+00  0.75150941507E-01 -0.68774074194E+00  0.90007459755E+02  0.89999717423E+02 0.  0.
        -12    1    1    2    0    0  0.95657737689E+00 -0.75150941507E-01  0.68774074194E+00  0.11805402450E+01  0.00000000000E+00 0.  1.
         11    1    3    3    0    0 -0.23861767813E+01 -0.50032655818E+01  0.80233068298E+01  0.97519207779E+01  0.51100000000E-03 0. -1.
        -11    1    3    3    0    0 -0.38891112622E+02 -0.12529827827E+01 -0.27581526473E+01  0.39008922225E+02  0.51100000000E-03 0.  1.
         12    1    3    3    0    0  0.40320712027E+02  0.63313993060E+01 -0.59528949244E+01  0.41246616752E+02  0.00000000000E+00 0. -1.
</event>
<event>
 7    1  0.2879200E-015  0.9000778E+02  0.7816164E-02  0.1186339E+00
        -11   -1    0    0    0    0  0.00000000000E+00  0.00000000000E+00  0.45593999997E+02  0.45594000000E+02  0.51100000000E-03 0.  1.
         11   -1    0    0    0    0 -0.00000000000E+00 -0.00000000000E+00 -0.45593999997E+02  0.45594000000E+02  0.51100000000E-03 0. -1.
    9900012    2    1    2    0    0  0.75094061713E+00 -0.76441815941E+00  0.49465489263E+00  0.90007775277E+02  0.90000037111E+02 0.  0.
        -12    1    1    2    0    0 -0.75094061713E+00  0.76441815941E+00 -0.49465489263E+00  0.11802247225E+01  0.00000000000E+00 0.  1.
         11    1    3    3    0    0  0.35782351245E+01 -0.44142077230E+01  0.67829097557E+01  0.88485513754E+01  0.51100000000E-03 0. -1.
        -11    1    3    3    0    0  0.51617666591E+01  0.15304693718E+02  0.34445466383E+02  0.38044285241E+02  0.51100000000E-03 0.  1.
         12    1    3    3    0    0 -0.79890611664E+01 -0.11654904155E+02 -0.40733721246E+02  0.43114938661E+02  0.00000000000E+00 0. -1.
</event>
<event>
 7    1  0.2879200E-015  0.9000772E+02  0.7816164E-02  0.1186339E+00
        -11   -1    0    0    0    0  0.00000000000E+00  0.00000000000E+00  0.45593999997E+02  0.45594000000E+02  0.51100000000E-03 0.  1.
         11   -1    0    0    0    0 -0.00000000000E+00 -0.00000000000E+00 -0.45593999997E+02  0.45594000000E+02  0.51100000000E-03 0. -1.
    9900012    2    1    2    0    0  0.32876974239E+00 -0.28372021618E+00 -0.10974879828E+01  0.90007717586E+02  0.89999978658E+02 0.  0.
        -12    1    1    2    0    0 -0.32876974239E+00  0.28372021618E+00  0.10974879828E+01  0.11802824141E+01  0.00000000000E+00 0.  1.
         11    1    3    3    0    0 -0.23781891258E+02 -0.30972420073E+02 -0.29194573313E+01  0.39158554472E+02  0.51100000000E-03 0. -1.
        -11    1    3    3    0    0 -0.54909958362E+01  0.17999705468E+01  0.70971885470E+01  0.91521043905E+01  0.51100000000E-03 0.  1.
        -12    1    3    3    0    0  0.29601656836E+02  0.28888729310E+02 -0.52752191984E+01  0.41697058723E+02  0.00000000000E+00 0.  1.
</event>
<event>
 7    1  0.2879200E-015  0.9000790E+02  0.7816164E-02  0.1186339E+00
        -11   -1    0    0    0    0  0.00000000000E+00  0.00000000000E+00  0.45593999997E+02  0.45594000000E+02  0.51100000000E-03 0. -1.
         11   -1    0    0    0    0 -0.00000000000E+00 -0.00000000000E+00 -0.45593999997E+02  0.45594000000E+02  0.51100000000E-03 0.  1.
    9900012    2    1    2    0    0 -0.11478676487E+01  0.25884537912E+00  0.89628883376E-01  0.90007900680E+02  0.90000164168E+02 0.  0.
        -12    1    1    2    0    0  0.11478676487E+01 -0.25884537912E+00 -0.89628883376E-01  0.11800993204E+01  0.00000000000E+00 0.  1.
         11    1    3    3    0    0  0.48002846605E+01 -0.68100763212E+01  0.49946047720E+01  0.97142137825E+01  0.51100000000E-03 0. -1.
        -11    1    3    3    0    0 -0.23319430436E+02 -0.15184621636E+02  0.26247104277E+02  0.38252830657E+02  0.51100000000E-03 0.  1.
         12    1    3    3    0    0  0.17371278127E+02  0.22253543336E+02 -0.31152080166E+02  0.42040856240E+02  0.00000000000E+00 0. -1.
</event>
<event>
 7    1  0.2879200E-015  0.9000773E+02  0.7816164E-02  0.1186339E+00
        -11   -1    0    0    0    0  0.00000000000E+00  0.00000000000E+00  0.45593999997E+02  0.45594000000E+02  0.51100000000E-03 0. -1.
         11   -1    0    0    0    0 -0.00000000000E+00 -0.00000000000E+00 -0.45593999997E+02  0.45594000000E+02  0.51100000000E-03 0.  1.
    9900012    2    1    2    0    0 -0.62177594193E+00 -0.99649697945E+00 -0.11585103128E+00  0.90007731804E+02  0.89999993064E+02 0.  0.
        -12    1    1    2    0    0  0.62177594193E+00  0.99649697945E+00  0.11585103128E+00  0.11802681956E+01  0.00000000000E+00 0.  1.
         11    1    3    3    0    0  0.88742188373E+01 -0.46449399038E+01 -0.65278561749E+01  0.11955757324E+02  0.51100000000E-03 0. -1.
        -11    1    3    3    0    0  0.72947129101E+00 -0.31417690630E+02 -0.15931206299E+02  0.35233602531E+02  0.51100000000E-03 0.  1.
         12    1    3    3    0    0 -0.10225466070E+02  0.35066133555E+02  0.22343211443E+02  0.42818371950E+02  0.00000000000E+00 0. -1.
</event>
<event>
 7    1  0.2879200E-015  0.9000814E+02  0.7816164E-02  0.1186338E+00
        -11   -1    0    0    0    0  0.00000000000E+00  0.00000000000E+00  0.45593999997E+02  0.45594000000E+02  0.51100000000E-03 0. -1.
         11   -1    0    0    0    0 -0.00000000000E+00 -0.00000000000E+00 -0.45593999997E+02  0.45594000000E+02  0.51100000000E-03 0.  1.
    9900012    2    1    2    0    0 -0.38010450855E+00 -0.10644649357E+01 -0.33838296341E+00  0.90008140658E+02  0.90000407314E+02 0.  0.
        -12    1    1    2    0    0  0.38010450855E+00  0.10644649357E+01  0.33838296341E+00  0.11798593419E+01  0.00000000000E+00 0.  1.
         11    1    3    3    0    0  0.92731844977E+01  0.30615931459E+01 -0.49527893695E-01  0.97656416375E+01  0.51100000000E-03 0. -1.
        -11    1    3    3    0    0 -0.24729629044E+02  0.17346863293E+02 -0.28631530891E+02  0.41620100675E+02  0.51100000000E-03 0.  1.
         12    1    3    3    0    0  0.15076340037E+02 -0.21472921374E+02  0.28342675822E+02  0.38622398346E+02  0.00000000000E+00 0. -1.
</event>
<event>
 7    1  0.4083589E-015  0.9000770E+02  0.7816164E-02  0.1186339E+00
        -11   -1    0    0    0    0  0.00000000000E+00  0.00000000000E+00  0.45593999997E+02  0.45594000000E+02  0.51100000000E-03 0. -1.
         11   -1    0    0    0    0 -0.00000000000E+00 -0.00000000000E+00 -0.45593999997E+02  0.45594000000E+02  0.51100000000E-03 0.  1.
    9900012    2    1    2    0    0 -0.10456834769E+01  0.35943220425E-01  0.54622547429E+00  0.90007699988E+02  0.89999960828E+02 0.  0.
        -12    1    1    2    0    0  0.10456834769E+01 -0.35943220425E-01 -0.54622547429E+00  0.11803000118E+01  0.00000000000E+00 0.  1.
         11    1    3    3    0    0 -0.49702671126E+01 -0.31900746455E+02  0.19601055593E+02  0.37769863120E+02  0.51100000000E-03 0. -1.
        -11    1    3    3    0    0  0.13785059388E+01 -0.81928019787E+01 -0.46800033841E+01  0.95354451822E+01  0.51100000000E-03 0.  1.
        -12    1    3    3    0    0  0.25460776969E+01  0.40129491654E+02 -0.14374826734E+02  0.42702391686E+02  0.00000000000E+00 0.  1.
</event>
<event>
 7    1  0.2879200E-015  0.9000770E+02  0.7816164E-02  0.1186339E+00
        -11   -1    0    0    0    0  0.00000000000E+00  0.00000000000E+00  0.45593999997E+02  0.45594000000E+02  0.51100000000E-03 0.  1.
         11   -1    0    0    0    0 -0.00000000000E+00 -0.00000000000E+00 -0.45593999997E+02  0.45594000000E+02  0.51100000000E-03 0. -1.
    9900012    2    1    2    0    0  0.71037901019E+00  0.12574397981E+00 -0.93415877715E+00  0.90007702365E+02  0.89999963236E+02 0.  0.
        -12    1    1    2    0    0 -0.71037901019E+00 -0.12574397981E+00  0.93415877715E+00  0.11802976351E+01  0.00000000000E+00 0.  1.
         11    1    3    3    0    0  0.26522140204E+01 -0.25244473479E+02 -0.34464482120E+02  0.42803249976E+02  0.51100000000E-03 0. -1.
        -11    1    3    3    0    0  0.72109208630E+01  0.34777523315E+01  0.30278150618E+01  0.85591941958E+01  0.51100000000E-03 0.  1.
        -12    1    3    3    0    0 -0.91527558731E+01  0.21892465127E+02  0.30502508281E+02  0.38645258193E+02  0.00000000000E+00 0.  1.
</event>
<event>
 7    1  0.2879200E-015  0.9000757E+02  0.7816164E-02  0.1186339E+00
        -11   -1    0    0    0    0  0.00000000000E+00  0.00000000000E+00  0.45593999997E+02  0.45594000000E+02  0.51100000000E-03 0. -1.
         11   -1    0    0    0    0 -0.00000000000E+00 -0.00000000000E+00 -0.45593999997E+02  0.45594000000E+02  0.51100000000E-03 0.  1.
    9900012    2    1    2    0    0  0.32286270282E+00 -0.58077566793E+00  0.97563804138E+00  0.90007571989E+02  0.89999831139E+02 0.  0.
        -12    1    1    2    0    0 -0.32286270282E+00  0.58077566793E+00 -0.97563804138E+00  0.11804280110E+01  0.00000000000E+00 0.  1.
         11    1    3    3    0    0  0.39978875255E+01  0.51391104011E+01 -0.66494003999E+01  0.93063465613E+01  0.51100000000E-03 0. -1.
        -11    1    3    3    0    0  0.12865537789E+02  0.32612786127E+02  0.15301184616E+02  0.38252348065E+02  0.51100000000E-03 0.  1.
         12    1    3    3    0    0 -0.16540562612E+02 -0.38332672196E+02 -0.76761461752E+01  0.42448877362E+02  0.00000000000E+00 0. -1.
</event>
<event>
 7    1  0.2879200E-015  0.9000775E+02  0.7816164E-02  0.1186339E+00
        -11   -1    0    0    0    0  0.00000000000E+00  0.00000000000E+00  0.45593999997E+02  0.45594000000E+02  0.51100000000E-03 0. -1.
         11   -1    0    0    0    0 -0.00000000000E+00 -0.00000000000E+00 -0.45593999997E+02  0.45594000000E+02  0.51100000000E-03 0.  1.
    9900012    2    1    2    0    0 -0.10264403069E+01 -0.44086020481E+00 -0.38087113443E+00  0.90007745686E+02  0.90000007129E+02 0.  0.
        -12    1    1    2    0    0  0.10264403069E+01  0.44086020481E+00  0.38087113443E+00  0.11802543136E+01  0.00000000000E+00 0.  1.
         11    1    3    3    0    0 -0.14549862880E+02  0.38057079207E+02 -0.56073646766E+00  0.40747444254E+02  0.51100000000E-03 0. -1.
        -11    1    3    3    0    0 -0.59192375164E+01 -0.43359020914E+01 -0.59897634508E+01  0.94717836852E+01  0.51100000000E-03 0.  1.
        -12    1    3    3    0    0  0.19442660089E+02 -0.34162037320E+02  0.61696287841E+01  0.39788517747E+02  0.00000000000E+00 0.  1.
</event>
<event>
 7    1  0.2879200E-015  0.9000768E+02  0.7816164E-02  0.1186339E+00
        -11   -1    0    0    0    0  0.00000000000E+00  0.00000000000E+00  0.45593999997E+02  0.45594000000E+02  0.51100000000E-03 0.  1.
         11   -1    0    0    0    0 -0.00000000000E+00 -0.00000000000E+00 -0.45593999997E+02  0.45594000000E+02  0.51100000000E-03 0. -1.
    9900012    2    1    2    0    0 -0.11023415209E+01  0.38701333242E+00  0.16801507347E+00  0.90007675802E+02  0.89999936322E+02 0.  0.
        -12    1    1    2    0    0  0.11023415209E+01 -0.38701333242E+00 -0.16801507347E+00  0.11803241983E+01  0.00000000000E+00 0.  1.
         11    1    3    3    0    0 -0.11999563223E+02  0.25691531311E+02 -0.27381342990E+02  0.39418044635E+02  0.51100000000E-03 0. -1.
        -11    1    3    3    0    0  0.10298279065E+02  0.38117084762E+01  0.73976098386E+00  0.11005949290E+02  0.51100000000E-03 0.  1.
        -12    1    3    3    0    0  0.59894263735E+00 -0.29116226455E+02  0.26809597080E+02  0.39583681876E+02  0.00000000000E+00 0.  1.
</event>
<event>
 7    1  0.2879200E-015  0.9000782E+02  0.7816164E-02  0.1186339E+00
        -11   -1    0    0    0    0  0.00000000000E+00  0.00000000000E+00  0.45593999997E+02  0.45594000000E+02  0.51100000000E-03 0.  1.
         11   -1    0    0    0    0 -0.00000000000E+00 -0.00000000000E+00 -0.45593999997E+02  0.45594000000E+02  0.51100000000E-03 0. -1.
    9900012    2    1    2    0    0 -0.57114609357E+00  0.83935623512E+00 -0.60174732623E+00  0.90007819254E+02  0.90000081668E+02 0.  0.
        -12    1    1    2    0    0  0.57114609357E+00 -0.83935623512E+00  0.60174732623E+00  0.11801807464E+01  0.00000000000E+00 0.  1.
         11    1    3    3    0    0  0.15511082585E+02  0.31882964565E+02 -0.16125890023E+02  0.38950756626E+02  0.51100000000E-03 0. -1.
        -11    1    3    3    0    0 -0.95384367040E+01  0.52519341850E+01 -0.37515852673E+00  0.10895197640E+02  0.51100000000E-03 0.  1.
        -12    1    3    3    0    0 -0.65437919743E+01 -0.36295542515E+02  0.15899301224E+02  0.40161864987E+02  0.00000000000E+00 0.  1.
</event>
<event>
 7    1  0.2879200E-015  0.9000772E+02  0.7816164E-02  0.1186339E+00
        -11   -1    0    0    0    0  0.00000000000E+00  0.00000000000E+00  0.45593999997E+02  0.45594000000E+02  0.51100000000E-03 0. -1.
         11   -1    0    0    0    0 -0.00000000000E+00 -0.00000000000E+00 -0.45593999997E+02  0.45594000000E+02  0.51100000000E-03 0.  1.
    9900012    2    1    2    0    0 -0.73778159519E+00  0.91167349452E+00  0.13266334731E+00  0.90007716218E+02  0.89999977272E+02 0.  0.
        -12    1    1    2    0    0  0.73778159519E+00 -0.91167349452E+00 -0.13266334731E+00  0.11802837822E+01  0.00000000000E+00 0.  1.
         11    1    3    3    0    0  0.11231957560E+02  0.18215636079E+02  0.35174150553E+02  0.41172650337E+02  0.51100000000E-03 0. -1.
        -11    1    3    3    0    0 -0.12421465948E+02 -0.96214291991E+01 -0.31453721592E+01  0.16023672564E+02  0.51100000000E-03 0.  1.
        -12    1    3    3    0    0  0.45172679324E+00 -0.76825333857E+01 -0.31896115047E+02  0.32811393317E+02  0.00000000000E+00 0.  1.
</event>
<event>
 7    1  0.2879200E-015  0.9000769E+02  0.7816164E-02  0.1186339E+00
        -11   -1    0    0    0    0  0.00000000000E+00  0.00000000000E+00  0.45593999997E+02  0.45594000000E+02  0.51100000000E-03 0. -1.
         11   -1    0    0    0    0 -0.00000000000E+00 -0.00000000000E+00 -0.45593999997E+02  0.45594000000E+02  0.51100000000E-03 0.  1.
    9900012    2    1    2    0    0  0.57033896666E+00  0.77081223671E+00 -0.68825406921E+00  0.90007689996E+02  0.89999950704E+02 0.  0.
        -12    1    1    2    0    0 -0.57033896666E+00 -0.77081223671E+00  0.68825406921E+00  0.11803100037E+01  0.00000000000E+00 0.  1.
         11    1    3    3    0    0  0.18711882290E+02  0.33312809962E+02 -0.16209839576E+02  0.41504659326E+02  0.51100000000E-03 0. -1.
        -11    1    3    3    0    0  0.12761374520E+01 -0.45459951180E+00  0.10588372161E+02  0.10674680922E+02  0.51100000000E-03 0.  1.
        -12    1    3    3    0    0 -0.19417680775E+02 -0.32087398213E+02  0.49332133462E+01  0.37828349749E+02  0.00000000000E+00 0.  1.
</event>
<event>
 7    1  0.2879200E-015  0.9000775E+02  0.7816164E-02  0.1186339E+00
        -11   -1    0    0    0    0  0.00000000000E+00  0.00000000000E+00  0.45593999997E+02  0.45594000000E+02  0.51100000000E-03 0.  1.
         11   -1    0    0    0    0 -0.00000000000E+00 -0.00000000000E+00 -0.45593999997E+02  0.45594000000E+02  0.51100000000E-03 0. -1.
    9900012    2    1    2    0    0 -0.65875739574E+00 -0.90432486556E+00 -0.37579464470E+00  0.90007751558E+02  0.90000013079E+02 0.  0.
        -12    1    1    2    0    0  0.65875739574E+00  0.90432486556E+00  0.37579464470E+00  0.11802484416E+01  0.00000000000E+00 0.  1.
         11    1    3    3    0    0 -0.55631833755E+01  0.22902022026E+01 -0.63901770139E+01  0.87765823604E+01  0.51100000000E-03 0. -1.
        -11    1    3    3    0    0 -0.24531992237E+02 -0.20704274161E+02  0.26234365232E+02  0.41457538893E+02  0.51100000000E-03 0.  1.
         12    1    3    3    0    0  0.29436418217E+02  0.17509747093E+02 -0.20219982863E+02  0.39773630305E+02  0.00000000000E+00 0. -1.
</event>
<event>
 7    1  0.2898758E-015  0.9000785E+02  0.7816164E-02  0.1186339E+00
        -11   -1    0    0    0    0  0.00000000000E+00  0.00000000000E+00  0.45593999997E+02  0.45594000000E+02  0.51100000000E-03 0.  1.
         11   -1    0    0    0    0 -0.00000000000E+00 -0.00000000000E+00 -0.45593999997E+02  0.45594000000E+02  0.51100000000E-03 0. -1.
    9900012    2    1    2    0    0 -0.44915210736E+00 -0.10183833453E+01  0.39232410451E+00  0.90007847274E+02  0.90000110058E+02 0.  0.
        -12    1    1    2    0    0  0.44915210736E+00  0.10183833453E+01 -0.39232410451E+00  0.11801527260E+01  0.00000000000E+00 0.  1.
         11    1    3    3    0    0  0.33940707877E+02 -0.17667700931E+02  0.36837270364E+00  0.38265585140E+02  0.51100000000E-03 0. -1.
        -11    1    3    3    0    0  0.63759312891E+01  0.72348247149E+01  0.20326813139E+01  0.98553022300E+01  0.51100000000E-03 0.  1.
        -12    1    3    3    0    0 -0.40765791273E+02  0.94144928709E+01 -0.20087299130E+01  0.41886959904E+02  0.00000000000E+00 0.  1.
</event>
<event>
 7    1  0.2966004E-015  0.9000756E+02  0.7816164E-02  0.1186339E+00
        -11   -1    0    0    0    0  0.00000000000E+00  0.00000000000E+00  0.45593999997E+02  0.45594000000E+02  0.51100000000E-03 0.  1.
         11   -1    0    0    0    0 -0.00000000000E+00 -0.00000000000E+00 -0.45593999997E+02  0.45594000000E+02  0.51100000000E-03 0. -1.
    9900012    2    1    2    0    0  0.11063229681E+01 -0.32644896850E-01 -0.41038812674E+00  0.90007561686E+02  0.89999820700E+02 0.  0.
        -12    1    1    2    0    0 -0.11063229681E+01  0.32644896850E-01  0.41038812674E+00  0.11804383142E+01  0.00000000000E+00 0.  1.
         11    1    3    3    0    0 -0.12425524093E+02 -0.39233277146E+02 -0.12592848907E+02  0.43037466567E+02  0.51100000000E-03 0. -1.
        -11    1    3    3    0    0 -0.15640082176E+01  0.57202084205E+01  0.80694966392E+01  0.10014174072E+02  0.51100000000E-03 0.  1.
        -12    1    3    3    0    0  0.15095855279E+02  0.33480423829E+02  0.41129641415E+01  0.36955921047E+02  0.00000000000E+00 0.  1.
</event>
<event>
 7    1  0.2879200E-015  0.9000773E+02  0.7816164E-02  0.1186339E+00
        -11   -1    0    0    0    0  0.00000000000E+00  0.00000000000E+00  0.45593999997E+02  0.45594000000E+02  0.51100000000E-03 0. -1.
         11   -1    0    0    0    0 -0.00000000000E+00 -0.00000000000E+00 -0.45593999997E+02  0.45594000000E+02  0.51100000000E-03 0.  1.
    9900012    2    1    2    0    0 -0.72309370930E+00  0.76635529447E+00  0.53185126886E+00  0.90007732775E+02  0.89999994048E+02 0.  0.
        -12    1    1    2    0    0  0.72309370930E+00 -0.76635529447E+00 -0.53185126886E+00  0.11802672248E+01  0.00000000000E+00 0.  1.
         11    1    3    3    0    0 -0.12421333143E+02  0.14294987367E+02  0.27075000719E+02  0.33040760358E+02  0.51100000000E-03 0. -1.
        -11    1    3    3    0    0 -0.73290246014E+01  0.13582364871E+02 -0.16253241965E+01  0.15518921229E+02  0.51100000000E-03 0.  1.
        -12    1    3    3    0    0  0.19027264036E+02 -0.27110996944E+02 -0.24917825253E+02  0.41448051188E+02  0.00000000000E+00 0.  1.
</event>
<event>
 7    1  0.2879200E-015  0.9000850E+02  0.7816164E-02  0.1186338E+00
        -11   -1    0    0    0    0  0.00000000000E+00  0.00000000000E+00  0.45593999997E+02  0.45594000000E+02  0.51100000000E-03 0. -1.
         11   -1    0    0    0    0 -0.00000000000E+00 -0.00000000000E+00 -0.45593999997E+02  0.45594000000E+02  0.51100000000E-03 0.  1.
    9900012    2    1    2    0    0  0.62540236888E-01 -0.98588661162E+00  0.64447003567E+00  0.90008497851E+02  0.90000769220E+02 0.  0.
        -12    1    1    2    0    0 -0.62540236888E-01  0.98588661162E+00 -0.64447003567E+00  0.11795021488E+01  0.00000000000E+00 0.  1.
         11    1    3    3    0    0  0.36195237639E+02 -0.33663411965E+01 -0.69123248939E+01  0.37002806873E+02  0.51100000000E-03 0. -1.
        -11    1    3    3    0    0 -0.13136392198E+01 -0.86539544793E+01 -0.93057212697E+01  0.12775485304E+02  0.51100000000E-03 0.  1.
        -12    1    3    3    0    0 -0.34819058182E+02  0.11034409064E+02  0.16862516199E+02  0.40230205675E+02  0.00000000000E+00 0.  1.
</event>
<event>
 7    1  0.2879200E-015  0.9000777E+02  0.7816164E-02  0.1186339E+00
        -11   -1    0    0    0    0  0.00000000000E+00  0.00000000000E+00  0.45593999997E+02  0.45594000000E+02  0.51100000000E-03 0.  1.
         11   -1    0    0    0    0 -0.00000000000E+00 -0.00000000000E+00 -0.45593999997E+02  0.45594000000E+02  0.51100000000E-03 0. -1.
    9900012    2    1    2    0    0 -0.51292798053E+00  0.86968838971E+00  0.61113459320E+00  0.90007771844E+02  0.90000033633E+02 0.  0.
        -12    1    1    2    0    0  0.51292798053E+00 -0.86968838971E+00 -0.61113459320E+00  0.11802281557E+01  0.00000000000E+00 0.  1.
         11    1    3    3    0    0 -0.64944305185E+01  0.11661100394E+02 -0.53342062959E+01  0.14374026827E+02  0.51100000000E-03 0. -1.
        -11    1    3    3    0    0  0.14743888340E+02  0.12634133687E+02  0.33313402952E+02  0.38558869199E+02  0.51100000000E-03 0.  1.
         12    1    3    3    0    0 -0.87623858018E+01 -0.23425545692E+02 -0.27368062063E+02  0.37074875818E+02  0.00000000000E+00 0. -1.
</event>
<event>
 7    1  0.3608629E-015  0.9000779E+02  0.7816164E-02  0.1186339E+00
        -11   -1    0    0    0    0  0.00000000000E+00  0.00000000000E+00  0.45593999997E+02  0.45594000000E+02  0.51100000000E-03 0. -1.
         11   -1    0    0    0    0 -0.00000000000E+00 -0.00000000000E+00 -0.45593999997E+02  0.45594000000E+02  0.51100000000E-03 0.  1.
    9900012    2    1    2    0    0  0.10874348336E+01 -0.11903860886E+00  0.44296140166E+00  0.90007788362E+02  0.90000050368E+02 0.  0.
        -12    1    1    2    0    0 -0.10874348336E+01  0.11903860886E+00 -0.44296140166E+00  0.11802116382E+01  0.00000000000E+00 0.  1.
         11    1    3    3    0    0  0.33780746116E+02 -0.10248185287E+02  0.18778733469E+02  0.39985058969E+02  0.51100000000E-03 0. -1.
        -11    1    3    3    0    0 -0.23807821218E+01  0.49138722818E+01  0.78946392015E+01  0.95989370608E+01  0.51100000000E-03 0.  1.
        -12    1    3    3    0    0 -0.30312529161E+02  0.52152743959E+01 -0.26230411269E+02  0.40423792332E+02  0.00000000000E+00 0.  1.
</event>
<event>
 7    1  0.2879200E-015  0.9000779E+02  0.7816164E-02  0.1186339E+00
        -11   -1    0    0    0    0  0.00000000000E+00  0.00000000000E+00  0.45593999997E+02  0.45594000000E+02  0.51100000000E-03 0.  1.
         11   -1    0    0    0    0 -0.00000000000E+00 -0.00000000000E+00 -0.45593999997E+02  0.45594000000E+02  0.51100000000E-03 0. -1.
    9900012    2    1    2    0    0 -0.10867271810E+01  0.57336418221E-01 -0.45676219475E+00  0.90007790216E+02  0.90000052247E+02 0.  0.
        -12    1    1    2    0    0  0.10867271810E+01 -0.57336418221E-01  0.45676219475E+00  0.11802097836E+01  0.00000000000E+00 0.  1.
         11    1    3    3    0    0 -0.84135555889E+01  0.16537292332E+02 -0.37322469183E+02  0.41680171083E+02  0.51100000000E-03 0. -1.
        -11    1    3    3    0    0  0.77570939360E+01 -0.31420380136E+01 -0.76168175841E+00  0.84038722368E+01  0.51100000000E-03 0.  1.
        -12    1    3    3    0    0 -0.43026552801E+00 -0.13337917900E+02  0.37627388747E+02  0.39923746896E+02  0.00000000000E+00 0.  1.
</event>
<event>
 7    1  0.2879200E-015  0.9000778E+02  0.7816164E-02  0.1186339E+00
        -11   -1    0    0    0    0  0.00000000000E+00  0.00000000000E+00  0.45593999997E+02  0.45594000000E+02  0.51100000000E-03 0.  1.
         11   -1    0    0    0    0 -0.00000000000E+00 -0.00000000000E+00 -0.45593999997E+02  0.45594000000E+02  0.51100000000E-03 0. -1.
    9900012    2    1    2    0    0 -0.10536218743E+01 -0.43313661323E+00  0.30854191583E+00  0.90007777778E+02  0.90000039645E+02 0.  0.
        -12    1    1    2    0    0  0.10536218743E+01  0.43313661323E+00 -0.30854191583E+00  0.11802222221E+01  0.00000000000E+00 0.  1.
         11    1    3    3    0    0 -0.66693530107E+01  0.38047888061E+01 -0.75118448840E+01  0.10741717799E+02  0.51100000000E-03 0. -1.
        -11    1    3    3    0    0 -0.14155406707E+02  0.22306115564E+02  0.29576842812E+02  0.39657634341E+02  0.51100000000E-03 0.  1.
         12    1    3    3    0    0  0.19771137843E+02 -0.26544040983E+02 -0.21756456012E+02  0.39608425638E+02  0.00000000000E+00 0. -1.
</event>
<event>
 7    1  0.2879200E-015  0.9000807E+02  0.7816164E-02  0.1186338E+00
        -11   -1    0    0    0    0  0.00000000000E+00  0.00000000000E+00  0.45593999997E+02  0.45594000000E+02  0.51100000000E-03 0.  1.
         11   -1    0    0    0    0 -0.00000000000E+00 -0.00000000000E+00 -0.45593999997E+02  0.45594000000E+02  0.51100000000E-03 0. -1.
    9900012    2    1    2    0    0  0.19335305391E+00  0.38659526096E+00 -0.10979036640E+01  0.90008070445E+02  0.90000336174E+02 0.  0.
        -12    1    1    2    0    0 -0.19335305391E+00 -0.38659526096E+00  0.10979036640E+01  0.11799295550E+01  0.00000000000E+00 0.  1.
         11    1    3    3    0    0 -0.77860292647E+01  0.21055488448E+01 -0.41875323669E+01  0.90879599049E+01  0.51100000000E-03 0. -1.
        -11    1    3    3    0    0 -0.31345054462E+02  0.18249240064E+02  0.58085705185E+01  0.36732637992E+02  0.51100000000E-03 0.  1.
         12    1    3    3    0    0  0.39324436780E+02 -0.19968193647E+02 -0.27189418157E+01  0.44187472548E+02  0.00000000000E+00 0. -1.
</event>
<event>
 7    1  0.2879200E-015  0.9000790E+02  0.7816164E-02  0.1186339E+00
        -11   -1    0    0    0    0  0.00000000000E+00  0.00000000000E+00  0.45593999997E+02  0.45594000000E+02  0.51100000000E-03 0.  1.
         11   -1    0    0    0    0 -0.00000000000E+00 -0.00000000000E+00 -0.45593999997E+02  0.45594000000E+02  0.51100000000E-03 0. -1.
    9900012    2    1    2    0    0 -0.43486564870E+00 -0.60656002984E+00 -0.91411384721E+00  0.90007903679E+02  0.90000167207E+02 0.  0.
        -12    1    1    2    0    0  0.43486564870E+00  0.60656002984E+00  0.91411384721E+00  0.11800963214E+01  0.00000000000E+00 0.  1.
         11    1    3    3    0    0 -0.57209941397E+01  0.53414844035E+01  0.25209420790E+01  0.82229179009E+01  0.51100000000E-03 0. -1.
        -11    1    3    3    0    0 -0.54113186224E+01  0.28406544068E+02 -0.26353449228E+02  0.39124396501E+02  0.51100000000E-03 0.  1.
         12    1    3    3    0    0  0.10697447113E+02 -0.34354588502E+02  0.22918393302E+02  0.42660589276E+02  0.00000000000E+00 0. -1.
</event>
<event>
 7    1  0.2879200E-015  0.9000777E+02  0.7816164E-02  0.1186339E+00
        -11   -1    0    0    0    0  0.00000000000E+00  0.00000000000E+00  0.45593999997E+02  0.45594000000E+02  0.51100000000E-03 0.  1.
         11   -1    0    0    0    0 -0.00000000000E+00 -0.00000000000E+00 -0.45593999997E+02  0.45594000000E+02  0.51100000000E-03 0. -1.
    9900012    2    1    2    0    0 -0.46532456022E+00  0.10803799153E+01 -0.95931801520E-01  0.90007766710E+02  0.90000028431E+02 0.  0.
        -12    1    1    2    0    0  0.46532456022E+00 -0.10803799153E+01  0.95931801520E-01  0.11802332898E+01  0.00000000000E+00 0.  1.
         11    1    3    3    0    0 -0.33977464648E+02  0.13000359810E+02  0.59218041621E+01  0.36858448474E+02  0.51100000000E-03 0. -1.
        -11    1    3    3    0    0 -0.86952196857E+01 -0.34235820830E+01  0.14366529483E+01  0.94547200708E+01  0.51100000000E-03 0.  1.
        -12    1    3    3    0    0  0.42207359773E+02 -0.84963978115E+01 -0.74543889120E+01  0.43694598166E+02  0.00000000000E+00 0.  1.
</event>
<event>
 7    1  0.2879200E-015  0.9000773E+02  0.7816164E-02  0.1186339E+00
        -11   -1    0    0    0    0  0.00000000000E+00  0.00000000000E+00  0.45593999997E+02  0.45594000000E+02  0.51100000000E-03 0. -1.
         11   -1    0    0    0    0 -0.00000000000E+00 -0.00000000000E+00 -0.45593999997E+02  0.45594000000E+02  0.51100000000E-03 0.  1.
    9900012    2    1    2    0    0 -0.75033531035E+00 -0.69254284721E-02  0.91103596170E+00  0.90007729877E+02  0.89999991111E+02 0.  0.
        -12    1    1    2    0    0  0.75033531035E+00  0.69254284721E-02 -0.91103596170E+00  0.11802701229E+01  0.00000000000E+00 0.  1.
         11    1    3    3    0    0  0.12622245610E+01  0.88579499331E+00 -0.92836441472E+01  0.94108390978E+01  0.51100000000E-03 0. -1.
        -11    1    3    3    0    0  0.23348244169E+01 -0.33127425001E+02 -0.17802643090E+02  0.37680390039E+02  0.51100000000E-03 0.  1.
         12    1    3    3    0    0 -0.43473842882E+01  0.32234704579E+02  0.27997323199E+02  0.42916500740E+02  0.00000000000E+00 0. -1.
</event>
<event>
 7    1  0.2879200E-015  0.9000778E+02  0.7816164E-02  0.1186339E+00
        -11   -1    0    0    0    0  0.00000000000E+00  0.00000000000E+00  0.45593999997E+02  0.45594000000E+02  0.51100000000E-03 0.  1.
         11   -1    0    0    0    0 -0.00000000000E+00 -0.00000000000E+00 -0.45593999997E+02  0.45594000000E+02  0.51100000000E-03 0. -1.
    9900012    2    1    2    0    0  0.54807320622E+00 -0.88348850028E+00 -0.55856093644E+00  0.90007776932E+02  0.90000038788E+02 0.  0.
        -12    1    1    2    0    0 -0.54807320622E+00  0.88348850028E+00  0.55856093644E+00  0.11802230676E+01  0.00000000000E+00 0.  1.
         11    1    3    3    0    0  0.35005449105E+02 -0.14663220495E+01 -0.14147987525E+02  0.37784879498E+02  0.51100000000E-03 0. -1.
        -11    1    3    3    0    0  0.44874460057E+01  0.67072967015E+01 -0.40544958809E+01  0.90312755359E+01  0.51100000000E-03 0.  1.
        -12    1    3    3    0    0 -0.38944821905E+02 -0.61244631523E+01  0.17643922470E+02  0.43191621898E+02  0.00000000000E+00 0.  1.
</event>
<event>
 7    1  0.2879200E-015  0.9000773E+02  0.7816164E-02  0.1186339E+00
        -11   -1    0    0    0    0  0.00000000000E+00  0.00000000000E+00  0.45593999997E+02  0.45594000000E+02  0.51100000000E-03 0. -1.
         11   -1    0    0    0    0 -0.00000000000E+00 -0.00000000000E+00 -0.45593999997E+02  0.45594000000E+02  0.51100000000E-03 0.  1.
    9900012    2    1    2    0    0 -0.90030980864E+00  0.64169519583E+00 -0.41317782534E+00  0.90007726137E+02  0.89999987322E+02 0.  0.
        -12    1    1    2    0    0  0.90030980864E+00 -0.64169519583E+00  0.41317782534E+00  0.11802738628E+01  0.00000000000E+00 0.  1.
         11    1    3    3    0    0  0.59730491339E+01 -0.47336989894E+01 -0.13810828235E+02  0.15774162383E+02  0.51100000000E-03 0. -1.
        -11    1    3    3    0    0  0.16623953308E+02 -0.27642467489E+02  0.29986145265E+01  0.32395270053E+02  0.51100000000E-03 0.  1.
         12    1    3    3    0    0 -0.23497312251E+02  0.33017861674E+02  0.10399035883E+02  0.41838293701E+02  0.00000000000E+00 0. -1.
</event>
<event>
 7    1  0.2879200E-015  0.9000776E+02  0.7816164E-02  0.1186339E+00
        -11   -1    0    0    0    0  0.00000000000E+00  0.00000000000E+00  0.45593999997E+02  0.45594000000E+02  0.51100000000E-03 0. -1.
         11   -1    0    0    0    0 -0.00000000000E+00 -0.00000000000E+00 -0.45593999997E+02  0.45594000000E+02  0.51100000000E-03 0.  1.
    9900012    2    1    2    0    0 -0.64934927711E+00 -0.63806620310E+00 -0.75111807484E+00  0.90007762174E+02  0.90000023835E+02 0.  0.
        -12    1    1    2    0    0  0.64934927711E+00  0.63806620310E+00  0.75111807484E+00  0.11802378259E+01  0.00000000000E+00 0.  1.
         11    1    3    3    0    0 -0.37540610847E+01 -0.10002101514E+02  0.43542204969E+01  0.11536647941E+02  0.51100000000E-03 0. -1.
        -11    1    3    3    0    0 -0.24826031790E+01  0.17576451274E+02 -0.39161112452E+02  0.42996368296E+02  0.51100000000E-03 0.  1.
         12    1    3    3    0    0  0.55873149866E+01 -0.82124159631E+01  0.34055773880E+02  0.35474745937E+02  0.00000000000E+00 0. -1.
</event>
<event>
 7    1  0.2879200E-015  0.9000780E+02  0.7816164E-02  0.1186339E+00
        -11   -1    0    0    0    0  0.00000000000E+00  0.00000000000E+00  0.45593999997E+02  0.45594000000E+02  0.51100000000E-03 0.  1.
         11   -1    0    0    0    0 -0.00000000000E+00 -0.00000000000E+00 -0.45593999997E+02  0.45594000000E+02  0.51100000000E-03 0. -1.
    9900012    2    1    2    0    0  0.94300955351E+00 -0.51855236897E+00 -0.48446512069E+00  0.90007800851E+02  0.90000063023E+02 0.  0.
        -12    1    1    2    0    0 -0.94300955351E+00  0.51855236897E+00  0.48446512069E+00  0.11801991487E+01  0.00000000000E+00 0.  1.
         11    1    3    3    0    0  0.76668228847E+01  0.32108954636E+02 -0.15056183162E+02  0.36282968355E+02  0.51100000000E-03 0. -1.
        -11    1    3    3    0    0  0.17797374639E+01  0.89900646831E+01  0.36593302386E+01  0.98681014639E+01  0.51100000000E-03 0.  1.
        -12    1    3    3    0    0 -0.85035507952E+01 -0.41617571688E+02  0.10912387803E+02  0.43856731033E+02  0.00000000000E+00 0.  1.
</event>
<event>
 7    1  0.2879200E-015  0.9000777E+02  0.7816164E-02  0.1186339E+00
        -11   -1    0    0    0    0  0.00000000000E+00  0.00000000000E+00  0.45593999997E+02  0.45594000000E+02  0.51100000000E-03 0. -1.
         11   -1    0    0    0    0 -0.00000000000E+00 -0.00000000000E+00 -0.45593999997E+02  0.45594000000E+02  0.51100000000E-03 0.  1.
    9900012    2    1    2    0    0 -0.22432618367E+00  0.87902144382E+00 -0.75493980159E+00  0.90007773310E+02  0.90000035118E+02 0.  0.
        -12    1    1    2    0    0  0.22432618367E+00 -0.87902144382E+00  0.75493980159E+00  0.11802266898E+01  0.00000000000E+00 0.  1.
         11    1    3    3    0    0  0.26654359871E+02  0.10547030807E+02  0.25365232445E+02  0.38276491169E+02  0.51100000000E-03 0. -1.
        -11    1    3    3    0    0  0.14972011879E+01  0.49819785836E+01  0.49465573007E+01  0.71784504870E+01  0.51100000000E-03 0.  1.
        -12    1    3    3    0    0 -0.28375887243E+02 -0.14649987946E+02 -0.31066729547E+02  0.44552831654E+02  0.00000000000E+00 0.  1.
</event>
<event>
 7    1  0.2879200E-015  0.9000773E+02  0.7816164E-02  0.1186339E+00
        -11   -1    0    0    0    0  0.00000000000E+00  0.00000000000E+00  0.45593999997E+02  0.45594000000E+02  0.51100000000E-03 0. -1.
         11   -1    0    0    0    0 -0.00000000000E+00 -0.00000000000E+00 -0.45593999997E+02  0.45594000000E+02  0.51100000000E-03 0.  1.
    9900012    2    1    2    0    0 -0.88168770171E+00 -0.13932256588E+00  0.77217176274E+00  0.90007731720E+02  0.89999992979E+02 0.  0.
        -12    1    1    2    0    0  0.88168770171E+00  0.13932256588E+00 -0.77217176274E+00  0.11802682796E+01  0.00000000000E+00 0.  1.
         11    1    3    3    0    0  0.84093875590E+01  0.41790422977E+01 -0.35129652137E+01  0.10026121807E+02  0.51100000000E-03 0. -1.
        -11    1    3    3    0    0  0.37936738806E+01  0.36196466657E+02  0.79362592843E+01  0.37249971431E+02  0.51100000000E-03 0.  1.
         12    1    3    3    0    0 -0.13084749141E+02 -0.40514831520E+02 -0.36511223078E+01  0.42731638482E+02  0.00000000000E+00 0. -1.
</event>
<event>
 7    1  0.2879200E-015  0.9000746E+02  0.7816164E-02  0.1186340E+00
        -11   -1    0    0    0    0  0.00000000000E+00  0.00000000000E+00  0.45593999997E+02  0.45594000000E+02  0.51100000000E-03 0. -1.
         11   -1    0    0    0    0 -0.00000000000E+00 -0.00000000000E+00 -0.45593999997E+02  0.45594000000E+02  0.51100000000E-03 0.  1.
    9900012    2    1    2    0    0 -0.55892317204E+00 -0.44103275321E-01 -0.10389082915E+01  0.90007461712E+02  0.89999719406E+02 0.  0.
        -12    1    1    2    0    0  0.55892317204E+00  0.44103275321E-01  0.10389082915E+01  0.11805382879E+01  0.00000000000E+00 0.  1.
         11    1    3    3    0    0 -0.10712673472E+02  0.29352757004E+01  0.44894513119E+01  0.11980500395E+02  0.51100000000E-03 0. -1.
        -11    1    3    3    0    0  0.73660296852E+01  0.18305189302E+02 -0.35823072551E+02  0.40897810161E+02  0.51100000000E-03 0.  1.
         12    1    3    3    0    0  0.27877206151E+01 -0.21284568278E+02  0.30294712948E+02  0.37129151156E+02  0.00000000000E+00 0. -1.
</event>
<event>
 7    1  0.2879200E-015  0.9000764E+02  0.7816164E-02  0.1186339E+00
        -11   -1    0    0    0    0  0.00000000000E+00  0.00000000000E+00  0.45593999997E+02  0.45594000000E+02  0.51100000000E-03 0.  1.
         11   -1    0    0    0    0 -0.00000000000E+00 -0.00000000000E+00 -0.45593999997E+02  0.45594000000E+02  0.51100000000E-03 0. -1.
    9900012    2    1    2    0    0  0.86392591959E+00  0.11015443148E+00 -0.79670931066E+00  0.90007640852E+02  0.89999900911E+02 0.  0.
        -12    1    1    2    0    0 -0.86392591959E+00 -0.11015443148E+00  0.79670931066E+00  0.11803591483E+01  0.00000000000E+00 0.  1.
         11    1    3    3    0    0 -0.28780825124E+02  0.15393577922E+02 -0.27701952997E+02  0.42810002758E+02  0.51100000000E-03 0. -1.
        -11    1    3    3    0    0  0.90265982835E+01 -0.60789594703E+00 -0.14815222162E+01  0.91675472397E+01  0.51100000000E-03 0.  1.
        -12    1    3    3    0    0  0.20618152760E+02 -0.14675527544E+02  0.28386765903E+02  0.38030090854E+02  0.00000000000E+00 0.  1.
</event>
<event>
 7    1  0.2879200E-015  0.9000765E+02  0.7816164E-02  0.1186339E+00
        -11   -1    0    0    0    0  0.00000000000E+00  0.00000000000E+00  0.45593999997E+02  0.45594000000E+02  0.51100000000E-03 0.  1.
         11   -1    0    0    0    0 -0.00000000000E+00 -0.00000000000E+00 -0.45593999997E+02  0.45594000000E+02  0.51100000000E-03 0. -1.
    9900012    2    1    2    0    0 -0.65927352826E+00  0.47971899230E-01 -0.97789471759E+00  0.90007652184E+02  0.89999912393E+02 0.  0.
        -12    1    1    2    0    0  0.65927352826E+00 -0.47971899230E-01  0.97789471759E+00  0.11803478161E+01  0.00000000000E+00 0.  1.
         11    1    3    3    0    0  0.23667580981E+01  0.49946712607E+01  0.83191865172E+01  0.99878500923E+01  0.51100000000E-03 0. -1.
        -11    1    3    3    0    0 -0.28076293000E+02 -0.16795325313E+02  0.21066339387E+02  0.38912103984E+02  0.51100000000E-03 0.  1.
         12    1    3    3    0    0  0.25050261374E+02  0.11848625951E+02 -0.30363420622E+02  0.41107698108E+02  0.00000000000E+00 0. -1.
</event>
<event>
 7    1  0.2879200E-015  0.9000773E+02  0.7816164E-02  0.1186339E+00
        -11   -1    0    0    0    0  0.00000000000E+00  0.00000000000E+00  0.45593999997E+02  0.45594000000E+02  0.51100000000E-03 0.  1.
         11   -1    0    0    0    0 -0.00000000000E+00 -0.00000000000E+00 -0.45593999997E+02  0.45594000000E+02  0.51100000000E-03 0. -1.
    9900012    2    1    2    0    0  0.76594479039E+00  0.55734245194E-01 -0.89624152043E+00  0.90007734525E+02  0.89999995821E+02 0.  0.
        -12    1    1    2    0    0 -0.76594479039E+00 -0.55734245194E-01  0.89624152043E+00  0.11802654748E+01  0.00000000000E+00 0.  1.
         11    1    3    3    0    0 -0.33048757948E+02 -0.73959158616E+01 -0.14235008046E+02  0.36736295781E+02  0.51100000000E-03 0. -1.
        -11    1    3    3    0    0 -0.45790877792E+01  0.49151309585E+01 -0.70397822800E+01  0.97306264978E+01  0.51100000000E-03 0.  1.
        -12    1    3    3    0    0  0.38393790518E+02  0.25365191482E+01  0.20378548805E+02  0.43540812247E+02  0.00000000000E+00 0.  1.
</event>
<event>
 7    1  0.2879200E-015  0.9000784E+02  0.7816164E-02  0.1186339E+00
        -11   -1    0    0    0    0  0.00000000000E+00  0.00000000000E+00  0.45593999997E+02  0.45594000000E+02  0.51100000000E-03 0. -1.
         11   -1    0    0    0    0 -0.00000000000E+00 -0.00000000000E+00 -0.45593999997E+02  0.45594000000E+02  0.51100000000E-03 0.  1.
    9900012    2    1    2    0    0  0.61382736422E+00 -0.84309221514E+00 -0.55243121203E+00  0.90007843756E+02  0.90000106493E+02 0.  0.
        -12    1    1    2    0    0 -0.61382736422E+00  0.84309221514E+00  0.55243121203E+00  0.11801562440E+01  0.00000000000E+00 0.  1.
         11    1    3    3    0    0  0.66670246524E+01  0.27787510484E+01 -0.27073398908E+01  0.77136479470E+01  0.51100000000E-03 0. -1.
        -11    1    3    3    0    0  0.37737918576E+02  0.15941390818E+01 -0.30140875137E+01  0.37891641580E+02  0.51100000000E-03 0.  1.
         12    1    3    3    0    0 -0.43791115864E+02 -0.52159823454E+01  0.51689961924E+01  0.44402554229E+02  0.00000000000E+00 0. -1.
</event>
<event>
 7    1  0.2879200E-015  0.9000756E+02  0.7816164E-02  0.1186339E+00
        -11   -1    0    0    0    0  0.00000000000E+00  0.00000000000E+00  0.45593999997E+02  0.45594000000E+02  0.51100000000E-03 0. -1.
         11   -1    0    0    0    0 -0.00000000000E+00 -0.00000000000E+00 -0.45593999997E+02  0.45594000000E+02  0.51100000000E-03 0.  1.
    9900012    2    1    2    0    0  0.65177720380E+00 -0.86385520478E+00 -0.47155991861E+00  0.90007564447E+02  0.89999823497E+02 0.  0.
        -12    1    1    2    0    0 -0.65177720380E+00  0.86385520478E+00  0.47155991861E+00  0.11804355531E+01  0.00000000000E+00 0.  1.
         11    1    3    3    0    0 -0.74751997885E+01 -0.32881549439E+01 -0.15891929478E+01  0.83196219445E+01  0.51100000000E-03 0. -1.
        -11    1    3    3    0    0 -0.32555642242E+02 -0.13372145863E+02 -0.10122967305E+02  0.36621832205E+02  0.51100000000E-03 0.  1.
         12    1    3    3    0    0  0.40682619234E+02  0.15796445602E+02  0.11240600334E+02  0.45066110297E+02  0.00000000000E+00 0. -1.
</event>
<event>
 7    1  0.2879200E-015  0.9000657E+02  0.7816164E-02  0.1186341E+00
        -11   -1    0    0    0    0  0.00000000000E+00  0.00000000000E+00  0.45593999997E+02  0.45594000000E+02  0.51100000000E-03 0.  1.
         11   -1    0    0    0    0 -0.00000000000E+00 -0.00000000000E+00 -0.45593999997E+02  0.45594000000E+02  0.51100000000E-03 0. -1.
    9900012    2    1    2    0    0  0.87223328972E-01 -0.54528429089E+00 -0.10444256554E+01  0.90006573821E+02  0.89998819788E+02 0.  0.
        -12    1    1    2    0    0 -0.87223328972E-01  0.54528429089E+00  0.10444256554E+01  0.11814261791E+01  0.00000000000E+00 0.  1.
         11    1    3    3    0    0  0.10257657461E+01 -0.55499671777E+01 -0.41183357434E+01  0.69867746919E+01  0.51100000000E-03 0. -1.
        -11    1    3    3    0    0  0.25405587255E+02 -0.14843846211E+01  0.33618949651E+02  0.42164926626E+02  0.51100000000E-03 0.  1.
         12    1    3    3    0    0 -0.26344129672E+02  0.64890675079E+01 -0.30545039563E+02  0.40854872503E+02  0.00000000000E+00 0. -1.
</event>
<event>
 7    1  0.2879200E-015  0.9000825E+02  0.7816164E-02  0.1186338E+00
        -11   -1    0    0    0    0  0.00000000000E+00  0.00000000000E+00  0.45593999997E+02  0.45594000000E+02  0.51100000000E-03 0.  1.
         11   -1    0    0    0    0 -0.00000000000E+00 -0.00000000000E+00 -0.45593999997E+02  0.45594000000E+02  0.51100000000E-03 0. -1.
    9900012    2    1    2    0    0 -0.29185474500E+00 -0.10764819251E+01 -0.38447690812E+00  0.90008247899E+02  0.90000515970E+02 0.  0.
        -12    1    1    2    0    0  0.29185474500E+00  0.10764819251E+01  0.38447690812E+00  0.11797521011E+01  0.00000000000E+00 0.  1.
         11    1    3    3    0    0  0.54579335669E+01  0.67651141060E+00  0.76675863035E+01  0.94360259904E+01  0.51100000000E-03 0. -1.
        -11    1    3    3    0    0  0.26260040709E+01  0.30776083276E+02  0.20009688674E+02  0.36802864566E+02  0.51100000000E-03 0.  1.
         12    1    3    3    0    0 -0.83757923828E+01 -0.32529076611E+02 -0.28061751886E+02  0.43769357342E+02  0.00000000000E+00 0. -1.
</event>
<event>
 7    1  0.2879200E-015  0.9000771E+02  0.7816164E-02  0.1186339E+00
        -11   -1    0    0    0    0  0.00000000000E+00  0.00000000000E+00  0.45593999997E+02  0.45594000000E+02  0.51100000000E-03 0. -1.
         11   -1    0    0    0    0 -0.00000000000E+00 -0.00000000000E+00 -0.45593999997E+02  0.45594000000E+02  0.51100000000E-03 0.  1.
    9900012    2    1    2    0    0 -0.55908546185E+00  0.65709870099E-01  0.10373947562E+01  0.90007710959E+02  0.89999971943E+02 0.  0.
        -12    1    1    2    0    0  0.55908546185E+00 -0.65709870099E-01 -0.10373947562E+01  0.11802890412E+01  0.00000000000E+00 0.  1.
         11    1    3    3    0    0 -0.20152747242E+02 -0.20304792675E+02  0.13161275050E+02  0.31490268150E+02  0.51100000000E-03 0. -1.
        -11    1    3    3    0    0  0.66765361549E+01 -0.16641071747E+02 -0.55455140566E+01  0.18768434414E+02  0.51100000000E-03 0.  1.
         12    1    3    3    0    0  0.12917125625E+02  0.37011574292E+02 -0.65783662372E+01  0.39749008395E+02  0.00000000000E+00 0. -1.
</event>
<event>
 7    1  0.2879200E-015  0.9000783E+02  0.7816164E-02  0.1186339E+00
        -11   -1    0    0    0    0  0.00000000000E+00  0.00000000000E+00  0.45593999997E+02  0.45594000000E+02  0.51100000000E-03 0.  1.
         11   -1    0    0    0    0 -0.00000000000E+00 -0.00000000000E+00 -0.45593999997E+02  0.45594000000E+02  0.51100000000E-03 0. -1.
    9900012    2    1    2    0    0  0.84506551165E+00  0.42141856460E+00  0.70787148354E+00  0.90007825707E+02  0.90000088206E+02 0.  0.
        -12    1    1    2    0    0 -0.84506551165E+00 -0.42141856460E+00 -0.70787148354E+00  0.11801742934E+01  0.00000000000E+00 0.  1.
         11    1    3    3    0    0  0.36815892361E+02 -0.11244832874E+02  0.52910596343E+01  0.38856807756E+02  0.51100000000E-03 0. -1.
        -11    1    3    3    0    0  0.15996573675E+01 -0.82540955136E+01 -0.33216198460E+00  0.84142336719E+01  0.51100000000E-03 0.  1.
        -12    1    3    3    0    0 -0.37570484217E+02  0.19920346952E+02 -0.42510261662E+01  0.42736784278E+02  0.00000000000E+00 0.  1.
</event>
<event>
 7    1  0.2879200E-015  0.9000821E+02  0.7816164E-02  0.1186338E+00
        -11   -1    0    0    0    0  0.00000000000E+00  0.00000000000E+00  0.45593999997E+02  0.45594000000E+02  0.51100000000E-03 0.  1.
         11   -1    0    0    0    0 -0.00000000000E+00 -0.00000000000E+00 -0.45593999997E+02  0.45594000000E+02  0.51100000000E-03 0. -1.
    9900012    2    1    2    0    0  0.11706469916E+01 -0.10249503357E+00  0.10482713931E+00  0.90008208349E+02  0.90000475898E+02 0.  0.
        -12    1    1    2    0    0 -0.11706469916E+01  0.10249503357E+00 -0.10482713931E+00  0.11797916511E+01  0.00000000000E+00 0.  1.
         11    1    3    3    0    0 -0.17347562059E+02  0.30827091926E+02 -0.21457372895E+02  0.41372289734E+02  0.51100000000E-03 0. -1.
        -11    1    3    3    0    0 -0.22881017533E+01 -0.16425786040E+01  0.10758705684E+02  0.11121295894E+02  0.51100000000E-03 0.  1.
        -12    1    3    3    0    0  0.20806310803E+02 -0.29287008356E+02  0.10803494350E+02  0.37514622721E+02  0.00000000000E+00 0.  1.
</event>
<event>
 7    1  0.2920085E-015  0.9000779E+02  0.7816164E-02  0.1186339E+00
        -11   -1    0    0    0    0  0.00000000000E+00  0.00000000000E+00  0.45593999997E+02  0.45594000000E+02  0.51100000000E-03 0. -1.
         11   -1    0    0    0    0 -0.00000000000E+00 -0.00000000000E+00 -0.45593999997E+02  0.45594000000E+02  0.51100000000E-03 0.  1.
    9900012    2    1    2    0    0 -0.54414396899E+00  0.12765942926E-01  0.10472067324E+01  0.90007789185E+02  0.90000051202E+02 0.  0.
        -12    1    1    2    0    0  0.54414396899E+00 -0.12765942926E-01 -0.10472067324E+01  0.11802108153E+01  0.00000000000E+00 0.  1.
         11    1    3    3    0    0  0.38704473890E+02  0.71335724126E+01  0.12640884013E+02  0.41336619399E+02  0.51100000000E-03 0. -1.
        -11    1    3    3    0    0 -0.32350645262E+01 -0.76842258013E+01  0.42082857907E+01  0.93393060883E+01  0.51100000000E-03 0.  1.
        -12    1    3    3    0    0 -0.36013553333E+02  0.56341933165E+00 -0.15801963071E+02  0.39331863697E+02  0.00000000000E+00 0.  1.
</event>
<event>
 7    1  0.2879200E-015  0.9000772E+02  0.7816164E-02  0.1186339E+00
        -11   -1    0    0    0    0  0.00000000000E+00  0.00000000000E+00  0.45593999997E+02  0.45594000000E+02  0.51100000000E-03 0.  1.
         11   -1    0    0    0    0 -0.00000000000E+00 -0.00000000000E+00 -0.45593999997E+02  0.45594000000E+02  0.51100000000E-03 0. -1.
    9900012    2    1    2    0    0  0.11433281875E+01 -0.16903614157E+00  0.23934719284E+00  0.90007720525E+02  0.89999981635E+02 0.  0.
        -12    1    1    2    0    0 -0.11433281875E+01  0.16903614157E+00 -0.23934719284E+00  0.11802794755E+01  0.00000000000E+00 0.  1.
         11    1    3    3    0    0  0.10147211870E+02  0.10260556273E+02 -0.50892969660E+01  0.15301825631E+02  0.51100000000E-03 0. -1.
        -11    1    3    3    0    0  0.20315059827E+02  0.20963162330E+02  0.11371223573E+02  0.31328270882E+02  0.51100000000E-03 0.  1.
         12    1    3    3    0    0 -0.29318943509E+02 -0.31392754744E+02 -0.60425794146E+01  0.43377624012E+02  0.00000000000E+00 0. -1.
</event>
<event>
 7    1  0.2879200E-015  0.9000771E+02  0.7816164E-02  0.1186339E+00
        -11   -1    0    0    0    0  0.00000000000E+00  0.00000000000E+00  0.45593999997E+02  0.45594000000E+02  0.51100000000E-03 0. -1.
         11   -1    0    0    0    0 -0.00000000000E+00 -0.00000000000E+00 -0.45593999997E+02  0.45594000000E+02  0.51100000000E-03 0.  1.
    9900012    2    1    2    0    0 -0.88572606090E+00 -0.72761022665E+00 -0.28135157000E+00  0.90007709357E+02  0.89999970320E+02 0.  0.
        -12    1    1    2    0    0  0.88572606090E+00  0.72761022665E+00  0.28135157000E+00  0.11802906434E+01  0.00000000000E+00 0.  1.
         11    1    3    3    0    0 -0.16763837298E+02 -0.27700894457E+02  0.19853636769E+02  0.37980688355E+02  0.51100000000E-03 0. -1.
        -11    1    3    3    0    0  0.14818724571E+01 -0.82454852987E+01  0.11085872795E+01  0.84506177175E+01  0.51100000000E-03 0.  1.
        -12    1    3    3    0    0  0.14396238780E+02  0.35218769529E+02 -0.21243575619E+02  0.43576403284E+02  0.00000000000E+00 0.  1.
</event>
<event>
 7    1  0.2879200E-015  0.9000775E+02  0.7816164E-02  0.1186339E+00
        -11   -1    0    0    0    0  0.00000000000E+00  0.00000000000E+00  0.45593999997E+02  0.45594000000E+02  0.51100000000E-03 0.  1.
         11   -1    0    0    0    0 -0.00000000000E+00 -0.00000000000E+00 -0.45593999997E+02  0.45594000000E+02  0.51100000000E-03 0. -1.
    9900012    2    1    2    0    0 -0.92037373742E-02 -0.11437441172E+01  0.29114520774E+00  0.90007745432E+02  0.90000006871E+02 0.  0.
        -12    1    1    2    0    0  0.92037373742E-02  0.11437441172E+01 -0.29114520774E+00  0.11802545685E+01  0.00000000000E+00 0.  1.
         11    1    3    3    0    0  0.13253337890E+02  0.22367818475E+01  0.21587161971E+01  0.13613016350E+02  0.51100000000E-03 0. -1.
        -11    1    3    3    0    0 -0.30466109817E+02 -0.22420732437E+02  0.19902447323E+02  0.42743192441E+02  0.51100000000E-03 0.  1.
         12    1    3    3    0    0  0.17203568189E+02  0.19040206472E+02 -0.21770018312E+02  0.33651536640E+02  0.00000000000E+00 0. -1.
</event>
<event>
 7    1  0.3792678E-015  0.9000772E+02  0.7816164E-02  0.1186339E+00
        -11   -1    0    0    0    0  0.00000000000E+00  0.00000000000E+00  0.45593999997E+02  0.45594000000E+02  0.51100000000E-03 0. -1.
         11   -1    0    0    0    0 -0.00000000000E+00 -0.00000000000E+00 -0.45593999997E+02  0.45594000000E+02  0.51100000000E-03 0.  1.
    9900012    2    1    2    0    0  0.12387542887E+00  0.98758590825E+00  0.63434082479E+00  0.90007720656E+02  0.89999981769E+02 0.  0.
        -12    1    1    2    0    0 -0.12387542887E+00 -0.98758590825E+00 -0.63434082479E+00  0.11802793441E+01  0.00000000000E+00 0.  1.
         11    1    3    3    0    0  0.12902848287E+02  0.24338455672E+02  0.23416112146E+02  0.36154643225E+02  0.51100000000E-03 0. -1.
        -11    1    3    3    0    0  0.35941235602E+01  0.94596174149E+01  0.96690775853E+00  0.10165480642E+02  0.51100000000E-03 0.  1.
        -12    1    3    3    0    0 -0.16373096419E+02 -0.32810487179E+02 -0.23748679080E+02  0.43687596790E+02  0.00000000000E+00 0.  1.
</event>
<event>
 7    1  0.2879200E-015  0.9000783E+02  0.7816164E-02  0.1186339E+00
        -11   -1    0    0    0    0  0.00000000000E+00  0.00000000000E+00  0.45593999997E+02  0.45594000000E+02  0.51100000000E-03 0. -1.
         11   -1    0    0    0    0 -0.00000000000E+00 -0.00000000000E+00 -0.45593999997E+02  0.45594000000E+02  0.51100000000E-03 0.  1.
    9900012    2    1    2    0    0  0.27961145058E+00 -0.10220420640E+00  0.11420026449E+01  0.90007831239E+02  0.90000093811E+02 0.  0.
        -12    1    1    2    0    0 -0.27961145058E+00  0.10220420640E+00 -0.11420026449E+01  0.11801687609E+01  0.00000000000E+00 0.  1.
         11    1    3    3    0    0  0.34785721033E+02 -0.35358995681E+01  0.24185225598E+02  0.42514398867E+02  0.51100000000E-03 0. -1.
        -11    1    3    3    0    0 -0.30786613846E+00  0.53176372471E+01 -0.90373649407E+01  0.10490281826E+02  0.51100000000E-03 0.  1.
        -12    1    3    3    0    0 -0.34198243444E+02 -0.18839418854E+01 -0.14005858012E+02  0.37003150546E+02  0.00000000000E+00 0.  1.
</event>
<event>
 7    1  0.2879200E-015  0.9000773E+02  0.7816164E-02  0.1186339E+00
        -11   -1    0    0    0    0  0.00000000000E+00  0.00000000000E+00  0.45593999997E+02  0.45594000000E+02  0.51100000000E-03 0. -1.
         11   -1    0    0    0    0 -0.00000000000E+00 -0.00000000000E+00 -0.45593999997E+02  0.45594000000E+02  0.51100000000E-03 0.  1.
    9900012    2    1    2    0    0 -0.91799809520E+00  0.23392150414E+00 -0.70398397329E+00  0.90007731722E+02  0.89999992981E+02 0.  0.
        -12    1    1    2    0    0  0.91799809520E+00 -0.23392150414E+00  0.70398397329E+00  0.11802682778E+01  0.00000000000E+00 0.  1.
         11    1    3    3    0    0 -0.32803578816E+02 -0.17626426484E+02  0.43125913817E-01  0.37239328053E+02  0.51100000000E-03 0. -1.
        -11    1    3    3    0    0 -0.50674870047E+01 -0.64655870075E+01 -0.21968600359E+01  0.85034954091E+01  0.51100000000E-03 0.  1.
        -12    1    3    3    0    0  0.36953067726E+02  0.24325934996E+02  0.14497501488E+01  0.44264908260E+02  0.00000000000E+00 0.  1.
</event>
<event>
 7    1  0.2879200E-015  0.9000782E+02  0.7816164E-02  0.1186339E+00
        -11   -1    0    0    0    0  0.00000000000E+00  0.00000000000E+00  0.45593999997E+02  0.45594000000E+02  0.51100000000E-03 0.  1.
         11   -1    0    0    0    0 -0.00000000000E+00 -0.00000000000E+00 -0.45593999997E+02  0.45594000000E+02  0.51100000000E-03 0. -1.
    9900012    2    1    2    0    0 -0.69028017733E+00 -0.16747578112E+00 -0.94249061215E+00  0.90007820601E+02  0.90000083033E+02 0.  0.
        -12    1    1    2    0    0  0.69028017733E+00  0.16747578112E+00  0.94249061215E+00  0.11801793993E+01  0.00000000000E+00 0.  1.
         11    1    3    3    0    0 -0.32306373828E+01 -0.50463526369E+01  0.48310477565E+01  0.76968640057E+01  0.51100000000E-03 0. -1.
        -11    1    3    3    0    0  0.27533105677E+02  0.21194539447E+02  0.22340278185E+02  0.41308212746E+02  0.51100000000E-03 0.  1.
         12    1    3    3    0    0 -0.24992748472E+02 -0.16315662591E+02 -0.28113816554E+02  0.41002743849E+02  0.00000000000E+00 0. -1.
</event>
<event>
 7    1  0.2879200E-015  0.9000781E+02  0.7816164E-02  0.1186339E+00
        -11   -1    0    0    0    0  0.00000000000E+00  0.00000000000E+00  0.45593999997E+02  0.45594000000E+02  0.51100000000E-03 0.  1.
         11   -1    0    0    0    0 -0.00000000000E+00 -0.00000000000E+00 -0.45593999997E+02  0.45594000000E+02  0.51100000000E-03 0. -1.
    9900012    2    1    2    0    0  0.26211930049E+00 -0.42879024823E+00 -0.10678373195E+01  0.90007811818E+02  0.90000074134E+02 0.  0.
        -12    1    1    2    0    0 -0.26211930049E+00  0.42879024823E+00  0.10678373195E+01  0.11801881823E+01  0.00000000000E+00 0.  1.
         11    1    3    3    0    0 -0.14555852875E+02 -0.20390460117E+02 -0.30510312244E+02  0.39478131543E+02  0.51100000000E-03 0. -1.
        -11    1    3    3    0    0 -0.54405388633E+01 -0.55804611111E-01 -0.38891290716E+01  0.66878922296E+01  0.51100000000E-03 0.  1.
        -12    1    3    3    0    0  0.20258511039E+02  0.20017474480E+02  0.33331603996E+02  0.43841788045E+02  0.00000000000E+00 0.  1.
</event>
<event>
 7    1  0.2879200E-015  0.9000772E+02  0.7816164E-02  0.1186339E+00
        -11   -1    0    0    0    0  0.00000000000E+00  0.00000000000E+00  0.45593999997E+02  0.45594000000E+02  0.51100000000E-03 0.  1.
         11   -1    0    0    0    0 -0.00000000000E+00 -0.00000000000E+00 -0.45593999997E+02  0.45594000000E+02  0.51100000000E-03 0. -1.
    9900012    2    1    2    0    0  0.48334147247E+00  0.79902799070E+00  0.72180658714E+00  0.90007716365E+02  0.89999977421E+02 0.  0.
        -12    1    1    2    0    0 -0.48334147247E+00 -0.79902799070E+00 -0.72180658714E+00  0.11802836346E+01  0.00000000000E+00 0.  1.
         11    1    3    3    0    0 -0.48984761803E+01 -0.91686579401E+00 -0.11137205586E+02  0.12201354855E+02  0.51100000000E-03 0. -1.
        -11    1    3    3    0    0  0.48155376898E+01 -0.30781891693E+02  0.27663244589E+02  0.41664965629E+02  0.51100000000E-03 0.  1.
         12    1    3    3    0    0  0.56627996290E+00  0.32497785478E+02 -0.15804232416E+02  0.36141395881E+02  0.00000000000E+00 0. -1.
</event>
<event>
 7    1  0.2879200E-015  0.9000808E+02  0.7816164E-02  0.1186338E+00
        -11   -1    0    0    0    0  0.00000000000E+00  0.00000000000E+00  0.45593999997E+02  0.45594000000E+02  0.51100000000E-03 0.  1.
         11   -1    0    0    0    0 -0.00000000000E+00 -0.00000000000E+00 -0.45593999997E+02  0.45594000000E+02  0.51100000000E-03 0. -1.
    9900012    2    1    2    0    0 -0.36953146203E+00  0.88212082736E+00 -0.69102783740E+00  0.90008080457E+02  0.90000346319E+02 0.  0.
        -12    1    1    2    0    0  0.36953146203E+00 -0.88212082736E+00  0.69102783740E+00  0.11799195428E+01  0.00000000000E+00 0.  1.
         11    1    3    3    0    0 -0.19374711421E+01  0.76285198132E+01  0.56482862096E+01  0.96876852928E+01  0.51100000000E-03 0. -1.
        -11    1    3    3    0    0 -0.18352636880E+02  0.25309444786E+02  0.17355484739E+02  0.35757518463E+02  0.51100000000E-03 0.  1.
         12    1    3    3    0    0  0.19920576560E+02 -0.32055843772E+02 -0.23694798786E+02  0.44562876702E+02  0.00000000000E+00 0. -1.
</event>
<event>
 7    1  0.2879200E-015  0.9000778E+02  0.7816164E-02  0.1186339E+00
        -11   -1    0    0    0    0  0.00000000000E+00  0.00000000000E+00  0.45593999997E+02  0.45594000000E+02  0.51100000000E-03 0. -1.
         11   -1    0    0    0    0 -0.00000000000E+00 -0.00000000000E+00 -0.45593999997E+02  0.45594000000E+02  0.51100000000E-03 0.  1.
    9900012    2    1    2    0    0  0.11724121376E+01 -0.14381198658E-01 -0.13472511543E+00  0.90007784809E+02  0.90000046769E+02 0.  0.
        -12    1    1    2    0    0 -0.11724121376E+01  0.14381198658E-01  0.13472511543E+00  0.11802151906E+01  0.00000000000E+00 0.  1.
         11    1    3    3    0    0  0.17032875000E+02  0.13113264191E+02  0.14503933556E+00  0.21496454712E+02  0.51100000000E-03 0. -1.
        -11    1    3    3    0    0 -0.24169824226E+02  0.21773184005E+02 -0.20140676413E+01  0.32593073092E+02  0.51100000000E-03 0.  1.
         12    1    3    3    0    0  0.83093613636E+01 -0.34900829395E+02  0.17343031903E+01  0.35918257006E+02  0.00000000000E+00 0. -1.
</event>
<event>
 7    1  0.2879200E-015  0.9000778E+02  0.7816164E-02  0.1186339E+00
        -11   -1    0    0    0    0  0.00000000000E+00  0.00000000000E+00  0.45593999997E+02  0.45594000000E+02  0.51100000000E-03 0.  1.
         11   -1    0    0    0    0 -0.00000000000E+00 -0.00000000000E+00 -0.45593999997E+02  0.45594000000E+02  0.51100000000E-03 0. -1.
    9900012    2    1    2    0    0  0.85891571867E+00 -0.58081581218E-01 -0.80735193047E+00  0.90007776792E+02  0.90000038645E+02 0.  0.
        -12    1    1    2    0    0 -0.85891571867E+00  0.58081581218E-01  0.80735193047E+00  0.11802232083E+01  0.00000000000E+00 0.  1.
         11    1    3    3    0    0 -0.54903444084E+01  0.30006877126E+01 -0.84884788736E+01  0.10545249277E+02  0.51100000000E-03 0. -1.
        -11    1    3    3    0    0 -0.25654138184E+02  0.17827893388E+02  0.22472804617E+02  0.38483704815E+02  0.51100000000E-03 0.  1.
         12    1    3    3    0    0  0.32003398311E+02 -0.20886662682E+02 -0.14791677674E+02  0.40978822700E+02  0.00000000000E+00 0. -1.
</event>
<event>
 7    1  0.2879200E-015  0.9000791E+02  0.7816164E-02  0.1186339E+00
        -11   -1    0    0    0    0  0.00000000000E+00  0.00000000000E+00  0.45593999997E+02  0.45594000000E+02  0.51100000000E-03 0.  1.
         11   -1    0    0    0    0 -0.00000000000E+00 -0.00000000000E+00 -0.45593999997E+02  0.45594000000E+02  0.51100000000E-03 0. -1.
    9900012    2    1    2    0    0  0.66459980330E+00  0.94233292328E+00  0.25083374905E+00  0.90007914492E+02  0.90000178163E+02 0.  0.
        -12    1    1    2    0    0 -0.66459980330E+00 -0.94233292328E+00 -0.25083374905E+00  0.11800855081E+01  0.00000000000E+00 0.  1.
         11    1    3    3    0    0 -0.16689608962E+02 -0.23301248315E+02 -0.20448208810E+02  0.35208244264E+02  0.51100000000E-03 0. -1.
        -11    1    3    3    0    0 -0.44778035328E+01 -0.39602806065E+01 -0.73149470200E+01  0.94468511753E+01  0.51100000000E-03 0.  1.
        -12    1    3    3    0    0  0.21832012298E+02  0.28203861844E+02  0.28013989579E+02  0.45352819053E+02  0.00000000000E+00 0.  1.
</event>
<event>
 7    1  0.2879200E-015  0.9000770E+02  0.7816164E-02  0.1186339E+00
        -11   -1    0    0    0    0  0.00000000000E+00  0.00000000000E+00  0.45593999997E+02  0.45594000000E+02  0.51100000000E-03 0. -1.
         11   -1    0    0    0    0 -0.00000000000E+00 -0.00000000000E+00 -0.45593999997E+02  0.45594000000E+02  0.51100000000E-03 0.  1.
    9900012    2    1    2    0    0 -0.79103469954E+00  0.86767823200E+00  0.12039511406E+00  0.90007704955E+02  0.89999965860E+02 0.  0.
        -12    1    1    2    0    0  0.79103469954E+00 -0.86767823200E+00 -0.12039511406E+00  0.11802950452E+01  0.00000000000E+00 0.  1.
         11    1    3    3    0    0 -0.17302172074E+02 -0.18356641448E+02  0.51493033783E+00  0.25230865963E+02  0.51100000000E-03 0. -1.
        -11    1    3    3    0    0 -0.33767422149E+00 -0.20730809063E+02  0.42557940698E+01  0.21165827452E+02  0.51100000000E-03 0.  1.
        -12    1    3    3    0    0  0.16848811596E+02  0.39955128743E+02 -0.46503292935E+01  0.43611011540E+02  0.00000000000E+00 0.  1.
</event>
<event>
 7    1  0.2879200E-015  0.9000772E+02  0.7816164E-02  0.1186339E+00
        -11   -1    0    0    0    0  0.00000000000E+00  0.00000000000E+00  0.45593999997E+02  0.45594000000E+02  0.51100000000E-03 0.  1.
         11   -1    0    0    0    0 -0.00000000000E+00 -0.00000000000E+00 -0.45593999997E+02  0.45594000000E+02  0.51100000000E-03 0. -1.
    9900012    2    1    2    0    0 -0.10139064683E+00 -0.10795576223E+01 -0.46618951481E+00  0.90007721479E+02  0.89999982603E+02 0.  0.
        -12    1    1    2    0    0  0.10139064683E+00  0.10795576223E+01  0.46618951481E+00  0.11802785208E+01  0.00000000000E+00 0.  1.
         11    1    3    3    0    0  0.14246927425E+02  0.14782110358E+02 -0.12492569664E+02  0.24032270487E+02  0.51100000000E-03 0. -1.
        -11    1    3    3    0    0 -0.66703973524E+01  0.22355722134E+02  0.13523203371E+02  0.26965710498E+02  0.51100000000E-03 0.  1.
         12    1    3    3    0    0 -0.76779207192E+01 -0.38217390114E+02 -0.14968232219E+01  0.39009740495E+02  0.00000000000E+00 0. -1.
</event>
<event>
 7    1  0.2879200E-015  0.9000783E+02  0.7816164E-02  0.1186339E+00
        -11   -1    0    0    0    0  0.00000000000E+00  0.00000000000E+00  0.45593999997E+02  0.45594000000E+02  0.51100000000E-03 0.  1.
         11   -1    0    0    0    0 -0.00000000000E+00 -0.00000000000E+00 -0.45593999997E+02  0.45594000000E+02  0.51100000000E-03 0. -1.
    9900012    2    1    2    0    0 -0.37806072971E+00  0.73719070326E+00 -0.84048558525E+00  0.90007832187E+02  0.90000094772E+02 0.  0.
        -12    1    1    2    0    0  0.37806072971E+00 -0.73719070326E+00  0.84048558525E+00  0.11801678132E+01  0.00000000000E+00 0.  1.
         11    1    3    3    0    0 -0.84832965031E+01  0.17128850449E+01  0.11937443806E+01  0.87364363813E+01  0.51100000000E-03 0. -1.
        -11    1    3    3    0    0 -0.23076161592E+02  0.18881736147E+02  0.22108219837E+02  0.37118763158E+02  0.51100000000E-03 0.  1.
         12    1    3    3    0    0  0.31181397365E+02 -0.19857430489E+02 -0.24142449803E+02  0.44152632648E+02  0.00000000000E+00 0. -1.
</event>
<event>
 7    1  0.2879200E-015  0.9000770E+02  0.7816164E-02  0.1186339E+00
        -11   -1    0    0    0    0  0.00000000000E+00  0.00000000000E+00  0.45593999997E+02  0.45594000000E+02  0.51100000000E-03 0.  1.
         11   -1    0    0    0    0 -0.00000000000E+00 -0.00000000000E+00 -0.45593999997E+02  0.45594000000E+02  0.51100000000E-03 0. -1.
    9900012    2    1    2    0    0 -0.11633737617E+01  0.19869893385E+00  0.13353800388E-01  0.90007704232E+02  0.89999965128E+02 0.  0.
        -12    1    1    2    0    0  0.11633737617E+01 -0.19869893385E+00 -0.13353800388E-01  0.11802957678E+01  0.00000000000E+00 0.  1.
         11    1    3    3    0    0  0.67011642126E+01  0.57106066974E+01 -0.45846731188E+01  0.99265229825E+01  0.51100000000E-03 0. -1.
        -11    1    3    3    0    0  0.34166293108E+02  0.89495894932E+01 -0.63772914076E+00  0.35324742541E+02  0.51100000000E-03 0.  1.
         12    1    3    3    0    0 -0.42030831082E+02 -0.14461497257E+02  0.52357560599E+01  0.44756438709E+02  0.00000000000E+00 0. -1.
</event>
<event>
 7    1  0.2879200E-015  0.9000771E+02  0.7816164E-02  0.1186339E+00
        -11   -1    0    0    0    0  0.00000000000E+00  0.00000000000E+00  0.45593999997E+02  0.45594000000E+02  0.51100000000E-03 0. -1.
         11   -1    0    0    0    0 -0.00000000000E+00 -0.00000000000E+00 -0.45593999997E+02  0.45594000000E+02  0.51100000000E-03 0.  1.
    9900012    2    1    2    0    0 -0.75563377610E+00 -0.13933558758E+00  0.89592670804E+00  0.90007711274E+02  0.89999972263E+02 0.  0.
        -12    1    1    2    0    0  0.75563377610E+00  0.13933558758E+00 -0.89592670804E+00  0.11802887256E+01  0.00000000000E+00 0.  1.
         11    1    3    3    0    0 -0.11640151545E+00  0.88094435962E+00 -0.68763982780E+01  0.69335752550E+01  0.51100000000E-03 0. -1.
        -11    1    3    3    0    0 -0.23170234266E+02 -0.32956370258E+02 -0.77421888705E+01  0.41023451650E+02  0.51100000000E-03 0.  1.
         12    1    3    3    0    0  0.22531002005E+02  0.31936090311E+02  0.15514513857E+02  0.42050684369E+02  0.00000000000E+00 0. -1.
</event>
<event>
 7    1  0.2879200E-015  0.9000747E+02  0.7816164E-02  0.1186340E+00
        -11   -1    0    0    0    0  0.00000000000E+00  0.00000000000E+00  0.45593999997E+02  0.45594000000E+02  0.51100000000E-03 0.  1.
         11   -1    0    0    0    0 -0.00000000000E+00 -0.00000000000E+00 -0.45593999997E+02  0.45594000000E+02  0.51100000000E-03 0. -1.
    9900012    2    1    2    0    0  0.68895624586E+00 -0.51376431769E-01 -0.95726123065E+00  0.90007470750E+02  0.89999728563E+02 0.  0.
        -12    1    1    2    0    0 -0.68895624586E+00  0.51376431769E-01  0.95726123065E+00  0.11805292500E+01  0.00000000000E+00 0.  1.
         11    1    3    3    0    0 -0.66550003454E+01  0.35190762928E+02 -0.17329890021E+02  0.39786981709E+02  0.51100000000E-03 0. -1.
        -11    1    3    3    0    0  0.90028339689E+01  0.23398813516E+01  0.28504708409E+00  0.93063051912E+01  0.51100000000E-03 0.  1.
        -12    1    3    3    0    0 -0.16588773776E+01 -0.37582020712E+02  0.16087581707E+02  0.40914183850E+02  0.00000000000E+00 0.  1.
</event>
<event>
 7    1  0.3299870E-015  0.9000775E+02  0.7816164E-02  0.1186339E+00
        -11   -1    0    0    0    0  0.00000000000E+00  0.00000000000E+00  0.45593999997E+02  0.45594000000E+02  0.51100000000E-03 0. -1.
         11   -1    0    0    0    0 -0.00000000000E+00 -0.00000000000E+00 -0.45593999997E+02  0.45594000000E+02  0.51100000000E-03 0.  1.
    9900012    2    1    2    0    0  0.67578477585E+00 -0.49044207062E+00  0.83412246131E+00  0.90007754785E+02  0.90000016348E+02 0.  0.
        -12    1    1    2    0    0 -0.67578477585E+00  0.49044207062E+00 -0.83412246131E+00  0.11802452154E+01  0.00000000000E+00 0.  1.
         11    1    3    3    0    0  0.11871584531E+02 -0.24370724739E+02  0.27025777707E+02  0.38278706934E+02  0.51100000000E-03 0. -1.
        -11    1    3    3    0    0  0.60642224600E+01 -0.64084127758E+01 -0.13576298913E+01  0.89266851369E+01  0.51100000000E-03 0.  1.
        -12    1    3    3    0    0 -0.17260022215E+02  0.30288695445E+02 -0.24834025354E+02  0.42802362714E+02  0.00000000000E+00 0.  1.
</event>
<event>
 7    1  0.2879200E-015  0.9000765E+02  0.7816164E-02  0.1186339E+00
        -11   -1    0    0    0    0  0.00000000000E+00  0.00000000000E+00  0.45593999997E+02  0.45594000000E+02  0.51100000000E-03 0. -1.
         11   -1    0    0    0    0 -0.00000000000E+00 -0.00000000000E+00 -0.45593999997E+02  0.45594000000E+02  0.51100000000E-03 0.  1.
    9900012    2    1    2    0    0  0.93517399484E+00 -0.29077075420E+00 -0.65888431250E+00  0.90007649811E+02  0.89999909988E+02 0.  0.
        -12    1    1    2    0    0 -0.93517399484E+00  0.29077075420E+00  0.65888431250E+00  0.11803501893E+01  0.00000000000E+00 0.  1.
         11    1    3    3    0    0  0.30280076792E+01 -0.62688454918E+01 -0.47742429290E+01  0.84416023427E+01  0.51100000000E-03 0. -1.
        -11    1    3    3    0    0  0.30139566124E+02 -0.75068248701E+01 -0.21900230339E+02  0.38004814892E+02  0.51100000000E-03 0.  1.
         12    1    3    3    0    0 -0.32232399809E+02  0.13484899608E+02  0.26015588956E+02  0.43561232576E+02  0.00000000000E+00 0. -1.
</event>
<event>
 7    1  0.2879200E-015  0.9000775E+02  0.7816164E-02  0.1186339E+00
        -11   -1    0    0    0    0  0.00000000000E+00  0.00000000000E+00  0.45593999997E+02  0.45594000000E+02  0.51100000000E-03 0.  1.
         11   -1    0    0    0    0 -0.00000000000E+00 -0.00000000000E+00 -0.45593999997E+02  0.45594000000E+02  0.51100000000E-03 0. -1.
    9900012    2    1    2    0    0 -0.45790575388E+00 -0.40100458833E+00 -0.10111959028E+01  0.90007745996E+02  0.90000007443E+02 0.  0.
        -12    1    1    2    0    0  0.45790575388E+00  0.40100458833E+00  0.10111959028E+01  0.11802540037E+01  0.00000000000E+00 0.  1.
         11    1    3    3    0    0  0.45115414378E+01 -0.19249971315E+02 -0.95747707458E+01  0.21967968428E+02  0.51100000000E-03 0. -1.
        -11    1    3    3    0    0 -0.17514522744E+02 -0.20002993156E+02  0.17170217414E+01  0.26642567557E+02  0.51100000000E-03 0.  1.
         12    1    3    3    0    0  0.12545075552E+02  0.38851959882E+02  0.68465531016E+01  0.41397210011E+02  0.00000000000E+00 0. -1.
</event>
<event>
 7    1  0.2879200E-015  0.9000751E+02  0.7816164E-02  0.1186339E+00
        -11   -1    0    0    0    0  0.00000000000E+00  0.00000000000E+00  0.45593999997E+02  0.45594000000E+02  0.51100000000E-03 0.  1.
         11   -1    0    0    0    0 -0.00000000000E+00 -0.00000000000E+00 -0.45593999997E+02  0.45594000000E+02  0.51100000000E-03 0. -1.
    9900012    2    1    2    0    0  0.81101679065E+00  0.76402161495E+00 -0.38996228515E+00  0.90007513724E+02  0.89999772105E+02 0.  0.
        -12    1    1    2    0    0 -0.81101679065E+00 -0.76402161495E+00  0.38996228515E+00  0.11804862755E+01  0.00000000000E+00 0.  1.
         11    1    3    3    0    0 -0.72008549921E+01 -0.75890971277E+01 -0.20174400236E+01  0.10654425012E+02  0.51100000000E-03 0. -1.
        -11    1    3    3    0    0 -0.25979018797E+02  0.19562450972E+02  0.20944352664E+02  0.38681582368E+02  0.51100000000E-03 0.  1.
         12    1    3    3    0    0  0.33990890580E+02 -0.11209332230E+02 -0.19316874926E+02  0.40671506344E+02  0.00000000000E+00 0. -1.
</event>
<event>
 7    1  0.2879200E-015  0.9000770E+02  0.7816164E-02  0.1186339E+00
        -11   -1    0    0    0    0  0.00000000000E+00  0.00000000000E+00  0.45593999997E+02  0.45594000000E+02  0.51100000000E-03 0.  1.
         11   -1    0    0    0    0 -0.00000000000E+00 -0.00000000000E+00 -0.45593999997E+02  0.45594000000E+02  0.51100000000E-03 0. -1.
    9900012    2    1    2    0    0  0.95147525595E+00  0.18017581866E-01 -0.69819397799E+00  0.90007701467E+02  0.89999962326E+02 0.  0.
        -12    1    1    2    0    0 -0.95147525595E+00 -0.18017581866E-01  0.69819397799E+00  0.11802985329E+01  0.00000000000E+00 0.  1.
         11    1    3    3    0    0  0.35418340197E+02  0.11626259595E+02 -0.10874360486E+02  0.38831436372E+02  0.51100000000E-03 0. -1.
        -11    1    3    3    0    0 -0.20172499510E+01  0.50431860771E+01 -0.85867522644E+01  0.10160479215E+02  0.51100000000E-03 0.  1.
        -12    1    3    3    0    0 -0.32449614990E+02 -0.16651428090E+02  0.18762918773E+02  0.41015785880E+02  0.00000000000E+00 0.  1.
</event>
<event>
 7    1  0.2983972E-015  0.9000790E+02  0.7816164E-02  0.1186339E+00
        -11   -1    0    0    0    0  0.00000000000E+00  0.00000000000E+00  0.45593999997E+02  0.45594000000E+02  0.51100000000E-03 0.  1.
         11   -1    0    0    0    0 -0.00000000000E+00 -0.00000000000E+00 -0.45593999997E+02  0.45594000000E+02  0.51100000000E-03 0. -1.
    9900012    2    1    2    0    0 -0.98250007417E+00  0.60824313058E+00  0.23950819540E+00  0.90007902429E+02  0.90000165941E+02 0.  0.
        -12    1    1    2    0    0  0.98250007417E+00 -0.60824313058E+00 -0.23950819540E+00  0.11800975711E+01  0.00000000000E+00 0.  1.
         11    1    3    3    0    0 -0.39547367718E+01  0.36432237607E+02  0.15754953758E+02  0.39889427774E+02  0.51100000000E-03 0. -1.
        -11    1    3    3    0    0 -0.92580801140E+01  0.45006230556E+00 -0.17142243671E+01  0.94261958879E+01  0.51100000000E-03 0.  1.
        -12    1    3    3    0    0  0.12230316812E+02 -0.36274056782E+02 -0.13801221195E+02  0.40692278767E+02  0.00000000000E+00 0.  1.
</event>
<event>
 7    1  0.2879200E-015  0.9000772E+02  0.7816164E-02  0.1186339E+00
        -11   -1    0    0    0    0  0.00000000000E+00  0.00000000000E+00  0.45593999997E+02  0.45594000000E+02  0.51100000000E-03 0.  1.
         11   -1    0    0    0    0 -0.00000000000E+00 -0.00000000000E+00 -0.45593999997E+02  0.45594000000E+02  0.51100000000E-03 0. -1.
    9900012    2    1    2    0    0 -0.10778849698E+00  0.99647589050E+00 -0.62328395786E+00  0.90007718062E+02  0.89999979141E+02 0.  0.
        -12    1    1    2    0    0  0.10778849698E+00 -0.99647589050E+00  0.62328395786E+00  0.11802819377E+01  0.00000000000E+00 0.  1.
         11    1    3    3    0    0  0.24087377970E+02  0.10978157841E+02  0.51871585528E+01  0.26974586951E+02  0.51100000000E-03 0. -1.
        -11    1    3    3    0    0  0.15765850781E+02 -0.10668021267E+02  0.81374227397E+01  0.20702327833E+02  0.51100000000E-03 0.  1.
         12    1    3    3    0    0 -0.39961017248E+02  0.68633931647E+00 -0.13947865250E+02  0.42330803278E+02  0.00000000000E+00 0. -1.
</event>
<event>
 7    1  0.2879200E-015  0.9000787E+02  0.7816164E-02  0.1186339E+00
        -11   -1    0    0    0    0  0.00000000000E+00  0.00000000000E+00  0.45593999997E+02  0.45594000000E+02  0.51100000000E-03 0.  1.
         11   -1    0    0    0    0 -0.00000000000E+00 -0.00000000000E+00 -0.45593999997E+02  0.45594000000E+02  0.51100000000E-03 0. -1.
    9900012    2    1    2    0    0 -0.49350671481E+00  0.72450676381E+00 -0.79008994664E+00  0.90007872442E+02  0.90000135559E+02 0.  0.
        -12    1    1    2    0    0  0.49350671481E+00 -0.72450676381E+00  0.79008994664E+00  0.11801275576E+01  0.00000000000E+00 0.  1.
         11    1    3    3    0    0  0.49539022246E+01 -0.12103054452E+01 -0.73008609046E+01  0.89055351738E+01  0.51100000000E-03 0. -1.
        -11    1    3    3    0    0  0.37523610965E+02 -0.18097757670E+01  0.54070417312E+01  0.37954351117E+02  0.51100000000E-03 0.  1.
         12    1    3    3    0    0 -0.42971019904E+02  0.37445879761E+01  0.11037292268E+01  0.43147986152E+02  0.00000000000E+00 0. -1.
</event>
<event>
 7    1  0.2879200E-015  0.9000767E+02  0.7816164E-02  0.1186339E+00
        -11   -1    0    0    0    0  0.00000000000E+00  0.00000000000E+00  0.45593999997E+02  0.45594000000E+02  0.51100000000E-03 0.  1.
         11   -1    0    0    0    0 -0.00000000000E+00 -0.00000000000E+00 -0.45593999997E+02  0.45594000000E+02  0.51100000000E-03 0. -1.
    9900012    2    1    2    0    0 -0.10935316581E+01 -0.32007046813E+00 -0.30807656549E+00  0.90007674722E+02  0.89999935228E+02 0.  0.
        -12    1    1    2    0    0  0.10935316581E+01  0.32007046813E+00  0.30807656549E+00  0.11803252781E+01  0.00000000000E+00 0.  1.
         11    1    3    3    0    0 -0.25603636787E+02  0.12423344666E+02 -0.17083871412E+02  0.33192534885E+02  0.51100000000E-03 0. -1.
        -11    1    3    3    0    0 -0.98217699651E+01 -0.74298538825E+00  0.17897692757E+02  0.20429062602E+02  0.51100000000E-03 0.  1.
         12    1    3    3    0    0  0.34331875094E+02 -0.12000429746E+02 -0.11218979105E+01  0.36386077234E+02  0.00000000000E+00 0. -1.
</event>
<event>
 7    1  0.2879200E-015  0.9000761E+02  0.7816164E-02  0.1186339E+00
        -11   -1    0    0    0    0  0.00000000000E+00  0.00000000000E+00  0.45593999997E+02  0.45594000000E+02  0.51100000000E-03 0.  1.
         11   -1    0    0    0    0 -0.00000000000E+00 -0.00000000000E+00 -0.45593999997E+02  0.45594000000E+02  0.51100000000E-03 0. -1.
    9900012    2    1    2    0    0  0.79180917648E+00 -0.70202617943E+00 -0.52299946772E+00  0.90007605586E+02  0.89999865180E+02 0.  0.
        -12    1    1    2    0    0 -0.79180917648E+00  0.70202617943E+00  0.52299946772E+00  0.11803944137E+01  0.00000000000E+00 0.  1.
         11    1    3    3    0    0  0.62755225608E+00 -0.83305155057E+01  0.34665450419E+01  0.90447910542E+01  0.51100000000E-03 0. -1.
        -11    1    3    3    0    0  0.12973128063E+00 -0.38980907639E+01  0.37601919365E+02  0.37803654347E+02  0.51100000000E-03 0.  1.
         12    1    3    3    0    0  0.34525639771E-01  0.11526580090E+02 -0.41591463875E+02  0.43159160185E+02  0.00000000000E+00 0. -1.
</event>
<event>
 7    1  0.2879200E-015  0.9000776E+02  0.7816164E-02  0.1186339E+00
        -11   -1    0    0    0    0  0.00000000000E+00  0.00000000000E+00  0.45593999997E+02  0.45594000000E+02  0.51100000000E-03 0. -1.
         11   -1    0    0    0    0 -0.00000000000E+00 -0.00000000000E+00 -0.45593999997E+02  0.45594000000E+02  0.51100000000E-03 0.  1.
    9900012    2    1    2    0    0 -0.44214359522E+00  0.92518969809E+00 -0.58437309291E+00  0.90007763224E+02  0.90000024898E+02 0.  0.
        -12    1    1    2    0    0  0.44214359522E+00 -0.92518969809E+00  0.58437309291E+00  0.11802367762E+01  0.00000000000E+00 0.  1.
         11    1    3    3    0    0 -0.27619886999E+01 -0.22042053563E+02  0.30309714962E+02  0.37578711104E+02  0.51100000000E-03 0. -1.
        -11    1    3    3    0    0 -0.71259759423E+01  0.13995907742E+02  0.31139231578E+01  0.16011292401E+02  0.51100000000E-03 0.  1.
        -12    1    3    3    0    0  0.94458210470E+01  0.89713355193E+01 -0.34008011213E+02  0.36417759719E+02  0.00000000000E+00 0.  1.
</event>
<event>
 7    1  0.2879200E-015  0.9000777E+02  0.7816164E-02  0.1186339E+00
        -11   -1    0    0    0    0  0.00000000000E+00  0.00000000000E+00  0.45593999997E+02  0.45594000000E+02  0.51100000000E-03 0. -1.
         11   -1    0    0    0    0 -0.00000000000E+00 -0.00000000000E+00 -0.45593999997E+02  0.45594000000E+02  0.51100000000E-03 0.  1.
    9900012    2    1    2    0    0  0.60194390572E+00 -0.19615019576E+00  0.99605286749E+00  0.90007774310E+02  0.90000036131E+02 0.  0.
        -12    1    1    2    0    0 -0.60194390572E+00  0.19615019576E+00 -0.99605286749E+00  0.11802256902E+01  0.00000000000E+00 0.  1.
         11    1    3    3    0    0  0.59309675847E+01  0.73935404826E+00  0.86155834036E+01  0.10485766474E+02  0.51100000000E-03 0. -1.
        -11    1    3    3    0    0  0.32138081980E+02 -0.18973047666E+02 -0.67743650642E+01  0.37930526932E+02  0.51100000000E-03 0.  1.
         12    1    3    3    0    0 -0.37467105659E+02  0.18037543421E+02 -0.84516547190E+00  0.41591480904E+02  0.00000000000E+00 0. -1.
</event>
<event>
 7    1  0.2879200E-015  0.9000771E+02  0.7816164E-02  0.1186339E+00
        -11   -1    0    0    0    0  0.00000000000E+00  0.00000000000E+00  0.45593999997E+02  0.45594000000E+02  0.51100000000E-03 0.  1.
         11   -1    0    0    0    0 -0.00000000000E+00 -0.00000000000E+00 -0.45593999997E+02  0.45594000000E+02  0.51100000000E-03 0. -1.
    9900012    2    1    2    0    0 -0.53717398935E+00  0.93111389120E+00 -0.48738605626E+00  0.90007714382E+02  0.89999975411E+02 0.  0.
        -12    1    1    2    0    0  0.53717398935E+00 -0.93111389120E+00  0.48738605626E+00  0.11802856184E+01  0.00000000000E+00 0.  1.
         11    1    3    3    0    0  0.56999408170E+01  0.71295738043E+01  0.26817689113E+01  0.95137811990E+01  0.51100000000E-03 0. -1.
        -11    1    3    3    0    0  0.16676117269E+02  0.22550332390E+02  0.22248720893E+02  0.35799664240E+02  0.51100000000E-03 0.  1.
         12    1    3    3    0    0 -0.22913232076E+02 -0.28748792303E+02 -0.25417875860E+02  0.44694268942E+02  0.00000000000E+00 0. -1.
</event>
<event>
 7    1  0.2879200E-015  0.9000779E+02  0.7816164E-02  0.1186339E+00
        -11   -1    0    0    0    0  0.00000000000E+00  0.00000000000E+00  0.45593999997E+02  0.45594000000E+02  0.51100000000E-03 0. -1.
         11   -1    0    0    0    0 -0.00000000000E+00 -0.00000000000E+00 -0.45593999997E+02  0.45594000000E+02  0.51100000000E-03 0.  1.
    9900012    2    1    2    0    0 -0.61341008833E+00 -0.91827377691E+00 -0.41641834889E+00  0.90007786923E+02  0.90000048910E+02 0.  0.
        -12    1    1    2    0    0  0.61341008833E+00  0.91827377691E+00  0.41641834889E+00  0.11802130770E+01  0.00000000000E+00 0.  1.
         11    1    3    3    0    0  0.70302679737E+01 -0.62884089449E+01  0.22201052855E+01  0.96900785642E+01  0.51100000000E-03 0. -1.
        -11    1    3    3    0    0  0.93019018778E+01 -0.28685620884E+02 -0.22291859124E+02  0.37500896089E+02  0.51100000000E-03 0.  1.
         12    1    3    3    0    0 -0.16945579940E+02  0.34055756052E+02  0.19655335489E+02  0.42816812270E+02  0.00000000000E+00 0. -1.
</event>
<event>
 7    1  0.2879200E-015  0.9000802E+02  0.7816164E-02  0.1186338E+00
        -11   -1    0    0    0    0  0.00000000000E+00  0.00000000000E+00  0.45593999997E+02  0.45594000000E+02  0.51100000000E-03 0.  1.
         11   -1    0    0    0    0 -0.00000000000E+00 -0.00000000000E+00 -0.45593999997E+02  0.45594000000E+02  0.51100000000E-03 0. -1.
    9900012    2    1    2    0    0  0.75383661974E+00 -0.89796081031E+00 -0.13320391292E+00  0.90008022649E+02  0.90000287748E+02 0.  0.
        -12    1    1    2    0    0 -0.75383661974E+00  0.89796081031E+00  0.13320391292E+00  0.11799773509E+01  0.00000000000E+00 0.  1.
         11    1    3    3    0    0  0.47047123181E+01 -0.25343549491E+02 -0.28630077321E+02  0.38524163151E+02  0.51100000000E-03 0. -1.
        -11    1    3    3    0    0 -0.78386800044E+01  0.13851114650E+01 -0.58871955285E+01  0.99006317694E+01  0.51100000000E-03 0.  1.
        -12    1    3    3    0    0  0.38878043060E+01  0.23060477216E+02  0.34384068937E+02  0.41583227729E+02  0.00000000000E+00 0.  1.
</event>
<event>
 7    1  0.2879200E-015  0.9000759E+02  0.7816164E-02  0.1186339E+00
        -11   -1    0    0    0    0  0.00000000000E+00  0.00000000000E+00  0.45593999997E+02  0.45594000000E+02  0.51100000000E-03 0. -1.
         11   -1    0    0    0    0 -0.00000000000E+00 -0.00000000000E+00 -0.45593999997E+02  0.45594000000E+02  0.51100000000E-03 0.  1.
    9900012    2    1    2    0    0 -0.51620559934E+00 -0.42327574678E+00  0.97351628229E+00  0.90007591371E+02  0.89999850777E+02 0.  0.
        -12    1    1    2    0    0  0.51620559934E+00  0.42327574678E+00 -0.97351628229E+00  0.11804086286E+01  0.00000000000E+00 0.  1.
         11    1    3    3    0    0 -0.12012419373E+02  0.36480730218E+02 -0.11162742793E+02  0.39996858919E+02  0.51100000000E-03 0. -1.
        -11    1    3    3    0    0  0.58211034678E+01  0.21623074253E+01 -0.39752304124E+01  0.73731456026E+01  0.51100000000E-03 0.  1.
        -12    1    3    3    0    0  0.56751103056E+01 -0.39066313390E+02  0.16111489488E+02  0.42637586850E+02  0.00000000000E+00 0.  1.
</event>
<event>
 7    1  0.2879200E-015  0.9000777E+02  0.7816164E-02  0.1186339E+00
        -11   -1    0    0    0    0  0.00000000000E+00  0.00000000000E+00  0.45593999997E+02  0.45594000000E+02  0.51100000000E-03 0.  1.
         11   -1    0    0    0    0 -0.00000000000E+00 -0.00000000000E+00 -0.45593999997E+02  0.45594000000E+02  0.51100000000E-03 0. -1.
    9900012    2    1    2    0    0 -0.11810602671E-01 -0.46487619771E+00 -0.10847532046E+01  0.90007771681E+02  0.90000033467E+02 0.  0.
        -12    1    1    2    0    0  0.11810602671E-01  0.46487619771E+00  0.10847532046E+01  0.11802283188E+01  0.00000000000E+00 0.  1.
         11    1    3    3    0    0 -0.24714155594E+02 -0.25297691967E+02 -0.11859936979E+02  0.37301753457E+02  0.51100000000E-03 0. -1.
        -11    1    3    3    0    0 -0.77725222633E+01 -0.34726837689E+01  0.18715891608E+01  0.87163341572E+01  0.51100000000E-03 0.  1.
        -12    1    3    3    0    0  0.32474867254E+02  0.28305499538E+02  0.89035946137E+01  0.43989684067E+02  0.00000000000E+00 0.  1.
</event>
<event>
 7    1  0.2879200E-015  0.9000779E+02  0.7816164E-02  0.1186339E+00
        -11   -1    0    0    0    0  0.00000000000E+00  0.00000000000E+00  0.45593999997E+02  0.45594000000E+02  0.51100000000E-03 0. -1.
         11   -1    0    0    0    0 -0.00000000000E+00 -0.00000000000E+00 -0.45593999997E+02  0.45594000000E+02  0.51100000000E-03 0.  1.
    9900012    2    1    2    0    0  0.20184709655E-01 -0.74929027942E+00  0.91162507554E+00  0.90007786619E+02  0.90000048603E+02 0.  0.
        -12    1    1    2    0    0 -0.20184709655E-01  0.74929027942E+00 -0.91162507554E+00  0.11802133806E+01  0.00000000000E+00 0.  1.
         11    1    3    3    0    0  0.67852552396E+01 -0.94599345224E+01  0.34310492723E+01  0.12136809680E+02  0.51100000000E-03 0. -1.
        -11    1    3    3    0    0  0.29574462169E+02 -0.88659503175E+01 -0.16679807638E+02  0.35092305007E+02  0.51100000000E-03 0.  1.
         12    1    3    3    0    0 -0.36339532699E+02  0.17576594560E+02  0.14160383442E+02  0.42778671932E+02  0.00000000000E+00 0. -1.
</event>
<event>
 7    1  0.2879200E-015  0.9000780E+02  0.7816164E-02  0.1186339E+00
        -11   -1    0    0    0    0  0.00000000000E+00  0.00000000000E+00  0.45593999997E+02  0.45594000000E+02  0.51100000000E-03 0. -1.
         11   -1    0    0    0    0 -0.00000000000E+00 -0.00000000000E+00 -0.45593999997E+02  0.45594000000E+02  0.51100000000E-03 0.  1.
    9900012    2    1    2    0    0 -0.76017345399E+00  0.67388097304E+00  0.60074013778E+00  0.90007801729E+02  0.90000063912E+02 0.  0.
        -12    1    1    2    0    0  0.76017345399E+00 -0.67388097304E+00 -0.60074013778E+00  0.11801982711E+01  0.00000000000E+00 0.  1.
         11    1    3    3    0    0 -0.25644577936E+01  0.17207860569E+02  0.32911933466E+02  0.37227439797E+02  0.51100000000E-03 0. -1.
        -11    1    3    3    0    0 -0.86068526112E+01  0.44321180873E+01  0.32449236348E+01  0.10210343396E+02  0.51100000000E-03 0.  1.
        -12    1    3    3    0    0  0.10411136951E+02 -0.20966097683E+02 -0.35556116963E+02  0.42570018536E+02  0.00000000000E+00 0.  1.
</event>
<event>
 7    1  0.2879200E-015  0.9000770E+02  0.7816164E-02  0.1186339E+00
        -11   -1    0    0    0    0  0.00000000000E+00  0.00000000000E+00  0.45593999997E+02  0.45594000000E+02  0.51100000000E-03 0.  1.
         11   -1    0    0    0    0 -0.00000000000E+00 -0.00000000000E+00 -0.45593999997E+02  0.45594000000E+02  0.51100000000E-03 0. -1.
    9900012    2    1    2    0    0 -0.72853184313E+00  0.35680685163E+00 -0.85733877234E+00  0.90007703619E+02  0.89999964507E+02 0.  0.
        -12    1    1    2    0    0  0.72853184313E+00 -0.35680685163E+00  0.85733877234E+00  0.11802963807E+01  0.00000000000E+00 0.  1.
         11    1    3    3    0    0  0.13148158626E+02  0.27797117764E+01  0.27359653882E+02  0.30481987035E+02  0.51100000000E-03 0. -1.
        -11    1    3    3    0    0 -0.81438882863E+01  0.19528564533E+02  0.25353926715E+01  0.21309996842E+02  0.51100000000E-03 0.  1.
         12    1    3    3    0    0 -0.57328021831E+01 -0.21951469457E+02 -0.30752385326E+02  0.38215719742E+02  0.00000000000E+00 0. -1.
</event>
<event>
 7    1  0.2879200E-015  0.9000777E+02  0.7816164E-02  0.1186339E+00
        -11   -1    0    0    0    0  0.00000000000E+00  0.00000000000E+00  0.45593999997E+02  0.45594000000E+02  0.51100000000E-03 0.  1.
         11   -1    0    0    0    0 -0.00000000000E+00 -0.00000000000E+00 -0.45593999997E+02  0.45594000000E+02  0.51100000000E-03 0. -1.
    9900012    2    1    2    0    0 -0.98226737020E+00 -0.62714925353E+00 -0.18648568028E+00  0.90007770242E+02  0.90000032009E+02 0.  0.
        -12    1    1    2    0    0  0.98226737020E+00  0.62714925353E+00  0.18648568028E+00  0.11802297580E+01  0.00000000000E+00 0.  1.
         11    1    3    3    0    0 -0.50025525237E+01 -0.28689977359E+01 -0.82962162054E+01  0.10103656930E+02  0.51100000000E-03 0. -1.
        -11    1    3    3    0    0 -0.35323873252E+02  0.10452746495E+02  0.13745934558E+02  0.39319036712E+02  0.51100000000E-03 0.  1.
         12    1    3    3    0    0  0.39344158405E+02 -0.82108980125E+01 -0.56362040323E+01  0.40585076601E+02  0.00000000000E+00 0. -1.
</event>
<event>
 7    1  0.2879200E-015  0.9000822E+02  0.7816164E-02  0.1186338E+00
        -11   -1    0    0    0    0  0.00000000000E+00  0.00000000000E+00  0.45593999997E+02  0.45594000000E+02  0.51100000000E-03 0.  1.
         11   -1    0    0    0    0 -0.00000000000E+00 -0.00000000000E+00 -0.45593999997E+02  0.45594000000E+02  0.51100000000E-03 0. -1.
    9900012    2    1    2    0    0 -0.87592642040E-01  0.49601363779E+00 -0.10668494167E+01  0.90008224734E+02  0.90000492499E+02 0.  0.
        -12    1    1    2    0    0  0.87592642040E-01 -0.49601363779E+00  0.10668494167E+01  0.11797752658E+01  0.00000000000E+00 0.  1.
         11    1    3    3    0    0 -0.21181944965E+02 -0.19383383713E+02 -0.16446272227E+02  0.33088823296E+02  0.51100000000E-03 0. -1.
        -11    1    3    3    0    0 -0.14654395286E+02  0.72141059199E+01  0.10187381001E+01  0.16365587463E+02  0.51100000000E-03 0.  1.
         12    1    3    3    0    0  0.35748747609E+02  0.12665291431E+02  0.14360684711E+02  0.40553813976E+02  0.00000000000E+00 0. -1.
</event>
<event>
 7    1  0.2879200E-015  0.9000771E+02  0.7816164E-02  0.1186339E+00
        -11   -1    0    0    0    0  0.00000000000E+00  0.00000000000E+00  0.45593999997E+02  0.45594000000E+02  0.51100000000E-03 0.  1.
         11   -1    0    0    0    0 -0.00000000000E+00 -0.00000000000E+00 -0.45593999997E+02  0.45594000000E+02  0.51100000000E-03 0. -1.
    9900012    2    1    2    0    0 -0.89019882674E+00  0.70130046895E+00 -0.32987720213E+00  0.90007705432E+02  0.89999966344E+02 0.  0.
        -12    1    1    2    0    0  0.89019882674E+00 -0.70130046895E+00  0.32987720213E+00  0.11802945680E+01  0.00000000000E+00 0.  1.
         11    1    3    3    0    0  0.71165012287E+01 -0.39301728764E+01  0.48566857874E+01  0.94698598551E+01  0.51100000000E-03 0. -1.
        -11    1    3    3    0    0  0.31359885990E+02 -0.81851453951E+01 -0.18161198865E+02  0.37151960903E+02  0.51100000000E-03 0.  1.
         12    1    3    3    0    0 -0.39366586046E+02  0.12816618740E+02  0.12974635876E+02  0.43385884674E+02  0.00000000000E+00 0. -1.
</event>
<event>
 7    1  0.2879200E-015  0.9000733E+02  0.7816164E-02  0.1186340E+00
        -11   -1    0    0    0    0  0.00000000000E+00  0.00000000000E+00  0.45593999997E+02  0.45594000000E+02  0.51100000000E-03 0. -1.
         11   -1    0    0    0    0 -0.00000000000E+00 -0.00000000000E+00 -0.45593999997E+02  0.45594000000E+02  0.51100000000E-03 0.  1.
    9900012    2    1    2    0    0  0.11571095199E+01  0.23196310092E+00 -0.35652140471E-01  0.90007330530E+02  0.89999586493E+02 0.  0.
        -12    1    1    2    0    0 -0.11571095199E+01 -0.23196310092E+00  0.35652140471E-01  0.11806694695E+01  0.00000000000E+00 0.  1.
         11    1    3    3    0    0 -0.25785397120E+02 -0.19414910306E+02 -0.14622641296E+02  0.35435110915E+02  0.51100000000E-03 0. -1.
        -11    1    3    3    0    0 -0.52026308419E+01 -0.83994504828E+01  0.18586191045E+01  0.10053487023E+02  0.51100000000E-03 0.  1.
        -12    1    3    3    0    0  0.32145137482E+02  0.28046323890E+02  0.12728370051E+02  0.44518732592E+02  0.00000000000E+00 0.  1.
</event>
<event>
 7    1  0.2879200E-015  0.9000776E+02  0.7816164E-02  0.1186339E+00
        -11   -1    0    0    0    0  0.00000000000E+00  0.00000000000E+00  0.45593999997E+02  0.45594000000E+02  0.51100000000E-03 0.  1.
         11   -1    0    0    0    0 -0.00000000000E+00 -0.00000000000E+00 -0.45593999997E+02  0.45594000000E+02  0.51100000000E-03 0. -1.
    9900012    2    1    2    0    0 -0.10188973352E+01  0.52429926529E+00 -0.28270519183E+00  0.90007761158E+02  0.90000022805E+02 0.  0.
        -12    1    1    2    0    0  0.10188973352E+01 -0.52429926529E+00  0.28270519183E+00  0.11802388423E+01  0.00000000000E+00 0.  1.
         11    1    3    3    0    0  0.59430140886E+01  0.14582375301E+01  0.29515170894E+01  0.67939183496E+01  0.51100000000E-03 0. -1.
        -11    1    3    3    0    0  0.18055862053E+02 -0.12109948867E+02  0.31933503961E+02  0.38631770494E+02  0.51100000000E-03 0.  1.
         12    1    3    3    0    0 -0.25017773477E+02  0.11176010602E+02 -0.35167726243E+02  0.44582072314E+02  0.00000000000E+00 0. -1.
</event>
<event>
 7    1  0.2879200E-015  0.9000769E+02  0.7816164E-02  0.1186339E+00
        -11   -1    0    0    0    0  0.00000000000E+00  0.00000000000E+00  0.45593999997E+02  0.45594000000E+02  0.51100000000E-03 0. -1.
         11   -1    0    0    0    0 -0.00000000000E+00 -0.00000000000E+00 -0.45593999997E+02  0.45594000000E+02  0.51100000000E-03 0.  1.
    9900012    2    1    2    0    0  0.80521289480E-01  0.38576628632E+00  0.11125821990E+01  0.90007687137E+02  0.89999947807E+02 0.  0.
        -12    1    1    2    0    0 -0.80521289480E-01 -0.38576628632E+00 -0.11125821990E+01  0.11803128633E+01  0.00000000000E+00 0.  1.
         11    1    3    3    0    0  0.74476838577E-01  0.96864085030E+01  0.44425761759E+00  0.96968768981E+01  0.51100000000E-03 0. -1.
        -11    1    3    3    0    0 -0.24188202829E+02  0.23007837185E+02 -0.15529791962E+02  0.36818530208E+02  0.51100000000E-03 0.  1.
         12    1    3    3    0    0  0.24194247280E+02 -0.32308479401E+02  0.16198116544E+02  0.43492280030E+02  0.00000000000E+00 0. -1.
</event>
<event>
 7    1  0.3362049E-015  0.9000778E+02  0.7816164E-02  0.1186339E+00
        -11   -1    0    0    0    0  0.00000000000E+00  0.00000000000E+00  0.45593999997E+02  0.45594000000E+02  0.51100000000E-03 0. -1.
         11   -1    0    0    0    0 -0.00000000000E+00 -0.00000000000E+00 -0.45593999997E+02  0.45594000000E+02  0.51100000000E-03 0.  1.
    9900012    2    1    2    0    0 -0.24024164045E+00 -0.98643568487E+00  0.60178138829E+00  0.90007782967E+02  0.90000044902E+02 0.  0.
        -12    1    1    2    0    0  0.24024164045E+00  0.98643568487E+00 -0.60178138829E+00  0.11802170332E+01  0.00000000000E+00 0.  1.
         11    1    3    3    0    0  0.29154686029E+01 -0.17519378057E+02  0.32389979735E+02  0.36939671793E+02  0.51100000000E-03 0. -1.
        -11    1    3    3    0    0 -0.50371016808E+01 -0.26045931321E+01  0.74550537939E+01  0.93666496710E+01  0.51100000000E-03 0.  1.
        -12    1    3    3    0    0  0.18813914374E+01  0.19137535504E+02 -0.39243252141E+02  0.43701461503E+02  0.00000000000E+00 0.  1.
</event>
<event>
 7    1  0.2879200E-015  0.9000784E+02  0.7816164E-02  0.1186339E+00
        -11   -1    0    0    0    0  0.00000000000E+00  0.00000000000E+00  0.45593999997E+02  0.45594000000E+02  0.51100000000E-03 0. -1.
         11   -1    0    0    0    0 -0.00000000000E+00 -0.00000000000E+00 -0.45593999997E+02  0.45594000000E+02  0.51100000000E-03 0.  1.
    9900012    2    1    2    0    0  0.95984958613E+00  0.67169289497E+00  0.14242727770E+00  0.90007844035E+02  0.90000106776E+02 0.  0.
        -12    1    1    2    0    0 -0.95984958613E+00 -0.67169289497E+00 -0.14242727770E+00  0.11801559654E+01  0.00000000000E+00 0.  1.
         11    1    3    3    0    0 -0.75255728781E+01 -0.62767229447E+01  0.12016998037E+01  0.98729722347E+01  0.51100000000E-03 0. -1.
        -11    1    3    3    0    0  0.31503078844E+02  0.15616375908E+02 -0.27041733050E+02  0.44357304920E+02  0.51100000000E-03 0.  1.
         12    1    3    3    0    0 -0.23017656379E+02 -0.86679600686E+01  0.25982460524E+02  0.35777566880E+02  0.00000000000E+00 0. -1.
</event>
<event>
 7    1  0.2879200E-015  0.9000777E+02  0.7816164E-02  0.1186339E+00
        -11   -1    0    0    0    0  0.00000000000E+00  0.00000000000E+00  0.45593999997E+02  0.45594000000E+02  0.51100000000E-03 0.  1.
         11   -1    0    0    0    0 -0.00000000000E+00 -0.00000000000E+00 -0.45593999997E+02  0.45594000000E+02  0.51100000000E-03 0. -1.
    9900012    2    1    2    0    0  0.26074056843E-01 -0.11736176042E+01  0.12196464368E+00  0.90007773957E+02  0.90000035774E+02 0.  0.
        -12    1    1    2    0    0 -0.26074056843E-01  0.11736176042E+01 -0.12196464368E+00  0.11802260426E+01  0.00000000000E+00 0.  1.
         11    1    3    3    0    0  0.95538923488E+01  0.42886720492E+01 -0.10999150007E+01  0.10529927836E+02  0.51100000000E-03 0. -1.
        -11    1    3    3    0    0 -0.27679933700E+02  0.19113501552E+02  0.24039584608E+02  0.41344967041E+02  0.51100000000E-03 0.  1.
         12    1    3    3    0    0  0.18152115408E+02 -0.24575791206E+02 -0.22817704964E+02  0.38132879081E+02  0.00000000000E+00 0. -1.
</event>
<event>
 7    1  0.2879200E-015  0.9000766E+02  0.7816164E-02  0.1186339E+00
        -11   -1    0    0    0    0  0.00000000000E+00  0.00000000000E+00  0.45593999997E+02  0.45594000000E+02  0.51100000000E-03 0.  1.
         11   -1    0    0    0    0 -0.00000000000E+00 -0.00000000000E+00 -0.45593999997E+02  0.45594000000E+02  0.51100000000E-03 0. -1.
    9900012    2    1    2    0    0 -0.10668633785E+01  0.44584656537E+00 -0.23710222567E+00  0.90007663568E+02  0.89999923927E+02 0.  0.
        -12    1    1    2    0    0  0.10668633785E+01 -0.44584656537E+00  0.23710222567E+00  0.11803364324E+01  0.00000000000E+00 0.  1.
         11    1    3    3    0    0 -0.12319584351E+02  0.85808962771E+01 -0.29880475028E+02  0.33440196286E+02  0.51100000000E-03 0. -1.
        -11    1    3    3    0    0 -0.10269079198E+02  0.13074199603E-01 -0.76085707474E+01  0.12780630172E+02  0.51100000000E-03 0.  1.
        -12    1    3    3    0    0  0.21521800170E+02 -0.81481239113E+01  0.37251943550E+02  0.43786837110E+02  0.00000000000E+00 0.  1.
</event>
<event>
 7    1  0.2879200E-015  0.9000800E+02  0.7816164E-02  0.1186339E+00
        -11   -1    0    0    0    0  0.00000000000E+00  0.00000000000E+00  0.45593999997E+02  0.45594000000E+02  0.51100000000E-03 0.  1.
         11   -1    0    0    0    0 -0.00000000000E+00 -0.00000000000E+00 -0.45593999997E+02  0.45594000000E+02  0.51100000000E-03 0. -1.
    9900012    2    1    2    0    0  0.17104317568E+00  0.10284439001E+01  0.55266748576E+00  0.90008002554E+02  0.90000267387E+02 0.  0.
        -12    1    1    2    0    0 -0.17104317568E+00 -0.10284439001E+01 -0.55266748576E+00  0.11799974463E+01  0.00000000000E+00 0.  1.
         11    1    3    3    0    0 -0.52741747303E+01  0.55795649689E+01  0.47332856929E+01  0.90195597475E+01  0.51100000000E-03 0. -1.
        -11    1    3    3    0    0  0.41581441600E+02  0.77538309027E+01  0.18629448588E+01  0.42339210467E+02  0.51100000000E-03 0.  1.
         12    1    3    3    0    0 -0.36136223694E+02 -0.12304951971E+02 -0.60435630659E+01  0.38649232339E+02  0.00000000000E+00 0. -1.
</event>
<event>
 7    1  0.2879200E-015  0.9000780E+02  0.7816164E-02  0.1186339E+00
        -11   -1    0    0    0    0  0.00000000000E+00  0.00000000000E+00  0.45593999997E+02  0.45594000000E+02  0.51100000000E-03 0.  1.
         11   -1    0    0    0    0 -0.00000000000E+00 -0.00000000000E+00 -0.45593999997E+02  0.45594000000E+02  0.51100000000E-03 0. -1.
    9900012    2    1    2    0    0 -0.67751793572E+00 -0.53050354681E+00 -0.80772228544E+00  0.90007796688E+02  0.90000058805E+02 0.  0.
        -12    1    1    2    0    0  0.67751793572E+00  0.53050354681E+00  0.80772228544E+00  0.11802033116E+01  0.00000000000E+00 0.  1.
         11    1    3    3    0    0  0.22642982246E+02 -0.59552589024E+01  0.33064039597E+02  0.40514200823E+02  0.51100000000E-03 0. -1.
        -11    1    3    3    0    0  0.54145990945E+01 -0.19380775293E+01 -0.23597575917E+01  0.62163079088E+01  0.51100000000E-03 0.  1.
        -12    1    3    3    0    0 -0.28735099276E+02  0.73628328850E+01 -0.31512004290E+02  0.43277287957E+02  0.00000000000E+00 0.  1.
</event>
<event>
 7    1  0.2879200E-015  0.9000797E+02  0.7816164E-02  0.1186339E+00
        -11   -1    0    0    0    0  0.00000000000E+00  0.00000000000E+00  0.45593999997E+02  0.45594000000E+02  0.51100000000E-03 0.  1.
         11   -1    0    0    0    0 -0.00000000000E+00 -0.00000000000E+00 -0.45593999997E+02  0.45594000000E+02  0.51100000000E-03 0. -1.
    9900012    2    1    2    0    0 -0.65799289051E+00 -0.74601651558E+00 -0.63481071255E+00  0.90007966133E+02  0.90000230486E+02 0.  0.
        -12    1    1    2    0    0  0.65799289051E+00  0.74601651558E+00  0.63481071255E+00  0.11800338666E+01  0.00000000000E+00 0.  1.
         11    1    3    3    0    0 -0.10207891897E+02 -0.25793152267E+01  0.13363115220E+01  0.10613182970E+02  0.51100000000E-03 0. -1.
        -11    1    3    3    0    0  0.34484977478E+02 -0.18810016391E+02  0.15947302010E+02  0.42395127432E+02  0.51100000000E-03 0.  1.
         12    1    3    3    0    0 -0.24935078472E+02  0.20643315102E+02 -0.17918424245E+02  0.36999655731E+02  0.00000000000E+00 0. -1.
</event>
<event>
 7    1  0.2879200E-015  0.9000777E+02  0.7816164E-02  0.1186339E+00
        -11   -1    0    0    0    0  0.00000000000E+00  0.00000000000E+00  0.45593999997E+02  0.45594000000E+02  0.51100000000E-03 0. -1.
         11   -1    0    0    0    0 -0.00000000000E+00 -0.00000000000E+00 -0.45593999997E+02  0.45594000000E+02  0.51100000000E-03 0.  1.
    9900012    2    1    2    0    0  0.58190418256E+00 -0.94926606829E+00  0.39145112699E+00  0.90007765900E+02  0.90000027610E+02 0.  0.
        -12    1    1    2    0    0 -0.58190418256E+00  0.94926606829E+00 -0.39145112699E+00  0.11802341000E+01  0.00000000000E+00 0.  1.
         11    1    3    3    0    0  0.17944608868E+01 -0.98034412146E+00 -0.84156341527E+01  0.86604886077E+01  0.51100000000E-03 0. -1.
        -11    1    3    3    0    0 -0.31634671298E+01 -0.14145407779E+02 -0.33598745163E+02  0.36592017740E+02  0.51100000000E-03 0.  1.
         12    1    3    3    0    0  0.19509104256E+01  0.14176485833E+02  0.42405830442E+02  0.44755259552E+02  0.00000000000E+00 0. -1.
</event>
<event>
 7    1  0.2879200E-015  0.9000778E+02  0.7816164E-02  0.1186339E+00
        -11   -1    0    0    0    0  0.00000000000E+00  0.00000000000E+00  0.45593999997E+02  0.45594000000E+02  0.51100000000E-03 0.  1.
         11   -1    0    0    0    0 -0.00000000000E+00 -0.00000000000E+00 -0.45593999997E+02  0.45594000000E+02  0.51100000000E-03 0. -1.
    9900012    2    1    2    0    0 -0.61910236880E+00 -0.89462173637E+00 -0.45748681495E+00  0.90007775454E+02  0.90000037290E+02 0.  0.
        -12    1    1    2    0    0  0.61910236880E+00  0.89462173637E+00  0.45748681495E+00  0.11802245465E+01  0.00000000000E+00 0.  1.
         11    1    3    3    0    0 -0.56125903008E+01  0.26591211253E+00 -0.63624063730E+01  0.84883505025E+01  0.51100000000E-03 0. -1.
        -11    1    3    3    0    0 -0.35046980730E+02 -0.11195594169E+02 -0.85692501565E+01  0.37776503750E+02  0.51100000000E-03 0.  1.
         12    1    3    3    0    0  0.40040468662E+02  0.10035060320E+02  0.14474169715E+02  0.43742921201E+02  0.00000000000E+00 0. -1.
</event>
<event>
 7    1  0.2879200E-015  0.9000781E+02  0.7816164E-02  0.1186339E+00
        -11   -1    0    0    0    0  0.00000000000E+00  0.00000000000E+00  0.45593999997E+02  0.45594000000E+02  0.51100000000E-03 0. -1.
         11   -1    0    0    0    0 -0.00000000000E+00 -0.00000000000E+00 -0.45593999997E+02  0.45594000000E+02  0.51100000000E-03 0.  1.
    9900012    2    1    2    0    0  0.27907983203E+00 -0.47191759029E+00  0.10451065885E+01  0.90007813766E+02  0.90000076108E+02 0.  0.
        -12    1    1    2    0    0 -0.27907983203E+00  0.47191759029E+00 -0.10451065885E+01  0.11801862336E+01  0.00000000000E+00 0.  1.
         11    1    3    3    0    0 -0.56964905694E+01  0.76699462311E+01  0.38938114073E+01  0.10316968912E+02  0.51100000000E-03 0. -1.
        -11    1    3    3    0    0 -0.11481449132E+02  0.32327842763E+02 -0.82572948257E+01  0.35285918012E+02  0.51100000000E-03 0.  1.
         12    1    3    3    0    0  0.17457019533E+02 -0.40469706584E+02  0.54085900069E+01  0.44404926842E+02  0.00000000000E+00 0. -1.
</event>
<event>
 7    1  0.2879200E-015  0.9000792E+02  0.7816164E-02  0.1186339E+00
        -11   -1    0    0    0    0  0.00000000000E+00  0.00000000000E+00  0.45593999997E+02  0.45594000000E+02  0.51100000000E-03 0. -1.
         11   -1    0    0    0    0 -0.00000000000E+00 -0.00000000000E+00 -0.45593999997E+02  0.45594000000E+02  0.51100000000E-03 0.  1.
    9900012    2    1    2    0    0  0.69651419691E+00 -0.18310542477E+00  0.93484312408E+00  0.90007918948E+02  0.90000182678E+02 0.  0.
        -12    1    1    2    0    0 -0.69651419691E+00  0.18310542477E+00 -0.93484312408E+00  0.11800810522E+01  0.00000000000E+00 0.  1.
         11    1    3    3    0    0  0.96175064709E+00  0.54343645157E+01 -0.60807036924E+01  0.82117135637E+01  0.51100000000E-03 0. -1.
        -11    1    3    3    0    0 -0.24762854092E+02 -0.33854604340E+02 -0.56564319110E+01  0.42324087705E+02  0.51100000000E-03 0.  1.
         12    1    3    3    0    0  0.24497617642E+02  0.28237134400E+02  0.12671978728E+02  0.39472117679E+02  0.00000000000E+00 0. -1.
</event>
<event>
 7    1  0.2879200E-015  0.9000774E+02  0.7816164E-02  0.1186339E+00
        -11   -1    0    0    0    0  0.00000000000E+00  0.00000000000E+00  0.45593999997E+02  0.45594000000E+02  0.51100000000E-03 0. -1.
         11   -1    0    0    0    0 -0.00000000000E+00 -0.00000000000E+00 -0.45593999997E+02  0.45594000000E+02  0.51100000000E-03 0.  1.
    9900012    2    1    2    0    0 -0.11417091098E+01  0.18506345637E+00  0.23508773243E+00  0.90007739683E+02  0.90000001047E+02 0.  0.
        -12    1    1    2    0    0  0.11417091098E+01 -0.18506345637E+00 -0.23508773243E+00  0.11802603172E+01  0.00000000000E+00 0.  1.
         11    1    3    3    0    0  0.90474986813E+01 -0.20336130149E+01 -0.22686810231E+01  0.95467129489E+01  0.51100000000E-03 0. -1.
        -11    1    3    3    0    0 -0.12668557092E+02  0.10574615906E+02 -0.36732146190E+02  0.40268665291E+02  0.51100000000E-03 0.  1.
         12    1    3    3    0    0  0.24793493007E+01 -0.83559394342E+01  0.39235914945E+02  0.40192361443E+02  0.00000000000E+00 0. -1.
</event>
<event>
 7    1  0.2879200E-015  0.9000771E+02  0.7816164E-02  0.1186339E+00
        -11   -1    0    0    0    0  0.00000000000E+00  0.00000000000E+00  0.45593999997E+02  0.45594000000E+02  0.51100000000E-03 0.  1.
         11   -1    0    0    0    0 -0.00000000000E+00 -0.00000000000E+00 -0.45593999997E+02  0.45594000000E+02  0.51100000000E-03 0. -1.
    9900012    2    1    2    0    0  0.23281200875E+00 -0.50887202688E+00 -0.10391975586E+01  0.90007710316E+02  0.89999971293E+02 0.  0.
        -12    1    1    2    0    0 -0.23281200875E+00  0.50887202688E+00  0.10391975586E+01  0.11802896835E+01  0.00000000000E+00 0.  1.
         11    1    3    3    0    0  0.16356027246E+02 -0.30353323424E+01 -0.32750342750E+02  0.36733061678E+02  0.51100000000E-03 0. -1.
        -11    1    3    3    0    0  0.37302849977E+00  0.71430749993E+01 -0.75736988197E+01  0.10417465372E+02  0.51100000000E-03 0.  1.
        -12    1    3    3    0    0 -0.16496243737E+02 -0.46166146838E+01  0.39284844011E+02  0.42857183267E+02  0.00000000000E+00 0.  1.
</event>
<event>
 7    1  0.2879200E-015  0.9000772E+02  0.7816164E-02  0.1186339E+00
        -11   -1    0    0    0    0  0.00000000000E+00  0.00000000000E+00  0.45593999997E+02  0.45594000000E+02  0.51100000000E-03 0. -1.
         11   -1    0    0    0    0 -0.00000000000E+00 -0.00000000000E+00 -0.45593999997E+02  0.45594000000E+02  0.51100000000E-03 0.  1.
    9900012    2    1    2    0    0  0.65749550763E+00 -0.32655537781E+00  0.92418828031E+00  0.90007719214E+02  0.89999980307E+02 0.  0.
        -12    1    1    2    0    0 -0.65749550763E+00  0.32655537781E+00 -0.92418828031E+00  0.11802807864E+01  0.00000000000E+00 0.  1.
         11    1    3    3    0    0 -0.98946426976E+00 -0.23328184554E+01  0.89659745199E+01  0.93171766560E+01  0.51100000000E-03 0. -1.
        -11    1    3    3    0    0  0.16388080095E+01  0.28109593139E+02  0.25637072077E+02  0.38080104819E+02  0.51100000000E-03 0.  1.
         12    1    3    3    0    0  0.81517678816E-02 -0.26103330062E+02 -0.33678858316E+02  0.42610437738E+02  0.00000000000E+00 0. -1.
</event>
<event>
 7    1  0.2879200E-015  0.9000770E+02  0.7816164E-02  0.1186339E+00
        -11   -1    0    0    0    0  0.00000000000E+00  0.00000000000E+00  0.45593999997E+02  0.45594000000E+02  0.51100000000E-03 0.  1.
         11   -1    0    0    0    0 -0.00000000000E+00 -0.00000000000E+00 -0.45593999997E+02  0.45594000000E+02  0.51100000000E-03 0. -1.
    9900012    2    1    2    0    0 -0.84863462008E+00 -0.49981213129E+00 -0.65047471783E+00  0.90007699088E+02  0.89999959916E+02 0.  0.
        -12    1    1    2    0    0  0.84863462008E+00  0.49981213129E+00  0.65047471783E+00  0.11803009123E+01  0.00000000000E+00 0.  1.
         11    1    3    3    0    0 -0.24446335222E+02  0.25870845520E+02 -0.24630646330E+02  0.43285016953E+02  0.51100000000E-03 0. -1.
        -11    1    3    3    0    0  0.88319903814E+01  0.58885046347E+00  0.24183958504E+01  0.91760251588E+01  0.51100000000E-03 0.  1.
        -12    1    3    3    0    0  0.14765710221E+02 -0.26959508114E+02  0.21561775762E+02  0.37546656976E+02  0.00000000000E+00 0.  1.
</event>
<event>
 7    1  0.2879200E-015  0.9000770E+02  0.7816164E-02  0.1186339E+00
        -11   -1    0    0    0    0  0.00000000000E+00  0.00000000000E+00  0.45593999997E+02  0.45594000000E+02  0.51100000000E-03 0. -1.
         11   -1    0    0    0    0 -0.00000000000E+00 -0.00000000000E+00 -0.45593999997E+02  0.45594000000E+02  0.51100000000E-03 0.  1.
    9900012    2    1    2    0    0  0.26894396676E+00 -0.99616869144E-01  0.11449237167E+01  0.90007701438E+02  0.89999962297E+02 0.  0.
        -12    1    1    2    0    0 -0.26894396676E+00  0.99616869144E-01 -0.11449237167E+01  0.11802985618E+01  0.00000000000E+00 0.  1.
         11    1    3    3    0    0 -0.32116094784E+02 -0.16614924723E+02 -0.56519287049E+01  0.36598409338E+02  0.51100000000E-03 0. -1.
        -11    1    3    3    0    0 -0.22117412285E+01 -0.94112329597E+01  0.15607434852E+00  0.96688915884E+01  0.51100000000E-03 0.  1.
        -12    1    3    3    0    0  0.34596779979E+02  0.25926540814E+02  0.66407780731E+01  0.43740400512E+02  0.00000000000E+00 0.  1.
</event>
<event>
 7    1  0.2879200E-015  0.9000774E+02  0.7816164E-02  0.1186339E+00
        -11   -1    0    0    0    0  0.00000000000E+00  0.00000000000E+00  0.45593999997E+02  0.45594000000E+02  0.51100000000E-03 0.  1.
         11   -1    0    0    0    0 -0.00000000000E+00 -0.00000000000E+00 -0.45593999997E+02  0.45594000000E+02  0.51100000000E-03 0. -1.
    9900012    2    1    2    0    0  0.79745582428E+00 -0.76045571878E+00 -0.42283215778E+00  0.90007739128E+02  0.90000000485E+02 0.  0.
        -12    1    1    2    0    0 -0.79745582428E+00  0.76045571878E+00  0.42283215778E+00  0.11802608718E+01  0.00000000000E+00 0.  1.
         11    1    3    3    0    0 -0.19180107711E+01 -0.96747494558E+01 -0.18180359201E+01  0.10029197237E+02  0.51100000000E-03 0. -1.
        -11    1    3    3    0    0  0.49992454843E+01  0.37368938499E+02  0.23013102452E+02  0.44170498126E+02  0.51100000000E-03 0.  1.
         12    1    3    3    0    0 -0.22837788889E+01 -0.28454644762E+02 -0.21617898690E+02  0.35808043765E+02  0.00000000000E+00 0. -1.
</event>
<event>
 7    1  0.4606747E-015  0.9000753E+02  0.7816164E-02  0.1186339E+00
        -11   -1    0    0    0    0  0.00000000000E+00  0.00000000000E+00  0.45593999997E+02  0.45594000000E+02  0.51100000000E-03 0. -1.
         11   -1    0    0    0    0 -0.00000000000E+00 -0.00000000000E+00 -0.45593999997E+02  0.45594000000E+02  0.51100000000E-03 0.  1.
    9900012    2    1    2    0    0 -0.16575311763E+00 -0.73868112851E+00  0.90574525092E+00  0.90007534683E+02  0.89999793340E+02 0.  0.
        -12    1    1    2    0    0  0.16575311763E+00  0.73868112851E+00 -0.90574525092E+00  0.11804653172E+01  0.00000000000E+00 0.  1.
         11    1    3    3    0    0  0.24169295666E+02  0.23403150069E+02  0.17343241548E+02  0.37850367420E+02  0.51100000000E-03 0. -1.
        -11    1    3    3    0    0  0.89231619919E+01 -0.20076743525E+01 -0.54709062372E+00  0.91625806764E+01  0.51100000000E-03 0.  1.
        -12    1    3    3    0    0 -0.33258210776E+02 -0.22134156845E+02 -0.15890405674E+02  0.42994586586E+02  0.00000000000E+00 0.  1.
</event>
<event>
 7    1  0.2879200E-015  0.9000775E+02  0.7816164E-02  0.1186339E+00
        -11   -1    0    0    0    0  0.00000000000E+00  0.00000000000E+00  0.45593999997E+02  0.45594000000E+02  0.51100000000E-03 0. -1.
         11   -1    0    0    0    0 -0.00000000000E+00 -0.00000000000E+00 -0.45593999997E+02  0.45594000000E+02  0.51100000000E-03 0.  1.
    9900012    2    1    2    0    0  0.98671893013E+00 -0.11090487862E+00 -0.63803030964E+00  0.90007747139E+02  0.90000008602E+02 0.  0.
        -12    1    1    2    0    0 -0.98671893013E+00  0.11090487862E+00  0.63803030964E+00  0.11802528607E+01  0.00000000000E+00 0.  1.
         11    1    3    3    0    0 -0.31072865832E+02 -0.15508836655E+02  0.81681509933E+01  0.35675841915E+02  0.51100000000E-03 0. -1.
        -11    1    3    3    0    0 -0.52256887302E+01  0.42876615639E+01  0.92370291602E+01  0.11446159721E+02  0.51100000000E-03 0.  1.
        -12    1    3    3    0    0  0.37285273492E+02  0.11110270213E+02 -0.18043210463E+02  0.42885745504E+02  0.00000000000E+00 0.  1.
</event>
<event>
 7    1  0.2879200E-015  0.9000779E+02  0.7816164E-02  0.1186339E+00
        -11   -1    0    0    0    0  0.00000000000E+00  0.00000000000E+00  0.45593999997E+02  0.45594000000E+02  0.51100000000E-03 0. -1.
         11   -1    0    0    0    0 -0.00000000000E+00 -0.00000000000E+00 -0.45593999997E+02  0.45594000000E+02  0.51100000000E-03 0.  1.
    9900012    2    1    2    0    0  0.10900840849E+01 -0.43705805690E+00 -0.11658935761E+00  0.90007789792E+02  0.90000051817E+02 0.  0.
        -12    1    1    2    0    0 -0.10900840849E+01  0.43705805690E+00  0.11658935761E+00  0.11802102082E+01  0.00000000000E+00 0.  1.
         11    1    3    3    0    0 -0.22615644998E+01  0.42657057472E+01 -0.42991688539E+01  0.64648103301E+01  0.51100000000E-03 0. -1.
        -11    1    3    3    0    0 -0.14956591067E+02 -0.11761563696E+02 -0.34934685631E+02  0.39780224451E+02  0.51100000000E-03 0.  1.
         12    1    3    3    0    0  0.18308239652E+02  0.70587998921E+01  0.39117265128E+02  0.43762755011E+02  0.00000000000E+00 0. -1.
</event>
<event>
 7    1  0.2879200E-015  0.9000767E+02  0.7816164E-02  0.1186339E+00
        -11   -1    0    0    0    0  0.00000000000E+00  0.00000000000E+00  0.45593999997E+02  0.45594000000E+02  0.51100000000E-03 0. -1.
         11   -1    0    0    0    0 -0.00000000000E+00 -0.00000000000E+00 -0.45593999997E+02  0.45594000000E+02  0.51100000000E-03 0.  1.
    9900012    2    1    2    0    0 -0.94501263806E+00  0.20456976550E+00 -0.67696581333E+00  0.90007669374E+02  0.89999929809E+02 0.  0.
        -12    1    1    2    0    0  0.94501263806E+00 -0.20456976550E+00  0.67696581333E+00  0.11803306263E+01  0.00000000000E+00 0.  1.
         11    1    3    3    0    0  0.57177673737E+01 -0.68626249347E+01  0.21847692686E+01  0.91957436758E+01  0.51100000000E-03 0. -1.
        -11    1    3    3    0    0  0.27043933355E+02  0.11672095816E+02 -0.26309485887E+02  0.39494318578E+02  0.51100000000E-03 0.  1.
         12    1    3    3    0    0 -0.33706713367E+02 -0.46049011154E+01  0.23447750805E+02  0.41317607120E+02  0.00000000000E+00 0. -1.
</event>
<event>
 7    1  0.2879200E-015  0.9000776E+02  0.7816164E-02  0.1186339E+00
        -11   -1    0    0    0    0  0.00000000000E+00  0.00000000000E+00  0.45593999997E+02  0.45594000000E+02  0.51100000000E-03 0.  1.
         11   -1    0    0    0    0 -0.00000000000E+00 -0.00000000000E+00 -0.45593999997E+02  0.45594000000E+02  0.51100000000E-03 0. -1.
    9900012    2    1    2    0    0 -0.25946103440E+00 -0.11423485783E+01 -0.14386097250E+00  0.90007755838E+02  0.90000017415E+02 0.  0.
        -12    1    1    2    0    0  0.25946103440E+00  0.11423485783E+01  0.14386097250E+00  0.11802441621E+01  0.00000000000E+00 0.  1.
         11    1    3    3    0    0 -0.30021698798E+01 -0.11552667122E+02  0.27759457775E+01  0.12254918067E+02  0.51100000000E-03 0. -1.
        -11    1    3    3    0    0 -0.23985950108E+02 -0.16672645710E+02  0.18017989200E+02  0.34321288622E+02  0.51100000000E-03 0.  1.
         12    1    3    3    0    0  0.26728658953E+02  0.27082964254E+02 -0.20937795950E+02  0.43431549149E+02  0.00000000000E+00 0. -1.
</event>
<event>
 7    1  0.2879200E-015  0.9000771E+02  0.7816164E-02  0.1186339E+00
        -11   -1    0    0    0    0  0.00000000000E+00  0.00000000000E+00  0.45593999997E+02  0.45594000000E+02  0.51100000000E-03 0.  1.
         11   -1    0    0    0    0 -0.00000000000E+00 -0.00000000000E+00 -0.45593999997E+02  0.45594000000E+02  0.51100000000E-03 0. -1.
    9900012    2    1    2    0    0 -0.11140697269E+01  0.33267699226E+00  0.20309545510E+00  0.90007714822E+02  0.89999975858E+02 0.  0.
        -12    1    1    2    0    0  0.11140697269E+01 -0.33267699226E+00 -0.20309545510E+00  0.11802851780E+01  0.00000000000E+00 0.  1.
         11    1    3    3    0    0  0.10105641384E+01 -0.11250812775E+02 -0.69036436955E+00  0.11317183007E+02  0.51100000000E-03 0. -1.
        -11    1    3    3    0    0 -0.12800017540E+02 -0.27850840628E+02 -0.15887923230E+02  0.34524424362E+02  0.51100000000E-03 0.  1.
         12    1    3    3    0    0  0.10675383674E+02  0.39434330396E+02  0.16781383054E+02  0.44166107453E+02  0.00000000000E+00 0. -1.
</event>
<event>
 7    1  0.2879200E-015  0.9000776E+02  0.7816164E-02  0.1186339E+00
        -11   -1    0    0    0    0  0.00000000000E+00  0.00000000000E+00  0.45593999997E+02  0.45594000000E+02  0.51100000000E-03 0.  1.
         11   -1    0    0    0    0 -0.00000000000E+00 -0.00000000000E+00 -0.45593999997E+02  0.45594000000E+02  0.51100000000E-03 0. -1.
    9900012    2    1    2    0    0  0.24945768846E+00  0.11531298348E+01  0.31954100130E-01  0.90007763321E+02  0.90000024997E+02 0.  0.
        -12    1    1    2    0    0 -0.24945768846E+00 -0.11531298348E+01 -0.31954100130E-01  0.11802366791E+01  0.00000000000E+00 0.  1.
         11    1    3    3    0    0 -0.48806677421E+01  0.70028556733E+01 -0.39788763249E+02  0.40694060823E+02  0.51100000000E-03 0. -1.
        -11    1    3    3    0    0  0.39875128596E+01  0.79354690065E+01  0.20847373816E+01  0.91223931821E+01  0.51100000000E-03 0.  1.
        -12    1    3    3    0    0  0.11426125709E+01 -0.13785194845E+02  0.37735979967E+02  0.40191309315E+02  0.00000000000E+00 0.  1.
</event>
<event>
 7    1  0.2879200E-015  0.9000762E+02  0.7816164E-02  0.1186339E+00
        -11   -1    0    0    0    0  0.00000000000E+00  0.00000000000E+00  0.45593999997E+02  0.45594000000E+02  0.51100000000E-03 0.  1.
         11   -1    0    0    0    0 -0.00000000000E+00 -0.00000000000E+00 -0.45593999997E+02  0.45594000000E+02  0.51100000000E-03 0. -1.
    9900012    2    1    2    0    0 -0.29815177155E+00  0.10648052974E+01 -0.41302863782E+00  0.90007619783E+02  0.89999879564E+02 0.  0.
        -12    1    1    2    0    0  0.29815177155E+00 -0.10648052974E+01  0.41302863782E+00  0.11803802166E+01  0.00000000000E+00 0.  1.
         11    1    3    3    0    0 -0.23767007143E+01  0.12697745714E+01 -0.95249956207E+01  0.98988168780E+01  0.51100000000E-03 0. -1.
        -11    1    3    3    0    0 -0.15702164279E+02 -0.22443486255E+02 -0.24014388722E+02  0.36427447129E+02  0.51100000000E-03 0.  1.
         12    1    3    3    0    0  0.17780713221E+02  0.22238516981E+02  0.33126355705E+02  0.43681355777E+02  0.00000000000E+00 0. -1.
</event>
<event>
 7    1  0.2879200E-015  0.9000778E+02  0.7816164E-02  0.1186339E+00
        -11   -1    0    0    0    0  0.00000000000E+00  0.00000000000E+00  0.45593999997E+02  0.45594000000E+02  0.51100000000E-03 0. -1.
         11   -1    0    0    0    0 -0.00000000000E+00 -0.00000000000E+00 -0.45593999997E+02  0.45594000000E+02  0.51100000000E-03 0.  1.
    9900012    2    1    2    0    0 -0.91957847758E+00  0.37737927655E+00  0.63630475261E+00  0.90007778227E+02  0.90000040100E+02 0.  0.
        -12    1    1    2    0    0  0.91957847758E+00 -0.37737927655E+00 -0.63630475261E+00  0.11802217728E+01  0.00000000000E+00 0.  1.
         11    1    3    3    0    0  0.28613906489E+02 -0.16357220122E+02  0.23385694875E+02  0.40412931343E+02  0.51100000000E-03 0. -1.
        -11    1    3    3    0    0 -0.39043377511E+00 -0.66744457058E+01 -0.32423125106E+01  0.74305622056E+01  0.51100000000E-03 0.  1.
        -12    1    3    3    0    0 -0.29143051192E+02  0.23409045105E+02 -0.19507077612E+02  0.42164284678E+02  0.00000000000E+00 0.  1.
</event>
<event>
 7    1  0.2879200E-015  0.9000788E+02  0.7816164E-02  0.1186339E+00
        -11   -1    0    0    0    0  0.00000000000E+00  0.00000000000E+00  0.45593999997E+02  0.45594000000E+02  0.51100000000E-03 0.  1.
         11   -1    0    0    0    0 -0.00000000000E+00 -0.00000000000E+00 -0.45593999997E+02  0.45594000000E+02  0.51100000000E-03 0. -1.
    9900012    2    1    2    0    0  0.95354568998E+00 -0.68400916884E+00 -0.12473616269E+00  0.90007882618E+02  0.90000145868E+02 0.  0.
        -12    1    1    2    0    0 -0.95354568998E+00  0.68400916884E+00  0.12473616269E+00  0.11801173824E+01  0.00000000000E+00 0.  1.
         11    1    3    3    0    0 -0.17585270531E+02 -0.44339312893E+01  0.18113693832E+02  0.25632155407E+02  0.51100000000E-03 0. -1.
        -11    1    3    3    0    0 -0.15616032267E+02  0.13673780827E+02  0.56731260495E+01  0.21517832263E+02  0.51100000000E-03 0.  1.
         12    1    3    3    0    0  0.34154848488E+02 -0.99238587061E+01 -0.23911556044E+02  0.42857894947E+02  0.00000000000E+00 0. -1.
</event>
<event>
 7    1  0.2879200E-015  0.9000769E+02  0.7816164E-02  0.1186339E+00
        -11   -1    0    0    0    0  0.00000000000E+00  0.00000000000E+00  0.45593999997E+02  0.45594000000E+02  0.51100000000E-03 0. -1.
         11   -1    0    0    0    0 -0.00000000000E+00 -0.00000000000E+00 -0.45593999997E+02  0.45594000000E+02  0.51100000000E-03 0.  1.
    9900012    2    1    2    0    0 -0.32721312638E+00 -0.18564344029E+00  0.11187520692E+01  0.90007687283E+02  0.89999947955E+02 0.  0.
        -12    1    1    2    0    0  0.32721312638E+00  0.18564344029E+00 -0.11187520692E+01  0.11803127168E+01  0.00000000000E+00 0.  1.
         11    1    3    3    0    0 -0.39025111574E+02  0.77342675626E+01 -0.11975493903E+02  0.41547450976E+02  0.51100000000E-03 0. -1.
        -11    1    3    3    0    0  0.15937082483E+01 -0.90510360686E+01  0.50158888330E+01  0.10469971392E+02  0.51100000000E-03 0.  1.
        -12    1    3    3    0    0  0.37104190200E+02  0.11311250657E+01  0.80783571394E+01  0.37990264916E+02  0.00000000000E+00 0.  1.
</event>
<event>
 7    1  0.2879200E-015  0.9000823E+02  0.7816164E-02  0.1186338E+00
        -11   -1    0    0    0    0  0.00000000000E+00  0.00000000000E+00  0.45593999997E+02  0.45594000000E+02  0.51100000000E-03 0.  1.
         11   -1    0    0    0    0 -0.00000000000E+00 -0.00000000000E+00 -0.45593999997E+02  0.45594000000E+02  0.51100000000E-03 0. -1.
    9900012    2    1    2    0    0  0.11608242720E+01  0.16286421338E+00 -0.13350437763E+00  0.90008228344E+02  0.90000496156E+02 0.  0.
        -12    1    1    2    0    0 -0.11608242720E+01 -0.16286421338E+00  0.13350437763E+00  0.11797716564E+01  0.00000000000E+00 0.  1.
         11    1    3    3    0    0  0.20700816262E+01  0.22690701575E+01  0.76862937547E+01  0.82772597678E+01  0.51100000000E-03 0. -1.
        -11    1    3    3    0    0  0.37370345493E+02 -0.49979197197E+01  0.10581608288E+02  0.39159830924E+02  0.51100000000E-03 0.  1.
         12    1    3    3    0    0 -0.38279602847E+02  0.28917137756E+01 -0.18401406420E+02  0.42571137652E+02  0.00000000000E+00 0. -1.
</event>
<event>
 7    1  0.2879200E-015  0.9000770E+02  0.7816164E-02  0.1186339E+00
        -11   -1    0    0    0    0  0.00000000000E+00  0.00000000000E+00  0.45593999997E+02  0.45594000000E+02  0.51100000000E-03 0. -1.
         11   -1    0    0    0    0 -0.00000000000E+00 -0.00000000000E+00 -0.45593999997E+02  0.45594000000E+02  0.51100000000E-03 0.  1.
    9900012    2    1    2    0    0  0.10834658746E+01 -0.46378022442E+00  0.64116908465E-01  0.90007702844E+02  0.89999963722E+02 0.  0.
        -12    1    1    2    0    0 -0.10834658746E+01  0.46378022442E+00 -0.64116908465E-01  0.11802971558E+01  0.00000000000E+00 0.  1.
         11    1    3    3    0    0 -0.35853428409E+02  0.68451768906E+01  0.16846640541E+02  0.40201170046E+02  0.51100000000E-03 0. -1.
        -11    1    3    3    0    0  0.27227683876E+01  0.34263673569E+01  0.59224233872E+01  0.73640043451E+01  0.51100000000E-03 0.  1.
        -12    1    3    3    0    0  0.34214125896E+02 -0.10735324472E+02 -0.22704947019E+02  0.42442528453E+02  0.00000000000E+00 0.  1.
</event>
<event>
 7    1  0.2879200E-015  0.9000776E+02  0.7816164E-02  0.1186339E+00
        -11   -1    0    0    0    0  0.00000000000E+00  0.00000000000E+00  0.45593999997E+02  0.45594000000E+02  0.51100000000E-03 0.  1.
         11   -1    0    0    0    0 -0.00000000000E+00 -0.00000000000E+00 -0.45593999997E+02  0.45594000000E+02  0.51100000000E-03 0. -1.
    9900012    2    1    2    0    0  0.16782580870E-01 -0.11671764427E+01  0.17430413818E+00  0.90007760856E+02  0.90000022500E+02 0.  0.
        -12    1    1    2    0    0 -0.16782580870E-01  0.11671764427E+01 -0.17430413818E+00  0.11802391436E+01  0.00000000000E+00 0.  1.
         11    1    3    3    0    0 -0.17786996677E+02 -0.18710304832E+02 -0.32528819660E+02  0.41528025073E+02  0.51100000000E-03 0. -1.
        -11    1    3    3    0    0  0.53180985584E+01  0.90693130375E+01 -0.19417127781E+01  0.10691345099E+02  0.51100000000E-03 0.  1.
        -12    1    3    3    0    0  0.12485680699E+02  0.84738153519E+01  0.34644836577E+02  0.37788390685E+02  0.00000000000E+00 0.  1.
</event>
<event>
 7    1  0.2879200E-015  0.9000767E+02  0.7816164E-02  0.1186339E+00
        -11   -1    0    0    0    0  0.00000000000E+00  0.00000000000E+00  0.45593999997E+02  0.45594000000E+02  0.51100000000E-03 0. -1.
         11   -1    0    0    0    0 -0.00000000000E+00 -0.00000000000E+00 -0.45593999997E+02  0.45594000000E+02  0.51100000000E-03 0.  1.
    9900012    2    1    2    0    0 -0.51660757885E+00 -0.48265276776E+00  0.94516956834E+00  0.90007668437E+02  0.89999928861E+02 0.  0.
        -12    1    1    2    0    0  0.51660757885E+00  0.48265276776E+00 -0.94516956834E+00  0.11803315626E+01  0.00000000000E+00 0.  1.
         11    1    3    3    0    0 -0.37134537661E+02 -0.19804015109E+02  0.42522186839E+01  0.42299577607E+02  0.51100000000E-03 0. -1.
        -11    1    3    3    0    0 -0.30187292078E+01  0.41823879549E+01 -0.59290474679E+00  0.51919775938E+01  0.51100000000E-03 0.  1.
        -12    1    3    3    0    0  0.39636659290E+02  0.15138974386E+02 -0.27141443687E+01  0.42516113237E+02  0.00000000000E+00 0.  1.
</event>
<event>
 7    1  0.2879200E-015  0.9000773E+02  0.7816164E-02  0.1186339E+00
        -11   -1    0    0    0    0  0.00000000000E+00  0.00000000000E+00  0.45593999997E+02  0.45594000000E+02  0.51100000000E-03 0.  1.
         11   -1    0    0    0    0 -0.00000000000E+00 -0.00000000000E+00 -0.45593999997E+02  0.45594000000E+02  0.51100000000E-03 0. -1.
    9900012    2    1    2    0    0  0.10406966433E+01  0.36024346434E+00 -0.42451992308E+00  0.90007727988E+02  0.89999989198E+02 0.  0.
        -12    1    1    2    0    0 -0.10406966433E+01 -0.36024346434E+00  0.42451992308E+00  0.11802720119E+01  0.00000000000E+00 0.  1.
         11    1    3    3    0    0 -0.26872171971E+02  0.90732048337E+01  0.35190923831E+01  0.28580074945E+02  0.51100000000E-03 0. -1.
        -11    1    3    3    0    0 -0.16974922991E+01  0.92272016436E+01  0.18098165809E+02  0.20385444223E+02  0.51100000000E-03 0.  1.
        -12    1    3    3    0    0  0.29610360913E+02 -0.17940163013E+02 -0.22041778115E+02  0.41042208820E+02  0.00000000000E+00 0.  1.
</event>
<event>
 7    1  0.2879200E-015  0.9000743E+02  0.7816164E-02  0.1186340E+00
        -11   -1    0    0    0    0  0.00000000000E+00  0.00000000000E+00  0.45593999997E+02  0.45594000000E+02  0.51100000000E-03 0. -1.
         11   -1    0    0    0    0 -0.00000000000E+00 -0.00000000000E+00 -0.45593999997E+02  0.45594000000E+02  0.51100000000E-03 0.  1.
    9900012    2    1    2    0    0 -0.85448052741E+00  0.91349500605E-01  0.80948925216E+00  0.90007426177E+02  0.89999683402E+02 0.  0.
        -12    1    1    2    0    0  0.85448052741E+00 -0.91349500605E-01 -0.80948925216E+00  0.11805738233E+01  0.00000000000E+00 0.  1.
         11    1    3    3    0    0 -0.17067550036E+01 -0.92071088608E+01  0.38935359537E+02  0.40045550174E+02  0.51100000000E-03 0. -1.
        -11    1    3    3    0    0 -0.35593443592E+01 -0.63614641409E+01  0.12145425413E+01  0.73900116461E+01  0.51100000000E-03 0.  1.
        -12    1    3    3    0    0  0.44116188354E+01  0.15659922502E+02 -0.39340412826E+02  0.42571864357E+02  0.00000000000E+00 0.  1.
</event>
<event>
 7    1  0.4107259E-015  0.9000771E+02  0.7816164E-02  0.1186339E+00
        -11   -1    0    0    0    0  0.00000000000E+00  0.00000000000E+00  0.45593999997E+02  0.45594000000E+02  0.51100000000E-03 0. -1.
         11   -1    0    0    0    0 -0.00000000000E+00 -0.00000000000E+00 -0.45593999997E+02  0.45594000000E+02  0.51100000000E-03 0.  1.
    9900012    2    1    2    0    0  0.72958916781E+00 -0.69650370439E+00  0.61291400040E+00  0.90007711334E+02  0.89999972323E+02 0.  0.
        -12    1    1    2    0    0 -0.72958916781E+00  0.69650370439E+00 -0.61291400040E+00  0.11802886663E+01  0.00000000000E+00 0.  1.
         11    1    3    3    0    0 -0.21051602085E+02 -0.96534198197E+01  0.31710438438E+02  0.39267166574E+02  0.51100000000E-03 0. -1.
        -11    1    3    3    0    0  0.73138175266E+01 -0.45452023256E+01  0.47199747035E+01  0.98198244615E+01  0.51100000000E-03 0.  1.
        -12    1    3    3    0    0  0.14467373727E+02  0.13502118441E+02 -0.35817499141E+02  0.40920720298E+02  0.00000000000E+00 0.  1.
</event>
<event>
 7    1  0.2879200E-015  0.9000773E+02  0.7816164E-02  0.1186339E+00
        -11   -1    0    0    0    0  0.00000000000E+00  0.00000000000E+00  0.45593999997E+02  0.45594000000E+02  0.51100000000E-03 0.  1.
         11   -1    0    0    0    0 -0.00000000000E+00 -0.00000000000E+00 -0.45593999997E+02  0.45594000000E+02  0.51100000000E-03 0. -1.
    9900012    2    1    2    0    0 -0.38420594590E-01  0.10013678841E+01 -0.62355285322E+00  0.90007732258E+02  0.89999993524E+02 0.  0.
        -12    1    1    2    0    0  0.38420594590E-01 -0.10013678841E+01  0.62355285322E+00  0.11802677417E+01  0.00000000000E+00 0.  1.
         11    1    3    3    0    0 -0.66414512869E+01  0.65198017292E+01 -0.36077151025E+02  0.37258254336E+02  0.51100000000E-03 0. -1.
        -11    1    3    3    0    0 -0.67028377181E+01  0.27614731076E+01 -0.53696361802E+01  0.90214610884E+01  0.51100000000E-03 0.  1.
        -12    1    3    3    0    0  0.13305868410E+02 -0.82799069528E+01  0.40823234352E+02  0.43728016834E+02  0.00000000000E+00 0.  1.
</event>
<event>
 7    1  0.2879200E-015  0.9000849E+02  0.7816164E-02  0.1186338E+00
        -11   -1    0    0    0    0  0.00000000000E+00  0.00000000000E+00  0.45593999997E+02  0.45594000000E+02  0.51100000000E-03 0. -1.
         11   -1    0    0    0    0 -0.00000000000E+00 -0.00000000000E+00 -0.45593999997E+02  0.45594000000E+02  0.51100000000E-03 0.  1.
    9900012    2    1    2    0    0  0.37533387632E+00 -0.61453125622E+00  0.93419426758E+00  0.90008490308E+02  0.90000761577E+02 0.  0.
        -12    1    1    2    0    0 -0.37533387632E+00  0.61453125622E+00 -0.93419426758E+00  0.11795096919E+01  0.00000000000E+00 0.  1.
         11    1    3    3    0    0 -0.17787822928E+02  0.24597622428E+02  0.21398041651E+02  0.37139276519E+02  0.51100000000E-03 0. -1.
        -11    1    3    3    0    0 -0.34871034006E+01  0.81934588139E+01 -0.29686963753E+01  0.93864698312E+01  0.51100000000E-03 0.  1.
        -12    1    3    3    0    0  0.21650260205E+02 -0.33405612498E+02 -0.17495151008E+02  0.43482743958E+02  0.00000000000E+00 0.  1.
</event>
<event>
 7    1  0.2879200E-015  0.9000767E+02  0.7816164E-02  0.1186339E+00
        -11   -1    0    0    0    0  0.00000000000E+00  0.00000000000E+00  0.45593999997E+02  0.45594000000E+02  0.51100000000E-03 0. -1.
         11   -1    0    0    0    0 -0.00000000000E+00 -0.00000000000E+00 -0.45593999997E+02  0.45594000000E+02  0.51100000000E-03 0.  1.
    9900012    2    1    2    0    0 -0.66458062354E+00 -0.54503954484E+00  0.80897298189E+00  0.90007672589E+02  0.89999933068E+02 0.  0.
        -12    1    1    2    0    0  0.66458062354E+00  0.54503954484E+00 -0.80897298189E+00  0.11803274105E+01  0.00000000000E+00 0.  1.
         11    1    3    3    0    0  0.95513078690E+01  0.59043068377E+01  0.45173607620E+01  0.12103506507E+02  0.51100000000E-03 0. -1.
        -11    1    3    3    0    0  0.11012466976E+02 -0.30489906885E+02 -0.23659508773E+02  0.40133292992E+02  0.51100000000E-03 0.  1.
         12    1    3    3    0    0 -0.21228355469E+02  0.24040560502E+02  0.19951120993E+02  0.37770873091E+02  0.00000000000E+00 0. -1.
</event>
<event>
 7    1  0.2879200E-015  0.9000772E+02  0.7816164E-02  0.1186339E+00
        -11   -1    0    0    0    0  0.00000000000E+00  0.00000000000E+00  0.45593999997E+02  0.45594000000E+02  0.51100000000E-03 0. -1.
         11   -1    0    0    0    0 -0.00000000000E+00 -0.00000000000E+00 -0.45593999997E+02  0.45594000000E+02  0.51100000000E-03 0.  1.
    9900012    2    1    2    0    0  0.41782154570E-01  0.37755887266E+00  0.11174817806E+01  0.90007719533E+02  0.89999980631E+02 0.  0.
        -12    1    1    2    0    0 -0.41782154570E-01 -0.37755887266E+00 -0.11174817806E+01  0.11802804670E+01  0.00000000000E+00 0.  1.
         11    1    3    3    0    0 -0.31442879340E+01  0.32113424897E+01  0.34101997921E+01  0.56416956743E+01  0.51100000000E-03 0. -1.
        -11    1    3    3    0    0  0.15010424426E+02 -0.71142112654E+01  0.38365694556E+02  0.41807312308E+02  0.51100000000E-03 0.  1.
         12    1    3    3    0    0 -0.11824354337E+02  0.42804276483E+01 -0.40658412568E+02  0.42558711551E+02  0.00000000000E+00 0. -1.
</event>
<event>
 7    1  0.2879200E-015  0.9000766E+02  0.7816164E-02  0.1186339E+00
        -11   -1    0    0    0    0  0.00000000000E+00  0.00000000000E+00  0.45593999997E+02  0.45594000000E+02  0.51100000000E-03 0.  1.
         11   -1    0    0    0    0 -0.00000000000E+00 -0.00000000000E+00 -0.45593999997E+02  0.45594000000E+02  0.51100000000E-03 0. -1.
    9900012    2    1    2    0    0 -0.11432708739E+01  0.52156105694E-01 -0.28880960372E+00  0.90007661261E+02  0.89999921590E+02 0.  0.
        -12    1    1    2    0    0  0.11432708739E+01 -0.52156105694E-01  0.28880960372E+00  0.11803387385E+01  0.00000000000E+00 0.  1.
         11    1    3    3    0    0  0.67605493421E+01 -0.16336729614E+02  0.12212671018E+02  0.21488208290E+02  0.51100000000E-03 0. -1.
        -11    1    3    3    0    0 -0.91290064893E+01 -0.23239833076E+02  0.45165662455E+01  0.25373765424E+02  0.51100000000E-03 0.  1.
         12    1    3    3    0    0  0.12251862733E+01  0.39628718795E+02 -0.17018046867E+02  0.43145687547E+02  0.00000000000E+00 0. -1.
</event>
<event>
 7    1  0.2879200E-015  0.9000775E+02  0.7816164E-02  0.1186339E+00
        -11   -1    0    0    0    0  0.00000000000E+00  0.00000000000E+00  0.45593999997E+02  0.45594000000E+02  0.51100000000E-03 0.  1.
         11   -1    0    0    0    0 -0.00000000000E+00 -0.00000000000E+00 -0.45593999997E+02  0.45594000000E+02  0.51100000000E-03 0. -1.
    9900012    2    1    2    0    0  0.65406962576E+00 -0.97340520360E+00  0.13291710003E+00  0.90007749297E+02  0.90000010788E+02 0.  0.
        -12    1    1    2    0    0 -0.65406962576E+00  0.97340520360E+00 -0.13291710003E+00  0.11802507027E+01  0.00000000000E+00 0.  1.
         11    1    3    3    0    0  0.13828584296E+02  0.23191615635E+02 -0.28153277956E+02  0.39008817456E+02  0.51100000000E-03 0. -1.
        -11    1    3    3    0    0 -0.39055323593E+01  0.76543641086E+01  0.23327299705E+01  0.89041620770E+01  0.51100000000E-03 0.  1.
        -12    1    3    3    0    0 -0.92689823112E+01 -0.31819384947E+02  0.25953465086E+02  0.42094769764E+02  0.00000000000E+00 0.  1.
</event>
<event>
 7    1  0.2879200E-015  0.9000765E+02  0.7816164E-02  0.1186339E+00
        -11   -1    0    0    0    0  0.00000000000E+00  0.00000000000E+00  0.45593999997E+02  0.45594000000E+02  0.51100000000E-03 0.  1.
         11   -1    0    0    0    0 -0.00000000000E+00 -0.00000000000E+00 -0.45593999997E+02  0.45594000000E+02  0.51100000000E-03 0. -1.
    9900012    2    1    2    0    0 -0.10556264762E+01 -0.15960639629E-01 -0.52784981392E+00  0.90007649448E+02  0.89999909621E+02 0.  0.
        -12    1    1    2    0    0  0.10556264762E+01  0.15960639629E-01  0.52784981392E+00  0.11803505518E+01  0.00000000000E+00 0.  1.
         11    1    3    3    0    0  0.11751954183E+02  0.38869348208E+00  0.76867763558E+01  0.14047990630E+02  0.51100000000E-03 0. -1.
        -11    1    3    3    0    0 -0.15150952045E+02 -0.36189236753E+02 -0.29285245335E+00  0.39233887998E+02  0.51100000000E-03 0.  1.
         12    1    3    3    0    0  0.23433713864E+01  0.35784582631E+02 -0.79217737163E+01  0.36725770820E+02  0.00000000000E+00 0. -1.
</event>
<event>
 7    1  0.2879200E-015  0.9000780E+02  0.7816164E-02  0.1186339E+00
        -11   -1    0    0    0    0  0.00000000000E+00  0.00000000000E+00  0.45593999997E+02  0.45594000000E+02  0.51100000000E-03 0.  1.
         11   -1    0    0    0    0 -0.00000000000E+00 -0.00000000000E+00 -0.45593999997E+02  0.45594000000E+02  0.51100000000E-03 0. -1.
    9900012    2    1    2    0    0  0.73069272789E+00  0.46755280825E+00 -0.80021879043E+00  0.90007801879E+02  0.90000064064E+02 0.  0.
        -12    1    1    2    0    0 -0.73069272789E+00 -0.46755280825E+00  0.80021879043E+00  0.11801981205E+01  0.00000000000E+00 0.  1.
         11    1    3    3    0    0  0.12710744375E+02 -0.10398978873E+02 -0.32943668896E+02  0.36810149480E+02  0.51100000000E-03 0. -1.
        -11    1    3    3    0    0 -0.39971350084E+01 -0.84124934646E+00 -0.88915247363E+01  0.97848863629E+01  0.51100000000E-03 0.  1.
        -12    1    3    3    0    0 -0.79829166389E+01  0.11707781028E+02  0.41034974842E+02  0.43412766036E+02  0.00000000000E+00 0.  1.
</event>
<event>
 7    1  0.2879200E-015  0.9000772E+02  0.7816164E-02  0.1186339E+00
        -11   -1    0    0    0    0  0.00000000000E+00  0.00000000000E+00  0.45593999997E+02  0.45594000000E+02  0.51100000000E-03 0.  1.
         11   -1    0    0    0    0 -0.00000000000E+00 -0.00000000000E+00 -0.45593999997E+02  0.45594000000E+02  0.51100000000E-03 0. -1.
    9900012    2    1    2    0    0 -0.10991575203E+01  0.16999417046E+00 -0.39499272855E+00  0.90007718454E+02  0.89999979538E+02 0.  0.
        -12    1    1    2    0    0  0.10991575203E+01 -0.16999417046E+00  0.39499272855E+00  0.11802815461E+01  0.00000000000E+00 0.  1.
         11    1    3    3    0    0 -0.87419738339E+01 -0.63898548664E+01  0.44302612125E+01  0.11699554111E+02  0.51100000000E-03 0. -1.
        -11    1    3    3    0    0 -0.21491878713E+02 -0.25372589940E+02 -0.10123204150E+02  0.34758429674E+02  0.51100000000E-03 0.  1.
         12    1    3    3    0    0  0.29134695027E+02  0.31932438977E+02  0.52979502090E+01  0.43549734669E+02  0.00000000000E+00 0. -1.
</event>
<event>
 7    1  0.2879200E-015  0.9000771E+02  0.7816164E-02  0.1186339E+00
        -11   -1    0    0    0    0  0.00000000000E+00  0.00000000000E+00  0.45593999997E+02  0.45594000000E+02  0.51100000000E-03 0. -1.
         11   -1    0    0    0    0 -0.00000000000E+00 -0.00000000000E+00 -0.45593999997E+02  0.45594000000E+02  0.51100000000E-03 0.  1.
    9900012    2    1    2    0    0 -0.75631750904E+00  0.22225642389E+00 -0.87844897626E+00  0.90007709063E+02  0.89999970022E+02 0.  0.
        -12    1    1    2    0    0  0.75631750904E+00 -0.22225642389E+00  0.87844897626E+00  0.11802909372E+01  0.00000000000E+00 0.  1.
         11    1    3    3    0    0 -0.65621795161E+01  0.16514186694E+01  0.50005147130E+01  0.84139486140E+01  0.51100000000E-03 0. -1.
        -11    1    3    3    0    0  0.28557742045E+01  0.38981164760E+02 -0.11369257237E+02  0.40705609721E+02  0.51100000000E-03 0.  1.
         12    1    3    3    0    0  0.29500878026E+01 -0.40410327005E+02  0.54902935478E+01  0.40888150728E+02  0.00000000000E+00 0. -1.
</event>
<event>
 7    1  0.2879200E-015  0.9000772E+02  0.7816164E-02  0.1186339E+00
        -11   -1    0    0    0    0  0.00000000000E+00  0.00000000000E+00  0.45593999997E+02  0.45594000000E+02  0.51100000000E-03 0. -1.
         11   -1    0    0    0    0 -0.00000000000E+00 -0.00000000000E+00 -0.45593999997E+02  0.45594000000E+02  0.51100000000E-03 0.  1.
    9900012    2    1    2    0    0 -0.74703592755E+00  0.22977106973E+00 -0.88442051331E+00  0.90007721615E+02  0.89999982740E+02 0.  0.
        -12    1    1    2    0    0  0.74703592755E+00 -0.22977106973E+00  0.88442051331E+00  0.11802783849E+01  0.00000000000E+00 0.  1.
         11    1    3    3    0    0  0.10355946388E+02 -0.31361543293E+02  0.14770324161E+02  0.36179476218E+02  0.51100000000E-03 0. -1.
        -11    1    3    3    0    0 -0.36483682795E+01 -0.73198455607E+01  0.45454713316E+01  0.93569247096E+01  0.51100000000E-03 0.  1.
        -12    1    3    3    0    0 -0.74546140356E+01  0.38911159923E+02 -0.20200216006E+02  0.44471320688E+02  0.00000000000E+00 0.  1.
</event>
<event>
 7    1  0.2879200E-015  0.9000776E+02  0.7816164E-02  0.1186339E+00
        -11   -1    0    0    0    0  0.00000000000E+00  0.00000000000E+00  0.45593999997E+02  0.45594000000E+02  0.51100000000E-03 0. -1.
         11   -1    0    0    0    0 -0.00000000000E+00 -0.00000000000E+00 -0.45593999997E+02  0.45594000000E+02  0.51100000000E-03 0.  1.
    9900012    2    1    2    0    0  0.41903784314E+00  0.43346189942E-01  0.11024979794E+01  0.90007757059E+02  0.90000018652E+02 0.  0.
        -12    1    1    2    0    0 -0.41903784314E+00 -0.43346189942E-01 -0.11024979794E+01  0.11802429414E+01  0.00000000000E+00 0.  1.
         11    1    3    3    0    0  0.33032774828E+01 -0.31129958041E+02 -0.37927452703E+00  0.31307024439E+02  0.51100000000E-03 0. -1.
        -11    1    3    3    0    0 -0.23885731791E+01 -0.12427564845E+02 -0.67258209961E+01  0.14331305528E+02  0.51100000000E-03 0.  1.
        -12    1    3    3    0    0 -0.49566646054E+00  0.43600869076E+02  0.82075935025E+01  0.44369427092E+02  0.00000000000E+00 0.  1.
</event>
<event>
 7    1  0.2879200E-015  0.9000775E+02  0.7816164E-02  0.1186339E+00
        -11   -1    0    0    0    0  0.00000000000E+00  0.00000000000E+00  0.45593999997E+02  0.45594000000E+02  0.51100000000E-03 0.  1.
         11   -1    0    0    0    0 -0.00000000000E+00 -0.00000000000E+00 -0.45593999997E+02  0.45594000000E+02  0.51100000000E-03 0. -1.
    9900012    2    1    2    0    0  0.97173766800E+00  0.66920661946E+00  0.29646111943E-01  0.90007749820E+02  0.90000011318E+02 0.  0.
        -12    1    1    2    0    0 -0.97173766800E+00 -0.66920661946E+00 -0.29646111943E-01  0.11802501798E+01  0.00000000000E+00 0.  1.
         11    1    3    3    0    0  0.66337633211E+01 -0.31241034523E+01  0.36830892762E+01  0.82056069281E+01  0.51100000000E-03 0. -1.
        -11    1    3    3    0    0 -0.25406597080E+02 -0.21624943297E+02  0.22574263164E+02  0.40283131772E+02  0.51100000000E-03 0.  1.
         12    1    3    3    0    0  0.19744571426E+02  0.25418253369E+02 -0.26227706328E+02  0.41519011120E+02  0.00000000000E+00 0. -1.
</event>
<event>
 7    1  0.2879200E-015  0.9000781E+02  0.7816164E-02  0.1186339E+00
        -11   -1    0    0    0    0  0.00000000000E+00  0.00000000000E+00  0.45593999997E+02  0.45594000000E+02  0.51100000000E-03 0.  1.
         11   -1    0    0    0    0 -0.00000000000E+00 -0.00000000000E+00 -0.45593999997E+02  0.45594000000E+02  0.51100000000E-03 0. -1.
    9900012    2    1    2    0    0  0.24347405055E+00  0.11330512945E+01 -0.22305891617E+00  0.90007813519E+02  0.90000075858E+02 0.  0.
        -12    1    1    2    0    0 -0.24347405055E+00 -0.11330512945E+01  0.22305891617E+00  0.11801864807E+01  0.00000000000E+00 0.  1.
         11    1    3    3    0    0  0.34304859843E+02 -0.94267258757E+01 -0.13016514298E+02  0.37882927742E+02  0.51100000000E-03 0. -1.
        -11    1    3    3    0    0  0.50043526395E+00 -0.94080070090E+01 -0.18630953656E+01  0.96037573864E+01  0.51100000000E-03 0.  1.
        -12    1    3    3    0    0 -0.34561821057E+02  0.19967784179E+02  0.14656550747E+02  0.42521128390E+02  0.00000000000E+00 0.  1.
</event>
<event>
 7    1  0.2879200E-015  0.9000778E+02  0.7816164E-02  0.1186339E+00
        -11   -1    0    0    0    0  0.00000000000E+00  0.00000000000E+00  0.45593999997E+02  0.45594000000E+02  0.51100000000E-03 0.  1.
         11   -1    0    0    0    0 -0.00000000000E+00 -0.00000000000E+00 -0.45593999997E+02  0.45594000000E+02  0.51100000000E-03 0. -1.
    9900012    2    1    2    0    0  0.26646933444E+00  0.42427378849E+00 -0.10686034346E+01  0.90007776524E+02  0.90000038374E+02 0.  0.
        -12    1    1    2    0    0 -0.26646933444E+00 -0.42427378849E+00  0.10686034346E+01  0.11802234764E+01  0.00000000000E+00 0.  1.
         11    1    3    3    0    0  0.55898982788E+01 -0.27150607897E+01  0.73536186479E+01  0.96277840306E+01  0.51100000000E-03 0. -1.
        -11    1    3    3    0    0  0.22981451620E+02 -0.28831276122E+02 -0.77454121660E+01  0.37674673340E+02  0.51100000000E-03 0.  1.
         12    1    3    3    0    0 -0.28304880565E+02  0.31970610700E+02 -0.67680991650E+00  0.42705319153E+02  0.00000000000E+00 0. -1.
</event>
<event>
 7    1  0.2879200E-015  0.9000787E+02  0.7816164E-02  0.1186339E+00
        -11   -1    0    0    0    0  0.00000000000E+00  0.00000000000E+00  0.45593999997E+02  0.45594000000E+02  0.51100000000E-03 0.  1.
         11   -1    0    0    0    0 -0.00000000000E+00 -0.00000000000E+00 -0.45593999997E+02  0.45594000000E+02  0.51100000000E-03 0. -1.
    9900012    2    1    2    0    0 -0.15638642761E+00  0.64396909062E+00 -0.97649483889E+00  0.90007874975E+02  0.90000138124E+02 0.  0.
        -12    1    1    2    0    0  0.15638642761E+00 -0.64396909062E+00  0.97649483889E+00  0.11801250251E+01  0.00000000000E+00 0.  1.
         11    1    3    3    0    0  0.29240049341E+01 -0.75400471595E+01  0.70395609905E+01  0.10721825182E+02  0.51100000000E-03 0. -1.
        -11    1    3    3    0    0 -0.35397333813E+02 -0.66759163203E+01  0.12614697307E+02  0.38166342348E+02  0.51100000000E-03 0.  1.
         12    1    3    3    0    0  0.32316942452E+02  0.14859932570E+02 -0.20630753136E+02  0.41119707445E+02  0.00000000000E+00 0. -1.
</event>
<event>
 7    1  0.2879200E-015  0.9000781E+02  0.7816164E-02  0.1186339E+00
        -11   -1    0    0    0    0  0.00000000000E+00  0.00000000000E+00  0.45593999997E+02  0.45594000000E+02  0.51100000000E-03 0.  1.
         11   -1    0    0    0    0 -0.00000000000E+00 -0.00000000000E+00 -0.45593999997E+02  0.45594000000E+02  0.51100000000E-03 0. -1.
    9900012    2    1    2    0    0 -0.84788853558E+00 -0.62654534527E+00 -0.53044348916E+00  0.90007811738E+02  0.90000074053E+02 0.  0.
        -12    1    1    2    0    0  0.84788853558E+00  0.62654534527E+00  0.53044348916E+00  0.11801882619E+01  0.00000000000E+00 0.  1.
         11    1    3    3    0    0  0.56918545342E+00 -0.37182511899E+00  0.11190337702E+02  0.11210971597E+02  0.51100000000E-03 0. -1.
        -11    1    3    3    0    0  0.16025034991E+02  0.17621013326E+02  0.24908272159E+02  0.34463370110E+02  0.51100000000E-03 0.  1.
         12    1    3    3    0    0 -0.17442108980E+02 -0.17875733552E+02 -0.36629053350E+02  0.44333470032E+02  0.00000000000E+00 0. -1.
</event>
<event>
 7    1  0.2879200E-015  0.9000741E+02  0.7816164E-02  0.1186340E+00
        -11   -1    0    0    0    0  0.00000000000E+00  0.00000000000E+00  0.45593999997E+02  0.45594000000E+02  0.51100000000E-03 0.  1.
         11   -1    0    0    0    0 -0.00000000000E+00 -0.00000000000E+00 -0.45593999997E+02  0.45594000000E+02  0.51100000000E-03 0. -1.
    9900012    2    1    2    0    0 -0.15628678928E+00  0.75924367405E+00 -0.89045847761E+00  0.90007409971E+02  0.89999666982E+02 0.  0.
        -12    1    1    2    0    0  0.15628678928E+00 -0.75924367405E+00  0.89045847761E+00  0.11805900294E+01  0.00000000000E+00 0.  1.
         11    1    3    3    0    0 -0.88906238167E+01  0.37573830316E+01 -0.97507621880E+00  0.97011284390E+01  0.51100000000E-03 0. -1.
        -11    1    3    3    0    0 -0.12578266236E+01 -0.40983898723E+02  0.10456497368E+01  0.41016526742E+02  0.51100000000E-03 0.  1.
         12    1    3    3    0    0  0.99921636511E+01  0.37985759365E+02 -0.96103199560E+00  0.39289754790E+02  0.00000000000E+00 0. -1.
</event>
<event>
 7    1  0.2879200E-015  0.9000776E+02  0.7816164E-02  0.1186339E+00
        -11   -1    0    0    0    0  0.00000000000E+00  0.00000000000E+00  0.45593999997E+02  0.45594000000E+02  0.51100000000E-03 0.  1.
         11   -1    0    0    0    0 -0.00000000000E+00 -0.00000000000E+00 -0.45593999997E+02  0.45594000000E+02  0.51100000000E-03 0. -1.
    9900012    2    1    2    0    0 -0.29539032794E-01 -0.72399291167E+00 -0.93162121793E+00  0.90007764267E+02  0.90000025956E+02 0.  0.
        -12    1    1    2    0    0  0.29539032794E-01  0.72399291167E+00  0.93162121793E+00  0.11802357325E+01  0.00000000000E+00 0.  1.
         11    1    3    3    0    0  0.27528049459E+02  0.33057460718E+02  0.26961575439E+01  0.43102882524E+02  0.51100000000E-03 0. -1.
        -11    1    3    3    0    0 -0.37366401672E+01 -0.46943848825E+01 -0.69266387297E+01  0.91639540329E+01  0.51100000000E-03 0.  1.
        -12    1    3    3    0    0 -0.23820948324E+02 -0.29087068747E+02  0.32988599679E+01  0.37740927711E+02  0.00000000000E+00 0.  1.
</event>
<event>
 7    1  0.2879200E-015  0.9000775E+02  0.7816164E-02  0.1186339E+00
        -11   -1    0    0    0    0  0.00000000000E+00  0.00000000000E+00  0.45593999997E+02  0.45594000000E+02  0.51100000000E-03 0. -1.
         11   -1    0    0    0    0 -0.00000000000E+00 -0.00000000000E+00 -0.45593999997E+02  0.45594000000E+02  0.51100000000E-03 0.  1.
    9900012    2    1    2    0    0 -0.27618099992E+00 -0.91913306808E+00  0.68695020513E+00  0.90007753362E+02  0.90000014907E+02 0.  0.
        -12    1    1    2    0    0  0.27618099992E+00  0.91913306808E+00 -0.68695020513E+00  0.11802466377E+01  0.00000000000E+00 0.  1.
         11    1    3    3    0    0 -0.29625663819E+01 -0.13611880061E+01  0.74200553730E+01  0.81047427075E+01  0.51100000000E-03 0. -1.
        -11    1    3    3    0    0  0.34553818759E+02 -0.17392048700E+02  0.12469089724E+02  0.40643916490E+02  0.51100000000E-03 0.  1.
         12    1    3    3    0    0 -0.31867433377E+02  0.17834103638E+02 -0.19202194891E+02  0.41259094165E+02  0.00000000000E+00 0. -1.
</event>
<event>
 7    1  0.2879200E-015  0.9000806E+02  0.7816164E-02  0.1186338E+00
        -11   -1    0    0    0    0  0.00000000000E+00  0.00000000000E+00  0.45593999997E+02  0.45594000000E+02  0.51100000000E-03 0.  1.
         11   -1    0    0    0    0 -0.00000000000E+00 -0.00000000000E+00 -0.45593999997E+02  0.45594000000E+02  0.51100000000E-03 0. -1.
    9900012    2    1    2    0    0 -0.82552209451E+00  0.72708699896E+00  0.42673893251E+00  0.90008064261E+02  0.90000329908E+02 0.  0.
        -12    1    1    2    0    0  0.82552209451E+00 -0.72708699896E+00 -0.42673893251E+00  0.11799357394E+01  0.00000000000E+00 0.  1.
         11    1    3    3    0    0  0.69375287850E+01 -0.25305538171E+02 -0.20265660777E+02  0.33154133600E+02  0.51100000000E-03 0. -1.
        -11    1    3    3    0    0  0.15303864466E+02  0.20926129535E+01 -0.33765396516E+01  0.15811018843E+02  0.51100000000E-03 0.  1.
        -12    1    3    3    0    0 -0.23066915346E+02  0.23940012217E+02  0.24068939361E+02  0.41042911818E+02  0.00000000000E+00 0.  1.
</event>
<event>
 7    1  0.2879200E-015  0.9000775E+02  0.7816164E-02  0.1186339E+00
        -11   -1    0    0    0    0  0.00000000000E+00  0.00000000000E+00  0.45593999997E+02  0.45594000000E+02  0.51100000000E-03 0.  1.
         11   -1    0    0    0    0 -0.00000000000E+00 -0.00000000000E+00 -0.45593999997E+02  0.45594000000E+02  0.51100000000E-03 0. -1.
    9900012    2    1    2    0    0 -0.18430627382E+00  0.40520047456E+00 -0.10930819089E+01  0.90007752447E+02  0.90000013979E+02 0.  0.
        -12    1    1    2    0    0  0.18430627382E+00 -0.40520047456E+00  0.10930819089E+01  0.11802475532E+01  0.00000000000E+00 0.  1.
         11    1    3    3    0    0  0.75257700897E+01 -0.26162153737E+01 -0.58663247668E+01  0.98942187592E+01  0.51100000000E-03 0. -1.
        -11    1    3    3    0    0 -0.31112738627E+02 -0.81778427928E+01  0.29955961642E+02  0.43957243496E+02  0.51100000000E-03 0.  1.
         12    1    3    3    0    0  0.23402662263E+02  0.11199258641E+02 -0.25182718784E+02  0.36156290192E+02  0.00000000000E+00 0. -1.
</event>
<event>
 7    1  0.2879200E-015  0.9000774E+02  0.7816164E-02  0.1186339E+00
        -11   -1    0    0    0    0  0.00000000000E+00  0.00000000000E+00  0.45593999997E+02  0.45594000000E+02  0.51100000000E-03 0.  1.
         11   -1    0    0    0    0 -0.00000000000E+00 -0.00000000000E+00 -0.45593999997E+02  0.45594000000E+02  0.51100000000E-03 0. -1.
    9900012    2    1    2    0    0 -0.48992531341E+00 -0.62428828425E+00 -0.87364909852E+00  0.90007735020E+02  0.89999996323E+02 0.  0.
        -12    1    1    2    0    0  0.48992531341E+00  0.62428828425E+00  0.87364909852E+00  0.11802649795E+01  0.00000000000E+00 0.  1.
         11    1    3    3    0    0 -0.53618818351E+01  0.61677092933E+00  0.60179921812E+01  0.80837128441E+01  0.51100000000E-03 0. -1.
        -11    1    3    3    0    0  0.13989826482E+01 -0.26442760754E+02  0.28133375128E+02  0.38635004142E+02  0.51100000000E-03 0.  1.
         12    1    3    3    0    0  0.34729738734E+01  0.25201701540E+02 -0.35025016407E+02  0.43289018034E+02  0.00000000000E+00 0. -1.
</event>
<event>
 7    1  0.2879200E-015  0.9000765E+02  0.7816164E-02  0.1186339E+00
        -11   -1    0    0    0    0  0.00000000000E+00  0.00000000000E+00  0.45593999997E+02  0.45594000000E+02  0.51100000000E-03 0. -1.
         11   -1    0    0    0    0 -0.00000000000E+00 -0.00000000000E+00 -0.45593999997E+02  0.45594000000E+02  0.51100000000E-03 0.  1.
    9900012    2    1    2    0    0 -0.12618584391E+00 -0.52592392776E+00  0.10491472644E+01  0.90007648854E+02  0.89999909019E+02 0.  0.
        -12    1    1    2    0    0  0.12618584391E+00  0.52592392776E+00 -0.10491472644E+01  0.11803511458E+01  0.00000000000E+00 0.  1.
         11    1    3    3    0    0 -0.60037892210E+01  0.11938026158E+02  0.40605193984E+02  0.42747441236E+02  0.51100000000E-03 0. -1.
        -11    1    3    3    0    0 -0.48680667646E+01 -0.60686301001E+01 -0.25321249916E+01  0.81815647984E+01  0.51100000000E-03 0.  1.
        -12    1    3    3    0    0  0.10745670142E+02 -0.63953199852E+01 -0.37023921728E+02  0.39078642819E+02  0.00000000000E+00 0.  1.
</event>
<event>
 7    1  0.2879200E-015  0.9000785E+02  0.7816164E-02  0.1186339E+00
        -11   -1    0    0    0    0  0.00000000000E+00  0.00000000000E+00  0.45593999997E+02  0.45594000000E+02  0.51100000000E-03 0. -1.
         11   -1    0    0    0    0 -0.00000000000E+00 -0.00000000000E+00 -0.45593999997E+02  0.45594000000E+02  0.51100000000E-03 0.  1.
    9900012    2    1    2    0    0 -0.64080181933E+00 -0.27755514277E+00  0.95135907468E+00  0.90007852586E+02  0.90000115440E+02 0.  0.
        -12    1    1    2    0    0  0.64080181933E+00  0.27755514277E+00 -0.95135907468E+00  0.11801474136E+01  0.00000000000E+00 0.  1.
         11    1    3    3    0    0 -0.10744143171E+01  0.74140399129E-01  0.19385318090E+01  0.22176042837E+01  0.51100000000E-03 0. -1.
        -11    1    3    3    0    0 -0.38423044352E+02 -0.20729971960E+02 -0.38034769638E+01  0.43823834976E+02  0.51100000000E-03 0.  1.
         12    1    3    3    0    0  0.38856656850E+02  0.20378276418E+02  0.28163042295E+01  0.43966413327E+02  0.00000000000E+00 0. -1.
</event>
<event>
 7    1  0.2879200E-015  0.9000774E+02  0.7816164E-02  0.1186339E+00
        -11   -1    0    0    0    0  0.00000000000E+00  0.00000000000E+00  0.45593999997E+02  0.45594000000E+02  0.51100000000E-03 0.  1.
         11   -1    0    0    0    0 -0.00000000000E+00 -0.00000000000E+00 -0.45593999997E+02  0.45594000000E+02  0.51100000000E-03 0. -1.
    9900012    2    1    2    0    0 -0.80072252821E+00  0.80568713370E+00  0.32049725840E+00  0.90007742902E+02  0.90000004308E+02 0.  0.
        -12    1    1    2    0    0  0.80072252821E+00 -0.80568713370E+00 -0.32049725840E+00  0.11802570979E+01  0.00000000000E+00 0.  1.
         11    1    3    3    0    0  0.42849427916E+01 -0.17309935566E+01  0.61033545169E+01  0.76555868515E+01  0.51100000000E-03 0. -1.
        -11    1    3    3    0    0  0.93370349888E+00 -0.38736195424E+02  0.55190857034E+01  0.39138535300E+02  0.51100000000E-03 0.  1.
         12    1    3    3    0    0 -0.60193688187E+01  0.41272876114E+02 -0.11301942962E+02  0.43213620751E+02  0.00000000000E+00 0. -1.
</event>
<event>
 7    1  0.2879200E-015  0.9000667E+02  0.7816164E-02  0.1186341E+00
        -11   -1    0    0    0    0  0.00000000000E+00  0.00000000000E+00  0.45593999997E+02  0.45594000000E+02  0.51100000000E-03 0.  1.
         11   -1    0    0    0    0 -0.00000000000E+00 -0.00000000000E+00 -0.45593999997E+02  0.45594000000E+02  0.51100000000E-03 0. -1.
    9900012    2    1    2    0    0 -0.11087858633E+01 -0.33130955591E+00  0.23739884904E+00  0.90006674335E+02  0.89998921630E+02 0.  0.
        -12    1    1    2    0    0  0.11087858633E+01  0.33130955591E+00 -0.23739884904E+00  0.11813256646E+01  0.00000000000E+00 0.  1.
         11    1    3    3    0    0  0.11653512628E+02  0.12857592425E+01 -0.54336802928E+00  0.11736813132E+02  0.51100000000E-03 0. -1.
        -11    1    3    3    0    0  0.17159283789E+02 -0.29658261050E+02  0.11039052486E+02  0.35998807601E+02  0.51100000000E-03 0.  1.
         12    1    3    3    0    0 -0.29921582281E+02  0.28041192251E+02 -0.10258285608E+02  0.42271053603E+02  0.00000000000E+00 0. -1.
</event>
<event>
 7    1  0.2879200E-015  0.9000778E+02  0.7816164E-02  0.1186339E+00
        -11   -1    0    0    0    0  0.00000000000E+00  0.00000000000E+00  0.45593999997E+02  0.45594000000E+02  0.51100000000E-03 0.  1.
         11   -1    0    0    0    0 -0.00000000000E+00 -0.00000000000E+00 -0.45593999997E+02  0.45594000000E+02  0.51100000000E-03 0. -1.
    9900012    2    1    2    0    0 -0.38925083214E+00 -0.10303223948E+01  0.42407222126E+00  0.90007780658E+02  0.90000042562E+02 0.  0.
        -12    1    1    2    0    0  0.38925083214E+00  0.10303223948E+01 -0.42407222126E+00  0.11802193425E+01  0.00000000000E+00 0.  1.
         11    1    3    3    0    0 -0.90645269532E+01 -0.20952125025E+01  0.61908125390E+01  0.11175049193E+02  0.51100000000E-03 0. -1.
        -11    1    3    3    0    0  0.64754738068E+01 -0.38341872100E+02 -0.61171647868E+01  0.39363061650E+02  0.51100000000E-03 0.  1.
         12    1    3    3    0    0  0.21998023142E+01  0.39406762208E+02  0.35042446899E+00  0.39469669814E+02  0.00000000000E+00 0. -1.
</event>
<event>
 7    1  0.2879200E-015  0.9000761E+02  0.7816164E-02  0.1186339E+00
        -11   -1    0    0    0    0  0.00000000000E+00  0.00000000000E+00  0.45593999997E+02  0.45594000000E+02  0.51100000000E-03 0.  1.
         11   -1    0    0    0    0 -0.00000000000E+00 -0.00000000000E+00 -0.45593999997E+02  0.45594000000E+02  0.51100000000E-03 0. -1.
    9900012    2    1    2    0    0 -0.81005860700E+00 -0.85599919816E+00 -0.66310390170E-01  0.90007607420E+02  0.89999867038E+02 0.  0.
        -12    1    1    2    0    0  0.81005860700E+00  0.85599919816E+00  0.66310390170E-01  0.11803925796E+01  0.00000000000E+00 0.  1.
         11    1    3    3    0    0  0.34501426937E+02  0.11884068929E+02  0.50941754411E+01  0.36844676396E+02  0.51100000000E-03 0. -1.
        -11    1    3    3    0    0  0.38973647989E+01  0.75780887481E+01 -0.26785451731E+01  0.89326080153E+01  0.51100000000E-03 0.  1.
        -12    1    3    3    0    0 -0.39208850343E+02 -0.20318156876E+02 -0.24819406582E+01  0.44230323009E+02  0.00000000000E+00 0.  1.
</event>
<event>
 7    1  0.2879200E-015  0.9000773E+02  0.7816164E-02  0.1186339E+00
        -11   -1    0    0    0    0  0.00000000000E+00  0.00000000000E+00  0.45593999997E+02  0.45594000000E+02  0.51100000000E-03 0.  1.
         11   -1    0    0    0    0 -0.00000000000E+00 -0.00000000000E+00 -0.45593999997E+02  0.45594000000E+02  0.51100000000E-03 0. -1.
    9900012    2    1    2    0    0  0.72120316458E+00  0.79538349247E+00  0.49018044485E+00  0.90007726399E+02  0.89999987587E+02 0.  0.
        -12    1    1    2    0    0 -0.72120316458E+00 -0.79538349247E+00 -0.49018044485E+00  0.11802736010E+01  0.00000000000E+00 0.  1.
         11    1    3    3    0    0  0.76057206299E+01  0.64488164113E-01 -0.83759913154E+00  0.76519747509E+01  0.51100000000E-03 0. -1.
        -11    1    3    3    0    0  0.30110400812E+02  0.24099260958E+02  0.15445380373E+01  0.38597878359E+02  0.51100000000E-03 0.  1.
         12    1    3    3    0    0 -0.36994918278E+02 -0.23368365630E+02 -0.21675846091E+00  0.43757873289E+02  0.00000000000E+00 0. -1.
</event>
<event>
 7    1  0.2879200E-015  0.9000778E+02  0.7816164E-02  0.1186339E+00
        -11   -1    0    0    0    0  0.00000000000E+00  0.00000000000E+00  0.45593999997E+02  0.45594000000E+02  0.51100000000E-03 0. -1.
         11   -1    0    0    0    0 -0.00000000000E+00 -0.00000000000E+00 -0.45593999997E+02  0.45594000000E+02  0.51100000000E-03 0.  1.
    9900012    2    1    2    0    0 -0.59493458322E+00 -0.63311079424E+00  0.79883338777E+00  0.90007783402E+02  0.90000045343E+02 0.  0.
        -12    1    1    2    0    0  0.59493458322E+00  0.63311079424E+00 -0.79883338777E+00  0.11802165977E+01  0.00000000000E+00 0.  1.
         11    1    3    3    0    0  0.54964073173E+00  0.61081399540E+01  0.19691154462E+01  0.64411873543E+01  0.51100000000E-03 0. -1.
        -11    1    3    3    0    0  0.14917488372E+02  0.28639377360E+02 -0.22389608022E+02  0.39294273661E+02  0.51100000000E-03 0.  1.
         12    1    3    3    0    0 -0.16062063687E+02 -0.35380628108E+02  0.21219325964E+02  0.44272322387E+02  0.00000000000E+00 0. -1.
</event>
<event>
 7    1  0.2879200E-015  0.9000767E+02  0.7816164E-02  0.1186339E+00
        -11   -1    0    0    0    0  0.00000000000E+00  0.00000000000E+00  0.45593999997E+02  0.45594000000E+02  0.51100000000E-03 0.  1.
         11   -1    0    0    0    0 -0.00000000000E+00 -0.00000000000E+00 -0.45593999997E+02  0.45594000000E+02  0.51100000000E-03 0. -1.
    9900012    2    1    2    0    0 -0.11651856653E+00 -0.74431414066E+00  0.90862182023E+00  0.90007672194E+02  0.89999932667E+02 0.  0.
        -12    1    1    2    0    0  0.11651856653E+00  0.74431414066E+00 -0.90862182023E+00  0.11803278055E+01  0.00000000000E+00 0.  1.
         11    1    3    3    0    0  0.20258210716E+01 -0.91839371756E+01 -0.15576651758E+01  0.95328366251E+01  0.51100000000E-03 0. -1.
        -11    1    3    3    0    0 -0.15703785981E+02 -0.19307166103E+02  0.30083923960E+02  0.39043796410E+02  0.51100000000E-03 0.  1.
         12    1    3    3    0    0  0.13561446342E+02  0.27746789138E+02 -0.27617636963E+02  0.41431039159E+02  0.00000000000E+00 0. -1.
</event>
<event>
 7    1  0.2879200E-015  0.9000769E+02  0.7816164E-02  0.1186339E+00
        -11   -1    0    0    0    0  0.00000000000E+00  0.00000000000E+00  0.45593999997E+02  0.45594000000E+02  0.51100000000E-03 0.  1.
         11   -1    0    0    0    0 -0.00000000000E+00 -0.00000000000E+00 -0.45593999997E+02  0.45594000000E+02  0.51100000000E-03 0. -1.
    9900012    2    1    2    0    0  0.55147377024E+00  0.41614675155E+00 -0.95699446508E+00  0.90007686548E+02  0.89999947211E+02 0.  0.
        -12    1    1    2    0    0 -0.55147377024E+00 -0.41614675155E+00  0.95699446508E+00  0.11803134517E+01  0.00000000000E+00 0.  1.
         11    1    3    3    0    0 -0.83509097591E+01  0.35658753262E+01 -0.38116925441E+02  0.39183582863E+02  0.51100000000E-03 0. -1.
        -11    1    3    3    0    0  0.27726982699E+01 -0.55857756702E+01 -0.50978626594E+01  0.80546228644E+01  0.51100000000E-03 0.  1.
        -12    1    3    3    0    0  0.61296852594E+01  0.24360470955E+01  0.42257793635E+02  0.42769480821E+02  0.00000000000E+00 0.  1.
</event>
<event>
 7    1  0.2879200E-015  0.9000775E+02  0.7816164E-02  0.1186339E+00
        -11   -1    0    0    0    0  0.00000000000E+00  0.00000000000E+00  0.45593999997E+02  0.45594000000E+02  0.51100000000E-03 0. -1.
         11   -1    0    0    0    0 -0.00000000000E+00 -0.00000000000E+00 -0.45593999997E+02  0.45594000000E+02  0.51100000000E-03 0.  1.
    9900012    2    1    2    0    0 -0.83249850364E+00  0.25709046802E+00  0.79614667309E+00  0.90007746302E+02  0.90000007753E+02 0.  0.
        -12    1    1    2    0    0  0.83249850364E+00 -0.25709046802E+00 -0.79614667309E+00  0.11802536983E+01  0.00000000000E+00 0.  1.
         11    1    3    3    0    0  0.13395518879E+02  0.17543562200E+02  0.27811244659E+02  0.35506081598E+02  0.51100000000E-03 0. -1.
        -11    1    3    3    0    0  0.64513109250E+01  0.10725725560E+02 -0.72394479578E+01  0.14459260301E+02  0.51100000000E-03 0.  1.
        -12    1    3    3    0    0 -0.20679328308E+02 -0.28012197292E+02 -0.19775650028E+02  0.40042404403E+02  0.00000000000E+00 0.  1.
</event>
<event>
 7    1  0.2879200E-015  0.9000761E+02  0.7816164E-02  0.1186339E+00
        -11   -1    0    0    0    0  0.00000000000E+00  0.00000000000E+00  0.45593999997E+02  0.45594000000E+02  0.51100000000E-03 0.  1.
         11   -1    0    0    0    0 -0.00000000000E+00 -0.00000000000E+00 -0.45593999997E+02  0.45594000000E+02  0.51100000000E-03 0. -1.
    9900012    2    1    2    0    0 -0.41336346456E+00 -0.98566646267E+00 -0.50091083250E+00  0.90007610492E+02  0.89999870150E+02 0.  0.
        -12    1    1    2    0    0  0.41336346456E+00  0.98566646267E+00  0.50091083250E+00  0.11803895084E+01  0.00000000000E+00 0.  1.
         11    1    3    3    0    0 -0.36681362690E+01  0.71631922147E+01 -0.59096268380E+01  0.99844997881E+01  0.51100000000E-03 0. -1.
        -11    1    3    3    0    0  0.31379818410E+02  0.52454720400E+01  0.27321408277E+02  0.41936467792E+02  0.51100000000E-03 0.  1.
         12    1    3    3    0    0 -0.28125045606E+02 -0.13394330717E+02 -0.21912692272E+02  0.38086642912E+02  0.00000000000E+00 0. -1.
</event>
<event>
 7    1  0.2879200E-015  0.9000769E+02  0.7816164E-02  0.1186339E+00
        -11   -1    0    0    0    0  0.00000000000E+00  0.00000000000E+00  0.45593999997E+02  0.45594000000E+02  0.51100000000E-03 0.  1.
         11   -1    0    0    0    0 -0.00000000000E+00 -0.00000000000E+00 -0.45593999997E+02  0.45594000000E+02  0.51100000000E-03 0. -1.
    9900012    2    1    2    0    0  0.82404049730E+00 -0.76081714970E+00 -0.36775722498E+00  0.90007690357E+02  0.89999951070E+02 0.  0.
        -12    1    1    2    0    0 -0.82404049730E+00  0.76081714970E+00  0.36775722498E+00  0.11803096428E+01  0.00000000000E+00 0.  1.
         11    1    3    3    0    0  0.95308266558E+01  0.19068364006E+02  0.11535948788E+02  0.24238755688E+02  0.51100000000E-03 0. -1.
        -11    1    3    3    0    0  0.71122938473E+01  0.16235305388E+02  0.10359525565E+02  0.20530212736E+02  0.51100000000E-03 0.  1.
         12    1    3    3    0    0 -0.15819080006E+02 -0.36064486543E+02 -0.22263231578E+02  0.45238721933E+02  0.00000000000E+00 0. -1.
</event>
<event>
 7    1  0.3568348E-015  0.9000773E+02  0.7816164E-02  0.1186339E+00
        -11   -1    0    0    0    0  0.00000000000E+00  0.00000000000E+00  0.45593999997E+02  0.45594000000E+02  0.51100000000E-03 0. -1.
         11   -1    0    0    0    0 -0.00000000000E+00 -0.00000000000E+00 -0.45593999997E+02  0.45594000000E+02  0.51100000000E-03 0.  1.
    9900012    2    1    2    0    0  0.12941089115E+00 -0.29347853279E+00  0.11358529075E+01  0.90007729414E+02  0.89999990643E+02 0.  0.
        -12    1    1    2    0    0 -0.12941089115E+00  0.29347853279E+00 -0.11358529075E+01  0.11802705857E+01  0.00000000000E+00 0.  1.
         11    1    3    3    0    0 -0.12202431822E+02 -0.23469197211E+02  0.26940087885E+02  0.37755408826E+02  0.51100000000E-03 0. -1.
        -11    1    3    3    0    0 -0.10965308377E+01  0.22994731996E+01  0.90842726470E+01  0.94347213345E+01  0.51100000000E-03 0.  1.
        -12    1    3    3    0    0  0.13428373551E+02  0.20876245479E+02 -0.34888507625E+02  0.42817599253E+02  0.00000000000E+00 0.  1.
</event>
<event>
 7    1  0.2879200E-015  0.9000771E+02  0.7816164E-02  0.1186339E+00
        -11   -1    0    0    0    0  0.00000000000E+00  0.00000000000E+00  0.45593999997E+02  0.45594000000E+02  0.51100000000E-03 0.  1.
         11   -1    0    0    0    0 -0.00000000000E+00 -0.00000000000E+00 -0.45593999997E+02  0.45594000000E+02  0.51100000000E-03 0. -1.
    9900012    2    1    2    0    0 -0.19577996515E-01  0.11147422431E+01 -0.38736689351E+00  0.90007709071E+02  0.89999970031E+02 0.  0.
        -12    1    1    2    0    0  0.19577996515E-01 -0.11147422431E+01  0.38736689351E+00  0.11802909288E+01  0.00000000000E+00 0.  1.
         11    1    3    3    0    0 -0.57875941901E+01  0.46991120935E+01  0.73063847810E+01  0.10438446235E+02  0.51100000000E-03 0. -1.
        -11    1    3    3    0    0 -0.13696948672E+02 -0.17133124218E+02  0.28704625357E+02  0.36126248983E+02  0.51100000000E-03 0.  1.
         12    1    3    3    0    0  0.19464964866E+02  0.13548754368E+02 -0.36398377031E+02  0.43443013853E+02  0.00000000000E+00 0. -1.
</event>
<event>
 7    1  0.2879200E-015  0.9000766E+02  0.7816164E-02  0.1186339E+00
        -11   -1    0    0    0    0  0.00000000000E+00  0.00000000000E+00  0.45593999997E+02  0.45594000000E+02  0.51100000000E-03 0. -1.
         11   -1    0    0    0    0 -0.00000000000E+00 -0.00000000000E+00 -0.45593999997E+02  0.45594000000E+02  0.51100000000E-03 0.  1.
    9900012    2    1    2    0    0 -0.11174059876E+01 -0.22394850545E+00  0.30733081473E+00  0.90007660513E+02  0.89999920832E+02 0.  0.
        -12    1    1    2    0    0  0.11174059876E+01  0.22394850545E+00 -0.30733081473E+00  0.11803394867E+01  0.00000000000E+00 0.  1.
         11    1    3    3    0    0  0.55248030755E+01  0.79027282608E+01  0.73563184066E+00  0.96704559072E+01  0.51100000000E-03 0. -1.
        -11    1    3    3    0    0  0.46539434541E+01 -0.15723993289E+02 -0.37454915875E+02  0.40887331511E+02  0.51100000000E-03 0.  1.
         12    1    3    3    0    0 -0.11296152517E+02  0.75973165229E+01  0.37026614849E+02  0.39449873095E+02  0.00000000000E+00 0. -1.
</event>
<event>
 7    1  0.2879200E-015  0.9000773E+02  0.7816164E-02  0.1186339E+00
        -11   -1    0    0    0    0  0.00000000000E+00  0.00000000000E+00  0.45593999997E+02  0.45594000000E+02  0.51100000000E-03 0.  1.
         11   -1    0    0    0    0 -0.00000000000E+00 -0.00000000000E+00 -0.45593999997E+02  0.45594000000E+02  0.51100000000E-03 0. -1.
    9900012    2    1    2    0    0  0.84143712645E+00 -0.36139729474E+00 -0.74459433270E+00  0.90007726658E+02  0.89999987850E+02 0.  0.
        -12    1    1    2    0    0 -0.84143712645E+00  0.36139729474E+00  0.74459433270E+00  0.11802733424E+01  0.00000000000E+00 0.  1.
         11    1    3    3    0    0  0.64620842811E+01  0.22712057396E+01 -0.61974101654E+00  0.68775713705E+01  0.51100000000E-03 0. -1.
        -11    1    3    3    0    0  0.10847979961E+02  0.37094161350E+02 -0.78494313881E+01  0.39436899585E+02  0.51100000000E-03 0.  1.
         12    1    3    3    0    0 -0.16468627116E+02 -0.39726764384E+02  0.77245780720E+01  0.43693255703E+02  0.00000000000E+00 0. -1.
</event>
<event>
 7    1  0.2879200E-015  0.9000769E+02  0.7816164E-02  0.1186339E+00
        -11   -1    0    0    0    0  0.00000000000E+00  0.00000000000E+00  0.45593999997E+02  0.45594000000E+02  0.51100000000E-03 0.  1.
         11   -1    0    0    0    0 -0.00000000000E+00 -0.00000000000E+00 -0.45593999997E+02  0.45594000000E+02  0.51100000000E-03 0. -1.
    9900012    2    1    2    0    0  0.17719426506E+00 -0.10887632878E+01 -0.41992519129E+00  0.90007686283E+02  0.89999946942E+02 0.  0.
        -12    1    1    2    0    0 -0.17719426506E+00  0.10887632878E+01  0.41992519129E+00  0.11803137171E+01  0.00000000000E+00 0.  1.
         11    1    3    3    0    0 -0.15111538886E+01  0.52657436977E+01 -0.84803031963E+01  0.10095899431E+02  0.51100000000E-03 0. -1.
        -11    1    3    3    0    0 -0.53843479483E+01  0.31545583210E+02 -0.14617633596E+02  0.35182243179E+02  0.51100000000E-03 0.  1.
         12    1    3    3    0    0  0.70726961020E+01 -0.37900090196E+02  0.22678011601E+02  0.44729543673E+02  0.00000000000E+00 0. -1.
</event>
<event>
 7    1  0.2879200E-015  0.9000779E+02  0.7816164E-02  0.1186339E+00
        -11   -1    0    0    0    0  0.00000000000E+00  0.00000000000E+00  0.45593999997E+02  0.45594000000E+02  0.51100000000E-03 0.  1.
         11   -1    0    0    0    0 -0.00000000000E+00 -0.00000000000E+00 -0.45593999997E+02  0.45594000000E+02  0.51100000000E-03 0. -1.
    9900012    2    1    2    0    0  0.43328638494E-01 -0.27008966912E+00 -0.11480690335E+01  0.90007793109E+02  0.90000055178E+02 0.  0.
        -12    1    1    2    0    0 -0.43328638494E-01  0.27008966912E+00  0.11480690335E+01  0.11802068911E+01  0.00000000000E+00 0.  1.
         11    1    3    3    0    0  0.87217360891E+01 -0.52994852541E+00 -0.85769932278E+01  0.12243951116E+02  0.51100000000E-03 0. -1.
        -11    1    3    3    0    0 -0.84795174139E+01 -0.19927332851E+02 -0.28952871155E+02  0.36156182853E+02  0.51100000000E-03 0.  1.
         12    1    3    3    0    0 -0.19889003668E+00  0.20187191707E+02  0.36381795349E+02  0.41607659140E+02  0.00000000000E+00 0. -1.
</event>
<event>
 7    1  0.2879200E-015  0.9000769E+02  0.7816164E-02  0.1186339E+00
        -11   -1    0    0    0    0  0.00000000000E+00  0.00000000000E+00  0.45593999997E+02  0.45594000000E+02  0.51100000000E-03 0.  1.
         11   -1    0    0    0    0 -0.00000000000E+00 -0.00000000000E+00 -0.45593999997E+02  0.45594000000E+02  0.51100000000E-03 0. -1.
    9900012    2    1    2    0    0 -0.41822044775E+00 -0.55054955505E+00 -0.95661609554E+00  0.90007691773E+02  0.89999952505E+02 0.  0.
        -12    1    1    2    0    0  0.41822044775E+00  0.55054955505E+00  0.95661609554E+00  0.11803082266E+01  0.00000000000E+00 0.  1.
         11    1    3    3    0    0  0.81408720030E+00  0.91262341084E+01  0.74940542095E+01  0.11836880321E+02  0.51100000000E-03 0. -1.
        -11    1    3    3    0    0  0.11509863755E+01  0.76358301548E+01  0.32627979762E+02  0.33529326498E+02  0.51100000000E-03 0.  1.
         12    1    3    3    0    0 -0.23832940235E+01 -0.17312613818E+02 -0.41078650067E+02  0.44641484955E+02  0.00000000000E+00 0. -1.
</event>
<event>
 7    1  0.2879200E-015  0.9000767E+02  0.7816164E-02  0.1186339E+00
        -11   -1    0    0    0    0  0.00000000000E+00  0.00000000000E+00  0.45593999997E+02  0.45594000000E+02  0.51100000000E-03 0. -1.
         11   -1    0    0    0    0 -0.00000000000E+00 -0.00000000000E+00 -0.45593999997E+02  0.45594000000E+02  0.51100000000E-03 0.  1.
    9900012    2    1    2    0    0 -0.73601071886E+00  0.30196439390E+00  0.87193770063E+00  0.90007673932E+02  0.89999934428E+02 0.  0.
        -12    1    1    2    0    0  0.73601071886E+00 -0.30196439390E+00 -0.87193770063E+00  0.11803260682E+01  0.00000000000E+00 0.  1.
         11    1    3    3    0    0  0.10884017369E+02  0.35937763472E+01 -0.47596163188E+01  0.12410923023E+02  0.51100000000E-03 0. -1.
        -11    1    3    3    0    0  0.22476638242E+02 -0.25400694675E+02 -0.77898018980E+01  0.34800511067E+02  0.51100000000E-03 0.  1.
         12    1    3    3    0    0 -0.34096666330E+02  0.22108882721E+02  0.13421355917E+02  0.42796239842E+02  0.00000000000E+00 0. -1.
</event>
<event>
 7    1  0.2879200E-015  0.9000783E+02  0.7816164E-02  0.1186339E+00
        -11   -1    0    0    0    0  0.00000000000E+00  0.00000000000E+00  0.45593999997E+02  0.45594000000E+02  0.51100000000E-03 0. -1.
         11   -1    0    0    0    0 -0.00000000000E+00 -0.00000000000E+00 -0.45593999997E+02  0.45594000000E+02  0.51100000000E-03 0.  1.
    9900012    2    1    2    0    0  0.11758445389E+01 -0.34588323541E-01  0.94867744079E-01  0.90007827716E+02  0.90000090241E+02 0.  0.
        -12    1    1    2    0    0 -0.11758445389E+01  0.34588323541E-01 -0.94867744079E-01  0.11801722843E+01  0.00000000000E+00 0.  1.
         11    1    3    3    0    0  0.33337790339E+02 -0.21215560154E+02 -0.75070741133E+01  0.40222685382E+02  0.51100000000E-03 0. -1.
        -11    1    3    3    0    0  0.58827180429E+01  0.49425274571E+01  0.26353205916E+01  0.81227990323E+01  0.51100000000E-03 0.  1.
        -12    1    3    3    0    0 -0.38044663843E+02  0.16238444373E+02  0.49666212658E+01  0.41662343302E+02  0.00000000000E+00 0.  1.
</event>
<event>
 7    1  0.2879200E-015  0.9000722E+02  0.7816164E-02  0.1186340E+00
        -11   -1    0    0    0    0  0.00000000000E+00  0.00000000000E+00  0.45593999997E+02  0.45594000000E+02  0.51100000000E-03 0. -1.
         11   -1    0    0    0    0 -0.00000000000E+00 -0.00000000000E+00 -0.45593999997E+02  0.45594000000E+02  0.51100000000E-03 0.  1.
    9900012    2    1    2    0    0 -0.11606207226E+01 -0.21719141618E+00  0.45658786126E-02  0.90007223383E+02  0.89999477930E+02 0.  0.
        -12    1    1    2    0    0  0.11606207226E+01  0.21719141618E+00 -0.45658786126E-02  0.11807766174E+01  0.00000000000E+00 0.  1.
         11    1    3    3    0    0  0.46257060687E+01 -0.28631131115E+02  0.19543701004E+02  0.34972776194E+02  0.51100000000E-03 0. -1.
        -11    1    3    3    0    0 -0.42785180815E+01 -0.98220084759E+01  0.23251220946E+01  0.10962835422E+02  0.51100000000E-03 0.  1.
        -12    1    3    3    0    0 -0.15078087098E+01  0.38235948175E+02 -0.21864257220E+02  0.44071611766E+02  0.00000000000E+00 0.  1.
</event>
<event>
 7    1  0.2879200E-015  0.9000745E+02  0.7816164E-02  0.1186340E+00
        -11   -1    0    0    0    0  0.00000000000E+00  0.00000000000E+00  0.45593999997E+02  0.45594000000E+02  0.51100000000E-03 0. -1.
         11   -1    0    0    0    0 -0.00000000000E+00 -0.00000000000E+00 -0.45593999997E+02  0.45594000000E+02  0.51100000000E-03 0.  1.
    9900012    2    1    2    0    0 -0.11567864046E+01  0.10250530393E+00 -0.21219049005E+00  0.90007454818E+02  0.89999712421E+02 0.  0.
        -12    1    1    2    0    0  0.11567864046E+01 -0.10250530393E+00  0.21219049005E+00  0.11805451822E+01  0.00000000000E+00 0.  1.
         11    1    3    3    0    0  0.33070255934E+02 -0.60857538500E+00  0.23606350018E+02  0.40635845666E+02  0.51100000000E-03 0. -1.
        -11    1    3    3    0    0  0.77740401769E+00 -0.72143777267E+01 -0.52968431746E+01  0.89837715280E+01  0.51100000000E-03 0.  1.
        -12    1    3    3    0    0 -0.35004446357E+02  0.79254584156E+01 -0.18521697333E+02  0.40387837624E+02  0.00000000000E+00 0.  1.
</event>
<event>
 7    1  0.2879200E-015  0.9000775E+02  0.7816164E-02  0.1186339E+00
        -11   -1    0    0    0    0  0.00000000000E+00  0.00000000000E+00  0.45593999997E+02  0.45594000000E+02  0.51100000000E-03 0. -1.
         11   -1    0    0    0    0 -0.00000000000E+00 -0.00000000000E+00 -0.45593999997E+02  0.45594000000E+02  0.51100000000E-03 0.  1.
    9900012    2    1    2    0    0 -0.10491036157E+01 -0.35291262881E+00  0.40967127549E+00  0.90007747369E+02  0.90000008834E+02 0.  0.
        -12    1    1    2    0    0  0.10491036157E+01  0.35291262881E+00 -0.40967127549E+00  0.11802526315E+01  0.00000000000E+00 0.  1.
         11    1    3    3    0    0 -0.34494579698E+02 -0.11895376761E+02  0.10592555913E+01  0.36503397643E+02  0.51100000000E-03 0. -1.
        -11    1    3    3    0    0 -0.55979210315E+01 -0.73375666723E+01  0.36465427595E+01  0.99234005715E+01  0.51100000000E-03 0.  1.
        -12    1    3    3    0    0  0.39043397114E+02  0.18880030804E+02 -0.42961270753E+01  0.43580949154E+02  0.00000000000E+00 0.  1.
</event>
<event>
 7    1  0.2879200E-015  0.9000774E+02  0.7816164E-02  0.1186339E+00
        -11   -1    0    0    0    0  0.00000000000E+00  0.00000000000E+00  0.45593999997E+02  0.45594000000E+02  0.51100000000E-03 0.  1.
         11   -1    0    0    0    0 -0.00000000000E+00 -0.00000000000E+00 -0.45593999997E+02  0.45594000000E+02  0.51100000000E-03 0. -1.
    9900012    2    1    2    0    0 -0.11324442172E+01  0.17600566184E+00  0.28215430031E+00  0.90007737763E+02  0.89999999102E+02 0.  0.
        -12    1    1    2    0    0  0.11324442172E+01 -0.17600566184E+00 -0.28215430031E+00  0.11802622367E+01  0.00000000000E+00 0.  1.
         11    1    3    3    0    0  0.88927383949E+01 -0.69741880267E+01 -0.33233914677E+02  0.35102894180E+02  0.51100000000E-03 0. -1.
        -11    1    3    3    0    0  0.86908028938E+01  0.25926483934E+01 -0.60477646616E+01  0.10900795306E+02  0.51100000000E-03 0.  1.
        -12    1    3    3    0    0 -0.18715985506E+02  0.45575452951E+01  0.39563833639E+02  0.44004048277E+02  0.00000000000E+00 0.  1.
</event>
<event>
 7    1  0.2879200E-015  0.9000770E+02  0.7816164E-02  0.1186339E+00
        -11   -1    0    0    0    0  0.00000000000E+00  0.00000000000E+00  0.45593999997E+02  0.45594000000E+02  0.51100000000E-03 0. -1.
         11   -1    0    0    0    0 -0.00000000000E+00 -0.00000000000E+00 -0.45593999997E+02  0.45594000000E+02  0.51100000000E-03 0.  1.
    9900012    2    1    2    0    0  0.58380463093E+00 -0.93040428905E+00 -0.43201047350E+00  0.90007697904E+02  0.89999958717E+02 0.  0.
        -12    1    1    2    0    0 -0.58380463093E+00  0.93040428905E+00  0.43201047350E+00  0.11803020958E+01  0.00000000000E+00 0.  1.
         11    1    3    3    0    0  0.21249637512E+02  0.21327004265E+02  0.18104140163E+02  0.35130444013E+02  0.51100000000E-03 0. -1.
        -11    1    3    3    0    0  0.85129975905E+01  0.56419208766E+00  0.60128347704E+01  0.10437606187E+02  0.51100000000E-03 0.  1.
        -12    1    3    3    0    0 -0.29178830471E+02 -0.22821600641E+02 -0.24548985406E+02  0.44439647703E+02  0.00000000000E+00 0.  1.
</event>
<event>
 7    1  0.3252490E-015  0.9000777E+02  0.7816164E-02  0.1186339E+00
        -11   -1    0    0    0    0  0.00000000000E+00  0.00000000000E+00  0.45593999997E+02  0.45594000000E+02  0.51100000000E-03 0. -1.
         11   -1    0    0    0    0 -0.00000000000E+00 -0.00000000000E+00 -0.45593999997E+02  0.45594000000E+02  0.51100000000E-03 0.  1.
    9900012    2    1    2    0    0 -0.20817305021E+00 -0.64995428475E+00  0.96289279956E+00  0.90007771575E+02  0.90000033360E+02 0.  0.
        -12    1    1    2    0    0  0.20817305021E+00  0.64995428475E+00 -0.96289279956E+00  0.11802284247E+01  0.00000000000E+00 0.  1.
         11    1    3    3    0    0 -0.24132722415E+02 -0.91266530011E+01  0.27682796854E+02  0.37842057662E+02  0.51100000000E-03 0. -1.
        -11    1    3    3    0    0 -0.78681057950E+01 -0.44140310242E+01 -0.58937493202E+00  0.90409137678E+01  0.51100000000E-03 0.  1.
        -12    1    3    3    0    0  0.31792655160E+02  0.12890729741E+02 -0.26130529122E+02  0.43124800145E+02  0.00000000000E+00 0.  1.
</event>
<event>
 7    1  0.2879200E-015  0.9000809E+02  0.7816164E-02  0.1186338E+00
        -11   -1    0    0    0    0  0.00000000000E+00  0.00000000000E+00  0.45593999997E+02  0.45594000000E+02  0.51100000000E-03 0.  1.
         11   -1    0    0    0    0 -0.00000000000E+00 -0.00000000000E+00 -0.45593999997E+02  0.45594000000E+02  0.51100000000E-03 0. -1.
    9900012    2    1    2    0    0  0.60331410766E+00  0.90877208905E+00 -0.44981960759E+00  0.90008088011E+02  0.90000353972E+02 0.  0.
        -12    1    1    2    0    0 -0.60331410766E+00 -0.90877208905E+00  0.44981960759E+00  0.11799119890E+01  0.00000000000E+00 0.  1.
         11    1    3    3    0    0 -0.47712768291E+01 -0.17574748675E+01 -0.38641899091E+02  0.38974994113E+02  0.51100000000E-03 0. -1.
        -11    1    3    3    0    0 -0.78624426743E+01 -0.44723535959E+01 -0.95582075376E+00  0.90957982095E+01  0.51100000000E-03 0.  1.
        -12    1    3    3    0    0  0.13237033611E+02  0.71386005524E+01  0.39147900237E+02  0.41937295688E+02  0.00000000000E+00 0.  1.
</event>
<event>
 7    1  0.2879200E-015  0.9000759E+02  0.7816164E-02  0.1186339E+00
        -11   -1    0    0    0    0  0.00000000000E+00  0.00000000000E+00  0.45593999997E+02  0.45594000000E+02  0.51100000000E-03 0.  1.
         11   -1    0    0    0    0 -0.00000000000E+00 -0.00000000000E+00 -0.45593999997E+02  0.45594000000E+02  0.51100000000E-03 0. -1.
    9900012    2    1    2    0    0  0.11661116206E+01  0.72624208256E-01 -0.16813625062E+00  0.90007593127E+02  0.89999852556E+02 0.  0.
        -12    1    1    2    0    0 -0.11661116206E+01 -0.72624208256E-01  0.16813625062E+00  0.11804068731E+01  0.00000000000E+00 0.  1.
         11    1    3    3    0    0  0.62576099486E+01  0.35582569332E+02  0.26320423867E+01  0.36224364314E+02  0.51100000000E-03 0. -1.
        -11    1    3    3    0    0  0.77882040777E+01  0.28854021409E+01  0.83510307215E+01  0.11778004188E+02  0.51100000000E-03 0.  1.
        -12    1    3    3    0    0 -0.12879702406E+02 -0.38395347265E+02 -0.11151209359E+02  0.42005224625E+02  0.00000000000E+00 0.  1.
</event>
<event>
 7    1  0.2879200E-015  0.9000774E+02  0.7816164E-02  0.1186339E+00
        -11   -1    0    0    0    0  0.00000000000E+00  0.00000000000E+00  0.45593999997E+02  0.45594000000E+02  0.51100000000E-03 0. -1.
         11   -1    0    0    0    0 -0.00000000000E+00 -0.00000000000E+00 -0.45593999997E+02  0.45594000000E+02  0.51100000000E-03 0.  1.
    9900012    2    1    2    0    0  0.72597143043E+00  0.80692736067E+00  0.46350769017E+00  0.90007743391E+02  0.90000004804E+02 0.  0.
        -12    1    1    2    0    0 -0.72597143043E+00 -0.80692736067E+00 -0.46350769017E+00  0.11802566086E+01  0.00000000000E+00 0.  1.
         11    1    3    3    0    0 -0.55429611498E+00  0.33408691668E+01  0.92553184300E+01  0.98554335508E+01  0.51100000000E-03 0. -1.
        -11    1    3    3    0    0  0.15471341880E+02  0.31614765448E+02 -0.21268499435E+02  0.41124261482E+02  0.51100000000E-03 0.  1.
         12    1    3    3    0    0 -0.14191074335E+02 -0.34148707254E+02  0.12476688695E+02  0.39028048359E+02  0.00000000000E+00 0. -1.
</event>
<event>
 7    1  0.2879200E-015  0.9000826E+02  0.7816164E-02  0.1186338E+00
        -11   -1    0    0    0    0  0.00000000000E+00  0.00000000000E+00  0.45593999997E+02  0.45594000000E+02  0.51100000000E-03 0. -1.
         11   -1    0    0    0    0 -0.00000000000E+00 -0.00000000000E+00 -0.45593999997E+02  0.45594000000E+02  0.51100000000E-03 0.  1.
    9900012    2    1    2    0    0 -0.44496471763E+00  0.10773751688E+01 -0.18179603029E+00  0.90008262465E+02  0.90000530728E+02 0.  0.
        -12    1    1    2    0    0  0.44496471763E+00 -0.10773751688E+01  0.18179603029E+00  0.11797375348E+01  0.00000000000E+00 0.  1.
         11    1    3    3    0    0 -0.14637978070E+02  0.55082741216E+01 -0.55765219224E+01  0.16604489838E+02  0.51100000000E-03 0. -1.
        -11    1    3    3    0    0 -0.28064497077E+02 -0.95306250764E+01 -0.37304568313E+01  0.29872480964E+02  0.51100000000E-03 0.  1.
        -12    1    3    3    0    0  0.42257510428E+02  0.50997261236E+01  0.91251827235E+01  0.43531291663E+02  0.00000000000E+00 0.  1.
</event>
<event>
 7    1  0.2879200E-015  0.9000780E+02  0.7816164E-02  0.1186339E+00
        -11   -1    0    0    0    0  0.00000000000E+00  0.00000000000E+00  0.45593999997E+02  0.45594000000E+02  0.51100000000E-03 0.  1.
         11   -1    0    0    0    0 -0.00000000000E+00 -0.00000000000E+00 -0.45593999997E+02  0.45594000000E+02  0.51100000000E-03 0. -1.
    9900012    2    1    2    0    0 -0.85784225682E+00 -0.12809192418E-01 -0.81044494137E+00  0.90007797299E+02  0.90000059423E+02 0.  0.
        -12    1    1    2    0    0  0.85784225682E+00  0.12809192418E-01  0.81044494137E+00  0.11802027012E+01  0.00000000000E+00 0.  1.
         11    1    3    3    0    0  0.21020575646E+02  0.16191209195E+02 -0.28856991114E+02  0.39201349365E+02  0.51100000000E-03 0. -1.
        -11    1    3    3    0    0  0.80452398660E+01  0.10167533520E+00  0.75851866141E+01  0.11057634404E+02  0.51100000000E-03 0.  1.
        -12    1    3    3    0    0 -0.29923657769E+02 -0.16305693722E+02  0.20461359558E+02  0.39748813530E+02  0.00000000000E+00 0.  1.
</event>
<event>
 7    1  0.2879200E-015  0.9000777E+02  0.7816164E-02  0.1186339E+00
        -11   -1    0    0    0    0  0.00000000000E+00  0.00000000000E+00  0.45593999997E+02  0.45594000000E+02  0.51100000000E-03 0. -1.
         11   -1    0    0    0    0 -0.00000000000E+00 -0.00000000000E+00 -0.45593999997E+02  0.45594000000E+02  0.51100000000E-03 0.  1.
    9900012    2    1    2    0    0  0.59660510477E+00  0.10063953968E+01 -0.15544862423E+00  0.90007773911E+02  0.90000035727E+02 0.  0.
        -12    1    1    2    0    0 -0.59660510477E+00 -0.10063953968E+01  0.15544862423E+00  0.11802260887E+01  0.00000000000E+00 0.  1.
         11    1    3    3    0    0  0.95661609823E+00  0.82177764765E+01 -0.19013578805E+01  0.84889414315E+01  0.51100000000E-03 0. -1.
        -11    1    3    3    0    0  0.30389985715E+02  0.94669448126E+01 -0.22479265505E+02  0.38967828445E+02  0.51100000000E-03 0.  1.
         12    1    3    3    0    0 -0.30749996709E+02 -0.16678325892E+02  0.24225174761E+02  0.42551004035E+02  0.00000000000E+00 0. -1.
</event>
<event>
 7    1  0.2879200E-015  0.9000779E+02  0.7816164E-02  0.1186339E+00
        -11   -1    0    0    0    0  0.00000000000E+00  0.00000000000E+00  0.45593999997E+02  0.45594000000E+02  0.51100000000E-03 0. -1.
         11   -1    0    0    0    0 -0.00000000000E+00 -0.00000000000E+00 -0.45593999997E+02  0.45594000000E+02  0.51100000000E-03 0.  1.
    9900012    2    1    2    0    0 -0.20653165401E+00  0.52812945449E-01  0.11607970617E+01  0.90007790548E+02  0.90000052584E+02 0.  0.
        -12    1    1    2    0    0  0.20653165401E+00 -0.52812945449E-01 -0.11607970617E+01  0.11802094517E+01  0.00000000000E+00 0.  1.
         11    1    3    3    0    0  0.84891870147E+01  0.80888630727E-01  0.64870008142E+00  0.85143203603E+01  0.51100000000E-03 0. -1.
        -11    1    3    3    0    0  0.12144755162E+02  0.33865643117E+02 -0.14742909049E+02  0.38880975157E+02  0.51100000000E-03 0.  1.
         12    1    3    3    0    0 -0.20840473831E+02 -0.33893718803E+02  0.15255006030E+02  0.42612495031E+02  0.00000000000E+00 0. -1.
</event>
<event>
 7    1  0.2879200E-015  0.9000775E+02  0.7816164E-02  0.1186339E+00
        -11   -1    0    0    0    0  0.00000000000E+00  0.00000000000E+00  0.45593999997E+02  0.45594000000E+02  0.51100000000E-03 0.  1.
         11   -1    0    0    0    0 -0.00000000000E+00 -0.00000000000E+00 -0.45593999997E+02  0.45594000000E+02  0.51100000000E-03 0. -1.
    9900012    2    1    2    0    0  0.78397546588E+00 -0.67617682705E+00 -0.56671345292E+00  0.90007747158E+02  0.90000008621E+02 0.  0.
        -12    1    1    2    0    0 -0.78397546588E+00  0.67617682705E+00  0.56671345292E+00  0.11802528417E+01  0.00000000000E+00 0.  1.
         11    1    3    3    0    0 -0.33014024854E+01 -0.18566026243E+01  0.95129555495E+01  0.10239265365E+02  0.51100000000E-03 0. -1.
        -11    1    3    3    0    0 -0.33693688475E+02  0.92598264038E+01 -0.19482690278E+02  0.40007302443E+02  0.51100000000E-03 0.  1.
         12    1    3    3    0    0  0.37779066426E+02 -0.80794006066E+01  0.94030212755E+01  0.39761179350E+02  0.00000000000E+00 0. -1.
</event>
<event>
 7    1  0.2879200E-015  0.9000790E+02  0.7816164E-02  0.1186339E+00
        -11   -1    0    0    0    0  0.00000000000E+00  0.00000000000E+00  0.45593999997E+02  0.45594000000E+02  0.51100000000E-03 0.  1.
         11   -1    0    0    0    0 -0.00000000000E+00 -0.00000000000E+00 -0.45593999997E+02  0.45594000000E+02  0.51100000000E-03 0. -1.
    9900012    2    1    2    0    0 -0.85492703415E+00  0.79992344589E+00 -0.14783816884E+00  0.90007900904E+02  0.90000164395E+02 0.  0.
        -12    1    1    2    0    0  0.85492703415E+00 -0.79992344589E+00  0.14783816884E+00  0.11800990963E+01  0.00000000000E+00 0.  1.
         11    1    3    3    0    0 -0.22727692124E+02  0.36240839850E+01 -0.22745977103E+02  0.32358328891E+02  0.51100000000E-03 0. -1.
        -11    1    3    3    0    0 -0.12257314178E+02  0.72216830245E+01 -0.20420144243E+01  0.14372344268E+02  0.51100000000E-03 0.  1.
        -12    1    3    3    0    0  0.34130079268E+02 -0.10045843564E+02  0.24640153358E+02  0.43277227745E+02  0.00000000000E+00 0.  1.
</event>
<event>
 7    1  0.2879200E-015  0.9000770E+02  0.7816164E-02  0.1186339E+00
        -11   -1    0    0    0    0  0.00000000000E+00  0.00000000000E+00  0.45593999997E+02  0.45594000000E+02  0.51100000000E-03 0. -1.
         11   -1    0    0    0    0 -0.00000000000E+00 -0.00000000000E+00 -0.45593999997E+02  0.45594000000E+02  0.51100000000E-03 0.  1.
    9900012    2    1    2    0    0  0.46341777475E+00 -0.91499641069E+00  0.58407154709E+00  0.90007697480E+02  0.89999958287E+02 0.  0.
        -12    1    1    2    0    0 -0.46341777475E+00  0.91499641069E+00 -0.58407154709E+00  0.11803025195E+01  0.00000000000E+00 0.  1.
         11    1    3    3    0    0 -0.60794950120E+01  0.29272252266E+01 -0.66852056163E+01  0.94984673249E+01  0.51100000000E-03 0. -1.
        -11    1    3    3    0    0  0.20002082630E+02  0.21639822455E+02 -0.23986012622E+02  0.37995973828E+02  0.51100000000E-03 0.  1.
         12    1    3    3    0    0 -0.13459169843E+02 -0.25482044093E+02  0.31255289785E+02  0.42513256327E+02  0.00000000000E+00 0. -1.
</event>
<event>
 7    1  0.2879200E-015  0.9000772E+02  0.7816164E-02  0.1186339E+00
        -11   -1    0    0    0    0  0.00000000000E+00  0.00000000000E+00  0.45593999997E+02  0.45594000000E+02  0.51100000000E-03 0.  1.
         11   -1    0    0    0    0 -0.00000000000E+00 -0.00000000000E+00 -0.45593999997E+02  0.45594000000E+02  0.51100000000E-03 0. -1.
    9900012    2    1    2    0    0  0.67451597488E+00  0.95696674634E+00 -0.14937644459E+00  0.90007715934E+02  0.89999976984E+02 0.  0.
        -12    1    1    2    0    0 -0.67451597488E+00 -0.95696674634E+00  0.14937644459E+00  0.11802840659E+01  0.00000000000E+00 0.  1.
         11    1    3    3    0    0 -0.50621096640E+01  0.75632698389E+01  0.10047601744E+01  0.91562846273E+01  0.51100000000E-03 0. -1.
        -11    1    3    3    0    0 -0.66760619771E+01  0.25926147734E+02  0.25521602822E+02  0.36987662142E+02  0.51100000000E-03 0.  1.
         12    1    3    3    0    0  0.12412687616E+02 -0.32532450826E+02 -0.26675739441E+02  0.43863769165E+02  0.00000000000E+00 0. -1.
</event>
<event>
 7    1  0.2879200E-015  0.9000804E+02  0.7816164E-02  0.1186338E+00
        -11   -1    0    0    0    0  0.00000000000E+00  0.00000000000E+00  0.45593999997E+02  0.45594000000E+02  0.51100000000E-03 0. -1.
         11   -1    0    0    0    0 -0.00000000000E+00 -0.00000000000E+00 -0.45593999997E+02  0.45594000000E+02  0.51100000000E-03 0.  1.
    9900012    2    1    2    0    0  0.28830156413E+00 -0.11320142934E+01  0.16651116828E+00  0.90008042322E+02  0.90000307680E+02 0.  0.
        -12    1    1    2    0    0 -0.28830156413E+00  0.11320142934E+01 -0.16651116828E+00  0.11799576778E+01  0.00000000000E+00 0.  1.
         11    1    3    3    0    0  0.40745127591E+01  0.61683626899E+01  0.31706231922E+01  0.80438301937E+01  0.51100000000E-03 0. -1.
        -11    1    3    3    0    0  0.37369255824E+02  0.33379902853E+01  0.73077924159E+01  0.38223125072E+02  0.51100000000E-03 0.  1.
         12    1    3    3    0    0 -0.41155467019E+02 -0.10638367268E+02 -0.10311904440E+02  0.43741087057E+02  0.00000000000E+00 0. -1.
</event>
<event>
 7    1  0.2879200E-015  0.9000764E+02  0.7816164E-02  0.1186339E+00
        -11   -1    0    0    0    0  0.00000000000E+00  0.00000000000E+00  0.45593999997E+02  0.45594000000E+02  0.51100000000E-03 0.  1.
         11   -1    0    0    0    0 -0.00000000000E+00 -0.00000000000E+00 -0.45593999997E+02  0.45594000000E+02  0.51100000000E-03 0. -1.
    9900012    2    1    2    0    0 -0.73644777511E+00  0.31427426750E+00 -0.86724840682E+00  0.90007642664E+02  0.89999902747E+02 0.  0.
        -12    1    1    2    0    0  0.73644777511E+00 -0.31427426750E+00  0.86724840682E+00  0.11803573356E+01  0.00000000000E+00 0.  1.
         11    1    3    3    0    0 -0.66544149200E+01 -0.69951838616E+01  0.25096672528E+01  0.99755834499E+01  0.51100000000E-03 0. -1.
        -11    1    3    3    0    0 -0.32329443155E+02 -0.99890513279E+00  0.16305476533E+02  0.36222358723E+02  0.51100000000E-03 0.  1.
         12    1    3    3    0    0  0.38247410300E+02  0.83083632619E+01 -0.19682392193E+02  0.43809700492E+02  0.00000000000E+00 0. -1.
</event>
<event>
 7    1  0.2879200E-015  0.9000792E+02  0.7816164E-02  0.1186339E+00
        -11   -1    0    0    0    0  0.00000000000E+00  0.00000000000E+00  0.45593999997E+02  0.45594000000E+02  0.51100000000E-03 0.  1.
         11   -1    0    0    0    0 -0.00000000000E+00 -0.00000000000E+00 -0.45593999997E+02  0.45594000000E+02  0.51100000000E-03 0. -1.
    9900012    2    1    2    0    0 -0.35197736454E+00  0.46357041430E+00 -0.10265472972E+01  0.90007921635E+02  0.90000185400E+02 0.  0.
        -12    1    1    2    0    0  0.35197736454E+00 -0.46357041430E+00  0.10265472972E+01  0.11800783650E+01  0.00000000000E+00 0.  1.
         11    1    3    3    0    0  0.52697661992E+01 -0.17973832653E+02 -0.13152998611E+02  0.22887342982E+02  0.51100000000E-03 0. -1.
        -11    1    3    3    0    0 -0.16172489310E+02 -0.20097351198E+02  0.18250141951E+01  0.25860850966E+02  0.51100000000E-03 0.  1.
        -12    1    3    3    0    0  0.10550745746E+02  0.38534754266E+02  0.10301437118E+02  0.41259727687E+02  0.00000000000E+00 0.  1.
</event>
<event>
 7    1  0.2998543E-015  0.9000777E+02  0.7816164E-02  0.1186339E+00
        -11   -1    0    0    0    0  0.00000000000E+00  0.00000000000E+00  0.45593999997E+02  0.45594000000E+02  0.51100000000E-03 0. -1.
         11   -1    0    0    0    0 -0.00000000000E+00 -0.00000000000E+00 -0.45593999997E+02  0.45594000000E+02  0.51100000000E-03 0.  1.
    9900012    2    1    2    0    0 -0.10372466322E+01  0.56303504475E+00  0.75815697730E-02  0.90007768447E+02  0.90000030191E+02 0.  0.
        -12    1    1    2    0    0  0.10372466322E+01 -0.56303504475E+00 -0.75815697730E-02  0.11802315527E+01  0.00000000000E+00 0.  1.
         11    1    3    3    0    0  0.68667947938E+01 -0.30349717660E+02  0.20187566742E+02  0.37091725277E+02  0.51100000000E-03 0. -1.
        -11    1    3    3    0    0  0.59444806115E+01  0.25374208908E+00  0.73425199115E+01  0.94505996477E+01  0.51100000000E-03 0.  1.
        -12    1    3    3    0    0 -0.13848522038E+02  0.30659010616E+02 -0.27522505083E+02  0.43465443523E+02  0.00000000000E+00 0.  1.
</event>
<event>
 7    1  0.2879200E-015  0.9000772E+02  0.7816164E-02  0.1186339E+00
        -11   -1    0    0    0    0  0.00000000000E+00  0.00000000000E+00  0.45593999997E+02  0.45594000000E+02  0.51100000000E-03 0.  1.
         11   -1    0    0    0    0 -0.00000000000E+00 -0.00000000000E+00 -0.45593999997E+02  0.45594000000E+02  0.51100000000E-03 0. -1.
    9900012    2    1    2    0    0  0.26237312482E+00 -0.11305555529E+01 -0.21462877962E+00  0.90007719937E+02  0.89999981040E+02 0.  0.
        -12    1    1    2    0    0 -0.26237312482E+00  0.11305555529E+01  0.21462877962E+00  0.11802800633E+01  0.00000000000E+00 0.  1.
         11    1    3    3    0    0 -0.58244079628E+01  0.31048373279E+02 -0.25979517284E+02  0.40900617721E+02  0.51100000000E-03 0. -1.
        -11    1    3    3    0    0  0.76024080259E+01 -0.56754378551E+01 -0.30136593668E+01  0.99543631479E+01  0.51100000000E-03 0.  1.
        -12    1    3    3    0    0 -0.15156269383E+01 -0.26503490976E+02  0.28778547871E+02  0.39152739068E+02  0.00000000000E+00 0.  1.
</event>
<event>
 7    1  0.2879200E-015  0.9000776E+02  0.7816164E-02  0.1186339E+00
        -11   -1    0    0    0    0  0.00000000000E+00  0.00000000000E+00  0.45593999997E+02  0.45594000000E+02  0.51100000000E-03 0.  1.
         11   -1    0    0    0    0 -0.00000000000E+00 -0.00000000000E+00 -0.45593999997E+02  0.45594000000E+02  0.51100000000E-03 0. -1.
    9900012    2    1    2    0    0  0.11300582386E+01  0.42596074696E-01 -0.33781051706E+00  0.90007761891E+02  0.90000023548E+02 0.  0.
        -12    1    1    2    0    0 -0.11300582386E+01 -0.42596074696E-01  0.33781051706E+00  0.11802381089E+01  0.00000000000E+00 0.  1.
         11    1    3    3    0    0  0.12586918605E+02  0.30304934396E+01 -0.58182701335E+01  0.14193895803E+02  0.51100000000E-03 0. -1.
        -11    1    3    3    0    0  0.93358234094E+01 -0.34507690161E+02  0.11552468002E+02  0.37568574583E+02  0.51100000000E-03 0.  1.
         12    1    3    3    0    0 -0.20792683776E+02  0.31519792796E+02 -0.60720083855E+01  0.38245291505E+02  0.00000000000E+00 0. -1.
</event>
<event>
 7    1  0.2879200E-015  0.9000790E+02  0.7816164E-02  0.1186339E+00
        -11   -1    0    0    0    0  0.00000000000E+00  0.00000000000E+00  0.45593999997E+02  0.45594000000E+02  0.51100000000E-03 0. -1.
         11   -1    0    0    0    0 -0.00000000000E+00 -0.00000000000E+00 -0.45593999997E+02  0.45594000000E+02  0.51100000000E-03 0.  1.
    9900012    2    1    2    0    0  0.62065661394E+00 -0.82224277773E-01  0.10003356676E+01  0.90007895381E+02  0.90000158800E+02 0.  0.
        -12    1    1    2    0    0 -0.62065661394E+00  0.82224277773E-01 -0.10003356676E+01  0.11801046192E+01  0.00000000000E+00 0.  1.
         11    1    3    3    0    0 -0.11392724579E+01  0.16888167721E+01  0.27108450644E+02  0.27184888089E+02  0.51100000000E-03 0. -1.
        -11    1    3    3    0    0  0.21980695650E+02  0.73662861558E+01  0.58574265123E+01  0.23910721415E+02  0.51100000000E-03 0.  1.
        -12    1    3    3    0    0 -0.20220766578E+02 -0.91373272056E+01 -0.31965541489E+02  0.38912285877E+02  0.00000000000E+00 0.  1.
</event>
<event>
 7    1  0.2879200E-015  0.9000769E+02  0.7816164E-02  0.1186339E+00
        -11   -1    0    0    0    0  0.00000000000E+00  0.00000000000E+00  0.45593999997E+02  0.45594000000E+02  0.51100000000E-03 0.  1.
         11   -1    0    0    0    0 -0.00000000000E+00 -0.00000000000E+00 -0.45593999997E+02  0.45594000000E+02  0.51100000000E-03 0. -1.
    9900012    2    1    2    0    0  0.29393189493E+00 -0.57383296796E+00 -0.98865847516E+00  0.90007692492E+02  0.89999953232E+02 0.  0.
        -12    1    1    2    0    0 -0.29393189493E+00  0.57383296796E+00  0.98865847516E+00  0.11803075084E+01  0.00000000000E+00 0.  1.
         11    1    3    3    0    0  0.41646063749E+02 -0.25660023363E+01 -0.65322392259E+01  0.42233270573E+02  0.51100000000E-03 0. -1.
        -11    1    3    3    0    0 -0.41626497784E+01  0.30294965452E+01 -0.68423333767E+01  0.85628867091E+01  0.51100000000E-03 0.  1.
        -12    1    3    3    0    0 -0.37189482075E+02 -0.10373271768E+01  0.12385914127E+02  0.39211535209E+02  0.00000000000E+00 0.  1.
</event>
<event>
 7    1  0.2879200E-015  0.9000806E+02  0.7816164E-02  0.1186338E+00
        -11   -1    0    0    0    0  0.00000000000E+00  0.00000000000E+00  0.45593999997E+02  0.45594000000E+02  0.51100000000E-03 0. -1.
         11   -1    0    0    0    0 -0.00000000000E+00 -0.00000000000E+00 -0.45593999997E+02  0.45594000000E+02  0.51100000000E-03 0.  1.
    9900012    2    1    2    0    0 -0.46908614074E-01  0.40201430558E+00  0.11083467563E+01  0.90008064217E+02  0.90000329864E+02 0.  0.
        -12    1    1    2    0    0  0.46908614074E-01 -0.40201430558E+00 -0.11083467563E+01  0.11799357830E+01  0.00000000000E+00 0.  1.
         11    1    3    3    0    0 -0.92565302825E+01 -0.28968899256E+01  0.91865014711E+00  0.97426506899E+01  0.51100000000E-03 0. -1.
        -11    1    3    3    0    0  0.14948561918E+02  0.19224676745E+02 -0.34171181116E+02  0.41960902260E+02  0.51100000000E-03 0.  1.
         12    1    3    3    0    0 -0.57389402499E+01 -0.15925772514E+02  0.34360877725E+02  0.38304511267E+02  0.00000000000E+00 0. -1.
</event>
<event>
 7    1  0.2879200E-015  0.9000775E+02  0.7816164E-02  0.1186339E+00
        -11   -1    0    0    0    0  0.00000000000E+00  0.00000000000E+00  0.45593999997E+02  0.45594000000E+02  0.51100000000E-03 0. -1.
         11   -1    0    0    0    0 -0.00000000000E+00 -0.00000000000E+00 -0.45593999997E+02  0.45594000000E+02  0.51100000000E-03 0.  1.
    9900012    2    1    2    0    0  0.43616464168E+00 -0.65433326609E+00 -0.88011876334E+00  0.90007745512E+02  0.90000006953E+02 0.  0.
        -12    1    1    2    0    0 -0.43616464168E+00  0.65433326609E+00  0.88011876334E+00  0.11802544875E+01  0.00000000000E+00 0.  1.
         11    1    3    3    0    0  0.94647431348E+00  0.94332838473E+01  0.18342629918E+02  0.20647874717E+02  0.51100000000E-03 0. -1.
        -11    1    3    3    0    0  0.29709502952E+02  0.85904928348E-01 -0.22552972081E+02  0.37300113878E+02  0.51100000000E-03 0.  1.
         12    1    3    3    0    0 -0.30219812624E+02 -0.10173522042E+02  0.33302234006E+01  0.32059756918E+02  0.00000000000E+00 0. -1.
</event>
<event>
 7    1  0.2879200E-015  0.9000780E+02  0.7816164E-02  0.1186339E+00
        -11   -1    0    0    0    0  0.00000000000E+00  0.00000000000E+00  0.45593999997E+02  0.45594000000E+02  0.51100000000E-03 0.  1.
         11   -1    0    0    0    0 -0.00000000000E+00 -0.00000000000E+00 -0.45593999997E+02  0.45594000000E+02  0.51100000000E-03 0. -1.
    9900012    2    1    2    0    0  0.11124130738E+01 -0.17104389937E+00 -0.35517920167E+00  0.90007800387E+02  0.90000062552E+02 0.  0.
        -12    1    1    2    0    0 -0.11124130738E+01  0.17104389937E+00  0.35517920167E+00  0.11801996135E+01  0.00000000000E+00 0.  1.
         11    1    3    3    0    0 -0.54239853565E+01  0.38023602473E+02  0.72883736242E+01  0.39093917079E+02  0.51100000000E-03 0. -1.
        -11    1    3    3    0    0 -0.29701912700E+01  0.13886447205E+01  0.69368498329E+01  0.76726954980E+01  0.51100000000E-03 0.  1.
        -12    1    3    3    0    0  0.95065897004E+01 -0.39583291093E+02 -0.14580402659E+02  0.43241187810E+02  0.00000000000E+00 0.  1.
</event>
<event>
 7    1  0.2879200E-015  0.9000771E+02  0.7816164E-02  0.1186339E+00
        -11   -1    0    0    0    0  0.00000000000E+00  0.00000000000E+00  0.45593999997E+02  0.45594000000E+02  0.51100000000E-03 0.  1.
         11   -1    0    0    0    0 -0.00000000000E+00 -0.00000000000E+00 -0.45593999997E+02  0.45594000000E+02  0.51100000000E-03 0. -1.
    9900012    2    1    2    0    0  0.99078438172E+00 -0.13022232309E-01  0.64129288650E+00  0.90007711969E+02  0.89999972967E+02 0.  0.
        -12    1    1    2    0    0 -0.99078438172E+00  0.13022232309E-01 -0.64129288650E+00  0.11802880309E+01  0.00000000000E+00 0.  1.
         11    1    3    3    0    0  0.66341254557E+01  0.70050671409E+01 -0.12636030466E+01  0.97303278018E+01  0.51100000000E-03 0. -1.
        -11    1    3    3    0    0 -0.21468445546E+02  0.54376461049E+01  0.35069564450E+02  0.41476939380E+02  0.51100000000E-03 0.  1.
         12    1    3    3    0    0  0.15825104472E+02 -0.12455735478E+02 -0.33164668517E+02  0.38800444787E+02  0.00000000000E+00 0. -1.
</event>
<event>
 7    1  0.5076203E-015  0.9000812E+02  0.7816164E-02  0.1186338E+00
        -11   -1    0    0    0    0  0.00000000000E+00  0.00000000000E+00  0.45593999997E+02  0.45594000000E+02  0.51100000000E-03 0. -1.
         11   -1    0    0    0    0 -0.00000000000E+00 -0.00000000000E+00 -0.45593999997E+02  0.45594000000E+02  0.51100000000E-03 0.  1.
    9900012    2    1    2    0    0  0.32025977533E+00  0.37739044025E+00  0.10710415010E+01  0.90008118750E+02  0.90000385116E+02 0.  0.
        -12    1    1    2    0    0 -0.32025977533E+00 -0.37739044025E+00 -0.10710415010E+01  0.11798812504E+01  0.00000000000E+00 0.  1.
         11    1    3    3    0    0  0.31226191440E+02  0.15616628062E+02  0.22881820142E+02  0.41743643793E+02  0.51100000000E-03 0. -1.
        -11    1    3    3    0    0  0.26151377569E+01  0.15387201202E+00 -0.87504282365E+01  0.91341456452E+01  0.51100000000E-03 0.  1.
        -12    1    3    3    0    0 -0.33521069421E+02 -0.15393109634E+02 -0.13060350404E+02  0.39130329311E+02  0.00000000000E+00 0.  1.
</event>
<event>
 7    1  0.2879200E-015  0.9000776E+02  0.7816164E-02  0.1186339E+00
        -11   -1    0    0    0    0  0.00000000000E+00  0.00000000000E+00  0.45593999997E+02  0.45594000000E+02  0.51100000000E-03 0.  1.
         11   -1    0    0    0    0 -0.00000000000E+00 -0.00000000000E+00 -0.45593999997E+02  0.45594000000E+02  0.51100000000E-03 0. -1.
    9900012    2    1    2    0    0  0.11427861894E+01  0.14196855711E+00 -0.25855760861E+00  0.90007759608E+02  0.90000021235E+02 0.  0.
        -12    1    1    2    0    0 -0.11427861894E+01 -0.14196855711E+00  0.25855760861E+00  0.11802403919E+01  0.00000000000E+00 0.  1.
         11    1    3    3    0    0 -0.60688969111E+01 -0.10232515570E+02  0.31654502650E+01  0.12310806645E+02  0.51100000000E-03 0. -1.
        -11    1    3    3    0    0 -0.59551736079E+01 -0.27686231722E+02 -0.19445968211E+02  0.34353125034E+02  0.51100000000E-03 0.  1.
         12    1    3    3    0    0  0.13166856708E+02  0.38060715849E+02  0.16021960338E+02  0.43343827929E+02  0.00000000000E+00 0. -1.
</event>
<event>
 7    1  0.2879200E-015  0.9000778E+02  0.7816164E-02  0.1186339E+00
        -11   -1    0    0    0    0  0.00000000000E+00  0.00000000000E+00  0.45593999997E+02  0.45594000000E+02  0.51100000000E-03 0. -1.
         11   -1    0    0    0    0 -0.00000000000E+00 -0.00000000000E+00 -0.45593999997E+02  0.45594000000E+02  0.51100000000E-03 0.  1.
    9900012    2    1    2    0    0  0.68636422858E+00 -0.34295724617E+00  0.89677328123E+00  0.90007780595E+02  0.90000042498E+02 0.  0.
        -12    1    1    2    0    0 -0.68636422858E+00  0.34295724617E+00 -0.89677328123E+00  0.11802194054E+01  0.00000000000E+00 0.  1.
         11    1    3    3    0    0  0.91392741268E+00 -0.11043976999E+02  0.41643539789E+02  0.43092796355E+02  0.51100000000E-03 0. -1.
        -11    1    3    3    0    0  0.54279404738E+01  0.59617004974E+01 -0.32398280800E+01  0.86891252067E+01  0.51100000000E-03 0.  1.
        -12    1    3    3    0    0 -0.56555036579E+01  0.47393192555E+01 -0.37506938427E+02  0.38225859033E+02  0.00000000000E+00 0.  1.
</event>
<event>
 7    1  0.2879200E-015  0.9000776E+02  0.7816164E-02  0.1186339E+00
        -11   -1    0    0    0    0  0.00000000000E+00  0.00000000000E+00  0.45593999997E+02  0.45594000000E+02  0.51100000000E-03 0.  1.
         11   -1    0    0    0    0 -0.00000000000E+00 -0.00000000000E+00 -0.45593999997E+02  0.45594000000E+02  0.51100000000E-03 0. -1.
    9900012    2    1    2    0    0  0.28992284655E+00 -0.11115467727E+01 -0.27089877792E+00  0.90007755266E+02  0.90000016835E+02 0.  0.
        -12    1    1    2    0    0 -0.28992284655E+00  0.11115467727E+01  0.27089877792E+00  0.11802447343E+01  0.00000000000E+00 0.  1.
         11    1    3    3    0    0 -0.35055227910E+01  0.32554014322E+00  0.64675630560E+01  0.73636973436E+01  0.51100000000E-03 0. -1.
        -11    1    3    3    0    0 -0.23143490297E+02  0.31960255723E+02 -0.34448915624E+01  0.39609927633E+02  0.51100000000E-03 0.  1.
         12    1    3    3    0    0  0.26938935934E+02 -0.33397342639E+02 -0.32935702715E+01  0.43034130289E+02  0.00000000000E+00 0. -1.
</event>
<event>
 7    1  0.2879200E-015  0.9000795E+02  0.7816164E-02  0.1186339E+00
        -11   -1    0    0    0    0  0.00000000000E+00  0.00000000000E+00  0.45593999997E+02  0.45594000000E+02  0.51100000000E-03 0. -1.
         11   -1    0    0    0    0 -0.00000000000E+00 -0.00000000000E+00 -0.45593999997E+02  0.45594000000E+02  0.51100000000E-03 0.  1.
    9900012    2    1    2    0    0 -0.21308910834E+00  0.52690044102E+00  0.10341584606E+01  0.90007951372E+02  0.90000215530E+02 0.  0.
        -12    1    1    2    0    0  0.21308910834E+00 -0.52690044102E+00 -0.10341584606E+01  0.11800486280E+01  0.00000000000E+00 0.  1.
         11    1    3    3    0    0 -0.17460287171E+02 -0.33426618710E+02 -0.92881902947E+01  0.38839038938E+02  0.51100000000E-03 0. -1.
        -11    1    3    3    0    0  0.76660333349E+01 -0.51471700317E+01 -0.11591688579E+01  0.93061860679E+01  0.51100000000E-03 0.  1.
        -12    1    3    3    0    0  0.95811647273E+01  0.39100689182E+02  0.11481517613E+02  0.41862726366E+02  0.00000000000E+00 0.  1.
</event>
<event>
 7    1  0.4596348E-015  0.9000823E+02  0.7816164E-02  0.1186338E+00
        -11   -1    0    0    0    0  0.00000000000E+00  0.00000000000E+00  0.45593999997E+02  0.45594000000E+02  0.51100000000E-03 0.  1.
         11   -1    0    0    0    0 -0.00000000000E+00 -0.00000000000E+00 -0.45593999997E+02  0.45594000000E+02  0.51100000000E-03 0. -1.
    9900012    2    1    2    0    0 -0.22010276209E+00 -0.11587121453E+01  0.28371895617E-01  0.90008227129E+02  0.90000494926E+02 0.  0.
        -12    1    1    2    0    0  0.22010276209E+00  0.11587121453E+01 -0.28371895617E-01  0.11797728706E+01  0.00000000000E+00 0.  1.
         11    1    3    3    0    0  0.19294389029E+02 -0.32365284300E+02 -0.24621540003E+00  0.37680839934E+02  0.51100000000E-03 0. -1.
        -11    1    3    3    0    0  0.56087176831E+01 -0.27140793566E+01 -0.71329266115E+01  0.94711447623E+01  0.51100000000E-03 0.  1.
        -12    1    3    3    0    0 -0.25123209474E+02  0.33920651511E+02  0.74075139072E+01  0.42856242433E+02  0.00000000000E+00 0.  1.
</event>
<event>
 7    1  0.2879200E-015  0.9000781E+02  0.7816164E-02  0.1186339E+00
        -11   -1    0    0    0    0  0.00000000000E+00  0.00000000000E+00  0.45593999997E+02  0.45594000000E+02  0.51100000000E-03 0.  1.
         11   -1    0    0    0    0 -0.00000000000E+00 -0.00000000000E+00 -0.45593999997E+02  0.45594000000E+02  0.51100000000E-03 0. -1.
    9900012    2    1    2    0    0  0.10413592807E+01 -0.55437297055E+00 -0.33090718586E-01  0.90007807839E+02  0.90000070102E+02 0.  0.
        -12    1    1    2    0    0 -0.10413592807E+01  0.55437297055E+00  0.33090718586E-01  0.11801921613E+01  0.00000000000E+00 0.  1.
         11    1    3    3    0    0  0.95822584633E+01 -0.13935409966E+02 -0.31135384048E+02  0.35432011914E+02  0.51100000000E-03 0. -1.
        -11    1    3    3    0    0 -0.29141244197E+01 -0.45034389244E+01 -0.89035599429E+01  0.10394540067E+02  0.51100000000E-03 0.  1.
        -12    1    3    3    0    0 -0.56267747629E+01  0.17884475920E+02  0.40005853273E+02  0.44181255858E+02  0.00000000000E+00 0.  1.
</event>
<event>
 7    1  0.3084961E-015  0.9000781E+02  0.7816164E-02  0.1186339E+00
        -11   -1    0    0    0    0  0.00000000000E+00  0.00000000000E+00  0.45593999997E+02  0.45594000000E+02  0.51100000000E-03 0. -1.
         11   -1    0    0    0    0 -0.00000000000E+00 -0.00000000000E+00 -0.45593999997E+02  0.45594000000E+02  0.51100000000E-03 0.  1.
    9900012    2    1    2    0    0  0.15210004385E+00 -0.73031453104E+00  0.91452897555E+00  0.90007806378E+02  0.90000068622E+02 0.  0.
        -12    1    1    2    0    0 -0.15210004385E+00  0.73031453104E+00 -0.91452897555E+00  0.11801936217E+01  0.00000000000E+00 0.  1.
         11    1    3    3    0    0 -0.27650456261E+02 -0.83155216868E+01  0.24885730484E+02  0.38118174332E+02  0.51100000000E-03 0. -1.
        -11    1    3    3    0    0 -0.27755350246E+01 -0.89713422827E+01  0.44421856249E+00  0.94013779532E+01  0.51100000000E-03 0.  1.
        -12    1    3    3    0    0  0.30578091330E+02  0.16556549438E+02 -0.24415420071E+02  0.42488254094E+02  0.00000000000E+00 0.  1.
</event>
<event>
 7    1  0.2879200E-015  0.9000775E+02  0.7816164E-02  0.1186339E+00
        -11   -1    0    0    0    0  0.00000000000E+00  0.00000000000E+00  0.45593999997E+02  0.45594000000E+02  0.51100000000E-03 0.  1.
         11   -1    0    0    0    0 -0.00000000000E+00 -0.00000000000E+00 -0.45593999997E+02  0.45594000000E+02  0.51100000000E-03 0. -1.
    9900012    2    1    2    0    0  0.68372434860E+00  0.50767311740E+00 -0.81718178599E+00  0.90007747040E+02  0.90000008501E+02 0.  0.
        -12    1    1    2    0    0 -0.68372434860E+00 -0.50767311740E+00  0.81718178599E+00  0.11802529603E+01  0.00000000000E+00 0.  1.
         11    1    3    3    0    0  0.28263086112E+01  0.93769559798E+01 -0.32324696660E+01  0.10313301325E+02  0.51100000000E-03 0. -1.
        -11    1    3    3    0    0  0.17186995787E+02 -0.29194711742E+01  0.36279441451E+02  0.40250639850E+02  0.51100000000E-03 0.  1.
         12    1    3    3    0    0 -0.19329580050E+02 -0.59498116882E+01 -0.33864153570E+02  0.39443805865E+02  0.00000000000E+00 0. -1.
</event>
<event>
 7    1  0.2879200E-015  0.9000803E+02  0.7816164E-02  0.1186338E+00
        -11   -1    0    0    0    0  0.00000000000E+00  0.00000000000E+00  0.45593999997E+02  0.45594000000E+02  0.51100000000E-03 0. -1.
         11   -1    0    0    0    0 -0.00000000000E+00 -0.00000000000E+00 -0.45593999997E+02  0.45594000000E+02  0.51100000000E-03 0.  1.
    9900012    2    1    2    0    0 -0.51043275156E+00  0.10577731877E+01 -0.11354572470E+00  0.90008034601E+02  0.90000299858E+02 0.  0.
        -12    1    1    2    0    0  0.51043275156E+00 -0.10577731877E+01  0.11354572470E+00  0.11799653987E+01  0.00000000000E+00 0.  1.
         11    1    3    3    0    0 -0.87602639227E+01 -0.37433548700E+00 -0.61717353220E+01  0.10722530867E+02  0.51100000000E-03 0. -1.
        -11    1    3    3    0    0 -0.52559278880E+01 -0.26304016612E+02 -0.24161054253E+02  0.36101005675E+02  0.51100000000E-03 0.  1.
         12    1    3    3    0    0  0.13505759059E+02  0.27736125287E+02  0.30219243850E+02  0.43184498059E+02  0.00000000000E+00 0. -1.
</event>
<event>
 7    1  0.2879200E-015  0.9000778E+02  0.7816164E-02  0.1186339E+00
        -11   -1    0    0    0    0  0.00000000000E+00  0.00000000000E+00  0.45593999997E+02  0.45594000000E+02  0.51100000000E-03 0. -1.
         11   -1    0    0    0    0 -0.00000000000E+00 -0.00000000000E+00 -0.45593999997E+02  0.45594000000E+02  0.51100000000E-03 0.  1.
    9900012    2    1    2    0    0 -0.76952404153E+00  0.42204744909E+00  0.78906125316E+00  0.90007784358E+02  0.90000046312E+02 0.  0.
        -12    1    1    2    0    0  0.76952404153E+00 -0.42204744909E+00 -0.78906125316E+00  0.11802156417E+01  0.00000000000E+00 0.  1.
         11    1    3    3    0    0  0.15872295689E+01  0.69890277978E+01 -0.19480378377E+01  0.74270222123E+01  0.51100000000E-03 0. -1.
        -11    1    3    3    0    0 -0.10505136635E+02  0.23800531530E+02 -0.28271914057E+02  0.38420363371E+02  0.51100000000E-03 0.  1.
         12    1    3    3    0    0  0.81483830241E+01 -0.30367511879E+02  0.31009013148E+02  0.44160398775E+02  0.00000000000E+00 0. -1.
</event>
<event>
 7    1  0.2879200E-015  0.9000774E+02  0.7816164E-02  0.1186339E+00
        -11   -1    0    0    0    0  0.00000000000E+00  0.00000000000E+00  0.45593999997E+02  0.45594000000E+02  0.51100000000E-03 0. -1.
         11   -1    0    0    0    0 -0.00000000000E+00 -0.00000000000E+00 -0.45593999997E+02  0.45594000000E+02  0.51100000000E-03 0.  1.
    9900012    2    1    2    0    0  0.18741706947E+00 -0.11639669416E+01  0.55496739296E-01  0.90007735586E+02  0.89999996896E+02 0.  0.
        -12    1    1    2    0    0 -0.18741706947E+00  0.11639669416E+01 -0.55496739296E-01  0.11802644141E+01  0.00000000000E+00 0.  1.
         11    1    3    3    0    0  0.80799598552E+01 -0.30123728993E+01 -0.28183993400E+01  0.90721285731E+01  0.51100000000E-03 0. -1.
        -11    1    3    3    0    0 -0.18309984114E+02  0.34202157483E+01 -0.36067993429E+02  0.40593762381E+02  0.51100000000E-03 0.  1.
         12    1    3    3    0    0  0.10417441328E+02 -0.15718097907E+01  0.38941889508E+02  0.40341844632E+02  0.00000000000E+00 0. -1.
</event>
<event>
 7    1  0.2879200E-015  0.9000770E+02  0.7816164E-02  0.1186339E+00
        -11   -1    0    0    0    0  0.00000000000E+00  0.00000000000E+00  0.45593999997E+02  0.45594000000E+02  0.51100000000E-03 0. -1.
         11   -1    0    0    0    0 -0.00000000000E+00 -0.00000000000E+00 -0.45593999997E+02  0.45594000000E+02  0.51100000000E-03 0.  1.
    9900012    2    1    2    0    0 -0.56434789349E+00 -0.81933727381E+00  0.63506235551E+00  0.90007700755E+02  0.89999961605E+02 0.  0.
        -12    1    1    2    0    0  0.56434789349E+00  0.81933727381E+00 -0.63506235551E+00  0.11802992453E+01  0.00000000000E+00 0.  1.
         11    1    3    3    0    0  0.31495346662E+02 -0.11846834898E+02  0.14913222646E+02  0.36806365868E+02  0.51100000000E-03 0. -1.
        -11    1    3    3    0    0  0.68239037615E+01  0.46916699478E+01  0.46460917657E+01  0.94954514585E+01  0.51100000000E-03 0.  1.
        -12    1    3    3    0    0 -0.38883598317E+02  0.63358276762E+01 -0.18924252056E+02  0.43705883429E+02  0.00000000000E+00 0.  1.
</event>
<event>
 7    1  0.2879200E-015  0.9000770E+02  0.7816164E-02  0.1186339E+00
        -11   -1    0    0    0    0  0.00000000000E+00  0.00000000000E+00  0.45593999997E+02  0.45594000000E+02  0.51100000000E-03 0. -1.
         11   -1    0    0    0    0 -0.00000000000E+00 -0.00000000000E+00 -0.45593999997E+02  0.45594000000E+02  0.51100000000E-03 0.  1.
    9900012    2    1    2    0    0  0.36318560719E+00  0.72546777706E+00  0.85726884997E+00  0.90007696157E+02  0.89999956946E+02 0.  0.
        -12    1    1    2    0    0 -0.36318560719E+00 -0.72546777706E+00 -0.85726884997E+00  0.11803038431E+01  0.00000000000E+00 0.  1.
         11    1    3    3    0    0  0.80863334918E+01  0.31008279284E+01  0.48522180588E+01  0.99271316871E+01  0.51100000000E-03 0. -1.
        -11    1    3    3    0    0  0.31936486280E+02 -0.16792010505E+02 -0.10035910005E+02  0.37451705737E+02  0.51100000000E-03 0.  1.
         12    1    3    3    0    0 -0.39659634165E+02  0.14416650354E+02  0.60409607961E+01  0.42628858733E+02  0.00000000000E+00 0. -1.
</event>
<event>
 7    1  0.2879200E-015  0.9000789E+02  0.7816164E-02  0.1186339E+00
        -11   -1    0    0    0    0  0.00000000000E+00  0.00000000000E+00  0.45593999997E+02  0.45594000000E+02  0.51100000000E-03 0.  1.
         11   -1    0    0    0    0 -0.00000000000E+00 -0.00000000000E+00 -0.45593999997E+02  0.45594000000E+02  0.51100000000E-03 0. -1.
    9900012    2    1    2    0    0  0.91578084699E+00 -0.46711030187E+00 -0.57949241782E+00  0.90007890659E+02  0.90000154016E+02 0.  0.
        -12    1    1    2    0    0 -0.91578084699E+00  0.46711030187E+00  0.57949241782E+00  0.11801093408E+01  0.00000000000E+00 0.  1.
         11    1    3    3    0    0 -0.74558090850E+01 -0.34515628222E+01 -0.20753929060E+01  0.84740563488E+01  0.51100000000E-03 0. -1.
        -11    1    3    3    0    0 -0.30849233231E+02 -0.12131062815E+02  0.16339691147E+02  0.36957047812E+02  0.51100000000E-03 0.  1.
         12    1    3    3    0    0  0.39220823163E+02  0.15115515335E+02 -0.14843790659E+02  0.44576786498E+02  0.00000000000E+00 0. -1.
</event>
<event>
 7    1  0.2879200E-015  0.9000778E+02  0.7816164E-02  0.1186339E+00
        -11   -1    0    0    0    0  0.00000000000E+00  0.00000000000E+00  0.45593999997E+02  0.45594000000E+02  0.51100000000E-03 0.  1.
         11   -1    0    0    0    0 -0.00000000000E+00 -0.00000000000E+00 -0.45593999997E+02  0.45594000000E+02  0.51100000000E-03 0. -1.
    9900012    2    1    2    0    0 -0.27412799005E+00  0.25835400625E+00  0.11184881693E+01  0.90007784455E+02  0.90000046410E+02 0.  0.
        -12    1    1    2    0    0  0.27412799005E+00 -0.25835400625E+00 -0.11184881693E+01  0.11802155448E+01  0.00000000000E+00 0.  1.
         11    1    3    3    0    0  0.27952049577E+02 -0.16131781546E+02 -0.21285574353E+02  0.38660407747E+02  0.51100000000E-03 0. -1.
        -11    1    3    3    0    0 -0.27027828023E+01 -0.91746667343E+01  0.17133049577E+01  0.97167360106E+01  0.51100000000E-03 0.  1.
        -12    1    3    3    0    0 -0.25523394765E+02  0.25564802286E+02  0.20690757564E+02  0.41630640697E+02  0.00000000000E+00 0.  1.
</event>
<event>
 7    1  0.2879200E-015  0.9000774E+02  0.7816164E-02  0.1186339E+00
        -11   -1    0    0    0    0  0.00000000000E+00  0.00000000000E+00  0.45593999997E+02  0.45594000000E+02  0.51100000000E-03 0.  1.
         11   -1    0    0    0    0 -0.00000000000E+00 -0.00000000000E+00 -0.45593999997E+02  0.45594000000E+02  0.51100000000E-03 0. -1.
    9900012    2    1    2    0    0  0.10651196253E+01 -0.28438468080E+00 -0.42149089328E+00  0.90007741962E+02  0.90000003356E+02 0.  0.
        -12    1    1    2    0    0 -0.10651196253E+01  0.28438468080E+00  0.42149089328E+00  0.11802580379E+01  0.00000000000E+00 0.  1.
         11    1    3    3    0    0 -0.20291641851E+02 -0.30349823172E+02  0.74473537626E+01  0.37260241196E+02  0.51100000000E-03 0. -1.
        -11    1    3    3    0    0  0.14220789580E+00 -0.59264634050E+01  0.62816744233E+01  0.86372811346E+01  0.51100000000E-03 0.  1.
        -12    1    3    3    0    0  0.21214553581E+02  0.35991901897E+02 -0.14150519079E+02  0.44110219632E+02  0.00000000000E+00 0.  1.
</event>
<event>
 7    1  0.2879200E-015  0.9000777E+02  0.7816164E-02  0.1186339E+00
        -11   -1    0    0    0    0  0.00000000000E+00  0.00000000000E+00  0.45593999997E+02  0.45594000000E+02  0.51100000000E-03 0.  1.
         11   -1    0    0    0    0 -0.00000000000E+00 -0.00000000000E+00 -0.45593999997E+02  0.45594000000E+02  0.51100000000E-03 0. -1.
    9900012    2    1    2    0    0 -0.56730035193E+00 -0.10337694136E+01 -0.49426528333E-01  0.90007766179E+02  0.90000027893E+02 0.  0.
        -12    1    1    2    0    0  0.56730035193E+00  0.10337694136E+01  0.49426528333E-01  0.11802338207E+01  0.00000000000E+00 0.  1.
         11    1    3    3    0    0 -0.29208862688E+02  0.13540186270E+02 -0.15791201703E+02  0.35858839290E+02  0.51100000000E-03 0. -1.
        -11    1    3    3    0    0 -0.35981588898E+01 -0.57305536430E+01 -0.99177219406E+01  0.12006131817E+02  0.51100000000E-03 0.  1.
        -12    1    3    3    0    0  0.32239721226E+02 -0.88434020408E+01  0.25659497115E+02  0.42142795073E+02  0.00000000000E+00 0.  1.
</event>
<event>
 7    1  0.2879200E-015  0.9000777E+02  0.7816164E-02  0.1186339E+00
        -11   -1    0    0    0    0  0.00000000000E+00  0.00000000000E+00  0.45593999997E+02  0.45594000000E+02  0.51100000000E-03 0.  1.
         11   -1    0    0    0    0 -0.00000000000E+00 -0.00000000000E+00 -0.45593999997E+02  0.45594000000E+02  0.51100000000E-03 0. -1.
    9900012    2    1    2    0    0  0.11534348458E+01 -0.23078169665E+00  0.96262548001E-01  0.90007771796E+02  0.90000033584E+02 0.  0.
        -12    1    1    2    0    0 -0.11534348458E+01  0.23078169665E+00 -0.96262548001E-01  0.11802282039E+01  0.00000000000E+00 0.  1.
         11    1    3    3    0    0 -0.38931306248E+02  0.83115860155E+01 -0.15282333454E+02  0.42641280285E+02  0.51100000000E-03 0. -1.
        -11    1    3    3    0    0  0.59099422209E+01  0.29026488295E+01  0.83727279707E+01  0.10651542668E+02  0.51100000000E-03 0.  1.
        -12    1    3    3    0    0  0.34174798873E+02 -0.11445016542E+02  0.70058680316E+01  0.36714948843E+02  0.00000000000E+00 0.  1.
</event>
<event>
 7    1  0.2879200E-015  0.9000769E+02  0.7816164E-02  0.1186339E+00
        -11   -1    0    0    0    0  0.00000000000E+00  0.00000000000E+00  0.45593999997E+02  0.45594000000E+02  0.51100000000E-03 0.  1.
         11   -1    0    0    0    0 -0.00000000000E+00 -0.00000000000E+00 -0.45593999997E+02  0.45594000000E+02  0.51100000000E-03 0. -1.
    9900012    2    1    2    0    0  0.90564173735E+00  0.74940349934E+00  0.10643218022E+00  0.90007694798E+02  0.89999955569E+02 0.  0.
        -12    1    1    2    0    0 -0.90564173735E+00 -0.74940349934E+00 -0.10643218022E+00  0.11803052022E+01  0.00000000000E+00 0.  1.
         11    1    3    3    0    0 -0.13457164353E+02  0.41709847515E+02 -0.84764940904E+01  0.44639193591E+02  0.51100000000E-03 0. -1.
        -11    1    3    3    0    0  0.30011973686E+01 -0.67641209750E+01  0.54654483388E+01  0.91995458592E+01  0.51100000000E-03 0.  1.
        -12    1    3    3    0    0  0.11361608722E+02 -0.34196323041E+02  0.31174779318E+01  0.36168955347E+02  0.00000000000E+00 0.  1.
</event>
<event>
 7    1  0.2879200E-015  0.9000772E+02  0.7816164E-02  0.1186339E+00
        -11   -1    0    0    0    0  0.00000000000E+00  0.00000000000E+00  0.45593999997E+02  0.45594000000E+02  0.51100000000E-03 0. -1.
         11   -1    0    0    0    0 -0.00000000000E+00 -0.00000000000E+00 -0.45593999997E+02  0.45594000000E+02  0.51100000000E-03 0.  1.
    9900012    2    1    2    0    0 -0.16693689305E-01 -0.10935935644E+01 -0.44364852463E+00  0.90007724788E+02  0.89999985955E+02 0.  0.
        -12    1    1    2    0    0  0.16693689305E-01  0.10935935644E+01  0.44364852463E+00  0.11802752123E+01  0.00000000000E+00 0.  1.
         11    1    3    3    0    0 -0.21120345174E+02  0.30960862441E+02  0.74638841822E+01  0.38214572491E+02  0.51100000000E-03 0. -1.
        -11    1    3    3    0    0  0.95895660597E+00  0.58276658523E+01 -0.66157065796E+01  0.88684192993E+01  0.51100000000E-03 0.  1.
        -12    1    3    3    0    0  0.20144694878E+02 -0.37882121857E+02 -0.12918261272E+01  0.42924732997E+02  0.00000000000E+00 0.  1.
</event>
<event>
 7    1  0.2879200E-015  0.9000771E+02  0.7816164E-02  0.1186339E+00
        -11   -1    0    0    0    0  0.00000000000E+00  0.00000000000E+00  0.45593999997E+02  0.45594000000E+02  0.51100000000E-03 0. -1.
         11   -1    0    0    0    0 -0.00000000000E+00 -0.00000000000E+00 -0.45593999997E+02  0.45594000000E+02  0.51100000000E-03 0.  1.
    9900012    2    1    2    0    0 -0.53239151148E+00  0.26179551534E+00  0.10203477806E+01  0.90007708847E+02  0.89999969803E+02 0.  0.
        -12    1    1    2    0    0  0.53239151148E+00 -0.26179551534E+00 -0.10203477806E+01  0.11802911533E+01  0.00000000000E+00 0.  1.
         11    1    3    3    0    0 -0.61539839521E+01 -0.67911845818E+01  0.36913907325E+01  0.98801858438E+01  0.51100000000E-03 0. -1.
        -11    1    3    3    0    0 -0.44216941791E+01 -0.23685255343E+02 -0.29514436108E+02  0.38100454579E+02  0.51100000000E-03 0.  1.
         12    1    3    3    0    0  0.10043286620E+02  0.30738235441E+02  0.26843393156E+02  0.42027068424E+02  0.00000000000E+00 0. -1.
</event>
<event>
 7    1  0.2879200E-015  0.9000775E+02  0.7816164E-02  0.1186339E+00
        -11   -1    0    0    0    0  0.00000000000E+00  0.00000000000E+00  0.45593999997E+02  0.45594000000E+02  0.51100000000E-03 0. -1.
         11   -1    0    0    0    0 -0.00000000000E+00 -0.00000000000E+00 -0.45593999997E+02  0.45594000000E+02  0.51100000000E-03 0.  1.
    9900012    2    1    2    0    0  0.22657334698E+00 -0.77433910003E+00  0.86142136350E+00  0.90007752870E+02  0.90000014407E+02 0.  0.
        -12    1    1    2    0    0 -0.22657334698E+00  0.77433910003E+00 -0.86142136350E+00  0.11802471304E+01  0.00000000000E+00 0.  1.
         11    1    3    3    0    0 -0.57533900499E+01 -0.11455278163E+02  0.21361498846E+02  0.24912617849E+02  0.51100000000E-03 0. -1.
        -11    1    3    3    0    0 -0.25521647515E+00 -0.37234655003E+00  0.21354310556E+02  0.21359081370E+02  0.51100000000E-03 0.  1.
        -12    1    3    3    0    0  0.62351798720E+01  0.11053285613E+02 -0.41854388039E+02  0.43736053651E+02  0.00000000000E+00 0.  1.
</event>
<event>
 7    1  0.2879200E-015  0.9000782E+02  0.7816164E-02  0.1186339E+00
        -11   -1    0    0    0    0  0.00000000000E+00  0.00000000000E+00  0.45593999997E+02  0.45594000000E+02  0.51100000000E-03 0. -1.
         11   -1    0    0    0    0 -0.00000000000E+00 -0.00000000000E+00 -0.45593999997E+02  0.45594000000E+02  0.51100000000E-03 0.  1.
    9900012    2    1    2    0    0  0.10107660228E+01 -0.29195915730E+00  0.53472354297E+00  0.90007823162E+02  0.90000085627E+02 0.  0.
        -12    1    1    2    0    0 -0.10107660228E+01  0.29195915730E+00 -0.53472354297E+00  0.11801768384E+01  0.00000000000E+00 0.  1.
         11    1    3    3    0    0  0.10454159868E+02  0.36495852698E+02 -0.49296904016E+01  0.38282353251E+02  0.51100000000E-03 0. -1.
        -11    1    3    3    0    0  0.13990688357E+00  0.45976192193E+01  0.79364958140E+01  0.91730933980E+01  0.51100000000E-03 0.  1.
        -12    1    3    3    0    0 -0.95833007285E+01 -0.41385431075E+02 -0.24720818695E+01  0.42552376513E+02  0.00000000000E+00 0.  1.
</event>
<event>
 7    1  0.2879200E-015  0.9000782E+02  0.7816164E-02  0.1186339E+00
        -11   -1    0    0    0    0  0.00000000000E+00  0.00000000000E+00  0.45593999997E+02  0.45594000000E+02  0.51100000000E-03 0.  1.
         11   -1    0    0    0    0 -0.00000000000E+00 -0.00000000000E+00 -0.45593999997E+02  0.45594000000E+02  0.51100000000E-03 0. -1.
    9900012    2    1    2    0    0 -0.93599421120E+00  0.53934226983E+00 -0.47522742630E+00  0.90007823592E+02  0.90000086063E+02 0.  0.
        -12    1    1    2    0    0  0.93599421120E+00 -0.53934226983E+00  0.47522742630E+00  0.11801764081E+01  0.00000000000E+00 0.  1.
         11    1    3    3    0    0 -0.97645332826E+00 -0.66147497578E+01 -0.81591886591E+01  0.10548968447E+02  0.51100000000E-03 0. -1.
        -11    1    3    3    0    0 -0.18351487772E+02 -0.31237684331E+02  0.16325171817E+00  0.36229776113E+02  0.51100000000E-03 0.  1.
         12    1    3    3    0    0  0.18391946889E+02  0.38391776359E+02  0.75207095146E+01  0.43229079032E+02  0.00000000000E+00 0. -1.
</event>
<event>
 7    1  0.2879200E-015  0.9000776E+02  0.7816164E-02  0.1186339E+00
        -11   -1    0    0    0    0  0.00000000000E+00  0.00000000000E+00  0.45593999997E+02  0.45594000000E+02  0.51100000000E-03 0.  1.
         11   -1    0    0    0    0 -0.00000000000E+00 -0.00000000000E+00 -0.45593999997E+02  0.45594000000E+02  0.51100000000E-03 0. -1.
    9900012    2    1    2    0    0  0.18682357999E+00 -0.11291277581E+01  0.28832812084E+00  0.90007760342E+02  0.90000021979E+02 0.  0.
        -12    1    1    2    0    0 -0.18682357999E+00  0.11291277581E+01 -0.28832812084E+00  0.11802396576E+01  0.00000000000E+00 0.  1.
         11    1    3    3    0    0 -0.46235429790E+01 -0.67494767443E+01 -0.45921585728E+01  0.93819244624E+01  0.51100000000E-03 0. -1.
        -11    1    3    3    0    0 -0.19663445145E+02 -0.30827490644E+02  0.28776172717E+01  0.36677867111E+02  0.51100000000E-03 0.  1.
         12    1    3    3    0    0  0.24473811704E+02  0.36447839630E+02  0.20028694219E+01  0.43947968769E+02  0.00000000000E+00 0. -1.
</event>
<event>
 7    1  0.2879200E-015  0.9000773E+02  0.7816164E-02  0.1186339E+00
        -11   -1    0    0    0    0  0.00000000000E+00  0.00000000000E+00  0.45593999997E+02  0.45594000000E+02  0.51100000000E-03 0.  1.
         11   -1    0    0    0    0 -0.00000000000E+00 -0.00000000000E+00 -0.45593999997E+02  0.45594000000E+02  0.51100000000E-03 0. -1.
    9900012    2    1    2    0    0 -0.13025658975E+00 -0.11013640939E+01 -0.40382363615E+00  0.90007727499E+02  0.89999988702E+02 0.  0.
        -12    1    1    2    0    0  0.13025658975E+00  0.11013640939E+01  0.40382363615E+00  0.11802725005E+01  0.00000000000E+00 0.  1.
         11    1    3    3    0    0  0.54982376523E+01 -0.17545755514E+01 -0.67620386850E+01  0.88901248633E+01  0.51100000000E-03 0. -1.
        -11    1    3    3    0    0  0.20786948158E+02 -0.29593341636E+02  0.16421835012E+02  0.39718254598E+02  0.51100000000E-03 0.  1.
         12    1    3    3    0    0 -0.26415442400E+02  0.30246553093E+02 -0.10063619964E+02  0.41399348038E+02  0.00000000000E+00 0. -1.
</event>
<event>
 7    1  0.2879200E-015  0.9000774E+02  0.7816164E-02  0.1186339E+00
        -11   -1    0    0    0    0  0.00000000000E+00  0.00000000000E+00  0.45593999997E+02  0.45594000000E+02  0.51100000000E-03 0.  1.
         11   -1    0    0    0    0 -0.00000000000E+00 -0.00000000000E+00 -0.45593999997E+02  0.45594000000E+02  0.51100000000E-03 0. -1.
    9900012    2    1    2    0    0 -0.10249616830E+01 -0.58177087428E+00  0.63389649355E-01  0.90007736449E+02  0.89999997770E+02 0.  0.
        -12    1    1    2    0    0  0.10249616830E+01  0.58177087428E+00 -0.63389649355E-01  0.11802635508E+01  0.00000000000E+00 0.  1.
         11    1    3    3    0    0 -0.38659915697E+02 -0.13975319271E+02 -0.17800138004E+02  0.44796691213E+02  0.51100000000E-03 0. -1.
        -11    1    3    3    0    0  0.56353987427E+01  0.31804673453E+01  0.78234041828E+01  0.10152770301E+02  0.51100000000E-03 0.  1.
        -12    1    3    3    0    0  0.31999555271E+02  0.10213081052E+02  0.10040123471E+02  0.35058274935E+02  0.00000000000E+00 0.  1.
</event>
<event>
 7    1  0.2879200E-015  0.9000774E+02  0.7816164E-02  0.1186339E+00
        -11   -1    0    0    0    0  0.00000000000E+00  0.00000000000E+00  0.45593999997E+02  0.45594000000E+02  0.51100000000E-03 0. -1.
         11   -1    0    0    0    0 -0.00000000000E+00 -0.00000000000E+00 -0.45593999997E+02  0.45594000000E+02  0.51100000000E-03 0.  1.
    9900012    2    1    2    0    0 -0.61705745439E+00  0.19687851082E+00  0.98665767960E+00  0.90007739678E+02  0.90000001042E+02 0.  0.
        -12    1    1    2    0    0  0.61705745439E+00 -0.19687851082E+00 -0.98665767960E+00  0.11802603216E+01  0.00000000000E+00 0.  1.
         11    1    3    3    0    0 -0.20127581855E+00  0.49370923455E+01 -0.85728991019E+01  0.98949478046E+01  0.51100000000E-03 0. -1.
        -11    1    3    3    0    0 -0.15992633226E+02 -0.38329334543E+01 -0.31858712832E+02  0.35852939627E+02  0.51100000000E-03 0.  1.
         12    1    3    3    0    0  0.15576851590E+02 -0.90728038041E+00  0.41418269613E+02  0.44259852247E+02  0.00000000000E+00 0. -1.
</event>
<event>
 7    1  0.2879200E-015  0.9000774E+02  0.7816164E-02  0.1186339E+00
        -11   -1    0    0    0    0  0.00000000000E+00  0.00000000000E+00  0.45593999997E+02  0.45594000000E+02  0.51100000000E-03 0. -1.
         11   -1    0    0    0    0 -0.00000000000E+00 -0.00000000000E+00 -0.45593999997E+02  0.45594000000E+02  0.51100000000E-03 0.  1.
    9900012    2    1    2    0    0 -0.11257384091E+01 -0.27603228825E+00 -0.22254789077E+00  0.90007742251E+02  0.90000003649E+02 0.  0.
        -12    1    1    2    0    0  0.11257384091E+01  0.27603228825E+00  0.22254789077E+00  0.11802577488E+01  0.00000000000E+00 0.  1.
         11    1    3    3    0    0 -0.76671382629E+01 -0.10894217422E+02  0.95963327036E+01  0.16418239370E+02  0.51100000000E-03 0. -1.
        -11    1    3    3    0    0  0.27842044117E+02 -0.20611323004E+02 -0.89447253533E+01  0.35777285650E+02  0.51100000000E-03 0.  1.
         12    1    3    3    0    0 -0.21300644263E+02  0.31229508138E+02 -0.87415524112E+00  0.37812217231E+02  0.00000000000E+00 0. -1.
</event>
<event>
 7    1  0.2879200E-015  0.9000769E+02  0.7816164E-02  0.1186339E+00
        -11   -1    0    0    0    0  0.00000000000E+00  0.00000000000E+00  0.45593999997E+02  0.45594000000E+02  0.51100000000E-03 0. -1.
         11   -1    0    0    0    0 -0.00000000000E+00 -0.00000000000E+00 -0.45593999997E+02  0.45594000000E+02  0.51100000000E-03 0.  1.
    9900012    2    1    2    0    0 -0.82991421408E-01  0.11321993294E+01  0.32304580882E+00  0.90007694323E+02  0.89999955088E+02 0.  0.
        -12    1    1    2    0    0  0.82991421408E-01 -0.11321993294E+01 -0.32304580882E+00  0.11803056774E+01  0.00000000000E+00 0.  1.
         11    1    3    3    0    0 -0.36128705443E+01 -0.81081202320E+01  0.50682023899E+01  0.10221600804E+02  0.51100000000E-03 0. -1.
        -11    1    3    3    0    0  0.29247796175E+02 -0.21888818458E+02 -0.12613778472E+02  0.38647915366E+02  0.51100000000E-03 0.  1.
         12    1    3    3    0    0 -0.25717917052E+02  0.31129138019E+02  0.78686218904E+01  0.41138178153E+02  0.00000000000E+00 0. -1.
</event>
<event>
 7    1  0.2879200E-015  0.9000774E+02  0.7816164E-02  0.1186339E+00
        -11   -1    0    0    0    0  0.00000000000E+00  0.00000000000E+00  0.45593999997E+02  0.45594000000E+02  0.51100000000E-03 0.  1.
         11   -1    0    0    0    0 -0.00000000000E+00 -0.00000000000E+00 -0.45593999997E+02  0.45594000000E+02  0.51100000000E-03 0. -1.
    9900012    2    1    2    0    0  0.60783229469E-01  0.42273522574E+00 -0.11002828440E+01  0.90007736466E+02  0.89999997788E+02 0.  0.
        -12    1    1    2    0    0 -0.60783229469E-01 -0.42273522574E+00  0.11002828440E+01  0.11802635336E+01  0.00000000000E+00 0.  1.
         11    1    3    3    0    0  0.34815622240E+02 -0.33364265468E+01  0.18057566851E+02  0.39361593145E+02  0.51100000000E-03 0. -1.
        -11    1    3    3    0    0  0.22187962640E+01 -0.77977820468E+01 -0.40961354397E+01  0.90833246949E+01  0.51100000000E-03 0.  1.
        -12    1    3    3    0    0 -0.36973635275E+02  0.11556943819E+02 -0.15061714256E+02  0.41562818626E+02  0.00000000000E+00 0.  1.
</event>
<event>
 7    1  0.2879200E-015  0.9000787E+02  0.7816164E-02  0.1186339E+00
        -11   -1    0    0    0    0  0.00000000000E+00  0.00000000000E+00  0.45593999997E+02  0.45594000000E+02  0.51100000000E-03 0. -1.
         11   -1    0    0    0    0 -0.00000000000E+00 -0.00000000000E+00 -0.45593999997E+02  0.45594000000E+02  0.51100000000E-03 0.  1.
    9900012    2    1    2    0    0  0.98817866595E+00  0.39347662594E+00 -0.51126266980E+00  0.90007868461E+02  0.90000131525E+02 0.  0.
        -12    1    1    2    0    0 -0.98817866595E+00 -0.39347662594E+00  0.51126266980E+00  0.11801315387E+01  0.00000000000E+00 0.  1.
         11    1    3    3    0    0  0.82677627023E+01  0.17537507145E+01  0.53470451833E+01  0.10001121643E+02  0.51100000000E-03 0. -1.
        -11    1    3    3    0    0  0.29633999782E+02 -0.47491416310E+01 -0.24288493136E+02  0.38609055782E+02  0.51100000000E-03 0.  1.
         12    1    3    3    0    0 -0.36913583819E+02  0.33888675424E+01  0.18430185283E+02  0.41397691036E+02  0.00000000000E+00 0. -1.
</event>
<event>
 7    1  0.2879200E-015  0.9000769E+02  0.7816164E-02  0.1186339E+00
        -11   -1    0    0    0    0  0.00000000000E+00  0.00000000000E+00  0.45593999997E+02  0.45594000000E+02  0.51100000000E-03 0. -1.
         11   -1    0    0    0    0 -0.00000000000E+00 -0.00000000000E+00 -0.45593999997E+02  0.45594000000E+02  0.51100000000E-03 0.  1.
    9900012    2    1    2    0    0 -0.57091152732E+00  0.10330486911E+01  0.17077808460E-02  0.90007689665E+02  0.89999950369E+02 0.  0.
        -12    1    1    2    0    0  0.57091152732E+00 -0.10330486911E+01 -0.17077808460E-02  0.11803103349E+01  0.00000000000E+00 0.  1.
         11    1    3    3    0    0  0.10563186649E+01 -0.34227130124E+02  0.78318866765E+01  0.35127634347E+02  0.51100000000E-03 0. -1.
        -11    1    3    3    0    0 -0.18336338485E+01 -0.64989655602E+01  0.77766924515E+01  0.10299306394E+02  0.51100000000E-03 0.  1.
        -12    1    3    3    0    0  0.20640365633E+00  0.41759144375E+02 -0.15606871347E+02  0.44580748924E+02  0.00000000000E+00 0.  1.
</event>
<event>
 7    1  0.2879200E-015  0.9000771E+02  0.7816164E-02  0.1186339E+00
        -11   -1    0    0    0    0  0.00000000000E+00  0.00000000000E+00  0.45593999997E+02  0.45594000000E+02  0.51100000000E-03 0.  1.
         11   -1    0    0    0    0 -0.00000000000E+00 -0.00000000000E+00 -0.45593999997E+02  0.45594000000E+02  0.51100000000E-03 0. -1.
    9900012    2    1    2    0    0  0.81677009023E+00 -0.84708347007E+00  0.91757949230E-01  0.90007710499E+02  0.89999971477E+02 0.  0.
        -12    1    1    2    0    0 -0.81677009023E+00  0.84708347007E+00 -0.91757949230E-01  0.11802895013E+01  0.00000000000E+00 0.  1.
         11    1    3    3    0    0  0.12697032689E+02  0.73899772370E+01 -0.40116277149E+02  0.42721681793E+02  0.51100000000E-03 0. -1.
        -11    1    3    3    0    0 -0.10742948790E+02 -0.17544568070E+01  0.59575826504E+01  0.12408942690E+02  0.51100000000E-03 0.  1.
        -12    1    3    3    0    0 -0.11373138088E+01 -0.64826039001E+01  0.34250452448E+02  0.34877086015E+02  0.00000000000E+00 0.  1.
</event>
<event>
 7    1  0.2879200E-015  0.9000814E+02  0.7816164E-02  0.1186338E+00
        -11   -1    0    0    0    0  0.00000000000E+00  0.00000000000E+00  0.45593999997E+02  0.45594000000E+02  0.51100000000E-03 0.  1.
         11   -1    0    0    0    0 -0.00000000000E+00 -0.00000000000E+00 -0.45593999997E+02  0.45594000000E+02  0.51100000000E-03 0. -1.
    9900012    2    1    2    0    0  0.42760518452E+00 -0.92973978612E+00  0.58719799441E+00  0.90008142488E+02  0.90000409168E+02 0.  0.
        -12    1    1    2    0    0 -0.42760518452E+00  0.92973978612E+00 -0.58719799441E+00  0.11798575119E+01  0.00000000000E+00 0.  1.
         11    1    3    3    0    0  0.28743532406E+02 -0.15658221548E+02 -0.15660669388E+02  0.36285356870E+02  0.51100000000E-03 0. -1.
        -11    1    3    3    0    0  0.44197492937E+01 -0.90898942494E+01  0.19586924467E-01  0.10107459878E+02  0.51100000000E-03 0.  1.
        -12    1    3    3    0    0 -0.32735676516E+02  0.23818376012E+02  0.16228280457E+02  0.43615325740E+02  0.00000000000E+00 0.  1.
</event>
<event>
 7    1  0.2879200E-015  0.9000766E+02  0.7816164E-02  0.1186339E+00
        -11   -1    0    0    0    0  0.00000000000E+00  0.00000000000E+00  0.45593999997E+02  0.45594000000E+02  0.51100000000E-03 0.  1.
         11   -1    0    0    0    0 -0.00000000000E+00 -0.00000000000E+00 -0.45593999997E+02  0.45594000000E+02  0.51100000000E-03 0. -1.
    9900012    2    1    2    0    0  0.40703456022E+00 -0.27971504313E+00 -0.10720466505E+01  0.90007660363E+02  0.89999920679E+02 0.  0.
        -12    1    1    2    0    0 -0.40703456022E+00  0.27971504313E+00  0.10720466505E+01  0.11803396373E+01  0.00000000000E+00 0.  1.
         11    1    3    3    0    0 -0.39886699702E+01  0.82083317288E+01  0.11499911218E+01  0.91982975459E+01  0.51100000000E-03 0. -1.
        -11    1    3    3    0    0  0.18611098026E+02 -0.37942902721E+01  0.35479834002E+02  0.40244108009E+02  0.51100000000E-03 0.  1.
         12    1    3    3    0    0 -0.14215393495E+02 -0.46937564999E+01 -0.37701871774E+02  0.40565254807E+02  0.00000000000E+00 0. -1.
</event>
<event>
 7    1  0.2879200E-015  0.9000756E+02  0.7816164E-02  0.1186339E+00
        -11   -1    0    0    0    0  0.00000000000E+00  0.00000000000E+00  0.45593999997E+02  0.45594000000E+02  0.51100000000E-03 0.  1.
         11   -1    0    0    0    0 -0.00000000000E+00 -0.00000000000E+00 -0.45593999997E+02  0.45594000000E+02  0.51100000000E-03 0. -1.
    9900012    2    1    2    0    0 -0.41525764248E+00  0.10695706953E+01 -0.27753916541E+00  0.90007555859E+02  0.89999814796E+02 0.  0.
        -12    1    1    2    0    0  0.41525764248E+00 -0.10695706953E+01  0.27753916541E+00  0.11804441410E+01  0.00000000000E+00 0.  1.
         11    1    3    3    0    0 -0.59374693427E+01 -0.60794378806E+01  0.22436663555E+01  0.87890355623E+01  0.51100000000E-03 0. -1.
        -11    1    3    3    0    0 -0.40085088952E+01  0.22191592912E+01  0.38523188934E+02  0.38794701925E+02  0.51100000000E-03 0.  1.
         12    1    3    3    0    0  0.95307205955E+01  0.49298492846E+01 -0.41044394455E+02  0.42423818372E+02  0.00000000000E+00 0. -1.
</event>
<event>
 7    1  0.2879200E-015  0.9000774E+02  0.7816164E-02  0.1186339E+00
        -11   -1    0    0    0    0  0.00000000000E+00  0.00000000000E+00  0.45593999997E+02  0.45594000000E+02  0.51100000000E-03 0. -1.
         11   -1    0    0    0    0 -0.00000000000E+00 -0.00000000000E+00 -0.45593999997E+02  0.45594000000E+02  0.51100000000E-03 0.  1.
    9900012    2    1    2    0    0  0.71600634087E+00 -0.80707531312E+00  0.47851862197E+00  0.90007739134E+02  0.90000000490E+02 0.  0.
        -12    1    1    2    0    0 -0.71600634087E+00  0.80707531312E+00 -0.47851862197E+00  0.11802608664E+01  0.00000000000E+00 0.  1.
         11    1    3    3    0    0  0.14304458939E+02 -0.46188213158E+01 -0.15443920237E+02  0.21551466967E+02  0.51100000000E-03 0. -1.
        -11    1    3    3    0    0 -0.21089394065E+01  0.31024512325E+02 -0.60060022539E+01  0.31670807596E+02  0.51100000000E-03 0.  1.
        -12    1    3    3    0    0 -0.11479513191E+02 -0.27212766323E+02  0.21928441113E+02  0.36785464571E+02  0.00000000000E+00 0.  1.
</event>
<event>
 7    1  0.2879200E-015  0.9000767E+02  0.7816164E-02  0.1186339E+00
        -11   -1    0    0    0    0  0.00000000000E+00  0.00000000000E+00  0.45593999997E+02  0.45594000000E+02  0.51100000000E-03 0.  1.
         11   -1    0    0    0    0 -0.00000000000E+00 -0.00000000000E+00 -0.45593999997E+02  0.45594000000E+02  0.51100000000E-03 0. -1.
    9900012    2    1    2    0    0  0.56083202876E+00 -0.27762641301E+00 -0.10007869904E+01  0.90007668017E+02  0.89999928435E+02 0.  0.
        -12    1    1    2    0    0 -0.56083202876E+00  0.27762641301E+00  0.10007869904E+01  0.11803319829E+01  0.00000000000E+00 0.  1.
         11    1    3    3    0    0  0.36787162215E+01  0.22179518528E+02 -0.33279555511E+02  0.40162081749E+02  0.51100000000E-03 0. -1.
        -11    1    3    3    0    0 -0.61701688524E+01 -0.10311109829E+02 -0.30209059550E+01  0.12390151033E+02  0.51100000000E-03 0.  1.
        -12    1    3    3    0    0  0.30522846597E+01 -0.12146035112E+02  0.35299674475E+02  0.37455435235E+02  0.00000000000E+00 0.  1.
</event>
