<event>
 7    1  0.3528441E-013  0.5930166E+02  0.7816164E-02  0.1266606E+00
        -11   -1    0    0    0    0  0.00000000000E+00  0.00000000000E+00  0.45593999997E+02  0.45594000000E+02  0.51100000000E-03 0.  1.
         11   -1    0    0    0    0 -0.00000000000E+00 -0.00000000000E+00 -0.45593999997E+02  0.45594000000E+02  0.51100000000E-03 0. -1.
    9900012    2    1    2    0    0 -0.25954295871E+02 -0.42044893860E+01  0.18039826651E+02  0.59301662004E+02  0.49999485654E+02 0.  0.
        -12    1    1    2    0    0  0.25954295871E+02  0.42044893860E+01 -0.18039826651E+02  0.31886337996E+02  0.00000000000E+00 0.  1.
         11    1    3    3    0    0 -0.19107192286E+02  0.20010312546E+00 -0.85133417730E+00  0.19127195520E+02  0.51100000000E-03 0. -1.
        -11    1    3    3    0    0  0.19145524142E+01 -0.93194617425E+01 -0.73846351687E+01  0.12043700218E+02  0.51100000000E-03 0.  1.
        -12    1    3    3    0    0 -0.87616559991E+01  0.49148692310E+01  0.26275795997E+02  0.28130766266E+02  0.00000000000E+00 0.  1.
</event>
<event>
 7    1  0.3528441E-013  0.5930195E+02  0.7816164E-02  0.1266605E+00
        -11   -1    0    0    0    0  0.00000000000E+00  0.00000000000E+00  0.45593999997E+02  0.45594000000E+02  0.51100000000E-03 0.  1.
         11   -1    0    0    0    0 -0.00000000000E+00 -0.00000000000E+00 -0.45593999997E+02  0.45594000000E+02  0.51100000000E-03 0. -1.
    9900012    2    1    2    0    0 -0.17378042827E+02 -0.88180445680E+01 -0.25238184363E+02  0.59301949250E+02  0.50000009524E+02 0.  0.
        -12    1    1    2    0    0  0.17378042827E+02  0.88180445680E+01  0.25238184363E+02  0.31886050750E+02  0.00000000000E+00 0.  1.
         11    1    3    3    0    0 -0.23516063306E+01  0.17668366729E+01 -0.37466812518E+01  0.47633375721E+01  0.51100000000E-03 0. -1.
        -11    1    3    3    0    0 -0.31654409743E+02 -0.49468709453E+01 -0.17600731642E+02  0.36554875775E+02  0.51100000000E-03 0.  1.
         12    1    3    3    0    0  0.16627973247E+02 -0.56380102955E+01 -0.38907714692E+01  0.17983735902E+02  0.00000000000E+00 0. -1.
</event>
<event>
 7    1  0.3528441E-013  0.5930199E+02  0.7816164E-02  0.1266605E+00
        -11   -1    0    0    0    0  0.00000000000E+00  0.00000000000E+00  0.45593999997E+02  0.45594000000E+02  0.51100000000E-03 0.  1.
         11   -1    0    0    0    0 -0.00000000000E+00 -0.00000000000E+00 -0.45593999997E+02  0.45594000000E+02  0.51100000000E-03 0. -1.
    9900012    2    1    2    0    0  0.13122296331E+02 -0.63546687709E+01 -0.28357382801E+02  0.59301989972E+02  0.50000083792E+02 0.  0.
        -12    1    1    2    0    0 -0.13122296331E+02  0.63546687709E+01  0.28357382801E+02  0.31886010028E+02  0.00000000000E+00 0.  1.
         11    1    3    3    0    0  0.12651704367E+02 -0.16150772737E+02 -0.28338007737E+01  0.20710951462E+02  0.51100000000E-03 0. -1.
        -11    1    3    3    0    0 -0.20396544783E+01 -0.66213775395E+00  0.54214838423E+01  0.58301890286E+01  0.51100000000E-03 0.  1.
         12    1    3    3    0    0  0.25102464419E+01  0.10458241720E+02 -0.30945065869E+02  0.32760849481E+02  0.00000000000E+00 0. -1.
</event>
<event>
 7    1  0.3528441E-013  0.5930201E+02  0.7816164E-02  0.1266605E+00
        -11   -1    0    0    0    0  0.00000000000E+00  0.00000000000E+00  0.45593999997E+02  0.45594000000E+02  0.51100000000E-03 0. -1.
         11   -1    0    0    0    0 -0.00000000000E+00 -0.00000000000E+00 -0.45593999997E+02  0.45594000000E+02  0.51100000000E-03 0.  1.
    9900012    2    1    2    0    0  0.17513428719E+02  0.11329799591E+02  0.24117042151E+02  0.59302011441E+02  0.50000122945E+02 0.  0.
        -12    1    1    2    0    0 -0.17513428719E+02 -0.11329799591E+02 -0.24117042151E+02  0.31885988559E+02  0.00000000000E+00 0.  1.
         11    1    3    3    0    0  0.18342224062E+01 -0.16196692276E+01  0.29611563897E+02  0.29712495973E+02  0.51100000000E-03 0. -1.
        -11    1    3    3    0    0 -0.66642904964E+00 -0.43915713230E+01 -0.35383221123E+01  0.56788863340E+01  0.51100000000E-03 0.  1.
        -12    1    3    3    0    0  0.16345635363E+02  0.17341040141E+02 -0.19561996335E+01  0.23910629134E+02  0.00000000000E+00 0.  1.
</event>
<event>
 7    1  0.3528441E-013  0.5930194E+02  0.7816164E-02  0.1266605E+00
        -11   -1    0    0    0    0  0.00000000000E+00  0.00000000000E+00  0.45593999997E+02  0.45594000000E+02  0.51100000000E-03 0.  1.
         11   -1    0    0    0    0 -0.00000000000E+00 -0.00000000000E+00 -0.45593999997E+02  0.45594000000E+02  0.51100000000E-03 0. -1.
    9900012    2    1    2    0    0 -0.11759551775E+02 -0.19313114516E+02 -0.22481933296E+02  0.59301940742E+02  0.49999994008E+02 0.  0.
        -12    1    1    2    0    0  0.11759551775E+02  0.19313114516E+02  0.22481933296E+02  0.31886059258E+02  0.00000000000E+00 0.  1.
         11    1    3    3    0    0  0.24098211585E-01 -0.30744373018E+02 -0.15402861085E+02  0.34386991478E+02  0.51100000000E-03 0. -1.
        -11    1    3    3    0    0 -0.93537927687E+01  0.29266634893E+01  0.41307329513E+01  0.10635871065E+02  0.51100000000E-03 0.  1.
        -12    1    3    3    0    0 -0.24298572175E+01  0.85045950132E+01 -0.11209805163E+02  0.14279078199E+02  0.00000000000E+00 0.  1.
</event>
<event>
 7    1  0.3528441E-013  0.5930190E+02  0.7816164E-02  0.1266605E+00
        -11   -1    0    0    0    0  0.00000000000E+00  0.00000000000E+00  0.45593999997E+02  0.45594000000E+02  0.51100000000E-03 0.  1.
         11   -1    0    0    0    0 -0.00000000000E+00 -0.00000000000E+00 -0.45593999997E+02  0.45594000000E+02  0.51100000000E-03 0. -1.
    9900012    2    1    2    0    0 -0.22585847436E+02  0.49349691419E+01 -0.21960166774E+02  0.59301900371E+02  0.49999920380E+02 0.  0.
        -12    1    1    2    0    0  0.22585847436E+02 -0.49349691419E+01  0.21960166774E+02  0.31886099629E+02  0.00000000000E+00 0.  1.
         11    1    3    3    0    0 -0.93336447780E+01  0.14648893776E+02 -0.97725428351E+01  0.19930118099E+02  0.51100000000E-03 0. -1.
        -11    1    3    3    0    0 -0.51028407580E+01  0.12618388361E+02 -0.54598999147E+01  0.14665374730E+02  0.51100000000E-03 0.  1.
        -12    1    3    3    0    0 -0.81493618997E+01 -0.22332312995E+02 -0.67277240244E+01  0.24706407542E+02  0.00000000000E+00 0.  1.
</event>
<event>
 7    1  0.3528441E-013  0.5930195E+02  0.7816164E-02  0.1266605E+00
        -11   -1    0    0    0    0  0.00000000000E+00  0.00000000000E+00  0.45593999997E+02  0.45594000000E+02  0.51100000000E-03 0.  1.
         11   -1    0    0    0    0 -0.00000000000E+00 -0.00000000000E+00 -0.45593999997E+02  0.45594000000E+02  0.51100000000E-03 0. -1.
    9900012    2    1    2    0    0  0.65378549328E+01 -0.27827987214E+02 -0.14127265819E+02  0.59301951969E+02  0.50000014483E+02 0.  0.
        -12    1    1    2    0    0 -0.65378549328E+01  0.27827987214E+02  0.14127265819E+02  0.31886048031E+02  0.00000000000E+00 0.  1.
         11    1    3    3    0    0  0.34086092390E+01 -0.16219516760E+02  0.60792955364E+01  0.17653588172E+02  0.51100000000E-03 0. -1.
        -11    1    3    3    0    0 -0.27282996198E+01  0.29760126960E+01  0.82246656741E+01  0.91621720183E+01  0.51100000000E-03 0.  1.
         12    1    3    3    0    0  0.58575453135E+01 -0.14584483151E+02 -0.28431227030E+02  0.32486191779E+02  0.00000000000E+00 0. -1.
</event>
<event>
 7    1  0.3528441E-013  0.5930198E+02  0.7816164E-02  0.1266605E+00
        -11   -1    0    0    0    0  0.00000000000E+00  0.00000000000E+00  0.45593999997E+02  0.45594000000E+02  0.51100000000E-03 0.  1.
         11   -1    0    0    0    0 -0.00000000000E+00 -0.00000000000E+00 -0.45593999997E+02  0.45594000000E+02  0.51100000000E-03 0. -1.
    9900012    2    1    2    0    0  0.22685261961E+02 -0.22239973477E+02 -0.27351399487E+01  0.59301976086E+02  0.50000058467E+02 0.  0.
        -12    1    1    2    0    0 -0.22685261961E+02  0.22239973477E+02  0.27351399487E+01  0.31886023914E+02  0.00000000000E+00 0.  1.
         11    1    3    3    0    0  0.17583754696E+02 -0.17222584598E+02  0.18706352960E+02  0.30914939604E+02  0.51100000000E-03 0.  1.
        -11    1    3    3    0    0  0.38210103903E+01 -0.11179591593E+02 -0.10711636645E+02  0.15947493486E+02  0.51100000000E-03 0. -1.
        -12    1    3    3    0    0  0.12804968745E+01  0.61622027138E+01 -0.10729856263E+02  0.12439542997E+02  0.00000000000E+00 0.  1.
</event>
<event>
 7    1  0.3528441E-013  0.5930195E+02  0.7816164E-02  0.1266605E+00
        -11   -1    0    0    0    0  0.00000000000E+00  0.00000000000E+00  0.45593999997E+02  0.45594000000E+02  0.51100000000E-03 0. -1.
         11   -1    0    0    0    0 -0.00000000000E+00 -0.00000000000E+00 -0.45593999997E+02  0.45594000000E+02  0.51100000000E-03 0.  1.
    9900012    2    1    2    0    0 -0.19118036509E+02  0.14435560991E+02  0.21043654909E+02  0.59301950495E+02  0.50000011795E+02 0.  0.
        -12    1    1    2    0    0  0.19118036509E+02 -0.14435560991E+02 -0.21043654909E+02  0.31886049505E+02  0.00000000000E+00 0.  1.
         11    1    3    3    0    0 -0.13573402121E+02  0.60827488373E+01  0.12382802692E+02  0.19353833763E+02  0.51100000000E-03 0. -1.
        -11    1    3    3    0    0 -0.92095496575E+01  0.10204925684E+02  0.22027618421E+02  0.25964827877E+02  0.51100000000E-03 0.  1.
        -12    1    3    3    0    0  0.36649152700E+01 -0.18521135301E+01 -0.13366766203E+02  0.13983288855E+02  0.00000000000E+00 0.  1.
</event>
<event>
 7    1  0.3528441E-013  0.5930197E+02  0.7816164E-02  0.1266605E+00
        -11   -1    0    0    0    0  0.00000000000E+00  0.00000000000E+00  0.45593999997E+02  0.45594000000E+02  0.51100000000E-03 0.  1.
         11   -1    0    0    0    0 -0.00000000000E+00 -0.00000000000E+00 -0.45593999997E+02  0.45594000000E+02  0.51100000000E-03 0. -1.
    9900012    2    1    2    0    0  0.80673573392E+01  0.19856061728E+02 -0.23608751759E+02  0.59301974825E+02  0.50000056168E+02 0.  0.
        -12    1    1    2    0    0 -0.80673573392E+01 -0.19856061728E+02  0.23608751759E+02  0.31886025175E+02  0.00000000000E+00 0.  1.
         11    1    3    3    0    0 -0.15487690839E+01  0.15551586264E+02  0.30194854545E+00  0.15631432890E+02  0.51100000000E-03 0. -1.
        -11    1    3    3    0    0  0.14338155994E+02 -0.64226536178E+01  0.14047207333E+01  0.15773599380E+02  0.51100000000E-03 0.  1.
         12    1    3    3    0    0 -0.47220295711E+01  0.10727129082E+02 -0.25315421038E+02  0.27896942556E+02  0.00000000000E+00 0. -1.
</event>
<event>
 7    1  0.3528441E-013  0.5930192E+02  0.7816164E-02  0.1266605E+00
        -11   -1    0    0    0    0  0.00000000000E+00  0.00000000000E+00  0.45593999997E+02  0.45594000000E+02  0.51100000000E-03 0. -1.
         11   -1    0    0    0    0 -0.00000000000E+00 -0.00000000000E+00 -0.45593999997E+02  0.45594000000E+02  0.51100000000E-03 0.  1.
    9900012    2    1    2    0    0  0.29919609571E+02 -0.14638867725E+01  0.10926838310E+02  0.59301924719E+02  0.49999964785E+02 0.  0.
        -12    1    1    2    0    0 -0.29919609571E+02  0.14638867725E+01 -0.10926838310E+02  0.31886075281E+02  0.00000000000E+00 0.  1.
         11    1    3    3    0    0  0.20891339139E+02 -0.20305196245E+01  0.19373008207E+02  0.28563692132E+02  0.51100000000E-03 0. -1.
        -11    1    3    3    0    0 -0.39333818955E+00 -0.11727030524E+02  0.22072101774E+01  0.11939419453E+02  0.51100000000E-03 0.  1.
         12    1    3    3    0    0  0.94216086216E+01  0.12293663376E+02 -0.10653380074E+02  0.18798813134E+02  0.00000000000E+00 0. -1.
</event>
<event>
 7    1  0.3528441E-013  0.5930195E+02  0.7816164E-02  0.1266605E+00
        -11   -1    0    0    0    0  0.00000000000E+00  0.00000000000E+00  0.45593999997E+02  0.45594000000E+02  0.51100000000E-03 0.  1.
         11   -1    0    0    0    0 -0.00000000000E+00 -0.00000000000E+00 -0.45593999997E+02  0.45594000000E+02  0.51100000000E-03 0. -1.
    9900012    2    1    2    0    0 -0.17711534647E+02 -0.10890600028E+02 -0.24174703493E+02  0.59301954188E+02  0.50000018530E+02 0.  0.
        -12    1    1    2    0    0  0.17711534647E+02  0.10890600028E+02  0.24174703493E+02  0.31886045812E+02  0.00000000000E+00 0.  1.
         11    1    3    3    0    0 -0.63036116691E+01  0.53539273610E+01 -0.23835034986E+02  0.25229129024E+02  0.51100000000E-03 0. -1.
        -11    1    3    3    0    0 -0.15633652477E+02  0.14616321761E+01 -0.18319180947E+01  0.15808332694E+02  0.51100000000E-03 0.  1.
        -12    1    3    3    0    0  0.42257294994E+01 -0.17706159565E+02  0.14922495874E+01  0.18264492470E+02  0.00000000000E+00 0.  1.
</event>
<event>
 7    1  0.3528441E-013  0.5930196E+02  0.7816164E-02  0.1266605E+00
        -11   -1    0    0    0    0  0.00000000000E+00  0.00000000000E+00  0.45593999997E+02  0.45594000000E+02  0.51100000000E-03 0. -1.
         11   -1    0    0    0    0 -0.00000000000E+00 -0.00000000000E+00 -0.45593999997E+02  0.45594000000E+02  0.51100000000E-03 0.  1.
    9900012    2    1    2    0    0  0.28032038096E+01  0.53062745830E+01  0.31316214692E+02  0.59301955965E+02  0.50000021770E+02 0.  0.
        -12    1    1    2    0    0 -0.28032038096E+01 -0.53062745830E+01 -0.31316214692E+02  0.31886044035E+02  0.00000000000E+00 0.  1.
         11    1    3    3    0    0  0.82911108433E+01  0.99623989145E+01 -0.80471620105E+01  0.15256104609E+02  0.51100000000E-03 0. -1.
        -11    1    3    3    0    0 -0.18457770763E+00  0.15503273940E+01  0.34516456567E+02  0.34551748988E+02  0.51100000000E-03 0.  1.
        -12    1    3    3    0    0 -0.53033293261E+01 -0.62064517255E+01  0.48469201360E+01  0.94941023676E+01  0.00000000000E+00 0.  1.
</event>
<event>
 7    1  0.3528441E-013  0.5930199E+02  0.7816164E-02  0.1266605E+00
        -11   -1    0    0    0    0  0.00000000000E+00  0.00000000000E+00  0.45593999997E+02  0.45594000000E+02  0.51100000000E-03 0. -1.
         11   -1    0    0    0    0 -0.00000000000E+00 -0.00000000000E+00 -0.45593999997E+02  0.45594000000E+02  0.51100000000E-03 0.  1.
    9900012    2    1    2    0    0  0.18022779335E+02 -0.19656167773E+02  0.17479485162E+02  0.59301985699E+02  0.50000075999E+02 0.  0.
        -12    1    1    2    0    0 -0.18022779335E+02  0.19656167773E+02 -0.17479485162E+02  0.31886014301E+02  0.00000000000E+00 0.  1.
         11    1    3    3    0    0  0.35946715304E+01 -0.23885630452E+02  0.70244657660E+01  0.25155280262E+02  0.51100000000E-03 0. -1.
        -11    1    3    3    0    0  0.10689766936E+02  0.91843551400E+01 -0.69168652638E+01  0.15699252270E+02  0.51100000000E-03 0.  1.
         12    1    3    3    0    0  0.37383408680E+01 -0.49548924612E+01  0.17371884660E+02  0.18447453168E+02  0.00000000000E+00 0. -1.
</event>
<event>
 7    1  0.3528441E-013  0.5930196E+02  0.7816164E-02  0.1266605E+00
        -11   -1    0    0    0    0  0.00000000000E+00  0.00000000000E+00  0.45593999997E+02  0.45594000000E+02  0.51100000000E-03 0.  1.
         11   -1    0    0    0    0 -0.00000000000E+00 -0.00000000000E+00 -0.45593999997E+02  0.45594000000E+02  0.51100000000E-03 0. -1.
    9900012    2    1    2    0    0  0.13553079660E+02  0.28204651514E+02 -0.61262537701E+01  0.59301963549E+02  0.50000035603E+02 0.  0.
        -12    1    1    2    0    0 -0.13553079660E+02 -0.28204651514E+02  0.61262537701E+01  0.31886036451E+02  0.00000000000E+00 0.  1.
         11    1    3    3    0    0 -0.43814834958E+01 -0.49943663699E+01  0.58454069827E+00  0.66695412998E+01  0.51100000000E-03 0. -1.
        -11    1    3    3    0    0 -0.23921302436E-02 -0.10200992362E+01  0.10348407642E+02  0.10398564765E+02  0.51100000000E-03 0.  1.
         12    1    3    3    0    0  0.17936955286E+02  0.34219117120E+02 -0.17059202111E+02  0.42233857485E+02  0.00000000000E+00 0. -1.
</event>
<event>
 7    1  0.3528441E-013  0.5930193E+02  0.7816164E-02  0.1266605E+00
        -11   -1    0    0    0    0  0.00000000000E+00  0.00000000000E+00  0.45593999997E+02  0.45594000000E+02  0.51100000000E-03 0. -1.
         11   -1    0    0    0    0 -0.00000000000E+00 -0.00000000000E+00 -0.45593999997E+02  0.45594000000E+02  0.51100000000E-03 0.  1.
    9900012    2    1    2    0    0  0.22965714524E+02 -0.81190520832E+01 -0.20576156179E+02  0.59301933240E+02  0.49999980325E+02 0.  0.
        -12    1    1    2    0    0 -0.22965714524E+02  0.81190520832E+01  0.20576156179E+02  0.31886066760E+02  0.00000000000E+00 0.  1.
         11    1    3    3    0    0 -0.88660115735E+01 -0.29754720792E+00 -0.23021673557E+00  0.88739898337E+01  0.51100000000E-03 0. -1.
        -11    1    3    3    0    0  0.56723722955E+01 -0.10092226485E+02 -0.21201357569E+02  0.24156291229E+02  0.51100000000E-03 0.  1.
         12    1    3    3    0    0  0.26159353802E+02  0.22707216102E+01  0.85541812529E+00  0.26271652177E+02  0.00000000000E+00 0. -1.
</event>
<event>
 7    1  0.3528441E-013  0.5930200E+02  0.7816164E-02  0.1266605E+00
        -11   -1    0    0    0    0  0.00000000000E+00  0.00000000000E+00  0.45593999997E+02  0.45594000000E+02  0.51100000000E-03 0. -1.
         11   -1    0    0    0    0 -0.00000000000E+00 -0.00000000000E+00 -0.45593999997E+02  0.45594000000E+02  0.51100000000E-03 0.  1.
    9900012    2    1    2    0    0  0.32611700765E+01 -0.18448993065E+01  0.31665091109E+02  0.59302001840E+02  0.50000105436E+02 0.  0.
        -12    1    1    2    0    0 -0.32611700765E+01  0.18448993065E+01 -0.31665091109E+02  0.31885998160E+02  0.00000000000E+00 0.  1.
         11    1    3    3    0    0  0.22792085962E+01 -0.48668513929E+01 -0.13729839278E+01  0.55467215031E+01  0.51100000000E-03 0. -1.
        -11    1    3    3    0    0  0.20422083662E+02 -0.22926549929E+01  0.91330019815E+01  0.22488430214E+02  0.51100000000E-03 0.  1.
         12    1    3    3    0    0 -0.19440122182E+02  0.53146070793E+01  0.23905073055E+02  0.31266850123E+02  0.00000000000E+00 0. -1.
</event>
<event>
 7    1  0.3528441E-013  0.5930194E+02  0.7816164E-02  0.1266605E+00
        -11   -1    0    0    0    0  0.00000000000E+00  0.00000000000E+00  0.45593999997E+02  0.45594000000E+02  0.51100000000E-03 0. -1.
         11   -1    0    0    0    0 -0.00000000000E+00 -0.00000000000E+00 -0.45593999997E+02  0.45594000000E+02  0.51100000000E-03 0.  1.
    9900012    2    1    2    0    0  0.18196438053E+02  0.16037898889E+02  0.20697729799E+02  0.59301943840E+02  0.49999999657E+02 0.  0.
        -12    1    1    2    0    0 -0.18196438053E+02 -0.16037898889E+02 -0.20697729799E+02  0.31886056160E+02  0.00000000000E+00 0.  1.
         11    1    3    3    0    0 -0.19929861298E+01  0.16646212852E+02  0.28601398802E+01  0.17007315968E+02  0.51100000000E-03 0. -1.
        -11    1    3    3    0    0 -0.64471786538E+01 -0.39306572372E+01 -0.31890668854E+01  0.81967265888E+01  0.51100000000E-03 0.  1.
         12    1    3    3    0    0  0.26636602837E+02  0.33223432736E+01  0.21026656805E+02  0.34097901283E+02  0.00000000000E+00 0. -1.
</event>
<event>
 7    1  0.3528441E-013  0.5930194E+02  0.7816164E-02  0.1266605E+00
        -11   -1    0    0    0    0  0.00000000000E+00  0.00000000000E+00  0.45593999997E+02  0.45594000000E+02  0.51100000000E-03 0.  1.
         11   -1    0    0    0    0 -0.00000000000E+00 -0.00000000000E+00 -0.45593999997E+02  0.45594000000E+02  0.51100000000E-03 0. -1.
    9900012    2    1    2    0    0 -0.27571268053E+02 -0.10952849321E+02 -0.11686797194E+02  0.59301937857E+02  0.49999988746E+02 0.  0.
        -12    1    1    2    0    0  0.27571268053E+02  0.10952849321E+02  0.11686797194E+02  0.31886062143E+02  0.00000000000E+00 0.  1.
         11    1    3    3    0    0 -0.11882104235E+02  0.51264473219E+01 -0.51936023964E+01  0.13944115939E+02  0.51100000000E-03 0. -1.
        -11    1    3    3    0    0  0.17691014344E+01 -0.11162121288E+02  0.13999179190E+02  0.17991656116E+02  0.51100000000E-03 0.  1.
         12    1    3    3    0    0 -0.17458265253E+02 -0.49171753548E+01 -0.20492373987E+02  0.27366165803E+02  0.00000000000E+00 0. -1.
</event>
<event>
 7    1  0.3528441E-013  0.5930200E+02  0.7816164E-02  0.1266605E+00
        -11   -1    0    0    0    0  0.00000000000E+00  0.00000000000E+00  0.45593999997E+02  0.45594000000E+02  0.51100000000E-03 0. -1.
         11   -1    0    0    0    0 -0.00000000000E+00 -0.00000000000E+00 -0.45593999997E+02  0.45594000000E+02  0.51100000000E-03 0.  1.
    9900012    2    1    2    0    0  0.13884078966E+02 -0.68117842174E+01  0.27884568581E+02  0.59301996520E+02  0.50000095734E+02 0.  0.
        -12    1    1    2    0    0 -0.13884078966E+02  0.68117842174E+01 -0.27884568581E+02  0.31886003480E+02  0.00000000000E+00 0.  1.
         11    1    3    3    0    0 -0.29085707442E+00 -0.75922943357E+01  0.19107640902E+02  0.20562817711E+02  0.51100000000E-03 0. -1.
        -11    1    3    3    0    0  0.85804110536E+01 -0.83813721806E+01  0.19928834984E+02  0.23260036920E+02  0.51100000000E-03 0.  1.
        -12    1    3    3    0    0  0.55945249865E+01  0.91618822989E+01 -0.11151907304E+02  0.15479141889E+02  0.00000000000E+00 0.  1.
</event>
<event>
 7    1  0.3528441E-013  0.5930198E+02  0.7816164E-02  0.1266605E+00
        -11   -1    0    0    0    0  0.00000000000E+00  0.00000000000E+00  0.45593999997E+02  0.45594000000E+02  0.51100000000E-03 0.  1.
         11   -1    0    0    0    0 -0.00000000000E+00 -0.00000000000E+00 -0.45593999997E+02  0.45594000000E+02  0.51100000000E-03 0. -1.
    9900012    2    1    2    0    0 -0.28360786625E+02 -0.12487291023E+02 -0.75134408161E+01  0.59301977232E+02  0.50000060556E+02 0.  0.
        -12    1    1    2    0    0  0.28360786625E+02  0.12487291023E+02  0.75134408161E+01  0.31886022768E+02  0.00000000000E+00 0.  1.
         11    1    3    3    0    0  0.12291434030E+00  0.35268501734E+00  0.28977145193E+01  0.29216851906E+01  0.51100000000E-03 0. -1.
        -11    1    3    3    0    0 -0.32834464831E+02  0.50218374612E+01  0.33950358767E+01  0.33389327652E+02  0.51100000000E-03 0.  1.
         12    1    3    3    0    0  0.43507638652E+01 -0.17861813501E+02 -0.13806191212E+02  0.22990964389E+02  0.00000000000E+00 0. -1.
</event>
<event>
 7    1  0.3528441E-013  0.5930197E+02  0.7816164E-02  0.1266605E+00
        -11   -1    0    0    0    0  0.00000000000E+00  0.00000000000E+00  0.45593999997E+02  0.45594000000E+02  0.51100000000E-03 0. -1.
         11   -1    0    0    0    0 -0.00000000000E+00 -0.00000000000E+00 -0.45593999997E+02  0.45594000000E+02  0.51100000000E-03 0.  1.
    9900012    2    1    2    0    0 -0.17776352297E+02 -0.22795158679E+02  0.13457377656E+02  0.59301968990E+02  0.50000045525E+02 0.  0.
        -12    1    1    2    0    0  0.17776352297E+02  0.22795158679E+02 -0.13457377656E+02  0.31886031010E+02  0.00000000000E+00 0.  1.
         11    1    3    3    0    0 -0.46500722797E+00 -0.95698780153E+01  0.92860973768E+01  0.13342803367E+02  0.51100000000E-03 0. -1.
        -11    1    3    3    0    0 -0.11048229879E+02 -0.26735614129E+02 -0.36175123323E+01  0.29153779207E+02  0.51100000000E-03 0.  1.
         12    1    3    3    0    0 -0.62631151901E+01  0.13510333465E+02  0.77887926120E+01  0.16805386416E+02  0.00000000000E+00 0. -1.
</event>
<event>
 7    1  0.3528441E-013  0.5930205E+02  0.7816164E-02  0.1266604E+00
        -11   -1    0    0    0    0  0.00000000000E+00  0.00000000000E+00  0.45593999997E+02  0.45594000000E+02  0.51100000000E-03 0.  1.
         11   -1    0    0    0    0 -0.00000000000E+00 -0.00000000000E+00 -0.45593999997E+02  0.45594000000E+02  0.51100000000E-03 0. -1.
    9900012    2    1    2    0    0 -0.23550200340E+02 -0.14375154009E+02 -0.15983025135E+02  0.59302045705E+02  0.50000185435E+02 0.  0.
        -12    1    1    2    0    0  0.23550200340E+02  0.14375154009E+02  0.15983025135E+02  0.31885954295E+02  0.00000000000E+00 0.  1.
         11    1    3    3    0    0  0.10038895090E+01  0.73066255451E+00 -0.12439563993E+02  0.12501376505E+02  0.51100000000E-03 0. -1.
        -11    1    3    3    0    0  0.39657577278E+01  0.63940670311E+01  0.62334720115E+01  0.97707472147E+01  0.51100000000E-03 0.  1.
         12    1    3    3    0    0 -0.28519847577E+02 -0.21499883595E+02 -0.97769331534E+01  0.37029921986E+02  0.00000000000E+00 0. -1.
</event>
<event>
 7    1  0.3528441E-013  0.5930197E+02  0.7816164E-02  0.1266605E+00
        -11   -1    0    0    0    0  0.00000000000E+00  0.00000000000E+00  0.45593999997E+02  0.45594000000E+02  0.51100000000E-03 0. -1.
         11   -1    0    0    0    0 -0.00000000000E+00 -0.00000000000E+00 -0.45593999997E+02  0.45594000000E+02  0.51100000000E-03 0.  1.
    9900012    2    1    2    0    0  0.46352315067E+01  0.19864352784E+02  0.24507975267E+02  0.59301972741E+02  0.50000052367E+02 0.  0.
        -12    1    1    2    0    0 -0.46352315067E+01 -0.19864352784E+02 -0.24507975267E+02  0.31886027259E+02  0.00000000000E+00 0.  1.
         11    1    3    3    0    0  0.12902151421E+02  0.77513427424E+01  0.14891145276E+02  0.21172978852E+02  0.51100000000E-03 0. -1.
        -11    1    3    3    0    0 -0.28766344606E+01 -0.11883067082E+02  0.43518921955E+01  0.12977722260E+02  0.51100000000E-03 0.  1.
        -12    1    3    3    0    0 -0.53902854535E+01  0.23996077124E+02  0.52649377958E+01  0.25151271630E+02  0.00000000000E+00 0.  1.
</event>
<event>
 7    1  0.3528441E-013  0.5930194E+02  0.7816164E-02  0.1266605E+00
        -11   -1    0    0    0    0  0.00000000000E+00  0.00000000000E+00  0.45593999997E+02  0.45594000000E+02  0.51100000000E-03 0. -1.
         11   -1    0    0    0    0 -0.00000000000E+00 -0.00000000000E+00 -0.45593999997E+02  0.45594000000E+02  0.51100000000E-03 0.  1.
    9900012    2    1    2    0    0  0.18750144371E+02  0.26255743474E+01  0.25656563965E+02  0.59301939894E+02  0.49999992461E+02 0.  0.
        -12    1    1    2    0    0 -0.18750144371E+02 -0.26255743474E+01 -0.25656563965E+02  0.31886060106E+02  0.00000000000E+00 0.  1.
         11    1    3    3    0    0  0.50237701796E+01  0.66664828353E+00  0.10869482005E+02  0.11992844786E+02  0.51100000000E-03 0. -1.
        -11    1    3    3    0    0  0.18312548027E+02 -0.10573973457E+02  0.23311307899E+02  0.31473407920E+02  0.51100000000E-03 0.  1.
         12    1    3    3    0    0 -0.45861738352E+01  0.12532899521E+02 -0.85242259385E+01  0.15835687187E+02  0.00000000000E+00 0. -1.
</event>
<event>
 7    1  0.3528441E-013  0.5930192E+02  0.7816164E-02  0.1266605E+00
        -11   -1    0    0    0    0  0.00000000000E+00  0.00000000000E+00  0.45593999997E+02  0.45594000000E+02  0.51100000000E-03 0.  1.
         11   -1    0    0    0    0 -0.00000000000E+00 -0.00000000000E+00 -0.45593999997E+02  0.45594000000E+02  0.51100000000E-03 0. -1.
    9900012    2    1    2    0    0 -0.65749994778E+00 -0.16823535481E+00 -0.31878854316E+02  0.59301922131E+02  0.49999960066E+02 0.  0.
        -12    1    1    2    0    0  0.65749994778E+00  0.16823535481E+00  0.31878854316E+02  0.31886077869E+02  0.00000000000E+00 0.  1.
         11    1    3    3    0    0  0.33032680294E+01 -0.25958131645E+01  0.11534109639E+01  0.43566251585E+01  0.51100000000E-03 0. -1.
        -11    1    3    3    0    0  0.10201885795E+02  0.87480870613E+01  0.46304300018E+01  0.14214372419E+02  0.51100000000E-03 0.  1.
         12    1    3    3    0    0 -0.14162653772E+02 -0.63205092516E+01 -0.37662695282E+02  0.40730924554E+02  0.00000000000E+00 0. -1.
</event>
<event>
 7    1  0.3528441E-013  0.5930196E+02  0.7816164E-02  0.1266605E+00
        -11   -1    0    0    0    0  0.00000000000E+00  0.00000000000E+00  0.45593999997E+02  0.45594000000E+02  0.51100000000E-03 0. -1.
         11   -1    0    0    0    0 -0.00000000000E+00 -0.00000000000E+00 -0.45593999997E+02  0.45594000000E+02  0.51100000000E-03 0.  1.
    9900012    2    1    2    0    0 -0.18479684178E+02 -0.25510525542E+02  0.49430914450E+01  0.59301956128E+02  0.50000022068E+02 0.  0.
        -12    1    1    2    0    0  0.18479684178E+02  0.25510525542E+02 -0.49430914450E+01  0.31886043872E+02  0.00000000000E+00 0.  1.
         11    1    3    3    0    0 -0.30052699222E+02 -0.29662719904E+02  0.79437651616E-01  0.42226152953E+02  0.51100000000E-03 0. -1.
        -11    1    3    3    0    0  0.63090872458E+01 -0.25077322981E+01 -0.85122249768E+00  0.68423594728E+01  0.51100000000E-03 0.  1.
        -12    1    3    3    0    0  0.52639277981E+01  0.66599266599E+01  0.57148762910E+01  0.10233443702E+02  0.00000000000E+00 0.  1.
</event>
<event>
 7    1  0.3528441E-013  0.5930186E+02  0.7816164E-02  0.1266605E+00
        -11   -1    0    0    0    0  0.00000000000E+00  0.00000000000E+00  0.45593999997E+02  0.45594000000E+02  0.51100000000E-03 0.  1.
         11   -1    0    0    0    0 -0.00000000000E+00 -0.00000000000E+00 -0.45593999997E+02  0.45594000000E+02  0.51100000000E-03 0. -1.
    9900012    2    1    2    0    0 -0.26445841333E+02 -0.94220135343E+01 -0.15118504088E+02  0.59301858359E+02  0.49999843761E+02 0.  0.
        -12    1    1    2    0    0  0.26445841333E+02  0.94220135343E+01  0.15118504088E+02  0.31886141641E+02  0.00000000000E+00 0.  1.
         11    1    3    3    0    0 -0.86316553123E+01  0.74650730591E+01 -0.10659496394E+02  0.15615942265E+02  0.51100000000E-03 0. -1.
        -11    1    3    3    0    0  0.18782789777E+01  0.82617228670E+01  0.56492117151E+01  0.10183201359E+02  0.51100000000E-03 0.  1.
         12    1    3    3    0    0 -0.19692464999E+02 -0.25148809460E+02 -0.10108219409E+02  0.33502714735E+02  0.00000000000E+00 0. -1.
</event>
<event>
 7    1  0.3528441E-013  0.5930195E+02  0.7816164E-02  0.1266605E+00
        -11   -1    0    0    0    0  0.00000000000E+00  0.00000000000E+00  0.45593999997E+02  0.45594000000E+02  0.51100000000E-03 0.  1.
         11   -1    0    0    0    0 -0.00000000000E+00 -0.00000000000E+00 -0.45593999997E+02  0.45594000000E+02  0.51100000000E-03 0. -1.
    9900012    2    1    2    0    0  0.25875341201E+02 -0.34665627538E+01 -0.18307639406E+02  0.59301952892E+02  0.50000016166E+02 0.  0.
        -12    1    1    2    0    0 -0.25875341201E+02  0.34665627538E+01  0.18307639406E+02  0.31886047108E+02  0.00000000000E+00 0.  1.
         11    1    3    3    0    0  0.20871691421E+02 -0.26419872178E+00 -0.79826898983E+01  0.22347721182E+02  0.51100000000E-03 0. -1.
        -11    1    3    3    0    0 -0.40058847089E+01  0.14219708693E+02  0.33451610334E-01  0.14773230753E+02  0.51100000000E-03 0.  1.
         12    1    3    3    0    0  0.90095344882E+01 -0.17422072725E+02 -0.10358401118E+02  0.22181000957E+02  0.00000000000E+00 0. -1.
</event>
<event>
 7    1  0.3528441E-013  0.5930194E+02  0.7816164E-02  0.1266605E+00
        -11   -1    0    0    0    0  0.00000000000E+00  0.00000000000E+00  0.45593999997E+02  0.45594000000E+02  0.51100000000E-03 0. -1.
         11   -1    0    0    0    0 -0.00000000000E+00 -0.00000000000E+00 -0.45593999997E+02  0.45594000000E+02  0.51100000000E-03 0.  1.
    9900012    2    1    2    0    0 -0.21759007498E+02 -0.73402769903E+01 -0.22122087768E+02  0.59301939710E+02  0.49999992126E+02 0.  0.
        -12    1    1    2    0    0  0.21759007498E+02  0.73402769903E+01  0.22122087768E+02  0.31886060290E+02  0.00000000000E+00 0.  1.
         11    1    3    3    0    0 -0.48764298814E+01 -0.14765228385E+02  0.26096843820E+01  0.15767117380E+02  0.51100000000E-03 0.  1.
        -11    1    3    3    0    0 -0.16240154757E+02 -0.35281825897E+01 -0.27579181505E+02  0.32199409182E+02  0.51100000000E-03 0. -1.
         12    1    3    3    0    0 -0.64242285887E+00  0.10953133984E+02  0.28474093550E+01  0.11335413148E+02  0.00000000000E+00 0. -1.
</event>
<event>
 7    1  0.3528441E-013  0.5930181E+02  0.7816164E-02  0.1266605E+00
        -11   -1    0    0    0    0  0.00000000000E+00  0.00000000000E+00  0.45593999997E+02  0.45594000000E+02  0.51100000000E-03 0.  1.
         11   -1    0    0    0    0 -0.00000000000E+00 -0.00000000000E+00 -0.45593999997E+02  0.45594000000E+02  0.51100000000E-03 0. -1.
    9900012    2    1    2    0    0 -0.10249787755E+02  0.85983699202E+01 -0.28943721141E+02  0.59301810078E+02  0.49999755706E+02 0.  0.
        -12    1    1    2    0    0  0.10249787755E+02 -0.85983699202E+01  0.28943721141E+02  0.31886189922E+02  0.00000000000E+00 0.  1.
         11    1    3    3    0    0 -0.18498270863E+02 -0.53287612969E+01 -0.20370626456E+02  0.28027560443E+02  0.51100000000E-03 0. -1.
        -11    1    3    3    0    0 -0.86538588616E+01  0.21595447500E+01 -0.54256702793E+01  0.10439866137E+02  0.51100000000E-03 0.  1.
         12    1    3    3    0    0  0.16902341970E+02  0.11767586467E+02 -0.31474244051E+01  0.20834383498E+02  0.00000000000E+00 0. -1.
</event>
<event>
 7    1  0.3528441E-013  0.5930193E+02  0.7816164E-02  0.1266605E+00
        -11   -1    0    0    0    0  0.00000000000E+00  0.00000000000E+00  0.45593999997E+02  0.45594000000E+02  0.51100000000E-03 0.  1.
         11   -1    0    0    0    0 -0.00000000000E+00 -0.00000000000E+00 -0.45593999997E+02  0.45594000000E+02  0.51100000000E-03 0. -1.
    9900012    2    1    2    0    0  0.74858499445E+01 -0.26775547747E+02 -0.15612606373E+02  0.59301931187E+02  0.49999976582E+02 0.  0.
        -12    1    1    2    0    0 -0.74858499445E+01  0.26775547747E+02  0.15612606373E+02  0.31886068813E+02  0.00000000000E+00 0.  1.
         11    1    3    3    0    0 -0.74450225116E+01  0.69848869616E+01 -0.26168695810E+01  0.10538738669E+02  0.51100000000E-03 0. -1.
        -11    1    3    3    0    0 -0.27473825538E+01  0.30298046694E+01 -0.61351500322E+01  0.73734587142E+01  0.51100000000E-03 0.  1.
        -12    1    3    3    0    0  0.17678255010E+02 -0.36790239378E+02 -0.68605867597E+01  0.41389733804E+02  0.00000000000E+00 0.  1.
</event>
<event>
 7    1  0.3528441E-013  0.5930197E+02  0.7816164E-02  0.1266605E+00
        -11   -1    0    0    0    0  0.00000000000E+00  0.00000000000E+00  0.45593999997E+02  0.45594000000E+02  0.51100000000E-03 0. -1.
         11   -1    0    0    0    0 -0.00000000000E+00 -0.00000000000E+00 -0.45593999997E+02  0.45594000000E+02  0.51100000000E-03 0.  1.
    9900012    2    1    2    0    0  0.68914205658E+01  0.17902804128E+02  0.25469917950E+02  0.59301971815E+02  0.50000050677E+02 0.  0.
        -12    1    1    2    0    0 -0.68914205658E+01 -0.17902804128E+02 -0.25469917950E+02  0.31886028185E+02  0.00000000000E+00 0.  1.
         11    1    3    3    0    0 -0.16920774317E+02  0.43652753163E+01  0.19267871777E+02  0.26011903335E+02  0.51100000000E-03 0. -1.
        -11    1    3    3    0    0  0.57981268077E+01  0.73580851888E+01  0.10180127945E+02  0.13834547241E+02  0.51100000000E-03 0.  1.
        -12    1    3    3    0    0  0.18014068075E+02  0.61794436228E+01 -0.39780817719E+01  0.19455521239E+02  0.00000000000E+00 0.  1.
</event>
<event>
 7    1  0.3528441E-013  0.5930196E+02  0.7816164E-02  0.1266605E+00
        -11   -1    0    0    0    0  0.00000000000E+00  0.00000000000E+00  0.45593999997E+02  0.45594000000E+02  0.51100000000E-03 0.  1.
         11   -1    0    0    0    0 -0.00000000000E+00 -0.00000000000E+00 -0.45593999997E+02  0.45594000000E+02  0.51100000000E-03 0. -1.
    9900012    2    1    2    0    0 -0.78624241109E+01 -0.16878580496E+02 -0.25884653878E+02  0.59301960753E+02  0.50000030503E+02 0.  0.
        -12    1    1    2    0    0  0.78624241109E+01  0.16878580496E+02  0.25884653878E+02  0.31886039247E+02  0.00000000000E+00 0.  1.
         11    1    3    3    0    0 -0.98677041685E+01 -0.67421891135E+01 -0.21319610691E+01  0.12139767620E+02  0.51100000000E-03 0. -1.
        -11    1    3    3    0    0 -0.13921275903E+02  0.50614834178E+01 -0.19908586326E+02  0.24814760667E+02  0.51100000000E-03 0.  1.
         12    1    3    3    0    0  0.15926555961E+02 -0.15197874800E+02 -0.38441064824E+01  0.22347432467E+02  0.00000000000E+00 0. -1.
</event>
<event>
 7    1  0.3528441E-013  0.5930195E+02  0.7816164E-02  0.1266605E+00
        -11   -1    0    0    0    0  0.00000000000E+00  0.00000000000E+00  0.45593999997E+02  0.45594000000E+02  0.51100000000E-03 0.  1.
         11   -1    0    0    0    0 -0.00000000000E+00 -0.00000000000E+00 -0.45593999997E+02  0.45594000000E+02  0.51100000000E-03 0. -1.
    9900012    2    1    2    0    0  0.27780395561E+02  0.56202288081E+01 -0.14607633677E+02  0.59301948018E+02  0.50000007277E+02 0.  0.
        -12    1    1    2    0    0 -0.27780395561E+02 -0.56202288081E+01  0.14607633677E+02  0.31886051982E+02  0.00000000000E+00 0.  1.
         11    1    3    3    0    0  0.19607776716E+02  0.82780784719E+01  0.97968011482E+01  0.23430083310E+02  0.51100000000E-03 0. -1.
        -11    1    3    3    0    0  0.31543448770E+00 -0.12464229385E+02 -0.66797404590E+01  0.14144802789E+02  0.51100000000E-03 0.  1.
         12    1    3    3    0    0  0.78571843577E+01  0.98063797212E+01 -0.17724694366E+02  0.21727061919E+02  0.00000000000E+00 0. -1.
</event>
<event>
 7    1  0.3528441E-013  0.5930193E+02  0.7816164E-02  0.1266605E+00
        -11   -1    0    0    0    0  0.00000000000E+00  0.00000000000E+00  0.45593999997E+02  0.45594000000E+02  0.51100000000E-03 0. -1.
         11   -1    0    0    0    0 -0.00000000000E+00 -0.00000000000E+00 -0.45593999997E+02  0.45594000000E+02  0.51100000000E-03 0.  1.
    9900012    2    1    2    0    0  0.27696993327E+02 -0.11498882977E+02  0.10833904520E+02  0.59301933510E+02  0.49999980819E+02 0.  0.
        -12    1    1    2    0    0 -0.27696993327E+02  0.11498882977E+02 -0.10833904520E+02  0.31886066490E+02  0.00000000000E+00 0.  1.
         11    1    3    3    0    0  0.31930250260E+02 -0.18607734310E+02  0.13007897964E+02  0.39179000338E+02  0.51100000000E-03 0. -1.
        -11    1    3    3    0    0  0.24908092140E+01 -0.52967369882E+01 -0.50719205681E-01  0.58533858545E+01  0.51100000000E-03 0.  1.
        -12    1    3    3    0    0 -0.67240661469E+01  0.12405588322E+02 -0.21232742385E+01  0.14269547318E+02  0.00000000000E+00 0.  1.
</event>
<event>
 7    1  0.3528441E-013  0.5930195E+02  0.7816164E-02  0.1266605E+00
        -11   -1    0    0    0    0  0.00000000000E+00  0.00000000000E+00  0.45593999997E+02  0.45594000000E+02  0.51100000000E-03 0.  1.
         11   -1    0    0    0    0 -0.00000000000E+00 -0.00000000000E+00 -0.45593999997E+02  0.45594000000E+02  0.51100000000E-03 0. -1.
    9900012    2    1    2    0    0 -0.14152736269E+02 -0.20027349199E+02 -0.20379531918E+02  0.59301953192E+02  0.50000016713E+02 0.  0.
        -12    1    1    2    0    0  0.14152736269E+02  0.20027349199E+02  0.20379531918E+02  0.31886046808E+02  0.00000000000E+00 0.  1.
         11    1    3    3    0    0 -0.67881894085E+01  0.10633794897E+02  0.18266011350E+00  0.12617070751E+02  0.51100000000E-03 0. -1.
        -11    1    3    3    0    0  0.15808874032E+00  0.51849457018E+01 -0.36443477478E+01  0.63395524091E+01  0.51100000000E-03 0.  1.
         12    1    3    3    0    0 -0.75226356012E+01 -0.35846089798E+02 -0.16917844283E+02  0.40345330032E+02  0.00000000000E+00 0. -1.
</event>
<event>
 7    1  0.3528441E-013  0.5930196E+02  0.7816164E-02  0.1266605E+00
        -11   -1    0    0    0    0  0.00000000000E+00  0.00000000000E+00  0.45593999997E+02  0.45594000000E+02  0.51100000000E-03 0.  1.
         11   -1    0    0    0    0 -0.00000000000E+00 -0.00000000000E+00 -0.45593999997E+02  0.45594000000E+02  0.51100000000E-03 0. -1.
    9900012    2    1    2    0    0 -0.61791310453E+01  0.26588365179E+02 -0.16480197954E+02  0.59301956846E+02  0.50000023378E+02 0.  0.
        -12    1    1    2    0    0  0.61791310453E+01 -0.26588365179E+02  0.16480197954E+02  0.31886043154E+02  0.00000000000E+00 0.  1.
         11    1    3    3    0    0  0.12103463233E+02 -0.16818072335E+00 -0.19101274300E+02  0.22613730058E+02  0.51100000000E-03 0. -1.
        -11    1    3    3    0    0 -0.79531122253E+00  0.23415321949E+00 -0.41281915526E+01  0.42106191263E+01  0.51100000000E-03 0.  1.
        -12    1    3    3    0    0 -0.17487283055E+02  0.26522392683E+02  0.67492678984E+01  0.32477607662E+02  0.00000000000E+00 0.  1.
</event>
<event>
 7    1  0.3528441E-013  0.5930194E+02  0.7816164E-02  0.1266605E+00
        -11   -1    0    0    0    0  0.00000000000E+00  0.00000000000E+00  0.45593999997E+02  0.45594000000E+02  0.51100000000E-03 0. -1.
         11   -1    0    0    0    0 -0.00000000000E+00 -0.00000000000E+00 -0.45593999997E+02  0.45594000000E+02  0.51100000000E-03 0.  1.
    9900012    2    1    2    0    0  0.12617338980E+02  0.28546066175E+02  0.65303509447E+01  0.59301943165E+02  0.49999998426E+02 0.  0.
        -12    1    1    2    0    0 -0.12617338980E+02 -0.28546066175E+02 -0.65303509447E+01  0.31886056835E+02  0.00000000000E+00 0.  1.
         11    1    3    3    0    0  0.91688811441E+01  0.18310158791E+02  0.50218389353E+00  0.20483712683E+02  0.51100000000E-03 0. -1.
        -11    1    3    3    0    0  0.10003627130E+02  0.72511196987E+01 -0.13322959234E+02  0.18170100045E+02  0.51100000000E-03 0.  1.
        -12    1    3    3    0    0 -0.65551692938E+01  0.29847876859E+01  0.19351126285E+02  0.20648130436E+02  0.00000000000E+00 0.  1.
</event>
<event>
 7    1  0.3528441E-013  0.5930193E+02  0.7816164E-02  0.1266605E+00
        -11   -1    0    0    0    0  0.00000000000E+00  0.00000000000E+00  0.45593999997E+02  0.45594000000E+02  0.51100000000E-03 0. -1.
         11   -1    0    0    0    0 -0.00000000000E+00 -0.00000000000E+00 -0.45593999997E+02  0.45594000000E+02  0.51100000000E-03 0.  1.
    9900012    2    1    2    0    0 -0.18252080658E+02 -0.25849219506E+02  0.39243586409E+01  0.59301934263E+02  0.49999982192E+02 0.  0.
        -12    1    1    2    0    0  0.18252080658E+02  0.25849219506E+02 -0.39243586409E+01  0.31886065737E+02  0.00000000000E+00 0.  1.
         11    1    3    3    0    0 -0.36646018640E+01 -0.27510607688E+02  0.43665425190E+01  0.28095009094E+02  0.51100000000E-03 0. -1.
        -11    1    3    3    0    0 -0.14822132015E+02 -0.63878223936E+01  0.92525658112E+01  0.18604027702E+02  0.51100000000E-03 0.  1.
        -12    1    3    3    0    0  0.23465322050E+00  0.80492105755E+01 -0.96947496892E+01  0.12602897467E+02  0.00000000000E+00 0.  1.
</event>
<event>
 7    1  0.3528441E-013  0.5930194E+02  0.7816164E-02  0.1266605E+00
        -11   -1    0    0    0    0  0.00000000000E+00  0.00000000000E+00  0.45593999997E+02  0.45594000000E+02  0.51100000000E-03 0. -1.
         11   -1    0    0    0    0 -0.00000000000E+00 -0.00000000000E+00 -0.45593999997E+02  0.45594000000E+02  0.51100000000E-03 0.  1.
    9900012    2    1    2    0    0  0.20658635413E+02  0.15583930380E+02  0.18630155979E+02  0.59301940114E+02  0.49999992863E+02 0.  0.
        -12    1    1    2    0    0 -0.20658635413E+02 -0.15583930380E+02 -0.18630155979E+02  0.31886059886E+02  0.00000000000E+00 0.  1.
         11    1    3    3    0    0 -0.11131679352E+02  0.12599734969E+02  0.66915641385E+01  0.18095431395E+02  0.51100000000E-03 0. -1.
        -11    1    3    3    0    0  0.16914294718E+02  0.95303570704E+01  0.15166744395E+02  0.24636379757E+02  0.51100000000E-03 0.  1.
        -12    1    3    3    0    0  0.14876020047E+02 -0.65461616598E+01 -0.32281525542E+01  0.16570128962E+02  0.00000000000E+00 0.  1.
</event>
<event>
 7    1  0.3528441E-013  0.5930187E+02  0.7816164E-02  0.1266605E+00
        -11   -1    0    0    0    0  0.00000000000E+00  0.00000000000E+00  0.45593999997E+02  0.45594000000E+02  0.51100000000E-03 0.  1.
         11   -1    0    0    0    0 -0.00000000000E+00 -0.00000000000E+00 -0.45593999997E+02  0.45594000000E+02  0.51100000000E-03 0. -1.
    9900012    2    1    2    0    0  0.13046288329E+02  0.14617839621E+02 -0.25156283113E+02  0.59301867365E+02  0.49999860186E+02 0.  0.
        -12    1    1    2    0    0 -0.13046288329E+02 -0.14617839621E+02  0.25156283113E+02  0.31886132635E+02  0.00000000000E+00 0.  1.
         11    1    3    3    0    0  0.12643619286E+02  0.12473035764E+02 -0.19224626657E+02  0.26172963153E+02  0.51100000000E-03 0. -1.
        -11    1    3    3    0    0  0.93282700232E+01  0.14488392005E+02 -0.46184845972E+01  0.17839857756E+02  0.51100000000E-03 0.  1.
         12    1    3    3    0    0 -0.89256009802E+01 -0.12343588148E+02 -0.13131718582E+01  0.15289046456E+02  0.00000000000E+00 0. -1.
</event>
<event>
 7    1  0.3528441E-013  0.5930196E+02  0.7816164E-02  0.1266605E+00
        -11   -1    0    0    0    0  0.00000000000E+00  0.00000000000E+00  0.45593999997E+02  0.45594000000E+02  0.51100000000E-03 0.  1.
         11   -1    0    0    0    0 -0.00000000000E+00 -0.00000000000E+00 -0.45593999997E+02  0.45594000000E+02  0.51100000000E-03 0. -1.
    9900012    2    1    2    0    0 -0.14319283399E+02  0.42288349175E+01 -0.28174355902E+02  0.59301964619E+02  0.50000037554E+02 0.  0.
        -12    1    1    2    0    0  0.14319283399E+02 -0.42288349175E+01  0.28174355902E+02  0.31886035381E+02  0.00000000000E+00 0.  1.
         11    1    3    3    0    0  0.20665117403E+01  0.11982068328E+02 -0.38635067328E+01  0.12758021662E+02  0.51100000000E-03 0. -1.
        -11    1    3    3    0    0  0.63634693493E+00  0.10404177805E+02  0.16801434348E+01  0.10558159662E+02  0.51100000000E-03 0.  1.
         12    1    3    3    0    0 -0.17022142074E+02 -0.18157411215E+02 -0.25990992604E+02  0.35985783295E+02  0.00000000000E+00 0. -1.
</event>
<event>
 7    1  0.3528441E-013  0.5930194E+02  0.7816164E-02  0.1266605E+00
        -11   -1    0    0    0    0  0.00000000000E+00  0.00000000000E+00  0.45593999997E+02  0.45594000000E+02  0.51100000000E-03 0. -1.
         11   -1    0    0    0    0 -0.00000000000E+00 -0.00000000000E+00 -0.45593999997E+02  0.45594000000E+02  0.51100000000E-03 0.  1.
    9900012    2    1    2    0    0  0.25552576747E+02  0.16822676552E+02  0.89879961963E+01  0.59301941912E+02  0.49999996141E+02 0.  0.
        -12    1    1    2    0    0 -0.25552576747E+02 -0.16822676552E+02 -0.89879961963E+01  0.31886058088E+02  0.00000000000E+00 0.  1.
         11    1    3    3    0    0  0.88244705347E+01  0.38120589309E+01 -0.35100828821E+01  0.10233462543E+02  0.51100000000E-03 0. -1.
        -11    1    3    3    0    0 -0.73992829946E+01  0.15381650571E+02 -0.65033546156E+01  0.18265765372E+02  0.51100000000E-03 0.  1.
         12    1    3    3    0    0  0.24127389207E+02 -0.23710329495E+01  0.19001433694E+02  0.30802713997E+02  0.00000000000E+00 0. -1.
</event>
<event>
 7    1  0.3528441E-013  0.5930195E+02  0.7816164E-02  0.1266605E+00
        -11   -1    0    0    0    0  0.00000000000E+00  0.00000000000E+00  0.45593999997E+02  0.45594000000E+02  0.51100000000E-03 0. -1.
         11   -1    0    0    0    0 -0.00000000000E+00 -0.00000000000E+00 -0.45593999997E+02  0.45594000000E+02  0.51100000000E-03 0.  1.
    9900012    2    1    2    0    0 -0.25258154114E+02 -0.19262127780E+02  0.27777936585E+01  0.59301952056E+02  0.50000014642E+02 0.  0.
        -12    1    1    2    0    0  0.25258154114E+02  0.19262127780E+02 -0.27777936585E+01  0.31886047944E+02  0.00000000000E+00 0.  1.
         11    1    3    3    0    0 -0.83574620414E+01  0.18755579419E+00  0.10204721515E+02  0.13191614397E+02  0.51100000000E-03 0. -1.
        -11    1    3    3    0    0 -0.11000190107E+02  0.93545873476E+01 -0.83745064314E+01  0.16692658418E+02  0.51100000000E-03 0.  1.
         12    1    3    3    0    0 -0.59005019662E+01 -0.28804270922E+02  0.94757857537E+00  0.29417679241E+02  0.00000000000E+00 0. -1.
</event>
<event>
 7    1  0.3528441E-013  0.5930195E+02  0.7816164E-02  0.1266605E+00
        -11   -1    0    0    0    0  0.00000000000E+00  0.00000000000E+00  0.45593999997E+02  0.45594000000E+02  0.51100000000E-03 0.  1.
         11   -1    0    0    0    0 -0.00000000000E+00 -0.00000000000E+00 -0.45593999997E+02  0.45594000000E+02  0.51100000000E-03 0. -1.
    9900012    2    1    2    0    0  0.24073318013E+02  0.12968502969E+02 -0.16401628893E+02  0.59301950703E+02  0.50000012175E+02 0.  0.
        -12    1    1    2    0    0 -0.24073318013E+02 -0.12968502969E+02  0.16401628893E+02  0.31886049297E+02  0.00000000000E+00 0.  1.
         11    1    3    3    0    0 -0.81886475447E+00  0.12915380974E+02 -0.28974484489E+01  0.13261704754E+02  0.51100000000E-03 0. -1.
        -11    1    3    3    0    0 -0.19824520929E+01  0.13645559487E+02 -0.57639107755E+01  0.14945035219E+02  0.51100000000E-03 0.  1.
        -12    1    3    3    0    0  0.26874634860E+02 -0.13592437492E+02 -0.77402696688E+01  0.31095210731E+02  0.00000000000E+00 0.  1.
</event>
<event>
 7    1  0.3528441E-013  0.5930194E+02  0.7816164E-02  0.1266605E+00
        -11   -1    0    0    0    0  0.00000000000E+00  0.00000000000E+00  0.45593999997E+02  0.45594000000E+02  0.51100000000E-03 0.  1.
         11   -1    0    0    0    0 -0.00000000000E+00 -0.00000000000E+00 -0.45593999997E+02  0.45594000000E+02  0.51100000000E-03 0. -1.
    9900012    2    1    2    0    0 -0.52377636809E+01 -0.26377692144E+02 -0.17131952915E+02  0.59301943143E+02  0.49999998386E+02 0.  0.
        -12    1    1    2    0    0  0.52377636809E+01  0.26377692144E+02  0.17131952915E+02  0.31886056857E+02  0.00000000000E+00 0.  1.
         11    1    3    3    0    0  0.13237230209E+02 -0.94021330757E+01 -0.14958796967E+01  0.16305276027E+02  0.51100000000E-03 0.  1.
        -11    1    3    3    0    0 -0.89692553936E+00  0.70478093383E+01 -0.10668093391E+02  0.12817344060E+02  0.51100000000E-03 0. -1.
         12    1    3    3    0    0 -0.17578068351E+02 -0.24023368406E+02 -0.49679798273E+01  0.30179323056E+02  0.00000000000E+00 0. -1.
</event>
<event>
 7    1  0.3528441E-013  0.5930193E+02  0.7816164E-02  0.1266605E+00
        -11   -1    0    0    0    0  0.00000000000E+00  0.00000000000E+00  0.45593999997E+02  0.45594000000E+02  0.51100000000E-03 0. -1.
         11   -1    0    0    0    0 -0.00000000000E+00 -0.00000000000E+00 -0.45593999997E+02  0.45594000000E+02  0.51100000000E-03 0.  1.
    9900012    2    1    2    0    0  0.18027350324E+02  0.89877884635E+01  0.24717524042E+02  0.59301926301E+02  0.49999967672E+02 0.  0.
        -12    1    1    2    0    0 -0.18027350324E+02 -0.89877884635E+01 -0.24717524042E+02  0.31886073699E+02  0.00000000000E+00 0.  1.
         11    1    3    3    0    0  0.76367058911E+01  0.58847308067E+01  0.26086570929E+02  0.27811122175E+02  0.51100000000E-03 0. -1.
        -11    1    3    3    0    0  0.16168047130E+01  0.15421694311E+02 -0.42873845075E+01  0.16088019738E+02  0.51100000000E-03 0.  1.
        -12    1    3    3    0    0  0.87738397194E+01 -0.12318636655E+02  0.29183376203E+01  0.15402784388E+02  0.00000000000E+00 0.  1.
</event>
<event>
 7    1  0.3528441E-013  0.5930192E+02  0.7816164E-02  0.1266605E+00
        -11   -1    0    0    0    0  0.00000000000E+00  0.00000000000E+00  0.45593999997E+02  0.45594000000E+02  0.51100000000E-03 0.  1.
         11   -1    0    0    0    0 -0.00000000000E+00 -0.00000000000E+00 -0.45593999997E+02  0.45594000000E+02  0.51100000000E-03 0. -1.
    9900012    2    1    2    0    0  0.45764902737E+01  0.52793944420E+01 -0.31111180641E+02  0.59301924202E+02  0.49999963843E+02 0.  0.
        -12    1    1    2    0    0 -0.45764902737E+01 -0.52793944420E+01  0.31111180641E+02  0.31886075798E+02  0.00000000000E+00 0.  1.
         11    1    3    3    0    0  0.14907669391E+01  0.83504044684E+00 -0.26748018167E+02  0.26802540080E+02  0.51100000000E-03 0. -1.
        -11    1    3    3    0    0 -0.10342134062E+02 -0.66360757318E+01 -0.80683392980E+01  0.14700181542E+02  0.51100000000E-03 0.  1.
        -12    1    3    3    0    0  0.13427857397E+02  0.11080429727E+02  0.37051768237E+01  0.17799202580E+02  0.00000000000E+00 0.  1.
</event>
<event>
 7    1  0.3528441E-013  0.5930196E+02  0.7816164E-02  0.1266605E+00
        -11   -1    0    0    0    0  0.00000000000E+00  0.00000000000E+00  0.45593999997E+02  0.45594000000E+02  0.51100000000E-03 0.  1.
         11   -1    0    0    0    0 -0.00000000000E+00 -0.00000000000E+00 -0.45593999997E+02  0.45594000000E+02  0.51100000000E-03 0. -1.
    9900012    2    1    2    0    0  0.12756215426E+02  0.28035035818E+02  0.82483684761E+01  0.59301955281E+02  0.50000020523E+02 0.  0.
        -12    1    1    2    0    0 -0.12756215426E+02 -0.28035035818E+02 -0.82483684761E+01  0.31886044719E+02  0.00000000000E+00 0.  1.
         11    1    3    3    0    0  0.25727646739E+01  0.19321923602E+01 -0.44968794668E+01  0.55294132224E+01  0.51100000000E-03 0.  1.
        -11    1    3    3    0    0  0.15259693431E+02  0.93624650701E+01 -0.13366830681E+02  0.22342474315E+02  0.51100000000E-03 0. -1.
        -12    1    3    3    0    0 -0.50762426791E+01  0.16740378388E+02  0.26112078624E+02  0.31430067743E+02  0.00000000000E+00 0.  1.
</event>
<event>
 7    1  0.3528441E-013  0.5930194E+02  0.7816164E-02  0.1266605E+00
        -11   -1    0    0    0    0  0.00000000000E+00  0.00000000000E+00  0.45593999997E+02  0.45594000000E+02  0.51100000000E-03 0. -1.
         11   -1    0    0    0    0 -0.00000000000E+00 -0.00000000000E+00 -0.45593999997E+02  0.45594000000E+02  0.51100000000E-03 0.  1.
    9900012    2    1    2    0    0  0.66284638046E+01 -0.15572937075E+02  0.27023472555E+02  0.59301937677E+02  0.49999988417E+02 0.  0.
        -12    1    1    2    0    0 -0.66284638046E+01  0.15572937075E+02 -0.27023472555E+02  0.31886062323E+02  0.00000000000E+00 0.  1.
         11    1    3    3    0    0  0.29063841155E+01 -0.80840011774E+01  0.17791310726E+02  0.19756742679E+02  0.51100000000E-03 0. -1.
        -11    1    3    3    0    0  0.39583104255E+01 -0.21662434919E+02 -0.10297510696E+01  0.22045173974E+02  0.51100000000E-03 0.  1.
        -12    1    3    3    0    0 -0.23623073641E+00  0.14173499022E+02  0.10261912899E+02  0.17500021024E+02  0.00000000000E+00 0.  1.
</event>
<event>
 7    1  0.3528441E-013  0.5930217E+02  0.7816164E-02  0.1266604E+00
        -11   -1    0    0    0    0  0.00000000000E+00  0.00000000000E+00  0.45593999997E+02  0.45594000000E+02  0.51100000000E-03 0. -1.
         11   -1    0    0    0    0 -0.00000000000E+00 -0.00000000000E+00 -0.45593999997E+02  0.45594000000E+02  0.51100000000E-03 0.  1.
    9900012    2    1    2    0    0 -0.18689529879E+01 -0.18955870904E+02  0.25571239782E+02  0.59302167237E+02  0.50000407078E+02 0.  0.
        -12    1    1    2    0    0  0.18689529879E+01  0.18955870904E+02 -0.25571239782E+02  0.31885832763E+02  0.00000000000E+00 0.  1.
         11    1    3    3    0    0 -0.72694647038E+01 -0.15471671321E+02  0.43959750515E+01  0.17650561676E+02  0.51100000000E-03 0. -1.
        -11    1    3    3    0    0  0.29036809881E+01 -0.14538048446E+02  0.25521046405E+02  0.29514573109E+02  0.51100000000E-03 0.  1.
        -12    1    3    3    0    0  0.24968307279E+01  0.11053848864E+02 -0.43457816742E+01  0.12137032452E+02  0.00000000000E+00 0.  1.
</event>
<event>
 7    1  0.3528441E-013  0.5930196E+02  0.7816164E-02  0.1266605E+00
        -11   -1    0    0    0    0  0.00000000000E+00  0.00000000000E+00  0.45593999997E+02  0.45594000000E+02  0.51100000000E-03 0. -1.
         11   -1    0    0    0    0 -0.00000000000E+00 -0.00000000000E+00 -0.45593999997E+02  0.45594000000E+02  0.51100000000E-03 0.  1.
    9900012    2    1    2    0    0  0.14591456849E+02  0.12626889373E+02  0.25384460226E+02  0.59301956514E+02  0.50000022772E+02 0.  0.
        -12    1    1    2    0    0 -0.14591456849E+02 -0.12626889373E+02 -0.25384460226E+02  0.31886043486E+02  0.00000000000E+00 0.  1.
         11    1    3    3    0    0  0.36861003996E+01  0.58848438153E+00  0.13238598768E+01  0.39605877414E+01  0.51100000000E-03 0. -1.
        -11    1    3    3    0    0  0.26377909638E+02 -0.19629947836E+01  0.21941627936E+02  0.34366880890E+02  0.51100000000E-03 0.  1.
         12    1    3    3    0    0 -0.15472553189E+02  0.14001399775E+02  0.21189724130E+01  0.20974487882E+02  0.00000000000E+00 0. -1.
</event>
<event>
 7    1  0.3528441E-013  0.5930195E+02  0.7816164E-02  0.1266605E+00
        -11   -1    0    0    0    0  0.00000000000E+00  0.00000000000E+00  0.45593999997E+02  0.45594000000E+02  0.51100000000E-03 0.  1.
         11   -1    0    0    0    0 -0.00000000000E+00 -0.00000000000E+00 -0.45593999997E+02  0.45594000000E+02  0.51100000000E-03 0. -1.
    9900012    2    1    2    0    0 -0.14822212583E+02 -0.27313407749E+02  0.71414197397E+01  0.59301951254E+02  0.50000013180E+02 0.  0.
        -12    1    1    2    0    0  0.14822212583E+02  0.27313407749E+02 -0.71414197397E+01  0.31886048746E+02  0.00000000000E+00 0.  1.
         11    1    3    3    0    0  0.62698006767E+01 -0.20277528863E+02 -0.54434728437E+01  0.21911640153E+02  0.51100000000E-03 0. -1.
        -11    1    3    3    0    0  0.37940518489E+01 -0.87586867205E+01  0.21836629208E+00  0.95476230863E+01  0.51100000000E-03 0.  1.
         12    1    3    3    0    0 -0.24886065108E+02  0.17228078344E+01  0.12366526291E+02  0.27842688015E+02  0.00000000000E+00 0. -1.
</event>
<event>
 7    1  0.3528441E-013  0.5930195E+02  0.7816164E-02  0.1266605E+00
        -11   -1    0    0    0    0  0.00000000000E+00  0.00000000000E+00  0.45593999997E+02  0.45594000000E+02  0.51100000000E-03 0.  1.
         11   -1    0    0    0    0 -0.00000000000E+00 -0.00000000000E+00 -0.45593999997E+02  0.45594000000E+02  0.51100000000E-03 0. -1.
    9900012    2    1    2    0    0  0.18245534991E+02 -0.79990022462E-02 -0.26149968323E+02  0.59301945769E+02  0.50000003176E+02 0.  0.
        -12    1    1    2    0    0 -0.18245534991E+02  0.79990022462E-02  0.26149968323E+02  0.31886054231E+02  0.00000000000E+00 0.  1.
         11    1    3    3    0    0  0.27482606059E+01  0.24472517040E+01 -0.72522934132E+01  0.81325111296E+01  0.51100000000E-03 0. -1.
        -11    1    3    3    0    0  0.82161662884E+01  0.19221677142E+02 -0.19078886109E+02  0.28301628152E+02  0.51100000000E-03 0.  1.
        -12    1    3    3    0    0  0.72811080966E+01 -0.21676927848E+02  0.18121119881E+00  0.22867806488E+02  0.00000000000E+00 0.  1.
</event>
<event>
 7    1  0.3528441E-013  0.5930194E+02  0.7816164E-02  0.1266605E+00
        -11   -1    0    0    0    0  0.00000000000E+00  0.00000000000E+00  0.45593999997E+02  0.45594000000E+02  0.51100000000E-03 0.  1.
         11   -1    0    0    0    0 -0.00000000000E+00 -0.00000000000E+00 -0.45593999997E+02  0.45594000000E+02  0.51100000000E-03 0. -1.
    9900012    2    1    2    0    0 -0.12576260991E+02 -0.21222254511E+02 -0.20203321905E+02  0.59301942812E+02  0.49999997782E+02 0.  0.
        -12    1    1    2    0    0  0.12576260991E+02  0.21222254511E+02  0.20203321905E+02  0.31886057188E+02  0.00000000000E+00 0.  1.
         11    1    3    3    0    0 -0.10029406531E+02 -0.12361089758E+02 -0.22245016397E+02  0.27353725343E+02  0.51100000000E-03 0. -1.
        -11    1    3    3    0    0  0.57345286620E+01 -0.16508434666E+02 -0.55752102249E+01  0.18343832844E+02  0.51100000000E-03 0.  1.
         12    1    3    3    0    0 -0.82813831220E+01  0.76472699133E+01  0.76169047174E+01  0.13604384625E+02  0.00000000000E+00 0. -1.
</event>
<event>
 7    1  0.3528441E-013  0.5930195E+02  0.7816164E-02  0.1266605E+00
        -11   -1    0    0    0    0  0.00000000000E+00  0.00000000000E+00  0.45593999997E+02  0.45594000000E+02  0.51100000000E-03 0.  1.
         11   -1    0    0    0    0 -0.00000000000E+00 -0.00000000000E+00 -0.45593999997E+02  0.45594000000E+02  0.51100000000E-03 0. -1.
    9900012    2    1    2    0    0 -0.20036226689E+01  0.23710225706E+02 -0.21225708718E+02  0.59301952621E+02  0.50000015672E+02 0.  0.
        -12    1    1    2    0    0  0.20036226689E+01 -0.23710225706E+02  0.21225708718E+02  0.31886047379E+02  0.00000000000E+00 0.  1.
         11    1    3    3    0    0  0.15270152723E+01 -0.11977524741E+02 -0.55451211591E+01  0.13286882385E+02  0.51100000000E-03 0. -1.
        -11    1    3    3    0    0 -0.71074997446E+01  0.93753489044E-01 -0.41329047496E+00  0.71201230056E+01  0.51100000000E-03 0.  1.
         12    1    3    3    0    0  0.35768618034E+01  0.35593996959E+02 -0.15267297084E+02  0.38894947231E+02  0.00000000000E+00 0. -1.
</event>
<event>
 7    1  0.3528441E-013  0.5930200E+02  0.7816164E-02  0.1266605E+00
        -11   -1    0    0    0    0  0.00000000000E+00  0.00000000000E+00  0.45593999997E+02  0.45594000000E+02  0.51100000000E-03 0.  1.
         11   -1    0    0    0    0 -0.00000000000E+00 -0.00000000000E+00 -0.45593999997E+02  0.45594000000E+02  0.51100000000E-03 0. -1.
    9900012    2    1    2    0    0 -0.17714278462E+02  0.83588112834E+01 -0.25160517117E+02  0.59301999795E+02  0.50000101706E+02 0.  0.
        -12    1    1    2    0    0  0.17714278462E+02 -0.83588112834E+01  0.25160517117E+02  0.31886000205E+02  0.00000000000E+00 0.  1.
         11    1    3    3    0    0 -0.69886465682E+01 -0.16682894947E+01 -0.26695369035E+02  0.27645381149E+02  0.51100000000E-03 0. -1.
        -11    1    3    3    0    0  0.51563927029E+01  0.12422076560E+02 -0.49549456960E+01  0.14333452441E+02  0.51100000000E-03 0.  1.
        -12    1    3    3    0    0 -0.15882024597E+02 -0.23949757817E+01  0.64897976142E+01  0.17323166205E+02  0.00000000000E+00 0.  1.
</event>
<event>
 7    1  0.3528441E-013  0.5930196E+02  0.7816164E-02  0.1266605E+00
        -11   -1    0    0    0    0  0.00000000000E+00  0.00000000000E+00  0.45593999997E+02  0.45594000000E+02  0.51100000000E-03 0.  1.
         11   -1    0    0    0    0 -0.00000000000E+00 -0.00000000000E+00 -0.45593999997E+02  0.45594000000E+02  0.51100000000E-03 0. -1.
    9900012    2    1    2    0    0  0.13045867781E+01 -0.23582074661E+02 -0.21422033160E+02  0.59301957651E+02  0.50000024845E+02 0.  0.
        -12    1    1    2    0    0 -0.13045867781E+01  0.23582074661E+02  0.21422033160E+02  0.31886042349E+02  0.00000000000E+00 0.  1.
         11    1    3    3    0    0 -0.14850764407E+02 -0.46288519300E+01 -0.13005634565E+01  0.15609706571E+02  0.51100000000E-03 0. -1.
        -11    1    3    3    0    0 -0.60436081374E+01 -0.48749130438E+01 -0.15029703985E+02  0.16916913981E+02  0.51100000000E-03 0.  1.
        -12    1    3    3    0    0  0.22198959322E+02 -0.14078309688E+02 -0.50917657187E+01  0.26775337099E+02  0.00000000000E+00 0.  1.
</event>
<event>
 7    1  0.3528441E-013  0.5930194E+02  0.7816164E-02  0.1266605E+00
        -11   -1    0    0    0    0  0.00000000000E+00  0.00000000000E+00  0.45593999997E+02  0.45594000000E+02  0.51100000000E-03 0. -1.
         11   -1    0    0    0    0 -0.00000000000E+00 -0.00000000000E+00 -0.45593999997E+02  0.45594000000E+02  0.51100000000E-03 0.  1.
    9900012    2    1    2    0    0  0.25718949566E+02  0.18824775736E+02 -0.94035809957E+00  0.59301940011E+02  0.49999992674E+02 0.  0.
        -12    1    1    2    0    0 -0.25718949566E+02 -0.18824775736E+02  0.94035809957E+00  0.31886059989E+02  0.00000000000E+00 0.  1.
         11    1    3    3    0    0  0.56238077857E+01 -0.52733877278E+01  0.14704072584E+02  0.16602577600E+02  0.51100000000E-03 0. -1.
        -11    1    3    3    0    0 -0.56499326507E+01  0.50428982041E+01 -0.16773648037E+01  0.77566819066E+01  0.51100000000E-03 0.  1.
        -12    1    3    3    0    0  0.25745074431E+02  0.19055265259E+02 -0.13967065880E+02  0.34942680505E+02  0.00000000000E+00 0.  1.
</event>
<event>
 7    1  0.3528441E-013  0.5930194E+02  0.7816164E-02  0.1266605E+00
        -11   -1    0    0    0    0  0.00000000000E+00  0.00000000000E+00  0.45593999997E+02  0.45594000000E+02  0.51100000000E-03 0.  1.
         11   -1    0    0    0    0 -0.00000000000E+00 -0.00000000000E+00 -0.45593999997E+02  0.45594000000E+02  0.51100000000E-03 0. -1.
    9900012    2    1    2    0    0 -0.26871529288E+02 -0.81401724714E+01 -0.15112229203E+02  0.59301937753E+02  0.49999988557E+02 0.  0.
        -12    1    1    2    0    0  0.26871529288E+02  0.81401724714E+01  0.15112229203E+02  0.31886062247E+02  0.00000000000E+00 0.  1.
         11    1    3    3    0    0 -0.20003523026E+02  0.12334669282E+02 -0.13834782698E+02  0.27270610780E+02  0.51100000000E-03 0. -1.
        -11    1    3    3    0    0 -0.99184281052E+01 -0.26369522671E+01  0.66977027171E+01  0.12255119554E+02  0.51100000000E-03 0.  1.
        -12    1    3    3    0    0  0.30504218435E+01 -0.17837889487E+02 -0.79751492225E+01  0.19776207419E+02  0.00000000000E+00 0.  1.
</event>
<event>
 7    1  0.3528441E-013  0.5930200E+02  0.7816164E-02  0.1266605E+00
        -11   -1    0    0    0    0  0.00000000000E+00  0.00000000000E+00  0.45593999997E+02  0.45594000000E+02  0.51100000000E-03 0. -1.
         11   -1    0    0    0    0 -0.00000000000E+00 -0.00000000000E+00 -0.45593999997E+02  0.45594000000E+02  0.51100000000E-03 0.  1.
    9900012    2    1    2    0    0  0.29733492041E+02  0.13438194412E+01 -0.11438124985E+02  0.59301998325E+02  0.50000099025E+02 0.  0.
        -12    1    1    2    0    0 -0.29733492041E+02 -0.13438194412E+01  0.11438124985E+02  0.31886001675E+02  0.00000000000E+00 0.  1.
         11    1    3    3    0    0  0.35517021008E+00 -0.52546578927E+01 -0.12955261095E+02  0.13984862021E+02  0.51100000000E-03 0.  1.
        -11    1    3    3    0    0  0.78946284262E+00 -0.38969480530E+01  0.12364806691E+02  0.12988375590E+02  0.51100000000E-03 0. -1.
        -12    1    3    3    0    0  0.28588858988E+02  0.10495425387E+02 -0.10847670581E+02  0.32328760714E+02  0.00000000000E+00 0.  1.
</event>
<event>
 7    1  0.3528441E-013  0.5930197E+02  0.7816164E-02  0.1266605E+00
        -11   -1    0    0    0    0  0.00000000000E+00  0.00000000000E+00  0.45593999997E+02  0.45594000000E+02  0.51100000000E-03 0. -1.
         11   -1    0    0    0    0 -0.00000000000E+00 -0.00000000000E+00 -0.45593999997E+02  0.45594000000E+02  0.51100000000E-03 0.  1.
    9900012    2    1    2    0    0  0.30637781171E+02  0.50695775410E+01  0.72349449603E+01  0.59301973592E+02  0.50000053918E+02 0.  0.
        -12    1    1    2    0    0 -0.30637781171E+02 -0.50695775410E+01 -0.72349449603E+01  0.31886026408E+02  0.00000000000E+00 0.  1.
         11    1    3    3    0    0  0.50904250116E+01 -0.17190396165E+02  0.62721563138E+01  0.18993738237E+02  0.51100000000E-03 0. -1.
        -11    1    3    3    0    0  0.15617741916E+02 -0.23348413382E+00  0.16839914918E+01  0.15710003342E+02  0.51100000000E-03 0.  1.
        -12    1    3    3    0    0  0.99296142432E+01  0.22493457840E+02 -0.72120284535E+00  0.24598232013E+02  0.00000000000E+00 0.  1.
</event>
<event>
 7    1  0.3528441E-013  0.5930197E+02  0.7816164E-02  0.1266605E+00
        -11   -1    0    0    0    0  0.00000000000E+00  0.00000000000E+00  0.45593999997E+02  0.45594000000E+02  0.51100000000E-03 0.  1.
         11   -1    0    0    0    0 -0.00000000000E+00 -0.00000000000E+00 -0.45593999997E+02  0.45594000000E+02  0.51100000000E-03 0. -1.
    9900012    2    1    2    0    0 -0.93376072412E+00 -0.21335473306E+02 -0.23677933319E+02  0.59301970826E+02  0.50000048873E+02 0.  0.
        -12    1    1    2    0    0  0.93376072412E+00  0.21335473306E+02  0.23677933319E+02  0.31886029174E+02  0.00000000000E+00 0.  1.
         11    1    3    3    0    0 -0.82862910827E+01  0.71583754695E+01 -0.99605286377E+01  0.14802604172E+02  0.51100000000E-03 0. -1.
        -11    1    3    3    0    0 -0.71342376401E-01 -0.68945206404E+01 -0.19714644647E+02  0.20885562440E+02  0.51100000000E-03 0.  1.
        -12    1    3    3    0    0  0.74238727349E+01 -0.21599328135E+02  0.59972399660E+01  0.23613804214E+02  0.00000000000E+00 0.  1.
</event>
<event>
 7    1  0.3528441E-013  0.5930192E+02  0.7816164E-02  0.1266605E+00
        -11   -1    0    0    0    0  0.00000000000E+00  0.00000000000E+00  0.45593999997E+02  0.45594000000E+02  0.51100000000E-03 0. -1.
         11   -1    0    0    0    0 -0.00000000000E+00 -0.00000000000E+00 -0.45593999997E+02  0.45594000000E+02  0.51100000000E-03 0.  1.
    9900012    2    1    2    0    0 -0.24189126269E+02 -0.20761685077E+02 -0.74883546871E+00  0.59301919158E+02  0.49999954643E+02 0.  0.
        -12    1    1    2    0    0  0.24189126269E+02  0.20761685077E+02  0.74883546871E+00  0.31886080842E+02  0.00000000000E+00 0.  1.
         11    1    3    3    0    0 -0.52052776709E+00 -0.24596235599E+02  0.23827540264E+01  0.24716862095E+02  0.51100000000E-03 0. -1.
        -11    1    3    3    0    0 -0.78347440338E+01 -0.94888543938E+01 -0.60059513082E+01  0.13692809177E+02  0.51100000000E-03 0.  1.
        -12    1    3    3    0    0 -0.15833854469E+02  0.13323404916E+02  0.28743618132E+01  0.20892247886E+02  0.00000000000E+00 0.  1.
</event>
<event>
 7    1  0.3528441E-013  0.5930191E+02  0.7816164E-02  0.1266605E+00
        -11   -1    0    0    0    0  0.00000000000E+00  0.00000000000E+00  0.45593999997E+02  0.45594000000E+02  0.51100000000E-03 0.  1.
         11   -1    0    0    0    0 -0.00000000000E+00 -0.00000000000E+00 -0.45593999997E+02  0.45594000000E+02  0.51100000000E-03 0. -1.
    9900012    2    1    2    0    0 -0.29161305184E+01  0.13386857929E+02 -0.28792549077E+02  0.59301911109E+02  0.49999939964E+02 0.  0.
        -12    1    1    2    0    0  0.29161305184E+01 -0.13386857929E+02  0.28792549077E+02  0.31886088891E+02  0.00000000000E+00 0.  1.
         11    1    3    3    0    0 -0.56747396585E+01  0.78035491091E+01  0.17304077692E+01  0.98026710747E+01  0.51100000000E-03 0. -1.
        -11    1    3    3    0    0  0.37546791164E+01  0.21947096032E+01  0.89066549556E+01  0.99117540460E+01  0.51100000000E-03 0.  1.
         12    1    3    3    0    0 -0.99606997633E+00  0.33885992168E+01 -0.39429611802E+02  0.39587485988E+02  0.00000000000E+00 0. -1.
</event>
<event>
 7    1  0.3528441E-013  0.5930173E+02  0.7816164E-02  0.1266605E+00
        -11   -1    0    0    0    0  0.00000000000E+00  0.00000000000E+00  0.45593999997E+02  0.45594000000E+02  0.51100000000E-03 0.  1.
         11   -1    0    0    0    0 -0.00000000000E+00 -0.00000000000E+00 -0.45593999997E+02  0.45594000000E+02  0.51100000000E-03 0. -1.
    9900012    2    1    2    0    0  0.83105971592E+01  0.15179069228E+02 -0.26781780471E+02  0.59301734415E+02  0.49999617715E+02 0.  0.
        -12    1    1    2    0    0 -0.83105971592E+01 -0.15179069228E+02  0.26781780471E+02  0.31886265585E+02  0.00000000000E+00 0.  1.
         11    1    3    3    0    0  0.12615321428E+02  0.11807258761E+01 -0.17149762550E+02  0.21322635956E+02  0.51100000000E-03 0. -1.
        -11    1    3    3    0    0 -0.12657680762E+02 -0.39225379713E+01 -0.12235637156E+02  0.18036463159E+02  0.51100000000E-03 0.  1.
        -12    1    3    3    0    0  0.83529564932E+01  0.17920881323E+02  0.26036192348E+01  0.19942635300E+02  0.00000000000E+00 0.  1.
</event>
<event>
 7    1  0.3528441E-013  0.5930192E+02  0.7816164E-02  0.1266605E+00
        -11   -1    0    0    0    0  0.00000000000E+00  0.00000000000E+00  0.45593999997E+02  0.45594000000E+02  0.51100000000E-03 0.  1.
         11   -1    0    0    0    0 -0.00000000000E+00 -0.00000000000E+00 -0.45593999997E+02  0.45594000000E+02  0.51100000000E-03 0. -1.
    9900012    2    1    2    0    0  0.67226887079E+01 -0.26402562170E+02  0.16566002268E+02  0.59301917397E+02  0.49999951432E+02 0.  0.
        -12    1    1    2    0    0 -0.67226887079E+01  0.26402562170E+02 -0.16566002268E+02  0.31886082603E+02  0.00000000000E+00 0.  1.
         11    1    3    3    0    0 -0.10248887818E+02 -0.28233999595E+02  0.50549958628E+01  0.30459012099E+02  0.51100000000E-03 0. -1.
        -11    1    3    3    0    0  0.48571813872E+01 -0.76463905185E+01 -0.86618980638E+00  0.90999881336E+01  0.51100000000E-03 0.  1.
         12    1    3    3    0    0  0.12114395139E+02  0.94778279430E+01  0.12377196212E+02  0.19742917165E+02  0.00000000000E+00 0. -1.
</event>
<event>
 7    1  0.3528441E-013  0.5930193E+02  0.7816164E-02  0.1266605E+00
        -11   -1    0    0    0    0  0.00000000000E+00  0.00000000000E+00  0.45593999997E+02  0.45594000000E+02  0.51100000000E-03 0. -1.
         11   -1    0    0    0    0 -0.00000000000E+00 -0.00000000000E+00 -0.45593999997E+02  0.45594000000E+02  0.51100000000E-03 0.  1.
    9900012    2    1    2    0    0 -0.19051669292E+02  0.25382395309E+02  0.30804857840E+01  0.59301929576E+02  0.49999973643E+02 0.  0.
        -12    1    1    2    0    0  0.19051669292E+02 -0.25382395309E+02 -0.30804857840E+01  0.31886070424E+02  0.00000000000E+00 0.  1.
         11    1    3    3    0    0 -0.15925115609E+01  0.29520971078E+01 -0.31990488950E+01  0.46351790148E+01  0.51100000000E-03 0. -1.
        -11    1    3    3    0    0 -0.19272305663E+02  0.33673362052E+02 -0.44091037389E+01  0.39048140462E+02  0.51100000000E-03 0.  1.
         12    1    3    3    0    0  0.18131479320E+01 -0.11243063851E+02  0.10688638418E+02  0.15618610099E+02  0.00000000000E+00 0. -1.
</event>
<event>
 7    1  0.3528441E-013  0.5930194E+02  0.7816164E-02  0.1266605E+00
        -11   -1    0    0    0    0  0.00000000000E+00  0.00000000000E+00  0.45593999997E+02  0.45594000000E+02  0.51100000000E-03 0.  1.
         11   -1    0    0    0    0 -0.00000000000E+00 -0.00000000000E+00 -0.45593999997E+02  0.45594000000E+02  0.51100000000E-03 0. -1.
    9900012    2    1    2    0    0 -0.23058262659E+02 -0.87833304120E+01 -0.20196296833E+02  0.59301940731E+02  0.49999993988E+02 0.  0.
        -12    1    1    2    0    0  0.23058262659E+02  0.87833304120E+01  0.20196296833E+02  0.31886059269E+02  0.00000000000E+00 0.  1.
         11    1    3    3    0    0 -0.13483969334E+01  0.17229284908E+01 -0.16823601307E+01  0.27598899878E+01  0.51100000000E-03 0. -1.
        -11    1    3    3    0    0 -0.52670056757E+01  0.18714270855E+02 -0.32870057685E+01  0.19717243458E+02  0.51100000000E-03 0.  1.
         12    1    3    3    0    0 -0.16442860049E+02 -0.29220529758E+02 -0.15226930933E+02  0.36824807285E+02  0.00000000000E+00 0. -1.
</event>
<event>
 7    1  0.3528441E-013  0.5930195E+02  0.7816164E-02  0.1266605E+00
        -11   -1    0    0    0    0  0.00000000000E+00  0.00000000000E+00  0.45593999997E+02  0.45594000000E+02  0.51100000000E-03 0.  1.
         11   -1    0    0    0    0 -0.00000000000E+00 -0.00000000000E+00 -0.45593999997E+02  0.45594000000E+02  0.51100000000E-03 0. -1.
    9900012    2    1    2    0    0 -0.24931975721E+02 -0.11473214384E+02 -0.16232124840E+02  0.59301953860E+02  0.50000017932E+02 0.  0.
        -12    1    1    2    0    0  0.24931975721E+02  0.11473214384E+02  0.16232124840E+02  0.31886046140E+02  0.00000000000E+00 0.  1.
         11    1    3    3    0    0 -0.54531044887E+01 -0.23076595295E+02 -0.10544629908E+02  0.25951008056E+02  0.51100000000E-03 0.  1.
        -11    1    3    3    0    0 -0.10195433377E+02 -0.76412946310E+00  0.77776605694E+01  0.12846118471E+02  0.51100000000E-03 0. -1.
         12    1    3    3    0    0 -0.92834378551E+01  0.12367510374E+02 -0.13465155502E+02  0.20504827333E+02  0.00000000000E+00 0. -1.
</event>
<event>
 7    1  0.3528441E-013  0.5930195E+02  0.7816164E-02  0.1266605E+00
        -11   -1    0    0    0    0  0.00000000000E+00  0.00000000000E+00  0.45593999997E+02  0.45594000000E+02  0.51100000000E-03 0.  1.
         11   -1    0    0    0    0 -0.00000000000E+00 -0.00000000000E+00 -0.45593999997E+02  0.45594000000E+02  0.51100000000E-03 0. -1.
    9900012    2    1    2    0    0 -0.17813231810E+02 -0.33864794118E+01 -0.26228622578E+02  0.59301951128E+02  0.50000012949E+02 0.  0.
        -12    1    1    2    0    0  0.17813231810E+02  0.33864794118E+01  0.26228622578E+02  0.31886048872E+02  0.00000000000E+00 0.  1.
         11    1    3    3    0    0  0.10737492594E+02 -0.81565991908E+01 -0.90017426473E+01  0.16212810630E+02  0.51100000000E-03 0. -1.
        -11    1    3    3    0    0 -0.18152788376E+02 -0.35195771600E+01 -0.22199654113E+02  0.28891794548E+02  0.51100000000E-03 0.  1.
        -12    1    3    3    0    0 -0.10397936028E+02  0.82896969389E+01  0.49727741818E+01  0.14197345950E+02  0.00000000000E+00 0.  1.
</event>
<event>
 7    1  0.3528441E-013  0.5930192E+02  0.7816164E-02  0.1266605E+00
        -11   -1    0    0    0    0  0.00000000000E+00  0.00000000000E+00  0.45593999997E+02  0.45594000000E+02  0.51100000000E-03 0.  1.
         11   -1    0    0    0    0 -0.00000000000E+00 -0.00000000000E+00 -0.45593999997E+02  0.45594000000E+02  0.51100000000E-03 0. -1.
    9900012    2    1    2    0    0 -0.26906532548E+02  0.66361416785E+01 -0.15770928723E+02  0.59301920546E+02  0.49999957175E+02 0.  0.
        -12    1    1    2    0    0  0.26906532548E+02 -0.66361416785E+01  0.15770928723E+02  0.31886079454E+02  0.00000000000E+00 0.  1.
         11    1    3    3    0    0 -0.21315833933E+02  0.20302112656E+02 -0.95557007558E+01  0.30949183701E+02  0.51100000000E-03 0. -1.
        -11    1    3    3    0    0  0.64895441253E+01  0.18735968447E+01 -0.54091000488E+01  0.86534913006E+01  0.51100000000E-03 0.  1.
         12    1    3    3    0    0 -0.12080242741E+02 -0.15539567822E+02 -0.80612791888E+00  0.19699245544E+02  0.00000000000E+00 0. -1.
</event>
<event>
 7    1  0.3528441E-013  0.5930195E+02  0.7816164E-02  0.1266605E+00
        -11   -1    0    0    0    0  0.00000000000E+00  0.00000000000E+00  0.45593999997E+02  0.45594000000E+02  0.51100000000E-03 0.  1.
         11   -1    0    0    0    0 -0.00000000000E+00 -0.00000000000E+00 -0.45593999997E+02  0.45594000000E+02  0.51100000000E-03 0. -1.
    9900012    2    1    2    0    0  0.21169384604E+02  0.14934273062E+00 -0.23844387875E+02  0.59301953194E+02  0.50000016717E+02 0.  0.
        -12    1    1    2    0    0 -0.21169384604E+02 -0.14934273062E+00  0.23844387875E+02  0.31886046806E+02  0.00000000000E+00 0.  1.
         11    1    3    3    0    0  0.42070322964E+01 -0.81960411937E+01  0.69104588071E+00  0.92386014452E+01  0.51100000000E-03 0. -1.
        -11    1    3    3    0    0 -0.95283646560E+01  0.12202111702E+02 -0.31470241047E+01  0.15798260157E+02  0.51100000000E-03 0.  1.
         12    1    3    3    0    0  0.26490716964E+02 -0.38567277778E+01 -0.21388409651E+02  0.34265091592E+02  0.00000000000E+00 0. -1.
</event>
<event>
 7    1  0.3528441E-013  0.5930199E+02  0.7816164E-02  0.1266605E+00
        -11   -1    0    0    0    0  0.00000000000E+00  0.00000000000E+00  0.45593999997E+02  0.45594000000E+02  0.51100000000E-03 0. -1.
         11   -1    0    0    0    0 -0.00000000000E+00 -0.00000000000E+00 -0.45593999997E+02  0.45594000000E+02  0.51100000000E-03 0.  1.
    9900012    2    1    2    0    0  0.14151301053E+02  0.25271966777E+02  0.13333637572E+02  0.59301991828E+02  0.50000087177E+02 0.  0.
        -12    1    1    2    0    0 -0.14151301053E+02 -0.25271966777E+02 -0.13333637572E+02  0.31886008172E+02  0.00000000000E+00 0.  1.
         11    1    3    3    0    0 -0.62096403684E+01 -0.20805451875E+01  0.33144067323E+01  0.73398633523E+01  0.51100000000E-03 0. -1.
        -11    1    3    3    0    0 -0.91812048871E+01 -0.12200866021E+00 -0.28528776660E+01  0.96150049678E+01  0.51100000000E-03 0.  1.
        -12    1    3    3    0    0  0.29542146308E+02  0.27474520624E+02  0.12872108505E+02  0.42347123508E+02  0.00000000000E+00 0.  1.
</event>
<event>
 7    1  0.3528441E-013  0.5930195E+02  0.7816164E-02  0.1266605E+00
        -11   -1    0    0    0    0  0.00000000000E+00  0.00000000000E+00  0.45593999997E+02  0.45594000000E+02  0.51100000000E-03 0.  1.
         11   -1    0    0    0    0 -0.00000000000E+00 -0.00000000000E+00 -0.45593999997E+02  0.45594000000E+02  0.51100000000E-03 0. -1.
    9900012    2    1    2    0    0 -0.30891059225E+02  0.17852949494E+01 -0.76990589630E+01  0.59301947767E+02  0.50000006819E+02 0.  0.
        -12    1    1    2    0    0  0.30891059225E+02 -0.17852949494E+01  0.76990589630E+01  0.31886052233E+02  0.00000000000E+00 0.  1.
         11    1    3    3    0    0 -0.34575512097E+01  0.16932070387E+02 -0.39843172047E+00  0.17286075785E+02  0.51100000000E-03 0. -1.
        -11    1    3    3    0    0 -0.51783001952E+01 -0.17716464188E+02 -0.65987106322E+01  0.19601808041E+02  0.51100000000E-03 0.  1.
         12    1    3    3    0    0 -0.22255207820E+02  0.25696887501E+01 -0.70191661038E+00  0.22414063940E+02  0.00000000000E+00 0. -1.
</event>
<event>
 7    1  0.3528441E-013  0.5930197E+02  0.7816164E-02  0.1266605E+00
        -11   -1    0    0    0    0  0.00000000000E+00  0.00000000000E+00  0.45593999997E+02  0.45594000000E+02  0.51100000000E-03 0. -1.
         11   -1    0    0    0    0 -0.00000000000E+00 -0.00000000000E+00 -0.45593999997E+02  0.45594000000E+02  0.51100000000E-03 0.  1.
    9900012    2    1    2    0    0 -0.19314853977E+02 -0.99122413839E+01  0.23353864172E+02  0.59301967240E+02  0.50000042334E+02 0.  0.
        -12    1    1    2    0    0  0.19314853977E+02  0.99122413839E+01 -0.23353864172E+02  0.31886032760E+02  0.00000000000E+00 0.  1.
         11    1    3    3    0    0 -0.19126726032E+02 -0.11554949494E+02  0.11269448558E+02  0.25026965009E+02  0.51100000000E-03 0. -1.
        -11    1    3    3    0    0 -0.14110452305E+02  0.78402421057E+01  0.26686989416E+01  0.16361424596E+02  0.51100000000E-03 0.  1.
        -12    1    3    3    0    0  0.13922324360E+02 -0.61975339960E+01  0.94157166728E+01  0.17913577635E+02  0.00000000000E+00 0.  1.
</event>
<event>
 7    1  0.3528441E-013  0.5930167E+02  0.7816164E-02  0.1266606E+00
        -11   -1    0    0    0    0  0.00000000000E+00  0.00000000000E+00  0.45593999997E+02  0.45594000000E+02  0.51100000000E-03 0.  1.
         11   -1    0    0    0    0 -0.00000000000E+00 -0.00000000000E+00 -0.45593999997E+02  0.45594000000E+02  0.51100000000E-03 0. -1.
    9900012    2    1    2    0    0 -0.21357512836E+02 -0.10187278419E+02 -0.21373208884E+02  0.59301669792E+02  0.49999499857E+02 0.  0.
        -12    1    1    2    0    0  0.21357512836E+02  0.10187278419E+02  0.21373208884E+02  0.31886330208E+02  0.00000000000E+00 0.  1.
         11    1    3    3    0    0 -0.20353572423E+02  0.78906073172E+01 -0.22649940858E+02  0.31457104370E+02  0.51100000000E-03 0. -1.
        -11    1    3    3    0    0 -0.19646623169E+01 -0.39738642025E+01  0.10203795836E+02  0.11125149188E+02  0.51100000000E-03 0.  1.
         12    1    3    3    0    0  0.96072190337E+00 -0.14104021534E+02 -0.89270638627E+01  0.16719416234E+02  0.00000000000E+00 0. -1.
</event>
<event>
 7    1  0.3528441E-013  0.5930194E+02  0.7816164E-02  0.1266605E+00
        -11   -1    0    0    0    0  0.00000000000E+00  0.00000000000E+00  0.45593999997E+02  0.45594000000E+02  0.51100000000E-03 0. -1.
         11   -1    0    0    0    0 -0.00000000000E+00 -0.00000000000E+00 -0.45593999997E+02  0.45594000000E+02  0.51100000000E-03 0.  1.
    9900012    2    1    2    0    0  0.45464620713E+01  0.10816932785E+02  0.29648680298E+02  0.59301943554E+02  0.49999999137E+02 0.  0.
        -12    1    1    2    0    0 -0.45464620713E+01 -0.10816932785E+02 -0.29648680298E+02  0.31886056446E+02  0.00000000000E+00 0.  1.
         11    1    3    3    0    0 -0.90803860119E+01 -0.40336748477E+01  0.25600992179E+01  0.10260509304E+02  0.51100000000E-03 0. -1.
        -11    1    3    3    0    0 -0.91087534028E+01  0.13572332440E+02  0.44703153817E+01  0.16945834777E+02  0.51100000000E-03 0.  1.
        -12    1    3    3    0    0  0.22735601486E+02  0.12782751929E+01  0.22618265698E+02  0.32095599474E+02  0.00000000000E+00 0.  1.
</event>
<event>
 7    1  0.3528441E-013  0.5930196E+02  0.7816164E-02  0.1266605E+00
        -11   -1    0    0    0    0  0.00000000000E+00  0.00000000000E+00  0.45593999997E+02  0.45594000000E+02  0.51100000000E-03 0. -1.
         11   -1    0    0    0    0 -0.00000000000E+00 -0.00000000000E+00 -0.45593999997E+02  0.45594000000E+02  0.51100000000E-03 0.  1.
    9900012    2    1    2    0    0  0.25368304674E+02 -0.14464692102E+02  0.12803959294E+02  0.59301959587E+02  0.50000028376E+02 0.  0.
        -12    1    1    2    0    0 -0.25368304674E+02  0.14464692102E+02 -0.12803959294E+02  0.31886040413E+02  0.00000000000E+00 0.  1.
         11    1    3    3    0    0  0.16043868329E+02 -0.71325486741E+01 -0.34113260499E+01  0.17886198792E+02  0.51100000000E-03 0. -1.
        -11    1    3    3    0    0  0.65618265544E+01  0.12229006126E+02 -0.26165292669E+01  0.14122761211E+02  0.51100000000E-03 0.  1.
         12    1    3    3    0    0  0.27626097907E+01 -0.19561149554E+02  0.18831814611E+02  0.27292999584E+02  0.00000000000E+00 0. -1.
</event>
<event>
 7    1  0.3528441E-013  0.5930196E+02  0.7816164E-02  0.1266605E+00
        -11   -1    0    0    0    0  0.00000000000E+00  0.00000000000E+00  0.45593999997E+02  0.45594000000E+02  0.51100000000E-03 0.  1.
         11   -1    0    0    0    0 -0.00000000000E+00 -0.00000000000E+00 -0.45593999997E+02  0.45594000000E+02  0.51100000000E-03 0. -1.
    9900012    2    1    2    0    0 -0.26042207363E+02  0.15332257067E+02 -0.10170794703E+02  0.59301957034E+02  0.50000023721E+02 0.  0.
        -12    1    1    2    0    0  0.26042207363E+02 -0.15332257067E+02  0.10170794703E+02  0.31886042966E+02  0.00000000000E+00 0.  1.
         11    1    3    3    0    0 -0.11341873264E+02  0.81254076825E+01 -0.38650565097E+01  0.14477534363E+02  0.51100000000E-03 0. -1.
        -11    1    3    3    0    0 -0.22764195663E+02  0.18669763161E+02  0.36716309251E-01  0.29440958019E+02  0.51100000000E-03 0.  1.
        -12    1    3    3    0    0  0.80638615643E+01 -0.11462913777E+02 -0.63424545027E+01  0.15383464652E+02  0.00000000000E+00 0.  1.
</event>
<event>
 7    1  0.3528441E-013  0.5930191E+02  0.7816164E-02  0.1266605E+00
        -11   -1    0    0    0    0  0.00000000000E+00  0.00000000000E+00  0.45593999997E+02  0.45594000000E+02  0.51100000000E-03 0.  1.
         11   -1    0    0    0    0 -0.00000000000E+00 -0.00000000000E+00 -0.45593999997E+02  0.45594000000E+02  0.51100000000E-03 0. -1.
    9900012    2    1    2    0    0 -0.17336390823E+02 -0.17506286068E+02 -0.20241108856E+02  0.59301906066E+02  0.49999930766E+02 0.  0.
        -12    1    1    2    0    0  0.17336390823E+02  0.17506286068E+02  0.20241108856E+02  0.31886093934E+02  0.00000000000E+00 0.  1.
         11    1    3    3    0    0  0.32742941769E+01  0.11431465109E+02 -0.97191126329E+01  0.15357752034E+02  0.51100000000E-03 0.  1.
        -11    1    3    3    0    0 -0.20595992333E+02 -0.86031136688E+01 -0.59959791267E+01  0.23111906692E+02  0.51100000000E-03 0. -1.
        -12    1    3    3    0    0 -0.14692666980E-01 -0.20334637509E+02 -0.45260170959E+01  0.20832247340E+02  0.00000000000E+00 0.  1.
</event>
<event>
 7    1  0.3528441E-013  0.5930190E+02  0.7816164E-02  0.1266605E+00
        -11   -1    0    0    0    0  0.00000000000E+00  0.00000000000E+00  0.45593999997E+02  0.45594000000E+02  0.51100000000E-03 0.  1.
         11   -1    0    0    0    0 -0.00000000000E+00 -0.00000000000E+00 -0.45593999997E+02  0.45594000000E+02  0.51100000000E-03 0. -1.
    9900012    2    1    2    0    0 -0.24043367594E+02  0.14550253228E+02 -0.15064190883E+02  0.59301902070E+02  0.49999923479E+02 0.  0.
        -12    1    1    2    0    0  0.24043367594E+02 -0.14550253228E+02  0.15064190883E+02  0.31886097930E+02  0.00000000000E+00 0.  1.
         11    1    3    3    0    0 -0.12970723089E+02 -0.66278481584E+01  0.16415890876E+01  0.14658200560E+02  0.51100000000E-03 0. -1.
        -11    1    3    3    0    0 -0.11122070577E+02 -0.12372502203E+01  0.60336222381E+01  0.12713608441E+02  0.51100000000E-03 0.  1.
         12    1    3    3    0    0  0.49426071203E-01  0.22415351607E+02 -0.22739402208E+02  0.31930093069E+02  0.00000000000E+00 0. -1.
</event>
<event>
 7    1  0.3528441E-013  0.5930194E+02  0.7816164E-02  0.1266605E+00
        -11   -1    0    0    0    0  0.00000000000E+00  0.00000000000E+00  0.45593999997E+02  0.45594000000E+02  0.51100000000E-03 0.  1.
         11   -1    0    0    0    0 -0.00000000000E+00 -0.00000000000E+00 -0.45593999997E+02  0.45594000000E+02  0.51100000000E-03 0. -1.
    9900012    2    1    2    0    0 -0.10351775207E+01  0.31739685916E+02 -0.28708159400E+01  0.59301939743E+02  0.49999992187E+02 0.  0.
        -12    1    1    2    0    0  0.10351775207E+01 -0.31739685916E+02  0.28708159400E+01  0.31886060257E+02  0.00000000000E+00 0.  1.
         11    1    3    3    0    0 -0.86043834485E+01 -0.10514873879E+01  0.19605666498E+01  0.88873428034E+01  0.51100000000E-03 0. -1.
        -11    1    3    3    0    0  0.10446279333E+01 -0.22851191686E+01  0.11071393306E+02  0.11352918881E+02  0.51100000000E-03 0.  1.
         12    1    3    3    0    0  0.65245779945E+01  0.35076292472E+02 -0.15902775895E+02  0.39061678059E+02  0.00000000000E+00 0. -1.
</event>
<event>
 7    1  0.3528441E-013  0.5930194E+02  0.7816164E-02  0.1266605E+00
        -11   -1    0    0    0    0  0.00000000000E+00  0.00000000000E+00  0.45593999997E+02  0.45594000000E+02  0.51100000000E-03 0. -1.
         11   -1    0    0    0    0 -0.00000000000E+00 -0.00000000000E+00 -0.45593999997E+02  0.45594000000E+02  0.51100000000E-03 0.  1.
    9900012    2    1    2    0    0  0.28864047504E+02 -0.10725901181E+02 -0.82790492135E+01  0.59301939560E+02  0.49999991852E+02 0.  0.
        -12    1    1    2    0    0 -0.28864047504E+02  0.10725901181E+02  0.82790492135E+01  0.31886060440E+02  0.00000000000E+00 0.  1.
         11    1    3    3    0    0  0.59290610375E+01 -0.81240386390E+01  0.83228431279E+01  0.13054634678E+02  0.51100000000E-03 0. -1.
        -11    1    3    3    0    0  0.70060626749E+01 -0.15805216939E+02  0.32303415188E+01  0.17587634954E+02  0.51100000000E-03 0.  1.
        -12    1    3    3    0    0  0.15928923792E+02  0.13203354397E+02 -0.19832233860E+02  0.28659669928E+02  0.00000000000E+00 0.  1.
</event>
<event>
 7    1  0.3528441E-013  0.5930195E+02  0.7816164E-02  0.1266605E+00
        -11   -1    0    0    0    0  0.00000000000E+00  0.00000000000E+00  0.45593999997E+02  0.45594000000E+02  0.51100000000E-03 0. -1.
         11   -1    0    0    0    0 -0.00000000000E+00 -0.00000000000E+00 -0.45593999997E+02  0.45594000000E+02  0.51100000000E-03 0.  1.
    9900012    2    1    2    0    0 -0.82907166437E+01  0.29360378334E+02  0.92710542602E+01  0.59301949045E+02  0.50000009151E+02 0.  0.
        -12    1    1    2    0    0  0.82907166437E+01 -0.29360378334E+02 -0.92710542602E+01  0.31886050955E+02  0.00000000000E+00 0.  1.
         11    1    3    3    0    0 -0.91364529842E+01  0.15745586950E+02  0.23063376213E+02  0.29382266831E+02  0.51100000000E-03 0. -1.
        -11    1    3    3    0    0  0.94538269168E+01  0.11501512667E+01 -0.13593772335E+00  0.95245036949E+01  0.51100000000E-03 0.  1.
        -12    1    3    3    0    0 -0.86080905763E+01  0.12464640118E+02 -0.13656384229E+02  0.20395178520E+02  0.00000000000E+00 0.  1.
</event>
<event>
 7    1  0.3528441E-013  0.5930194E+02  0.7816164E-02  0.1266605E+00
        -11   -1    0    0    0    0  0.00000000000E+00  0.00000000000E+00  0.45593999997E+02  0.45594000000E+02  0.51100000000E-03 0. -1.
         11   -1    0    0    0    0 -0.00000000000E+00 -0.00000000000E+00 -0.45593999997E+02  0.45594000000E+02  0.51100000000E-03 0.  1.
    9900012    2    1    2    0    0  0.12342415880E+02 -0.15387933459E+02  0.25051887320E+02  0.59301940598E+02  0.49999993744E+02 0.  0.
        -12    1    1    2    0    0 -0.12342415880E+02  0.15387933459E+02 -0.25051887320E+02  0.31886059402E+02  0.00000000000E+00 0.  1.
         11    1    3    3    0    0 -0.22013126751E+01 -0.17428039209E+02  0.26816010368E+02  0.32057459982E+02  0.51100000000E-03 0. -1.
        -11    1    3    3    0    0 -0.26096719064E+01  0.83611017315E+01  0.75215226316E+00  0.87911400235E+01  0.51100000000E-03 0.  1.
        -12    1    3    3    0    0  0.17153400462E+02 -0.63209959812E+01 -0.25162753103E+01  0.18453340593E+02  0.00000000000E+00 0.  1.
</event>
<event>
 7    1  0.3528441E-013  0.5930195E+02  0.7816164E-02  0.1266605E+00
        -11   -1    0    0    0    0  0.00000000000E+00  0.00000000000E+00  0.45593999997E+02  0.45594000000E+02  0.51100000000E-03 0. -1.
         11   -1    0    0    0    0 -0.00000000000E+00 -0.00000000000E+00 -0.45593999997E+02  0.45594000000E+02  0.51100000000E-03 0.  1.
    9900012    2    1    2    0    0 -0.57163245454E+01 -0.99288766993E+01  0.29756703065E+02  0.59301947624E+02  0.50000006560E+02 0.  0.
        -12    1    1    2    0    0  0.57163245454E+01  0.99288766993E+01 -0.29756703065E+02  0.31886052376E+02  0.00000000000E+00 0.  1.
         11    1    3    3    0    0  0.10154658429E+02 -0.27861669966E+01 -0.45202358805E+01  0.11459159962E+02  0.51100000000E-03 0. -1.
        -11    1    3    3    0    0  0.59095452322E+01 -0.67545720766E+01  0.25009382863E+01  0.93167409196E+01  0.51100000000E-03 0.  1.
         12    1    3    3    0    0 -0.21780528207E+02 -0.38813762617E+00  0.31776000659E+02  0.38526046743E+02  0.00000000000E+00 0. -1.
</event>
<event>
 7    1  0.3528441E-013  0.5930186E+02  0.7816164E-02  0.1266605E+00
        -11   -1    0    0    0    0  0.00000000000E+00  0.00000000000E+00  0.45593999997E+02  0.45594000000E+02  0.51100000000E-03 0.  1.
         11   -1    0    0    0    0 -0.00000000000E+00 -0.00000000000E+00 -0.45593999997E+02  0.45594000000E+02  0.51100000000E-03 0. -1.
    9900012    2    1    2    0    0 -0.94931276272E+01 -0.14279769354E+02 -0.26882974648E+02  0.59301864912E+02  0.49999855712E+02 0.  0.
        -12    1    1    2    0    0  0.94931276272E+01  0.14279769354E+02  0.26882974648E+02  0.31886135088E+02  0.00000000000E+00 0.  1.
         11    1    3    3    0    0 -0.56851323238E+01 -0.13031823900E+02 -0.18039041079E+02  0.22968590879E+02  0.51100000000E-03 0. -1.
        -11    1    3    3    0    0 -0.76839135728E+01 -0.14269152852E+02 -0.14376486551E+02  0.21664132032E+02  0.51100000000E-03 0.  1.
        -12    1    3    3    0    0  0.38759182694E+01  0.13021207398E+02  0.55325529818E+01  0.14669142000E+02  0.00000000000E+00 0.  1.
</event>
<event>
 7    1  0.3528441E-013  0.5930193E+02  0.7816164E-02  0.1266605E+00
        -11   -1    0    0    0    0  0.00000000000E+00  0.00000000000E+00  0.45593999997E+02  0.45594000000E+02  0.51100000000E-03 0.  1.
         11   -1    0    0    0    0 -0.00000000000E+00 -0.00000000000E+00 -0.45593999997E+02  0.45594000000E+02  0.51100000000E-03 0. -1.
    9900012    2    1    2    0    0 -0.14394907917E+02  0.52463646623E+01 -0.27963973800E+02  0.59301928640E+02  0.49999971936E+02 0.  0.
        -12    1    1    2    0    0  0.14394907917E+02 -0.52463646623E+01  0.27963973800E+02  0.31886071360E+02  0.00000000000E+00 0.  1.
         11    1    3    3    0    0  0.10787166713E+02  0.82433794715E+00 -0.23133182727E+02  0.25537945142E+02  0.51100000000E-03 0. -1.
        -11    1    3    3    0    0 -0.68768482594E+01 -0.82509461272E+01  0.88678404720E+00  0.10777547967E+02  0.51100000000E-03 0.  1.
        -12    1    3    3    0    0 -0.18305226370E+02  0.12672972842E+02 -0.57175751200E+01  0.22986435530E+02  0.00000000000E+00 0.  1.
</event>
<event>
 7    1  0.3528441E-013  0.5930196E+02  0.7816164E-02  0.1266605E+00
        -11   -1    0    0    0    0  0.00000000000E+00  0.00000000000E+00  0.45593999997E+02  0.45594000000E+02  0.51100000000E-03 0.  1.
         11   -1    0    0    0    0 -0.00000000000E+00 -0.00000000000E+00 -0.45593999997E+02  0.45594000000E+02  0.51100000000E-03 0. -1.
    9900012    2    1    2    0    0  0.97293455643E+01 -0.12655879531E+02 -0.27602322595E+02  0.59301958157E+02  0.50000025768E+02 0.  0.
        -12    1    1    2    0    0 -0.97293455643E+01  0.12655879531E+02  0.27602322595E+02  0.31886041843E+02  0.00000000000E+00 0.  1.
         11    1    3    3    0    0  0.14093821156E+02 -0.17080027577E+02 -0.10580851425E+02  0.24542158706E+02  0.51100000000E-03 0. -1.
        -11    1    3    3    0    0 -0.48038937053E+00 -0.92805935819E+00  0.84140339836E+01  0.84786812806E+01  0.51100000000E-03 0.  1.
        -12    1    3    3    0    0 -0.38840862214E+01  0.53522074039E+01 -0.25435505153E+02  0.26281118170E+02  0.00000000000E+00 0.  1.
</event>
<event>
 7    1  0.3528441E-013  0.5930196E+02  0.7816164E-02  0.1266605E+00
        -11   -1    0    0    0    0  0.00000000000E+00  0.00000000000E+00  0.45593999997E+02  0.45594000000E+02  0.51100000000E-03 0.  1.
         11   -1    0    0    0    0 -0.00000000000E+00 -0.00000000000E+00 -0.45593999997E+02  0.45594000000E+02  0.51100000000E-03 0. -1.
    9900012    2    1    2    0    0 -0.74384431748E+01 -0.14754756782E+01 -0.30971149888E+02  0.59301959312E+02  0.50000027875E+02 0.  0.
        -12    1    1    2    0    0  0.74384431748E+01  0.14754756782E+01  0.30971149888E+02  0.31886040688E+02  0.00000000000E+00 0.  1.
         11    1    3    3    0    0  0.15155023506E+02 -0.54600537239E+01 -0.14244475804E+02  0.21503302429E+02  0.51100000000E-03 0. -1.
        -11    1    3    3    0    0 -0.71591255001E+01 -0.56321580851E+01 -0.17357575668E+02  0.19602543609E+02  0.51100000000E-03 0.  1.
        -12    1    3    3    0    0 -0.15434341181E+02  0.96167361308E+01  0.63090158402E+00  0.18196113275E+02  0.00000000000E+00 0.  1.
</event>
<event>
 7    1  0.3528441E-013  0.5930207E+02  0.7816164E-02  0.1266604E+00
        -11   -1    0    0    0    0  0.00000000000E+00  0.00000000000E+00  0.45593999997E+02  0.45594000000E+02  0.51100000000E-03 0.  1.
         11   -1    0    0    0    0 -0.00000000000E+00 -0.00000000000E+00 -0.45593999997E+02  0.45594000000E+02  0.51100000000E-03 0. -1.
    9900012    2    1    2    0    0  0.40057972370E+01  0.59009387946E+01 -0.31078048110E+02  0.59302069490E+02  0.50000228813E+02 0.  0.
        -12    1    1    2    0    0 -0.40057972370E+01 -0.59009387946E+01  0.31078048110E+02  0.31885930510E+02  0.00000000000E+00 0.  1.
         11    1    3    3    0    0  0.39732785322E+01 -0.53489806744E+01 -0.34824766705E+02  0.35456493240E+02  0.51100000000E-03 0. -1.
        -11    1    3    3    0    0 -0.61647132970E+01 -0.34558606824E+01 -0.11338844971E+01  0.71576782132E+01  0.51100000000E-03 0.  1.
        -12    1    3    3    0    0  0.61972320018E+01  0.14705780151E+02  0.48806030925E+01  0.16687898037E+02  0.00000000000E+00 0.  1.
</event>
<event>
 7    1  0.3528441E-013  0.5930195E+02  0.7816164E-02  0.1266605E+00
        -11   -1    0    0    0    0  0.00000000000E+00  0.00000000000E+00  0.45593999997E+02  0.45594000000E+02  0.51100000000E-03 0.  1.
         11   -1    0    0    0    0 -0.00000000000E+00 -0.00000000000E+00 -0.45593999997E+02  0.45594000000E+02  0.51100000000E-03 0. -1.
    9900012    2    1    2    0    0 -0.29541275425E+02  0.25123236765E+01 -0.11735484506E+02  0.59301947868E+02  0.50000007004E+02 0.  0.
        -12    1    1    2    0    0  0.29541275425E+02 -0.25123236765E+01  0.11735484506E+02  0.31886052132E+02  0.00000000000E+00 0.  1.
         11    1    3    3    0    0 -0.27957360441E+02  0.90091505919E+01  0.49254201361E+01  0.29783192592E+02  0.51100000000E-03 0. -1.
        -11    1    3    3    0    0 -0.60609772289E+01 -0.50689221771E+01  0.36268441704E+01  0.86938723193E+01  0.51100000000E-03 0.  1.
         12    1    3    3    0    0  0.44770622450E+01 -0.14279047384E+01 -0.20287748812E+02  0.20824882956E+02  0.00000000000E+00 0. -1.
</event>
<event>
 7    1  0.3528441E-013  0.5930194E+02  0.7816164E-02  0.1266605E+00
        -11   -1    0    0    0    0  0.00000000000E+00  0.00000000000E+00  0.45593999997E+02  0.45594000000E+02  0.51100000000E-03 0.  1.
         11   -1    0    0    0    0 -0.00000000000E+00 -0.00000000000E+00 -0.45593999997E+02  0.45594000000E+02  0.51100000000E-03 0. -1.
    9900012    2    1    2    0    0 -0.20710384533E+01  0.17260907959E+02 -0.26729996633E+02  0.59301939349E+02  0.49999991467E+02 0.  0.
        -12    1    1    2    0    0  0.20710384533E+01 -0.17260907959E+02  0.26729996633E+02  0.31886060651E+02  0.00000000000E+00 0.  1.
         11    1    3    3    0    0  0.46103761349E+01  0.63022738539E+01 -0.20718077359E+02  0.22140753229E+02  0.51100000000E-03 0. -1.
        -11    1    3    3    0    0  0.74083271476E+01  0.19024898829E+02 -0.27400373439E+01  0.20599463379E+02  0.51100000000E-03 0.  1.
         12    1    3    3    0    0 -0.14089741736E+02 -0.80662647245E+01 -0.32718819297E+01  0.16561722741E+02  0.00000000000E+00 0. -1.
</event>
<event>
 7    1  0.3528441E-013  0.5930199E+02  0.7816164E-02  0.1266605E+00
        -11   -1    0    0    0    0  0.00000000000E+00  0.00000000000E+00  0.45593999997E+02  0.45594000000E+02  0.51100000000E-03 0.  1.
         11   -1    0    0    0    0 -0.00000000000E+00 -0.00000000000E+00 -0.45593999997E+02  0.45594000000E+02  0.51100000000E-03 0. -1.
    9900012    2    1    2    0    0  0.21755122579E+02  0.16712897855E+02 -0.16251504002E+02  0.59301989031E+02  0.50000082076E+02 0.  0.
        -12    1    1    2    0    0 -0.21755122579E+02 -0.16712897855E+02  0.16251504002E+02  0.31886010969E+02  0.00000000000E+00 0.  1.
         11    1    3    3    0    0  0.27194732272E+01  0.18622878110E+02  0.41293049302E+01  0.19268063815E+02  0.51100000000E-03 0. -1.
        -11    1    3    3    0    0  0.85997534224E+01  0.82913604713E+01  0.31417573327E+01  0.12352046664E+02  0.51100000000E-03 0.  1.
        -12    1    3    3    0    0  0.10435895930E+02 -0.10201340726E+02 -0.23522566265E+02  0.27681878552E+02  0.00000000000E+00 0.  1.
</event>
<event>
 7    1  0.3528441E-013  0.5930195E+02  0.7816164E-02  0.1266605E+00
        -11   -1    0    0    0    0  0.00000000000E+00  0.00000000000E+00  0.45593999997E+02  0.45594000000E+02  0.51100000000E-03 0.  1.
         11   -1    0    0    0    0 -0.00000000000E+00 -0.00000000000E+00 -0.45593999997E+02  0.45594000000E+02  0.51100000000E-03 0. -1.
    9900012    2    1    2    0    0  0.93594370947E+01  0.29698284076E+02  0.68653584399E+01  0.59301948405E+02  0.50000007983E+02 0.  0.
        -12    1    1    2    0    0 -0.93594370947E+01 -0.29698284076E+02 -0.68653584399E+01  0.31886051595E+02  0.00000000000E+00 0.  1.
         11    1    3    3    0    0  0.89439533643E+01  0.26059177728E+02 -0.59450634736E+01  0.28185436410E+02  0.51100000000E-03 0. -1.
        -11    1    3    3    0    0 -0.69639370355E+01 -0.63603627236E+01 -0.39719872323E+01  0.10233636492E+02  0.51100000000E-03 0.  1.
        -12    1    3    3    0    0  0.73794207658E+01  0.99994690722E+01  0.16782409146E+02  0.20882875504E+02  0.00000000000E+00 0.  1.
</event>
<event>
 7    1  0.3528441E-013  0.5930195E+02  0.7816164E-02  0.1266605E+00
        -11   -1    0    0    0    0  0.00000000000E+00  0.00000000000E+00  0.45593999997E+02  0.45594000000E+02  0.51100000000E-03 0. -1.
         11   -1    0    0    0    0 -0.00000000000E+00 -0.00000000000E+00 -0.45593999997E+02  0.45594000000E+02  0.51100000000E-03 0.  1.
    9900012    2    1    2    0    0  0.13958389128E+01  0.20709520175E+02  0.24205117901E+02  0.59301947802E+02  0.50000006884E+02 0.  0.
        -12    1    1    2    0    0 -0.13958389128E+01 -0.20709520175E+02 -0.24205117901E+02  0.31886052198E+02  0.00000000000E+00 0.  1.
         11    1    3    3    0    0 -0.59430528266E+01  0.10880707715E+02 -0.28268156074E+01  0.12716153664E+02  0.51100000000E-03 0. -1.
        -11    1    3    3    0    0  0.70803787331E+01  0.20198030823E+00 -0.77476412196E+01  0.10497547513E+02  0.51100000000E-03 0.  1.
         12    1    3    3    0    0  0.25851300635E+00  0.96268321521E+01  0.34779574728E+02  0.36088246626E+02  0.00000000000E+00 0. -1.
</event>
<event>
 7    1  0.3528441E-013  0.5930193E+02  0.7816164E-02  0.1266605E+00
        -11   -1    0    0    0    0  0.00000000000E+00  0.00000000000E+00  0.45593999997E+02  0.45594000000E+02  0.51100000000E-03 0.  1.
         11   -1    0    0    0    0 -0.00000000000E+00 -0.00000000000E+00 -0.45593999997E+02  0.45594000000E+02  0.51100000000E-03 0. -1.
    9900012    2    1    2    0    0 -0.62124943308E+01 -0.97966443256E+01 -0.29701044768E+02  0.59301931158E+02  0.49999976529E+02 0.  0.
        -12    1    1    2    0    0  0.62124943308E+01  0.97966443256E+01  0.29701044768E+02  0.31886068842E+02  0.00000000000E+00 0.  1.
         11    1    3    3    0    0  0.65333424719E+01  0.10425155194E+02 -0.17075979615E+02  0.21046555651E+02  0.51100000000E-03 0. -1.
        -11    1    3    3    0    0 -0.10226199272E+02 -0.10910767644E+02 -0.20795677417E+02  0.25614062576E+02  0.51100000000E-03 0.  1.
        -12    1    3    3    0    0 -0.25196375308E+01 -0.93110318759E+01  0.81706122637E+01  0.12641312932E+02  0.00000000000E+00 0.  1.
</event>
<event>
 7    1  0.3528441E-013  0.5930196E+02  0.7816164E-02  0.1266605E+00
        -11   -1    0    0    0    0  0.00000000000E+00  0.00000000000E+00  0.45593999997E+02  0.45594000000E+02  0.51100000000E-03 0.  1.
         11   -1    0    0    0    0 -0.00000000000E+00 -0.00000000000E+00 -0.45593999997E+02  0.45594000000E+02  0.51100000000E-03 0. -1.
    9900012    2    1    2    0    0  0.20207258387E+02 -0.16996671200E+02 -0.17874552918E+02  0.59301956573E+02  0.50000022880E+02 0.  0.
        -12    1    1    2    0    0 -0.20207258387E+02  0.16996671200E+02  0.17874552918E+02  0.31886043427E+02  0.00000000000E+00 0.  1.
         11    1    3    3    0    0  0.10923849383E+02 -0.48040799683E+01 -0.78978099940E+01  0.14310313506E+02  0.51100000000E-03 0. -1.
        -11    1    3    3    0    0  0.10833236471E+01 -0.25212886246E+02 -0.14303190711E+02  0.29007662569E+02  0.51100000000E-03 0.  1.
        -12    1    3    3    0    0  0.82000853570E+01  0.13020295013E+02  0.43264477876E+01  0.15983980498E+02  0.00000000000E+00 0.  1.
</event>
<event>
 7    1  0.3528441E-013  0.5930197E+02  0.7816164E-02  0.1266605E+00
        -11   -1    0    0    0    0  0.00000000000E+00  0.00000000000E+00  0.45593999997E+02  0.45594000000E+02  0.51100000000E-03 0. -1.
         11   -1    0    0    0    0 -0.00000000000E+00 -0.00000000000E+00 -0.45593999997E+02  0.45594000000E+02  0.51100000000E-03 0.  1.
    9900012    2    1    2    0    0 -0.18279846735E+02 -0.25781528258E+02  0.42283830234E+01  0.59301965142E+02  0.50000038507E+02 0.  0.
        -12    1    1    2    0    0  0.18279846735E+02  0.25781528258E+02 -0.42283830234E+01  0.31886034858E+02  0.00000000000E+00 0.  1.
         11    1    3    3    0    0 -0.39817513704E+01  0.52986737815E+01 -0.48769611442E+01  0.82289147572E+01  0.51100000000E-03 0. -1.
        -11    1    3    3    0    0 -0.65917697605E+01  0.79600484871E+01  0.42543167957E+00  0.10343828734E+02  0.51100000000E-03 0.  1.
         12    1    3    3    0    0 -0.77063256045E+01 -0.39040250527E+02  0.86799124880E+01  0.40729221651E+02  0.00000000000E+00 0. -1.
</event>
<event>
 7    1  0.3528441E-013  0.5930203E+02  0.7816164E-02  0.1266604E+00
        -11   -1    0    0    0    0  0.00000000000E+00  0.00000000000E+00  0.45593999997E+02  0.45594000000E+02  0.51100000000E-03 0. -1.
         11   -1    0    0    0    0 -0.00000000000E+00 -0.00000000000E+00 -0.45593999997E+02  0.45594000000E+02  0.51100000000E-03 0.  1.
    9900012    2    1    2    0    0 -0.29689273108E+02 -0.96291407193E+01 -0.65224270163E+01  0.59302025923E+02  0.50000149357E+02 0.  0.
        -12    1    1    2    0    0  0.29689273108E+02  0.96291407193E+01  0.65224270163E+01  0.31885974077E+02  0.00000000000E+00 0.  1.
         11    1    3    3    0    0 -0.38770201857E+02 -0.27953095561E+01  0.59599629046E+01  0.39325099690E+02  0.51100000000E-03 0. -1.
        -11    1    3    3    0    0 -0.12866038516E+01 -0.21526694279E+01  0.66201569320E+00  0.25937617809E+01  0.51100000000E-03 0.  1.
        -12    1    3    3    0    0  0.10367532601E+02 -0.46811617353E+01 -0.13144405614E+02  0.17383164452E+02  0.00000000000E+00 0.  1.
</event>
<event>
 7    1  0.3528441E-013  0.5930203E+02  0.7816164E-02  0.1266604E+00
        -11   -1    0    0    0    0  0.00000000000E+00  0.00000000000E+00  0.45593999997E+02  0.45594000000E+02  0.51100000000E-03 0. -1.
         11   -1    0    0    0    0 -0.00000000000E+00 -0.00000000000E+00 -0.45593999997E+02  0.45594000000E+02  0.51100000000E-03 0.  1.
    9900012    2    1    2    0    0 -0.16679999650E+02  0.36661059747E+01  0.26926792945E+02  0.59302032872E+02  0.50000162031E+02 0.  0.
        -12    1    1    2    0    0  0.16679999650E+02 -0.36661059747E+01 -0.26926792945E+02  0.31885967128E+02  0.00000000000E+00 0.  1.
         11    1    3    3    0    0 -0.48372526001E+01 -0.10888631639E+02  0.28433639253E+02  0.30829095886E+02  0.51100000000E-03 0. -1.
        -11    1    3    3    0    0 -0.14834352642E+02  0.13557322957E+02  0.54607314212E+01  0.20824951668E+02  0.51100000000E-03 0.  1.
        -12    1    3    3    0    0  0.29916055919E+01  0.99741465688E+00 -0.69675777293E+01  0.76479853183E+01  0.00000000000E+00 0.  1.
</event>
<event>
 7    1  0.3528441E-013  0.5930194E+02  0.7816164E-02  0.1266605E+00
        -11   -1    0    0    0    0  0.00000000000E+00  0.00000000000E+00  0.45593999997E+02  0.45594000000E+02  0.51100000000E-03 0. -1.
         11   -1    0    0    0    0 -0.00000000000E+00 -0.00000000000E+00 -0.45593999997E+02  0.45594000000E+02  0.51100000000E-03 0.  1.
    9900012    2    1    2    0    0 -0.16492048627E+02 -0.23524431217E+02  0.13832360365E+02  0.59301941522E+02  0.49999995430E+02 0.  0.
        -12    1    1    2    0    0  0.16492048627E+02  0.23524431217E+02 -0.13832360365E+02  0.31886058478E+02  0.00000000000E+00 0.  1.
         11    1    3    3    0    0 -0.21860452699E+01  0.49808733391E+01  0.13614072742E+02  0.14660520796E+02  0.51100000000E-03 0. -1.
        -11    1    3    3    0    0 -0.23455714111E+02 -0.21656520331E+02  0.48854191672E+01  0.32296171879E+02  0.51100000000E-03 0.  1.
         12    1    3    3    0    0  0.91497107541E+01 -0.68487842244E+01 -0.46671315436E+01  0.12345248846E+02  0.00000000000E+00 0. -1.
</event>
<event>
 7    1  0.3528441E-013  0.5930194E+02  0.7816164E-02  0.1266605E+00
        -11   -1    0    0    0    0  0.00000000000E+00  0.00000000000E+00  0.45593999997E+02  0.45594000000E+02  0.51100000000E-03 0.  1.
         11   -1    0    0    0    0 -0.00000000000E+00 -0.00000000000E+00 -0.45593999997E+02  0.45594000000E+02  0.51100000000E-03 0. -1.
    9900012    2    1    2    0    0 -0.31516523259E+02  0.35954488605E+01 -0.32407478274E+01  0.59301938197E+02  0.49999989366E+02 0.  0.
        -12    1    1    2    0    0  0.31516523259E+02 -0.35954488605E+01  0.32407478274E+01  0.31886061803E+02  0.00000000000E+00 0.  1.
         11    1    3    3    0    0 -0.14687694125E+02  0.18793108718E+02 -0.54169560722E+01  0.24459204961E+02  0.51100000000E-03 0. -1.
        -11    1    3    3    0    0 -0.15721748021E+02  0.28355530760E+01  0.45735969020E+01  0.16617205269E+02  0.51100000000E-03 0.  1.
         12    1    3    3    0    0 -0.11070811135E+01 -0.18033212933E+02 -0.23973886572E+01  0.18225527966E+02  0.00000000000E+00 0. -1.
</event>
<event>
 7    1  0.3528441E-013  0.5930173E+02  0.7816164E-02  0.1266606E+00
        -11   -1    0    0    0    0  0.00000000000E+00  0.00000000000E+00  0.45593999997E+02  0.45594000000E+02  0.51100000000E-03 0.  1.
         11   -1    0    0    0    0 -0.00000000000E+00 -0.00000000000E+00 -0.45593999997E+02  0.45594000000E+02  0.51100000000E-03 0. -1.
    9900012    2    1    2    0    0  0.16663571595E+02 -0.23720458769E+02 -0.13281544470E+02  0.59301730133E+02  0.49999609906E+02 0.  0.
        -12    1    1    2    0    0 -0.16663571595E+02  0.23720458769E+02  0.13281544470E+02  0.31886269867E+02  0.00000000000E+00 0.  1.
         11    1    3    3    0    0  0.52462139243E+01 -0.23361780667E+01  0.26837207556E+01  0.63389940728E+01  0.51100000000E-03 0. -1.
        -11    1    3    3    0    0  0.19616651379E+01  0.12893918667E+02  0.18808324652E+01  0.13177207585E+02  0.51100000000E-03 0.  1.
        -12    1    3    3    0    0  0.94556925332E+01 -0.34278199369E+02 -0.17846097691E+02  0.39785528475E+02  0.00000000000E+00 0.  1.
</event>
<event>
 7    1  0.3528441E-013  0.5930193E+02  0.7816164E-02  0.1266605E+00
        -11   -1    0    0    0    0  0.00000000000E+00  0.00000000000E+00  0.45593999997E+02  0.45594000000E+02  0.51100000000E-03 0. -1.
         11   -1    0    0    0    0 -0.00000000000E+00 -0.00000000000E+00 -0.45593999997E+02  0.45594000000E+02  0.51100000000E-03 0.  1.
    9900012    2    1    2    0    0  0.77501737203E+01  0.29326002487E+02  0.98306518854E+01  0.59301932023E+02  0.49999978106E+02 0.  0.
        -12    1    1    2    0    0 -0.77501737203E+01 -0.29326002487E+02 -0.98306518854E+01  0.31886067977E+02  0.00000000000E+00 0.  1.
         11    1    3    3    0    0  0.26208907062E+01  0.89215071490E+00  0.32234849904E+01  0.42492183677E+01  0.51100000000E-03 0. -1.
        -11    1    3    3    0    0  0.72471185825E+01 -0.69269925760E+01  0.15564375523E+02  0.18513609577E+02  0.51100000000E-03 0.  1.
         12    1    3    3    0    0 -0.21178355684E+01  0.35360844348E+02 -0.89572086275E+01  0.36539104079E+02  0.00000000000E+00 0. -1.
</event>
<event>
 7    1  0.3528441E-013  0.5930194E+02  0.7816164E-02  0.1266605E+00
        -11   -1    0    0    0    0  0.00000000000E+00  0.00000000000E+00  0.45593999997E+02  0.45594000000E+02  0.51100000000E-03 0.  1.
         11   -1    0    0    0    0 -0.00000000000E+00 -0.00000000000E+00 -0.45593999997E+02  0.45594000000E+02  0.51100000000E-03 0. -1.
    9900012    2    1    2    0    0 -0.31135287891E+02  0.29600936476E+01  0.62090835399E+01  0.59301936824E+02  0.49999986862E+02 0.  0.
        -12    1    1    2    0    0  0.31135287891E+02 -0.29600936476E+01 -0.62090835399E+01  0.31886063176E+02  0.00000000000E+00 0.  1.
         11    1    3    3    0    0  0.23313915172E+01 -0.53916123526E+01 -0.12142085065E+02  0.13488332000E+02  0.51100000000E-03 0. -1.
        -11    1    3    3    0    0  0.10941541811E+01  0.27742861431E+01 -0.34592905663E+01  0.45673327510E+01  0.51100000000E-03 0.  1.
         12    1    3    3    0    0 -0.34560833589E+02  0.55774198572E+01  0.21810459171E+02  0.41246272073E+02  0.00000000000E+00 0. -1.
</event>
<event>
 7    1  0.3528441E-013  0.5930194E+02  0.7816164E-02  0.1266605E+00
        -11   -1    0    0    0    0  0.00000000000E+00  0.00000000000E+00  0.45593999997E+02  0.45594000000E+02  0.51100000000E-03 0.  1.
         11   -1    0    0    0    0 -0.00000000000E+00 -0.00000000000E+00 -0.45593999997E+02  0.45594000000E+02  0.51100000000E-03 0. -1.
    9900012    2    1    2    0    0 -0.28364070202E+02 -0.32432103233E+01 -0.14201466075E+02  0.59301944580E+02  0.50000001006E+02 0.  0.
        -12    1    1    2    0    0  0.28364070202E+02  0.32432103233E+01  0.14201466075E+02  0.31886055420E+02  0.00000000000E+00 0.  1.
         11    1    3    3    0    0  0.20463158919E+01 -0.10948499837E+02 -0.65343683799E+01  0.12913366245E+02  0.51100000000E-03 0. -1.
        -11    1    3    3    0    0  0.22416207445E+00  0.57803965199E+01 -0.13910255785E+02  0.15065140186E+02  0.51100000000E-03 0.  1.
         12    1    3    3    0    0 -0.30634548168E+02  0.19248929934E+01  0.62431580901E+01  0.31323438148E+02  0.00000000000E+00 0. -1.
</event>
<event>
 7    1  0.3528441E-013  0.5930215E+02  0.7816164E-02  0.1266604E+00
        -11   -1    0    0    0    0  0.00000000000E+00  0.00000000000E+00  0.45593999997E+02  0.45594000000E+02  0.51100000000E-03 0. -1.
         11   -1    0    0    0    0 -0.00000000000E+00 -0.00000000000E+00 -0.45593999997E+02  0.45594000000E+02  0.51100000000E-03 0.  1.
    9900012    2    1    2    0    0  0.23478713883E+02 -0.20467821992E+02 -0.68209774018E+01  0.59302149291E+02  0.50000374350E+02 0.  0.
        -12    1    1    2    0    0 -0.23478713883E+02  0.20467821992E+02  0.68209774018E+01  0.31885850709E+02  0.00000000000E+00 0.  1.
         11    1    3    3    0    0 -0.74738962216E+01 -0.86953554020E+01  0.79541739662E+01  0.13954827625E+02  0.51100000000E-03 0. -1.
        -11    1    3    3    0    0  0.96362377563E+01  0.51913339781E+01 -0.14418391187E+02  0.18102404019E+02  0.51100000000E-03 0.  1.
         12    1    3    3    0    0  0.21316372348E+02 -0.16963800568E+02 -0.35676018076E+00  0.27244917648E+02  0.00000000000E+00 0. -1.
</event>
<event>
 7    1  0.3528441E-013  0.5930196E+02  0.7816164E-02  0.1266605E+00
        -11   -1    0    0    0    0  0.00000000000E+00  0.00000000000E+00  0.45593999997E+02  0.45594000000E+02  0.51100000000E-03 0.  1.
         11   -1    0    0    0    0 -0.00000000000E+00 -0.00000000000E+00 -0.45593999997E+02  0.45594000000E+02  0.51100000000E-03 0. -1.
    9900012    2    1    2    0    0 -0.16361451292E+02  0.16106814431E+02 -0.22126741068E+02  0.59301964972E+02  0.50000038198E+02 0.  0.
        -12    1    1    2    0    0  0.16361451292E+02 -0.16106814431E+02  0.22126741068E+02  0.31886035028E+02  0.00000000000E+00 0.  1.
         11    1    3    3    0    0 -0.65819583018E+00 -0.81396117222E+01 -0.30923124120E+01  0.87320614436E+01  0.51100000000E-03 0. -1.
        -11    1    3    3    0    0  0.11751272992E+02  0.11720784066E+02 -0.53784747923E+01  0.17446982186E+02  0.51100000000E-03 0.  1.
         12    1    3    3    0    0 -0.27454528454E+02  0.12525642087E+02 -0.13655953864E+02  0.33122921343E+02  0.00000000000E+00 0. -1.
</event>
<event>
 7    1  0.3528441E-013  0.5930194E+02  0.7816164E-02  0.1266605E+00
        -11   -1    0    0    0    0  0.00000000000E+00  0.00000000000E+00  0.45593999997E+02  0.45594000000E+02  0.51100000000E-03 0. -1.
         11   -1    0    0    0    0 -0.00000000000E+00 -0.00000000000E+00 -0.45593999997E+02  0.45594000000E+02  0.51100000000E-03 0.  1.
    9900012    2    1    2    0    0 -0.45204538935E+01 -0.23455546061E+02  0.21121632726E+02  0.59301944843E+02  0.50000001487E+02 0.  0.
        -12    1    1    2    0    0  0.45204538935E+01  0.23455546061E+02 -0.21121632726E+02  0.31886055157E+02  0.00000000000E+00 0.  1.
         11    1    3    3    0    0 -0.17937478811E+02 -0.13070237550E+02  0.77050551832E+01  0.23493661514E+02  0.51100000000E-03 0. -1.
        -11    1    3    3    0    0 -0.45574462995E+01  0.57525584055E+01 -0.13983600994E+01  0.74711214828E+01  0.51100000000E-03 0.  1.
        -12    1    3    3    0    0  0.17974471217E+02 -0.16137866917E+02  0.14814937642E+02  0.28337161846E+02  0.00000000000E+00 0.  1.
</event>
<event>
 7    1  0.3528441E-013  0.5930195E+02  0.7816164E-02  0.1266605E+00
        -11   -1    0    0    0    0  0.00000000000E+00  0.00000000000E+00  0.45593999997E+02  0.45594000000E+02  0.51100000000E-03 0.  1.
         11   -1    0    0    0    0 -0.00000000000E+00 -0.00000000000E+00 -0.45593999997E+02  0.45594000000E+02  0.51100000000E-03 0. -1.
    9900012    2    1    2    0    0  0.18318032326E+01 -0.28293597650E+02  0.14588941406E+02  0.59301946899E+02  0.50000005236E+02 0.  0.
        -12    1    1    2    0    0 -0.18318032326E+01  0.28293597650E+02 -0.14588941406E+02  0.31886053101E+02  0.00000000000E+00 0.  1.
         11    1    3    3    0    0 -0.11949944418E+02 -0.93378719514E+01  0.19440164258E+02  0.24655973126E+02  0.51100000000E-03 0. -1.
        -11    1    3    3    0    0 -0.55526575473E+01 -0.72399302667E+00 -0.57898097859E+01  0.80546923814E+01  0.51100000000E-03 0.  1.
        -12    1    3    3    0    0  0.19334405198E+02 -0.18231732672E+02  0.93858693394E+00  0.26591281391E+02  0.00000000000E+00 0.  1.
</event>
<event>
 7    1  0.3528441E-013  0.5930193E+02  0.7816164E-02  0.1266605E+00
        -11   -1    0    0    0    0  0.00000000000E+00  0.00000000000E+00  0.45593999997E+02  0.45594000000E+02  0.51100000000E-03 0. -1.
         11   -1    0    0    0    0 -0.00000000000E+00 -0.00000000000E+00 -0.45593999997E+02  0.45594000000E+02  0.51100000000E-03 0.  1.
    9900012    2    1    2    0    0  0.18184491491E+02  0.56592285276E+01  0.25573791657E+02  0.59301930659E+02  0.49999975619E+02 0.  0.
        -12    1    1    2    0    0 -0.18184491491E+02 -0.56592285276E+01 -0.25573791657E+02  0.31886069341E+02  0.00000000000E+00 0.  1.
         11    1    3    3    0    0 -0.34900093960E+01  0.10105078600E+02  0.11265728642E+02  0.15530918234E+02  0.51100000000E-03 0. -1.
        -11    1    3    3    0    0 -0.95508153912E+01 -0.24102970375E+01  0.54135940616E+01  0.11239866875E+02  0.51100000000E-03 0.  1.
         12    1    3    3    0    0  0.31225316278E+02 -0.20355530349E+01  0.88944689531E+01  0.32531145550E+02  0.00000000000E+00 0. -1.
</event>
<event>
 7    1  0.3528441E-013  0.5930194E+02  0.7816164E-02  0.1266605E+00
        -11   -1    0    0    0    0  0.00000000000E+00  0.00000000000E+00  0.45593999997E+02  0.45594000000E+02  0.51100000000E-03 0.  1.
         11   -1    0    0    0    0 -0.00000000000E+00 -0.00000000000E+00 -0.45593999997E+02  0.45594000000E+02  0.51100000000E-03 0. -1.
    9900012    2    1    2    0    0 -0.15454926455E+02 -0.54412696658E+01 -0.27354314585E+02  0.59301942017E+02  0.49999996332E+02 0.  0.
        -12    1    1    2    0    0  0.15454926455E+02  0.54412696658E+01  0.27354314585E+02  0.31886057983E+02  0.00000000000E+00 0.  1.
         11    1    3    3    0    0 -0.14383941006E+02  0.11678743966E+02 -0.24020621012E+02  0.30336134453E+02  0.51100000000E-03 0. -1.
        -11    1    3    3    0    0 -0.10549584899E+02 -0.27757920773E+01 -0.43471346467E+01  0.11742927365E+02  0.51100000000E-03 0.  1.
        -12    1    3    3    0    0  0.94785994498E+01 -0.14344221555E+02  0.10134410735E+01  0.17222880199E+02  0.00000000000E+00 0.  1.
</event>
<event>
 7    1  0.3528441E-013  0.5930179E+02  0.7816164E-02  0.1266605E+00
        -11   -1    0    0    0    0  0.00000000000E+00  0.00000000000E+00  0.45593999997E+02  0.45594000000E+02  0.51100000000E-03 0.  1.
         11   -1    0    0    0    0 -0.00000000000E+00 -0.00000000000E+00 -0.45593999997E+02  0.45594000000E+02  0.51100000000E-03 0. -1.
    9900012    2    1    2    0    0 -0.17693484789E+02 -0.22026093374E+02 -0.14782494313E+02  0.59301790890E+02  0.49999720713E+02 0.  0.
        -12    1    1    2    0    0  0.17693484789E+02  0.22026093374E+02  0.14782494313E+02  0.31886209110E+02  0.00000000000E+00 0.  1.
         11    1    3    3    0    0  0.57698706351E+01 -0.65166751644E+01  0.33877111183E+00  0.87105240067E+01  0.51100000000E-03 0. -1.
        -11    1    3    3    0    0 -0.19383537080E+02  0.82027099737E+01  0.18780836415E+01  0.21131331218E+02  0.51100000000E-03 0.  1.
         12    1    3    3    0    0 -0.40798183441E+01 -0.23712128183E+02 -0.16999349066E+02  0.29459935665E+02  0.00000000000E+00 0. -1.
</event>
<event>
 7    1  0.3528441E-013  0.5930197E+02  0.7816164E-02  0.1266605E+00
        -11   -1    0    0    0    0  0.00000000000E+00  0.00000000000E+00  0.45593999997E+02  0.45594000000E+02  0.51100000000E-03 0. -1.
         11   -1    0    0    0    0 -0.00000000000E+00 -0.00000000000E+00 -0.45593999997E+02  0.45594000000E+02  0.51100000000E-03 0.  1.
    9900012    2    1    2    0    0 -0.17311445863E+02  0.63349775850E+01  0.26017321234E+02  0.59301966959E+02  0.50000041822E+02 0.  0.
        -12    1    1    2    0    0  0.17311445863E+02 -0.63349775850E+01 -0.26017321234E+02  0.31886033041E+02  0.00000000000E+00 0.  1.
         11    1    3    3    0    0 -0.59598247723E+01  0.39160445322E+01  0.12966208376E+02  0.14797887553E+02  0.51100000000E-03 0. -1.
        -11    1    3    3    0    0 -0.10448946994E+02 -0.13125906106E+02  0.21115112011E+02  0.26968831267E+02  0.51100000000E-03 0.  1.
        -12    1    3    3    0    0 -0.90267409624E+00  0.15544839159E+02 -0.80639991535E+01  0.17535248140E+02  0.00000000000E+00 0.  1.
</event>
<event>
 7    1  0.3528441E-013  0.5930196E+02  0.7816164E-02  0.1266605E+00
        -11   -1    0    0    0    0  0.00000000000E+00  0.00000000000E+00  0.45593999997E+02  0.45594000000E+02  0.51100000000E-03 0. -1.
         11   -1    0    0    0    0 -0.00000000000E+00 -0.00000000000E+00 -0.45593999997E+02  0.45594000000E+02  0.51100000000E-03 0.  1.
    9900012    2    1    2    0    0  0.30431711088E+02  0.60193025527E+01 -0.73755401345E+01  0.59301958614E+02  0.50000026602E+02 0.  0.
        -12    1    1    2    0    0 -0.30431711088E+02 -0.60193025527E+01  0.73755401345E+01  0.31886041386E+02  0.00000000000E+00 0.  1.
         11    1    3    3    0    0 -0.55778697203E+01  0.10945490645E+02 -0.69180745548E+01  0.14098799661E+02  0.51100000000E-03 0. -1.
        -11    1    3    3    0    0  0.93666294830E+00  0.71368548128E+01 -0.34714991147E+01  0.79914542145E+01  0.51100000000E-03 0.  1.
         12    1    3    3    0    0  0.35072917860E+02 -0.12063042906E+02  0.30140335350E+01  0.37211704738E+02  0.00000000000E+00 0. -1.
</event>
<event>
 7    1  0.3528441E-013  0.5930194E+02  0.7816164E-02  0.1266605E+00
        -11   -1    0    0    0    0  0.00000000000E+00  0.00000000000E+00  0.45593999997E+02  0.45594000000E+02  0.51100000000E-03 0.  1.
         11   -1    0    0    0    0 -0.00000000000E+00 -0.00000000000E+00 -0.45593999997E+02  0.45594000000E+02  0.51100000000E-03 0. -1.
    9900012    2    1    2    0    0  0.62633856243E+01  0.11182143681E+02 -0.29196750270E+02  0.59301944065E+02  0.50000000067E+02 0.  0.
        -12    1    1    2    0    0 -0.62633856243E+01 -0.11182143681E+02  0.29196750270E+02  0.31886055935E+02  0.00000000000E+00 0.  1.
         11    1    3    3    0    0  0.29901478322E+00 -0.11568383947E+02 -0.81992178147E+01  0.14182527631E+02  0.51100000000E-03 0. -1.
        -11    1    3    3    0    0 -0.67046102400E+01 -0.24871912040E+01 -0.14462746933E+02  0.16134093332E+02  0.51100000000E-03 0.  1.
        -12    1    3    3    0    0  0.12668981081E+02  0.25237718831E+02 -0.65347855229E+01  0.28985323101E+02  0.00000000000E+00 0.  1.
</event>
<event>
 7    1  0.3528441E-013  0.5930194E+02  0.7816164E-02  0.1266605E+00
        -11   -1    0    0    0    0  0.00000000000E+00  0.00000000000E+00  0.45593999997E+02  0.45594000000E+02  0.51100000000E-03 0.  1.
         11   -1    0    0    0    0 -0.00000000000E+00 -0.00000000000E+00 -0.45593999997E+02  0.45594000000E+02  0.51100000000E-03 0. -1.
    9900012    2    1    2    0    0 -0.17055446239E+02 -0.24593938228E+02 -0.10998659773E+02  0.59301944101E+02  0.50000000134E+02 0.  0.
        -12    1    1    2    0    0  0.17055446239E+02  0.24593938228E+02  0.10998659773E+02  0.31886055899E+02  0.00000000000E+00 0.  1.
         11    1    3    3    0    0 -0.11097120513E+02 -0.21841889220E+02  0.92671913638E+01  0.26193416051E+02  0.51100000000E-03 0. -1.
        -11    1    3    3    0    0 -0.75118307938E+01  0.49639932357E+01  0.22296753037E+01  0.92757901518E+01  0.51100000000E-03 0.  1.
         12    1    3    3    0    0  0.15535050682E+01 -0.77160422442E+01 -0.22495526440E+02  0.23832737898E+02  0.00000000000E+00 0. -1.
</event>
<event>
 7    1  0.3528441E-013  0.5930200E+02  0.7816164E-02  0.1266605E+00
        -11   -1    0    0    0    0  0.00000000000E+00  0.00000000000E+00  0.45593999997E+02  0.45594000000E+02  0.51100000000E-03 0. -1.
         11   -1    0    0    0    0 -0.00000000000E+00 -0.00000000000E+00 -0.45593999997E+02  0.45594000000E+02  0.51100000000E-03 0.  1.
    9900012    2    1    2    0    0  0.17959200032E+02 -0.19610045220E+02  0.17596316098E+02  0.59301998690E+02  0.50000099692E+02 0.  0.
        -12    1    1    2    0    0 -0.17959200032E+02  0.19610045220E+02 -0.17596316098E+02  0.31886001310E+02  0.00000000000E+00 0.  1.
         11    1    3    3    0    0  0.13975460424E+02 -0.59833021568E+01 -0.93279015101E+01  0.17836006998E+02  0.51100000000E-03 0. -1.
        -11    1    3    3    0    0  0.64294589544E+00  0.84908322291E+01  0.11439434228E+02  0.14260724634E+02  0.51100000000E-03 0.  1.
         12    1    3    3    0    0  0.33407937118E+01 -0.22117575292E+02  0.15484783380E+02  0.27205267059E+02  0.00000000000E+00 0. -1.
</event>
<event>
 7    1  0.3528441E-013  0.5930200E+02  0.7816164E-02  0.1266605E+00
        -11   -1    0    0    0    0  0.00000000000E+00  0.00000000000E+00  0.45593999997E+02  0.45594000000E+02  0.51100000000E-03 0. -1.
         11   -1    0    0    0    0 -0.00000000000E+00 -0.00000000000E+00 -0.45593999997E+02  0.45594000000E+02  0.51100000000E-03 0.  1.
    9900012    2    1    2    0    0 -0.13158044905E+02  0.93394022576E+01  0.27501968594E+02  0.59302002183E+02  0.50000106062E+02 0.  0.
        -12    1    1    2    0    0  0.13158044905E+02 -0.93394022576E+01 -0.27501968594E+02  0.31885997817E+02  0.00000000000E+00 0.  1.
         11    1    3    3    0    0  0.85112098586E+00 -0.57255402222E+00 -0.78878989478E+01  0.79543180168E+01  0.51100000000E-03 0. -1.
        -11    1    3    3    0    0  0.42906007011E+01 -0.60929255369E+01  0.22765265848E+02  0.23953920877E+02  0.51100000000E-03 0.  1.
         12    1    3    3    0    0 -0.18299766592E+02  0.16004881817E+02  0.12624601693E+02  0.27393763290E+02  0.00000000000E+00 0. -1.
</event>
<event>
 7    1  0.3528441E-013  0.5930154E+02  0.7816164E-02  0.1266606E+00
        -11   -1    0    0    0    0  0.00000000000E+00  0.00000000000E+00  0.45593999997E+02  0.45594000000E+02  0.51100000000E-03 0. -1.
         11   -1    0    0    0    0 -0.00000000000E+00 -0.00000000000E+00 -0.45593999997E+02  0.45594000000E+02  0.51100000000E-03 0.  1.
    9900012    2    1    2    0    0 -0.14247868086E+02 -0.10580955739E+01  0.28506582399E+02  0.59301536551E+02  0.49999256854E+02 0.  0.
        -12    1    1    2    0    0  0.14247868086E+02  0.10580955739E+01 -0.28506582399E+02  0.31886463449E+02  0.00000000000E+00 0.  1.
         11    1    3    3    0    0 -0.13534880935E+02  0.68190145671E+00  0.36775120685E+02  0.39192696937E+02  0.51100000000E-03 0. -1.
        -11    1    3    3    0    0 -0.85742076219E+01 -0.48510493635E+01 -0.49660079424E+01  0.11032268643E+02  0.51100000000E-03 0.  1.
        -12    1    3    3    0    0  0.78612204710E+01  0.31110523329E+01 -0.33025303439E+01  0.90765709706E+01  0.00000000000E+00 0.  1.
</event>
<event>
 7    1  0.3528441E-013  0.5930196E+02  0.7816164E-02  0.1266605E+00
        -11   -1    0    0    0    0  0.00000000000E+00  0.00000000000E+00  0.45593999997E+02  0.45594000000E+02  0.51100000000E-03 0.  1.
         11   -1    0    0    0    0 -0.00000000000E+00 -0.00000000000E+00 -0.45593999997E+02  0.45594000000E+02  0.51100000000E-03 0. -1.
    9900012    2    1    2    0    0  0.24835212089E+02 -0.80948240121E+01 -0.18286767404E+02  0.59301956072E+02  0.50000021967E+02 0.  0.
        -12    1    1    2    0    0 -0.24835212089E+02  0.80948240121E+01  0.18286767404E+02  0.31886043928E+02  0.00000000000E+00 0.  1.
         11    1    3    3    0    0  0.12650183539E+01 -0.18292552262E+02 -0.11831631888E+02  0.21822127603E+02  0.51100000000E-03 0. -1.
        -11    1    3    3    0    0  0.68195524972E+01 -0.16865945726E+01  0.92569606479E+01  0.11620766679E+02  0.51100000000E-03 0.  1.
         12    1    3    3    0    0  0.16750641238E+02  0.11884322823E+02 -0.15712096163E+02  0.25859061790E+02  0.00000000000E+00 0. -1.
</event>
<event>
 7    1  0.3528441E-013  0.5930194E+02  0.7816164E-02  0.1266605E+00
        -11   -1    0    0    0    0  0.00000000000E+00  0.00000000000E+00  0.45593999997E+02  0.45594000000E+02  0.51100000000E-03 0.  1.
         11   -1    0    0    0    0 -0.00000000000E+00 -0.00000000000E+00 -0.45593999997E+02  0.45594000000E+02  0.51100000000E-03 0. -1.
    9900012    2    1    2    0    0  0.14720961911E+02 -0.46653593735E+01 -0.27897106641E+02  0.59301939463E+02  0.49999991675E+02 0.  0.
        -12    1    1    2    0    0 -0.14720961911E+02  0.46653593735E+01  0.27897106641E+02  0.31886060537E+02  0.00000000000E+00 0.  1.
         11    1    3    3    0    0  0.20772616662E+00  0.11703994221E+02  0.31838726238E+01  0.12131103661E+02  0.51100000000E-03 0. -1.
        -11    1    3    3    0    0 -0.59619873406E+01 -0.96591089271E+01 -0.19865955424E+02  0.22880119394E+02  0.51100000000E-03 0.  1.
        -12    1    3    3    0    0  0.20475223085E+02 -0.67102446676E+01 -0.11215023841E+02  0.24290716408E+02  0.00000000000E+00 0.  1.
</event>
<event>
 7    1  0.3528441E-013  0.5930196E+02  0.7816164E-02  0.1266605E+00
        -11   -1    0    0    0    0  0.00000000000E+00  0.00000000000E+00  0.45593999997E+02  0.45594000000E+02  0.51100000000E-03 0. -1.
         11   -1    0    0    0    0 -0.00000000000E+00 -0.00000000000E+00 -0.45593999997E+02  0.45594000000E+02  0.51100000000E-03 0.  1.
    9900012    2    1    2    0    0  0.66885544867E+00 -0.12136235806E+02  0.29478533960E+02  0.59301959926E+02  0.50000028996E+02 0.  0.
        -12    1    1    2    0    0 -0.66885544867E+00  0.12136235806E+02 -0.29478533960E+02  0.31886040074E+02  0.00000000000E+00 0.  1.
         11    1    3    3    0    0  0.49740189186E+01 -0.84524515296E+01  0.32922270107E+02  0.34352011154E+02  0.51100000000E-03 0. -1.
        -11    1    3    3    0    0 -0.61249210107E-01 -0.12660567965E+02  0.31297159599E+01  0.13041811796E+02  0.51100000000E-03 0.  1.
         12    1    3    3    0    0 -0.42439142599E+01  0.89767836887E+01 -0.65734521074E+01  0.11908136976E+02  0.00000000000E+00 0. -1.
</event>
<event>
 7    1  0.3528441E-013  0.5930199E+02  0.7816164E-02  0.1266605E+00
        -11   -1    0    0    0    0  0.00000000000E+00  0.00000000000E+00  0.45593999997E+02  0.45594000000E+02  0.51100000000E-03 0.  1.
         11   -1    0    0    0    0 -0.00000000000E+00 -0.00000000000E+00 -0.45593999997E+02  0.45594000000E+02  0.51100000000E-03 0. -1.
    9900012    2    1    2    0    0  0.14885656067E+01 -0.30088586649E+02 -0.10448871579E+02  0.59301987528E+02  0.50000079334E+02 0.  0.
        -12    1    1    2    0    0 -0.14885656067E+01  0.30088586649E+02  0.10448871579E+02  0.31886012472E+02  0.00000000000E+00 0.  1.
         11    1    3    3    0    0 -0.14138796496E+01 -0.16164635262E+01 -0.85283512820E+01  0.87945884409E+01  0.51100000000E-03 0. -1.
        -11    1    3    3    0    0 -0.12995409269E+02 -0.70094491702E+01 -0.14755406612E+02  0.20874267994E+02  0.51100000000E-03 0.  1.
        -12    1    3    3    0    0  0.15897854525E+02 -0.21462673952E+02  0.12834886315E+02  0.29633131093E+02  0.00000000000E+00 0.  1.
</event>
<event>
 7    1  0.3528441E-013  0.5930193E+02  0.7816164E-02  0.1266605E+00
        -11   -1    0    0    0    0  0.00000000000E+00  0.00000000000E+00  0.45593999997E+02  0.45594000000E+02  0.51100000000E-03 0. -1.
         11   -1    0    0    0    0 -0.00000000000E+00 -0.00000000000E+00 -0.45593999997E+02  0.45594000000E+02  0.51100000000E-03 0.  1.
    9900012    2    1    2    0    0  0.12368103080E+02 -0.28716063916E+02 -0.62561165903E+01  0.59301932582E+02  0.49999979125E+02 0.  0.
        -12    1    1    2    0    0 -0.12368103080E+02  0.28716063916E+02  0.62561165903E+01  0.31886067418E+02  0.00000000000E+00 0.  1.
         11    1    3    3    0    0  0.22533726509E+01 -0.21326067008E+02  0.47888253499E+01  0.21972975921E+02  0.51100000000E-03 0. -1.
        -11    1    3    3    0    0 -0.13425047034E+01 -0.11881949060E+02  0.81905136225E+01  0.14493707117E+02  0.51100000000E-03 0.  1.
         12    1    3    3    0    0  0.11457235132E+02  0.44919521518E+01 -0.19235455563E+02  0.22835249543E+02  0.00000000000E+00 0. -1.
</event>
<event>
 7    1  0.3528441E-013  0.5930193E+02  0.7816164E-02  0.1266605E+00
        -11   -1    0    0    0    0  0.00000000000E+00  0.00000000000E+00  0.45593999997E+02  0.45594000000E+02  0.51100000000E-03 0.  1.
         11   -1    0    0    0    0 -0.00000000000E+00 -0.00000000000E+00 -0.45593999997E+02  0.45594000000E+02  0.51100000000E-03 0. -1.
    9900012    2    1    2    0    0 -0.12840011549E+02  0.82369315318E+01 -0.28000146938E+02  0.59301934608E+02  0.49999982820E+02 0.  0.
        -12    1    1    2    0    0  0.12840011549E+02 -0.82369315318E+01  0.28000146938E+02  0.31886065392E+02  0.00000000000E+00 0.  1.
         11    1    3    3    0    0 -0.14037670578E+02  0.63940334539E+01 -0.12074316565E+02  0.19589001501E+02  0.51100000000E-03 0. -1.
        -11    1    3    3    0    0  0.14346418487E+00 -0.15023466274E+02  0.19070702006E+01  0.15144703294E+02  0.51100000000E-03 0.  1.
         12    1    3    3    0    0  0.10541948443E+01  0.16866364352E+02 -0.17832900574E+02  0.24568229812E+02  0.00000000000E+00 0. -1.
</event>
<event>
 7    1  0.3528441E-013  0.5930194E+02  0.7816164E-02  0.1266605E+00
        -11   -1    0    0    0    0  0.00000000000E+00  0.00000000000E+00  0.45593999997E+02  0.45594000000E+02  0.51100000000E-03 0.  1.
         11   -1    0    0    0    0 -0.00000000000E+00 -0.00000000000E+00 -0.45593999997E+02  0.45594000000E+02  0.51100000000E-03 0. -1.
    9900012    2    1    2    0    0  0.29265615793E+02 -0.68018322762E+01  0.10676120464E+02  0.59301941319E+02  0.49999995060E+02 0.  0.
        -12    1    1    2    0    0 -0.29265615793E+02  0.68018322762E+01 -0.10676120464E+02  0.31886058681E+02  0.00000000000E+00 0.  1.
         11    1    3    3    0    0 -0.77920912093E+01 -0.71662940725E+01 -0.48663891475E+01  0.11651360425E+02  0.51100000000E-03 0. -1.
        -11    1    3    3    0    0  0.11659765461E-01  0.44908985077E+01  0.86460556148E+01  0.97428221431E+01  0.51100000000E-03 0.  1.
         12    1    3    3    0    0  0.37046047237E+02 -0.41264367115E+01  0.68964539968E+01  0.37907758751E+02  0.00000000000E+00 0. -1.
</event>
<event>
 7    1  0.3528441E-013  0.5930195E+02  0.7816164E-02  0.1266605E+00
        -11   -1    0    0    0    0  0.00000000000E+00  0.00000000000E+00  0.45593999997E+02  0.45594000000E+02  0.51100000000E-03 0. -1.
         11   -1    0    0    0    0 -0.00000000000E+00 -0.00000000000E+00 -0.45593999997E+02  0.45594000000E+02  0.51100000000E-03 0.  1.
    9900012    2    1    2    0    0  0.24129429500E+02  0.11146856497E+02  0.17613587869E+02  0.59301948890E+02  0.50000008867E+02 0.  0.
        -12    1    1    2    0    0 -0.24129429500E+02 -0.11146856497E+02 -0.17613587869E+02  0.31886051110E+02  0.00000000000E+00 0.  1.
         11    1    3    3    0    0 -0.17987930495E+01  0.14424888969E+02  0.14433162849E+02  0.20484854607E+02  0.51100000000E-03 0. -1.
        -11    1    3    3    0    0  0.71343658369E+01 -0.42270717850E+01 -0.12036499606E+02  0.14616587659E+02  0.51100000000E-03 0.  1.
        -12    1    3    3    0    0  0.18793856713E+02  0.94903931350E+00  0.15216924626E+02  0.24200506623E+02  0.00000000000E+00 0.  1.
</event>
<event>
 7    1  0.3528441E-013  0.5930193E+02  0.7816164E-02  0.1266605E+00
        -11   -1    0    0    0    0  0.00000000000E+00  0.00000000000E+00  0.45593999997E+02  0.45594000000E+02  0.51100000000E-03 0.  1.
         11   -1    0    0    0    0 -0.00000000000E+00 -0.00000000000E+00 -0.45593999997E+02  0.45594000000E+02  0.51100000000E-03 0. -1.
    9900012    2    1    2    0    0  0.30027875353E+02 -0.69255840876E+01 -0.81905122259E+01  0.59301929315E+02  0.49999973168E+02 0.  0.
        -12    1    1    2    0    0 -0.30027875353E+02  0.69255840876E+01  0.81905122259E+01  0.31886070685E+02  0.00000000000E+00 0.  1.
         11    1    3    3    0    0  0.59468543661E+00  0.57831312160E+01 -0.22365111391E+01  0.62289838470E+01  0.51100000000E-03 0. -1.
        -11    1    3    3    0    0  0.10428871941E+02  0.76106596210E+01 -0.18494993241E+02  0.22555449122E+02  0.51100000000E-03 0.  1.
        -12    1    3    3    0    0  0.19004317975E+02 -0.20319374925E+02  0.12540992154E+02  0.30517496346E+02  0.00000000000E+00 0.  1.
</event>
<event>
 7    1  0.3528441E-013  0.5930194E+02  0.7816164E-02  0.1266605E+00
        -11   -1    0    0    0    0  0.00000000000E+00  0.00000000000E+00  0.45593999997E+02  0.45594000000E+02  0.51100000000E-03 0. -1.
         11   -1    0    0    0    0 -0.00000000000E+00 -0.00000000000E+00 -0.45593999997E+02  0.45594000000E+02  0.51100000000E-03 0.  1.
    9900012    2    1    2    0    0 -0.26555520810E+02 -0.13946426012E+02  0.10817694304E+02  0.59301937307E+02  0.49999987744E+02 0.  0.
        -12    1    1    2    0    0  0.26555520810E+02  0.13946426012E+02 -0.10817694304E+02  0.31886062693E+02  0.00000000000E+00 0.  1.
         11    1    3    3    0    0 -0.24498347497E+02 -0.61933452710E+01 -0.21101934836E+01  0.25357039901E+02  0.51100000000E-03 0. -1.
        -11    1    3    3    0    0 -0.17998199255E+00 -0.68037964468E+01 -0.93516809906E+01  0.11566243004E+02  0.51100000000E-03 0.  1.
         12    1    3    3    0    0 -0.18771913198E+01 -0.94928429421E+00  0.22279568779E+02  0.22378654403E+02  0.00000000000E+00 0. -1.
</event>
<event>
 7    1  0.3528441E-013  0.5930197E+02  0.7816164E-02  0.1266605E+00
        -11   -1    0    0    0    0  0.00000000000E+00  0.00000000000E+00  0.45593999997E+02  0.45594000000E+02  0.51100000000E-03 0.  1.
         11   -1    0    0    0    0 -0.00000000000E+00 -0.00000000000E+00 -0.45593999997E+02  0.45594000000E+02  0.51100000000E-03 0. -1.
    9900012    2    1    2    0    0 -0.14961128829E+02 -0.17736326906E+02 -0.21870217428E+02  0.59301967348E+02  0.50000042530E+02 0.  0.
        -12    1    1    2    0    0  0.14961128829E+02  0.17736326906E+02  0.21870217428E+02  0.31886032652E+02  0.00000000000E+00 0.  1.
         11    1    3    3    0    0 -0.21825356612E+02 -0.28051341587E+01 -0.14119935086E+02  0.26145506994E+02  0.51100000000E-03 0. -1.
        -11    1    3    3    0    0  0.60529001008E+01  0.57598224593E+01 -0.91640609084E+01  0.12401337306E+02  0.51100000000E-03 0.  1.
        -12    1    3    3    0    0  0.81132768132E+00 -0.20691015207E+02  0.14137785663E+01  0.20755123048E+02  0.00000000000E+00 0.  1.
</event>
<event>
 7    1  0.3528441E-013  0.5930196E+02  0.7816164E-02  0.1266605E+00
        -11   -1    0    0    0    0  0.00000000000E+00  0.00000000000E+00  0.45593999997E+02  0.45594000000E+02  0.51100000000E-03 0.  1.
         11   -1    0    0    0    0 -0.00000000000E+00 -0.00000000000E+00 -0.45593999997E+02  0.45594000000E+02  0.51100000000E-03 0. -1.
    9900012    2    1    2    0    0 -0.28764290670E+00  0.26660937976E+02 -0.17488038333E+02  0.59301955452E+02  0.50000020834E+02 0.  0.
        -12    1    1    2    0    0  0.28764290670E+00 -0.26660937976E+02  0.17488038333E+02  0.31886044548E+02  0.00000000000E+00 0.  1.
         11    1    3    3    0    0  0.98091190608E+01  0.14351583241E+02  0.87503131597E+00  0.17405528959E+02  0.51100000000E-03 0. -1.
        -11    1    3    3    0    0 -0.25701703216E+01  0.23276627368E+02 -0.71107173698E+01  0.24473852555E+02  0.51100000000E-03 0.  1.
        -12    1    3    3    0    0 -0.75265916459E+01 -0.10967272633E+02 -0.11252352279E+02  0.17422573938E+02  0.00000000000E+00 0.  1.
</event>
<event>
 7    1  0.3528441E-013  0.5930195E+02  0.7816164E-02  0.1266605E+00
        -11   -1    0    0    0    0  0.00000000000E+00  0.00000000000E+00  0.45593999997E+02  0.45594000000E+02  0.51100000000E-03 0. -1.
         11   -1    0    0    0    0 -0.00000000000E+00 -0.00000000000E+00 -0.45593999997E+02  0.45594000000E+02  0.51100000000E-03 0.  1.
    9900012    2    1    2    0    0 -0.26803019660E+02  0.71982509149E+01  0.15700430790E+02  0.59301949663E+02  0.50000010277E+02 0.  0.
        -12    1    1    2    0    0  0.26803019660E+02 -0.71982509149E+01 -0.15700430790E+02  0.31886050337E+02  0.00000000000E+00 0.  1.
         11    1    3    3    0    0 -0.22566255668E+02 -0.81537284388E-01  0.60179921494E+01  0.23355058830E+02  0.51100000000E-03 0.  1.
        -11    1    3    3    0    0  0.84011257091E+01 -0.51277198186E+01 -0.66312698892E+01  0.11867862669E+02  0.51100000000E-03 0. -1.
         12    1    3    3    0    0 -0.12637889701E+02  0.12407508018E+02  0.16313708530E+02  0.24079028164E+02  0.00000000000E+00 0. -1.
</event>
<event>
 7    1  0.3528441E-013  0.5930192E+02  0.7816164E-02  0.1266605E+00
        -11   -1    0    0    0    0  0.00000000000E+00  0.00000000000E+00  0.45593999997E+02  0.45594000000E+02  0.51100000000E-03 0.  1.
         11   -1    0    0    0    0 -0.00000000000E+00 -0.00000000000E+00 -0.45593999997E+02  0.45594000000E+02  0.51100000000E-03 0. -1.
    9900012    2    1    2    0    0 -0.57304173501E+00 -0.12872385791E+02 -0.29166680424E+02  0.59301922478E+02  0.49999960699E+02 0.  0.
        -12    1    1    2    0    0  0.57304173501E+00  0.12872385791E+02  0.29166680424E+02  0.31886077522E+02  0.00000000000E+00 0.  1.
         11    1    3    3    0    0  0.15574675685E+02 -0.94128644392E+01 -0.11874583259E+02  0.21729663308E+02  0.51100000000E-03 0. -1.
        -11    1    3    3    0    0  0.47405180169E+00 -0.10266941076E+02  0.27697490925E+01  0.10644543882E+02  0.51100000000E-03 0.  1.
         12    1    3    3    0    0 -0.16621769222E+02  0.68074197240E+01 -0.20061846257E+02  0.26927715288E+02  0.00000000000E+00 0. -1.
</event>
<event>
 7    1  0.3528441E-013  0.5930195E+02  0.7816164E-02  0.1266605E+00
        -11   -1    0    0    0    0  0.00000000000E+00  0.00000000000E+00  0.45593999997E+02  0.45594000000E+02  0.51100000000E-03 0.  1.
         11   -1    0    0    0    0 -0.00000000000E+00 -0.00000000000E+00 -0.45593999997E+02  0.45594000000E+02  0.51100000000E-03 0. -1.
    9900012    2    1    2    0    0  0.13048766902E+02 -0.27954267592E+02  0.80627894485E+01  0.59301953397E+02  0.50000017088E+02 0.  0.
        -12    1    1    2    0    0 -0.13048766902E+02  0.27954267592E+02 -0.80627894485E+01  0.31886046603E+02  0.00000000000E+00 0.  1.
         11    1    3    3    0    0 -0.21178631311E+00 -0.93292407044E+01  0.99639161744E+01  0.13651344672E+02  0.51100000000E-03 0. -1.
        -11    1    3    3    0    0 -0.66118421653E+01 -0.10285205794E+02  0.14207335575E+02  0.18744340465E+02  0.51100000000E-03 0.  1.
         12    1    3    3    0    0  0.19872395380E+02 -0.83398210931E+01 -0.16108462301E+02  0.26906268261E+02  0.00000000000E+00 0. -1.
</event>
<event>
 7    1  0.3528441E-013  0.5930194E+02  0.7816164E-02  0.1266605E+00
        -11   -1    0    0    0    0  0.00000000000E+00  0.00000000000E+00  0.45593999997E+02  0.45594000000E+02  0.51100000000E-03 0.  1.
         11   -1    0    0    0    0 -0.00000000000E+00 -0.00000000000E+00 -0.45593999997E+02  0.45594000000E+02  0.51100000000E-03 0. -1.
    9900012    2    1    2    0    0  0.15103436601E+00 -0.29446691526E+02  0.12230712434E+02  0.59301940666E+02  0.49999993868E+02 0.  0.
        -12    1    1    2    0    0 -0.15103436601E+00  0.29446691526E+02 -0.12230712434E+02  0.31886059334E+02  0.00000000000E+00 0.  1.
         11    1    3    3    0    0 -0.68435336060E+01 -0.22212832940E+02 -0.42713437627E+01  0.23632356574E+02  0.51100000000E-03 0. -1.
        -11    1    3    3    0    0 -0.63004571404E+01  0.67047617363E+00 -0.57592358067E+01  0.85623650831E+01  0.51100000000E-03 0.  1.
        -12    1    3    3    0    0  0.13295025112E+02 -0.79043347601E+01  0.22261292003E+02  0.27107219009E+02  0.00000000000E+00 0.  1.
</event>
<event>
 7    1  0.3528441E-013  0.5930194E+02  0.7816164E-02  0.1266605E+00
        -11   -1    0    0    0    0  0.00000000000E+00  0.00000000000E+00  0.45593999997E+02  0.45594000000E+02  0.51100000000E-03 0.  1.
         11   -1    0    0    0    0 -0.00000000000E+00 -0.00000000000E+00 -0.45593999997E+02  0.45594000000E+02  0.51100000000E-03 0. -1.
    9900012    2    1    2    0    0 -0.30101172496E+02 -0.70056788529E+01  0.78460806700E+01  0.59301935588E+02  0.49999984608E+02 0.  0.
        -12    1    1    2    0    0  0.30101172496E+02  0.70056788529E+01 -0.78460806700E+01  0.31886064412E+02  0.00000000000E+00 0.  1.
         11    1    3    3    0    0  0.29281119494E+00 -0.98650162960E+01  0.83404562940E+01  0.12921590319E+02  0.51100000000E-03 0. -1.
        -11    1    3    3    0    0 -0.57590288671E+00 -0.12713055170E+02  0.33697459762E+00  0.12730553328E+02  0.51100000000E-03 0.  1.
         12    1    3    3    0    0 -0.29818080804E+02  0.15572392613E+02 -0.83135022165E+00  0.33649791942E+02  0.00000000000E+00 0. -1.
</event>
<event>
 7    1  0.3528441E-013  0.5930202E+02  0.7816164E-02  0.1266604E+00
        -11   -1    0    0    0    0  0.00000000000E+00  0.00000000000E+00  0.45593999997E+02  0.45594000000E+02  0.51100000000E-03 0.  1.
         11   -1    0    0    0    0 -0.00000000000E+00 -0.00000000000E+00 -0.45593999997E+02  0.45594000000E+02  0.51100000000E-03 0. -1.
    9900012    2    1    2    0    0  0.48261285535E+01 -0.18319844946E+02 -0.25647754260E+02  0.59302022922E+02  0.50000143884E+02 0.  0.
        -12    1    1    2    0    0 -0.48261285535E+01  0.18319844946E+02  0.25647754260E+02  0.31885977078E+02  0.00000000000E+00 0.  1.
         11    1    3    3    0    0  0.36263604292E+01  0.56526422260E+01 -0.10517561735E+02  0.12478860493E+02  0.51100000000E-03 0. -1.
        -11    1    3    3    0    0  0.14156164091E+02 -0.87386787039E+01 -0.20222982529E+02  0.26186456612E+02  0.51100000000E-03 0.  1.
         12    1    3    3    0    0 -0.12956395967E+02 -0.15233808468E+02  0.50927900048E+01  0.20636705816E+02  0.00000000000E+00 0. -1.
</event>
<event>
 7    1  0.3528441E-013  0.5930196E+02  0.7816164E-02  0.1266605E+00
        -11   -1    0    0    0    0  0.00000000000E+00  0.00000000000E+00  0.45593999997E+02  0.45594000000E+02  0.51100000000E-03 0. -1.
         11   -1    0    0    0    0 -0.00000000000E+00 -0.00000000000E+00 -0.45593999997E+02  0.45594000000E+02  0.51100000000E-03 0.  1.
    9900012    2    1    2    0    0  0.30909286228E+02 -0.57119783974E+01  0.53580452672E+01  0.59301963535E+02  0.50000035577E+02 0.  0.
        -12    1    1    2    0    0 -0.30909286228E+02  0.57119783974E+01 -0.53580452672E+01  0.31886036465E+02  0.00000000000E+00 0.  1.
         11    1    3    3    0    0  0.13608867211E+02  0.11314190560E+01  0.77983474748E+01  0.15725635105E+02  0.51100000000E-03 0. -1.
        -11    1    3    3    0    0 -0.11865564591E+02 -0.72852982034E+01  0.20151400861E+01  0.14068688027E+02  0.51100000000E-03 0.  1.
         12    1    3    3    0    0  0.29165983609E+02  0.44190075002E+00 -0.44554422938E+01  0.29507640403E+02  0.00000000000E+00 0. -1.
</event>
<event>
 7    1  0.3528441E-013  0.5930193E+02  0.7816164E-02  0.1266605E+00
        -11   -1    0    0    0    0  0.00000000000E+00  0.00000000000E+00  0.45593999997E+02  0.45594000000E+02  0.51100000000E-03 0. -1.
         11   -1    0    0    0    0 -0.00000000000E+00 -0.00000000000E+00 -0.45593999997E+02  0.45594000000E+02  0.51100000000E-03 0.  1.
    9900012    2    1    2    0    0  0.17981449822E+00 -0.19129262610E+02  0.25510004020E+02  0.59301932096E+02  0.49999978240E+02 0.  0.
        -12    1    1    2    0    0 -0.17981449822E+00  0.19129262610E+02 -0.25510004020E+02  0.31886067904E+02  0.00000000000E+00 0.  1.
         11    1    3    3    0    0 -0.17100780678E+02 -0.48269410596E+01  0.10813435339E+02  0.20800635661E+02  0.51100000000E-03 0. -1.
        -11    1    3    3    0    0 -0.33283014078E+01  0.29300505175E+01 -0.38373137678E+01  0.58641080746E+01  0.51100000000E-03 0.  1.
         12    1    3    3    0    0  0.20608896584E+02 -0.17232372068E+02  0.18533882448E+02  0.32637188361E+02  0.00000000000E+00 0. -1.
</event>
<event>
 7    1  0.3528441E-013  0.5930194E+02  0.7816164E-02  0.1266605E+00
        -11   -1    0    0    0    0  0.00000000000E+00  0.00000000000E+00  0.45593999997E+02  0.45594000000E+02  0.51100000000E-03 0. -1.
         11   -1    0    0    0    0 -0.00000000000E+00 -0.00000000000E+00 -0.45593999997E+02  0.45594000000E+02  0.51100000000E-03 0.  1.
    9900012    2    1    2    0    0  0.17033668512E+02 -0.12422779815E+02  0.23921732023E+02  0.59301943733E+02  0.49999999462E+02 0.  0.
        -12    1    1    2    0    0 -0.17033668512E+02  0.12422779815E+02 -0.23921732023E+02  0.31886056267E+02  0.00000000000E+00 0.  1.
         11    1    3    3    0    0  0.10404036635E+02  0.52073063283E+01  0.10662122290E+01  0.11683185622E+02  0.51100000000E-03 0. -1.
        -11    1    3    3    0    0  0.19880639945E+02 -0.42859883366E+01  0.35081497215E+01  0.20637748311E+02  0.51100000000E-03 0.  1.
         12    1    3    3    0    0 -0.13251008067E+02 -0.13344097806E+02  0.19347370073E+02  0.26981009799E+02  0.00000000000E+00 0. -1.
</event>
<event>
 7    1  0.3528441E-013  0.5930194E+02  0.7816164E-02  0.1266605E+00
        -11   -1    0    0    0    0  0.00000000000E+00  0.00000000000E+00  0.45593999997E+02  0.45594000000E+02  0.51100000000E-03 0. -1.
         11   -1    0    0    0    0 -0.00000000000E+00 -0.00000000000E+00 -0.45593999997E+02  0.45594000000E+02  0.51100000000E-03 0.  1.
    9900012    2    1    2    0    0 -0.21228675674E+02  0.18196122080E+02  0.15328573217E+02  0.59301942130E+02  0.49999996539E+02 0.  0.
        -12    1    1    2    0    0  0.21228675674E+02 -0.18196122080E+02 -0.15328573217E+02  0.31886057870E+02  0.00000000000E+00 0.  1.
         11    1    3    3    0    0 -0.35164292243E+01  0.13843049890E+02  0.20611090611E+02  0.25076131304E+02  0.51100000000E-03 0. -1.
        -11    1    3    3    0    0  0.45182953656E+01  0.58469445007E+01  0.57503479456E+01  0.93631327429E+01  0.51100000000E-03 0.  1.
         12    1    3    3    0    0 -0.22230541815E+02 -0.14938723112E+01 -0.11032865339E+02  0.24862678083E+02  0.00000000000E+00 0. -1.
</event>
<event>
 7    1  0.3528441E-013  0.5930192E+02  0.7816164E-02  0.1266605E+00
        -11   -1    0    0    0    0  0.00000000000E+00  0.00000000000E+00  0.45593999997E+02  0.45594000000E+02  0.51100000000E-03 0.  1.
         11   -1    0    0    0    0 -0.00000000000E+00 -0.00000000000E+00 -0.45593999997E+02  0.45594000000E+02  0.51100000000E-03 0. -1.
    9900012    2    1    2    0    0  0.14094060283E+02  0.23261650752E+02 -0.16642564352E+02  0.59301923428E+02  0.49999962431E+02 0.  0.
        -12    1    1    2    0    0 -0.14094060283E+02 -0.23261650752E+02  0.16642564352E+02  0.31886076572E+02  0.00000000000E+00 0.  1.
         11    1    3    3    0    0 -0.13197669682E+02  0.78062818097E+01  0.23633019444E+01  0.15514564675E+02  0.51100000000E-03 0. -1.
        -11    1    3    3    0    0  0.38818838734E+01 -0.60636185580E+01 -0.62234131496E+01  0.95166887054E+01  0.51100000000E-03 0.  1.
         12    1    3    3    0    0  0.23409846091E+02  0.21518987500E+02 -0.12782453147E+02  0.34270670047E+02  0.00000000000E+00 0. -1.
</event>
<event>
 7    1  0.3528441E-013  0.5930188E+02  0.7816164E-02  0.1266605E+00
        -11   -1    0    0    0    0  0.00000000000E+00  0.00000000000E+00  0.45593999997E+02  0.45594000000E+02  0.51100000000E-03 0.  1.
         11   -1    0    0    0    0 -0.00000000000E+00 -0.00000000000E+00 -0.45593999997E+02  0.45594000000E+02  0.51100000000E-03 0. -1.
    9900012    2    1    2    0    0  0.29321577402E+01 -0.10091605750E+02 -0.30104591834E+02  0.59301882250E+02  0.49999887333E+02 0.  0.
        -12    1    1    2    0    0 -0.29321577402E+01  0.10091605750E+02  0.30104591834E+02  0.31886117750E+02  0.00000000000E+00 0.  1.
         11    1    3    3    0    0 -0.28292464538E+01  0.74954211435E+01 -0.17486959770E+01  0.82002385024E+01  0.51100000000E-03 0. -1.
        -11    1    3    3    0    0 -0.15603792001E+02 -0.13766578742E+01 -0.95436761127E+01  0.18342716966E+02  0.51100000000E-03 0.  1.
         12    1    3    3    0    0  0.21365196195E+02 -0.16210369019E+02 -0.18812219745E+02  0.32758926782E+02  0.00000000000E+00 0. -1.
</event>
<event>
 7    1  0.3528441E-013  0.5930195E+02  0.7816164E-02  0.1266605E+00
        -11   -1    0    0    0    0  0.00000000000E+00  0.00000000000E+00  0.45593999997E+02  0.45594000000E+02  0.51100000000E-03 0. -1.
         11   -1    0    0    0    0 -0.00000000000E+00 -0.00000000000E+00 -0.45593999997E+02  0.45594000000E+02  0.51100000000E-03 0.  1.
    9900012    2    1    2    0    0  0.55214368240E+01 -0.14647073086E+02  0.27779441305E+02  0.59301947034E+02  0.50000005482E+02 0.  0.
        -12    1    1    2    0    0 -0.55214368240E+01  0.14647073086E+02 -0.27779441305E+02  0.31886052966E+02  0.00000000000E+00 0.  1.
         11    1    3    3    0    0 -0.83353833459E+01  0.52046740359E+01  0.19075420232E+02  0.21457840167E+02  0.51100000000E-03 0. -1.
        -11    1    3    3    0    0 -0.56139813480E+01  0.15627065990E+00 -0.42732622633E+01  0.70570516313E+01  0.51100000000E-03 0.  1.
        -12    1    3    3    0    0  0.19470801518E+02 -0.20008017782E+02  0.12977283336E+02  0.30787055236E+02  0.00000000000E+00 0.  1.
</event>
<event>
 7    1  0.3528441E-013  0.5930193E+02  0.7816164E-02  0.1266605E+00
        -11   -1    0    0    0    0  0.00000000000E+00  0.00000000000E+00  0.45593999997E+02  0.45594000000E+02  0.51100000000E-03 0.  1.
         11   -1    0    0    0    0 -0.00000000000E+00 -0.00000000000E+00 -0.45593999997E+02  0.45594000000E+02  0.51100000000E-03 0. -1.
    9900012    2    1    2    0    0 -0.20335214868E+02 -0.24205892197E+02  0.41563199458E+01  0.59301934450E+02  0.49999982532E+02 0.  0.
        -12    1    1    2    0    0  0.20335214868E+02  0.24205892197E+02 -0.41563199458E+01  0.31886065550E+02  0.00000000000E+00 0.  1.
         11    1    3    3    0    0 -0.16855094208E+02 -0.82686558317E+00  0.26271878801E+01  0.17078642331E+02  0.51100000000E-03 0. -1.
        -11    1    3    3    0    0 -0.18642904728E+02 -0.16747375883E+02 -0.25158583088E+01  0.25186544800E+02  0.51100000000E-03 0.  1.
        -12    1    3    3    0    0  0.15162784068E+02 -0.66316507303E+01  0.40449903745E+01  0.17036747319E+02  0.00000000000E+00 0.  1.
</event>
<event>
 7    1  0.3528441E-013  0.5930194E+02  0.7816164E-02  0.1266605E+00
        -11   -1    0    0    0    0  0.00000000000E+00  0.00000000000E+00  0.45593999997E+02  0.45594000000E+02  0.51100000000E-03 0. -1.
         11   -1    0    0    0    0 -0.00000000000E+00 -0.00000000000E+00 -0.45593999997E+02  0.45594000000E+02  0.51100000000E-03 0.  1.
    9900012    2    1    2    0    0 -0.15604550171E+01  0.12684258990E+02  0.29212930745E+02  0.59301940841E+02  0.49999994188E+02 0.  0.
        -12    1    1    2    0    0  0.15604550171E+01 -0.12684258990E+02 -0.29212930745E+02  0.31886059159E+02  0.00000000000E+00 0.  1.
         11    1    3    3    0    0 -0.36638088601E+01  0.56037495226E+01  0.27704867405E+02  0.28502371520E+02  0.51100000000E-03 0. -1.
        -11    1    3    3    0    0  0.52933918931E+01 -0.73567202181E-02  0.14624546206E+02  0.15553051272E+02  0.51100000000E-03 0.  1.
        -12    1    3    3    0    0 -0.31900380502E+01  0.70878661877E+01 -0.13116482866E+02  0.15246518049E+02  0.00000000000E+00 0.  1.
</event>
<event>
 7    1  0.3528441E-013  0.5930194E+02  0.7816164E-02  0.1266605E+00
        -11   -1    0    0    0    0  0.00000000000E+00  0.00000000000E+00  0.45593999997E+02  0.45594000000E+02  0.51100000000E-03 0. -1.
         11   -1    0    0    0    0 -0.00000000000E+00 -0.00000000000E+00 -0.45593999997E+02  0.45594000000E+02  0.51100000000E-03 0.  1.
    9900012    2    1    2    0    0 -0.63653932081E+01  0.13485807388E+02  0.28183963288E+02  0.59301936928E+02  0.49999987053E+02 0.  0.
        -12    1    1    2    0    0  0.63653932081E+01 -0.13485807388E+02 -0.28183963288E+02  0.31886063072E+02  0.00000000000E+00 0.  1.
         11    1    3    3    0    0 -0.41642648354E+01  0.28078434279E+01 -0.42843768232E+01  0.66015885481E+01  0.51100000000E-03 0. -1.
        -11    1    3    3    0    0  0.71125736440E+00  0.15580140824E+02 -0.37459429382E+01  0.16039911593E+02  0.51100000000E-03 0.  1.
        -12    1    3    3    0    0 -0.29123857371E+01 -0.49021768646E+01  0.36214283049E+02  0.36660436788E+02  0.00000000000E+00 0.  1.
</event>
<event>
 7    1  0.3528441E-013  0.5930210E+02  0.7816164E-02  0.1266604E+00
        -11   -1    0    0    0    0  0.00000000000E+00  0.00000000000E+00  0.45593999997E+02  0.45594000000E+02  0.51100000000E-03 0.  1.
         11   -1    0    0    0    0 -0.00000000000E+00 -0.00000000000E+00 -0.45593999997E+02  0.45594000000E+02  0.51100000000E-03 0. -1.
    9900012    2    1    2    0    0 -0.10227559771E+02  0.26203923182E+02 -0.15015395745E+02  0.59302099066E+02  0.50000282752E+02 0.  0.
        -12    1    1    2    0    0  0.10227559771E+02 -0.26203923182E+02  0.15015395745E+02  0.31885900934E+02  0.00000000000E+00 0.  1.
         11    1    3    3    0    0 -0.24959334858E+02  0.28854309336E+01 -0.11369443906E+02  0.27578222626E+02  0.51100000000E-03 0. -1.
        -11    1    3    3    0    0  0.14201291767E+01  0.61091975569E+01 -0.73409658720E+01  0.96555083690E+01  0.51100000000E-03 0.  1.
        -12    1    3    3    0    0  0.13311645910E+02  0.17209294691E+02  0.36950140326E+01  0.22068368071E+02  0.00000000000E+00 0.  1.
</event>
<event>
 7    1  0.3528441E-013  0.5930195E+02  0.7816164E-02  0.1266605E+00
        -11   -1    0    0    0    0  0.00000000000E+00  0.00000000000E+00  0.45593999997E+02  0.45594000000E+02  0.51100000000E-03 0.  1.
         11   -1    0    0    0    0 -0.00000000000E+00 -0.00000000000E+00 -0.45593999997E+02  0.45594000000E+02  0.51100000000E-03 0. -1.
    9900012    2    1    2    0    0 -0.77356051187E+01  0.62515014438E+01 -0.30295200990E+02  0.59301951956E+02  0.50000014459E+02 0.  0.
        -12    1    1    2    0    0  0.77356051187E+01 -0.62515014438E+01  0.30295200990E+02  0.31886048044E+02  0.00000000000E+00 0.  1.
         11    1    3    3    0    0 -0.20812486782E+02 -0.27812804061E+01 -0.26177773985E+02  0.33558471029E+02  0.51100000000E-03 0. -1.
        -11    1    3    3    0    0  0.29816245345E+01 -0.57350123893E+01  0.21138558039E+01  0.68006498653E+01  0.51100000000E-03 0.  1.
        -12    1    3    3    0    0  0.10095257129E+02  0.14767794239E+02 -0.62312828087E+01  0.18942831062E+02  0.00000000000E+00 0.  1.
</event>
<event>
 7    1  0.3528441E-013  0.5930194E+02  0.7816164E-02  0.1266605E+00
        -11   -1    0    0    0    0  0.00000000000E+00  0.00000000000E+00  0.45593999997E+02  0.45594000000E+02  0.51100000000E-03 0. -1.
         11   -1    0    0    0    0 -0.00000000000E+00 -0.00000000000E+00 -0.45593999997E+02  0.45594000000E+02  0.51100000000E-03 0.  1.
    9900012    2    1    2    0    0  0.27555586775E+02 -0.22623753556E+01  0.15883714822E+02  0.59301935626E+02  0.49999984676E+02 0.  0.
        -12    1    1    2    0    0 -0.27555586775E+02  0.22623753556E+01 -0.15883714822E+02  0.31886064374E+02  0.00000000000E+00 0.  1.
         11    1    3    3    0    0  0.18244881510E+02  0.53621533126E+01  0.23790270442E+02  0.30456614346E+02  0.51100000000E-03 0. -1.
        -11    1    3    3    0    0  0.86274934953E+01  0.28835295691E+01  0.63701244031E+01  0.11105263255E+02  0.51100000000E-03 0.  1.
        -12    1    3    3    0    0  0.68321176966E+00 -0.10508058237E+02 -0.14276680023E+02  0.17740058025E+02  0.00000000000E+00 0.  1.
</event>
<event>
 7    1  0.3528441E-013  0.5930194E+02  0.7816164E-02  0.1266605E+00
        -11   -1    0    0    0    0  0.00000000000E+00  0.00000000000E+00  0.45593999997E+02  0.45594000000E+02  0.51100000000E-03 0. -1.
         11   -1    0    0    0    0 -0.00000000000E+00 -0.00000000000E+00 -0.45593999997E+02  0.45594000000E+02  0.51100000000E-03 0.  1.
    9900012    2    1    2    0    0  0.26996414785E+02  0.88420963869E+01  0.14482125663E+02  0.59301936532E+02  0.49999986329E+02 0.  0.
        -12    1    1    2    0    0 -0.26996414785E+02 -0.88420963869E+01 -0.14482125663E+02  0.31886063468E+02  0.00000000000E+00 0.  1.
         11    1    3    3    0    0  0.12840811030E+02 -0.17751686405E+01  0.26836009927E+01  0.13237800654E+02  0.51100000000E-03 0.  1.
        -11    1    3    3    0    0  0.16668605306E+02 -0.12032647717E+02  0.10873681913E+02  0.23256482376E+02  0.51100000000E-03 0. -1.
         12    1    3    3    0    0 -0.25130015503E+01  0.22649912744E+02  0.92484275819E+00  0.22807653501E+02  0.00000000000E+00 0. -1.
</event>
<event>
 7    1  0.3528441E-013  0.5930195E+02  0.7816164E-02  0.1266605E+00
        -11   -1    0    0    0    0  0.00000000000E+00  0.00000000000E+00  0.45593999997E+02  0.45594000000E+02  0.51100000000E-03 0.  1.
         11   -1    0    0    0    0 -0.00000000000E+00 -0.00000000000E+00 -0.45593999997E+02  0.45594000000E+02  0.51100000000E-03 0. -1.
    9900012    2    1    2    0    0  0.57053856139E+00 -0.24947875241E+02 -0.19849390528E+02  0.59301948228E+02  0.50000007660E+02 0.  0.
        -12    1    1    2    0    0 -0.57053856139E+00  0.24947875241E+02  0.19849390528E+02  0.31886051772E+02  0.00000000000E+00 0.  1.
         11    1    3    3    0    0  0.17706429266E+02 -0.15680047519E+02 -0.12853580834E+02  0.26918322163E+02  0.51100000000E-03 0. -1.
        -11    1    3    3    0    0  0.45668122077E+01  0.40198757320E+01 -0.23135418513E+01  0.65090437700E+01  0.51100000000E-03 0.  1.
        -12    1    3    3    0    0 -0.21702702913E+02 -0.13287703453E+02 -0.46822678426E+01  0.25874582295E+02  0.00000000000E+00 0.  1.
</event>
<event>
 7    1  0.3528441E-013  0.5930196E+02  0.7816164E-02  0.1266605E+00
        -11   -1    0    0    0    0  0.00000000000E+00  0.00000000000E+00  0.45593999997E+02  0.45594000000E+02  0.51100000000E-03 0. -1.
         11   -1    0    0    0    0 -0.00000000000E+00 -0.00000000000E+00 -0.45593999997E+02  0.45594000000E+02  0.51100000000E-03 0.  1.
    9900012    2    1    2    0    0  0.84710235750E+01  0.16743735901E+01  0.30694583738E+02  0.59301964841E+02  0.50000037958E+02 0.  0.
        -12    1    1    2    0    0 -0.84710235750E+01 -0.16743735901E+01 -0.30694583738E+02  0.31886035159E+02  0.00000000000E+00 0.  1.
         11    1    3    3    0    0 -0.20062122843E+01  0.25169503907E+01  0.22916674319E+02  0.23141605154E+02  0.51100000000E-03 0. -1.
        -11    1    3    3    0    0  0.11459054789E+02  0.10958445802E+02 -0.69079272044E+01  0.17294997241E+02  0.51100000000E-03 0.  1.
         12    1    3    3    0    0 -0.98181892966E+00 -0.11801022602E+02  0.14685836624E+02  0.18865362446E+02  0.00000000000E+00 0. -1.
</event>
<event>
 7    1  0.3528441E-013  0.5930193E+02  0.7816164E-02  0.1266605E+00
        -11   -1    0    0    0    0  0.00000000000E+00  0.00000000000E+00  0.45593999997E+02  0.45594000000E+02  0.51100000000E-03 0. -1.
         11   -1    0    0    0    0 -0.00000000000E+00 -0.00000000000E+00 -0.45593999997E+02  0.45594000000E+02  0.51100000000E-03 0.  1.
    9900012    2    1    2    0    0  0.46489844725E+01  0.21477209474E+02  0.23104936324E+02  0.59301926771E+02  0.49999968528E+02 0.  0.
        -12    1    1    2    0    0 -0.46489844725E+01 -0.21477209474E+02 -0.23104936324E+02  0.31886073229E+02  0.00000000000E+00 0.  1.
         11    1    3    3    0    0 -0.44275503139E+01  0.35254229593E+01  0.10619458779E+02  0.12033483030E+02  0.51100000000E-03 0. -1.
        -11    1    3    3    0    0 -0.11484712922E+02  0.15849150381E+02 -0.49937983279E+01  0.20199807442E+02  0.51100000000E-03 0.  1.
         12    1    3    3    0    0  0.20561247708E+02  0.21026361343E+01  0.17479275873E+02  0.27068636299E+02  0.00000000000E+00 0. -1.
</event>
<event>
 7    1  0.3528441E-013  0.5930195E+02  0.7816164E-02  0.1266605E+00
        -11   -1    0    0    0    0  0.00000000000E+00  0.00000000000E+00  0.45593999997E+02  0.45594000000E+02  0.51100000000E-03 0. -1.
         11   -1    0    0    0    0 -0.00000000000E+00 -0.00000000000E+00 -0.45593999997E+02  0.45594000000E+02  0.51100000000E-03 0.  1.
    9900012    2    1    2    0    0 -0.15988957587E+02  0.17846697086E+02 -0.21037326078E+02  0.59301945836E+02  0.50000003299E+02 0.  0.
        -12    1    1    2    0    0  0.15988957587E+02 -0.17846697086E+02  0.21037326078E+02  0.31886054164E+02  0.00000000000E+00 0.  1.
         11    1    3    3    0    0  0.78675666330E+01  0.70506611972E+01 -0.13031053375E+01  0.10644647097E+02  0.51100000000E-03 0.  1.
        -11    1    3    3    0    0 -0.13491500990E+02 -0.10286744519E+02  0.14447077598E+01  0.17027180992E+02  0.51100000000E-03 0. -1.
         12    1    3    3    0    0 -0.10365023230E+02  0.21082780408E+02 -0.21178928501E+02  0.31630117747E+02  0.00000000000E+00 0. -1.
</event>
<event>
 7    1  0.3528441E-013  0.5930197E+02  0.7816164E-02  0.1266605E+00
        -11   -1    0    0    0    0  0.00000000000E+00  0.00000000000E+00  0.45593999997E+02  0.45594000000E+02  0.51100000000E-03 0. -1.
         11   -1    0    0    0    0 -0.00000000000E+00 -0.00000000000E+00 -0.45593999997E+02  0.45594000000E+02  0.51100000000E-03 0.  1.
    9900012    2    1    2    0    0 -0.63969531895E+01  0.25394147852E+02  0.18191624418E+02  0.59301969294E+02  0.50000046080E+02 0.  0.
        -12    1    1    2    0    0  0.63969531895E+01 -0.25394147852E+02 -0.18191624418E+02  0.31886030706E+02  0.00000000000E+00 0.  1.
         11    1    3    3    0    0 -0.57396705252E+01  0.12113327398E+01  0.62576412476E+01  0.85772500831E+01  0.51100000000E-03 0. -1.
        -11    1    3    3    0    0 -0.12283755819E+00 -0.12194305640E+02 -0.69327375947E+00  0.12214614520E+02  0.51100000000E-03 0.  1.
        -12    1    3    3    0    0 -0.53444510609E+00  0.36377120752E+02  0.12627256929E+02  0.38510104691E+02  0.00000000000E+00 0.  1.
</event>
<event>
 7    1  0.3528441E-013  0.5930194E+02  0.7816164E-02  0.1266605E+00
        -11   -1    0    0    0    0  0.00000000000E+00  0.00000000000E+00  0.45593999997E+02  0.45594000000E+02  0.51100000000E-03 0. -1.
         11   -1    0    0    0    0 -0.00000000000E+00 -0.00000000000E+00 -0.45593999997E+02  0.45594000000E+02  0.51100000000E-03 0.  1.
    9900012    2    1    2    0    0 -0.24218601550E+02 -0.82520980319E+01  0.19028482041E+02  0.59301938598E+02  0.49999990097E+02 0.  0.
        -12    1    1    2    0    0  0.24218601550E+02  0.82520980319E+01 -0.19028482041E+02  0.31886061402E+02  0.00000000000E+00 0.  1.
         11    1    3    3    0    0  0.86509531160E+01 -0.97631221883E+01  0.51241947263E+01  0.14014810614E+02  0.51100000000E-03 0. -1.
        -11    1    3    3    0    0 -0.20485135511E+01 -0.51249672463E+01  0.12573727464E+02  0.13731726754E+02  0.51100000000E-03 0.  1.
        -12    1    3    3    0    0 -0.30821041115E+02  0.66359914028E+01  0.13305598509E+01  0.31555401230E+02  0.00000000000E+00 0.  1.
</event>
<event>
 7    1  0.3528441E-013  0.5930191E+02  0.7816164E-02  0.1266605E+00
        -11   -1    0    0    0    0  0.00000000000E+00  0.00000000000E+00  0.45593999997E+02  0.45594000000E+02  0.51100000000E-03 0.  1.
         11   -1    0    0    0    0 -0.00000000000E+00 -0.00000000000E+00 -0.45593999997E+02  0.45594000000E+02  0.51100000000E-03 0. -1.
    9900012    2    1    2    0    0  0.51206244814E+01  0.31127130513E+02 -0.46479794348E+01  0.59301909586E+02  0.49999937187E+02 0.  0.
        -12    1    1    2    0    0 -0.51206244814E+01 -0.31127130513E+02  0.46479794348E+01  0.31886090414E+02  0.00000000000E+00 0.  1.
         11    1    3    3    0    0 -0.38234421012E+01  0.63599960853E+01  0.18209854503E+01  0.76409585771E+01  0.51100000000E-03 0. -1.
        -11    1    3    3    0    0 -0.53253538893E+01  0.10439625863E+02 -0.22821796035E+02  0.25655010363E+02  0.51100000000E-03 0.  1.
        -12    1    3    3    0    0  0.14269420472E+02  0.14327508565E+02  0.16352831150E+02  0.26005940646E+02  0.00000000000E+00 0.  1.
</event>
<event>
 7    1  0.3528441E-013  0.5930179E+02  0.7816164E-02  0.1266605E+00
        -11   -1    0    0    0    0  0.00000000000E+00  0.00000000000E+00  0.45593999997E+02  0.45594000000E+02  0.51100000000E-03 0.  1.
         11   -1    0    0    0    0 -0.00000000000E+00 -0.00000000000E+00 -0.45593999997E+02  0.45594000000E+02  0.51100000000E-03 0. -1.
    9900012    2    1    2    0    0 -0.56257320609E+01 -0.16251971109E+02 -0.26850602377E+02  0.59301791787E+02  0.49999722350E+02 0.  0.
        -12    1    1    2    0    0  0.56257320609E+01  0.16251971109E+02  0.26850602377E+02  0.31886208213E+02  0.00000000000E+00 0.  1.
         11    1    3    3    0    0 -0.59191694471E+01  0.46940281885E+01 -0.21662264203E+01  0.78589442512E+01  0.51100000000E-03 0.  1.
        -11    1    3    3    0    0  0.89992279781E+01 -0.98511384370E+01 -0.32632256058E+02  0.35254718385E+02  0.51100000000E-03 0. -1.
         12    1    3    3    0    0 -0.87057905920E+01 -0.11094860860E+02  0.79478801004E+01  0.16188129152E+02  0.00000000000E+00 0. -1.
</event>
<event>
 7    1  0.3528441E-013  0.5930196E+02  0.7816164E-02  0.1266605E+00
        -11   -1    0    0    0    0  0.00000000000E+00  0.00000000000E+00  0.45593999997E+02  0.45594000000E+02  0.51100000000E-03 0. -1.
         11   -1    0    0    0    0 -0.00000000000E+00 -0.00000000000E+00 -0.45593999997E+02  0.45594000000E+02  0.51100000000E-03 0.  1.
    9900012    2    1    2    0    0  0.24187647052E+02  0.15364809856E+02  0.13985708654E+02  0.59301957625E+02  0.50000024798E+02 0.  0.
        -12    1    1    2    0    0 -0.24187647052E+02 -0.15364809856E+02 -0.13985708654E+02  0.31886042375E+02  0.00000000000E+00 0.  1.
         11    1    3    3    0    0  0.14825507188E+02 -0.33286406901E+00 -0.10663499028E+02  0.18265176530E+02  0.51100000000E-03 0.  1.
        -11    1    3    3    0    0 -0.92182155160E+01  0.82773111442E+01  0.12654338212E+02  0.17709366248E+02  0.51100000000E-03 0. -1.
         12    1    3    3    0    0  0.18580355380E+02  0.74203627806E+01  0.11994869470E+02  0.23327414847E+02  0.00000000000E+00 0. -1.
</event>
<event>
 7    1  0.3528441E-013  0.5930195E+02  0.7816164E-02  0.1266605E+00
        -11   -1    0    0    0    0  0.00000000000E+00  0.00000000000E+00  0.45593999997E+02  0.45594000000E+02  0.51100000000E-03 0.  1.
         11   -1    0    0    0    0 -0.00000000000E+00 -0.00000000000E+00 -0.45593999997E+02  0.45594000000E+02  0.51100000000E-03 0. -1.
    9900012    2    1    2    0    0  0.10247656383E+02  0.11262822475E+02 -0.28015256559E+02  0.59301949265E+02  0.50000009551E+02 0.  0.
        -12    1    1    2    0    0 -0.10247656383E+02 -0.11262822475E+02  0.28015256559E+02  0.31886050735E+02  0.00000000000E+00 0.  1.
         11    1    3    3    0    0  0.12767181452E+02  0.14901648820E+02 -0.57961206682E+01  0.20461062408E+02  0.51100000000E-03 0. -1.
        -11    1    3    3    0    0 -0.71372261051E+01  0.12840148753E+02 -0.91421336589E+01  0.17302832848E+02  0.51100000000E-03 0.  1.
         12    1    3    3    0    0  0.46177010359E+01 -0.16478975098E+02 -0.13077002232E+02  0.21538054009E+02  0.00000000000E+00 0. -1.
</event>
<event>
 7    1  0.3528441E-013  0.5930191E+02  0.7816164E-02  0.1266605E+00
        -11   -1    0    0    0    0  0.00000000000E+00  0.00000000000E+00  0.45593999997E+02  0.45594000000E+02  0.51100000000E-03 0. -1.
         11   -1    0    0    0    0 -0.00000000000E+00 -0.00000000000E+00 -0.45593999997E+02  0.45594000000E+02  0.51100000000E-03 0.  1.
    9900012    2    1    2    0    0  0.29738424426E+02  0.27493404370E+01  0.11170944401E+02  0.59301909631E+02  0.49999937269E+02 0.  0.
        -12    1    1    2    0    0 -0.29738424426E+02 -0.27493404370E+01 -0.11170944401E+02  0.31886090369E+02  0.00000000000E+00 0.  1.
         11    1    3    3    0    0  0.13302312004E+01 -0.27036971435E+01 -0.25688476208E+01  0.39596049867E+01  0.51100000000E-03 0. -1.
        -11    1    3    3    0    0  0.15589935318E+02 -0.35170792724E+01 -0.15447042014E+02  0.22226718991E+02  0.51100000000E-03 0.  1.
         12    1    3    3    0    0  0.12818257907E+02  0.89701168529E+01  0.29186834036E+02  0.33115585654E+02  0.00000000000E+00 0. -1.
</event>
<event>
 7    1  0.3528441E-013  0.5930195E+02  0.7816164E-02  0.1266605E+00
        -11   -1    0    0    0    0  0.00000000000E+00  0.00000000000E+00  0.45593999997E+02  0.45594000000E+02  0.51100000000E-03 0. -1.
         11   -1    0    0    0    0 -0.00000000000E+00 -0.00000000000E+00 -0.45593999997E+02  0.45594000000E+02  0.51100000000E-03 0.  1.
    9900012    2    1    2    0    0  0.21348302059E+02  0.23644986363E+02  0.13727841872E+01  0.59301954191E+02  0.50000018535E+02 0.  0.
        -12    1    1    2    0    0 -0.21348302059E+02 -0.23644986363E+02 -0.13727841872E+01  0.31886045809E+02  0.00000000000E+00 0.  1.
         11    1    3    3    0    0  0.12116390093E+02  0.25804137958E+02  0.23504050108E+01  0.28603930650E+02  0.51100000000E-03 0. -1.
        -11    1    3    3    0    0  0.69385001894E+01  0.13267145956E+02  0.84639018622E+00  0.14995876877E+02  0.51100000000E-03 0.  1.
        -12    1    3    3    0    0  0.22934117758E+01 -0.15426297551E+02 -0.18240110098E+01  0.15702146664E+02  0.00000000000E+00 0.  1.
</event>
<event>
 7    1  0.3528441E-013  0.5930208E+02  0.7816164E-02  0.1266604E+00
        -11   -1    0    0    0    0  0.00000000000E+00  0.00000000000E+00  0.45593999997E+02  0.45594000000E+02  0.51100000000E-03 0. -1.
         11   -1    0    0    0    0 -0.00000000000E+00 -0.00000000000E+00 -0.45593999997E+02  0.45594000000E+02  0.51100000000E-03 0.  1.
    9900012    2    1    2    0    0  0.10927109313E+02 -0.27215345847E+02 -0.12515389204E+02  0.59302082506E+02  0.50000252551E+02 0.  0.
        -12    1    1    2    0    0 -0.10927109313E+02  0.27215345847E+02  0.12515389204E+02  0.31885917494E+02  0.00000000000E+00 0.  1.
         11    1    3    3    0    0  0.34843686306E+01 -0.26701201135E+02 -0.24458401194E+02  0.36377305509E+02  0.51100000000E-03 0. -1.
        -11    1    3    3    0    0 -0.12189402592E+01 -0.74103840850E+00 -0.42916872275E+01  0.45225582139E+01  0.51100000000E-03 0.  1.
        -12    1    3    3    0    0  0.86616809415E+01  0.22689369735E+00  0.16234699217E+02  0.18402218784E+02  0.00000000000E+00 0.  1.
</event>
<event>
 7    1  0.3528441E-013  0.5930196E+02  0.7816164E-02  0.1266605E+00
        -11   -1    0    0    0    0  0.00000000000E+00  0.00000000000E+00  0.45593999997E+02  0.45594000000E+02  0.51100000000E-03 0.  1.
         11   -1    0    0    0    0 -0.00000000000E+00 -0.00000000000E+00 -0.45593999997E+02  0.45594000000E+02  0.51100000000E-03 0. -1.
    9900012    2    1    2    0    0 -0.15271930589E+01 -0.31733024912E+02 -0.27207322019E+01  0.59301959599E+02  0.50000028399E+02 0.  0.
        -12    1    1    2    0    0  0.15271930589E+01  0.31733024912E+02  0.27207322019E+01  0.31886040401E+02  0.00000000000E+00 0.  1.
         11    1    3    3    0    0  0.16274339475E+02 -0.85234755495E-01 -0.41159523297E+01  0.16786972751E+02  0.51100000000E-03 0.  1.
        -11    1    3    3    0    0  0.13036725082E+01 -0.18294956769E+02  0.47991100062E+01  0.18958809622E+02  0.51100000000E-03 0. -1.
        -12    1    3    3    0    0 -0.19105205042E+02 -0.13352833388E+02 -0.34038898785E+01  0.23556177226E+02  0.00000000000E+00 0.  1.
</event>
<event>
 7    1  0.3528441E-013  0.5930194E+02  0.7816164E-02  0.1266605E+00
        -11   -1    0    0    0    0  0.00000000000E+00  0.00000000000E+00  0.45593999997E+02  0.45594000000E+02  0.51100000000E-03 0. -1.
         11   -1    0    0    0    0 -0.00000000000E+00 -0.00000000000E+00 -0.45593999997E+02  0.45594000000E+02  0.51100000000E-03 0.  1.
    9900012    2    1    2    0    0  0.21838023063E+02 -0.15217934365E+02  0.17556643362E+02  0.59301944995E+02  0.50000001764E+02 0.  0.
        -12    1    1    2    0    0 -0.21838023063E+02  0.15217934365E+02 -0.17556643362E+02  0.31886055005E+02  0.00000000000E+00 0.  1.
         11    1    3    3    0    0  0.18209183296E+02  0.32102233892E+01 -0.13040639502E+02  0.22626050681E+02  0.51100000000E-03 0. -1.
        -11    1    3    3    0    0  0.39615909552E+01 -0.42270731358E+01  0.11478722033E+02  0.12857815132E+02  0.51100000000E-03 0.  1.
        -12    1    3    3    0    0 -0.33275118882E+00 -0.14201084618E+02  0.19118560831E+02  0.23818079182E+02  0.00000000000E+00 0.  1.
</event>
<event>
 7    1  0.3528441E-013  0.5930197E+02  0.7816164E-02  0.1266605E+00
        -11   -1    0    0    0    0  0.00000000000E+00  0.00000000000E+00  0.45593999997E+02  0.45594000000E+02  0.51100000000E-03 0.  1.
         11   -1    0    0    0    0 -0.00000000000E+00 -0.00000000000E+00 -0.45593999997E+02  0.45594000000E+02  0.51100000000E-03 0. -1.
    9900012    2    1    2    0    0  0.35637027347E+00 -0.31534769785E+02  0.47064284974E+01  0.59301965842E+02  0.50000039784E+02 0.  0.
        -12    1    1    2    0    0 -0.35637027347E+00  0.31534769785E+02 -0.47064284974E+01  0.31886034158E+02  0.00000000000E+00 0.  1.
         11    1    3    3    0    0  0.98423273601E+01  0.58867329401E+01  0.86113186862E-01  0.11468759668E+02  0.51100000000E-03 0. -1.
        -11    1    3    3    0    0 -0.87724906415E+00 -0.46173282162E+01 -0.98858353612E+01  0.10946187776E+02  0.51100000000E-03 0.  1.
        -12    1    3    3    0    0 -0.86087080225E+01 -0.32804174508E+02  0.14506150672E+02  0.36887018398E+02  0.00000000000E+00 0.  1.
</event>
<event>
 7    1  0.3528441E-013  0.5930190E+02  0.7816164E-02  0.1266605E+00
        -11   -1    0    0    0    0  0.00000000000E+00  0.00000000000E+00  0.45593999997E+02  0.45594000000E+02  0.51100000000E-03 0.  1.
         11   -1    0    0    0    0 -0.00000000000E+00 -0.00000000000E+00 -0.45593999997E+02  0.45594000000E+02  0.51100000000E-03 0. -1.
    9900012    2    1    2    0    0  0.11497103019E+02 -0.29356244178E+02 -0.47697977216E+01  0.59301899260E+02  0.49999918355E+02 0.  0.
        -12    1    1    2    0    0 -0.11497103019E+02  0.29356244178E+02  0.47697977216E+01  0.31886100740E+02  0.00000000000E+00 0.  1.
         11    1    3    3    0    0 -0.72313336150E-01 -0.11625567899E+02 -0.20154587326E+02  0.23267282796E+02  0.51100000000E-03 0. -1.
        -11    1    3    3    0    0 -0.36742302015E+01 -0.38181864339E+01 -0.48124425385E+01  0.71580806551E+01  0.51100000000E-03 0.  1.
        -12    1    3    3    0    0  0.15243646557E+02 -0.13912489846E+02  0.20197232143E+02  0.28876535809E+02  0.00000000000E+00 0.  1.
</event>
<event>
 7    1  0.3528441E-013  0.5930196E+02  0.7816164E-02  0.1266605E+00
        -11   -1    0    0    0    0  0.00000000000E+00  0.00000000000E+00  0.45593999997E+02  0.45594000000E+02  0.51100000000E-03 0.  1.
         11   -1    0    0    0    0 -0.00000000000E+00 -0.00000000000E+00 -0.45593999997E+02  0.45594000000E+02  0.51100000000E-03 0. -1.
    9900012    2    1    2    0    0 -0.24595664646E+02 -0.76061661555E+01 -0.18812730793E+02  0.59301963513E+02  0.50000035536E+02 0.  0.
        -12    1    1    2    0    0  0.24595664646E+02  0.76061661555E+01  0.18812730793E+02  0.31886036487E+02  0.00000000000E+00 0.  1.
         11    1    3    3    0    0  0.20265303536E+01  0.11570600642E+02 -0.92041731344E+01  0.14923217744E+02  0.51100000000E-03 0. -1.
        -11    1    3    3    0    0  0.73320774682E+00 -0.98051432010E+01 -0.11823692649E+02  0.15377845588E+02  0.51100000000E-03 0.  1.
        -12    1    3    3    0    0 -0.27355402747E+02 -0.93716235968E+01  0.22151349902E+01  0.29000900181E+02  0.00000000000E+00 0.  1.
</event>
<event>
 7    1  0.3528441E-013  0.5930195E+02  0.7816164E-02  0.1266605E+00
        -11   -1    0    0    0    0  0.00000000000E+00  0.00000000000E+00  0.45593999997E+02  0.45594000000E+02  0.51100000000E-03 0.  1.
         11   -1    0    0    0    0 -0.00000000000E+00 -0.00000000000E+00 -0.45593999997E+02  0.45594000000E+02  0.51100000000E-03 0. -1.
    9900012    2    1    2    0    0  0.18145573456E+01 -0.27252479904E+02 -0.16453878780E+02  0.59301946526E+02  0.50000004556E+02 0.  0.
        -12    1    1    2    0    0 -0.18145573456E+01  0.27252479904E+02  0.16453878780E+02  0.31886053474E+02  0.00000000000E+00 0.  1.
         11    1    3    3    0    0 -0.70596242145E+01 -0.29086229003E+02 -0.48640568754E+01  0.30323358343E+02  0.51100000000E-03 0. -1.
        -11    1    3    3    0    0 -0.35796441230E+01 -0.87093390735E+01 -0.77992028794E+01  0.12226774103E+02  0.51100000000E-03 0.  1.
        -12    1    3    3    0    0  0.12453825683E+02  0.10543088173E+02 -0.37906190256E+01  0.16751814080E+02  0.00000000000E+00 0.  1.
</event>
<event>
 7    1  0.3528441E-013  0.5930194E+02  0.7816164E-02  0.1266605E+00
        -11   -1    0    0    0    0  0.00000000000E+00  0.00000000000E+00  0.45593999997E+02  0.45594000000E+02  0.51100000000E-03 0. -1.
         11   -1    0    0    0    0 -0.00000000000E+00 -0.00000000000E+00 -0.45593999997E+02  0.45594000000E+02  0.51100000000E-03 0.  1.
    9900012    2    1    2    0    0  0.20397122079E+02  0.23842234937E+02  0.56767741172E+01  0.59301944736E+02  0.50000001292E+02 0.  0.
        -12    1    1    2    0    0 -0.20397122079E+02 -0.23842234937E+02 -0.56767741172E+01  0.31886055264E+02  0.00000000000E+00 0.  1.
         11    1    3    3    0    0 -0.49708319298E+01  0.86726792777E+01 -0.81780944831E+01  0.12915330641E+02  0.51100000000E-03 0. -1.
        -11    1    3    3    0    0  0.30003875950E+01  0.52327151640E+01 -0.10340093845E+02  0.11970846866E+02  0.51100000000E-03 0.  1.
         12    1    3    3    0    0  0.22367566414E+02  0.99368404957E+01  0.24194962445E+02  0.34415767230E+02  0.00000000000E+00 0. -1.
</event>
<event>
 7    1  0.3528441E-013  0.5930201E+02  0.7816164E-02  0.1266605E+00
        -11   -1    0    0    0    0  0.00000000000E+00  0.00000000000E+00  0.45593999997E+02  0.45594000000E+02  0.51100000000E-03 0.  1.
         11   -1    0    0    0    0 -0.00000000000E+00 -0.00000000000E+00 -0.45593999997E+02  0.45594000000E+02  0.51100000000E-03 0. -1.
    9900012    2    1    2    0    0  0.24610744265E+02  0.16168042758E+02 -0.12232009786E+02  0.59302009294E+02  0.50000119030E+02 0.  0.
        -12    1    1    2    0    0 -0.24610744265E+02 -0.16168042758E+02  0.12232009786E+02  0.31885990706E+02  0.00000000000E+00 0.  1.
         11    1    3    3    0    0  0.54324843138E+01 -0.10098321915E+01 -0.16437258720E+02  0.17341139563E+02  0.51100000000E-03 0. -1.
        -11    1    3    3    0    0 -0.12576393034E+01 -0.21120639752E+01 -0.10122755903E+02  0.10416940923E+02  0.51100000000E-03 0.  1.
        -12    1    3    3    0    0  0.20435899254E+02  0.19289938924E+02  0.14328004837E+02  0.31543928808E+02  0.00000000000E+00 0.  1.
</event>
<event>
 7    1  0.3528441E-013  0.5930193E+02  0.7816164E-02  0.1266605E+00
        -11   -1    0    0    0    0  0.00000000000E+00  0.00000000000E+00  0.45593999997E+02  0.45594000000E+02  0.51100000000E-03 0. -1.
         11   -1    0    0    0    0 -0.00000000000E+00 -0.00000000000E+00 -0.45593999997E+02  0.45594000000E+02  0.51100000000E-03 0.  1.
    9900012    2    1    2    0    0  0.29071171036E+00 -0.80688794182E+01  0.30846881528E+02  0.59301930497E+02  0.49999975323E+02 0.  0.
        -12    1    1    2    0    0 -0.29071171036E+00  0.80688794182E+01 -0.30846881528E+02  0.31886069503E+02  0.00000000000E+00 0.  1.
         11    1    3    3    0    0  0.18120901656E+02 -0.97267730060E+01  0.20372209804E+02  0.28948300856E+02  0.51100000000E-03 0. -1.
        -11    1    3    3    0    0 -0.29329458620E+01 -0.32554183274E+01 -0.61144190346E+01  0.75223693281E+01  0.51100000000E-03 0.  1.
         12    1    3    3    0    0 -0.14897244083E+02  0.49133119152E+01  0.16589090759E+02  0.22831260312E+02  0.00000000000E+00 0. -1.
</event>
<event>
 7    1  0.3528441E-013  0.5930196E+02  0.7816164E-02  0.1266605E+00
        -11   -1    0    0    0    0  0.00000000000E+00  0.00000000000E+00  0.45593999997E+02  0.45594000000E+02  0.51100000000E-03 0. -1.
         11   -1    0    0    0    0 -0.00000000000E+00 -0.00000000000E+00 -0.45593999997E+02  0.45594000000E+02  0.51100000000E-03 0.  1.
    9900012    2    1    2    0    0 -0.18596203042E+02 -0.25838148692E+02 -0.18141165233E+01  0.59301957377E+02  0.50000024346E+02 0.  0.
        -12    1    1    2    0    0  0.18596203042E+02  0.25838148692E+02  0.18141165233E+01  0.31886042623E+02  0.00000000000E+00 0.  1.
         11    1    3    3    0    0 -0.60143782932E+01  0.31830112139E+01 -0.51658900776E+01  0.85434610783E+01  0.51100000000E-03 0. -1.
        -11    1    3    3    0    0  0.22821566132E+01 -0.32450324912E+02 -0.56920264868E+01  0.33024702747E+02  0.51100000000E-03 0.  1.
         12    1    3    3    0    0 -0.14863981362E+02  0.34291650069E+01  0.90438000411E+01  0.17733793552E+02  0.00000000000E+00 0. -1.
</event>
<event>
 7    1  0.3528441E-013  0.5930191E+02  0.7816164E-02  0.1266605E+00
        -11   -1    0    0    0    0  0.00000000000E+00  0.00000000000E+00  0.45593999997E+02  0.45594000000E+02  0.51100000000E-03 0.  1.
         11   -1    0    0    0    0 -0.00000000000E+00 -0.00000000000E+00 -0.45593999997E+02  0.45594000000E+02  0.51100000000E-03 0. -1.
    9900012    2    1    2    0    0  0.59529353848E+01  0.91048578264E+01 -0.29973101568E+02  0.59301910661E+02  0.49999939148E+02 0.  0.
        -12    1    1    2    0    0 -0.59529353848E+01 -0.91048578264E+01  0.29973101568E+02  0.31886089339E+02  0.00000000000E+00 0.  1.
         11    1    3    3    0    0 -0.32714147072E+01  0.87850968485E+01 -0.11508601951E+02  0.14843449732E+02  0.51100000000E-03 0. -1.
        -11    1    3    3    0    0  0.69098247056E+01  0.18767941277E+02 -0.16181718038E+02  0.25726043150E+02  0.51100000000E-03 0.  1.
        -12    1    3    3    0    0  0.23145253864E+01 -0.18448180299E+02 -0.22827815787E+01  0.18732417779E+02  0.00000000000E+00 0.  1.
</event>
<event>
 7    1  0.3528441E-013  0.5930198E+02  0.7816164E-02  0.1266605E+00
        -11   -1    0    0    0    0  0.00000000000E+00  0.00000000000E+00  0.45593999997E+02  0.45594000000E+02  0.51100000000E-03 0. -1.
         11   -1    0    0    0    0 -0.00000000000E+00 -0.00000000000E+00 -0.45593999997E+02  0.45594000000E+02  0.51100000000E-03 0.  1.
    9900012    2    1    2    0    0  0.17791063685E+02 -0.23664425092E+02  0.11840234462E+02  0.59301982468E+02  0.50000070105E+02 0.  0.
        -12    1    1    2    0    0 -0.17791063685E+02  0.23664425092E+02 -0.11840234462E+02  0.31886017532E+02  0.00000000000E+00 0.  1.
         11    1    3    3    0    0  0.15448177461E+02 -0.16402472393E+02  0.95829023313E+01  0.24485083312E+02  0.51100000000E-03 0. -1.
        -11    1    3    3    0    0  0.81798776620E+01 -0.19474201108E+02  0.25675327690E+01  0.21277855441E+02  0.51100000000E-03 0.  1.
         12    1    3    3    0    0 -0.58369914377E+01  0.12212248410E+02 -0.31020063830E+00  0.13539043714E+02  0.00000000000E+00 0. -1.
</event>
<event>
 7    1  0.3528441E-013  0.5930200E+02  0.7816164E-02  0.1266605E+00
        -11   -1    0    0    0    0  0.00000000000E+00  0.00000000000E+00  0.45593999997E+02  0.45594000000E+02  0.51100000000E-03 0.  1.
         11   -1    0    0    0    0 -0.00000000000E+00 -0.00000000000E+00 -0.45593999997E+02  0.45594000000E+02  0.51100000000E-03 0. -1.
    9900012    2    1    2    0    0  0.18715145853E+02  0.70950070449E+01 -0.24821792574E+02  0.59301996866E+02  0.50000096364E+02 0.  0.
        -12    1    1    2    0    0 -0.18715145853E+02 -0.70950070449E+01  0.24821792574E+02  0.31886003134E+02  0.00000000000E+00 0.  1.
         11    1    3    3    0    0  0.15219854382E+01 -0.90682255637E+01 -0.24235229138E+01  0.95090808243E+01  0.51100000000E-03 0. -1.
        -11    1    3    3    0    0  0.25645820242E+02  0.43226631458E+01 -0.39614472963E+01  0.26307538416E+02  0.51100000000E-03 0.  1.
         12    1    3    3    0    0 -0.84526598273E+01  0.11840569463E+02 -0.18436822364E+02  0.23485377626E+02  0.00000000000E+00 0. -1.
</event>
<event>
 7    1  0.3528441E-013  0.5930193E+02  0.7816164E-02  0.1266605E+00
        -11   -1    0    0    0    0  0.00000000000E+00  0.00000000000E+00  0.45593999997E+02  0.45594000000E+02  0.51100000000E-03 0.  1.
         11   -1    0    0    0    0 -0.00000000000E+00 -0.00000000000E+00 -0.45593999997E+02  0.45594000000E+02  0.51100000000E-03 0. -1.
    9900012    2    1    2    0    0 -0.13889392909E+02 -0.19050837180E+02 -0.21467930451E+02  0.59301926700E+02  0.49999968399E+02 0.  0.
        -12    1    1    2    0    0  0.13889392909E+02  0.19050837180E+02  0.21467930451E+02  0.31886073300E+02  0.00000000000E+00 0.  1.
         11    1    3    3    0    0  0.25348982896E+01 -0.38986339594E+01 -0.30061812846E+02  0.30419363043E+02  0.51100000000E-03 0. -1.
        -11    1    3    3    0    0  0.69896720297E+00 -0.40773975169E+01 -0.32849474988E+01  0.52824810452E+01  0.51100000000E-03 0.  1.
         12    1    3    3    0    0 -0.17123258402E+02 -0.11074805704E+02  0.11878829894E+02  0.23600082612E+02  0.00000000000E+00 0. -1.
</event>
<event>
 7    1  0.3528441E-013  0.5930194E+02  0.7816164E-02  0.1266605E+00
        -11   -1    0    0    0    0  0.00000000000E+00  0.00000000000E+00  0.45593999997E+02  0.45594000000E+02  0.51100000000E-03 0. -1.
         11   -1    0    0    0    0 -0.00000000000E+00 -0.00000000000E+00 -0.45593999997E+02  0.45594000000E+02  0.51100000000E-03 0.  1.
    9900012    2    1    2    0    0 -0.25472624176E+02  0.18904541263E+02 -0.32379508618E+01  0.59301943666E+02  0.49999999340E+02 0.  0.
        -12    1    1    2    0    0  0.25472624176E+02 -0.18904541263E+02  0.32379508618E+01  0.31886056334E+02  0.00000000000E+00 0.  1.
         11    1    3    3    0    0 -0.39630750146E+01 -0.26763917410E+01  0.88757243153E+01  0.10082039412E+02  0.51100000000E-03 0. -1.
        -11    1    3    3    0    0 -0.85483375897E+01 -0.88335397078E+01  0.33213362531E+01  0.12733293921E+02  0.51100000000E-03 0.  1.
        -12    1    3    3    0    0 -0.12961211572E+02  0.30414472711E+02 -0.15435011430E+02  0.36486610333E+02  0.00000000000E+00 0.  1.
</event>
<event>
 7    1  0.3528441E-013  0.5930192E+02  0.7816164E-02  0.1266605E+00
        -11   -1    0    0    0    0  0.00000000000E+00  0.00000000000E+00  0.45593999997E+02  0.45594000000E+02  0.51100000000E-03 0.  1.
         11   -1    0    0    0    0 -0.00000000000E+00 -0.00000000000E+00 -0.45593999997E+02  0.45594000000E+02  0.51100000000E-03 0. -1.
    9900012    2    1    2    0    0  0.26003365536E+02 -0.17956074683E+02 -0.42575395342E+01  0.59301917141E+02  0.49999950964E+02 0.  0.
        -12    1    1    2    0    0 -0.26003365536E+02  0.17956074683E+02  0.42575395342E+01  0.31886082859E+02  0.00000000000E+00 0.  1.
         11    1    3    3    0    0  0.30449651953E+02 -0.23388939165E+02  0.21955792929E+01  0.38458345622E+02  0.51100000000E-03 0. -1.
        -11    1    3    3    0    0 -0.72083270112E-01  0.70977492607E+00  0.64152624536E+01  0.64548097611E+01  0.51100000000E-03 0.  1.
        -12    1    3    3    0    0 -0.43742031470E+01  0.47230895556E+01 -0.12868381281E+02  0.14388761757E+02  0.00000000000E+00 0.  1.
</event>
<event>
 7    1  0.3528441E-013  0.5930196E+02  0.7816164E-02  0.1266605E+00
        -11   -1    0    0    0    0  0.00000000000E+00  0.00000000000E+00  0.45593999997E+02  0.45594000000E+02  0.51100000000E-03 0.  1.
         11   -1    0    0    0    0 -0.00000000000E+00 -0.00000000000E+00 -0.45593999997E+02  0.45594000000E+02  0.51100000000E-03 0. -1.
    9900012    2    1    2    0    0  0.54639381743E+01 -0.79718256083E+01 -0.30386102586E+02  0.59301955180E+02  0.50000020339E+02 0.  0.
        -12    1    1    2    0    0 -0.54639381743E+01  0.79718256083E+01  0.30386102586E+02  0.31886044820E+02  0.00000000000E+00 0.  1.
         11    1    3    3    0    0 -0.12317009083E+02 -0.10266853868E+02 -0.17049414716E+02  0.23405117891E+02  0.51100000000E-03 0. -1.
        -11    1    3    3    0    0 -0.49861558761E+01  0.79278652449E+01 -0.67226139410E+01  0.11528501040E+02  0.51100000000E-03 0.  1.
        -12    1    3    3    0    0  0.22767103133E+02 -0.56328369855E+01 -0.66140739289E+01  0.24368336248E+02  0.00000000000E+00 0.  1.
</event>
<event>
 7    1  0.3528441E-013  0.5930193E+02  0.7816164E-02  0.1266605E+00
        -11   -1    0    0    0    0  0.00000000000E+00  0.00000000000E+00  0.45593999997E+02  0.45594000000E+02  0.51100000000E-03 0.  1.
         11   -1    0    0    0    0 -0.00000000000E+00 -0.00000000000E+00 -0.45593999997E+02  0.45594000000E+02  0.51100000000E-03 0. -1.
    9900012    2    1    2    0    0 -0.56530021062E+01  0.31366434008E+02  0.95485828284E+00  0.59301931419E+02  0.49999977005E+02 0.  0.
        -12    1    1    2    0    0  0.56530021062E+01 -0.31366434008E+02 -0.95485828284E+00  0.31886068581E+02  0.00000000000E+00 0.  1.
         11    1    3    3    0    0  0.12580699470E+02  0.33533843102E+01 -0.13083677653E+02  0.18458109510E+02  0.51100000000E-03 0. -1.
        -11    1    3    3    0    0 -0.19131499651E+01 -0.15648576766E+01  0.54545933555E+01  0.59884481522E+01  0.51100000000E-03 0.  1.
         12    1    3    3    0    0 -0.16320551611E+02  0.29577907375E+02  0.85839425802E+01  0.34855373757E+02  0.00000000000E+00 0. -1.
</event>
<event>
 7    1  0.3528441E-013  0.5930193E+02  0.7816164E-02  0.1266605E+00
        -11   -1    0    0    0    0  0.00000000000E+00  0.00000000000E+00  0.45593999997E+02  0.45594000000E+02  0.51100000000E-03 0. -1.
         11   -1    0    0    0    0 -0.00000000000E+00 -0.00000000000E+00 -0.45593999997E+02  0.45594000000E+02  0.51100000000E-03 0.  1.
    9900012    2    1    2    0    0  0.20068618878E+02 -0.11862247697E+02  0.21754513609E+02  0.59301933349E+02  0.49999980525E+02 0.  0.
        -12    1    1    2    0    0 -0.20068618878E+02  0.11862247697E+02 -0.21754513609E+02  0.31886066651E+02  0.00000000000E+00 0.  1.
         11    1    3    3    0    0  0.78340772353E+01 -0.26114641108E+02  0.11052350576E+02  0.29419410257E+02  0.51100000000E-03 0. -1.
        -11    1    3    3    0    0 -0.39049152388E+00 -0.41925049244E+01  0.55115164696E+01  0.69358773942E+01  0.51100000000E-03 0.  1.
        -12    1    3    3    0    0  0.12625033166E+02  0.18444898335E+02  0.51906465634E+01  0.22946645698E+02  0.00000000000E+00 0.  1.
</event>
<event>
 7    1  0.3528441E-013  0.5930192E+02  0.7816164E-02  0.1266605E+00
        -11   -1    0    0    0    0  0.00000000000E+00  0.00000000000E+00  0.45593999997E+02  0.45594000000E+02  0.51100000000E-03 0.  1.
         11   -1    0    0    0    0 -0.00000000000E+00 -0.00000000000E+00 -0.45593999997E+02  0.45594000000E+02  0.51100000000E-03 0. -1.
    9900012    2    1    2    0    0 -0.31014377375E+02 -0.50114473476E+01 -0.54512557680E+01  0.59301915294E+02  0.49999947596E+02 0.  0.
        -12    1    1    2    0    0  0.31014377375E+02  0.50114473476E+01  0.54512557680E+01  0.31886084706E+02  0.00000000000E+00 0.  1.
         11    1    3    3    0    0 -0.23212140513E+02  0.13621364948E+02 -0.11474250097E+02  0.29257536906E+02  0.51100000000E-03 0. -1.
        -11    1    3    3    0    0 -0.11609186088E+02 -0.13395244184E+01  0.31712251038E+01  0.12108847848E+02  0.51100000000E-03 0.  1.
         12    1    3    3    0    0  0.38069492265E+01 -0.17293287877E+02  0.28517692257E+01  0.17935530539E+02  0.00000000000E+00 0. -1.
</event>
<event>
 7    1  0.3528441E-013  0.5930194E+02  0.7816164E-02  0.1266605E+00
        -11   -1    0    0    0    0  0.00000000000E+00  0.00000000000E+00  0.45593999997E+02  0.45594000000E+02  0.51100000000E-03 0. -1.
         11   -1    0    0    0    0 -0.00000000000E+00 -0.00000000000E+00 -0.45593999997E+02  0.45594000000E+02  0.51100000000E-03 0.  1.
    9900012    2    1    2    0    0  0.25238575140E+02  0.18305237661E+02  0.66823216044E+01  0.59301939990E+02  0.49999992636E+02 0.  0.
        -12    1    1    2    0    0 -0.25238575140E+02 -0.18305237661E+02 -0.66823216044E+01  0.31886060010E+02  0.00000000000E+00 0.  1.
         11    1    3    3    0    0  0.14059969663E+01  0.91597463756E+01 -0.96823595183E+00  0.93174708078E+01  0.51100000000E-03 0.  1.
        -11    1    3    3    0    0 -0.87086874212E+01  0.10389274181E+02  0.10709160389E+02  0.17276121414E+02  0.51100000000E-03 0. -1.
         12    1    3    3    0    0  0.32541265595E+02 -0.12437828963E+01 -0.30586028329E+01  0.32708347768E+02  0.00000000000E+00 0. -1.
</event>
<event>
 7    1  0.3528441E-013  0.5930192E+02  0.7816164E-02  0.1266605E+00
        -11   -1    0    0    0    0  0.00000000000E+00  0.00000000000E+00  0.45593999997E+02  0.45594000000E+02  0.51100000000E-03 0.  1.
         11   -1    0    0    0    0 -0.00000000000E+00 -0.00000000000E+00 -0.45593999997E+02  0.45594000000E+02  0.51100000000E-03 0. -1.
    9900012    2    1    2    0    0  0.16480238034E+02  0.91006674569E+01 -0.25735219840E+02  0.59301922567E+02  0.49999960861E+02 0.  0.
        -12    1    1    2    0    0 -0.16480238034E+02 -0.91006674569E+01  0.25735219840E+02  0.31886077433E+02  0.00000000000E+00 0.  1.
         11    1    3    3    0    0  0.12151491911E+02 -0.86776267991E+01 -0.12297126110E+02  0.19343714053E+02  0.51100000000E-03 0. -1.
        -11    1    3    3    0    0  0.38145968582E+01  0.10350443442E+02  0.10292466480E+02  0.15087004180E+02  0.51100000000E-03 0.  1.
        -12    1    3    3    0    0  0.51414926510E+00  0.74278508144E+01 -0.23730560210E+02  0.24871204335E+02  0.00000000000E+00 0.  1.
</event>
<event>
 7    1  0.3528441E-013  0.5930196E+02  0.7816164E-02  0.1266605E+00
        -11   -1    0    0    0    0  0.00000000000E+00  0.00000000000E+00  0.45593999997E+02  0.45594000000E+02  0.51100000000E-03 0.  1.
         11   -1    0    0    0    0 -0.00000000000E+00 -0.00000000000E+00 -0.45593999997E+02  0.45594000000E+02  0.51100000000E-03 0. -1.
    9900012    2    1    2    0    0  0.17870657180E+02  0.21809700020E+02  0.14889471629E+02  0.59301956527E+02  0.50000022795E+02 0.  0.
        -12    1    1    2    0    0 -0.17870657180E+02 -0.21809700020E+02 -0.14889471629E+02  0.31886043473E+02  0.00000000000E+00 0.  1.
         11    1    3    3    0    0 -0.33415628218E+01  0.26486233176E+01 -0.22324402067E+01  0.48130070754E+01  0.51100000000E-03 0. -1.
        -11    1    3    3    0    0 -0.12662082770E+02  0.44945740323E+00  0.70567619118E+01  0.14502697713E+02  0.51100000000E-03 0.  1.
         12    1    3    3    0    0  0.33874302771E+02  0.18711619299E+02  0.10065149923E+02  0.39986251738E+02  0.00000000000E+00 0. -1.
</event>
<event>
 7    1  0.3528441E-013  0.5930188E+02  0.7816164E-02  0.1266605E+00
        -11   -1    0    0    0    0  0.00000000000E+00  0.00000000000E+00  0.45593999997E+02  0.45594000000E+02  0.51100000000E-03 0.  1.
         11   -1    0    0    0    0 -0.00000000000E+00 -0.00000000000E+00 -0.45593999997E+02  0.45594000000E+02  0.51100000000E-03 0. -1.
    9900012    2    1    2    0    0  0.13538552388E+02  0.20310394405E+02 -0.20516342711E+02  0.59301877001E+02  0.49999877760E+02 0.  0.
        -12    1    1    2    0    0 -0.13538552388E+02 -0.20310394405E+02  0.20516342711E+02  0.31886122999E+02  0.00000000000E+00 0.  1.
         11    1    3    3    0    0 -0.30673988386E+01  0.10358454440E+01  0.36865568966E+01  0.49063849657E+01  0.51100000000E-03 0.  1.
        -11    1    3    3    0    0  0.18463161538E+02  0.31394106591E+02 -0.18961456714E+02  0.41061114252E+02  0.51100000000E-03 0. -1.
         12    1    3    3    0    0 -0.18572103115E+01 -0.12119557630E+02 -0.52414428934E+01  0.13334377784E+02  0.00000000000E+00 0. -1.
</event>
<event>
 7    1  0.3528441E-013  0.5930193E+02  0.7816164E-02  0.1266605E+00
        -11   -1    0    0    0    0  0.00000000000E+00  0.00000000000E+00  0.45593999997E+02  0.45594000000E+02  0.51100000000E-03 0.  1.
         11   -1    0    0    0    0 -0.00000000000E+00 -0.00000000000E+00 -0.45593999997E+02  0.45594000000E+02  0.51100000000E-03 0. -1.
    9900012    2    1    2    0    0 -0.26911127596E+02  0.23599288925E+01 -0.16939395344E+02  0.59301934587E+02  0.49999982783E+02 0.  0.
        -12    1    1    2    0    0  0.26911127596E+02 -0.23599288925E+01  0.16939395344E+02  0.31886065413E+02  0.00000000000E+00 0.  1.
         11    1    3    3    0    0 -0.20066926645E+02 -0.31498886109E+01 -0.73653937434E+01  0.21606766729E+02  0.51100000000E-03 0. -1.
        -11    1    3    3    0    0 -0.19323008610E+02 -0.25328441523E+01  0.92752587727E+00  0.19510363035E+02  0.51100000000E-03 0.  1.
         12    1    3    3    0    0  0.12478807659E+02  0.80426616557E+01 -0.10501527478E+02  0.18184804823E+02  0.00000000000E+00 0. -1.
</event>
<event>
 7    1  0.3528441E-013  0.5930192E+02  0.7816164E-02  0.1266605E+00
        -11   -1    0    0    0    0  0.00000000000E+00  0.00000000000E+00  0.45593999997E+02  0.45594000000E+02  0.51100000000E-03 0.  1.
         11   -1    0    0    0    0 -0.00000000000E+00 -0.00000000000E+00 -0.45593999997E+02  0.45594000000E+02  0.51100000000E-03 0. -1.
    9900012    2    1    2    0    0 -0.51479484343E+01 -0.28123472752E+01 -0.31341852881E+02  0.59301915068E+02  0.49999947185E+02 0.  0.
        -12    1    1    2    0    0  0.51479484343E+01  0.28123472752E+01  0.31341852881E+02  0.31886084932E+02  0.00000000000E+00 0.  1.
         11    1    3    3    0    0  0.61531831407E+01  0.45232345882E+01 -0.32749469040E+02  0.33628098914E+02  0.51100000000E-03 0. -1.
        -11    1    3    3    0    0 -0.70828516021E+01 -0.51892181739E+01 -0.10009332951E+02  0.13314710604E+02  0.51100000000E-03 0.  1.
        -12    1    3    3    0    0 -0.42182799729E+01 -0.21463636895E+01  0.11416949111E+02  0.12359105551E+02  0.00000000000E+00 0.  1.
</event>
<event>
 7    1  0.3528441E-013  0.5930196E+02  0.7816164E-02  0.1266605E+00
        -11   -1    0    0    0    0  0.00000000000E+00  0.00000000000E+00  0.45593999997E+02  0.45594000000E+02  0.51100000000E-03 0. -1.
         11   -1    0    0    0    0 -0.00000000000E+00 -0.00000000000E+00 -0.45593999997E+02  0.45594000000E+02  0.51100000000E-03 0.  1.
    9900012    2    1    2    0    0 -0.30468424115E+02 -0.75048058829E+01  0.56632670761E+01  0.59301959585E+02  0.50000028372E+02 0.  0.
        -12    1    1    2    0    0  0.30468424115E+02  0.75048058829E+01 -0.56632670761E+01  0.31886040415E+02  0.00000000000E+00 0.  1.
         11    1    3    3    0    0 -0.18306922329E+02  0.49456871212E+01  0.13101038826E+02  0.23048653861E+02  0.51100000000E-03 0. -1.
        -11    1    3    3    0    0  0.44774124343E+00 -0.25858133095E+00  0.10880059636E+02  0.10892338338E+02  0.51100000000E-03 0.  1.
        -12    1    3    3    0    0 -0.12609243030E+02 -0.12191911673E+02 -0.18317831386E+02  0.25360967385E+02  0.00000000000E+00 0.  1.
</event>
<event>
 7    1  0.3528441E-013  0.5930194E+02  0.7816164E-02  0.1266605E+00
        -11   -1    0    0    0    0  0.00000000000E+00  0.00000000000E+00  0.45593999997E+02  0.45594000000E+02  0.51100000000E-03 0.  1.
         11   -1    0    0    0    0 -0.00000000000E+00 -0.00000000000E+00 -0.45593999997E+02  0.45594000000E+02  0.51100000000E-03 0. -1.
    9900012    2    1    2    0    0  0.37310687163E+01  0.25784700271E+02 -0.18383397972E+02  0.59301937797E+02  0.49999988636E+02 0.  0.
        -12    1    1    2    0    0 -0.37310687163E+01 -0.25784700271E+02  0.18383397972E+02  0.31886062203E+02  0.00000000000E+00 0.  1.
         11    1    3    3    0    0  0.68175928686E+00 -0.49233986380E+01 -0.35273911287E+01  0.60948452244E+01  0.51100000000E-03 0. -1.
        -11    1    3    3    0    0 -0.56067316706E+01 -0.64596178371E+01  0.52863816152E+01  0.10055244078E+02  0.51100000000E-03 0.  1.
        -12    1    3    3    0    0  0.86560411001E+01  0.37167716746E+02 -0.20142388459E+02  0.43151848494E+02  0.00000000000E+00 0.  1.
</event>
<event>
 7    1  0.3528441E-013  0.5930192E+02  0.7816164E-02  0.1266605E+00
        -11   -1    0    0    0    0  0.00000000000E+00  0.00000000000E+00  0.45593999997E+02  0.45594000000E+02  0.51100000000E-03 0.  1.
         11   -1    0    0    0    0 -0.00000000000E+00 -0.00000000000E+00 -0.45593999997E+02  0.45594000000E+02  0.51100000000E-03 0. -1.
    9900012    2    1    2    0    0  0.39833748462E+01  0.30949596155E+02 -0.65557290518E+01  0.59301915877E+02  0.49999948659E+02 0.  0.
        -12    1    1    2    0    0 -0.39833748462E+01 -0.30949596155E+02  0.65557290518E+01  0.31886084123E+02  0.00000000000E+00 0.  1.
         11    1    3    3    0    0 -0.19637433981E+01  0.13980055013E+00  0.20854354371E+01  0.28679040345E+01  0.51100000000E-03 0. -1.
        -11    1    3    3    0    0 -0.82347255159E+01 -0.47312740119E+01  0.10066787542E+02  0.13839648470E+02  0.51100000000E-03 0.  1.
         12    1    3    3    0    0  0.14181843760E+02  0.35541069617E+02 -0.18707952031E+02  0.42594363373E+02  0.00000000000E+00 0. -1.
</event>
<event>
 7    1  0.3528441E-013  0.5930202E+02  0.7816164E-02  0.1266605E+00
        -11   -1    0    0    0    0  0.00000000000E+00  0.00000000000E+00  0.45593999997E+02  0.45594000000E+02  0.51100000000E-03 0.  1.
         11   -1    0    0    0    0 -0.00000000000E+00 -0.00000000000E+00 -0.45593999997E+02  0.45594000000E+02  0.51100000000E-03 0. -1.
    9900012    2    1    2    0    0  0.26442211344E+02  0.17328628741E+02 -0.41525773867E+01  0.59302018539E+02  0.50000135890E+02 0.  0.
        -12    1    1    2    0    0 -0.26442211344E+02 -0.17328628741E+02  0.41525773867E+01  0.31885981461E+02  0.00000000000E+00 0.  1.
         11    1    3    3    0    0  0.25598471966E+02  0.28426605585E+01 -0.76226296240E+01  0.26860137168E+02  0.51100000000E-03 0. -1.
        -11    1    3    3    0    0  0.11316033173E+02  0.80325349739E+01  0.11269436151E+02  0.17876644436E+02  0.51100000000E-03 0.  1.
        -12    1    3    3    0    0 -0.10472293795E+02  0.64534332084E+01 -0.77993839138E+01  0.14565236934E+02  0.00000000000E+00 0.  1.
</event>
<event>
 7    1  0.3528441E-013  0.5930194E+02  0.7816164E-02  0.1266605E+00
        -11   -1    0    0    0    0  0.00000000000E+00  0.00000000000E+00  0.45593999997E+02  0.45594000000E+02  0.51100000000E-03 0. -1.
         11   -1    0    0    0    0 -0.00000000000E+00 -0.00000000000E+00 -0.45593999997E+02  0.45594000000E+02  0.51100000000E-03 0.  1.
    9900012    2    1    2    0    0  0.15189435835E+02 -0.27390959658E+02 -0.59780835461E+01  0.59301935413E+02  0.49999984288E+02 0.  0.
        -12    1    1    2    0    0 -0.15189435835E+02  0.27390959658E+02  0.59780835461E+01  0.31886064587E+02  0.00000000000E+00 0.  1.
         11    1    3    3    0    0  0.22938125750E+01  0.46397177978E+01  0.13765099755E+02  0.14706003159E+02  0.51100000000E-03 0. -1.
        -11    1    3    3    0    0  0.14494415239E+01 -0.37480976258E+01  0.41993530843E+01  0.58123732788E+01  0.51100000000E-03 0.  1.
        -12    1    3    3    0    0  0.11446181736E+02 -0.28282579830E+02 -0.23942536386E+02  0.38783558975E+02  0.00000000000E+00 0.  1.
</event>
<event>
 7    1  0.3528441E-013  0.5930193E+02  0.7816164E-02  0.1266605E+00
        -11   -1    0    0    0    0  0.00000000000E+00  0.00000000000E+00  0.45593999997E+02  0.45594000000E+02  0.51100000000E-03 0. -1.
         11   -1    0    0    0    0 -0.00000000000E+00 -0.00000000000E+00 -0.45593999997E+02  0.45594000000E+02  0.51100000000E-03 0.  1.
    9900012    2    1    2    0    0  0.21424751405E+01 -0.65005239277E+01  0.31142803215E+02  0.59301934029E+02  0.49999981764E+02 0.  0.
        -12    1    1    2    0    0 -0.21424751405E+01  0.65005239277E+01 -0.31142803215E+02  0.31886065971E+02  0.00000000000E+00 0.  1.
         11    1    3    3    0    0  0.34071430311E+01  0.11258885556E+02  0.18695515742E+02  0.22088309956E+02  0.51100000000E-03 0. -1.
        -11    1    3    3    0    0  0.13827354015E+02 -0.54495232806E+01  0.91710723068E+01  0.17464294734E+02  0.51100000000E-03 0.  1.
         12    1    3    3    0    0 -0.15092021905E+02 -0.12309886203E+02  0.32762151661E+01  0.19749329339E+02  0.00000000000E+00 0. -1.
</event>
<event>
 7    1  0.3528441E-013  0.5930194E+02  0.7816164E-02  0.1266605E+00
        -11   -1    0    0    0    0  0.00000000000E+00  0.00000000000E+00  0.45593999997E+02  0.45594000000E+02  0.51100000000E-03 0. -1.
         11   -1    0    0    0    0 -0.00000000000E+00 -0.00000000000E+00 -0.45593999997E+02  0.45594000000E+02  0.51100000000E-03 0.  1.
    9900012    2    1    2    0    0  0.23915608578E+02  0.19955774191E+02  0.68214119233E+01  0.59301938502E+02  0.49999989922E+02 0.  0.
        -12    1    1    2    0    0 -0.23915608578E+02 -0.19955774191E+02 -0.68214119233E+01  0.31886061498E+02  0.00000000000E+00 0.  1.
         11    1    3    3    0    0  0.13425750128E+02  0.12934360422E+02 -0.99675493594E+01  0.21140020968E+02  0.51100000000E-03 0. -1.
        -11    1    3    3    0    0 -0.50532468672E+01 -0.52129482448E+01 -0.49373441831E+01  0.87799488123E+01  0.51100000000E-03 0.  1.
         12    1    3    3    0    0  0.15543105317E+02  0.12234362014E+02  0.21726305466E+02  0.29381968722E+02  0.00000000000E+00 0. -1.
</event>
<event>
 7    1  0.3528441E-013  0.5930192E+02  0.7816164E-02  0.1266605E+00
        -11   -1    0    0    0    0  0.00000000000E+00  0.00000000000E+00  0.45593999997E+02  0.45594000000E+02  0.51100000000E-03 0.  1.
         11   -1    0    0    0    0 -0.00000000000E+00 -0.00000000000E+00 -0.45593999997E+02  0.45594000000E+02  0.51100000000E-03 0. -1.
    9900012    2    1    2    0    0 -0.15207180811E+02  0.15723832837E+02 -0.23199678151E+02  0.59301916302E+02  0.49999949435E+02 0.  0.
        -12    1    1    2    0    0  0.15207180811E+02 -0.15723832837E+02  0.23199678151E+02  0.31886083698E+02  0.00000000000E+00 0.  1.
         11    1    3    3    0    0  0.53823255622E+01  0.84322735454E+00 -0.23868404621E+01  0.59478961391E+01  0.51100000000E-03 0. -1.
        -11    1    3    3    0    0  0.99425568049E+01  0.13508647947E+02 -0.74108655897E+00  0.16789497155E+02  0.51100000000E-03 0.  1.
         12    1    3    3    0    0 -0.30532063178E+02  0.13719575353E+01 -0.20071751130E+02  0.36564523008E+02  0.00000000000E+00 0. -1.
</event>
<event>
 7    1  0.3528441E-013  0.5930193E+02  0.7816164E-02  0.1266605E+00
        -11   -1    0    0    0    0  0.00000000000E+00  0.00000000000E+00  0.45593999997E+02  0.45594000000E+02  0.51100000000E-03 0. -1.
         11   -1    0    0    0    0 -0.00000000000E+00 -0.00000000000E+00 -0.45593999997E+02  0.45594000000E+02  0.51100000000E-03 0.  1.
    9900012    2    1    2    0    0 -0.29758221096E+02 -0.98866205861E+01  0.57814124850E+01  0.59301925928E+02  0.49999966990E+02 0.  0.
        -12    1    1    2    0    0  0.29758221096E+02  0.98866205861E+01 -0.57814124850E+01  0.31886074072E+02  0.00000000000E+00 0.  1.
         11    1    3    3    0    0 -0.93297881116E+01 -0.19313008480E+01  0.76545167881E+00  0.95582836172E+01  0.51100000000E-03 0. -1.
        -11    1    3    3    0    0 -0.31265419769E+02 -0.13632332368E+02  0.11376036435E+02  0.35955266156E+02  0.51100000000E-03 0.  1.
         12    1    3    3    0    0  0.10836986785E+02  0.56770126296E+01 -0.63600756289E+01  0.13788376155E+02  0.00000000000E+00 0. -1.
</event>
<event>
 7    1  0.3528441E-013  0.5930197E+02  0.7816164E-02  0.1266605E+00
        -11   -1    0    0    0    0  0.00000000000E+00  0.00000000000E+00  0.45593999997E+02  0.45594000000E+02  0.51100000000E-03 0. -1.
         11   -1    0    0    0    0 -0.00000000000E+00 -0.00000000000E+00 -0.45593999997E+02  0.45594000000E+02  0.51100000000E-03 0.  1.
    9900012    2    1    2    0    0  0.47206269488E+01 -0.12297841292E+02  0.29037867544E+02  0.59301969035E+02  0.50000045607E+02 0.  0.
        -12    1    1    2    0    0 -0.47206269488E+01  0.12297841292E+02 -0.29037867544E+02  0.31886030965E+02  0.00000000000E+00 0.  1.
         11    1    3    3    0    0  0.11431812566E+02  0.65442722518E+01  0.21044001218E+02  0.24826675681E+02  0.51100000000E-03 0. -1.
        -11    1    3    3    0    0 -0.16778550633E+02 -0.76520239382E+01  0.52623802263E+01  0.19177222885E+02  0.51100000000E-03 0.  1.
         12    1    3    3    0    0  0.10067365016E+02 -0.11190089606E+02  0.27314860989E+01  0.15298070468E+02  0.00000000000E+00 0. -1.
</event>
<event>
 7    1  0.3528441E-013  0.5930192E+02  0.7816164E-02  0.1266605E+00
        -11   -1    0    0    0    0  0.00000000000E+00  0.00000000000E+00  0.45593999997E+02  0.45594000000E+02  0.51100000000E-03 0. -1.
         11   -1    0    0    0    0 -0.00000000000E+00 -0.00000000000E+00 -0.45593999997E+02  0.45594000000E+02  0.51100000000E-03 0.  1.
    9900012    2    1    2    0    0  0.66306196900E+00  0.24744933866E+01  0.31782999665E+02  0.59301924098E+02  0.49999963654E+02 0.  0.
        -12    1    1    2    0    0 -0.66306196900E+00 -0.24744933866E+01 -0.31782999665E+02  0.31886075902E+02  0.00000000000E+00 0.  1.
         11    1    3    3    0    0 -0.10798558827E+02 -0.93081993789E+01  0.84952509309E+01  0.16595804803E+02  0.51100000000E-03 0. -1.
        -11    1    3    3    0    0 -0.10402478914E+02 -0.10263969082E+01  0.64765637763E+01  0.12296785628E+02  0.51100000000E-03 0.  1.
        -12    1    3    3    0    0  0.21864099710E+02  0.12809089674E+02  0.16811184958E+02  0.30409333667E+02  0.00000000000E+00 0.  1.
</event>
<event>
 7    1  0.3528441E-013  0.5930196E+02  0.7816164E-02  0.1266605E+00
        -11   -1    0    0    0    0  0.00000000000E+00  0.00000000000E+00  0.45593999997E+02  0.45594000000E+02  0.51100000000E-03 0.  1.
         11   -1    0    0    0    0 -0.00000000000E+00 -0.00000000000E+00 -0.45593999997E+02  0.45594000000E+02  0.51100000000E-03 0. -1.
    9900012    2    1    2    0    0  0.20995359201E+01 -0.26981358611E+02 -0.16861728686E+02  0.59301958259E+02  0.50000025955E+02 0.  0.
        -12    1    1    2    0    0 -0.20995359201E+01  0.26981358611E+02  0.16861728686E+02  0.31886041741E+02  0.00000000000E+00 0.  1.
         11    1    3    3    0    0  0.14261823701E+02 -0.15688070999E+02 -0.55240236166E+00  0.21208968282E+02  0.51100000000E-03 0. -1.
        -11    1    3    3    0    0  0.43656404891E+01 -0.10898793910E+02 -0.17982540159E+02  0.21475899898E+02  0.51100000000E-03 0.  1.
        -12    1    3    3    0    0 -0.16527928270E+02 -0.39449370197E+00  0.16732138348E+01  0.16617090080E+02  0.00000000000E+00 0.  1.
</event>
<event>
 7    1  0.3528441E-013  0.5930195E+02  0.7816164E-02  0.1266605E+00
        -11   -1    0    0    0    0  0.00000000000E+00  0.00000000000E+00  0.45593999997E+02  0.45594000000E+02  0.51100000000E-03 0.  1.
         11   -1    0    0    0    0 -0.00000000000E+00 -0.00000000000E+00 -0.45593999997E+02  0.45594000000E+02  0.51100000000E-03 0. -1.
    9900012    2    1    2    0    0  0.57632434966E+00 -0.29453809968E+02 -0.12200860513E+02  0.59301951818E+02  0.50000014208E+02 0.  0.
        -12    1    1    2    0    0 -0.57632434966E+00  0.29453809968E+02  0.12200860513E+02  0.31886048182E+02  0.00000000000E+00 0.  1.
         11    1    3    3    0    0 -0.10226052712E+02 -0.73257256714E+01 -0.35595953304E+01  0.13073221862E+02  0.51100000000E-03 0.  1.
        -11    1    3    3    0    0  0.17899940360E+00 -0.15050853548E+02 -0.22701625736E+02  0.27238282704E+02  0.51100000000E-03 0. -1.
        -12    1    3    3    0    0  0.10623377658E+02 -0.70772307482E+01  0.14060360554E+02  0.18990447252E+02  0.00000000000E+00 0.  1.
</event>
<event>
 7    1  0.3528441E-013  0.5930195E+02  0.7816164E-02  0.1266605E+00
        -11   -1    0    0    0    0  0.00000000000E+00  0.00000000000E+00  0.45593999997E+02  0.45594000000E+02  0.51100000000E-03 0. -1.
         11   -1    0    0    0    0 -0.00000000000E+00 -0.00000000000E+00 -0.45593999997E+02  0.45594000000E+02  0.51100000000E-03 0.  1.
    9900012    2    1    2    0    0 -0.79346744377E+01  0.13586594447E+02 -0.27733829111E+02  0.59301954709E+02  0.50000019481E+02 0.  0.
        -12    1    1    2    0    0  0.79346744377E+01 -0.13586594447E+02  0.27733829111E+02  0.31886045291E+02  0.00000000000E+00 0.  1.
         11    1    3    3    0    0 -0.13694651078E+01 -0.81550768791E+01 -0.53113207036E+01  0.98280639733E+01  0.51100000000E-03 0. -1.
        -11    1    3    3    0    0 -0.14437838254E+02 -0.14957699348E+01  0.22389305849E+01  0.14686773355E+02  0.51100000000E-03 0.  1.
        -12    1    3    3    0    0  0.78726289242E+01  0.23237441260E+02 -0.24661438993E+02  0.34787117381E+02  0.00000000000E+00 0.  1.
</event>
<event>
 7    1  0.3528441E-013  0.5930194E+02  0.7816164E-02  0.1266605E+00
        -11   -1    0    0    0    0  0.00000000000E+00  0.00000000000E+00  0.45593999997E+02  0.45594000000E+02  0.51100000000E-03 0. -1.
         11   -1    0    0    0    0 -0.00000000000E+00 -0.00000000000E+00 -0.45593999997E+02  0.45594000000E+02  0.51100000000E-03 0.  1.
    9900012    2    1    2    0    0 -0.12504593225E+02 -0.24762617049E+02  0.15721601576E+02  0.59301940179E+02  0.49999992980E+02 0.  0.
        -12    1    1    2    0    0  0.12504593225E+02  0.24762617049E+02 -0.15721601576E+02  0.31886059821E+02  0.00000000000E+00 0.  1.
         11    1    3    3    0    0 -0.23142292162E+02 -0.14224657385E+02  0.13803256408E+02  0.30470255200E+02  0.51100000000E-03 0. -1.
        -11    1    3    3    0    0  0.10647264600E+01 -0.16479003260E+02 -0.25542231894E+01  0.16709735104E+02  0.51100000000E-03 0.  1.
        -12    1    3    3    0    0  0.95729724772E+01  0.59410435963E+01  0.44725683571E+01  0.12121949875E+02  0.00000000000E+00 0.  1.
</event>
<event>
 7    1  0.3528441E-013  0.5930194E+02  0.7816164E-02  0.1266605E+00
        -11   -1    0    0    0    0  0.00000000000E+00  0.00000000000E+00  0.45593999997E+02  0.45594000000E+02  0.51100000000E-03 0.  1.
         11   -1    0    0    0    0 -0.00000000000E+00 -0.00000000000E+00 -0.45593999997E+02  0.45594000000E+02  0.51100000000E-03 0. -1.
    9900012    2    1    2    0    0  0.31571645560E+02  0.75474006814E+00 -0.44025547477E+01  0.59301938402E+02  0.49999989740E+02 0.  0.
        -12    1    1    2    0    0 -0.31571645560E+02 -0.75474006814E+00  0.44025547477E+01  0.31886061598E+02  0.00000000000E+00 0.  1.
         11    1    3    3    0    0  0.19758582791E+02 -0.86296779669E+00  0.48757972241E+01  0.20369577957E+02  0.51100000000E-03 0. -1.
        -11    1    3    3    0    0  0.21059950892E+02  0.89631995430E+00  0.52249488340E+01  0.21716929148E+02  0.51100000000E-03 0.  1.
         12    1    3    3    0    0 -0.92468881230E+01  0.72138791053E+00 -0.14503300806E+02  0.17215431297E+02  0.00000000000E+00 0. -1.
</event>
<event>
 7    1  0.3528441E-013  0.5930191E+02  0.7816164E-02  0.1266605E+00
        -11   -1    0    0    0    0  0.00000000000E+00  0.00000000000E+00  0.45593999997E+02  0.45594000000E+02  0.51100000000E-03 0.  1.
         11   -1    0    0    0    0 -0.00000000000E+00 -0.00000000000E+00 -0.45593999997E+02  0.45594000000E+02  0.51100000000E-03 0. -1.
    9900012    2    1    2    0    0  0.18327057178E+02  0.26027034210E+02  0.18533692963E+01  0.59301913499E+02  0.49999944323E+02 0.  0.
        -12    1    1    2    0    0 -0.18327057178E+02 -0.26027034210E+02 -0.18533692963E+01  0.31886086501E+02  0.00000000000E+00 0.  1.
         11    1    3    3    0    0  0.62269191893E+00  0.77196389125E+00 -0.16952060677E+02  0.16981049288E+02  0.51100000000E-03 0. -1.
        -11    1    3    3    0    0 -0.23534546184E+01  0.11552675144E+01 -0.31091044888E+01  0.40669303724E+01  0.51100000000E-03 0.  1.
        -12    1    3    3    0    0  0.20057819878E+02  0.24099802804E+02  0.21914534462E+02  0.38253933839E+02  0.00000000000E+00 0.  1.
</event>
<event>
 7    1  0.3528441E-013  0.5930190E+02  0.7816164E-02  0.1266605E+00
        -11   -1    0    0    0    0  0.00000000000E+00  0.00000000000E+00  0.45593999997E+02  0.45594000000E+02  0.51100000000E-03 0. -1.
         11   -1    0    0    0    0 -0.00000000000E+00 -0.00000000000E+00 -0.45593999997E+02  0.45594000000E+02  0.51100000000E-03 0.  1.
    9900012    2    1    2    0    0 -0.16876780033E+02 -0.46261526846E+01 -0.26655135377E+02  0.59301902169E+02  0.49999923660E+02 0.  0.
        -12    1    1    2    0    0  0.16876780033E+02  0.46261526846E+01  0.26655135377E+02  0.31886097831E+02  0.00000000000E+00 0.  1.
         11    1    3    3    0    0  0.95240686555E+00  0.51483801679E+01 -0.64639519598E+01  0.83183876076E+01  0.51100000000E-03 0. -1.
        -11    1    3    3    0    0  0.13945064570E+02 -0.40780941103E+01 -0.59255217426E+01  0.15691000147E+02  0.51100000000E-03 0.  1.
         12    1    3    3    0    0 -0.31774251468E+02 -0.56964387423E+01 -0.14265661674E+02  0.35292514415E+02  0.00000000000E+00 0. -1.
</event>
<event>
 7    1  0.3528441E-013  0.5930196E+02  0.7816164E-02  0.1266605E+00
        -11   -1    0    0    0    0  0.00000000000E+00  0.00000000000E+00  0.45593999997E+02  0.45594000000E+02  0.51100000000E-03 0.  1.
         11   -1    0    0    0    0 -0.00000000000E+00 -0.00000000000E+00 -0.45593999997E+02  0.45594000000E+02  0.51100000000E-03 0. -1.
    9900012    2    1    2    0    0  0.10592473141E+02  0.21085758356E+02 -0.21445510308E+02  0.59301959088E+02  0.50000027466E+02 0.  0.
        -12    1    1    2    0    0 -0.10592473141E+02 -0.21085758356E+02  0.21445510308E+02  0.31886040912E+02  0.00000000000E+00 0.  1.
         11    1    3    3    0    0  0.11568269829E+00 -0.15265685439E+01 -0.30555859773E+02  0.30594188349E+02  0.51100000000E-03 0. -1.
        -11    1    3    3    0    0  0.65449667965E+01  0.63478304097E+01 -0.97629369755E+00  0.91697704945E+01  0.51100000000E-03 0.  1.
        -12    1    3    3    0    0  0.39318236459E+01  0.16264496490E+02  0.10086643162E+02  0.19538000244E+02  0.00000000000E+00 0.  1.
</event>
<event>
 7    1  0.3528441E-013  0.5930194E+02  0.7816164E-02  0.1266605E+00
        -11   -1    0    0    0    0  0.00000000000E+00  0.00000000000E+00  0.45593999997E+02  0.45594000000E+02  0.51100000000E-03 0. -1.
         11   -1    0    0    0    0 -0.00000000000E+00 -0.00000000000E+00 -0.45593999997E+02  0.45594000000E+02  0.51100000000E-03 0.  1.
    9900012    2    1    2    0    0 -0.28221458883E+02  0.13388488555E+02  0.64045626119E+01  0.59301940514E+02  0.49999993592E+02 0.  0.
        -12    1    1    2    0    0  0.28221458883E+02 -0.13388488555E+02 -0.64045626119E+01  0.31886059486E+02  0.00000000000E+00 0.  1.
         11    1    3    3    0    0 -0.93033119950E+00  0.15525359168E+02  0.12697109584E+02  0.20077820735E+02  0.51100000000E-03 0. -1.
        -11    1    3    3    0    0 -0.33205182483E+00  0.23289729524E+01  0.80329509532E+01  0.83703449573E+01  0.51100000000E-03 0.  1.
        -12    1    3    3    0    0 -0.26959075859E+02 -0.44658435657E+01 -0.14325497926E+02  0.30853774821E+02  0.00000000000E+00 0.  1.
</event>
<event>
 7    1  0.3528441E-013  0.5930195E+02  0.7816164E-02  0.1266605E+00
        -11   -1    0    0    0    0  0.00000000000E+00  0.00000000000E+00  0.45593999997E+02  0.45594000000E+02  0.51100000000E-03 0.  1.
         11   -1    0    0    0    0 -0.00000000000E+00 -0.00000000000E+00 -0.45593999997E+02  0.45594000000E+02  0.51100000000E-03 0. -1.
    9900012    2    1    2    0    0  0.19994777803E+01  0.23938536694E+02 -0.20968277366E+02  0.59301951230E+02  0.50000013135E+02 0.  0.
        -12    1    1    2    0    0 -0.19994777803E+01 -0.23938536694E+02  0.20968277366E+02  0.31886048770E+02  0.00000000000E+00 0.  1.
         11    1    3    3    0    0  0.83406039983E+01  0.14930305637E+02 -0.70234752482E+01  0.18488074705E+02  0.51100000000E-03 0. -1.
        -11    1    3    3    0    0  0.64604292970E+01  0.19089806958E+02 -0.13965327820E+02  0.24519140641E+02  0.51100000000E-03 0.  1.
        -12    1    3    3    0    0 -0.12801555515E+02 -0.10081575900E+02  0.20525701863E-01  0.16294735884E+02  0.00000000000E+00 0.  1.
</event>
<event>
 7    1  0.3528441E-013  0.5930195E+02  0.7816164E-02  0.1266605E+00
        -11   -1    0    0    0    0  0.00000000000E+00  0.00000000000E+00  0.45593999997E+02  0.45594000000E+02  0.51100000000E-03 0.  1.
         11   -1    0    0    0    0 -0.00000000000E+00 -0.00000000000E+00 -0.45593999997E+02  0.45594000000E+02  0.51100000000E-03 0. -1.
    9900012    2    1    2    0    0  0.15242956500E+02  0.92478382558E+01 -0.26435771332E+02  0.59301949113E+02  0.50000009274E+02 0.  0.
        -12    1    1    2    0    0 -0.15242956500E+02 -0.92478382558E+01  0.26435771332E+02  0.31886050887E+02  0.00000000000E+00 0.  1.
         11    1    3    3    0    0  0.16839105395E+02 -0.92226545672E+01 -0.46722152496E+01  0.19759615972E+02  0.51100000000E-03 0.  1.
        -11    1    3    3    0    0 -0.34290892963E+01  0.89044853719E+00 -0.21577090735E+02  0.21866010081E+02  0.51100000000E-03 0. -1.
         12    1    3    3    0    0  0.18329404016E+01  0.17580044286E+02 -0.18646534691E+00  0.17676323060E+02  0.00000000000E+00 0. -1.
</event>
<event>
 7    1  0.3528441E-013  0.5930192E+02  0.7816164E-02  0.1266605E+00
        -11   -1    0    0    0    0  0.00000000000E+00  0.00000000000E+00  0.45593999997E+02  0.45594000000E+02  0.51100000000E-03 0. -1.
         11   -1    0    0    0    0 -0.00000000000E+00 -0.00000000000E+00 -0.45593999997E+02  0.45594000000E+02  0.51100000000E-03 0.  1.
    9900012    2    1    2    0    0  0.20328204479E+02 -0.24421552084E+02  0.26597348087E+01  0.59301916942E+02  0.49999950602E+02 0.  0.
        -12    1    1    2    0    0 -0.20328204479E+02  0.24421552084E+02 -0.26597348087E+01  0.31886083058E+02  0.00000000000E+00 0.  1.
         11    1    3    3    0    0 -0.44994527635E+01 -0.13598542709E+02 -0.11821094963E+02  0.18571583814E+02  0.51100000000E-03 0. -1.
        -11    1    3    3    0    0  0.58093959403E+00  0.24957833607E+01 -0.58582479904E+01  0.63941766611E+01  0.51100000000E-03 0.  1.
         12    1    3    3    0    0  0.24246717649E+02 -0.13318792736E+02  0.20339077762E+02  0.34336156467E+02  0.00000000000E+00 0. -1.
</event>
<event>
 7    1  0.3528441E-013  0.5930215E+02  0.7816164E-02  0.1266604E+00
        -11   -1    0    0    0    0  0.00000000000E+00  0.00000000000E+00  0.45593999997E+02  0.45594000000E+02  0.51100000000E-03 0.  1.
         11   -1    0    0    0    0 -0.00000000000E+00 -0.00000000000E+00 -0.45593999997E+02  0.45594000000E+02  0.51100000000E-03 0. -1.
    9900012    2    1    2    0    0 -0.11580198514E+02 -0.16845513087E+02 -0.24471111000E+02  0.59302147614E+02  0.50000371291E+02 0.  0.
        -12    1    1    2    0    0  0.11580198514E+02  0.16845513087E+02  0.24471111000E+02  0.31885852386E+02  0.00000000000E+00 0.  1.
         11    1    3    3    0    0  0.37018882634E+01 -0.10449733728E+02 -0.24032225759E+02  0.26465993026E+02  0.51100000000E-03 0. -1.
        -11    1    3    3    0    0 -0.13687542930E+02 -0.14142397929E+02 -0.85938996073E+01  0.21475832029E+02  0.51100000000E-03 0.  1.
         12    1    3    3    0    0 -0.15945438477E+01  0.77466185688E+01  0.81550143655E+01  0.11360322559E+02  0.00000000000E+00 0. -1.
</event>
<event>
 7    1  0.3528441E-013  0.5930194E+02  0.7816164E-02  0.1266605E+00
        -11   -1    0    0    0    0  0.00000000000E+00  0.00000000000E+00  0.45593999997E+02  0.45594000000E+02  0.51100000000E-03 0. -1.
         11   -1    0    0    0    0 -0.00000000000E+00 -0.00000000000E+00 -0.45593999997E+02  0.45594000000E+02  0.51100000000E-03 0.  1.
    9900012    2    1    2    0    0  0.27641756593E+02  0.70828621794E+01  0.14229795392E+02  0.59301941587E+02  0.49999995549E+02 0.  0.
        -12    1    1    2    0    0 -0.27641756593E+02 -0.70828621794E+01 -0.14229795392E+02  0.31886058413E+02  0.00000000000E+00 0.  1.
         11    1    3    3    0    0  0.21869729394E+01 -0.69780061778E+01  0.12712658702E+02  0.14665848506E+02  0.51100000000E-03 0. -1.
        -11    1    3    3    0    0  0.97517528265E+01 -0.79465877481E+01 -0.91678350217E+01  0.15565800309E+02  0.51100000000E-03 0.  1.
         12    1    3    3    0    0  0.15703030827E+02  0.22007456105E+02  0.10684971711E+02  0.29070292772E+02  0.00000000000E+00 0. -1.
</event>
<event>
 7    1  0.3528441E-013  0.5930195E+02  0.7816164E-02  0.1266605E+00
        -11   -1    0    0    0    0  0.00000000000E+00  0.00000000000E+00  0.45593999997E+02  0.45594000000E+02  0.51100000000E-03 0.  1.
         11   -1    0    0    0    0 -0.00000000000E+00 -0.00000000000E+00 -0.45593999997E+02  0.45594000000E+02  0.51100000000E-03 0. -1.
    9900012    2    1    2    0    0 -0.82590301638E+01 -0.30580545109E+02 -0.36522212047E+01  0.59301952296E+02  0.50000015080E+02 0.  0.
        -12    1    1    2    0    0  0.82590301638E+01  0.30580545109E+02  0.36522212047E+01  0.31886047704E+02  0.00000000000E+00 0.  1.
         11    1    3    3    0    0 -0.13230869717E+01 -0.15926381721E+02 -0.82848538102E+01  0.18001083211E+02  0.51100000000E-03 0. -1.
        -11    1    3    3    0    0  0.36404408662E+01 -0.72332567122E+01 -0.15437050432E+02  0.17432020498E+02  0.51100000000E-03 0.  1.
        -12    1    3    3    0    0 -0.10576384058E+02 -0.74209066764E+01  0.20069683037E+02  0.23868848587E+02  0.00000000000E+00 0.  1.
</event>
<event>
 7    1  0.3528441E-013  0.5930195E+02  0.7816164E-02  0.1266605E+00
        -11   -1    0    0    0    0  0.00000000000E+00  0.00000000000E+00  0.45593999997E+02  0.45594000000E+02  0.51100000000E-03 0. -1.
         11   -1    0    0    0    0 -0.00000000000E+00 -0.00000000000E+00 -0.45593999997E+02  0.45594000000E+02  0.51100000000E-03 0.  1.
    9900012    2    1    2    0    0 -0.24409835785E+02  0.14455568370E+02 -0.14557361920E+02  0.59301947783E+02  0.50000006848E+02 0.  0.
        -12    1    1    2    0    0  0.24409835785E+02 -0.14455568370E+02  0.14557361920E+02  0.31886052217E+02  0.00000000000E+00 0.  1.
         11    1    3    3    0    0 -0.62967681674E+01 -0.55340210108E+01 -0.29789577896E+01  0.88965649368E+01  0.51100000000E-03 0. -1.
        -11    1    3    3    0    0 -0.23561305828E+02  0.82664266402E+01 -0.22401559452E+02  0.33545473731E+02  0.51100000000E-03 0.  1.
        -12    1    3    3    0    0  0.54482382105E+01  0.11723162741E+02  0.10823155321E+02  0.16859909115E+02  0.00000000000E+00 0.  1.
</event>
<event>
 7    1  0.3528441E-013  0.5930194E+02  0.7816164E-02  0.1266605E+00
        -11   -1    0    0    0    0  0.00000000000E+00  0.00000000000E+00  0.45593999997E+02  0.45594000000E+02  0.51100000000E-03 0. -1.
         11   -1    0    0    0    0 -0.00000000000E+00 -0.00000000000E+00 -0.45593999997E+02  0.45594000000E+02  0.51100000000E-03 0.  1.
    9900012    2    1    2    0    0 -0.10923155916E+02  0.25941755856E+02  0.14981012388E+02  0.59301940911E+02  0.49999994316E+02 0.  0.
        -12    1    1    2    0    0  0.10923155916E+02 -0.25941755856E+02 -0.14981012388E+02  0.31886059089E+02  0.00000000000E+00 0.  1.
         11    1    3    3    0    0  0.18411014791E+01  0.19481656196E+02  0.23825357176E+02  0.30831351375E+02  0.51100000000E-03 0. -1.
        -11    1    3    3    0    0 -0.91578298748E+01 -0.62166771924E+01  0.21880863074E+01  0.11282758762E+02  0.51100000000E-03 0.  1.
        -12    1    3    3    0    0 -0.36064275202E+01  0.12676776852E+02 -0.11032431096E+02  0.17187830774E+02  0.00000000000E+00 0.  1.
</event>
<event>
 7    1  0.3528441E-013  0.5930160E+02  0.7816164E-02  0.1266606E+00
        -11   -1    0    0    0    0  0.00000000000E+00  0.00000000000E+00  0.45593999997E+02  0.45594000000E+02  0.51100000000E-03 0. -1.
         11   -1    0    0    0    0 -0.00000000000E+00 -0.00000000000E+00 -0.45593999997E+02  0.45594000000E+02  0.51100000000E-03 0.  1.
    9900012    2    1    2    0    0 -0.13087745808E+02 -0.72883766756E+01  0.28148406014E+02  0.59301603433E+02  0.49999378832E+02 0.  0.
        -12    1    1    2    0    0  0.13087745808E+02  0.72883766756E+01 -0.28148406014E+02  0.31886396567E+02  0.00000000000E+00 0.  1.
         11    1    3    3    0    0 -0.58212995536E+01  0.11204321087E+02  0.26587048255E+01  0.12903218635E+02  0.51100000000E-03 0. -1.
        -11    1    3    3    0    0 -0.16354015173E+00  0.81654800377E+01 -0.90532781912E+00  0.82171423469E+01  0.51100000000E-03 0.  1.
        -12    1    3    3    0    0 -0.71029061031E+01 -0.26658177801E+02  0.26395029008E+02  0.38181242451E+02  0.00000000000E+00 0.  1.
</event>
<event>
 7    1  0.3528441E-013  0.5930195E+02  0.7816164E-02  0.1266605E+00
        -11   -1    0    0    0    0  0.00000000000E+00  0.00000000000E+00  0.45593999997E+02  0.45594000000E+02  0.51100000000E-03 0.  1.
         11   -1    0    0    0    0 -0.00000000000E+00 -0.00000000000E+00 -0.45593999997E+02  0.45594000000E+02  0.51100000000E-03 0. -1.
    9900012    2    1    2    0    0  0.21174710840E+02 -0.23788159991E+02  0.15732486320E+01  0.59301952171E+02  0.50000014851E+02 0.  0.
        -12    1    1    2    0    0 -0.21174710840E+02  0.23788159991E+02 -0.15732486320E+01  0.31886047829E+02  0.00000000000E+00 0.  1.
         11    1    3    3    0    0 -0.26629627426E+01 -0.10510788540E+02 -0.72017809440E+00  0.10866770590E+02  0.51100000000E-03 0. -1.
        -11    1    3    3    0    0 -0.68773439551E+01 -0.80944703828E+01 -0.10338225828E+02  0.14822186890E+02  0.51100000000E-03 0.  1.
        -12    1    3    3    0    0  0.30715017538E+02 -0.51829010676E+01  0.12631652555E+02  0.33612994691E+02  0.00000000000E+00 0.  1.
</event>
<event>
 7    1  0.3528441E-013  0.5930179E+02  0.7816164E-02  0.1266605E+00
        -11   -1    0    0    0    0  0.00000000000E+00  0.00000000000E+00  0.45593999997E+02  0.45594000000E+02  0.51100000000E-03 0.  1.
         11   -1    0    0    0    0 -0.00000000000E+00 -0.00000000000E+00 -0.45593999997E+02  0.45594000000E+02  0.51100000000E-03 0. -1.
    9900012    2    1    2    0    0  0.27934510959E+01  0.25928603138E+02 -0.18347604731E+02  0.59301789358E+02  0.49999717920E+02 0.  0.
        -12    1    1    2    0    0 -0.27934510959E+01 -0.25928603138E+02  0.18347604731E+02  0.31886210642E+02  0.00000000000E+00 0.  1.
         11    1    3    3    0    0  0.16370662464E+02  0.15641500196E+01 -0.90162021159E+01  0.18754654239E+02  0.51100000000E-03 0. -1.
        -11    1    3    3    0    0  0.47376290359E+01  0.28907840468E+01 -0.10951415492E+02  0.12277428999E+02  0.51100000000E-03 0.  1.
        -12    1    3    3    0    0 -0.18314840404E+02  0.21473669072E+02  0.16200128765E+01  0.28269706120E+02  0.00000000000E+00 0.  1.
</event>
<event>
 7    1  0.3528441E-013  0.5930196E+02  0.7816164E-02  0.1266605E+00
        -11   -1    0    0    0    0  0.00000000000E+00  0.00000000000E+00  0.45593999997E+02  0.45594000000E+02  0.51100000000E-03 0. -1.
         11   -1    0    0    0    0 -0.00000000000E+00 -0.00000000000E+00 -0.45593999997E+02  0.45594000000E+02  0.51100000000E-03 0.  1.
    9900012    2    1    2    0    0 -0.26064499170E+02 -0.95623394202E+01 -0.15681944959E+02  0.59301955249E+02  0.50000020464E+02 0.  0.
        -12    1    1    2    0    0  0.26064499170E+02  0.95623394202E+01  0.15681944959E+02  0.31886044751E+02  0.00000000000E+00 0.  1.
         11    1    3    3    0    0 -0.21895325660E+02  0.58343742257E+01 -0.14457291483E+02  0.26878587865E+02  0.51100000000E-03 0. -1.
        -11    1    3    3    0    0 -0.14760156463E+02 -0.30977832545E+01  0.35717227682E+01  0.15498892983E+02  0.51100000000E-03 0.  1.
        -12    1    3    3    0    0  0.10590982952E+02 -0.12298930391E+02 -0.47963762446E+01  0.16924474401E+02  0.00000000000E+00 0.  1.
</event>
<event>
 7    1  0.3528441E-013  0.5930195E+02  0.7816164E-02  0.1266605E+00
        -11   -1    0    0    0    0  0.00000000000E+00  0.00000000000E+00  0.45593999997E+02  0.45594000000E+02  0.51100000000E-03 0.  1.
         11   -1    0    0    0    0 -0.00000000000E+00 -0.00000000000E+00 -0.45593999997E+02  0.45594000000E+02  0.51100000000E-03 0. -1.
    9900012    2    1    2    0    0 -0.18001917532E+02  0.12510272170E+02 -0.23154783354E+02  0.59301953886E+02  0.50000017980E+02 0.  0.
        -12    1    1    2    0    0  0.18001917532E+02 -0.12510272170E+02  0.23154783354E+02  0.31886046114E+02  0.00000000000E+00 0.  1.
         11    1    3    3    0    0 -0.12091786433E+02 -0.29414695687E+01 -0.96574249773E+01  0.15752123661E+02  0.51100000000E-03 0. -1.
        -11    1    3    3    0    0 -0.20740007761E+02  0.16518388905E+02 -0.79495433253E+01  0.27680323937E+02  0.51100000000E-03 0.  1.
         12    1    3    3    0    0  0.14829876662E+02 -0.10666471663E+01 -0.55478150515E+01  0.15869506288E+02  0.00000000000E+00 0. -1.
</event>
<event>
 7    1  0.3528441E-013  0.5930197E+02  0.7816164E-02  0.1266605E+00
        -11   -1    0    0    0    0  0.00000000000E+00  0.00000000000E+00  0.45593999997E+02  0.45594000000E+02  0.51100000000E-03 0.  1.
         11   -1    0    0    0    0 -0.00000000000E+00 -0.00000000000E+00 -0.45593999997E+02  0.45594000000E+02  0.51100000000E-03 0. -1.
    9900012    2    1    2    0    0  0.29522049895E+02 -0.12039346914E+02  0.47103123038E+00  0.59301965839E+02  0.50000039779E+02 0.  0.
        -12    1    1    2    0    0 -0.29522049895E+02  0.12039346914E+02 -0.47103123038E+00  0.31886034161E+02  0.00000000000E+00 0.  1.
         11    1    3    3    0    0  0.15651176825E+02  0.73741371851E+01 -0.13683919849E+02  0.22058714784E+02  0.51100000000E-03 0. -1.
        -11    1    3    3    0    0  0.17539070684E+02 -0.39637381601E+01  0.40829272110E+01  0.18439102893E+02  0.51100000000E-03 0.  1.
        -12    1    3    3    0    0 -0.36681976137E+01 -0.15449745939E+02  0.10072023868E+02  0.18804148162E+02  0.00000000000E+00 0.  1.
</event>
<event>
 7    1  0.3528441E-013  0.5930185E+02  0.7816164E-02  0.1266605E+00
        -11   -1    0    0    0    0  0.00000000000E+00  0.00000000000E+00  0.45593999997E+02  0.45594000000E+02  0.51100000000E-03 0. -1.
         11   -1    0    0    0    0 -0.00000000000E+00 -0.00000000000E+00 -0.45593999997E+02  0.45594000000E+02  0.51100000000E-03 0.  1.
    9900012    2    1    2    0    0  0.21204179516E+01  0.18884247363E+01  0.31759477103E+02  0.59301847738E+02  0.49999824390E+02 0.  0.
        -12    1    1    2    0    0 -0.21204179516E+01 -0.18884247363E+01 -0.31759477103E+02  0.31886152262E+02  0.00000000000E+00 0.  1.
         11    1    3    3    0    0 -0.50429077249E+01 -0.16302597720E+01  0.11631268139E+00  0.53011502664E+01  0.51100000000E-03 0. -1.
        -11    1    3    3    0    0  0.26134639983E+01 -0.16832812536E+02  0.11693429283E+01  0.17074575693E+02  0.51100000000E-03 0.  1.
         12    1    3    3    0    0  0.45498616782E+01  0.20351497044E+02  0.30473821493E+02  0.36926121779E+02  0.00000000000E+00 0. -1.
</event>
<event>
 7    1  0.3528441E-013  0.5930194E+02  0.7816164E-02  0.1266605E+00
        -11   -1    0    0    0    0  0.00000000000E+00  0.00000000000E+00  0.45593999997E+02  0.45594000000E+02  0.51100000000E-03 0.  1.
         11   -1    0    0    0    0 -0.00000000000E+00 -0.00000000000E+00 -0.45593999997E+02  0.45594000000E+02  0.51100000000E-03 0. -1.
    9900012    2    1    2    0    0 -0.91305148459E+00 -0.14309254145E+02 -0.28480388740E+02  0.59301937842E+02  0.49999988718E+02 0.  0.
        -12    1    1    2    0    0  0.91305148459E+00  0.14309254145E+02  0.28480388740E+02  0.31886062158E+02  0.00000000000E+00 0.  1.
         11    1    3    3    0    0  0.50720183372E+01  0.10184545548E+01 -0.12398517523E+02  0.13434502474E+02  0.51100000000E-03 0. -1.
        -11    1    3    3    0    0 -0.22241381113E+02 -0.38709576371E+01 -0.11993353816E+02  0.25563722007E+02  0.51100000000E-03 0.  1.
        -12    1    3    3    0    0  0.16256311291E+02 -0.11456751063E+02 -0.40885174009E+01  0.20303713361E+02  0.00000000000E+00 0.  1.
</event>
<event>
 7    1  0.3528441E-013  0.5930191E+02  0.7816164E-02  0.1266605E+00
        -11   -1    0    0    0    0  0.00000000000E+00  0.00000000000E+00  0.45593999997E+02  0.45594000000E+02  0.51100000000E-03 0. -1.
         11   -1    0    0    0    0 -0.00000000000E+00 -0.00000000000E+00 -0.45593999997E+02  0.45594000000E+02  0.51100000000E-03 0.  1.
    9900012    2    1    2    0    0  0.20706397061E+02 -0.23969657347E+02  0.36637592276E+01  0.59301913940E+02  0.49999945126E+02 0.  0.
        -12    1    1    2    0    0 -0.20706397061E+02  0.23969657347E+02 -0.36637592276E+01  0.31886086060E+02  0.00000000000E+00 0.  1.
         11    1    3    3    0    0  0.11247162164E+02 -0.74742242510E+01 -0.55142005852E+01  0.14586606640E+02  0.51100000000E-03 0. -1.
        -11    1    3    3    0    0  0.13866694656E+02 -0.88979779329E+01 -0.12918771095E+02  0.20936902322E+02  0.51100000000E-03 0.  1.
        -12    1    3    3    0    0 -0.44074597595E+01 -0.75974551629E+01  0.22096730908E+02  0.23778404978E+02  0.00000000000E+00 0.  1.
</event>
<event>
 7    1  0.3528441E-013  0.5930195E+02  0.7816164E-02  0.1266605E+00
        -11   -1    0    0    0    0  0.00000000000E+00  0.00000000000E+00  0.45593999997E+02  0.45594000000E+02  0.51100000000E-03 0. -1.
         11   -1    0    0    0    0 -0.00000000000E+00 -0.00000000000E+00 -0.45593999997E+02  0.45594000000E+02  0.51100000000E-03 0.  1.
    9900012    2    1    2    0    0  0.24980130811E+01 -0.79597246911E+01  0.30775362146E+02  0.59301949731E+02  0.50000010402E+02 0.  0.
        -12    1    1    2    0    0 -0.24980130811E+01  0.79597246911E+01 -0.30775362146E+02  0.31886050269E+02  0.00000000000E+00 0.  1.
         11    1    3    3    0    0 -0.14816276777E+02 -0.95950153423E+01  0.17665947362E+01  0.17739989690E+02  0.51100000000E-03 0. -1.
        -11    1    3    3    0    0 -0.49243863090E+01  0.52829860240E+01  0.66894459776E+01  0.98441967472E+01  0.51100000000E-03 0.  1.
         12    1    3    3    0    0  0.22238676167E+02 -0.36476953727E+01  0.22319321432E+02  0.31717763295E+02  0.00000000000E+00 0. -1.
</event>
<event>
 7    1  0.3528441E-013  0.5930192E+02  0.7816164E-02  0.1266605E+00
        -11   -1    0    0    0    0  0.00000000000E+00  0.00000000000E+00  0.45593999997E+02  0.45594000000E+02  0.51100000000E-03 0.  1.
         11   -1    0    0    0    0 -0.00000000000E+00 -0.00000000000E+00 -0.45593999997E+02  0.45594000000E+02  0.51100000000E-03 0. -1.
    9900012    2    1    2    0    0  0.21329467671E+02  0.20780367240E+02 -0.11399658576E+02  0.59301920445E+02  0.49999956991E+02 0.  0.
        -12    1    1    2    0    0 -0.21329467671E+02 -0.20780367240E+02  0.11399658576E+02  0.31886079555E+02  0.00000000000E+00 0.  1.
         11    1    3    3    0    0 -0.67322846658E+01 -0.45075822095E+01 -0.13794612944E+02  0.15997915512E+02  0.51100000000E-03 0. -1.
        -11    1    3    3    0    0  0.69771693436E+01 -0.28523892705E+01 -0.21750658613E+01  0.78452487763E+01  0.51100000000E-03 0.  1.
        -12    1    3    3    0    0  0.21084582993E+02  0.28140338720E+02  0.45700202294E+01  0.35458756156E+02  0.00000000000E+00 0.  1.
</event>
<event>
 7    1  0.3528441E-013  0.5930181E+02  0.7816164E-02  0.1266605E+00
        -11   -1    0    0    0    0  0.00000000000E+00  0.00000000000E+00  0.45593999997E+02  0.45594000000E+02  0.51100000000E-03 0. -1.
         11   -1    0    0    0    0 -0.00000000000E+00 -0.00000000000E+00 -0.45593999997E+02  0.45594000000E+02  0.51100000000E-03 0.  1.
    9900012    2    1    2    0    0 -0.28025079049E+02 -0.63923916090E+01  0.13800772559E+02  0.59301810993E+02  0.49999757376E+02 0.  0.
        -12    1    1    2    0    0  0.28025079049E+02  0.63923916090E+01 -0.13800772559E+02  0.31886189007E+02  0.00000000000E+00 0.  1.
         11    1    3    3    0    0 -0.44397349602E+01  0.45734484589E+00  0.15823142572E+02  0.16440567263E+02  0.51100000000E-03 0. -1.
        -11    1    3    3    0    0  0.91488150587E+01 -0.38108004796E+01 -0.11212468723E+01  0.99739767437E+01  0.51100000000E-03 0.  1.
        -12    1    3    3    0    0 -0.32734159147E+02 -0.30389359752E+01 -0.90112314001E+00  0.32887266986E+02  0.00000000000E+00 0.  1.
</event>
<event>
 7    1  0.3528441E-013  0.5930182E+02  0.7816164E-02  0.1266605E+00
        -11   -1    0    0    0    0  0.00000000000E+00  0.00000000000E+00  0.45593999997E+02  0.45594000000E+02  0.51100000000E-03 0.  1.
         11   -1    0    0    0    0 -0.00000000000E+00 -0.00000000000E+00 -0.45593999997E+02  0.45594000000E+02  0.51100000000E-03 0. -1.
    9900012    2    1    2    0    0 -0.15038110295E+02  0.27711702584E+02  0.47587212736E+01  0.59301817263E+02  0.49999768811E+02 0.  0.
        -12    1    1    2    0    0  0.15038110295E+02 -0.27711702584E+02 -0.47587212736E+01  0.31886182737E+02  0.00000000000E+00 0.  1.
         11    1    3    3    0    0  0.35099251861E+01  0.24041919356E+02 -0.84604854017E+01  0.25727675267E+02  0.51100000000E-03 0. -1.
        -11    1    3    3    0    0  0.40436742367E+01 -0.35362270776E+01  0.74231811303E+01  0.91629592180E+01  0.51100000000E-03 0.  1.
        -12    1    3    3    0    0 -0.22591709718E+02  0.72060103058E+01  0.57960255451E+01  0.24411182778E+02  0.00000000000E+00 0.  1.
</event>
<event>
 7    1  0.3528441E-013  0.5930195E+02  0.7816164E-02  0.1266605E+00
        -11   -1    0    0    0    0  0.00000000000E+00  0.00000000000E+00  0.45593999997E+02  0.45594000000E+02  0.51100000000E-03 0.  1.
         11   -1    0    0    0    0 -0.00000000000E+00 -0.00000000000E+00 -0.45593999997E+02  0.45594000000E+02  0.51100000000E-03 0. -1.
    9900012    2    1    2    0    0 -0.95997472426E+01  0.28384414812E+02  0.10903658204E+02  0.59301954250E+02  0.50000018642E+02 0.  0.
        -12    1    1    2    0    0  0.95997472426E+01 -0.28384414812E+02 -0.10903658204E+02  0.31886045750E+02  0.00000000000E+00 0.  1.
         11    1    3    3    0    0  0.54467684155E+01 -0.76368144836E+00 -0.29097924706E+01  0.62223297896E+01  0.51100000000E-03 0. -1.
        -11    1    3    3    0    0 -0.21794609947E+02  0.27196560702E+02 -0.28776708696E+01  0.34970543700E+02  0.51100000000E-03 0.  1.
         12    1    3    3    0    0  0.67480942893E+01  0.19515355591E+01  0.16691121544E+02  0.18109080760E+02  0.00000000000E+00 0. -1.
</event>
<event>
 7    1  0.3528441E-013  0.5930194E+02  0.7816164E-02  0.1266605E+00
        -11   -1    0    0    0    0  0.00000000000E+00  0.00000000000E+00  0.45593999997E+02  0.45594000000E+02  0.51100000000E-03 0.  1.
         11   -1    0    0    0    0 -0.00000000000E+00 -0.00000000000E+00 -0.45593999997E+02  0.45594000000E+02  0.51100000000E-03 0. -1.
    9900012    2    1    2    0    0  0.14097006269E+02 -0.62715489984E+01 -0.27904528980E+02  0.59301942700E+02  0.49999997578E+02 0.  0.
        -12    1    1    2    0    0 -0.14097006269E+02  0.62715489984E+01  0.27904528980E+02  0.31886057300E+02  0.00000000000E+00 0.  1.
         11    1    3    3    0    0  0.20751060072E+01  0.15943853649E+02 -0.88446445797E+00  0.16102633690E+02  0.51100000000E-03 0. -1.
        -11    1    3    3    0    0  0.87358246868E+01 -0.36213834810E+01 -0.21561230026E+02  0.23543909866E+02  0.51100000000E-03 0.  1.
        -12    1    3    3    0    0  0.32860755750E+01 -0.18594019166E+02 -0.54588344956E+01  0.19655399144E+02  0.00000000000E+00 0.  1.
</event>
<event>
 7    1  0.3528441E-013  0.5930194E+02  0.7816164E-02  0.1266605E+00
        -11   -1    0    0    0    0  0.00000000000E+00  0.00000000000E+00  0.45593999997E+02  0.45594000000E+02  0.51100000000E-03 0.  1.
         11   -1    0    0    0    0 -0.00000000000E+00 -0.00000000000E+00 -0.45593999997E+02  0.45594000000E+02  0.51100000000E-03 0. -1.
    9900012    2    1    2    0    0  0.15184463924E+01  0.13761757297E+02 -0.28723323195E+02  0.59301938175E+02  0.49999989327E+02 0.  0.
        -12    1    1    2    0    0 -0.15184463924E+01 -0.13761757297E+02  0.28723323195E+02  0.31886061825E+02  0.00000000000E+00 0.  1.
         11    1    3    3    0    0 -0.58242131575E+01  0.12784973950E-02 -0.10853012400E+02  0.12317034503E+02  0.51100000000E-03 0. -1.
        -11    1    3    3    0    0 -0.37008889060E+01 -0.52060233462E+01  0.97811539046E+01  0.11682047327E+02  0.51100000000E-03 0.  1.
         12    1    3    3    0    0  0.11043548456E+02  0.18966502146E+02 -0.27651464700E+02  0.35302856346E+02  0.00000000000E+00 0. -1.
</event>
<event>
 7    1  0.3528441E-013  0.5930195E+02  0.7816164E-02  0.1266605E+00
        -11   -1    0    0    0    0  0.00000000000E+00  0.00000000000E+00  0.45593999997E+02  0.45594000000E+02  0.51100000000E-03 0. -1.
         11   -1    0    0    0    0 -0.00000000000E+00 -0.00000000000E+00 -0.45593999997E+02  0.45594000000E+02  0.51100000000E-03 0.  1.
    9900012    2    1    2    0    0 -0.14125718837E+02 -0.23076907993E+02  0.16871298869E+02  0.59301947552E+02  0.50000006428E+02 0.  0.
        -12    1    1    2    0    0  0.14125718837E+02  0.23076907993E+02 -0.16871298869E+02  0.31886052448E+02  0.00000000000E+00 0.  1.
         11    1    3    3    0    0  0.24894572657E+01 -0.16371993635E+02  0.11459267995E+01  0.16599780768E+02  0.51100000000E-03 0. -1.
        -11    1    3    3    0    0 -0.13461334799E+02 -0.19076820165E+02  0.12225065161E+01  0.23380058268E+02  0.51100000000E-03 0.  1.
         12    1    3    3    0    0 -0.31538413042E+01  0.12371905807E+02  0.14502865553E+02  0.19322108517E+02  0.00000000000E+00 0. -1.
</event>
<event>
 7    1  0.3528441E-013  0.5930189E+02  0.7816164E-02  0.1266605E+00
        -11   -1    0    0    0    0  0.00000000000E+00  0.00000000000E+00  0.45593999997E+02  0.45594000000E+02  0.51100000000E-03 0. -1.
         11   -1    0    0    0    0 -0.00000000000E+00 -0.00000000000E+00 -0.45593999997E+02  0.45594000000E+02  0.51100000000E-03 0.  1.
    9900012    2    1    2    0    0 -0.12920756003E+01 -0.15034730986E+02  0.28089341664E+02  0.59301894714E+02  0.49999910064E+02 0.  0.
        -12    1    1    2    0    0  0.12920756003E+01  0.15034730986E+02 -0.28089341664E+02  0.31886105286E+02  0.00000000000E+00 0.  1.
         11    1    3    3    0    0  0.14412669011E+02 -0.51564482108E+01  0.74431024959E+00  0.15325403231E+02  0.51100000000E-03 0. -1.
        -11    1    3    3    0    0 -0.21145833242E+02 -0.30390244414E+01  0.81128907682E+01  0.22851716127E+02  0.51100000000E-03 0.  1.
         12    1    3    3    0    0  0.54410886306E+01 -0.68392583342E+01  0.19232140646E+02  0.21124775357E+02  0.00000000000E+00 0. -1.
</event>
<event>
 7    1  0.3528441E-013  0.5930203E+02  0.7816164E-02  0.1266604E+00
        -11   -1    0    0    0    0  0.00000000000E+00  0.00000000000E+00  0.45593999997E+02  0.45594000000E+02  0.51100000000E-03 0. -1.
         11   -1    0    0    0    0 -0.00000000000E+00 -0.00000000000E+00 -0.45593999997E+02  0.45594000000E+02  0.51100000000E-03 0.  1.
    9900012    2    1    2    0    0  0.29575300453E+02  0.86604420878E+01 -0.81861810401E+01  0.59302027942E+02  0.50000153040E+02 0.  0.
        -12    1    1    2    0    0 -0.29575300453E+02 -0.86604420878E+01  0.81861810401E+01  0.31885972058E+02  0.00000000000E+00 0.  1.
         11    1    3    3    0    0  0.24862365529E+01 -0.64756161570E+01  0.21824012723E+01  0.72717159175E+01  0.51100000000E-03 0.  1.
        -11    1    3    3    0    0  0.28340766983E+02 -0.63332727173E+01 -0.93210007046E+01  0.30499024098E+02  0.51100000000E-03 0. -1.
        -12    1    3    3    0    0 -0.12517030832E+01  0.21469330962E+02 -0.10475816079E+01  0.21531287927E+02  0.00000000000E+00 0.  1.
</event>
<event>
 7    1  0.3528441E-013  0.5930193E+02  0.7816164E-02  0.1266605E+00
        -11   -1    0    0    0    0  0.00000000000E+00  0.00000000000E+00  0.45593999997E+02  0.45594000000E+02  0.51100000000E-03 0.  1.
         11   -1    0    0    0    0 -0.00000000000E+00 -0.00000000000E+00 -0.45593999997E+02  0.45594000000E+02  0.51100000000E-03 0. -1.
    9900012    2    1    2    0    0 -0.29373800915E+02  0.49028520703E+01 -0.11395754464E+02  0.59301931594E+02  0.49999977323E+02 0.  0.
        -12    1    1    2    0    0  0.29373800915E+02 -0.49028520703E+01  0.11395754464E+02  0.31886068406E+02  0.00000000000E+00 0.  1.
         11    1    3    3    0    0 -0.45210665761E+01 -0.55299947488E+01 -0.90661941557E+00  0.72001974926E+01  0.51100000000E-03 0. -1.
        -11    1    3    3    0    0  0.11660169419E+02 -0.25813215899E+01  0.87172754821E-02  0.11942480826E+02  0.51100000000E-03 0.  1.
         12    1    3    3    0    0 -0.36512903758E+02  0.13014168409E+02 -0.10497852324E+02  0.40159253275E+02  0.00000000000E+00 0. -1.
</event>
<event>
 7    1  0.3528441E-013  0.5930197E+02  0.7816164E-02  0.1266605E+00
        -11   -1    0    0    0    0  0.00000000000E+00  0.00000000000E+00  0.45593999997E+02  0.45594000000E+02  0.51100000000E-03 0. -1.
         11   -1    0    0    0    0 -0.00000000000E+00 -0.00000000000E+00 -0.45593999997E+02  0.45594000000E+02  0.51100000000E-03 0.  1.
    9900012    2    1    2    0    0 -0.24710869999E+02  0.17597018126E+02  0.98202290911E+01  0.59301967910E+02  0.50000043556E+02 0.  0.
        -12    1    1    2    0    0  0.24710869999E+02 -0.17597018126E+02 -0.98202290911E+01  0.31886032090E+02  0.00000000000E+00 0.  1.
         11    1    3    3    0    0  0.30522655655E+01 -0.56641744665E+01 -0.43505616003E+01  0.77670189885E+01  0.51100000000E-03 0. -1.
        -11    1    3    3    0    0 -0.15235945168E+02  0.45382402650E+01  0.22472097346E+02  0.27526801653E+02  0.51100000000E-03 0.  1.
        -12    1    3    3    0    0 -0.12527190397E+02  0.18722952327E+02 -0.83013066545E+01  0.24008147268E+02  0.00000000000E+00 0.  1.
</event>
<event>
 7    1  0.3528441E-013  0.5930182E+02  0.7816164E-02  0.1266605E+00
        -11   -1    0    0    0    0  0.00000000000E+00  0.00000000000E+00  0.45593999997E+02  0.45594000000E+02  0.51100000000E-03 0. -1.
         11   -1    0    0    0    0 -0.00000000000E+00 -0.00000000000E+00 -0.45593999997E+02  0.45594000000E+02  0.51100000000E-03 0.  1.
    9900012    2    1    2    0    0 -0.83030056467E+01 -0.25311022102E+02  0.17525433887E+02  0.59301818423E+02  0.49999770927E+02 0.  0.
        -12    1    1    2    0    0  0.83030056467E+01  0.25311022102E+02 -0.17525433887E+02  0.31886181577E+02  0.00000000000E+00 0.  1.
         11    1    3    3    0    0 -0.13476767804E+02  0.24785020734E+01 -0.45396507154E+01  0.14435188667E+02  0.51100000000E-03 0. -1.
        -11    1    3    3    0    0  0.18288619558E+01 -0.20979766614E+02 -0.49482838451E+00  0.21065141790E+02  0.51100000000E-03 0.  1.
         12    1    3    3    0    0  0.33449002019E+01 -0.68097575614E+01  0.22559912987E+02  0.23801487966E+02  0.00000000000E+00 0. -1.
</event>
<event>
 7    1  0.3528441E-013  0.5930200E+02  0.7816164E-02  0.1266605E+00
        -11   -1    0    0    0    0  0.00000000000E+00  0.00000000000E+00  0.45593999997E+02  0.45594000000E+02  0.51100000000E-03 0. -1.
         11   -1    0    0    0    0 -0.00000000000E+00 -0.00000000000E+00 -0.45593999997E+02  0.45594000000E+02  0.51100000000E-03 0.  1.
    9900012    2    1    2    0    0 -0.15688785690E+02  0.18316350250E+02  0.20858820090E+02  0.59301999020E+02  0.50000100294E+02 0.  0.
        -12    1    1    2    0    0  0.15688785690E+02 -0.18316350250E+02 -0.20858820090E+02  0.31886000980E+02  0.00000000000E+00 0.  1.
         11    1    3    3    0    0 -0.45029354100E+00 -0.87997916809E+01  0.16380106205E+02  0.18599649929E+02  0.51100000000E-03 0. -1.
        -11    1    3    3    0    0 -0.10184367879E+02 -0.22142960154E+01 -0.88643969507E+00  0.10459934585E+02  0.51100000000E-03 0.  1.
         12    1    3    3    0    0 -0.50541242704E+01  0.29330437946E+02  0.53651535798E+01  0.30242414507E+02  0.00000000000E+00 0. -1.
</event>
<event>
 7    1  0.3528441E-013  0.5930194E+02  0.7816164E-02  0.1266605E+00
        -11   -1    0    0    0    0  0.00000000000E+00  0.00000000000E+00  0.45593999997E+02  0.45594000000E+02  0.51100000000E-03 0.  1.
         11   -1    0    0    0    0 -0.00000000000E+00 -0.00000000000E+00 -0.45593999997E+02  0.45594000000E+02  0.51100000000E-03 0. -1.
    9900012    2    1    2    0    0  0.27904103110E+02 -0.15407005123E+02 -0.84026147155E+00  0.59301940090E+02  0.49999992818E+02 0.  0.
        -12    1    1    2    0    0 -0.27904103110E+02  0.15407005123E+02  0.84026147155E+00  0.31886059910E+02  0.00000000000E+00 0.  1.
         11    1    3    3    0    0  0.22197744864E+02 -0.87506454113E+01  0.86345547013E+01  0.25374577973E+02  0.51100000000E-03 0. -1.
        -11    1    3    3    0    0  0.17547272285E+02 -0.10025178207E+02 -0.49065091734E+01  0.20796268782E+02  0.51100000000E-03 0.  1.
        -12    1    3    3    0    0 -0.11840914039E+02  0.33688184954E+01 -0.45683069995E+01  0.13131093335E+02  0.00000000000E+00 0.  1.
</event>
<event>
 7    1  0.3528441E-013  0.5930196E+02  0.7816164E-02  0.1266605E+00
        -11   -1    0    0    0    0  0.00000000000E+00  0.00000000000E+00  0.45593999997E+02  0.45594000000E+02  0.51100000000E-03 0. -1.
         11   -1    0    0    0    0 -0.00000000000E+00 -0.00000000000E+00 -0.45593999997E+02  0.45594000000E+02  0.51100000000E-03 0.  1.
    9900012    2    1    2    0    0  0.68031687818E+01  0.58182582696E+01  0.30603666058E+02  0.59301958996E+02  0.50000027298E+02 0.  0.
        -12    1    1    2    0    0 -0.68031687818E+01 -0.58182582696E+01 -0.30603666058E+02  0.31886041004E+02  0.00000000000E+00 0.  1.
         11    1    3    3    0    0  0.23395543607E+01  0.16607377436E+02  0.38559225161E+00  0.16775791533E+02  0.51100000000E-03 0. -1.
        -11    1    3    3    0    0 -0.22727718816E+01  0.76693856354E+01  0.21844285767E+01  0.82919657812E+01  0.51100000000E-03 0.  1.
         12    1    3    3    0    0  0.67363863026E+01 -0.18458504802E+02  0.28033645229E+02  0.34234201682E+02  0.00000000000E+00 0. -1.
</event>
<event>
 7    1  0.3528441E-013  0.5930194E+02  0.7816164E-02  0.1266605E+00
        -11   -1    0    0    0    0  0.00000000000E+00  0.00000000000E+00  0.45593999997E+02  0.45594000000E+02  0.51100000000E-03 0.  1.
         11   -1    0    0    0    0 -0.00000000000E+00 -0.00000000000E+00 -0.45593999997E+02  0.45594000000E+02  0.51100000000E-03 0. -1.
    9900012    2    1    2    0    0  0.11763951599E+01  0.31829627045E+02 -0.14872529809E+01  0.59301937452E+02  0.49999988008E+02 0.  0.
        -12    1    1    2    0    0 -0.11763951599E+01 -0.31829627045E+02  0.14872529809E+01  0.31886062548E+02  0.00000000000E+00 0.  1.
         11    1    3    3    0    0  0.14964972356E+02  0.44973205414E+00 -0.53311955452E+01  0.15892586408E+02  0.51100000000E-03 0. -1.
        -11    1    3    3    0    0 -0.64153210284E+01 -0.35950757105E+01  0.19857853357E+01  0.76173654843E+01  0.51100000000E-03 0.  1.
         12    1    3    3    0    0 -0.73732561675E+01  0.34974970701E+02  0.18581572286E+01  0.35791985560E+02  0.00000000000E+00 0. -1.
</event>
<event>
 7    1  0.3528441E-013  0.5930197E+02  0.7816164E-02  0.1266605E+00
        -11   -1    0    0    0    0  0.00000000000E+00  0.00000000000E+00  0.45593999997E+02  0.45594000000E+02  0.51100000000E-03 0. -1.
         11   -1    0    0    0    0 -0.00000000000E+00 -0.00000000000E+00 -0.45593999997E+02  0.45594000000E+02  0.51100000000E-03 0.  1.
    9900012    2    1    2    0    0 -0.49103588549E+01  0.31185136654E+02  0.44826657073E+01  0.59301973844E+02  0.50000054377E+02 0.  0.
        -12    1    1    2    0    0  0.49103588549E+01 -0.31185136654E+02 -0.44826657073E+01  0.31886026156E+02  0.00000000000E+00 0.  1.
         11    1    3    3    0    0  0.16480674142E+01  0.22180833704E+02  0.24613916494E+01  0.22377755900E+02  0.51100000000E-03 0. -1.
        -11    1    3    3    0    0  0.13529112584E+02 -0.10086651924E+01  0.46148387785E+01  0.14330074319E+02  0.51100000000E-03 0.  1.
         12    1    3    3    0    0 -0.20087538853E+02  0.10012968142E+02 -0.25935647206E+01  0.22594143625E+02  0.00000000000E+00 0. -1.
</event>
<event>
 7    1  0.3528441E-013  0.5930187E+02  0.7816164E-02  0.1266605E+00
        -11   -1    0    0    0    0  0.00000000000E+00  0.00000000000E+00  0.45593999997E+02  0.45594000000E+02  0.51100000000E-03 0.  1.
         11   -1    0    0    0    0 -0.00000000000E+00 -0.00000000000E+00 -0.45593999997E+02  0.45594000000E+02  0.51100000000E-03 0. -1.
    9900012    2    1    2    0    0  0.19118097935E+02 -0.17914176264E+02  0.18174322435E+02  0.59301868597E+02  0.49999862433E+02 0.  0.
        -12    1    1    2    0    0 -0.19118097935E+02  0.17914176264E+02 -0.18174322435E+02  0.31886131403E+02  0.00000000000E+00 0.  1.
         11    1    3    3    0    0  0.93417818358E+00 -0.12038969065E+02 -0.29588185867E+01  0.12432380010E+02  0.51100000000E-03 0. -1.
        -11    1    3    3    0    0 -0.94419612352E+01 -0.30075559861E+01  0.15704633468E+02  0.18569640212E+02  0.51100000000E-03 0.  1.
        -12    1    3    3    0    0  0.27625880987E+02 -0.28676512126E+01  0.54285075533E+01  0.28299848375E+02  0.00000000000E+00 0.  1.
</event>
<event>
 7    1  0.3528441E-013  0.5930195E+02  0.7816164E-02  0.1266605E+00
        -11   -1    0    0    0    0  0.00000000000E+00  0.00000000000E+00  0.45593999997E+02  0.45594000000E+02  0.51100000000E-03 0.  1.
         11   -1    0    0    0    0 -0.00000000000E+00 -0.00000000000E+00 -0.45593999997E+02  0.45594000000E+02  0.51100000000E-03 0. -1.
    9900012    2    1    2    0    0  0.58084001428E+01 -0.29263103607E+02 -0.11254045547E+02  0.59301948409E+02  0.50000007990E+02 0.  0.
        -12    1    1    2    0    0 -0.58084001428E+01  0.29263103607E+02  0.11254045547E+02  0.31886051591E+02  0.00000000000E+00 0.  1.
         11    1    3    3    0    0 -0.40089879737E+01 -0.17790912813E+01  0.89996210063E+01  0.10011509820E+02  0.51100000000E-03 0. -1.
        -11    1    3    3    0    0 -0.63023355516E+01 -0.11570305096E+01 -0.17098419686E+02  0.18259630583E+02  0.51100000000E-03 0.  1.
         12    1    3    3    0    0  0.16119723668E+02 -0.26326981816E+02 -0.31552468670E+01  0.31030808005E+02  0.00000000000E+00 0. -1.
</event>
<event>
 7    1  0.3528441E-013  0.5930179E+02  0.7816164E-02  0.1266605E+00
        -11   -1    0    0    0    0  0.00000000000E+00  0.00000000000E+00  0.45593999997E+02  0.45594000000E+02  0.51100000000E-03 0.  1.
         11   -1    0    0    0    0 -0.00000000000E+00 -0.00000000000E+00 -0.45593999997E+02  0.45594000000E+02  0.51100000000E-03 0. -1.
    9900012    2    1    2    0    0 -0.29929107128E+02 -0.51239685378E+01  0.97326138408E+01  0.59301791708E+02  0.49999722204E+02 0.  0.
        -12    1    1    2    0    0  0.29929107128E+02  0.51239685378E+01 -0.97326138408E+01  0.31886208292E+02  0.00000000000E+00 0.  1.
         11    1    3    3    0    0  0.98305282822E+00 -0.84134094796E+01  0.11014896313E+02  0.13895315505E+02  0.51100000000E-03 0. -1.
        -11    1    3    3    0    0 -0.17108706609E+01 -0.81435978821E+01  0.91396432881E+01  0.12360353740E+02  0.51100000000E-03 0.  1.
         12    1    3    3    0    0 -0.29201289296E+02  0.11433038824E+02 -0.10421925760E+02  0.33046122463E+02  0.00000000000E+00 0. -1.
</event>
<event>
 7    1  0.3528441E-013  0.5930194E+02  0.7816164E-02  0.1266605E+00
        -11   -1    0    0    0    0  0.00000000000E+00  0.00000000000E+00  0.45593999997E+02  0.45594000000E+02  0.51100000000E-03 0.  1.
         11   -1    0    0    0    0 -0.00000000000E+00 -0.00000000000E+00 -0.45593999997E+02  0.45594000000E+02  0.51100000000E-03 0. -1.
    9900012    2    1    2    0    0 -0.34389842388E+01 -0.30377396083E+02 -0.90613575988E+01  0.59301937105E+02  0.49999987375E+02 0.  0.
        -12    1    1    2    0    0  0.34389842388E+01  0.30377396083E+02  0.90613575988E+01  0.31886062895E+02  0.00000000000E+00 0.  1.
         11    1    3    3    0    0 -0.22684941902E+02 -0.12300530741E+02 -0.14222153981E+02  0.29464882652E+02  0.51100000000E-03 0. -1.
        -11    1    3    3    0    0 -0.18390139543E+01 -0.25041397652E+01 -0.71127152216E-01  0.31076916869E+01  0.51100000000E-03 0.  1.
        -12    1    3    3    0    0  0.21084971617E+02 -0.15572725577E+02  0.52319235346E+01  0.26729362766E+02  0.00000000000E+00 0.  1.
</event>
<event>
 7    1  0.3528441E-013  0.5930190E+02  0.7816164E-02  0.1266605E+00
        -11   -1    0    0    0    0  0.00000000000E+00  0.00000000000E+00  0.45593999997E+02  0.45594000000E+02  0.51100000000E-03 0.  1.
         11   -1    0    0    0    0 -0.00000000000E+00 -0.00000000000E+00 -0.45593999997E+02  0.45594000000E+02  0.51100000000E-03 0. -1.
    9900012    2    1    2    0    0  0.20296457890E+02  0.19311901733E+02 -0.15225879166E+02  0.59301903534E+02  0.49999926150E+02 0.  0.
        -12    1    1    2    0    0 -0.20296457890E+02 -0.19311901733E+02  0.15225879166E+02  0.31886096466E+02  0.00000000000E+00 0.  1.
         11    1    3    3    0    0  0.15126455380E+02  0.19117885319E+02 -0.43627897357E+01  0.24765644065E+02  0.51100000000E-03 0. -1.
        -11    1    3    3    0    0 -0.11495363027E+02  0.59129591877E+01 -0.10912094707E+02  0.16916863440E+02  0.51100000000E-03 0.  1.
         12    1    3    3    0    0  0.16665365537E+02 -0.57189427733E+01  0.49005276298E-01  0.17619396029E+02  0.00000000000E+00 0. -1.
</event>
<event>
 7    1  0.3528441E-013  0.5930193E+02  0.7816164E-02  0.1266605E+00
        -11   -1    0    0    0    0  0.00000000000E+00  0.00000000000E+00  0.45593999997E+02  0.45594000000E+02  0.51100000000E-03 0.  1.
         11   -1    0    0    0    0 -0.00000000000E+00 -0.00000000000E+00 -0.45593999997E+02  0.45594000000E+02  0.51100000000E-03 0. -1.
    9900012    2    1    2    0    0 -0.19020059226E+02  0.25438362518E+02 -0.28014709145E+01  0.59301934393E+02  0.49999982429E+02 0.  0.
        -12    1    1    2    0    0  0.19020059226E+02 -0.25438362518E+02  0.28014709145E+01  0.31886065607E+02  0.00000000000E+00 0.  1.
         11    1    3    3    0    0 -0.48700715162E+01 -0.23274446162E+01 -0.58116047811E+01  0.79315411748E+01  0.51100000000E-03 0.  1.
        -11    1    3    3    0    0 -0.18335770672E+02  0.25457058595E+01 -0.11676904139E+02  0.21886781284E+02  0.51100000000E-03 0. -1.
         12    1    3    3    0    0  0.41857829617E+01  0.25220101275E+02  0.14687038005E+02  0.29483611934E+02  0.00000000000E+00 0. -1.
</event>
<event>
 7    1  0.3528441E-013  0.5930213E+02  0.7816164E-02  0.1266604E+00
        -11   -1    0    0    0    0  0.00000000000E+00  0.00000000000E+00  0.45593999997E+02  0.45594000000E+02  0.51100000000E-03 0. -1.
         11   -1    0    0    0    0 -0.00000000000E+00 -0.00000000000E+00 -0.45593999997E+02  0.45594000000E+02  0.51100000000E-03 0.  1.
    9900012    2    1    2    0    0  0.14810972962E+02 -0.22685743208E+02  0.16813714239E+02  0.59302127713E+02  0.50000334997E+02 0.  0.
        -12    1    1    2    0    0 -0.14810972962E+02  0.22685743208E+02 -0.16813714239E+02  0.31885872287E+02  0.00000000000E+00 0.  1.
         11    1    3    3    0    0  0.47714863637E+01 -0.35457887332E+02  0.43700513559E+01  0.36043393365E+02  0.51100000000E-03 0. -1.
        -11    1    3    3    0    0  0.28359492234E+01  0.18870551027E+01 -0.18710221339E+01  0.38864262562E+01  0.51100000000E-03 0.  1.
        -12    1    3    3    0    0  0.72035373748E+01  0.10885089021E+02  0.14314685017E+02  0.19372308092E+02  0.00000000000E+00 0.  1.
</event>
<event>
 7    1  0.3528441E-013  0.5930194E+02  0.7816164E-02  0.1266605E+00
        -11   -1    0    0    0    0  0.00000000000E+00  0.00000000000E+00  0.45593999997E+02  0.45594000000E+02  0.51100000000E-03 0. -1.
         11   -1    0    0    0    0 -0.00000000000E+00 -0.00000000000E+00 -0.45593999997E+02  0.45594000000E+02  0.51100000000E-03 0.  1.
    9900012    2    1    2    0    0 -0.52225288078E+01 -0.14397937521E+02  0.27966866888E+02  0.59301936343E+02  0.49999985985E+02 0.  0.
        -12    1    1    2    0    0  0.52225288078E+01  0.14397937521E+02 -0.27966866888E+02  0.31886063657E+02  0.00000000000E+00 0.  1.
         11    1    3    3    0    0  0.57143453812E-01 -0.43753964617E+00 -0.36996245340E-01  0.44280390646E+00  0.51100000000E-03 0. -1.
        -11    1    3    3    0    0 -0.53540574919E+01  0.57829747574E+01 -0.11937600099E+02  0.14304370837E+02  0.51100000000E-03 0.  1.
         12    1    3    3    0    0  0.74385230351E-01 -0.19743372632E+02  0.39941463232E+02  0.44554761599E+02  0.00000000000E+00 0. -1.
</event>
<event>
 7    1  0.3528441E-013  0.5930193E+02  0.7816164E-02  0.1266605E+00
        -11   -1    0    0    0    0  0.00000000000E+00  0.00000000000E+00  0.45593999997E+02  0.45594000000E+02  0.51100000000E-03 0. -1.
         11   -1    0    0    0    0 -0.00000000000E+00 -0.00000000000E+00 -0.45593999997E+02  0.45594000000E+02  0.51100000000E-03 0.  1.
    9900012    2    1    2    0    0  0.19720077774E+02 -0.17536625018E+02 -0.17897116602E+02  0.59301929890E+02  0.49999974215E+02 0.  0.
        -12    1    1    2    0    0 -0.19720077774E+02  0.17536625018E+02  0.17897116602E+02  0.31886070110E+02  0.00000000000E+00 0.  1.
         11    1    3    3    0    0 -0.15418774565E+02 -0.25463993868E+01 -0.14686448434E+01  0.15696486131E+02  0.51100000000E-03 0. -1.
        -11    1    3    3    0    0  0.54583411226E+01 -0.63678212974E-01  0.17529993664E+01  0.57332843786E+01  0.51100000000E-03 0.  1.
        -12    1    3    3    0    0  0.29680511216E+02 -0.14926547418E+02 -0.18181471125E+02  0.37872159380E+02  0.00000000000E+00 0.  1.
</event>
<event>
 7    1  0.3528441E-013  0.5930194E+02  0.7816164E-02  0.1266605E+00
        -11   -1    0    0    0    0  0.00000000000E+00  0.00000000000E+00  0.45593999997E+02  0.45594000000E+02  0.51100000000E-03 0. -1.
         11   -1    0    0    0    0 -0.00000000000E+00 -0.00000000000E+00 -0.45593999997E+02  0.45594000000E+02  0.51100000000E-03 0.  1.
    9900012    2    1    2    0    0  0.26768878382E+02 -0.24746281326E-01  0.17324764354E+02  0.59301938435E+02  0.49999989800E+02 0.  0.
        -12    1    1    2    0    0 -0.26768878382E+02  0.24746281325E-01 -0.17324764354E+02  0.31886061565E+02  0.00000000000E+00 0.  1.
         11    1    3    3    0    0 -0.46522332236E+01  0.67032534449E+01  0.42716296330E+01  0.92099783222E+01  0.51100000000E-03 0. -1.
        -11    1    3    3    0    0  0.12855401652E+02 -0.14254763248E+02 -0.82105314572E+01  0.20877558621E+02  0.51100000000E-03 0.  1.
         12    1    3    3    0    0  0.18565709953E+02  0.75267635218E+01  0.21263666178E+02  0.29214401492E+02  0.00000000000E+00 0. -1.
</event>
<event>
 7    1  0.3528441E-013  0.5930195E+02  0.7816164E-02  0.1266605E+00
        -11   -1    0    0    0    0  0.00000000000E+00  0.00000000000E+00  0.45593999997E+02  0.45594000000E+02  0.51100000000E-03 0.  1.
         11   -1    0    0    0    0 -0.00000000000E+00 -0.00000000000E+00 -0.45593999997E+02  0.45594000000E+02  0.51100000000E-03 0. -1.
    9900012    2    1    2    0    0  0.34901219523E+01  0.30005960641E+02 -0.10206940625E+02  0.59301948784E+02  0.50000008674E+02 0.  0.
        -12    1    1    2    0    0 -0.34901219523E+01 -0.30005960641E+02  0.10206940625E+02  0.31886051216E+02  0.00000000000E+00 0.  1.
         11    1    3    3    0    0  0.23384376092E+01  0.15863407992E+02 -0.40771276367E+01  0.16545058888E+02  0.51100000000E-03 0. -1.
        -11    1    3    3    0    0 -0.18902522536E+02  0.10911896353E+02 -0.51230153069E+01  0.22419191028E+02  0.51100000000E-03 0.  1.
         12    1    3    3    0    0  0.20054206879E+02  0.32306562954E+01 -0.10067976813E+01  0.20337698868E+02  0.00000000000E+00 0. -1.
</event>
<event>
 7    1  0.3528441E-013  0.5930197E+02  0.7816164E-02  0.1266605E+00
        -11   -1    0    0    0    0  0.00000000000E+00  0.00000000000E+00  0.45593999997E+02  0.45594000000E+02  0.51100000000E-03 0.  1.
         11   -1    0    0    0    0 -0.00000000000E+00 -0.00000000000E+00 -0.45593999997E+02  0.45594000000E+02  0.51100000000E-03 0. -1.
    9900012    2    1    2    0    0 -0.20717055876E+01  0.15836704895E+02 -0.27597564729E+02  0.59301972261E+02  0.50000051491E+02 0.  0.
        -12    1    1    2    0    0  0.20717055876E+01 -0.15836704895E+02  0.27597564729E+02  0.31886027739E+02  0.00000000000E+00 0.  1.
         11    1    3    3    0    0 -0.42130086553E+01  0.10353033048E+02 -0.37815479112E+02  0.39432793408E+02  0.51100000000E-03 0. -1.
        -11    1    3    3    0    0 -0.11354227508E+01  0.59414563667E+01 -0.26344729289E+01  0.65977675357E+01  0.51100000000E-03 0.  1.
        -12    1    3    3    0    0  0.32767258186E+01 -0.45778451919E+00  0.12852387311E+02  0.13271411318E+02  0.00000000000E+00 0.  1.
</event>
<event>
 7    1  0.3528441E-013  0.5930191E+02  0.7816164E-02  0.1266605E+00
        -11   -1    0    0    0    0  0.00000000000E+00  0.00000000000E+00  0.45593999997E+02  0.45594000000E+02  0.51100000000E-03 0.  1.
         11   -1    0    0    0    0 -0.00000000000E+00 -0.00000000000E+00 -0.45593999997E+02  0.45594000000E+02  0.51100000000E-03 0. -1.
    9900012    2    1    2    0    0  0.21573906565E+02  0.72145888201E+01 -0.22343660179E+02  0.59301907632E+02  0.49999933622E+02 0.  0.
        -12    1    1    2    0    0 -0.21573906565E+02 -0.72145888201E+01  0.22343660179E+02  0.31886092368E+02  0.00000000000E+00 0.  1.
         11    1    3    3    0    0 -0.12976551831E+01 -0.40040743223E+01 -0.98457938704E+01  0.10707762481E+02  0.51100000000E-03 0. -1.
        -11    1    3    3    0    0  0.57937459730E+00 -0.87635069434E+01 -0.16201467889E+02  0.18428843992E+02  0.51100000000E-03 0.  1.
        -12    1    3    3    0    0  0.22292187151E+02  0.19982170086E+02  0.37036015800E+01  0.30165301158E+02  0.00000000000E+00 0.  1.
</event>
<event>
 7    1  0.3528441E-013  0.5930194E+02  0.7816164E-02  0.1266605E+00
        -11   -1    0    0    0    0  0.00000000000E+00  0.00000000000E+00  0.45593999997E+02  0.45594000000E+02  0.51100000000E-03 0.  1.
         11   -1    0    0    0    0 -0.00000000000E+00 -0.00000000000E+00 -0.45593999997E+02  0.45594000000E+02  0.51100000000E-03 0. -1.
    9900012    2    1    2    0    0 -0.31158778860E+02 -0.54472564855E+01 -0.40222573512E+01  0.59301942586E+02  0.49999997370E+02 0.  0.
        -12    1    1    2    0    0  0.31158778860E+02  0.54472564855E+01  0.40222573512E+01  0.31886057414E+02  0.00000000000E+00 0.  1.
         11    1    3    3    0    0 -0.96577271957E+01 -0.24656936337E+00  0.25447692928E+01  0.99904125067E+01  0.51100000000E-03 0. -1.
        -11    1    3    3    0    0  0.24105716231E+01  0.15465878602E+02 -0.81883354384E+01  0.17665024596E+02  0.51100000000E-03 0.  1.
         12    1    3    3    0    0 -0.23911623287E+02 -0.20666565724E+02  0.16213087944E+01  0.31646505482E+02  0.00000000000E+00 0. -1.
</event>
<event>
 7    1  0.3528441E-013  0.5930197E+02  0.7816164E-02  0.1266605E+00
        -11   -1    0    0    0    0  0.00000000000E+00  0.00000000000E+00  0.45593999997E+02  0.45594000000E+02  0.51100000000E-03 0. -1.
         11   -1    0    0    0    0 -0.00000000000E+00 -0.00000000000E+00 -0.45593999997E+02  0.45594000000E+02  0.51100000000E-03 0.  1.
    9900012    2    1    2    0    0  0.30789758693E+01 -0.21669714210E+02  0.23187543012E+02  0.59301972382E+02  0.50000051711E+02 0.  0.
        -12    1    1    2    0    0 -0.30789758693E+01  0.21669714210E+02 -0.23187543012E+02  0.31886027618E+02  0.00000000000E+00 0.  1.
         11    1    3    3    0    0  0.39522502454E+01  0.54852179241E+01  0.13623191213E+01  0.68966521825E+01  0.51100000000E-03 0. -1.
        -11    1    3    3    0    0 -0.15420039676E+02 -0.18669031848E+02 -0.76800280245E+00  0.24226023246E+02  0.51100000000E-03 0.  1.
         12    1    3    3    0    0  0.14546765300E+02 -0.84859002860E+01  0.22593226693E+02  0.28179296953E+02  0.00000000000E+00 0. -1.
</event>
<event>
 7    1  0.3528441E-013  0.5930192E+02  0.7816164E-02  0.1266605E+00
        -11   -1    0    0    0    0  0.00000000000E+00  0.00000000000E+00  0.45593999997E+02  0.45594000000E+02  0.51100000000E-03 0.  1.
         11   -1    0    0    0    0 -0.00000000000E+00 -0.00000000000E+00 -0.45593999997E+02  0.45594000000E+02  0.51100000000E-03 0. -1.
    9900012    2    1    2    0    0 -0.11968088982E+02 -0.16229039877E+02 -0.24700313951E+02  0.59301915284E+02  0.49999947579E+02 0.  0.
        -12    1    1    2    0    0  0.11968088982E+02  0.16229039877E+02  0.24700313951E+02  0.31886084716E+02  0.00000000000E+00 0.  1.
         11    1    3    3    0    0 -0.42441099896E+01 -0.15681443485E+02 -0.20936037080E+02  0.26499769589E+02  0.51100000000E-03 0. -1.
        -11    1    3    3    0    0 -0.15787438546E+02 -0.10895875181E+02 -0.10585017920E+00  0.19182661868E+02  0.51100000000E-03 0.  1.
        -12    1    3    3    0    0  0.80634595539E+01  0.10348278789E+02 -0.36584266915E+01  0.13619483828E+02  0.00000000000E+00 0.  1.
</event>
<event>
 7    1  0.3528441E-013  0.5930198E+02  0.7816164E-02  0.1266605E+00
        -11   -1    0    0    0    0  0.00000000000E+00  0.00000000000E+00  0.45593999997E+02  0.45594000000E+02  0.51100000000E-03 0.  1.
         11   -1    0    0    0    0 -0.00000000000E+00 -0.00000000000E+00 -0.45593999997E+02  0.45594000000E+02  0.51100000000E-03 0. -1.
    9900012    2    1    2    0    0 -0.20026288770E+02 -0.36311757259E+01 -0.24545479991E+02  0.59301980069E+02  0.50000065731E+02 0.  0.
        -12    1    1    2    0    0  0.20026288770E+02  0.36311757259E+01  0.24545479991E+02  0.31886019931E+02  0.00000000000E+00 0.  1.
         11    1    3    3    0    0  0.13646961912E+02 -0.67045766699E+01 -0.13420745184E+02  0.20280712989E+02  0.51100000000E-03 0. -1.
        -11    1    3    3    0    0 -0.60044620580E+01  0.25008241325E+01  0.38463925992E+01  0.75566144692E+01  0.51100000000E-03 0.  1.
        -12    1    3    3    0    0 -0.27668788624E+02  0.57257681145E+00 -0.14971127406E+02  0.31464652611E+02  0.00000000000E+00 0.  1.
</event>
<event>
 7    1  0.3528441E-013  0.5930184E+02  0.7816164E-02  0.1266605E+00
        -11   -1    0    0    0    0  0.00000000000E+00  0.00000000000E+00  0.45593999997E+02  0.45594000000E+02  0.51100000000E-03 0.  1.
         11   -1    0    0    0    0 -0.00000000000E+00 -0.00000000000E+00 -0.45593999997E+02  0.45594000000E+02  0.51100000000E-03 0. -1.
    9900012    2    1    2    0    0  0.27132149163E+02 -0.21673299406E+01 -0.16609531556E+02  0.59301837236E+02  0.49999805238E+02 0.  0.
        -12    1    1    2    0    0 -0.27132149163E+02  0.21673299406E+01  0.16609531556E+02  0.31886162764E+02  0.00000000000E+00 0.  1.
         11    1    3    3    0    0  0.26198149713E+02 -0.68433683270E+01 -0.15585977500E+02  0.31242558047E+02  0.51100000000E-03 0. -1.
        -11    1    3    3    0    0  0.13138245942E+02  0.91251607354E+00  0.48072459173E+01  0.14019836147E+02  0.51100000000E-03 0.  1.
        -12    1    3    3    0    0 -0.12204246491E+02  0.37635223129E+01 -0.58307999729E+01  0.14039443042E+02  0.00000000000E+00 0.  1.
</event>
<event>
 7    1  0.3528441E-013  0.5930194E+02  0.7816164E-02  0.1266605E+00
        -11   -1    0    0    0    0  0.00000000000E+00  0.00000000000E+00  0.45593999997E+02  0.45594000000E+02  0.51100000000E-03 0.  1.
         11   -1    0    0    0    0 -0.00000000000E+00 -0.00000000000E+00 -0.45593999997E+02  0.45594000000E+02  0.51100000000E-03 0. -1.
    9900012    2    1    2    0    0  0.53716539151E+01  0.78707797525E+01 -0.30428887386E+02  0.59301936787E+02  0.49999986794E+02 0.  0.
        -12    1    1    2    0    0 -0.53716539151E+01 -0.78707797525E+01  0.30428887386E+02  0.31886063213E+02  0.00000000000E+00 0.  1.
         11    1    3    3    0    0 -0.36029563766E+01  0.10481289563E+02 -0.18939269919E+02  0.21943898260E+02  0.51100000000E-03 0. -1.
        -11    1    3    3    0    0 -0.34396924067E+01  0.13662587719E+02 -0.90506051698E+01  0.16745484204E+02  0.51100000000E-03 0.  1.
        -12    1    3    3    0    0  0.12414302698E+02 -0.16273097529E+02 -0.24390122975E+01  0.20612554322E+02  0.00000000000E+00 0.  1.
</event>
<event>
 7    1  0.3528441E-013  0.5930194E+02  0.7816164E-02  0.1266605E+00
        -11   -1    0    0    0    0  0.00000000000E+00  0.00000000000E+00  0.45593999997E+02  0.45594000000E+02  0.51100000000E-03 0. -1.
         11   -1    0    0    0    0 -0.00000000000E+00 -0.00000000000E+00 -0.45593999997E+02  0.45594000000E+02  0.51100000000E-03 0.  1.
    9900012    2    1    2    0    0 -0.18823403518E+02 -0.25182670861E+02  0.53135171305E+01  0.59301938845E+02  0.49999990548E+02 0.  0.
        -12    1    1    2    0    0  0.18823403518E+02  0.25182670861E+02 -0.53135171305E+01  0.31886061155E+02  0.00000000000E+00 0.  1.
         11    1    3    3    0    0 -0.16077923795E+02 -0.16460303527E+02  0.29364972683E+01  0.23196211808E+02  0.51100000000E-03 0. -1.
        -11    1    3    3    0    0  0.18155738752E-01 -0.22015934721E+02 -0.12513830965E+01  0.22051477755E+02  0.51100000000E-03 0.  1.
         12    1    3    3    0    0 -0.27636354623E+01  0.13293567388E+02  0.36284029587E+01  0.14054249282E+02  0.00000000000E+00 0. -1.
</event>
<event>
 7    1  0.3528441E-013  0.5930193E+02  0.7816164E-02  0.1266605E+00
        -11   -1    0    0    0    0  0.00000000000E+00  0.00000000000E+00  0.45593999997E+02  0.45594000000E+02  0.51100000000E-03 0.  1.
         11   -1    0    0    0    0 -0.00000000000E+00 -0.00000000000E+00 -0.45593999997E+02  0.45594000000E+02  0.51100000000E-03 0. -1.
    9900012    2    1    2    0    0  0.16674869053E+02  0.78086169331E+01 -0.26032588445E+02  0.59301930668E+02  0.49999975635E+02 0.  0.
        -12    1    1    2    0    0 -0.16674869053E+02 -0.78086169331E+01  0.26032588445E+02  0.31886069332E+02  0.00000000000E+00 0.  1.
         11    1    3    3    0    0  0.71048538226E+01  0.26886690475E+01 -0.22881927548E+02  0.24109966770E+02  0.51100000000E-03 0. -1.
        -11    1    3    3    0    0  0.13127786787E+01  0.18878181953E+02 -0.28956851958E+01  0.19144036532E+02  0.51100000000E-03 0.  1.
        -12    1    3    3    0    0  0.82572365513E+01 -0.13758234068E+02 -0.25497570086E+00  0.16047927366E+02  0.00000000000E+00 0.  1.
</event>
<event>
 7    1  0.3528441E-013  0.5930193E+02  0.7816164E-02  0.1266605E+00
        -11   -1    0    0    0    0  0.00000000000E+00  0.00000000000E+00  0.45593999997E+02  0.45594000000E+02  0.51100000000E-03 0.  1.
         11   -1    0    0    0    0 -0.00000000000E+00 -0.00000000000E+00 -0.45593999997E+02  0.45594000000E+02  0.51100000000E-03 0. -1.
    9900012    2    1    2    0    0 -0.27038142702E+02  0.14870946187E+02 -0.80321291132E+01  0.59301932519E+02  0.49999979011E+02 0.  0.
        -12    1    1    2    0    0  0.27038142702E+02 -0.14870946187E+02  0.80321291132E+01  0.31886067481E+02  0.00000000000E+00 0.  1.
         11    1    3    3    0    0 -0.23302858550E+02  0.12697724082E-01  0.28377134067E+01  0.23475007890E+02  0.51100000000E-03 0. -1.
        -11    1    3    3    0    0 -0.10907575859E+02  0.43270515196E+01 -0.17802061094E+02  0.21321631397E+02  0.51100000000E-03 0.  1.
        -12    1    3    3    0    0  0.71722917063E+01  0.10531196943E+02  0.69322185742E+01  0.14505293232E+02  0.00000000000E+00 0.  1.
</event>
<event>
 7    1  0.3528441E-013  0.5930195E+02  0.7816164E-02  0.1266605E+00
        -11   -1    0    0    0    0  0.00000000000E+00  0.00000000000E+00  0.45593999997E+02  0.45594000000E+02  0.51100000000E-03 0. -1.
         11   -1    0    0    0    0 -0.00000000000E+00 -0.00000000000E+00 -0.45593999997E+02  0.45594000000E+02  0.51100000000E-03 0.  1.
    9900012    2    1    2    0    0 -0.52814544501E+01 -0.53821283053E+01  0.30981588368E+02  0.59301954714E+02  0.50000019489E+02 0.  0.
        -12    1    1    2    0    0  0.52814544501E+01  0.53821283053E+01 -0.30981588368E+02  0.31886045286E+02  0.00000000000E+00 0.  1.
         11    1    3    3    0    0 -0.56135451634E+01  0.13833934037E+02  0.73844958696E+01  0.16655941875E+02  0.51100000000E-03 0. -1.
        -11    1    3    3    0    0  0.36084088301E+01 -0.10832343478E+01 -0.64086949154E+01  0.74340689879E+01  0.51100000000E-03 0.  1.
         12    1    3    3    0    0 -0.32763181167E+01 -0.18132827994E+02  0.30005787414E+02  0.35211943851E+02  0.00000000000E+00 0. -1.
</event>
<event>
 7    1  0.3528441E-013  0.5930199E+02  0.7816164E-02  0.1266605E+00
        -11   -1    0    0    0    0  0.00000000000E+00  0.00000000000E+00  0.45593999997E+02  0.45594000000E+02  0.51100000000E-03 0. -1.
         11   -1    0    0    0    0 -0.00000000000E+00 -0.00000000000E+00 -0.45593999997E+02  0.45594000000E+02  0.51100000000E-03 0.  1.
    9900012    2    1    2    0    0  0.11367784825E+01  0.31632858555E+02 -0.38454618350E+01  0.59301990805E+02  0.50000085310E+02 0.  0.
        -12    1    1    2    0    0 -0.11367784825E+01 -0.31632858555E+02  0.38454618350E+01  0.31886009195E+02  0.00000000000E+00 0.  1.
         11    1    3    3    0    0 -0.19351599188E+02  0.25953525016E+02  0.53122141449E+01  0.32806850981E+02  0.51100000000E-03 0. -1.
        -11    1    3    3    0    0  0.44298152779E+01  0.13544905063E+01 -0.87020276556E+01  0.98581536561E+01  0.51100000000E-03 0.  1.
        -12    1    3    3    0    0  0.16058562392E+02  0.43248430321E+01 -0.45564832432E+00  0.16636986168E+02  0.00000000000E+00 0.  1.
</event>
<event>
 7    1  0.3528441E-013  0.5930191E+02  0.7816164E-02  0.1266605E+00
        -11   -1    0    0    0    0  0.00000000000E+00  0.00000000000E+00  0.45593999997E+02  0.45594000000E+02  0.51100000000E-03 0.  1.
         11   -1    0    0    0    0 -0.00000000000E+00 -0.00000000000E+00 -0.45593999997E+02  0.45594000000E+02  0.51100000000E-03 0. -1.
    9900012    2    1    2    0    0 -0.22169690895E+02 -0.10625123094E+02  0.20306016790E+02  0.59301909725E+02  0.49999937440E+02 0.  0.
        -12    1    1    2    0    0  0.22169690895E+02  0.10625123094E+02 -0.20306016790E+02  0.31886090275E+02  0.00000000000E+00 0.  1.
         11    1    3    3    0    0  0.93549412695E+01 -0.49634038269E+01  0.67266564654E+00  0.10611445850E+02  0.51100000000E-03 0. -1.
        -11    1    3    3    0    0  0.58566815098E+01  0.20570740005E+01  0.12830413972E+01  0.63386486918E+01  0.51100000000E-03 0.  1.
        -12    1    3    3    0    0 -0.37381313674E+02 -0.77187932681E+01  0.18350309746E+02  0.42351815183E+02  0.00000000000E+00 0.  1.
</event>
<event>
 7    1  0.3528441E-013  0.5930197E+02  0.7816164E-02  0.1266605E+00
        -11   -1    0    0    0    0  0.00000000000E+00  0.00000000000E+00  0.45593999997E+02  0.45594000000E+02  0.51100000000E-03 0.  1.
         11   -1    0    0    0    0 -0.00000000000E+00 -0.00000000000E+00 -0.45593999997E+02  0.45594000000E+02  0.51100000000E-03 0. -1.
    9900012    2    1    2    0    0 -0.16594592384E+01  0.90355896404E+01 -0.30533971923E+02  0.59301966592E+02  0.50000041151E+02 0.  0.
        -12    1    1    2    0    0  0.16594592384E+01 -0.90355896404E+01  0.30533971923E+02  0.31886033408E+02  0.00000000000E+00 0.  1.
         11    1    3    3    0    0 -0.17885964046E+02 -0.27445351567E+01 -0.13430914286E+02  0.22535075813E+02  0.51100000000E-03 0. -1.
        -11    1    3    3    0    0 -0.58200491220E+01 -0.55951262986E+00 -0.80067363572E+01  0.99143256715E+01  0.51100000000E-03 0.  1.
        -12    1    3    3    0    0  0.22046553930E+02  0.12339637427E+02 -0.90963212795E+01  0.26852565107E+02  0.00000000000E+00 0.  1.
</event>
<event>
 7    1  0.3528441E-013  0.5930194E+02  0.7816164E-02  0.1266605E+00
        -11   -1    0    0    0    0  0.00000000000E+00  0.00000000000E+00  0.45593999997E+02  0.45594000000E+02  0.51100000000E-03 0.  1.
         11   -1    0    0    0    0 -0.00000000000E+00 -0.00000000000E+00 -0.45593999997E+02  0.45594000000E+02  0.51100000000E-03 0. -1.
    9900012    2    1    2    0    0  0.14356187163E+02 -0.18819611300E+02 -0.21364524218E+02  0.59301940751E+02  0.49999994025E+02 0.  0.
        -12    1    1    2    0    0 -0.14356187163E+02  0.18819611300E+02  0.21364524218E+02  0.31886059249E+02  0.00000000000E+00 0.  1.
         11    1    3    3    0    0 -0.61991123442E+01 -0.72934443964E+01 -0.23994077192E+02  0.25832906642E+02  0.51100000000E-03 0. -1.
        -11    1    3    3    0    0  0.42606786069E+01  0.13526395137E+01 -0.87211937170E+01  0.98001140787E+01  0.51100000000E-03 0.  1.
         12    1    3    3    0    0  0.16294620900E+02 -0.12878806417E+02  0.11350746691E+02  0.23668920031E+02  0.00000000000E+00 0. -1.
</event>
<event>
 7    1  0.3528441E-013  0.5930195E+02  0.7816164E-02  0.1266605E+00
        -11   -1    0    0    0    0  0.00000000000E+00  0.00000000000E+00  0.45593999997E+02  0.45594000000E+02  0.51100000000E-03 0.  1.
         11   -1    0    0    0    0 -0.00000000000E+00 -0.00000000000E+00 -0.45593999997E+02  0.45594000000E+02  0.51100000000E-03 0. -1.
    9900012    2    1    2    0    0  0.24403531546E+02  0.20046254227E+02 -0.43971929317E+01  0.59301953426E+02  0.50000017139E+02 0.  0.
        -12    1    1    2    0    0 -0.24403531546E+02 -0.20046254227E+02  0.43971929317E+01  0.31886046574E+02  0.00000000000E+00 0.  1.
         11    1    3    3    0    0  0.21905415453E+02  0.21559857068E+02 -0.11350538577E+02  0.32764453135E+02  0.51100000000E-03 0. -1.
        -11    1    3    3    0    0  0.44976759231E+01  0.59221180184E+00 -0.91295561609E+01  0.10194537728E+02  0.51100000000E-03 0.  1.
        -12    1    3    3    0    0 -0.19995598302E+01 -0.21058146427E+01  0.16082901806E+02  0.16342962563E+02  0.00000000000E+00 0.  1.
</event>
<event>
 7    1  0.3528441E-013  0.5930191E+02  0.7816164E-02  0.1266605E+00
        -11   -1    0    0    0    0  0.00000000000E+00  0.00000000000E+00  0.45593999997E+02  0.45594000000E+02  0.51100000000E-03 0.  1.
         11   -1    0    0    0    0 -0.00000000000E+00 -0.00000000000E+00 -0.45593999997E+02  0.45594000000E+02  0.51100000000E-03 0. -1.
    9900012    2    1    2    0    0 -0.28637204735E+02 -0.38828313372E+01 -0.13474295739E+02  0.59301913381E+02  0.49999944108E+02 0.  0.
        -12    1    1    2    0    0  0.28637204735E+02  0.38828313372E+01  0.13474295739E+02  0.31886086619E+02  0.00000000000E+00 0.  1.
         11    1    3    3    0    0 -0.17919446110E+02 -0.90141835368E+01 -0.12942741385E+02  0.23872088483E+02  0.51100000000E-03 0. -1.
        -11    1    3    3    0    0 -0.22693590551E+02  0.87080485482E+00 -0.72459920670E-01  0.22710407391E+02  0.51100000000E-03 0.  1.
        -12    1    3    3    0    0  0.11975831926E+02  0.42605473448E+01 -0.45909443275E+00  0.12719417507E+02  0.00000000000E+00 0.  1.
</event>
<event>
 7    1  0.3528441E-013  0.5930195E+02  0.7816164E-02  0.1266605E+00
        -11   -1    0    0    0    0  0.00000000000E+00  0.00000000000E+00  0.45593999997E+02  0.45594000000E+02  0.51100000000E-03 0. -1.
         11   -1    0    0    0    0 -0.00000000000E+00 -0.00000000000E+00 -0.45593999997E+02  0.45594000000E+02  0.51100000000E-03 0.  1.
    9900012    2    1    2    0    0 -0.13962035964E+02 -0.23947018100E+02  0.15758239025E+02  0.59301949425E+02  0.50000009843E+02 0.  0.
        -12    1    1    2    0    0  0.13962035964E+02  0.23947018100E+02 -0.15758239025E+02  0.31886050575E+02  0.00000000000E+00 0.  1.
         11    1    3    3    0    0  0.54731288531E+01  0.66861523576E+00 -0.36280320889E+01  0.66003638442E+01  0.51100000000E-03 0. -1.
        -11    1    3    3    0    0 -0.14816491408E+02 -0.65262607913E+01 -0.91528284634E+01  0.18598246334E+02  0.51100000000E-03 0.  1.
         12    1    3    3    0    0 -0.46186734086E+01 -0.18089372544E+02  0.28539099577E+02  0.34103339246E+02  0.00000000000E+00 0. -1.
</event>
<event>
 7    1  0.3528441E-013  0.5930198E+02  0.7816164E-02  0.1266605E+00
        -11   -1    0    0    0    0  0.00000000000E+00  0.00000000000E+00  0.45593999997E+02  0.45594000000E+02  0.51100000000E-03 0. -1.
         11   -1    0    0    0    0 -0.00000000000E+00 -0.00000000000E+00 -0.45593999997E+02  0.45594000000E+02  0.51100000000E-03 0.  1.
    9900012    2    1    2    0    0  0.28135298643E+01 -0.28902081600E+02  0.13170888165E+02  0.59301975379E+02  0.50000057176E+02 0.  0.
        -12    1    1    2    0    0 -0.28135298643E+01  0.28902081600E+02 -0.13170888165E+02  0.31886024621E+02  0.00000000000E+00 0.  1.
         11    1    3    3    0    0 -0.90102877639E+01 -0.10550204276E+01  0.17782413599E+01  0.92444846415E+01  0.51100000000E-03 0. -1.
        -11    1    3    3    0    0 -0.65607377744E+01 -0.29159045342E+02  0.38198722886E+01  0.30131123941E+02  0.51100000000E-03 0.  1.
         12    1    3    3    0    0  0.18384555403E+02  0.13119841696E+01  0.75727745161E+01  0.19926366796E+02  0.00000000000E+00 0. -1.
</event>
<event>
 7    1  0.3528441E-013  0.5930196E+02  0.7816164E-02  0.1266605E+00
        -11   -1    0    0    0    0  0.00000000000E+00  0.00000000000E+00  0.45593999997E+02  0.45594000000E+02  0.51100000000E-03 0.  1.
         11   -1    0    0    0    0 -0.00000000000E+00 -0.00000000000E+00 -0.45593999997E+02  0.45594000000E+02  0.51100000000E-03 0. -1.
    9900012    2    1    2    0    0 -0.18048891106E+02 -0.20820134299E+02 -0.16046155962E+02  0.59301959426E+02  0.50000028082E+02 0.  0.
        -12    1    1    2    0    0  0.18048891106E+02  0.20820134299E+02  0.16046155962E+02  0.31886040574E+02  0.00000000000E+00 0.  1.
         11    1    3    3    0    0 -0.66373151981E+01 -0.11350658805E+02  0.59703129922E+00  0.13162365098E+02  0.51100000000E-03 0. -1.
        -11    1    3    3    0    0 -0.40439740698E+01 -0.21413775731E+02  0.30005061736E+01  0.21997876145E+02  0.51100000000E-03 0.  1.
         12    1    3    3    0    0 -0.73676018378E+01  0.11944300238E+02 -0.19643693435E+02  0.24141718182E+02  0.00000000000E+00 0. -1.
</event>
<event>
 7    1  0.3528441E-013  0.5930195E+02  0.7816164E-02  0.1266605E+00
        -11   -1    0    0    0    0  0.00000000000E+00  0.00000000000E+00  0.45593999997E+02  0.45594000000E+02  0.51100000000E-03 0. -1.
         11   -1    0    0    0    0 -0.00000000000E+00 -0.00000000000E+00 -0.45593999997E+02  0.45594000000E+02  0.51100000000E-03 0.  1.
    9900012    2    1    2    0    0  0.30980159745E+02  0.33657013672E+01  0.67543799983E+01  0.59301954577E+02  0.50000019240E+02 0.  0.
        -12    1    1    2    0    0 -0.30980159745E+02 -0.33657013672E+01 -0.67543799983E+01  0.31886045423E+02  0.00000000000E+00 0.  1.
         11    1    3    3    0    0  0.34695170948E+02  0.11075271905E+02  0.61963844235E+01  0.36943358199E+02  0.51100000000E-03 0. -1.
        -11    1    3    3    0    0  0.41950735580E+01  0.23379045790E+01 -0.62417948409E+01  0.78755598579E+01  0.51100000000E-03 0.  1.
         12    1    3    3    0    0 -0.79100847605E+01 -0.10047475117E+02  0.67997904158E+01  0.14483036520E+02  0.00000000000E+00 0. -1.
</event>
<event>
 7    1  0.3528441E-013  0.5930194E+02  0.7816164E-02  0.1266605E+00
        -11   -1    0    0    0    0  0.00000000000E+00  0.00000000000E+00  0.45593999997E+02  0.45594000000E+02  0.51100000000E-03 0. -1.
         11   -1    0    0    0    0 -0.00000000000E+00 -0.00000000000E+00 -0.45593999997E+02  0.45594000000E+02  0.51100000000E-03 0.  1.
    9900012    2    1    2    0    0  0.32037173527E+01  0.17273549659E+02  0.26609801991E+02  0.59301939022E+02  0.49999990871E+02 0.  0.
        -12    1    1    2    0    0 -0.32037173527E+01 -0.17273549659E+02 -0.26609801991E+02  0.31886060978E+02  0.00000000000E+00 0.  1.
         11    1    3    3    0    0 -0.84006414513E+01  0.78717030212E+01  0.52666249073E+01  0.12659850845E+02  0.51100000000E-03 0. -1.
        -11    1    3    3    0    0  0.75762511495E+01  0.24518017849E+02  0.11211716722E+02  0.28004202771E+02  0.51100000000E-03 0.  1.
        -12    1    3    3    0    0  0.40281076546E+01 -0.15116171211E+02  0.10131460361E+02  0.18637885406E+02  0.00000000000E+00 0.  1.
</event>
<event>
 7    1  0.3528441E-013  0.5930195E+02  0.7816164E-02  0.1266605E+00
        -11   -1    0    0    0    0  0.00000000000E+00  0.00000000000E+00  0.45593999997E+02  0.45594000000E+02  0.51100000000E-03 0. -1.
         11   -1    0    0    0    0 -0.00000000000E+00 -0.00000000000E+00 -0.45593999997E+02  0.45594000000E+02  0.51100000000E-03 0.  1.
    9900012    2    1    2    0    0  0.30186335145E+02  0.95721409157E+01  0.37255355147E+01  0.59301947782E+02  0.50000006847E+02 0.  0.
        -12    1    1    2    0    0 -0.30186335145E+02 -0.95721409157E+01 -0.37255355147E+01  0.31886052218E+02  0.00000000000E+00 0.  1.
         11    1    3    3    0    0  0.32891579478E+01  0.12315523304E+02 -0.28193452689E+01  0.13055243478E+02  0.51100000000E-03 0. -1.
        -11    1    3    3    0    0 -0.91991377204E+01  0.12132423474E+01 -0.35000290744E+00  0.92853968191E+01  0.51100000000E-03 0.  1.
        -12    1    3    3    0    0  0.36096314917E+02 -0.39566247358E+01  0.68948836911E+01  0.36961307485E+02  0.00000000000E+00 0.  1.
</event>
<event>
 7    1  0.3528441E-013  0.5930199E+02  0.7816164E-02  0.1266605E+00
        -11   -1    0    0    0    0  0.00000000000E+00  0.00000000000E+00  0.45593999997E+02  0.45594000000E+02  0.51100000000E-03 0.  1.
         11   -1    0    0    0    0 -0.00000000000E+00 -0.00000000000E+00 -0.45593999997E+02  0.45594000000E+02  0.51100000000E-03 0. -1.
    9900012    2    1    2    0    0 -0.17900391514E+02 -0.12828503559E+02 -0.23059122773E+02  0.59301989541E+02  0.50000083005E+02 0.  0.
        -12    1    1    2    0    0  0.17900391514E+02  0.12828503559E+02  0.23059122773E+02  0.31886010459E+02  0.00000000000E+00 0.  1.
         11    1    3    3    0    0 -0.10384285983E+02  0.19078159003E+01 -0.19671599373E+02  0.22325881372E+02  0.51100000000E-03 0. -1.
        -11    1    3    3    0    0 -0.20580928286E+02 -0.79115138296E+01 -0.27781493002E+01  0.22223518488E+02  0.51100000000E-03 0.  1.
        -12    1    3    3    0    0  0.13064822755E+02 -0.68248056293E+01 -0.60937410041E+00  0.14752589681E+02  0.00000000000E+00 0.  1.
</event>
<event>
 7    1  0.3528441E-013  0.5930193E+02  0.7816164E-02  0.1266605E+00
        -11   -1    0    0    0    0  0.00000000000E+00  0.00000000000E+00  0.45593999997E+02  0.45594000000E+02  0.51100000000E-03 0. -1.
         11   -1    0    0    0    0 -0.00000000000E+00 -0.00000000000E+00 -0.45593999997E+02  0.45594000000E+02  0.51100000000E-03 0.  1.
    9900012    2    1    2    0    0  0.31841130019E+02  0.16434627033E+01 -0.40354629441E+00  0.59301931252E+02  0.49999976701E+02 0.  0.
        -12    1    1    2    0    0 -0.31841130019E+02 -0.16434627033E+01  0.40354629441E+00  0.31886068748E+02  0.00000000000E+00 0.  1.
         11    1    3    3    0    0 -0.18501683921E+01 -0.24507789068E+01 -0.18984730016E+00  0.30766024423E+01  0.51100000000E-03 0. -1.
        -11    1    3    3    0    0 -0.31535109402E+01  0.12680044845E+02  0.10658498170E+02  0.16862139604E+02  0.51100000000E-03 0.  1.
         12    1    3    3    0    0  0.36844809352E+02 -0.85858032348E+01 -0.10872197164E+02  0.39363189207E+02  0.00000000000E+00 0. -1.
</event>
<event>
 7    1  0.3528441E-013  0.5930200E+02  0.7816164E-02  0.1266605E+00
        -11   -1    0    0    0    0  0.00000000000E+00  0.00000000000E+00  0.45593999997E+02  0.45594000000E+02  0.51100000000E-03 0.  1.
         11   -1    0    0    0    0 -0.00000000000E+00 -0.00000000000E+00 -0.45593999997E+02  0.45594000000E+02  0.51100000000E-03 0. -1.
    9900012    2    1    2    0    0 -0.15869333833E+02 -0.16454829748E+02 -0.22228810561E+02  0.59301996844E+02  0.50000096324E+02 0.  0.
        -12    1    1    2    0    0  0.15869333833E+02  0.16454829748E+02  0.22228810561E+02  0.31886003156E+02  0.00000000000E+00 0.  1.
         11    1    3    3    0    0  0.65927458094E+01 -0.18962666531E+01 -0.14422723630E+02  0.15971070149E+02  0.51100000000E-03 0. -1.
        -11    1    3    3    0    0 -0.41123621797E+01 -0.71895430111E+01  0.12495117213E+02  0.14990964140E+02  0.51100000000E-03 0.  1.
        -12    1    3    3    0    0 -0.18349717463E+02 -0.73690200834E+01 -0.20301204143E+02  0.28339962555E+02  0.00000000000E+00 0.  1.
</event>
<event>
 7    1  0.3528441E-013  0.5930195E+02  0.7816164E-02  0.1266605E+00
        -11   -1    0    0    0    0  0.00000000000E+00  0.00000000000E+00  0.45593999997E+02  0.45594000000E+02  0.51100000000E-03 0.  1.
         11   -1    0    0    0    0 -0.00000000000E+00 -0.00000000000E+00 -0.45593999997E+02  0.45594000000E+02  0.51100000000E-03 0. -1.
    9900012    2    1    2    0    0  0.18339818558E+02  0.22366316310E+02  0.13420853973E+02  0.59301947071E+02  0.50000005551E+02 0.  0.
        -12    1    1    2    0    0 -0.18339818558E+02 -0.22366316310E+02 -0.13420853973E+02  0.31886052929E+02  0.00000000000E+00 0.  1.
         11    1    3    3    0    0  0.36673187673E+01  0.14590135378E+02 -0.43120607923E+01  0.15649765040E+02  0.51100000000E-03 0.  1.
        -11    1    3    3    0    0  0.15255413502E+02  0.15947087626E+02 -0.21250286838E+01  0.22170994386E+02  0.51100000000E-03 0. -1.
        -12    1    3    3    0    0 -0.58291371147E+00 -0.81709066944E+01  0.19857943449E+02  0.21481187645E+02  0.00000000000E+00 0.  1.
</event>
<event>
 7    1  0.3528441E-013  0.5930164E+02  0.7816164E-02  0.1266606E+00
        -11   -1    0    0    0    0  0.00000000000E+00  0.00000000000E+00  0.45593999997E+02  0.45594000000E+02  0.51100000000E-03 0. -1.
         11   -1    0    0    0    0 -0.00000000000E+00 -0.00000000000E+00 -0.45593999997E+02  0.45594000000E+02  0.51100000000E-03 0.  1.
    9900012    2    1    2    0    0  0.77894217304E+01 -0.30838373223E+02  0.22494160550E+01  0.59301635727E+02  0.49999437730E+02 0.  0.
        -12    1    1    2    0    0 -0.77894217304E+01  0.30838373223E+02 -0.22494160550E+01  0.31886364273E+02  0.00000000000E+00 0.  1.
         11    1    3    3    0    0 -0.15483919225E+02 -0.21359235121E+02  0.33549979206E+01  0.26593696449E+02  0.51100000000E-03 0. -1.
        -11    1    3    3    0    0  0.80258746426E+01  0.47927220665E+01  0.54472910152E+01  0.10819326608E+02  0.51100000000E-03 0.  1.
        -12    1    3    3    0    0  0.15247466312E+02 -0.14271860168E+02 -0.65528728808E+01  0.21888612670E+02  0.00000000000E+00 0.  1.
</event>
<event>
 7    1  0.3528441E-013  0.5930195E+02  0.7816164E-02  0.1266605E+00
        -11   -1    0    0    0    0  0.00000000000E+00  0.00000000000E+00  0.45593999997E+02  0.45594000000E+02  0.51100000000E-03 0. -1.
         11   -1    0    0    0    0 -0.00000000000E+00 -0.00000000000E+00 -0.45593999997E+02  0.45594000000E+02  0.51100000000E-03 0.  1.
    9900012    2    1    2    0    0  0.27357670631E+02  0.14307032587E+02 -0.79741183111E+01  0.59301954672E+02  0.50000019412E+02 0.  0.
        -12    1    1    2    0    0 -0.27357670631E+02 -0.14307032587E+02  0.79741183111E+01  0.31886045328E+02  0.00000000000E+00 0.  1.
         11    1    3    3    0    0  0.28736083142E+02  0.14841225541E+02 -0.50256643225E+00  0.32346205700E+02  0.51100000000E-03 0. -1.
        -11    1    3    3    0    0  0.10002597329E+02 -0.66429667578E+01  0.51823384684E-01  0.12007649504E+02  0.51100000000E-03 0.  1.
        -12    1    3    3    0    0 -0.11381009840E+02  0.61087738039E+01 -0.75233752635E+01  0.14948099468E+02  0.00000000000E+00 0.  1.
</event>
<event>
 7    1  0.3528441E-013  0.5930190E+02  0.7816164E-02  0.1266605E+00
        -11   -1    0    0    0    0  0.00000000000E+00  0.00000000000E+00  0.45593999997E+02  0.45594000000E+02  0.51100000000E-03 0.  1.
         11   -1    0    0    0    0 -0.00000000000E+00 -0.00000000000E+00 -0.45593999997E+02  0.45594000000E+02  0.51100000000E-03 0. -1.
    9900012    2    1    2    0    0 -0.13107461076E+02  0.56980015234E+01 -0.28503514643E+02  0.59301904218E+02  0.49999927396E+02 0.  0.
        -12    1    1    2    0    0  0.13107461076E+02 -0.56980015234E+01  0.28503514643E+02  0.31886095782E+02  0.00000000000E+00 0.  1.
         11    1    3    3    0    0 -0.24996750896E+01  0.31897358996E+01 -0.65957891903E+00  0.41058294259E+01  0.51100000000E-03 0. -1.
        -11    1    3    3    0    0 -0.18601558011E+02  0.17506005881E+02 -0.39088641217E+01  0.25841002715E+02  0.51100000000E-03 0.  1.
         12    1    3    3    0    0  0.79937720249E+01 -0.14997740257E+02 -0.23935071602E+02  0.29355072077E+02  0.00000000000E+00 0. -1.
</event>
<event>
 7    1  0.3528441E-013  0.5930192E+02  0.7816164E-02  0.1266605E+00
        -11   -1    0    0    0    0  0.00000000000E+00  0.00000000000E+00  0.45593999997E+02  0.45594000000E+02  0.51100000000E-03 0.  1.
         11   -1    0    0    0    0 -0.00000000000E+00 -0.00000000000E+00 -0.45593999997E+02  0.45594000000E+02  0.51100000000E-03 0. -1.
    9900012    2    1    2    0    0  0.17356721237E+02  0.32645582381E+01 -0.26548238391E+02  0.59301920369E+02  0.49999956852E+02 0.  0.
        -12    1    1    2    0    0 -0.17356721237E+02 -0.32645582381E+01  0.26548238391E+02  0.31886079631E+02  0.00000000000E+00 0.  1.
         11    1    3    3    0    0  0.34831609404E+01 -0.77079223713E+01  0.20251426651E+01  0.86974525290E+01  0.51100000000E-03 0. -1.
        -11    1    3    3    0    0  0.68392859333E+01 -0.18190819142E+01  0.83230473082E+01  0.10925109054E+02  0.51100000000E-03 0.  1.
        -12    1    3    3    0    0  0.70342743636E+01  0.12791562524E+02 -0.36896428364E+02  0.39679358786E+02  0.00000000000E+00 0.  1.
</event>
<event>
 7    1  0.3528441E-013  0.5930194E+02  0.7816164E-02  0.1266605E+00
        -11   -1    0    0    0    0  0.00000000000E+00  0.00000000000E+00  0.45593999997E+02  0.45594000000E+02  0.51100000000E-03 0. -1.
         11   -1    0    0    0    0 -0.00000000000E+00 -0.00000000000E+00 -0.45593999997E+02  0.45594000000E+02  0.51100000000E-03 0.  1.
    9900012    2    1    2    0    0  0.31125452410E+01  0.51819694255E+01  0.31307822657E+02  0.59301944984E+02  0.50000001743E+02 0.  0.
        -12    1    1    2    0    0 -0.31125452410E+01 -0.51819694255E+01 -0.31307822657E+02  0.31886055016E+02  0.00000000000E+00 0.  1.
         11    1    3    3    0    0  0.46899580577E+01  0.77379619144E+01  0.10944949866E+02  0.14200834095E+02  0.51100000000E-03 0. -1.
        -11    1    3    3    0    0 -0.11423168458E+02  0.29525783513E+01  0.28727842179E+02  0.31056326458E+02  0.51100000000E-03 0.  1.
        -12    1    3    3    0    0  0.98457556413E+01 -0.55085708402E+01 -0.83649693877E+01  0.14044784431E+02  0.00000000000E+00 0.  1.
</event>
<event>
 7    1  0.3528441E-013  0.5930190E+02  0.7816164E-02  0.1266605E+00
        -11   -1    0    0    0    0  0.00000000000E+00  0.00000000000E+00  0.45593999997E+02  0.45594000000E+02  0.51100000000E-03 0. -1.
         11   -1    0    0    0    0 -0.00000000000E+00 -0.00000000000E+00 -0.45593999997E+02  0.45594000000E+02  0.51100000000E-03 0.  1.
    9900012    2    1    2    0    0  0.10773014276E+02 -0.20550963406E+02  0.21870610855E+02  0.59301897186E+02  0.49999914572E+02 0.  0.
        -12    1    1    2    0    0 -0.10773014276E+02  0.20550963406E+02 -0.21870610855E+02  0.31886102814E+02  0.00000000000E+00 0.  1.
         11    1    3    3    0    0  0.29244065635E+02 -0.11287958794E+02  0.17145234398E+02  0.35729433964E+02  0.51100000000E-03 0. -1.
        -11    1    3    3    0    0 -0.22732917381E+01  0.10910564532E+01  0.34938620056E+01  0.43087505713E+01  0.51100000000E-03 0.  1.
        -12    1    3    3    0    0 -0.16197759620E+02 -0.10354061064E+02  0.12315144513E+01  0.19263712651E+02  0.00000000000E+00 0.  1.
</event>
<event>
 7    1  0.3528441E-013  0.5930195E+02  0.7816164E-02  0.1266605E+00
        -11   -1    0    0    0    0  0.00000000000E+00  0.00000000000E+00  0.45593999997E+02  0.45594000000E+02  0.51100000000E-03 0. -1.
         11   -1    0    0    0    0 -0.00000000000E+00 -0.00000000000E+00 -0.45593999997E+02  0.45594000000E+02  0.51100000000E-03 0.  1.
    9900012    2    1    2    0    0 -0.25053990301E+02  0.13607007972E+02  0.14278210075E+02  0.59301946953E+02  0.50000005335E+02 0.  0.
        -12    1    1    2    0    0  0.25053990301E+02 -0.13607007972E+02 -0.14278210075E+02  0.31886053047E+02  0.00000000000E+00 0.  1.
         11    1    3    3    0    0 -0.59083782387E+01 -0.63012975648E+01  0.14443755419E+02  0.16829657016E+02  0.51100000000E-03 0. -1.
        -11    1    3    3    0    0  0.68199897340E+01 -0.18266524301E+01 -0.44420728131E+01  0.83415184595E+01  0.51100000000E-03 0.  1.
        -12    1    3    3    0    0 -0.25965601796E+02  0.21734957967E+02  0.42765274692E+01  0.34130771478E+02  0.00000000000E+00 0.  1.
</event>
<event>
 7    1  0.3528441E-013  0.5930195E+02  0.7816164E-02  0.1266605E+00
        -11   -1    0    0    0    0  0.00000000000E+00  0.00000000000E+00  0.45593999997E+02  0.45594000000E+02  0.51100000000E-03 0.  1.
         11   -1    0    0    0    0 -0.00000000000E+00 -0.00000000000E+00 -0.45593999997E+02  0.45594000000E+02  0.51100000000E-03 0. -1.
    9900012    2    1    2    0    0 -0.54171252934E+01 -0.30319407529E+02  0.82528003307E+01  0.59301946110E+02  0.50000003798E+02 0.  0.
        -12    1    1    2    0    0  0.54171252934E+01  0.30319407529E+02 -0.82528003307E+01  0.31886053890E+02  0.00000000000E+00 0.  1.
         11    1    3    3    0    0  0.19003486013E+01 -0.18238121249E+02  0.90091978847E+00  0.18358977319E+02  0.51100000000E-03 0. -1.
        -11    1    3    3    0    0 -0.12810976986E+02 -0.21640774896E+02 -0.35972761587E+01  0.25404422164E+02  0.51100000000E-03 0.  1.
        -12    1    3    3    0    0  0.54935030914E+01  0.95594886158E+01  0.10949156701E+02  0.15538546627E+02  0.00000000000E+00 0.  1.
</event>
<event>
 7    1  0.3528441E-013  0.5930194E+02  0.7816164E-02  0.1266605E+00
        -11   -1    0    0    0    0  0.00000000000E+00  0.00000000000E+00  0.45593999997E+02  0.45594000000E+02  0.51100000000E-03 0. -1.
         11   -1    0    0    0    0 -0.00000000000E+00 -0.00000000000E+00 -0.45593999997E+02  0.45594000000E+02  0.51100000000E-03 0.  1.
    9900012    2    1    2    0    0  0.25450694183E+02 -0.14428049467E+02  0.12681270392E+02  0.59301936202E+02  0.49999985727E+02 0.  0.
        -12    1    1    2    0    0 -0.25450694183E+02  0.14428049467E+02 -0.12681270392E+02  0.31886063798E+02  0.00000000000E+00 0.  1.
         11    1    3    3    0    0  0.11557166804E+02  0.11808768326E+01  0.87266856511E+01  0.14529887038E+02  0.51100000000E-03 0. -1.
        -11    1    3    3    0    0 -0.69336402042E+01 -0.39886720550E+00  0.15143107538E+02  0.16659776940E+02  0.51100000000E-03 0.  1.
        -12    1    3    3    0    0  0.20827167583E+02 -0.15210059094E+02 -0.11188522797E+02  0.28112272224E+02  0.00000000000E+00 0.  1.
</event>
<event>
 7    1  0.3528441E-013  0.5930192E+02  0.7816164E-02  0.1266605E+00
        -11   -1    0    0    0    0  0.00000000000E+00  0.00000000000E+00  0.45593999997E+02  0.45594000000E+02  0.51100000000E-03 0.  1.
         11   -1    0    0    0    0 -0.00000000000E+00 -0.00000000000E+00 -0.45593999997E+02  0.45594000000E+02  0.51100000000E-03 0. -1.
    9900012    2    1    2    0    0  0.22143737782E+02  0.74423431290E+01 -0.21702269263E+02  0.59301920194E+02  0.49999956534E+02 0.  0.
        -12    1    1    2    0    0 -0.22143737782E+02 -0.74423431290E+01  0.21702269263E+02  0.31886079806E+02  0.00000000000E+00 0.  1.
         11    1    3    3    0    0  0.14145383242E+02 -0.16952351561E+00 -0.14221243328E+02  0.20059022094E+02  0.51100000000E-03 0. -1.
        -11    1    3    3    0    0  0.66953003152E+01  0.20523890706E+02 -0.12933833914E+02  0.25166270999E+02  0.51100000000E-03 0.  1.
         12    1    3    3    0    0  0.13030542245E+01 -0.12912024062E+02  0.54528079793E+01  0.14076627101E+02  0.00000000000E+00 0. -1.
</event>
<event>
 7    1  0.3528441E-013  0.5930195E+02  0.7816164E-02  0.1266605E+00
        -11   -1    0    0    0    0  0.00000000000E+00  0.00000000000E+00  0.45593999997E+02  0.45594000000E+02  0.51100000000E-03 0.  1.
         11   -1    0    0    0    0 -0.00000000000E+00 -0.00000000000E+00 -0.45593999997E+02  0.45594000000E+02  0.51100000000E-03 0. -1.
    9900012    2    1    2    0    0 -0.17911133620E+02 -0.20784197021E+02 -0.16245889563E+02  0.59301945352E+02  0.50000002414E+02 0.  0.
        -12    1    1    2    0    0  0.17911133620E+02  0.20784197021E+02  0.16245889563E+02  0.31886054648E+02  0.00000000000E+00 0.  1.
         11    1    3    3    0    0 -0.23238849109E+02 -0.87339697320E+01 -0.19402825699E+02  0.31508665166E+02  0.51100000000E-03 0. -1.
        -11    1    3    3    0    0  0.70827441451E+01  0.31533511543E+01 -0.61368650466E+01  0.98878714084E+01  0.51100000000E-03 0.  1.
        -12    1    3    3    0    0 -0.17550286555E+01 -0.15203578443E+02  0.92938011820E+01  0.17905408777E+02  0.00000000000E+00 0.  1.
</event>
<event>
 7    1  0.3528441E-013  0.5930191E+02  0.7816164E-02  0.1266605E+00
        -11   -1    0    0    0    0  0.00000000000E+00  0.00000000000E+00  0.45593999997E+02  0.45594000000E+02  0.51100000000E-03 0.  1.
         11   -1    0    0    0    0 -0.00000000000E+00 -0.00000000000E+00 -0.45593999997E+02  0.45594000000E+02  0.51100000000E-03 0. -1.
    9900012    2    1    2    0    0  0.11403494124E+02 -0.24484335033E+02 -0.16946987100E+02  0.59301910368E+02  0.49999938613E+02 0.  0.
        -12    1    1    2    0    0 -0.11403494124E+02  0.24484335033E+02  0.16946987100E+02  0.31886089632E+02  0.00000000000E+00 0.  1.
         11    1    3    3    0    0 -0.79973311115E+01  0.57794218447E+00 -0.89741788503E+01  0.12034417658E+02  0.51100000000E-03 0. -1.
        -11    1    3    3    0    0 -0.92552074880E+01 -0.15448036801E+01 -0.30769209353E+01  0.98748532525E+01  0.51100000000E-03 0.  1.
         12    1    3    3    0    0  0.28656032723E+02 -0.23517473537E+02 -0.48958873148E+01  0.37392639458E+02  0.00000000000E+00 0. -1.
</event>
<event>
 7    1  0.3528441E-013  0.5930207E+02  0.7816164E-02  0.1266604E+00
        -11   -1    0    0    0    0  0.00000000000E+00  0.00000000000E+00  0.45593999997E+02  0.45594000000E+02  0.51100000000E-03 0.  1.
         11   -1    0    0    0    0 -0.00000000000E+00 -0.00000000000E+00 -0.45593999997E+02  0.45594000000E+02  0.51100000000E-03 0. -1.
    9900012    2    1    2    0    0  0.32164994990E+01  0.37263108345E+01 -0.31503671861E+02  0.59302068899E+02  0.50000227734E+02 0.  0.
        -12    1    1    2    0    0 -0.32164994990E+01 -0.37263108345E+01  0.31503671861E+02  0.31885931101E+02  0.00000000000E+00 0.  1.
         11    1    3    3    0    0  0.19601377251E+02  0.81485329239E+00 -0.15201733467E+02  0.24818756550E+02  0.51100000000E-03 0. -1.
        -11    1    3    3    0    0  0.54939600830E+01 -0.25328103087E+01 -0.88842178178E+01  0.10748397646E+02  0.51100000000E-03 0.  1.
        -12    1    3    3    0    0 -0.21878837835E+02  0.54442678508E+01 -0.74177205765E+01  0.23734914703E+02  0.00000000000E+00 0.  1.
</event>
<event>
 7    1  0.3528441E-013  0.5930194E+02  0.7816164E-02  0.1266605E+00
        -11   -1    0    0    0    0  0.00000000000E+00  0.00000000000E+00  0.45593999997E+02  0.45594000000E+02  0.51100000000E-03 0. -1.
         11   -1    0    0    0    0 -0.00000000000E+00 -0.00000000000E+00 -0.45593999997E+02  0.45594000000E+02  0.51100000000E-03 0.  1.
    9900012    2    1    2    0    0 -0.28824308596E+02 -0.18259306299E+01  0.13510952585E+02  0.59301943040E+02  0.49999998199E+02 0.  0.
        -12    1    1    2    0    0  0.28824308596E+02  0.18259306299E+01 -0.13510952585E+02  0.31886056960E+02  0.00000000000E+00 0.  1.
         11    1    3    3    0    0 -0.15237428818E+02 -0.25410763433E+01  0.10127438939E+00  0.15448189626E+02  0.51100000000E-03 0. -1.
        -11    1    3    3    0    0 -0.20543195371E+02  0.11719715434E+02  0.18343962258E+02  0.29931180356E+02  0.51100000000E-03 0.  1.
         12    1    3    3    0    0  0.69563155931E+01 -0.11004569720E+02 -0.49342840624E+01  0.13922573058E+02  0.00000000000E+00 0. -1.
</event>
<event>
 7    1  0.3528441E-013  0.5930198E+02  0.7816164E-02  0.1266605E+00
        -11   -1    0    0    0    0  0.00000000000E+00  0.00000000000E+00  0.45593999997E+02  0.45594000000E+02  0.51100000000E-03 0. -1.
         11   -1    0    0    0    0 -0.00000000000E+00 -0.00000000000E+00 -0.45593999997E+02  0.45594000000E+02  0.51100000000E-03 0.  1.
    9900012    2    1    2    0    0  0.58489767763E+01  0.15342466041E+02  0.27333431478E+02  0.59301980024E+02  0.50000065648E+02 0.  0.
        -12    1    1    2    0    0 -0.58489767763E+01 -0.15342466041E+02 -0.27333431478E+02  0.31886019976E+02  0.00000000000E+00 0.  1.
         11    1    3    3    0    0  0.12522614043E+01 -0.72726554784E+01  0.55433280310E+01  0.92297433470E+01  0.51100000000E-03 0. -1.
        -11    1    3    3    0    0 -0.15556266181E+02  0.15732036561E+01  0.48549183640E+01  0.16372007202E+02  0.51100000000E-03 0.  1.
         12    1    3    3    0    0  0.20152981553E+02  0.21041917864E+02  0.16935185083E+02  0.33700229475E+02  0.00000000000E+00 0. -1.
</event>
<event>
 7    1  0.3528441E-013  0.5930196E+02  0.7816164E-02  0.1266605E+00
        -11   -1    0    0    0    0  0.00000000000E+00  0.00000000000E+00  0.45593999997E+02  0.45594000000E+02  0.51100000000E-03 0.  1.
         11   -1    0    0    0    0 -0.00000000000E+00 -0.00000000000E+00 -0.45593999997E+02  0.45594000000E+02  0.51100000000E-03 0. -1.
    9900012    2    1    2    0    0 -0.16259797666E+02  0.22967819511E+02 -0.14993927589E+02  0.59301958888E+02  0.50000027102E+02 0.  0.
        -12    1    1    2    0    0  0.16259797666E+02 -0.22967819511E+02  0.14993927589E+02  0.31886041112E+02  0.00000000000E+00 0.  1.
         11    1    3    3    0    0  0.11595338432E+02  0.12432766335E+02 -0.16629894326E+02  0.23781903575E+02  0.51100000000E-03 0. -1.
        -11    1    3    3    0    0 -0.12728129964E+02  0.77536177813E+01 -0.84450044938E+01  0.17130148342E+02  0.51100000000E-03 0.  1.
        -12    1    3    3    0    0 -0.15127006134E+02  0.27814353948E+01  0.10080971231E+02  0.18389906971E+02  0.00000000000E+00 0.  1.
</event>
<event>
 7    1  0.3528441E-013  0.5930195E+02  0.7816164E-02  0.1266605E+00
        -11   -1    0    0    0    0  0.00000000000E+00  0.00000000000E+00  0.45593999997E+02  0.45594000000E+02  0.51100000000E-03 0.  1.
         11   -1    0    0    0    0 -0.00000000000E+00 -0.00000000000E+00 -0.45593999997E+02  0.45594000000E+02  0.51100000000E-03 0. -1.
    9900012    2    1    2    0    0  0.14046635284E+02  0.18500475707E+02 -0.21843640411E+02  0.59301949906E+02  0.50000010721E+02 0.  0.
        -12    1    1    2    0    0 -0.14046635284E+02 -0.18500475707E+02  0.21843640411E+02  0.31886050094E+02  0.00000000000E+00 0.  1.
         11    1    3    3    0    0 -0.37605326357E+01  0.12303016430E+02 -0.16592141148E+02  0.20995355846E+02  0.51100000000E-03 0. -1.
        -11    1    3    3    0    0  0.35434381466E+01  0.12240259241E+02  0.10278433664E+02  0.16371502651E+02  0.51100000000E-03 0.  1.
         12    1    3    3    0    0  0.14263729773E+02 -0.60427999634E+01 -0.15529932927E+02  0.21935091409E+02  0.00000000000E+00 0. -1.
</event>
<event>
 7    1  0.3528441E-013  0.5930196E+02  0.7816164E-02  0.1266605E+00
        -11   -1    0    0    0    0  0.00000000000E+00  0.00000000000E+00  0.45593999997E+02  0.45594000000E+02  0.51100000000E-03 0. -1.
         11   -1    0    0    0    0 -0.00000000000E+00 -0.00000000000E+00 -0.45593999997E+02  0.45594000000E+02  0.51100000000E-03 0.  1.
    9900012    2    1    2    0    0  0.44326290172E+01  0.91696381862E+01  0.30215706199E+02  0.59301962843E+02  0.50000034314E+02 0.  0.
        -12    1    1    2    0    0 -0.44326290172E+01 -0.91696381862E+01 -0.30215706199E+02  0.31886037157E+02  0.00000000000E+00 0.  1.
         11    1    3    3    0    0 -0.95177496151E+01  0.21391493830E+02  0.14235136688E+02  0.27401143823E+02  0.51100000000E-03 0. -1.
        -11    1    3    3    0    0 -0.10787163841E+01  0.38499955550E+01 -0.98261059803E+00  0.41172343459E+01  0.51100000000E-03 0.  1.
        -12    1    3    3    0    0  0.15029095016E+02 -0.16071851198E+02  0.16963180109E+02  0.27783584674E+02  0.00000000000E+00 0.  1.
</event>
<event>
 7    1  0.3528441E-013  0.5930181E+02  0.7816164E-02  0.1266605E+00
        -11   -1    0    0    0    0  0.00000000000E+00  0.00000000000E+00  0.45593999997E+02  0.45594000000E+02  0.51100000000E-03 0. -1.
         11   -1    0    0    0    0 -0.00000000000E+00 -0.00000000000E+00 -0.45593999997E+02  0.45594000000E+02  0.51100000000E-03 0.  1.
    9900012    2    1    2    0    0 -0.17385886249E+02 -0.15438484364E+02  0.21820014306E+02  0.59301813893E+02  0.49999762665E+02 0.  0.
        -12    1    1    2    0    0  0.17385886249E+02  0.15438484364E+02 -0.21820014306E+02  0.31886186107E+02  0.00000000000E+00 0.  1.
         11    1    3    3    0    0 -0.76752998704E+01 -0.64286020465E+01  0.59851228184E+01  0.11664426595E+02  0.51100000000E-03 0. -1.
        -11    1    3    3    0    0 -0.76152107713E+01 -0.22299841176E+02  0.22536781705E+02  0.32606454598E+02  0.51100000000E-03 0.  1.
        -12    1    3    3    0    0 -0.20953756070E+01  0.13289958858E+02 -0.67018902168E+01  0.15030932701E+02  0.00000000000E+00 0.  1.
</event>
<event>
 7    1  0.3528441E-013  0.5930196E+02  0.7816164E-02  0.1266605E+00
        -11   -1    0    0    0    0  0.00000000000E+00  0.00000000000E+00  0.45593999997E+02  0.45594000000E+02  0.51100000000E-03 0.  1.
         11   -1    0    0    0    0 -0.00000000000E+00 -0.00000000000E+00 -0.45593999997E+02  0.45594000000E+02  0.51100000000E-03 0. -1.
    9900012    2    1    2    0    0  0.48771417332E+01 -0.30844829434E+02  0.64443357468E+01  0.59301961088E+02  0.50000031113E+02 0.  0.
        -12    1    1    2    0    0 -0.48771417332E+01  0.30844829434E+02 -0.64443357468E+01  0.31886038912E+02  0.00000000000E+00 0.  1.
         11    1    3    3    0    0  0.16755264748E+01 -0.17339565870E+02 -0.16956433587E+02  0.24310256555E+02  0.51100000000E-03 0. -1.
        -11    1    3    3    0    0 -0.16499593550E+01 -0.88160898733E+00 -0.40107721126E+01  0.44255952684E+01  0.51100000000E-03 0.  1.
        -12    1    3    3    0    0  0.48515746133E+01 -0.12623654576E+02  0.27411541446E+02  0.30566109264E+02  0.00000000000E+00 0.  1.
</event>
<event>
 7    1  0.3528441E-013  0.5930185E+02  0.7816164E-02  0.1266605E+00
        -11   -1    0    0    0    0  0.00000000000E+00  0.00000000000E+00  0.45593999997E+02  0.45594000000E+02  0.51100000000E-03 0.  1.
         11   -1    0    0    0    0 -0.00000000000E+00 -0.00000000000E+00 -0.45593999997E+02  0.45594000000E+02  0.51100000000E-03 0. -1.
    9900012    2    1    2    0    0 -0.15348293048E+02  0.24344966926E+02 -0.13728770584E+02  0.59301848525E+02  0.49999825826E+02 0.  0.
        -12    1    1    2    0    0  0.15348293048E+02 -0.24344966926E+02  0.13728770584E+02  0.31886151475E+02  0.00000000000E+00 0.  1.
         11    1    3    3    0    0 -0.16596288062E+02  0.37239501364E+01 -0.10366606414E+02  0.19919114209E+02  0.51100000000E-03 0. -1.
        -11    1    3    3    0    0  0.63712006821E-01 -0.76823474055E+01 -0.75207270198E+01  0.10750993259E+02  0.51100000000E-03 0.  1.
        -12    1    3    3    0    0  0.11842830071E+01  0.28303364195E+02  0.41585628503E+01  0.28631741057E+02  0.00000000000E+00 0.  1.
</event>
<event>
 7    1  0.3528441E-013  0.5930196E+02  0.7816164E-02  0.1266605E+00
        -11   -1    0    0    0    0  0.00000000000E+00  0.00000000000E+00  0.45593999997E+02  0.45594000000E+02  0.51100000000E-03 0.  1.
         11   -1    0    0    0    0 -0.00000000000E+00 -0.00000000000E+00 -0.45593999997E+02  0.45594000000E+02  0.51100000000E-03 0. -1.
    9900012    2    1    2    0    0  0.74137730513E+01 -0.17913613449E+02 -0.25315173355E+02  0.59301959486E+02  0.50000028193E+02 0.  0.
        -12    1    1    2    0    0 -0.74137730513E+01  0.17913613449E+02  0.25315173355E+02  0.31886040514E+02  0.00000000000E+00 0.  1.
         11    1    3    3    0    0 -0.23919422458E+01  0.54357150471E+01 -0.76615035126E+01  0.96936588611E+01  0.51100000000E-03 0. -1.
        -11    1    3    3    0    0 -0.52345308607E+01  0.32023869936E+01 -0.18076594022E+02  0.19089757659E+02  0.51100000000E-03 0.  1.
         12    1    3    3    0    0  0.15040246158E+02 -0.26551715490E+02  0.42292417930E+00  0.30518542967E+02  0.00000000000E+00 0. -1.
</event>
<event>
 7    1  0.3528441E-013  0.5930195E+02  0.7816164E-02  0.1266605E+00
        -11   -1    0    0    0    0  0.00000000000E+00  0.00000000000E+00  0.45593999997E+02  0.45594000000E+02  0.51100000000E-03 0.  1.
         11   -1    0    0    0    0 -0.00000000000E+00 -0.00000000000E+00 -0.45593999997E+02  0.45594000000E+02  0.51100000000E-03 0. -1.
    9900012    2    1    2    0    0 -0.17600478611E+02 -0.23038638827E+02 -0.13272695844E+02  0.59301950052E+02  0.50000010987E+02 0.  0.
        -12    1    1    2    0    0  0.17600478611E+02  0.23038638827E+02  0.13272695844E+02  0.31886049948E+02  0.00000000000E+00 0.  1.
         11    1    3    3    0    0 -0.23454456207E+02  0.60510014554E+01 -0.31179291716E+01  0.24422277067E+02  0.51100000000E-03 0. -1.
        -11    1    3    3    0    0 -0.12964050801E+01  0.10384199569E+01  0.10325074611E+01  0.19557745414E+01  0.51100000000E-03 0.  1.
         12    1    3    3    0    0  0.71503826757E+01 -0.30128060239E+02 -0.11187274133E+02  0.32923898443E+02  0.00000000000E+00 0. -1.
</event>
<event>
 7    1  0.3528441E-013  0.5930196E+02  0.7816164E-02  0.1266605E+00
        -11   -1    0    0    0    0  0.00000000000E+00  0.00000000000E+00  0.45593999997E+02  0.45594000000E+02  0.51100000000E-03 0.  1.
         11   -1    0    0    0    0 -0.00000000000E+00 -0.00000000000E+00 -0.45593999997E+02  0.45594000000E+02  0.51100000000E-03 0. -1.
    9900012    2    1    2    0    0  0.18230453474E+02  0.17924747751E+02 -0.19054480227E+02  0.59301964929E+02  0.50000038119E+02 0.  0.
        -12    1    1    2    0    0 -0.18230453474E+02 -0.17924747751E+02  0.19054480227E+02  0.31886035071E+02  0.00000000000E+00 0.  1.
         11    1    3    3    0    0 -0.11443540468E+02 -0.70527854400E+01 -0.10682733865E+01  0.13484717616E+02  0.51100000000E-03 0. -1.
        -11    1    3    3    0    0 -0.21072070261E+01  0.21241638687E+01 -0.14015532401E+01  0.33040498389E+01  0.51100000000E-03 0.  1.
        -12    1    3    3    0    0  0.31781200968E+02  0.22853369322E+02 -0.16584653601E+02  0.42513197474E+02  0.00000000000E+00 0.  1.
</event>
<event>
 7    1  0.3528441E-013  0.5930196E+02  0.7816164E-02  0.1266605E+00
        -11   -1    0    0    0    0  0.00000000000E+00  0.00000000000E+00  0.45593999997E+02  0.45594000000E+02  0.51100000000E-03 0.  1.
         11   -1    0    0    0    0 -0.00000000000E+00 -0.00000000000E+00 -0.45593999997E+02  0.45594000000E+02  0.51100000000E-03 0. -1.
    9900012    2    1    2    0    0  0.52609521756E+01 -0.46556800165E+01 -0.31102517713E+02  0.59301959445E+02  0.50000028117E+02 0.  0.
        -12    1    1    2    0    0 -0.52609521756E+01  0.46556800165E+01  0.31102517713E+02  0.31886040555E+02  0.00000000000E+00 0.  1.
         11    1    3    3    0    0  0.13622881037E+02  0.13653108760E+02 -0.42283357572E+01  0.19745102939E+02  0.51100000000E-03 0. -1.
        -11    1    3    3    0    0 -0.93261747559E+01  0.92639829148E+00 -0.11978982294E+02  0.15209594552E+02  0.51100000000E-03 0.  1.
        -12    1    3    3    0    0  0.96424589484E+00 -0.19235187068E+02 -0.14895199662E+02  0.24347261954E+02  0.00000000000E+00 0.  1.
</event>
<event>
 7    1  0.3528441E-013  0.5930194E+02  0.7816164E-02  0.1266605E+00
        -11   -1    0    0    0    0  0.00000000000E+00  0.00000000000E+00  0.45593999997E+02  0.45594000000E+02  0.51100000000E-03 0.  1.
         11   -1    0    0    0    0 -0.00000000000E+00 -0.00000000000E+00 -0.45593999997E+02  0.45594000000E+02  0.51100000000E-03 0. -1.
    9900012    2    1    2    0    0  0.50243588452E+01 -0.31470804142E+02 -0.10319518043E+01  0.59301943178E+02  0.49999998449E+02 0.  0.
        -12    1    1    2    0    0 -0.50243588452E+01  0.31470804142E+02  0.10319518043E+01  0.31886056822E+02  0.00000000000E+00 0.  1.
         11    1    3    3    0    0  0.10630809859E+02 -0.14552912515E+01 -0.16634365985E+01  0.10858131168E+02  0.51100000000E-03 0. -1.
        -11    1    3    3    0    0  0.14528698786E+02 -0.35966133108E+01  0.24976926335E+01  0.15174227640E+02  0.51100000000E-03 0.  1.
        -12    1    3    3    0    0 -0.20135149799E+02 -0.26418899580E+02 -0.18662078393E+01  0.33269584370E+02  0.00000000000E+00 0.  1.
</event>
<event>
 7    1  0.3528441E-013  0.5930194E+02  0.7816164E-02  0.1266605E+00
        -11   -1    0    0    0    0  0.00000000000E+00  0.00000000000E+00  0.45593999997E+02  0.45594000000E+02  0.51100000000E-03 0.  1.
         11   -1    0    0    0    0 -0.00000000000E+00 -0.00000000000E+00 -0.45593999997E+02  0.45594000000E+02  0.51100000000E-03 0. -1.
    9900012    2    1    2    0    0  0.25203768949E+02  0.33278852747E+01 -0.19246200927E+02  0.59301936590E+02  0.49999986436E+02 0.  0.
        -12    1    1    2    0    0 -0.25203768949E+02 -0.33278852747E+01  0.19246200927E+02  0.31886063410E+02  0.00000000000E+00 0.  1.
         11    1    3    3    0    0  0.16477379751E+02 -0.84048057030E+01 -0.45616356600E+01  0.19051333877E+02  0.51100000000E-03 0. -1.
        -11    1    3    3    0    0  0.15284406502E+02  0.12071749883E+02  0.44859248269E+01  0.19986589233E+02  0.51100000000E-03 0.  1.
        -12    1    3    3    0    0 -0.65580173036E+01 -0.33905890497E+00 -0.19170490094E+02  0.20264013480E+02  0.00000000000E+00 0.  1.
</event>
<event>
 7    1  0.3528441E-013  0.5930185E+02  0.7816164E-02  0.1266605E+00
        -11   -1    0    0    0    0  0.00000000000E+00  0.00000000000E+00  0.45593999997E+02  0.45594000000E+02  0.51100000000E-03 0.  1.
         11   -1    0    0    0    0 -0.00000000000E+00 -0.00000000000E+00 -0.45593999997E+02  0.45594000000E+02  0.51100000000E-03 0. -1.
    9900012    2    1    2    0    0  0.14793278194E+02  0.25057378731E+01 -0.28135505216E+02  0.59301851663E+02  0.49999831549E+02 0.  0.
        -12    1    1    2    0    0 -0.14793278194E+02 -0.25057378731E+01  0.28135505216E+02  0.31886148337E+02  0.00000000000E+00 0.  1.
         11    1    3    3    0    0 -0.74769970644E+00  0.25102161683E+01 -0.13952682049E+02  0.14196393087E+02  0.51100000000E-03 0. -1.
        -11    1    3    3    0    0 -0.10242439873E+01  0.12446196703E+02 -0.20002788219E+02  0.23581103132E+02  0.51100000000E-03 0.  1.
        -12    1    3    3    0    0  0.16565221888E+02 -0.12450674998E+02  0.58199650525E+01  0.21524355445E+02  0.00000000000E+00 0.  1.
</event>
<event>
 7    1  0.3528441E-013  0.5930194E+02  0.7816164E-02  0.1266605E+00
        -11   -1    0    0    0    0  0.00000000000E+00  0.00000000000E+00  0.45593999997E+02  0.45594000000E+02  0.51100000000E-03 0. -1.
         11   -1    0    0    0    0 -0.00000000000E+00 -0.00000000000E+00 -0.45593999997E+02  0.45594000000E+02  0.51100000000E-03 0.  1.
    9900012    2    1    2    0    0 -0.22268995639E+02  0.22450907689E+02  0.40950616956E+01  0.59301937949E+02  0.49999988915E+02 0.  0.
        -12    1    1    2    0    0  0.22268995639E+02 -0.22450907689E+02 -0.40950616956E+01  0.31886062051E+02  0.00000000000E+00 0.  1.
         11    1    3    3    0    0 -0.69604239779E+01  0.21395299026E+02 -0.13105811264E+02  0.26037830392E+02  0.51100000000E-03 0. -1.
        -11    1    3    3    0    0  0.42448434082E+01  0.59850136484E+01  0.10168714353E+01  0.74076387405E+01  0.51100000000E-03 0.  1.
         12    1    3    3    0    0 -0.19553415069E+02 -0.49294049858E+01  0.16184001524E+02  0.25856468817E+02  0.00000000000E+00 0. -1.
</event>
<event>
 7    1  0.3528441E-013  0.5930183E+02  0.7816164E-02  0.1266605E+00
        -11   -1    0    0    0    0  0.00000000000E+00  0.00000000000E+00  0.45593999997E+02  0.45594000000E+02  0.51100000000E-03 0.  1.
         11   -1    0    0    0    0 -0.00000000000E+00 -0.00000000000E+00 -0.45593999997E+02  0.45594000000E+02  0.51100000000E-03 0. -1.
    9900012    2    1    2    0    0 -0.31359764476E+02 -0.23964599970E+01 -0.52488006469E+01  0.59301831263E+02  0.49999794343E+02 0.  0.
        -12    1    1    2    0    0  0.31359764476E+02  0.23964599970E+01  0.52488006469E+01  0.31886168737E+02  0.00000000000E+00 0.  1.
         11    1    3    3    0    0 -0.14666747178E+02  0.71354384083E+01  0.86596433770E+01  0.18466655835E+02  0.51100000000E-03 0. -1.
        -11    1    3    3    0    0  0.79542394816E+01  0.45444763245E+01  0.14691634374E+00  0.91620835768E+01  0.51100000000E-03 0.  1.
         12    1    3    3    0    0 -0.24647256780E+02 -0.14076374730E+02 -0.14055360368E+02  0.31673091850E+02  0.00000000000E+00 0. -1.
</event>
<event>
 7    1  0.3528441E-013  0.5930195E+02  0.7816164E-02  0.1266605E+00
        -11   -1    0    0    0    0  0.00000000000E+00  0.00000000000E+00  0.45593999997E+02  0.45594000000E+02  0.51100000000E-03 0.  1.
         11   -1    0    0    0    0 -0.00000000000E+00 -0.00000000000E+00 -0.45593999997E+02  0.45594000000E+02  0.51100000000E-03 0. -1.
    9900012    2    1    2    0    0  0.12347593645E+02  0.26676724202E+02 -0.12353534581E+02  0.59301945061E+02  0.50000001884E+02 0.  0.
        -12    1    1    2    0    0 -0.12347593645E+02 -0.26676724202E+02  0.12353534581E+02  0.31886054939E+02  0.00000000000E+00 0.  1.
         11    1    3    3    0    0  0.46950071954E+01  0.13291625330E+02 -0.27877307338E+01  0.14369475961E+02  0.51100000000E-03 0. -1.
        -11    1    3    3    0    0  0.11297422902E+01  0.26599739211E+02 -0.13255060215E+02  0.29740865241E+02  0.51100000000E-03 0.  1.
        -12    1    3    3    0    0  0.65228441592E+01 -0.13214640340E+02  0.36892563676E+01  0.15191603858E+02  0.00000000000E+00 0.  1.
</event>
<event>
 7    1  0.3528441E-013  0.5930195E+02  0.7816164E-02  0.1266605E+00
        -11   -1    0    0    0    0  0.00000000000E+00  0.00000000000E+00  0.45593999997E+02  0.45594000000E+02  0.51100000000E-03 0.  1.
         11   -1    0    0    0    0 -0.00000000000E+00 -0.00000000000E+00 -0.45593999997E+02  0.45594000000E+02  0.51100000000E-03 0. -1.
    9900012    2    1    2    0    0 -0.27872098760E+02  0.14173910052E+02  0.62423085288E+01  0.59301952405E+02  0.50000015279E+02 0.  0.
        -12    1    1    2    0    0  0.27872098760E+02 -0.14173910052E+02 -0.62423085288E+01  0.31886047595E+02  0.00000000000E+00 0.  1.
         11    1    3    3    0    0 -0.19111631065E+02  0.11834774137E+02 -0.28386107488E+01  0.22657758762E+02  0.51100000000E-03 0. -1.
        -11    1    3    3    0    0 -0.14112800946E+02  0.15607531932E+02  0.37357319278E+01  0.21371052778E+02  0.51100000000E-03 0.  1.
        -12    1    3    3    0    0  0.53523332513E+01 -0.13268396017E+02  0.53451873498E+01  0.15273140866E+02  0.00000000000E+00 0.  1.
</event>
<event>
 7    1  0.3528441E-013  0.5930193E+02  0.7816164E-02  0.1266605E+00
        -11   -1    0    0    0    0  0.00000000000E+00  0.00000000000E+00  0.45593999997E+02  0.45594000000E+02  0.51100000000E-03 0.  1.
         11   -1    0    0    0    0 -0.00000000000E+00 -0.00000000000E+00 -0.45593999997E+02  0.45594000000E+02  0.51100000000E-03 0. -1.
    9900012    2    1    2    0    0 -0.21764195243E+02 -0.16747072219E+02 -0.16204218323E+02  0.59301932291E+02  0.49999978595E+02 0.  0.
        -12    1    1    2    0    0  0.21764195243E+02  0.16747072219E+02  0.16204218323E+02  0.31886067709E+02  0.00000000000E+00 0.  1.
         11    1    3    3    0    0 -0.72367166690E+01  0.50624877624E+01  0.25761589141E+01  0.91997524697E+01  0.51100000000E-03 0. -1.
        -11    1    3    3    0    0 -0.17762809671E+02  0.77897220956E-01  0.41464150437E+01  0.18240510776E+02  0.51100000000E-03 0.  1.
        -12    1    3    3    0    0  0.32353310974E+01 -0.21887457202E+02 -0.22926792281E+02  0.31861669046E+02  0.00000000000E+00 0.  1.
</event>
<event>
 7    1  0.3528441E-013  0.5930196E+02  0.7816164E-02  0.1266605E+00
        -11   -1    0    0    0    0  0.00000000000E+00  0.00000000000E+00  0.45593999997E+02  0.45594000000E+02  0.51100000000E-03 0.  1.
         11   -1    0    0    0    0 -0.00000000000E+00 -0.00000000000E+00 -0.45593999997E+02  0.45594000000E+02  0.51100000000E-03 0. -1.
    9900012    2    1    2    0    0 -0.77092270409E+01 -0.30891680267E+02 -0.17294966940E+01  0.59301964654E+02  0.50000037616E+02 0.  0.
        -12    1    1    2    0    0  0.77092270409E+01  0.30891680267E+02  0.17294966940E+01  0.31886035346E+02  0.00000000000E+00 0.  1.
         11    1    3    3    0    0 -0.12943438246E+02 -0.11056923096E+02 -0.13113392834E+02  0.21488350655E+02  0.51100000000E-03 0. -1.
        -11    1    3    3    0    0  0.24677322236E+01  0.44029976142E+01  0.12409738553E+02  0.13396928809E+02  0.51100000000E-03 0.  1.
        -12    1    3    3    0    0  0.27664789816E+01 -0.24237754785E+02 -0.10258424131E+01  0.24416685189E+02  0.00000000000E+00 0.  1.
</event>
<event>
 7    1  0.3528441E-013  0.5930189E+02  0.7816164E-02  0.1266605E+00
        -11   -1    0    0    0    0  0.00000000000E+00  0.00000000000E+00  0.45593999997E+02  0.45594000000E+02  0.51100000000E-03 0. -1.
         11   -1    0    0    0    0 -0.00000000000E+00 -0.00000000000E+00 -0.45593999997E+02  0.45594000000E+02  0.51100000000E-03 0.  1.
    9900012    2    1    2    0    0  0.22160062905E+01 -0.23075776710E+02  0.21893413295E+02  0.59301894870E+02  0.49999910348E+02 0.  0.
        -12    1    1    2    0    0 -0.22160062905E+01  0.23075776710E+02 -0.21893413295E+02  0.31886105130E+02  0.00000000000E+00 0.  1.
         11    1    3    3    0    0 -0.54324301174E+01  0.69649578340E+01  0.48808371550E+01  0.10091803912E+02  0.51100000000E-03 0. -1.
        -11    1    3    3    0    0  0.82733848063E+01  0.54695181406E+01  0.20977261385E+00  0.99201073409E+01  0.51100000000E-03 0.  1.
         12    1    3    3    0    0 -0.62494839841E+00 -0.35510252685E+02  0.16802803526E+02  0.39289983617E+02  0.00000000000E+00 0. -1.
</event>
<event>
 7    1  0.3528441E-013  0.5930195E+02  0.7816164E-02  0.1266605E+00
        -11   -1    0    0    0    0  0.00000000000E+00  0.00000000000E+00  0.45593999997E+02  0.45594000000E+02  0.51100000000E-03 0.  1.
         11   -1    0    0    0    0 -0.00000000000E+00 -0.00000000000E+00 -0.45593999997E+02  0.45594000000E+02  0.51100000000E-03 0. -1.
    9900012    2    1    2    0    0 -0.97690899250E+01 -0.28979877360E+02  0.90250646727E+01  0.59301949725E+02  0.50000010391E+02 0.  0.
        -12    1    1    2    0    0  0.97690899250E+01  0.28979877360E+02 -0.90250646727E+01  0.31886050275E+02  0.00000000000E+00 0.  1.
         11    1    3    3    0    0 -0.90446781453E+01 -0.15746023151E+02 -0.81864903566E+01  0.19918887330E+02  0.51100000000E-03 0. -1.
        -11    1    3    3    0    0  0.29271907052E+01 -0.23265001013E+02  0.16524183702E+02  0.28685839099E+02  0.51100000000E-03 0.  1.
         12    1    3    3    0    0 -0.36516024848E+01  0.10031146804E+02  0.68737132770E+00  0.10697223296E+02  0.00000000000E+00 0. -1.
</event>
<event>
 7    1  0.3528441E-013  0.5930195E+02  0.7816164E-02  0.1266605E+00
        -11   -1    0    0    0    0  0.00000000000E+00  0.00000000000E+00  0.45593999997E+02  0.45594000000E+02  0.51100000000E-03 0.  1.
         11   -1    0    0    0    0 -0.00000000000E+00 -0.00000000000E+00 -0.45593999997E+02  0.45594000000E+02  0.51100000000E-03 0. -1.
    9900012    2    1    2    0    0 -0.42015786975E+01 -0.16817834535E+02 -0.26762429791E+02  0.59301945520E+02  0.50000002721E+02 0.  0.
        -12    1    1    2    0    0  0.42015786975E+01  0.16817834535E+02  0.26762429791E+02  0.31886054480E+02  0.00000000000E+00 0.  1.
         11    1    3    3    0    0  0.40510915499E+01 -0.17974977072E+02 -0.15142167678E+02  0.23849452524E+02  0.51100000000E-03 0. -1.
        -11    1    3    3    0    0  0.11334481292E+02  0.25446322057E+01 -0.10701865928E+02  0.15794795150E+02  0.51100000000E-03 0.  1.
        -12    1    3    3    0    0 -0.19587151540E+02 -0.13874896694E+01 -0.91839618475E+00  0.19657697845E+02  0.00000000000E+00 0.  1.
</event>
<event>
 7    1  0.3528441E-013  0.5930197E+02  0.7816164E-02  0.1266605E+00
        -11   -1    0    0    0    0  0.00000000000E+00  0.00000000000E+00  0.45593999997E+02  0.45594000000E+02  0.51100000000E-03 0. -1.
         11   -1    0    0    0    0 -0.00000000000E+00 -0.00000000000E+00 -0.45593999997E+02  0.45594000000E+02  0.51100000000E-03 0.  1.
    9900012    2    1    2    0    0 -0.29685211374E+01 -0.30937039573E+02  0.71278547294E+01  0.59301970954E+02  0.50000049106E+02 0.  0.
        -12    1    1    2    0    0  0.29685211374E+01  0.30937039573E+02 -0.71278547294E+01  0.31886029046E+02  0.00000000000E+00 0.  1.
         11    1    3    3    0    0  0.49132020353E+01  0.49134915126E+01  0.54136763736E+00  0.69695790593E+01  0.51100000000E-03 0. -1.
        -11    1    3    3    0    0 -0.17127271364E+02 -0.16046962285E+02 -0.93704717162E+01  0.25271607851E+02  0.51100000000E-03 0.  1.
         12    1    3    3    0    0  0.92455481912E+01 -0.19803568801E+02  0.15956958808E+02  0.27060784043E+02  0.00000000000E+00 0. -1.
</event>
<event>
 7    1  0.3528441E-013  0.5930192E+02  0.7816164E-02  0.1266605E+00
        -11   -1    0    0    0    0  0.00000000000E+00  0.00000000000E+00  0.45593999997E+02  0.45594000000E+02  0.51100000000E-03 0.  1.
         11   -1    0    0    0    0 -0.00000000000E+00 -0.00000000000E+00 -0.45593999997E+02  0.45594000000E+02  0.51100000000E-03 0. -1.
    9900012    2    1    2    0    0  0.97582439403E+01  0.15249808366E+02 -0.26247711325E+02  0.59301916362E+02  0.49999949544E+02 0.  0.
        -12    1    1    2    0    0 -0.97582439403E+01 -0.15249808366E+02  0.26247711325E+02  0.31886083638E+02  0.00000000000E+00 0.  1.
         11    1    3    3    0    0  0.10038385640E+02  0.17165190424E+02 -0.15420635471E+02  0.25163643361E+02  0.51100000000E-03 0. -1.
        -11    1    3    3    0    0  0.10576468969E+02  0.11047975934E+02 -0.69020767792E+01  0.16779694044E+02  0.51100000000E-03 0.  1.
         12    1    3    3    0    0 -0.10856610670E+02 -0.12963357993E+02 -0.39249990741E+01  0.17358578957E+02  0.00000000000E+00 0. -1.
</event>
<event>
 7    1  0.3528441E-013  0.5930195E+02  0.7816164E-02  0.1266605E+00
        -11   -1    0    0    0    0  0.00000000000E+00  0.00000000000E+00  0.45593999997E+02  0.45594000000E+02  0.51100000000E-03 0.  1.
         11   -1    0    0    0    0 -0.00000000000E+00 -0.00000000000E+00 -0.45593999997E+02  0.45594000000E+02  0.51100000000E-03 0. -1.
    9900012    2    1    2    0    0 -0.29548029401E+02  0.60851553687E+01 -0.10324985223E+02  0.59301945412E+02  0.50000002524E+02 0.  0.
        -12    1    1    2    0    0  0.29548029401E+02 -0.60851553687E+01  0.10324985223E+02  0.31886054588E+02  0.00000000000E+00 0.  1.
         11    1    3    3    0    0 -0.16830711434E+02 -0.35058117928E+01 -0.95642886469E+00  0.17218545819E+02  0.51100000000E-03 0. -1.
        -11    1    3    3    0    0 -0.13586834380E+02 -0.91202389948E+01  0.64271783264E+01  0.17580939944E+02  0.51100000000E-03 0.  1.
         12    1    3    3    0    0  0.86951641309E+00  0.18711206156E+02 -0.15795734685E+02  0.24502459649E+02  0.00000000000E+00 0. -1.
</event>
<event>
 7    1  0.3528441E-013  0.5930197E+02  0.7816164E-02  0.1266605E+00
        -11   -1    0    0    0    0  0.00000000000E+00  0.00000000000E+00  0.45593999997E+02  0.45594000000E+02  0.51100000000E-03 0. -1.
         11   -1    0    0    0    0 -0.00000000000E+00 -0.00000000000E+00 -0.45593999997E+02  0.45594000000E+02  0.51100000000E-03 0.  1.
    9900012    2    1    2    0    0 -0.30955035492E+02  0.18335430369E+01 -0.74258069077E+01  0.59301973114E+02  0.50000053046E+02 0.  0.
        -12    1    1    2    0    0  0.30955035492E+02 -0.18335430369E+01  0.74258069077E+01  0.31886026886E+02  0.00000000000E+00 0.  1.
         11    1    3    3    0    0 -0.30380905043E+02  0.80774844520E+01 -0.18303216795E+02  0.36376543151E+02  0.51100000000E-03 0. -1.
        -11    1    3    3    0    0 -0.79601820975E+01  0.23650871740E+01  0.20534421445E+01  0.85542247613E+01  0.51100000000E-03 0.  1.
        -12    1    3    3    0    0  0.73860516487E+01 -0.86090285891E+01  0.88239677432E+01  0.14371205201E+02  0.00000000000E+00 0.  1.
</event>
<event>
 7    1  0.3528441E-013  0.5930193E+02  0.7816164E-02  0.1266605E+00
        -11   -1    0    0    0    0  0.00000000000E+00  0.00000000000E+00  0.45593999997E+02  0.45594000000E+02  0.51100000000E-03 0.  1.
         11   -1    0    0    0    0 -0.00000000000E+00 -0.00000000000E+00 -0.45593999997E+02  0.45594000000E+02  0.51100000000E-03 0. -1.
    9900012    2    1    2    0    0  0.29574130124E+02 -0.10741947865E+02 -0.51674533740E+01  0.59301934220E+02  0.49999982114E+02 0.  0.
        -12    1    1    2    0    0 -0.29574130124E+02  0.10741947865E+02  0.51674533740E+01  0.31886065780E+02  0.00000000000E+00 0.  1.
         11    1    3    3    0    0 -0.92462794239E+00  0.10302669356E+02 -0.11473999449E+02  0.15448384910E+02  0.51100000000E-03 0. -1.
        -11    1    3    3    0    0 -0.26099391322E+00  0.92682101369E+00  0.59741118133E+01  0.60512087415E+01  0.51100000000E-03 0.  1.
         12    1    3    3    0    0  0.30759751980E+02 -0.21971438235E+02  0.33243426193E+00  0.37802340569E+02  0.00000000000E+00 0. -1.
</event>
<event>
 7    1  0.3528441E-013  0.5930184E+02  0.7816164E-02  0.1266605E+00
        -11   -1    0    0    0    0  0.00000000000E+00  0.00000000000E+00  0.45593999997E+02  0.45594000000E+02  0.51100000000E-03 0.  1.
         11   -1    0    0    0    0 -0.00000000000E+00 -0.00000000000E+00 -0.45593999997E+02  0.45594000000E+02  0.51100000000E-03 0. -1.
    9900012    2    1    2    0    0  0.27368391805E+01  0.32733011690E+01 -0.31599408237E+02  0.59301837011E+02  0.49999804826E+02 0.  0.
        -12    1    1    2    0    0 -0.27368391805E+01 -0.32733011690E+01  0.31599408237E+02  0.31886162989E+02  0.00000000000E+00 0.  1.
         11    1    3    3    0    0  0.22675021396E+01 -0.17028652643E+02 -0.15629083732E+02  0.23224660070E+02  0.51100000000E-03 0. -1.
        -11    1    3    3    0    0 -0.99710169685E+01  0.87016047784E+00 -0.28311045395E+01  0.10401611020E+02  0.51100000000E-03 0.  1.
        -12    1    3    3    0    0  0.10440354009E+02  0.19431793335E+02 -0.13139219966E+02  0.25675565921E+02  0.00000000000E+00 0.  1.
</event>
<event>
 7    1  0.3528441E-013  0.5930208E+02  0.7816164E-02  0.1266604E+00
        -11   -1    0    0    0    0  0.00000000000E+00  0.00000000000E+00  0.45593999997E+02  0.45594000000E+02  0.51100000000E-03 0.  1.
         11   -1    0    0    0    0 -0.00000000000E+00 -0.00000000000E+00 -0.45593999997E+02  0.45594000000E+02  0.51100000000E-03 0. -1.
    9900012    2    1    2    0    0  0.23099523594E+02 -0.13686117101E+01 -0.21937429360E+02  0.59302079985E+02  0.50000247953E+02 0.  0.
        -12    1    1    2    0    0 -0.23099523594E+02  0.13686117101E+01  0.21937429360E+02  0.31885920015E+02  0.00000000000E+00 0.  1.
         11    1    3    3    0    0  0.73915017813E+01  0.91252604560E+01  0.17472148801E+01  0.11872549729E+02  0.51100000000E-03 0. -1.
        -11    1    3    3    0    0 -0.11794237124E+02 -0.10327696659E+01 -0.49425321436E+01  0.12829624577E+02  0.51100000000E-03 0.  1.
        -12    1    3    3    0    0  0.27502258937E+02 -0.94611025001E+01 -0.18742112096E+02  0.34599905679E+02  0.00000000000E+00 0.  1.
</event>
<event>
 7    1  0.3528441E-013  0.5930195E+02  0.7816164E-02  0.1266605E+00
        -11   -1    0    0    0    0  0.00000000000E+00  0.00000000000E+00  0.45593999997E+02  0.45594000000E+02  0.51100000000E-03 0. -1.
         11   -1    0    0    0    0 -0.00000000000E+00 -0.00000000000E+00 -0.45593999997E+02  0.45594000000E+02  0.51100000000E-03 0.  1.
    9900012    2    1    2    0    0 -0.74409115755E+01  0.27756015043E+02 -0.13818699781E+02  0.59301952898E+02  0.50000016177E+02 0.  0.
        -12    1    1    2    0    0  0.74409115755E+01 -0.27756015043E+02  0.13818699781E+02  0.31886047102E+02  0.00000000000E+00 0.  1.
         11    1    3    3    0    0 -0.86034453868E+01  0.21997494848E+02 -0.13021686498E+02  0.26971714288E+02  0.51100000000E-03 0. -1.
        -11    1    3    3    0    0 -0.97718121570E+00 -0.70772578771E+00 -0.15803971923E+02  0.15849961758E+02  0.51100000000E-03 0.  1.
         12    1    3    3    0    0  0.21397150270E+01  0.64662459828E+01  0.15006958640E+02  0.16480276852E+02  0.00000000000E+00 0. -1.
</event>
<event>
 7    1  0.3528441E-013  0.5930196E+02  0.7816164E-02  0.1266605E+00
        -11   -1    0    0    0    0  0.00000000000E+00  0.00000000000E+00  0.45593999997E+02  0.45594000000E+02  0.51100000000E-03 0. -1.
         11   -1    0    0    0    0 -0.00000000000E+00 -0.00000000000E+00 -0.45593999997E+02  0.45594000000E+02  0.51100000000E-03 0.  1.
    9900012    2    1    2    0    0  0.13669570972E+02 -0.26264074309E+02 -0.11834736941E+02  0.59301956527E+02  0.50000022797E+02 0.  0.
        -12    1    1    2    0    0 -0.13669570972E+02  0.26264074309E+02  0.11834736941E+02  0.31886043473E+02  0.00000000000E+00 0.  1.
         11    1    3    3    0    0 -0.11761089221E+01 -0.13428933154E+02 -0.77275997217E+00  0.13502467777E+02  0.51100000000E-03 0. -1.
        -11    1    3    3    0    0  0.20533393555E+02 -0.12015176512E+02 -0.22660476494E+02  0.32855470057E+02  0.51100000000E-03 0.  1.
         12    1    3    3    0    0 -0.56877136606E+01 -0.81996464318E+00  0.11598499525E+02  0.12944018693E+02  0.00000000000E+00 0. -1.
</event>
<event>
 7    1  0.3528441E-013  0.5930194E+02  0.7816164E-02  0.1266605E+00
        -11   -1    0    0    0    0  0.00000000000E+00  0.00000000000E+00  0.45593999997E+02  0.45594000000E+02  0.51100000000E-03 0. -1.
         11   -1    0    0    0    0 -0.00000000000E+00 -0.00000000000E+00 -0.45593999997E+02  0.45594000000E+02  0.51100000000E-03 0.  1.
    9900012    2    1    2    0    0 -0.27126982802E+01 -0.22515392504E+02  0.22414705076E+02  0.59301942934E+02  0.49999998005E+02 0.  0.
        -12    1    1    2    0    0  0.27126982802E+01  0.22515392504E+02 -0.22414705076E+02  0.31886057066E+02  0.00000000000E+00 0.  1.
         11    1    3    3    0    0  0.17582762763E+02  0.31211978842E+01  0.16090040799E+02  0.24037155318E+02  0.51100000000E-03 0. -1.
        -11    1    3    3    0    0  0.96910102145E+00 -0.48551628716E+01  0.62151615121E+00  0.49897941728E+01  0.51100000000E-03 0.  1.
        -12    1    3    3    0    0 -0.21264562064E+02 -0.20781427517E+02  0.57031481255E+01  0.30274993443E+02  0.00000000000E+00 0.  1.
</event>
<event>
 7    1  0.3528441E-013  0.5930194E+02  0.7816164E-02  0.1266605E+00
        -11   -1    0    0    0    0  0.00000000000E+00  0.00000000000E+00  0.45593999997E+02  0.45594000000E+02  0.51100000000E-03 0.  1.
         11   -1    0    0    0    0 -0.00000000000E+00 -0.00000000000E+00 -0.45593999997E+02  0.45594000000E+02  0.51100000000E-03 0. -1.
    9900012    2    1    2    0    0 -0.19693450537E+02  0.13200813990E+02 -0.21321988963E+02  0.59301941959E+02  0.49999996227E+02 0.  0.
        -12    1    1    2    0    0  0.19693450537E+02 -0.13200813990E+02  0.21321988963E+02  0.31886058041E+02  0.00000000000E+00 0.  1.
         11    1    3    3    0    0  0.29108874340E+00 -0.37155469653E+01  0.45434788146E+01  0.58764974183E+01  0.51100000000E-03 0.  1.
        -11    1    3    3    0    0 -0.12957601681E+02 -0.11499091678E+02 -0.75634964652E+01  0.18903307377E+02  0.51100000000E-03 0. -1.
         12    1    3    3    0    0 -0.70269375995E+01  0.28415452634E+02 -0.18301971313E+02  0.34522137164E+02  0.00000000000E+00 0. -1.
</event>
<event>
 7    1  0.3528441E-013  0.5930194E+02  0.7816164E-02  0.1266605E+00
        -11   -1    0    0    0    0  0.00000000000E+00  0.00000000000E+00  0.45593999997E+02  0.45594000000E+02  0.51100000000E-03 0.  1.
         11   -1    0    0    0    0 -0.00000000000E+00 -0.00000000000E+00 -0.45593999997E+02  0.45594000000E+02  0.51100000000E-03 0. -1.
    9900012    2    1    2    0    0 -0.91973169592E+01 -0.20497708296E+02 -0.22626840839E+02  0.59301943314E+02  0.49999998698E+02 0.  0.
        -12    1    1    2    0    0  0.91973169592E+01  0.20497708296E+02  0.22626840839E+02  0.31886056686E+02  0.00000000000E+00 0.  1.
         11    1    3    3    0    0 -0.82291652449E+01 -0.79921438967E+01 -0.13701439944E+02  0.17869610558E+02  0.51100000000E-03 0. -1.
        -11    1    3    3    0    0  0.52079676788E+01 -0.10459350783E+02 -0.23071652485E+02  0.25861594978E+02  0.51100000000E-03 0.  1.
        -12    1    3    3    0    0 -0.61761193932E+01 -0.20462136165E+01  0.14146251590E+02  0.15570737778E+02  0.00000000000E+00 0.  1.
</event>
<event>
 7    1  0.3528441E-013  0.5930209E+02  0.7816164E-02  0.1266604E+00
        -11   -1    0    0    0    0  0.00000000000E+00  0.00000000000E+00  0.45593999997E+02  0.45594000000E+02  0.51100000000E-03 0. -1.
         11   -1    0    0    0    0 -0.00000000000E+00 -0.00000000000E+00 -0.45593999997E+02  0.45594000000E+02  0.51100000000E-03 0.  1.
    9900012    2    1    2    0    0 -0.21664645316E+02  0.65342832796E+01  0.22464587890E+02  0.59302087378E+02  0.50000261436E+02 0.  0.
        -12    1    1    2    0    0  0.21664645316E+02 -0.65342832796E+01 -0.22464587890E+02  0.31885912622E+02  0.00000000000E+00 0.  1.
         11    1    3    3    0    0 -0.20525751176E+02 -0.86719962045E+01  0.23826761644E+02  0.32622454693E+02  0.51100000000E-03 0. -1.
        -11    1    3    3    0    0 -0.51858703536E+01 -0.40441594067E+01  0.16472746464E+01  0.67795273178E+01  0.51100000000E-03 0.  1.
         12    1    3    3    0    0  0.40469762131E+01  0.19250438891E+02 -0.30094483999E+01  0.19900105367E+02  0.00000000000E+00 0. -1.
</event>
<event>
 7    1  0.3528441E-013  0.5930198E+02  0.7816164E-02  0.1266605E+00
        -11   -1    0    0    0    0  0.00000000000E+00  0.00000000000E+00  0.45593999997E+02  0.45594000000E+02  0.51100000000E-03 0.  1.
         11   -1    0    0    0    0 -0.00000000000E+00 -0.00000000000E+00 -0.45593999997E+02  0.45594000000E+02  0.51100000000E-03 0. -1.
    9900012    2    1    2    0    0  0.62942370463E+01  0.30650419105E+02 -0.61361767583E+01  0.59301979920E+02  0.50000065460E+02 0.  0.
        -12    1    1    2    0    0 -0.62942370463E+01 -0.30650419105E+02  0.61361767583E+01  0.31886020080E+02  0.00000000000E+00 0.  1.
         11    1    3    3    0    0  0.14937274897E+02  0.12907362508E+02  0.20273411432E+01  0.19845208506E+02  0.51100000000E-03 0. -1.
        -11    1    3    3    0    0  0.11866483481E+02  0.79793375277E+01  0.22374692171E+01  0.14473753015E+02  0.51100000000E-03 0.  1.
         12    1    3    3    0    0 -0.20509521332E+02  0.97637190695E+01 -0.10400987119E+02  0.24983018400E+02  0.00000000000E+00 0. -1.
</event>
<event>
 7    1  0.3528441E-013  0.5930194E+02  0.7816164E-02  0.1266605E+00
        -11   -1    0    0    0    0  0.00000000000E+00  0.00000000000E+00  0.45593999997E+02  0.45594000000E+02  0.51100000000E-03 0. -1.
         11   -1    0    0    0    0 -0.00000000000E+00 -0.00000000000E+00 -0.45593999997E+02  0.45594000000E+02  0.51100000000E-03 0.  1.
    9900012    2    1    2    0    0  0.18158852799E+02 -0.25401994296E+02  0.64587749179E+01  0.59301936859E+02  0.49999986926E+02 0.  0.
        -12    1    1    2    0    0 -0.18158852799E+02  0.25401994296E+02 -0.64587749179E+01  0.31886063141E+02  0.00000000000E+00 0.  1.
         11    1    3    3    0    0  0.10290629595E+02 -0.11457748671E+02  0.93354586284E+01  0.18009104645E+02  0.51100000000E-03 0. -1.
        -11    1    3    3    0    0 -0.54367108909E+01 -0.20422370011E+02  0.83443897393E+01  0.22721352569E+02  0.51100000000E-03 0.  1.
        -12    1    3    3    0    0  0.13304934094E+02  0.64781243862E+01 -0.11221073450E+02  0.18571479644E+02  0.00000000000E+00 0.  1.
</event>
<event>
 7    1  0.3528441E-013  0.5930192E+02  0.7816164E-02  0.1266605E+00
        -11   -1    0    0    0    0  0.00000000000E+00  0.00000000000E+00  0.45593999997E+02  0.45594000000E+02  0.51100000000E-03 0.  1.
         11   -1    0    0    0    0 -0.00000000000E+00 -0.00000000000E+00 -0.45593999997E+02  0.45594000000E+02  0.51100000000E-03 0. -1.
    9900012    2    1    2    0    0  0.61431999566E+00 -0.17113623965E+02 -0.26897369186E+02  0.59301921794E+02  0.49999959450E+02 0.  0.
        -12    1    1    2    0    0 -0.61431999566E+00  0.17113623965E+02  0.26897369186E+02  0.31886078206E+02  0.00000000000E+00 0.  1.
         11    1    3    3    0    0  0.20903246450E+01 -0.99002684683E+01 -0.28608379855E+02  0.30345084792E+02  0.51100000000E-03 0. -1.
        -11    1    3    3    0    0  0.93742791428E+01  0.43639920814E+01 -0.52888384388E+01  0.11614359587E+02  0.51100000000E-03 0.  1.
        -12    1    3    3    0    0 -0.10850283792E+02 -0.11577347578E+02  0.69998491079E+01  0.17342477414E+02  0.00000000000E+00 0.  1.
</event>
<event>
 7    1  0.3528441E-013  0.5930195E+02  0.7816164E-02  0.1266605E+00
        -11   -1    0    0    0    0  0.00000000000E+00  0.00000000000E+00  0.45593999997E+02  0.45594000000E+02  0.51100000000E-03 0.  1.
         11   -1    0    0    0    0 -0.00000000000E+00 -0.00000000000E+00 -0.45593999997E+02  0.45594000000E+02  0.51100000000E-03 0. -1.
    9900012    2    1    2    0    0 -0.10689969621E+02  0.25605808013E+02 -0.15709465519E+02  0.59301950364E+02  0.50000011556E+02 0.  0.
        -12    1    1    2    0    0  0.10689969621E+02 -0.25605808013E+02  0.15709465519E+02  0.31886049636E+02  0.00000000000E+00 0.  1.
         11    1    3    3    0    0  0.10799546812E+02  0.13011106934E+02 -0.10672542890E+02  0.19995556681E+02  0.51100000000E-03 0. -1.
        -11    1    3    3    0    0  0.75120010492E+01  0.46300241586E+01 -0.22216017120E+01  0.90996042717E+01  0.51100000000E-03 0.  1.
        -12    1    3    3    0    0 -0.29001517481E+02  0.79646769205E+01 -0.28153209171E+01  0.30206789411E+02  0.00000000000E+00 0.  1.
</event>
<event>
 7    1  0.3528441E-013  0.5930194E+02  0.7816164E-02  0.1266605E+00
        -11   -1    0    0    0    0  0.00000000000E+00  0.00000000000E+00  0.45593999997E+02  0.45594000000E+02  0.51100000000E-03 0. -1.
         11   -1    0    0    0    0 -0.00000000000E+00 -0.00000000000E+00 -0.45593999997E+02  0.45594000000E+02  0.51100000000E-03 0.  1.
    9900012    2    1    2    0    0  0.15356321754E+02 -0.54976838789E+01  0.27398538466E+02  0.59301936337E+02  0.49999985975E+02 0.  0.
        -12    1    1    2    0    0 -0.15356321754E+02  0.54976838789E+01 -0.27398538466E+02  0.31886063663E+02  0.00000000000E+00 0.  1.
         11    1    3    3    0    0 -0.13098634636E+00 -0.47291878242E+00  0.14212155917E+00  0.51088980847E+00  0.51100000000E-03 0. -1.
        -11    1    3    3    0    0 -0.37689888277E+01  0.12386589797E+02 -0.78403846211E+01  0.15136198825E+02  0.51100000000E-03 0.  1.
        -12    1    3    3    0    0  0.19256296928E+02 -0.17411354894E+02  0.35096801528E+02  0.43654847704E+02  0.00000000000E+00 0.  1.
</event>
<event>
 7    1  0.3528441E-013  0.5930194E+02  0.7816164E-02  0.1266605E+00
        -11   -1    0    0    0    0  0.00000000000E+00  0.00000000000E+00  0.45593999997E+02  0.45594000000E+02  0.51100000000E-03 0.  1.
         11   -1    0    0    0    0 -0.00000000000E+00 -0.00000000000E+00 -0.45593999997E+02  0.45594000000E+02  0.51100000000E-03 0. -1.
    9900012    2    1    2    0    0 -0.77220690394E+01 -0.89760019520E+01 -0.29606106853E+02  0.59301944673E+02  0.50000001177E+02 0.  0.
        -12    1    1    2    0    0  0.77220690394E+01  0.89760019520E+01  0.29606106853E+02  0.31886055327E+02  0.00000000000E+00 0.  1.
         11    1    3    3    0    0 -0.49337946726E+00  0.18590344426E+02 -0.99007566867E+01  0.21068206199E+02  0.51100000000E-03 0. -1.
        -11    1    3    3    0    0 -0.91998689069E+01 -0.61526761502E+01 -0.86953155635E+01  0.14074854341E+02  0.51100000000E-03 0.  1.
        -12    1    3    3    0    0  0.19711793347E+01 -0.21413670228E+02 -0.11010034603E+02  0.24158884134E+02  0.00000000000E+00 0.  1.
</event>
<event>
 7    1  0.3528441E-013  0.5930196E+02  0.7816164E-02  0.1266605E+00
        -11   -1    0    0    0    0  0.00000000000E+00  0.00000000000E+00  0.45593999997E+02  0.45594000000E+02  0.51100000000E-03 0.  1.
         11   -1    0    0    0    0 -0.00000000000E+00 -0.00000000000E+00 -0.45593999997E+02  0.45594000000E+02  0.51100000000E-03 0. -1.
    9900012    2    1    2    0    0 -0.17790040344E+02 -0.17752256215E+02 -0.19623742136E+02  0.59301962435E+02  0.50000033570E+02 0.  0.
        -12    1    1    2    0    0  0.17790040344E+02  0.17752256215E+02  0.19623742136E+02  0.31886037565E+02  0.00000000000E+00 0.  1.
         11    1    3    3    0    0  0.62452661646E+01  0.60157901640E+01  0.65176583059E+01  0.10847716387E+02  0.51100000000E-03 0. -1.
        -11    1    3    3    0    0  0.26450707024E+01  0.53594350790E-01  0.16856129570E+01  0.31369671144E+01  0.51100000000E-03 0.  1.
         12    1    3    3    0    0 -0.26680377211E+02 -0.23821640730E+02 -0.27827013399E+02  0.45317278933E+02  0.00000000000E+00 0. -1.
</event>
<event>
 7    1  0.3528441E-013  0.5930194E+02  0.7816164E-02  0.1266605E+00
        -11   -1    0    0    0    0  0.00000000000E+00  0.00000000000E+00  0.45593999997E+02  0.45594000000E+02  0.51100000000E-03 0. -1.
         11   -1    0    0    0    0 -0.00000000000E+00 -0.00000000000E+00 -0.45593999997E+02  0.45594000000E+02  0.51100000000E-03 0.  1.
    9900012    2    1    2    0    0 -0.12407582239E+02 -0.18385068846E+02  0.22907681732E+02  0.59301941356E+02  0.49999995128E+02 0.  0.
        -12    1    1    2    0    0  0.12407582239E+02  0.18385068846E+02 -0.22907681732E+02  0.31886058644E+02  0.00000000000E+00 0.  1.
         11    1    3    3    0    0  0.31821263609E+01 -0.59333642919E+01  0.23242275693E+02  0.24197812291E+02  0.51100000000E-03 0. -1.
        -11    1    3    3    0    0  0.67738176156E+01 -0.62729536276E+01 -0.62644285027E+01  0.11156953752E+02  0.51100000000E-03 0.  1.
         12    1    3    3    0    0 -0.22363526215E+02 -0.61787509269E+01  0.59298345410E+01  0.23947175313E+02  0.00000000000E+00 0. -1.
</event>
<event>
 7    1  0.3528441E-013  0.5930194E+02  0.7816164E-02  0.1266605E+00
        -11   -1    0    0    0    0  0.00000000000E+00  0.00000000000E+00  0.45593999997E+02  0.45594000000E+02  0.51100000000E-03 0.  1.
         11   -1    0    0    0    0 -0.00000000000E+00 -0.00000000000E+00 -0.45593999997E+02  0.45594000000E+02  0.51100000000E-03 0. -1.
    9900012    2    1    2    0    0  0.12341258943E+01 -0.25133250188E+02 -0.19583605464E+02  0.59301938238E+02  0.49999989440E+02 0.  0.
        -12    1    1    2    0    0 -0.12341258943E+01  0.25133250188E+02  0.19583605464E+02  0.31886061762E+02  0.00000000000E+00 0.  1.
         11    1    3    3    0    0  0.15139718001E+01 -0.82111922731E+00  0.24594533620E+01  0.30025420060E+01  0.51100000000E-03 0. -1.
        -11    1    3    3    0    0 -0.11789406309E+02  0.98343662351E+01 -0.33852195249E+01  0.15721468502E+02  0.51100000000E-03 0.  1.
         12    1    3    3    0    0  0.11509560403E+02 -0.34146497196E+02 -0.18657839301E+02  0.40577927730E+02  0.00000000000E+00 0. -1.
</event>
<event>
 7    1  0.3528441E-013  0.5930193E+02  0.7816164E-02  0.1266605E+00
        -11   -1    0    0    0    0  0.00000000000E+00  0.00000000000E+00  0.45593999997E+02  0.45594000000E+02  0.51100000000E-03 0.  1.
         11   -1    0    0    0    0 -0.00000000000E+00 -0.00000000000E+00 -0.45593999997E+02  0.45594000000E+02  0.51100000000E-03 0. -1.
    9900012    2    1    2    0    0  0.10460670625E+02  0.57213649877E+01 -0.29572993594E+02  0.59301927847E+02  0.49999970490E+02 0.  0.
        -12    1    1    2    0    0 -0.10460670625E+02 -0.57213649877E+01  0.29572993594E+02  0.31886072153E+02  0.00000000000E+00 0.  1.
         11    1    3    3    0    0  0.21830612190E+02  0.10454704140E+02 -0.36144060754E+00  0.24207583664E+02  0.51100000000E-03 0. -1.
        -11    1    3    3    0    0  0.10833607903E+01  0.66088161554E+00 -0.16341990866E+02  0.16391189732E+02  0.51100000000E-03 0.  1.
        -12    1    3    3    0    0 -0.12453302356E+02 -0.53942207678E+01 -0.12869562120E+02  0.18703154451E+02  0.00000000000E+00 0.  1.
</event>
<event>
 7    1  0.3528441E-013  0.5930194E+02  0.7816164E-02  0.1266605E+00
        -11   -1    0    0    0    0  0.00000000000E+00  0.00000000000E+00  0.45593999997E+02  0.45594000000E+02  0.51100000000E-03 0.  1.
         11   -1    0    0    0    0 -0.00000000000E+00 -0.00000000000E+00 -0.45593999997E+02  0.45594000000E+02  0.51100000000E-03 0. -1.
    9900012    2    1    2    0    0  0.23019885247E+02  0.20044772439E+02 -0.92202238726E+01  0.59301944315E+02  0.50000000524E+02 0.  0.
        -12    1    1    2    0    0 -0.23019885247E+02 -0.20044772439E+02  0.92202238726E+01  0.31886055685E+02  0.00000000000E+00 0.  1.
         11    1    3    3    0    0 -0.12067647782E+00 -0.97809576193E+01 -0.71801606259E+01  0.12134100776E+02  0.51100000000E-03 0. -1.
        -11    1    3    3    0    0  0.68476524117E+01  0.11948136775E+02  0.12790729970E+02  0.18794975110E+02  0.51100000000E-03 0.  1.
        -12    1    3    3    0    0  0.16292909313E+02  0.17877593283E+02 -0.14830793217E+02  0.28372868429E+02  0.00000000000E+00 0.  1.
</event>
<event>
 7    1  0.3528441E-013  0.5930197E+02  0.7816164E-02  0.1266605E+00
        -11   -1    0    0    0    0  0.00000000000E+00  0.00000000000E+00  0.45593999997E+02  0.45594000000E+02  0.51100000000E-03 0.  1.
         11   -1    0    0    0    0 -0.00000000000E+00 -0.00000000000E+00 -0.45593999997E+02  0.45594000000E+02  0.51100000000E-03 0. -1.
    9900012    2    1    2    0    0  0.82979437278E+01 -0.49550931299E+01 -0.30386020426E+02  0.59301967707E+02  0.50000043186E+02 0.  0.
        -12    1    1    2    0    0 -0.82979437278E+01  0.49550931299E+01  0.30386020426E+02  0.31886032293E+02  0.00000000000E+00 0.  1.
         11    1    3    3    0    0  0.23689831856E+02 -0.37489470654E+01 -0.17297216080E+02  0.29571209340E+02  0.51100000000E-03 0. -1.
        -11    1    3    3    0    0 -0.81976436344E+00 -0.82790516591E+01 -0.10388604635E+02  0.13309313149E+02  0.51100000000E-03 0.  1.
        -12    1    3    3    0    0 -0.14572123765E+02  0.70729055946E+01 -0.27001997107E+01  0.16421445218E+02  0.00000000000E+00 0.  1.
</event>
<event>
 7    1  0.3528441E-013  0.5930192E+02  0.7816164E-02  0.1266605E+00
        -11   -1    0    0    0    0  0.00000000000E+00  0.00000000000E+00  0.45593999997E+02  0.45594000000E+02  0.51100000000E-03 0. -1.
         11   -1    0    0    0    0 -0.00000000000E+00 -0.00000000000E+00 -0.45593999997E+02  0.45594000000E+02  0.51100000000E-03 0.  1.
    9900012    2    1    2    0    0 -0.23542225203E+02 -0.63337429838E+00  0.21496147171E+02  0.59301923514E+02  0.49999962587E+02 0.  0.
        -12    1    1    2    0    0  0.23542225203E+02  0.63337429838E+00 -0.21496147171E+02  0.31886076486E+02  0.00000000000E+00 0.  1.
         11    1    3    3    0    0 -0.28632986051E+02 -0.55629985231E+01  0.19877563876E+02  0.35297484169E+02  0.51100000000E-03 0. -1.
        -11    1    3    3    0    0  0.56844724208E+00  0.91135438710E+00 -0.10449702672E+02  0.10504760125E+02  0.51100000000E-03 0.  1.
         12    1    3    3    0    0  0.45223136056E+01  0.40182698376E+01  0.12068285968E+02  0.13499679220E+02  0.00000000000E+00 0. -1.
</event>
<event>
 7    1  0.3528441E-013  0.5930193E+02  0.7816164E-02  0.1266605E+00
        -11   -1    0    0    0    0  0.00000000000E+00  0.00000000000E+00  0.45593999997E+02  0.45594000000E+02  0.51100000000E-03 0.  1.
         11   -1    0    0    0    0 -0.00000000000E+00 -0.00000000000E+00 -0.45593999997E+02  0.45594000000E+02  0.51100000000E-03 0. -1.
    9900012    2    1    2    0    0 -0.27041210979E+02 -0.30624719141E+01 -0.16616723396E+02  0.59301932167E+02  0.49999978369E+02 0.  0.
        -12    1    1    2    0    0  0.27041210979E+02  0.30624719141E+01  0.16616723396E+02  0.31886067833E+02  0.00000000000E+00 0.  1.
         11    1    3    3    0    0 -0.18516445461E+02 -0.66077616076E+01 -0.17597616046E+02  0.26385552045E+02  0.51100000000E-03 0. -1.
        -11    1    3    3    0    0  0.77666729842E+01 -0.31331710019E+01 -0.93098691050E+01  0.12522445160E+02  0.51100000000E-03 0.  1.
        -12    1    3    3    0    0 -0.16291438502E+02  0.66784606955E+01  0.10290761755E+02  0.20393934962E+02  0.00000000000E+00 0.  1.
</event>
<event>
 7    1  0.3528441E-013  0.5930193E+02  0.7816164E-02  0.1266605E+00
        -11   -1    0    0    0    0  0.00000000000E+00  0.00000000000E+00  0.45593999997E+02  0.45594000000E+02  0.51100000000E-03 0. -1.
         11   -1    0    0    0    0 -0.00000000000E+00 -0.00000000000E+00 -0.45593999997E+02  0.45594000000E+02  0.51100000000E-03 0.  1.
    9900012    2    1    2    0    0  0.22662074722E+02  0.49184043417E+01  0.21885181858E+02  0.59301929108E+02  0.49999972790E+02 0.  0.
        -12    1    1    2    0    0 -0.22662074722E+02 -0.49184043417E+01 -0.21885181858E+02  0.31886070892E+02  0.00000000000E+00 0.  1.
         11    1    3    3    0    0 -0.63959299361E+01  0.70345889377E+00 -0.52261762000E+01  0.82894928733E+01  0.51100000000E-03 0. -1.
        -11    1    3    3    0    0 -0.25105410133E+01  0.79084328987E+01 -0.12788329297E+01  0.83953285234E+01  0.51100000000E-03 0.  1.
        -12    1    3    3    0    0  0.31568545671E+02 -0.36934874508E+01  0.28390190988E+02  0.42617107711E+02  0.00000000000E+00 0.  1.
</event>
<event>
 7    1  0.3528441E-013  0.5930194E+02  0.7816164E-02  0.1266605E+00
        -11   -1    0    0    0    0  0.00000000000E+00  0.00000000000E+00  0.45593999997E+02  0.45594000000E+02  0.51100000000E-03 0.  1.
         11   -1    0    0    0    0 -0.00000000000E+00 -0.00000000000E+00 -0.45593999997E+02  0.45594000000E+02  0.51100000000E-03 0. -1.
    9900012    2    1    2    0    0 -0.52115759317E+01 -0.26738377394E+02 -0.16571645177E+02  0.59301940769E+02  0.49999994058E+02 0.  0.
        -12    1    1    2    0    0  0.52115759317E+01  0.26738377394E+02  0.16571645177E+02  0.31886059231E+02  0.00000000000E+00 0.  1.
         11    1    3    3    0    0 -0.33706773588E+01 -0.22712558079E+02 -0.29661776579E+02  0.37510568516E+02  0.51100000000E-03 0. -1.
        -11    1    3    3    0    0  0.53873406601E+01 -0.74372706845E+01  0.51684394313E+01  0.10537988472E+02  0.51100000000E-03 0.  1.
        -12    1    3    3    0    0 -0.72282392330E+01  0.34114513687E+01  0.79216919704E+01  0.11253383781E+02  0.00000000000E+00 0.  1.
</event>
<event>
 7    1  0.3528441E-013  0.5930196E+02  0.7816164E-02  0.1266605E+00
        -11   -1    0    0    0    0  0.00000000000E+00  0.00000000000E+00  0.45593999997E+02  0.45594000000E+02  0.51100000000E-03 0. -1.
         11   -1    0    0    0    0 -0.00000000000E+00 -0.00000000000E+00 -0.45593999997E+02  0.45594000000E+02  0.51100000000E-03 0.  1.
    9900012    2    1    2    0    0  0.31762935071E+02 -0.49086836449E+00 -0.27558046372E+01  0.59301961437E+02  0.50000031750E+02 0.  0.
        -12    1    1    2    0    0 -0.31762935071E+02  0.49086836449E+00  0.27558046372E+01  0.31886038563E+02  0.00000000000E+00 0.  1.
         11    1    3    3    0    0  0.29774778862E+02  0.16975287310E+02 -0.40213277564E+01  0.34508968584E+02  0.51100000000E-03 0. -1.
        -11    1    3    3    0    0  0.88215551758E+00  0.35389866505E+01 -0.51532012962E+00  0.36835010475E+01  0.51100000000E-03 0.  1.
        -12    1    3    3    0    0  0.11060006913E+01 -0.21005142325E+02  0.17808432489E+01  0.21109491806E+02  0.00000000000E+00 0.  1.
</event>
<event>
 7    1  0.3528441E-013  0.5930194E+02  0.7816164E-02  0.1266605E+00
        -11   -1    0    0    0    0  0.00000000000E+00  0.00000000000E+00  0.45593999997E+02  0.45594000000E+02  0.51100000000E-03 0. -1.
         11   -1    0    0    0    0 -0.00000000000E+00 -0.00000000000E+00 -0.45593999997E+02  0.45594000000E+02  0.51100000000E-03 0.  1.
    9900012    2    1    2    0    0  0.30459102358E+00 -0.28471432423E+02  0.14352885587E+02  0.59301944041E+02  0.50000000024E+02 0.  0.
        -12    1    1    2    0    0 -0.30459102358E+00  0.28471432423E+02 -0.14352885587E+02  0.31886055959E+02  0.00000000000E+00 0.  1.
         11    1    3    3    0    0 -0.98515929911E+01  0.16418116538E+01  0.20725267089E+02  0.23006219293E+02  0.51100000000E-03 0. -1.
        -11    1    3    3    0    0  0.13854570312E+01 -0.19492362138E+02  0.28084009962E+01  0.19742309625E+02  0.51100000000E-03 0.  1.
        -12    1    3    3    0    0  0.87707269834E+01 -0.10620881939E+02 -0.91807824979E+01  0.16553415124E+02  0.00000000000E+00 0.  1.
</event>
<event>
 7    1  0.3528441E-013  0.5930194E+02  0.7816164E-02  0.1266605E+00
        -11   -1    0    0    0    0  0.00000000000E+00  0.00000000000E+00  0.45593999997E+02  0.45594000000E+02  0.51100000000E-03 0.  1.
         11   -1    0    0    0    0 -0.00000000000E+00 -0.00000000000E+00 -0.45593999997E+02  0.45594000000E+02  0.51100000000E-03 0. -1.
    9900012    2    1    2    0    0 -0.64601668845E+01 -0.19984077352E+02 -0.23992153054E+02  0.59301944867E+02  0.50000001530E+02 0.  0.
        -12    1    1    2    0    0  0.64601668845E+01  0.19984077352E+02  0.23992153054E+02  0.31886055133E+02  0.00000000000E+00 0.  1.
         11    1    3    3    0    0  0.24083157888E-01  0.11463759928E+02 -0.22787882366E+01  0.11688081442E+02  0.51100000000E-03 0.  1.
        -11    1    3    3    0    0  0.30590462332E+00  0.28148424120E+01  0.35245993404E+01  0.45210304372E+01  0.51100000000E-03 0. -1.
         12    1    3    3    0    0 -0.67901546658E+01 -0.34262679692E+02 -0.25237964158E+02  0.43092832988E+02  0.00000000000E+00 0. -1.
</event>
<event>
 7    1  0.3528441E-013  0.5930208E+02  0.7816164E-02  0.1266604E+00
        -11   -1    0    0    0    0  0.00000000000E+00  0.00000000000E+00  0.45593999997E+02  0.45594000000E+02  0.51100000000E-03 0.  1.
         11   -1    0    0    0    0 -0.00000000000E+00 -0.00000000000E+00 -0.45593999997E+02  0.45594000000E+02  0.51100000000E-03 0. -1.
    9900012    2    1    2    0    0  0.31204577950E+02  0.47162402203E+01 -0.45545037836E+01  0.59302076592E+02  0.50000241765E+02 0.  0.
        -12    1    1    2    0    0 -0.31204577950E+02 -0.47162402203E+01  0.45545037836E+01  0.31885923408E+02  0.00000000000E+00 0.  1.
         11    1    3    3    0    0  0.71737673936E+01  0.80454030538E+01  0.10537591020E+02  0.15074225475E+02  0.51100000000E-03 0. -1.
        -11    1    3    3    0    0 -0.31498249101E+01 -0.69438331775E+01  0.59441933837E+01  0.96680738208E+01  0.51100000000E-03 0.  1.
         12    1    3    3    0    0  0.27180635467E+02  0.36146703440E+01 -0.21036288187E+02  0.34559777296E+02  0.00000000000E+00 0. -1.
</event>
<event>
 7    1  0.3528441E-013  0.5930193E+02  0.7816164E-02  0.1266605E+00
        -11   -1    0    0    0    0  0.00000000000E+00  0.00000000000E+00  0.45593999997E+02  0.45594000000E+02  0.51100000000E-03 0.  1.
         11   -1    0    0    0    0 -0.00000000000E+00 -0.00000000000E+00 -0.45593999997E+02  0.45594000000E+02  0.51100000000E-03 0. -1.
    9900012    2    1    2    0    0 -0.18807520807E+02  0.24943720713E+02 -0.63882165693E+01  0.59301931681E+02  0.49999977482E+02 0.  0.
        -12    1    1    2    0    0  0.18807520807E+02 -0.24943720713E+02  0.63882165693E+01  0.31886068319E+02  0.00000000000E+00 0.  1.
         11    1    3    3    0    0 -0.22395486254E+02  0.20414408880E+02 -0.55337625892E+01  0.30804681838E+02  0.51100000000E-03 0. -1.
        -11    1    3    3    0    0 -0.49464540321E+01 -0.30830185179E+01 -0.11487573936E+02  0.12881644533E+02  0.51100000000E-03 0.  1.
        -12    1    3    3    0    0  0.85344194786E+01  0.76123303508E+01  0.10633119956E+02  0.15615605310E+02  0.00000000000E+00 0.  1.
</event>
<event>
 7    1  0.3528441E-013  0.5930196E+02  0.7816164E-02  0.1266605E+00
        -11   -1    0    0    0    0  0.00000000000E+00  0.00000000000E+00  0.45593999997E+02  0.45594000000E+02  0.51100000000E-03 0. -1.
         11   -1    0    0    0    0 -0.00000000000E+00 -0.00000000000E+00 -0.45593999997E+02  0.45594000000E+02  0.51100000000E-03 0.  1.
    9900012    2    1    2    0    0  0.74488754673E+01 -0.20337622866E+02  0.23401171608E+02  0.59301961014E+02  0.50000030979E+02 0.  0.
        -12    1    1    2    0    0 -0.74488754673E+01  0.20337622866E+02 -0.23401171608E+02  0.31886038986E+02  0.00000000000E+00 0.  1.
         11    1    3    3    0    0  0.21203242596E+01 -0.28465147904E+02  0.24644267543E+02  0.37710745725E+02  0.51100000000E-03 0. -1.
        -11    1    3    3    0    0  0.63870017148E+01  0.76095642808E+01  0.77008978681E+01  0.12569927911E+02  0.51100000000E-03 0.  1.
        -12    1    3    3    0    0 -0.10584505071E+01  0.51796075679E+00 -0.89439938026E+01  0.90212873784E+01  0.00000000000E+00 0.  1.
</event>
<event>
 7    1  0.3528441E-013  0.5930189E+02  0.7816164E-02  0.1266605E+00
        -11   -1    0    0    0    0  0.00000000000E+00  0.00000000000E+00  0.45593999997E+02  0.45594000000E+02  0.51100000000E-03 0. -1.
         11   -1    0    0    0    0 -0.00000000000E+00 -0.00000000000E+00 -0.45593999997E+02  0.45594000000E+02  0.51100000000E-03 0.  1.
    9900012    2    1    2    0    0  0.72787302717E+01 -0.22738530604E+02  0.21135350184E+02  0.59301894628E+02  0.49999909906E+02 0.  0.
        -12    1    1    2    0    0 -0.72787302717E+01  0.22738530604E+02 -0.21135350184E+02  0.31886105372E+02  0.00000000000E+00 0.  1.
         11    1    3    3    0    0  0.15696521404E+02 -0.57169126678E+01  0.13593450730E+02  0.21537079134E+02  0.51100000000E-03 0. -1.
        -11    1    3    3    0    0  0.38371911523E+01 -0.18666627373E+02 -0.54584397643E+01  0.19823258519E+02  0.51100000000E-03 0.  1.
         12    1    3    3    0    0 -0.12254982285E+02  0.16450094360E+01  0.13000339219E+02  0.17941556974E+02  0.00000000000E+00 0. -1.
</event>
<event>
 7    1  0.3528441E-013  0.5930193E+02  0.7816164E-02  0.1266605E+00
        -11   -1    0    0    0    0  0.00000000000E+00  0.00000000000E+00  0.45593999997E+02  0.45594000000E+02  0.51100000000E-03 0. -1.
         11   -1    0    0    0    0 -0.00000000000E+00 -0.00000000000E+00 -0.45593999997E+02  0.45594000000E+02  0.51100000000E-03 0.  1.
    9900012    2    1    2    0    0 -0.25825426586E+02 -0.99653821236E+01  0.15825933253E+02  0.59301926825E+02  0.49999968626E+02 0.  0.
        -12    1    1    2    0    0  0.25825426586E+02  0.99653821236E+01 -0.15825933253E+02  0.31886073175E+02  0.00000000000E+00 0.  1.
         11    1    3    3    0    0 -0.15345987005E+02  0.13232829305E+02  0.62524046481E+01  0.21206123000E+02  0.51100000000E-03 0. -1.
        -11    1    3    3    0    0  0.73175719847E+01 -0.17698030968E+01  0.67260320201E+01  0.10095472735E+02  0.51100000000E-03 0.  1.
         12    1    3    3    0    0 -0.17797011566E+02 -0.21428408332E+02  0.28474965852E+01  0.28000331089E+02  0.00000000000E+00 0. -1.
</event>
<event>
 7    1  0.3528441E-013  0.5930180E+02  0.7816164E-02  0.1266605E+00
        -11   -1    0    0    0    0  0.00000000000E+00  0.00000000000E+00  0.45593999997E+02  0.45594000000E+02  0.51100000000E-03 0. -1.
         11   -1    0    0    0    0 -0.00000000000E+00 -0.00000000000E+00 -0.45593999997E+02  0.45594000000E+02  0.51100000000E-03 0.  1.
    9900012    2    1    2    0    0 -0.15351721379E+02  0.11687610010E+02  0.25386104716E+02  0.59301797816E+02  0.49999733344E+02 0.  0.
        -12    1    1    2    0    0  0.15351721379E+02 -0.11687610010E+02 -0.25386104716E+02  0.31886202184E+02  0.00000000000E+00 0.  1.
         11    1    3    3    0    0  0.70933583005E+01 -0.59274793233E+01  0.10612133921E+02  0.14073667956E+02  0.51100000000E-03 0. -1.
        -11    1    3    3    0    0 -0.10974180242E+02 -0.66637186505E+01 -0.27942050264E+01  0.13139458141E+02  0.51100000000E-03 0.  1.
        -12    1    3    3    0    0 -0.11470899438E+02  0.24278807984E+02  0.17568175822E+02  0.32088671720E+02  0.00000000000E+00 0.  1.
</event>
<event>
 7    1  0.3528441E-013  0.5930194E+02  0.7816164E-02  0.1266605E+00
        -11   -1    0    0    0    0  0.00000000000E+00  0.00000000000E+00  0.45593999997E+02  0.45594000000E+02  0.51100000000E-03 0. -1.
         11   -1    0    0    0    0 -0.00000000000E+00 -0.00000000000E+00 -0.45593999997E+02  0.45594000000E+02  0.51100000000E-03 0.  1.
    9900012    2    1    2    0    0 -0.19734197599E+02 -0.29080546193E+01  0.24876203606E+02  0.59301939685E+02  0.49999992081E+02 0.  0.
        -12    1    1    2    0    0  0.19734197599E+02  0.29080546193E+01 -0.24876203606E+02  0.31886060315E+02  0.00000000000E+00 0.  1.
         11    1    3    3    0    0 -0.79709284962E+01 -0.13516841282E+02  0.13624873638E+02  0.20781671763E+02  0.51100000000E-03 0. -1.
        -11    1    3    3    0    0 -0.12085195698E+02 -0.89068938409E+01  0.11642166446E+02  0.18998019707E+02  0.51100000000E-03 0.  1.
        -12    1    3    3    0    0  0.32192659519E+00  0.19515680504E+02 -0.39083647793E+00  0.19522248216E+02  0.00000000000E+00 0.  1.
</event>
<event>
 7    1  0.3528441E-013  0.5930195E+02  0.7816164E-02  0.1266605E+00
        -11   -1    0    0    0    0  0.00000000000E+00  0.00000000000E+00  0.45593999997E+02  0.45594000000E+02  0.51100000000E-03 0.  1.
         11   -1    0    0    0    0 -0.00000000000E+00 -0.00000000000E+00 -0.45593999997E+02  0.45594000000E+02  0.51100000000E-03 0. -1.
    9900012    2    1    2    0    0 -0.12363966798E+02 -0.27546746719E+02 -0.10248386326E+02  0.59301947375E+02  0.50000006104E+02 0.  0.
        -12    1    1    2    0    0  0.12363966798E+02  0.27546746719E+02  0.10248386326E+02  0.31886052625E+02  0.00000000000E+00 0.  1.
         11    1    3    3    0    0  0.27830796583E+01 -0.10005962655E+02 -0.11402942954E+02  0.15423745632E+02  0.51100000000E-03 0. -1.
        -11    1    3    3    0    0 -0.66774116433E+01  0.21788634928E+01  0.16207396802E+02  0.17663945871E+02  0.51100000000E-03 0.  1.
         12    1    3    3    0    0 -0.84696348127E+01 -0.19719647557E+02 -0.15052840174E+02  0.26214255872E+02  0.00000000000E+00 0. -1.
</event>
<event>
 7    1  0.3528441E-013  0.5930192E+02  0.7816164E-02  0.1266605E+00
        -11   -1    0    0    0    0  0.00000000000E+00  0.00000000000E+00  0.45593999997E+02  0.45594000000E+02  0.51100000000E-03 0. -1.
         11   -1    0    0    0    0 -0.00000000000E+00 -0.00000000000E+00 -0.45593999997E+02  0.45594000000E+02  0.51100000000E-03 0.  1.
    9900012    2    1    2    0    0 -0.20450631278E+02  0.16663646348E+02  0.17911356871E+02  0.59301919428E+02  0.49999955137E+02 0.  0.
        -12    1    1    2    0    0  0.20450631278E+02 -0.16663646348E+02 -0.17911356871E+02  0.31886080572E+02  0.00000000000E+00 0.  1.
         11    1    3    3    0    0 -0.40599733546E+01 -0.33015802136E+01 -0.22537142933E+01  0.56976349412E+01  0.51100000000E-03 0. -1.
        -11    1    3    3    0    0 -0.32209078110E+01  0.24307264722E+02 -0.48574145822E+01  0.24996236558E+02  0.51100000000E-03 0.  1.
         12    1    3    3    0    0 -0.13169750112E+02 -0.43420381600E+01  0.25022485746E+02  0.28608047929E+02  0.00000000000E+00 0. -1.
</event>
<event>
 7    1  0.3528441E-013  0.5930196E+02  0.7816164E-02  0.1266605E+00
        -11   -1    0    0    0    0  0.00000000000E+00  0.00000000000E+00  0.45593999997E+02  0.45594000000E+02  0.51100000000E-03 0.  1.
         11   -1    0    0    0    0 -0.00000000000E+00 -0.00000000000E+00 -0.45593999997E+02  0.45594000000E+02  0.51100000000E-03 0. -1.
    9900012    2    1    2    0    0  0.21164523230E+02  0.23191124579E+02 -0.55636406521E+01  0.59301962302E+02  0.50000033327E+02 0.  0.
        -12    1    1    2    0    0 -0.21164523230E+02 -0.23191124579E+02  0.55636406521E+01  0.31886037698E+02  0.00000000000E+00 0.  1.
         11    1    3    3    0    0  0.82338277740E+01  0.25179426998E+02 -0.72713214358E+01  0.27471286454E+02  0.51100000000E-03 0. -1.
        -11    1    3    3    0    0 -0.92900991558E+01 -0.19941367207E+01  0.14258057073E+01  0.96080927224E+01  0.51100000000E-03 0.  1.
        -12    1    3    3    0    0  0.22220794611E+02  0.58343021615E-02  0.28187507645E+00  0.22222583125E+02  0.00000000000E+00 0.  1.
</event>
<event>
 7    1  0.3528441E-013  0.5930193E+02  0.7816164E-02  0.1266605E+00
        -11   -1    0    0    0    0  0.00000000000E+00  0.00000000000E+00  0.45593999997E+02  0.45594000000E+02  0.51100000000E-03 0.  1.
         11   -1    0    0    0    0 -0.00000000000E+00 -0.00000000000E+00 -0.45593999997E+02  0.45594000000E+02  0.51100000000E-03 0. -1.
    9900012    2    1    2    0    0 -0.90122663491E+00 -0.61181554547E+01 -0.31280619991E+02  0.59301933723E+02  0.49999981206E+02 0.  0.
        -12    1    1    2    0    0  0.90122663491E+00  0.61181554547E+01  0.31280619991E+02  0.31886066277E+02  0.00000000000E+00 0.  1.
         11    1    3    3    0    0 -0.28638546748E+01 -0.10290894236E+02 -0.20328377516E+02  0.22964039289E+02  0.51100000000E-03 0. -1.
        -11    1    3    3    0    0 -0.11176671577E+02 -0.94809552833E+01 -0.42813460712E+00  0.14662530482E+02  0.51100000000E-03 0.  1.
         12    1    3    3    0    0  0.13139299617E+02  0.13653694065E+02 -0.10524107869E+02  0.21675363952E+02  0.00000000000E+00 0. -1.
</event>
<event>
 7    1  0.3528441E-013  0.5930202E+02  0.7816164E-02  0.1266604E+00
        -11   -1    0    0    0    0  0.00000000000E+00  0.00000000000E+00  0.45593999997E+02  0.45594000000E+02  0.51100000000E-03 0. -1.
         11   -1    0    0    0    0 -0.00000000000E+00 -0.00000000000E+00 -0.45593999997E+02  0.45594000000E+02  0.51100000000E-03 0.  1.
    9900012    2    1    2    0    0 -0.12411239041E+02  0.41501141538E+01  0.29076678301E+02  0.59302023098E+02  0.50000144204E+02 0.  0.
        -12    1    1    2    0    0  0.12411239041E+02 -0.41501141538E+01 -0.29076678301E+02  0.31885976902E+02  0.00000000000E+00 0.  1.
         11    1    3    3    0    0 -0.96375657662E+01 -0.73340665747E+01  0.30426041003E+02  0.32747750729E+02  0.51100000000E-03 0. -1.
        -11    1    3    3    0    0  0.60152626956E+01 -0.48452488770E+01 -0.20676709254E+01  0.79959418015E+01  0.51100000000E-03 0.  1.
         12    1    3    3    0    0 -0.87889359707E+01  0.16329429605E+02  0.71830822298E+00  0.18558330567E+02  0.00000000000E+00 0. -1.
</event>
<event>
 7    1  0.3528441E-013  0.5930201E+02  0.7816164E-02  0.1266605E+00
        -11   -1    0    0    0    0  0.00000000000E+00  0.00000000000E+00  0.45593999997E+02  0.45594000000E+02  0.51100000000E-03 0.  1.
         11   -1    0    0    0    0 -0.00000000000E+00 -0.00000000000E+00 -0.45593999997E+02  0.45594000000E+02  0.51100000000E-03 0. -1.
    9900012    2    1    2    0    0 -0.49968779766E+01 -0.13293050727E+02 -0.28548950816E+02  0.59302006526E+02  0.50000113982E+02 0.  0.
        -12    1    1    2    0    0  0.49968779766E+01  0.13293050727E+02  0.28548950816E+02  0.31885993474E+02  0.00000000000E+00 0.  1.
         11    1    3    3    0    0 -0.95668617245E+01  0.75767253138E+01 -0.82551106852E+01  0.14733582810E+02  0.51100000000E-03 0.  1.
        -11    1    3    3    0    0  0.81361161089E+01 -0.26110103629E+02 -0.47182001698E+01  0.27752392869E+02  0.51100000000E-03 0. -1.
         12    1    3    3    0    0 -0.35661323610E+01  0.52403275887E+01 -0.15575639961E+02  0.16816030847E+02  0.00000000000E+00 0. -1.
</event>
<event>
 7    1  0.3528441E-013  0.5930196E+02  0.7816164E-02  0.1266605E+00
        -11   -1    0    0    0    0  0.00000000000E+00  0.00000000000E+00  0.45593999997E+02  0.45594000000E+02  0.51100000000E-03 0.  1.
         11   -1    0    0    0    0 -0.00000000000E+00 -0.00000000000E+00 -0.45593999997E+02  0.45594000000E+02  0.51100000000E-03 0. -1.
    9900012    2    1    2    0    0  0.31854322236E+02  0.81708627266E+00  0.11637333141E+01  0.59301956810E+02  0.50000023312E+02 0.  0.
        -12    1    1    2    0    0 -0.31854322236E+02 -0.81708627266E+00 -0.11637333141E+01  0.31886043190E+02  0.00000000000E+00 0.  1.
         11    1    3    3    0    0  0.42894946877E+01 -0.27795196505E+00  0.64431250109E+01  0.77453781146E+01  0.51100000000E-03 0. -1.
        -11    1    3    3    0    0  0.84621503465E+01 -0.11900288357E+02  0.14913549729E+02  0.20871962468E+02  0.51100000000E-03 0.  1.
         12    1    3    3    0    0  0.19102677202E+02  0.12995326595E+02 -0.20192941426E+02  0.30684616227E+02  0.00000000000E+00 0. -1.
</event>
<event>
 7    1  0.3528441E-013  0.5930194E+02  0.7816164E-02  0.1266605E+00
        -11   -1    0    0    0    0  0.00000000000E+00  0.00000000000E+00  0.45593999997E+02  0.45594000000E+02  0.51100000000E-03 0.  1.
         11   -1    0    0    0    0 -0.00000000000E+00 -0.00000000000E+00 -0.45593999997E+02  0.45594000000E+02  0.51100000000E-03 0. -1.
    9900012    2    1    2    0    0  0.14771181699E+00  0.31298488834E+02  0.60912794423E+01  0.59301938667E+02  0.49999990224E+02 0.  0.
        -12    1    1    2    0    0 -0.14771181699E+00 -0.31298488834E+02 -0.60912794423E+01  0.31886061333E+02  0.00000000000E+00 0.  1.
         11    1    3    3    0    0  0.15894271565E+00  0.42305348568E+02 -0.27016806648E+01  0.42391825379E+02  0.51100000000E-03 0.  1.
        -11    1    3    3    0    0 -0.41528794255E+01 -0.22959892153E+01  0.35950171114E+01  0.59533286733E+01  0.51100000000E-03 0. -1.
        -12    1    3    3    0    0  0.41416485268E+01 -0.87108705189E+01  0.51979429956E+01  0.10956784615E+02  0.00000000000E+00 0.  1.
</event>
<event>
 7    1  0.3528441E-013  0.5930199E+02  0.7816164E-02  0.1266605E+00
        -11   -1    0    0    0    0  0.00000000000E+00  0.00000000000E+00  0.45593999997E+02  0.45594000000E+02  0.51100000000E-03 0.  1.
         11   -1    0    0    0    0 -0.00000000000E+00 -0.00000000000E+00 -0.45593999997E+02  0.45594000000E+02  0.51100000000E-03 0. -1.
    9900012    2    1    2    0    0  0.13905198599E+02  0.22747334874E+02  0.17490624259E+02  0.59301988507E+02  0.50000081120E+02 0.  0.
        -12    1    1    2    0    0 -0.13905198599E+02 -0.22747334874E+02 -0.17490624259E+02  0.31886011493E+02  0.00000000000E+00 0.  1.
         11    1    3    3    0    0 -0.94185268653E+01 -0.57516506205E+01  0.14407097478E+02  0.18148129137E+02  0.51100000000E-03 0. -1.
        -11    1    3    3    0    0  0.62863308981E+01  0.41562247754E+01  0.80522100263E+01  0.11028610389E+02  0.51100000000E-03 0.  1.
         12    1    3    3    0    0  0.17037394566E+02  0.24342760719E+02 -0.49686832447E+01  0.30125248981E+02  0.00000000000E+00 0. -1.
</event>
<event>
 7    1  0.3528441E-013  0.5930194E+02  0.7816164E-02  0.1266605E+00
        -11   -1    0    0    0    0  0.00000000000E+00  0.00000000000E+00  0.45593999997E+02  0.45594000000E+02  0.51100000000E-03 0.  1.
         11   -1    0    0    0    0 -0.00000000000E+00 -0.00000000000E+00 -0.45593999997E+02  0.45594000000E+02  0.51100000000E-03 0. -1.
    9900012    2    1    2    0    0 -0.20675272389E+02  0.20735332538E+02 -0.12621397460E+02  0.59301943837E+02  0.49999999652E+02 0.  0.
        -12    1    1    2    0    0  0.20675272389E+02 -0.20735332538E+02  0.12621397460E+02  0.31886056163E+02  0.00000000000E+00 0.  1.
         11    1    3    3    0    0 -0.75899059831E+01  0.35494328084E+01 -0.11291651772E+02  0.14060815982E+02  0.51100000000E-03 0. -1.
        -11    1    3    3    0    0 -0.15550264529E+02 -0.94183985147E+01  0.21108962843E+01  0.18302263272E+02  0.51100000000E-03 0.  1.
        -12    1    3    3    0    0  0.24648981233E+01  0.26604298244E+02 -0.34406419728E+01  0.26938864583E+02  0.00000000000E+00 0.  1.
</event>
<event>
 7    1  0.3528441E-013  0.5930190E+02  0.7816164E-02  0.1266605E+00
        -11   -1    0    0    0    0  0.00000000000E+00  0.00000000000E+00  0.45593999997E+02  0.45594000000E+02  0.51100000000E-03 0. -1.
         11   -1    0    0    0    0 -0.00000000000E+00 -0.00000000000E+00 -0.45593999997E+02  0.45594000000E+02  0.51100000000E-03 0.  1.
    9900012    2    1    2    0    0 -0.22450436816E+02  0.16524830196E+01  0.22582533548E+02  0.59301895898E+02  0.49999912223E+02 0.  0.
        -12    1    1    2    0    0  0.22450436816E+02 -0.16524830196E+01 -0.22582533548E+02  0.31886104102E+02  0.00000000000E+00 0.  1.
         11    1    3    3    0    0 -0.21896970481E+02  0.23178259051E+01  0.13238634070E+01  0.22059062713E+02  0.51100000000E-03 0. -1.
        -11    1    3    3    0    0  0.39315145504E+01 -0.12660149105E+02  0.10235525861E+01  0.13296008506E+02  0.51100000000E-03 0.  1.
         12    1    3    3    0    0 -0.44849808850E+01  0.11994806220E+02  0.20235117555E+02  0.23946824680E+02  0.00000000000E+00 0. -1.
</event>
<event>
 7    1  0.3528441E-013  0.5930193E+02  0.7816164E-02  0.1266605E+00
        -11   -1    0    0    0    0  0.00000000000E+00  0.00000000000E+00  0.45593999997E+02  0.45594000000E+02  0.51100000000E-03 0.  1.
         11   -1    0    0    0    0 -0.00000000000E+00 -0.00000000000E+00 -0.45593999997E+02  0.45594000000E+02  0.51100000000E-03 0. -1.
    9900012    2    1    2    0    0  0.70529601959E+01  0.75951334043E+01 -0.30154450585E+02  0.59301934249E+02  0.49999982167E+02 0.  0.
        -12    1    1    2    0    0 -0.70529601959E+01 -0.75951334043E+01  0.30154450585E+02  0.31886065751E+02  0.00000000000E+00 0.  1.
         11    1    3    3    0    0  0.59543778722E+00  0.18751523162E+02 -0.27779587270E+01  0.18965527201E+02  0.51100000000E-03 0. -1.
        -11    1    3    3    0    0 -0.40489304134E+01  0.39112129387E+01  0.17553706079E+01  0.58968424073E+01  0.51100000000E-03 0.  1.
         12    1    3    3    0    0  0.10506452822E+02 -0.15067602697E+02 -0.29131862466E+02  0.34439564641E+02  0.00000000000E+00 0. -1.
</event>
<event>
 7    1  0.3528441E-013  0.5930192E+02  0.7816164E-02  0.1266605E+00
        -11   -1    0    0    0    0  0.00000000000E+00  0.00000000000E+00  0.45593999997E+02  0.45594000000E+02  0.51100000000E-03 0. -1.
         11   -1    0    0    0    0 -0.00000000000E+00 -0.00000000000E+00 -0.45593999997E+02  0.45594000000E+02  0.51100000000E-03 0.  1.
    9900012    2    1    2    0    0 -0.24493352075E+02 -0.24581887967E+01  0.20267094158E+02  0.59301920064E+02  0.49999956296E+02 0.  0.
        -12    1    1    2    0    0  0.24493352075E+02  0.24581887967E+01 -0.20267094158E+02  0.31886079936E+02  0.00000000000E+00 0.  1.
         11    1    3    3    0    0 -0.18561947827E+02  0.43576640006E+01  0.11408045622E+02  0.22218880437E+02  0.51100000000E-03 0. -1.
        -11    1    3    3    0    0 -0.68675232477E+01 -0.18723178210E+02  0.13699979828E+02  0.24195241792E+02  0.51100000000E-03 0.  1.
        -12    1    3    3    0    0  0.93611899960E+00  0.11907325413E+02 -0.48409312913E+01  0.12887797835E+02  0.00000000000E+00 0.  1.
</event>
<event>
 7    1  0.3528441E-013  0.5930192E+02  0.7816164E-02  0.1266605E+00
        -11   -1    0    0    0    0  0.00000000000E+00  0.00000000000E+00  0.45593999997E+02  0.45594000000E+02  0.51100000000E-03 0. -1.
         11   -1    0    0    0    0 -0.00000000000E+00 -0.00000000000E+00 -0.45593999997E+02  0.45594000000E+02  0.51100000000E-03 0.  1.
    9900012    2    1    2    0    0  0.80450892089E+01  0.25157913293E+02  0.17862759960E+02  0.59301917534E+02  0.49999951682E+02 0.  0.
        -12    1    1    2    0    0 -0.80450892089E+01 -0.25157913293E+02 -0.17862759960E+02  0.31886082466E+02  0.00000000000E+00 0.  1.
         11    1    3    3    0    0 -0.49898189770E+01 -0.11425280317E+01  0.24436680115E+01  0.56723167523E+01  0.51100000000E-03 0. -1.
        -11    1    3    3    0    0  0.23753339643E+02  0.20475275460E+01  0.20370414254E+01  0.23928289769E+02  0.51100000000E-03 0.  1.
         12    1    3    3    0    0 -0.10718431457E+02  0.24252913779E+02  0.13382050523E+02  0.29701311012E+02  0.00000000000E+00 0. -1.
</event>
<event>
 7    1  0.3528441E-013  0.5930186E+02  0.7816164E-02  0.1266605E+00
        -11   -1    0    0    0    0  0.00000000000E+00  0.00000000000E+00  0.45593999997E+02  0.45594000000E+02  0.51100000000E-03 0. -1.
         11   -1    0    0    0    0 -0.00000000000E+00 -0.00000000000E+00 -0.45593999997E+02  0.45594000000E+02  0.51100000000E-03 0.  1.
    9900012    2    1    2    0    0  0.18508481789E+02 -0.12511444910E+02 -0.22751393235E+02  0.59301858088E+02  0.49999843267E+02 0.  0.
        -12    1    1    2    0    0 -0.18508481789E+02  0.12511444910E+02  0.22751393235E+02  0.31886141912E+02  0.00000000000E+00 0.  1.
         11    1    3    3    0    0 -0.67053209090E+00  0.98325580908E+00 -0.24575214557E+01  0.27305342403E+01  0.51100000000E-03 0. -1.
        -11    1    3    3    0    0  0.53261361649E+01 -0.10361379152E+02 -0.34541817121E+02  0.36453573688E+02  0.51100000000E-03 0.  1.
         12    1    3    3    0    0  0.13852877715E+02 -0.31333215669E+01  0.14247945342E+02  0.20117750160E+02  0.00000000000E+00 0. -1.
</event>
<event>
 7    1  0.3528441E-013  0.5930190E+02  0.7816164E-02  0.1266605E+00
        -11   -1    0    0    0    0  0.00000000000E+00  0.00000000000E+00  0.45593999997E+02  0.45594000000E+02  0.51100000000E-03 0. -1.
         11   -1    0    0    0    0 -0.00000000000E+00 -0.00000000000E+00 -0.45593999997E+02  0.45594000000E+02  0.51100000000E-03 0.  1.
    9900012    2    1    2    0    0 -0.24089401146E+02  0.63559178929E+01  0.19900417059E+02  0.59301897401E+02  0.49999914963E+02 0.  0.
        -12    1    1    2    0    0  0.24089401146E+02 -0.63559178929E+01 -0.19900417059E+02  0.31886102599E+02  0.00000000000E+00 0.  1.
         11    1    3    3    0    0  0.55470454562E+00  0.83267562795E+00  0.23504062060E+02  0.23525347594E+02  0.51100000000E-03 0. -1.
        -11    1    3    3    0    0  0.30723650500E+01  0.34481856301E+01 -0.63447976027E+01  0.78476664060E+01  0.51100000000E-03 0.  1.
        -12    1    3    3    0    0 -0.27716470742E+02  0.20750566349E+01  0.27411526019E+01  0.27928883401E+02  0.00000000000E+00 0.  1.
</event>
<event>
 7    1  0.3528441E-013  0.5930193E+02  0.7816164E-02  0.1266605E+00
        -11   -1    0    0    0    0  0.00000000000E+00  0.00000000000E+00  0.45593999997E+02  0.45594000000E+02  0.51100000000E-03 0. -1.
         11   -1    0    0    0    0 -0.00000000000E+00 -0.00000000000E+00 -0.45593999997E+02  0.45594000000E+02  0.51100000000E-03 0.  1.
    9900012    2    1    2    0    0 -0.24333900819E+01  0.26450432848E+02  0.17640143618E+02  0.59301930126E+02  0.49999974646E+02 0.  0.
        -12    1    1    2    0    0  0.24333900819E+01 -0.26450432848E+02 -0.17640143618E+02  0.31886069874E+02  0.00000000000E+00 0.  1.
         11    1    3    3    0    0 -0.12990700255E+02  0.11841020150E+01  0.13784753401E+02  0.18978403971E+02  0.51100000000E-03 0. -1.
        -11    1    3    3    0    0  0.13363619759E+02  0.20599287189E+01  0.91876959730E+01  0.16347580767E+02  0.51100000000E-03 0.  1.
         12    1    3    3    0    0 -0.28063095857E+01  0.23206402114E+02 -0.53323057560E+01  0.23975945388E+02  0.00000000000E+00 0. -1.
</event>
<event>
 7    1  0.3528441E-013  0.5930194E+02  0.7816164E-02  0.1266605E+00
        -11   -1    0    0    0    0  0.00000000000E+00  0.00000000000E+00  0.45593999997E+02  0.45594000000E+02  0.51100000000E-03 0.  1.
         11   -1    0    0    0    0 -0.00000000000E+00 -0.00000000000E+00 -0.45593999997E+02  0.45594000000E+02  0.51100000000E-03 0. -1.
    9900012    2    1    2    0    0 -0.14614921218E+02  0.13882307832E+02 -0.24706407444E+02  0.59301937814E+02  0.49999988668E+02 0.  0.
        -12    1    1    2    0    0  0.14614921218E+02 -0.13882307832E+02  0.24706407444E+02  0.31886062186E+02  0.00000000000E+00 0.  1.
         11    1    3    3    0    0 -0.14710506522E+02 -0.30201565018E+01  0.10264798171E+02  0.18190283922E+02  0.51100000000E-03 0. -1.
        -11    1    3    3    0    0 -0.66476281033E+01  0.81338266552E+01 -0.18404896031E+02  0.21191750604E+02  0.51100000000E-03 0.  1.
        -12    1    3    3    0    0  0.67432134073E+01  0.87686376783E+01 -0.16566309584E+02  0.19919903288E+02  0.00000000000E+00 0.  1.
</event>
<event>
 7    1  0.3528441E-013  0.5930194E+02  0.7816164E-02  0.1266605E+00
        -11   -1    0    0    0    0  0.00000000000E+00  0.00000000000E+00  0.45593999997E+02  0.45594000000E+02  0.51100000000E-03 0.  1.
         11   -1    0    0    0    0 -0.00000000000E+00 -0.00000000000E+00 -0.45593999997E+02  0.45594000000E+02  0.51100000000E-03 0. -1.
    9900012    2    1    2    0    0  0.57180318933E+01 -0.12659080187E+02 -0.28701440337E+02  0.59301939137E+02  0.49999991081E+02 0.  0.
        -12    1    1    2    0    0 -0.57180318933E+01  0.12659080187E+02  0.28701440337E+02  0.31886060863E+02  0.00000000000E+00 0.  1.
         11    1    3    3    0    0  0.67517841314E+01 -0.23122833956E+01  0.55813703225E+01  0.90600738626E+01  0.51100000000E-03 0. -1.
        -11    1    3    3    0    0 -0.16052522281E+02 -0.12350017954E+02 -0.12821039024E+02  0.23970512238E+02  0.51100000000E-03 0.  1.
         12    1    3    3    0    0  0.15018770043E+02  0.20032211622E+01 -0.21461771636E+02  0.26271353037E+02  0.00000000000E+00 0. -1.
</event>
<event>
 7    1  0.3528441E-013  0.5930194E+02  0.7816164E-02  0.1266605E+00
        -11   -1    0    0    0    0  0.00000000000E+00  0.00000000000E+00  0.45593999997E+02  0.45594000000E+02  0.51100000000E-03 0. -1.
         11   -1    0    0    0    0 -0.00000000000E+00 -0.00000000000E+00 -0.45593999997E+02  0.45594000000E+02  0.51100000000E-03 0.  1.
    9900012    2    1    2    0    0  0.10794642868E+01  0.35696980576E+01  0.31667221302E+02  0.59301938901E+02  0.49999990651E+02 0.  0.
        -12    1    1    2    0    0 -0.10794642868E+01 -0.35696980576E+01 -0.31667221302E+02  0.31886061099E+02  0.00000000000E+00 0.  1.
         11    1    3    3    0    0  0.12367686855E+02 -0.38631500510E+01  0.23739934781E+02  0.27045667123E+02  0.51100000000E-03 0. -1.
        -11    1    3    3    0    0 -0.87736335794E+01  0.36557522954E+01  0.18473534505E+02  0.20775289369E+02  0.51100000000E-03 0.  1.
        -12    1    3    3    0    0 -0.25145889886E+01  0.37770958133E+01 -0.10546247983E+02  0.11480982409E+02  0.00000000000E+00 0.  1.
</event>
<event>
 7    1  0.3528441E-013  0.5930196E+02  0.7816164E-02  0.1266605E+00
        -11   -1    0    0    0    0  0.00000000000E+00  0.00000000000E+00  0.45593999997E+02  0.45594000000E+02  0.51100000000E-03 0. -1.
         11   -1    0    0    0    0 -0.00000000000E+00 -0.00000000000E+00 -0.45593999997E+02  0.45594000000E+02  0.51100000000E-03 0.  1.
    9900012    2    1    2    0    0 -0.23336428224E+02 -0.12419806040E+02  0.17829167920E+02  0.59301957707E+02  0.50000024948E+02 0.  0.
        -12    1    1    2    0    0  0.23336428224E+02  0.12419806040E+02 -0.17829167920E+02  0.31886042293E+02  0.00000000000E+00 0.  1.
         11    1    3    3    0    0 -0.18353632877E+02 -0.61498031640E+01 -0.20360761474E+01  0.19463337974E+02  0.51100000000E-03 0. -1.
        -11    1    3    3    0    0 -0.89564609881E+01  0.91482885554E+01 -0.18245829152E+01  0.12932071760E+02  0.51100000000E-03 0.  1.
         12    1    3    3    0    0  0.39736656411E+01 -0.15418291432E+02  0.21689826983E+02  0.26906547974E+02  0.00000000000E+00 0. -1.
</event>
<event>
 7    1  0.3528441E-013  0.5930193E+02  0.7816164E-02  0.1266605E+00
        -11   -1    0    0    0    0  0.00000000000E+00  0.00000000000E+00  0.45593999997E+02  0.45594000000E+02  0.51100000000E-03 0.  1.
         11   -1    0    0    0    0 -0.00000000000E+00 -0.00000000000E+00 -0.45593999997E+02  0.45594000000E+02  0.51100000000E-03 0. -1.
    9900012    2    1    2    0    0  0.83071471147E+01 -0.11364229343E+02 -0.28610606122E+02  0.59301934322E+02  0.49999982299E+02 0.  0.
        -12    1    1    2    0    0 -0.83071471147E+01  0.11364229343E+02  0.28610606122E+02  0.31886065678E+02  0.00000000000E+00 0.  1.
         11    1    3    3    0    0  0.10444981182E+02 -0.78125914937E+01 -0.32949037113E+02  0.35436891296E+02  0.51100000000E-03 0. -1.
        -11    1    3    3    0    0  0.49325129528E+00  0.56611163459E+01 -0.70028688254E+01  0.90184093480E+01  0.51100000000E-03 0.  1.
         12    1    3    3    0    0 -0.26310853630E+01 -0.92127541952E+01  0.11341299817E+02  0.14846633678E+02  0.00000000000E+00 0. -1.
</event>
<event>
 7    1  0.3528441E-013  0.5930195E+02  0.7816164E-02  0.1266605E+00
        -11   -1    0    0    0    0  0.00000000000E+00  0.00000000000E+00  0.45593999997E+02  0.45594000000E+02  0.51100000000E-03 0.  1.
         11   -1    0    0    0    0 -0.00000000000E+00 -0.00000000000E+00 -0.45593999997E+02  0.45594000000E+02  0.51100000000E-03 0. -1.
    9900012    2    1    2    0    0 -0.27219234545E+02 -0.88277975383E+01 -0.14067825065E+02  0.59301945985E+02  0.50000003569E+02 0.  0.
        -12    1    1    2    0    0  0.27219234545E+02  0.88277975383E+01  0.14067825065E+02  0.31886054015E+02  0.00000000000E+00 0.  1.
         11    1    3    3    0    0  0.81294059103E+01 -0.35020354150E+01 -0.61214124748E+01  0.10762117982E+02  0.51100000000E-03 0. -1.
        -11    1    3    3    0    0 -0.10570652122E+02  0.12877952740E+02 -0.60858203188E+01  0.17737462115E+02  0.51100000000E-03 0.  1.
         12    1    3    3    0    0 -0.24777988334E+02 -0.18203714864E+02 -0.18605922711E+01  0.30802365888E+02  0.00000000000E+00 0. -1.
</event>
<event>
 7    1  0.3528441E-013  0.5930187E+02  0.7816164E-02  0.1266605E+00
        -11   -1    0    0    0    0  0.00000000000E+00  0.00000000000E+00  0.45593999997E+02  0.45594000000E+02  0.51100000000E-03 0.  1.
         11   -1    0    0    0    0 -0.00000000000E+00 -0.00000000000E+00 -0.45593999997E+02  0.45594000000E+02  0.51100000000E-03 0. -1.
    9900012    2    1    2    0    0 -0.20693026494E+02  0.66749510145E+01 -0.23323143343E+02  0.59301869286E+02  0.49999863689E+02 0.  0.
        -12    1    1    2    0    0  0.20693026494E+02 -0.66749510145E+01  0.23323143343E+02  0.31886130714E+02  0.00000000000E+00 0.  1.
         11    1    3    3    0    0 -0.53360577642E+01  0.10206617787E+02  0.50877250901E+01  0.12591008934E+02  0.51100000000E-03 0. -1.
        -11    1    3    3    0    0 -0.16841008575E+01  0.14051333438E+02 -0.15402991551E+02  0.20917177536E+02  0.51100000000E-03 0.  1.
         12    1    3    3    0    0 -0.13672867872E+02 -0.17583000211E+02 -0.13007876881E+02  0.25793682816E+02  0.00000000000E+00 0. -1.
</event>
<event>
 7    1  0.3528441E-013  0.5930193E+02  0.7816164E-02  0.1266605E+00
        -11   -1    0    0    0    0  0.00000000000E+00  0.00000000000E+00  0.45593999997E+02  0.45594000000E+02  0.51100000000E-03 0.  1.
         11   -1    0    0    0    0 -0.00000000000E+00 -0.00000000000E+00 -0.45593999997E+02  0.45594000000E+02  0.51100000000E-03 0. -1.
    9900012    2    1    2    0    0 -0.12370593880E+02  0.19301294566E+02 -0.22161898433E+02  0.59301932399E+02  0.49999978793E+02 0.  0.
        -12    1    1    2    0    0  0.12370593880E+02 -0.19301294566E+02  0.22161898433E+02  0.31886067601E+02  0.00000000000E+00 0.  1.
         11    1    3    3    0    0 -0.15000736135E+02  0.24625235530E+02 -0.26770601611E+02  0.39345767502E+02  0.51100000000E-03 0. -1.
        -11    1    3    3    0    0 -0.30474208285E+01  0.23308544239E+00 -0.59816149731E+01  0.67172033226E+01  0.51100000000E-03 0.  1.
        -12    1    3    3    0    0  0.56775630837E+01 -0.55570264055E+01  0.10590318151E+02  0.13238961575E+02  0.00000000000E+00 0.  1.
</event>
<event>
 7    1  0.3528441E-013  0.5930187E+02  0.7816164E-02  0.1266605E+00
        -11   -1    0    0    0    0  0.00000000000E+00  0.00000000000E+00  0.45593999997E+02  0.45594000000E+02  0.51100000000E-03 0.  1.
         11   -1    0    0    0    0 -0.00000000000E+00 -0.00000000000E+00 -0.45593999997E+02  0.45594000000E+02  0.51100000000E-03 0. -1.
    9900012    2    1    2    0    0 -0.46233196446E+01 -0.28369853885E+02 -0.13802220371E+02  0.59301874786E+02  0.49999873720E+02 0.  0.
        -12    1    1    2    0    0  0.46233196446E+01  0.28369853885E+02  0.13802220371E+02  0.31886125214E+02  0.00000000000E+00 0.  1.
         11    1    3    3    0    0  0.32692435300E+01 -0.57505885389E+01 -0.15130152072E+02  0.16512986519E+02  0.51100000000E-03 0.  1.
        -11    1    3    3    0    0  0.62645262167E+01 -0.25865342143E+02 -0.47682542489E+01  0.27036946236E+02  0.51100000000E-03 0. -1.
        -12    1    3    3    0    0 -0.14157089391E+02  0.32460767972E+01  0.60961859504E+01  0.15751942031E+02  0.00000000000E+00 0.  1.
</event>
<event>
 7    1  0.3528441E-013  0.5930193E+02  0.7816164E-02  0.1266605E+00
        -11   -1    0    0    0    0  0.00000000000E+00  0.00000000000E+00  0.45593999997E+02  0.45594000000E+02  0.51100000000E-03 0. -1.
         11   -1    0    0    0    0 -0.00000000000E+00 -0.00000000000E+00 -0.45593999997E+02  0.45594000000E+02  0.51100000000E-03 0.  1.
    9900012    2    1    2    0    0 -0.51962918563E+01  0.31459414055E+02 -0.15860434005E+00  0.59301931928E+02  0.49999977934E+02 0.  0.
        -12    1    1    2    0    0  0.51962918563E+01 -0.31459414055E+02  0.15860434005E+00  0.31886068072E+02  0.00000000000E+00 0.  1.
         11    1    3    3    0    0  0.10540208951E+02  0.10951421110E+02  0.10207738092E+01  0.15233896694E+02  0.51100000000E-03 0. -1.
        -11    1    3    3    0    0 -0.91566891727E+01  0.18315756571E+02 -0.17115572748E+02  0.26688100834E+02  0.51100000000E-03 0.  1.
         12    1    3    3    0    0 -0.65798116342E+01  0.21922363735E+01  0.15936194599E+02  0.17379934400E+02  0.00000000000E+00 0. -1.
</event>
<event>
 7    1  0.3528441E-013  0.5930194E+02  0.7816164E-02  0.1266605E+00
        -11   -1    0    0    0    0  0.00000000000E+00  0.00000000000E+00  0.45593999997E+02  0.45594000000E+02  0.51100000000E-03 0.  1.
         11   -1    0    0    0    0 -0.00000000000E+00 -0.00000000000E+00 -0.45593999997E+02  0.45594000000E+02  0.51100000000E-03 0. -1.
    9900012    2    1    2    0    0 -0.11051674788E+01  0.15632058019E+02 -0.27769374849E+02  0.59301940154E+02  0.49999992934E+02 0.  0.
        -12    1    1    2    0    0  0.11051674788E+01 -0.15632058019E+02  0.27769374849E+02  0.31886059846E+02  0.00000000000E+00 0.  1.
         11    1    3    3    0    0  0.10547122280E+02  0.14247897119E+01 -0.29790387435E+02  0.31634459026E+02  0.51100000000E-03 0. -1.
        -11    1    3    3    0    0 -0.38213050568E+01  0.71456464458E+01 -0.92064679999E+01  0.12264652003E+02  0.51100000000E-03 0.  1.
        -12    1    3    3    0    0 -0.78309847020E+01  0.70616218608E+01  0.11227480586E+02  0.15402829124E+02  0.00000000000E+00 0.  1.
</event>
<event>
 7    1  0.3528441E-013  0.5930194E+02  0.7816164E-02  0.1266605E+00
        -11   -1    0    0    0    0  0.00000000000E+00  0.00000000000E+00  0.45593999997E+02  0.45594000000E+02  0.51100000000E-03 0. -1.
         11   -1    0    0    0    0 -0.00000000000E+00 -0.00000000000E+00 -0.45593999997E+02  0.45594000000E+02  0.51100000000E-03 0.  1.
    9900012    2    1    2    0    0  0.26826535231E+02  0.13326409742E+02  0.10929975048E+02  0.59301944369E+02  0.50000000623E+02 0.  0.
        -12    1    1    2    0    0 -0.26826535231E+02 -0.13326409742E+02 -0.10929975048E+02  0.31886055631E+02  0.00000000000E+00 0.  1.
         11    1    3    3    0    0 -0.40207855624E+01 -0.97198864688E+01 -0.54922688187E+00  0.10533022355E+02  0.51100000000E-03 0. -1.
        -11    1    3    3    0    0  0.39940818830E+00  0.67111040039E+01 -0.68984437963E+01  0.96325993856E+01  0.51100000000E-03 0.  1.
         12    1    3    3    0    0  0.30447912606E+02  0.16335192207E+02  0.18377645726E+02  0.39136322629E+02  0.00000000000E+00 0. -1.
</event>
<event>
 7    1  0.3528441E-013  0.5930191E+02  0.7816164E-02  0.1266605E+00
        -11   -1    0    0    0    0  0.00000000000E+00  0.00000000000E+00  0.45593999997E+02  0.45594000000E+02  0.51100000000E-03 0.  1.
         11   -1    0    0    0    0 -0.00000000000E+00 -0.00000000000E+00 -0.45593999997E+02  0.45594000000E+02  0.51100000000E-03 0. -1.
    9900012    2    1    2    0    0  0.20619475922E+02  0.88801091730E+01 -0.22642961549E+02  0.59301908456E+02  0.49999935126E+02 0.  0.
        -12    1    1    2    0    0 -0.20619475922E+02 -0.88801091730E+01  0.22642961549E+02  0.31886091544E+02  0.00000000000E+00 0.  1.
         11    1    3    3    0    0  0.79356397173E-01  0.53652400309E+01  0.63515197152E+01  0.83146798484E+01  0.51100000000E-03 0. -1.
        -11    1    3    3    0    0  0.50150959054E+01  0.17691443545E+02 -0.49409019377E+01  0.19040768731E+02  0.51100000000E-03 0.  1.
         12    1    3    3    0    0  0.15525023620E+02 -0.14176574403E+02 -0.24053579327E+02  0.31946459876E+02  0.00000000000E+00 0. -1.
</event>
<event>
 7    1  0.3528441E-013  0.5930195E+02  0.7816164E-02  0.1266605E+00
        -11   -1    0    0    0    0  0.00000000000E+00  0.00000000000E+00  0.45593999997E+02  0.45594000000E+02  0.51100000000E-03 0.  1.
         11   -1    0    0    0    0 -0.00000000000E+00 -0.00000000000E+00 -0.45593999997E+02  0.45594000000E+02  0.51100000000E-03 0. -1.
    9900012    2    1    2    0    0 -0.42867376387E+01 -0.11470314964E+02 -0.29441063181E+02  0.59301945898E+02  0.50000003411E+02 0.  0.
        -12    1    1    2    0    0  0.42867376387E+01  0.11470314964E+02  0.29441063181E+02  0.31886054102E+02  0.00000000000E+00 0.  1.
         11    1    3    3    0    0 -0.78660121225E+01  0.10772463665E+02 -0.31260898685E+01  0.13700093366E+02  0.51100000000E-03 0. -1.
        -11    1    3    3    0    0  0.16338479937E+02 -0.85375547913E+01 -0.14579823946E+02  0.23503340933E+02  0.51100000000E-03 0.  1.
        -12    1    3    3    0    0 -0.12759205453E+02 -0.13705223837E+02 -0.11735149367E+02  0.22098511599E+02  0.00000000000E+00 0.  1.
</event>
<event>
 7    1  0.3528441E-013  0.5930195E+02  0.7816164E-02  0.1266605E+00
        -11   -1    0    0    0    0  0.00000000000E+00  0.00000000000E+00  0.45593999997E+02  0.45594000000E+02  0.51100000000E-03 0.  1.
         11   -1    0    0    0    0 -0.00000000000E+00 -0.00000000000E+00 -0.45593999997E+02  0.45594000000E+02  0.51100000000E-03 0. -1.
    9900012    2    1    2    0    0 -0.26662664800E+02 -0.16846998795E+02  0.46905124523E+01  0.59301953370E+02  0.50000017038E+02 0.  0.
        -12    1    1    2    0    0  0.26662664800E+02  0.16846998795E+02 -0.46905124523E+01  0.31886046630E+02  0.00000000000E+00 0.  1.
         11    1    3    3    0    0 -0.26268388021E+02 -0.28378998371E+02  0.99023261342E+01  0.39918063842E+02  0.51100000000E-03 0. -1.
        -11    1    3    3    0    0 -0.71117469521E+01  0.71227087707E+01 -0.51916152889E+00  0.10078663299E+02  0.51100000000E-03 0.  1.
        -12    1    3    3    0    0  0.67174701737E+01  0.44092908056E+01 -0.46926521530E+01  0.93052262290E+01  0.00000000000E+00 0.  1.
</event>
<event>
 7    1  0.3528441E-013  0.5930194E+02  0.7816164E-02  0.1266605E+00
        -11   -1    0    0    0    0  0.00000000000E+00  0.00000000000E+00  0.45593999997E+02  0.45594000000E+02  0.51100000000E-03 0. -1.
         11   -1    0    0    0    0 -0.00000000000E+00 -0.00000000000E+00 -0.45593999997E+02  0.45594000000E+02  0.51100000000E-03 0.  1.
    9900012    2    1    2    0    0  0.23113061294E+02  0.21112788263E+02 -0.60627775358E+01  0.59301941885E+02  0.49999996093E+02 0.  0.
        -12    1    1    2    0    0 -0.23113061294E+02 -0.21112788263E+02  0.60627775358E+01  0.31886058115E+02  0.00000000000E+00 0.  1.
         11    1    3    3    0    0  0.11254571645E+02 -0.30610048411E+01  0.20432144152E+01  0.11841024405E+02  0.51100000000E-03 0. -1.
        -11    1    3    3    0    0  0.64701726332E+01 -0.70491137210E+01 -0.12209239107E+02  0.15511887634E+02  0.51100000000E-03 0.  1.
         12    1    3    3    0    0  0.53883170160E+01  0.31222906825E+02  0.41032471558E+01  0.31949029846E+02  0.00000000000E+00 0. -1.
</event>
<event>
 7    1  0.3528441E-013  0.5930195E+02  0.7816164E-02  0.1266605E+00
        -11   -1    0    0    0    0  0.00000000000E+00  0.00000000000E+00  0.45593999997E+02  0.45594000000E+02  0.51100000000E-03 0.  1.
         11   -1    0    0    0    0 -0.00000000000E+00 -0.00000000000E+00 -0.45593999997E+02  0.45594000000E+02  0.51100000000E-03 0. -1.
    9900012    2    1    2    0    0 -0.12621338596E+02  0.12816467118E+02 -0.26327931649E+02  0.59301952860E+02  0.50000016108E+02 0.  0.
        -12    1    1    2    0    0  0.12621338596E+02 -0.12816467118E+02  0.26327931649E+02  0.31886047140E+02  0.00000000000E+00 0.  1.
         11    1    3    3    0    0 -0.14290271859E+01  0.47062688331E+01 -0.34554990881E+02  0.34903273200E+02  0.51100000000E-03 0. -1.
        -11    1    3    3    0    0 -0.19634906997E+01 -0.12329578667E+01 -0.51530016762E+01  0.56505669950E+01  0.51100000000E-03 0.  1.
        -12    1    3    3    0    0 -0.92288207100E+01  0.93431561515E+01  0.13380060909E+02  0.18748112665E+02  0.00000000000E+00 0.  1.
</event>
<event>
 7    1  0.3528441E-013  0.5930193E+02  0.7816164E-02  0.1266605E+00
        -11   -1    0    0    0    0  0.00000000000E+00  0.00000000000E+00  0.45593999997E+02  0.45594000000E+02  0.51100000000E-03 0.  1.
         11   -1    0    0    0    0 -0.00000000000E+00 -0.00000000000E+00 -0.45593999997E+02  0.45594000000E+02  0.51100000000E-03 0. -1.
    9900012    2    1    2    0    0 -0.22619991797E+02  0.89964777004E+01 -0.20594197301E+02  0.59301927768E+02  0.49999970347E+02 0.  0.
        -12    1    1    2    0    0  0.22619991797E+02 -0.89964777004E+01  0.20594197301E+02  0.31886072232E+02  0.00000000000E+00 0.  1.
         11    1    3    3    0    0 -0.36532844497E+01 -0.12509059790E+01  0.10836607639E+02  0.11504056607E+02  0.51100000000E-03 0. -1.
        -11    1    3    3    0    0  0.48591771218E+01 -0.54982376496E+01 -0.80180543036E+01  0.10868827657E+02  0.51100000000E-03 0.  1.
         12    1    3    3    0    0 -0.23825884469E+02  0.15745621329E+02 -0.23412750637E+02  0.36929043504E+02  0.00000000000E+00 0. -1.
</event>
<event>
 7    1  0.3528441E-013  0.5930193E+02  0.7816164E-02  0.1266605E+00
        -11   -1    0    0    0    0  0.00000000000E+00  0.00000000000E+00  0.45593999997E+02  0.45594000000E+02  0.51100000000E-03 0.  1.
         11   -1    0    0    0    0 -0.00000000000E+00 -0.00000000000E+00 -0.45593999997E+02  0.45594000000E+02  0.51100000000E-03 0. -1.
    9900012    2    1    2    0    0 -0.19414618510E+02 -0.23035101356E+02  0.10448826826E+02  0.59301932691E+02  0.49999979325E+02 0.  0.
        -12    1    1    2    0    0  0.19414618510E+02  0.23035101356E+02 -0.10448826826E+02  0.31886067309E+02  0.00000000000E+00 0.  1.
         11    1    3    3    0    0  0.91002274293E+01 -0.81857600220E+00  0.30945083573E+01  0.96467708675E+01  0.51100000000E-03 0. -1.
        -11    1    3    3    0    0 -0.14449003235E+02  0.72838715629E+01  0.47772393280E+01  0.16871588405E+02  0.51100000000E-03 0.  1.
         12    1    3    3    0    0 -0.14065842704E+02 -0.29500396917E+02  0.25770791409E+01  0.32783573419E+02  0.00000000000E+00 0. -1.
</event>
<event>
 7    1  0.3528441E-013  0.5930195E+02  0.7816164E-02  0.1266605E+00
        -11   -1    0    0    0    0  0.00000000000E+00  0.00000000000E+00  0.45593999997E+02  0.45594000000E+02  0.51100000000E-03 0.  1.
         11   -1    0    0    0    0 -0.00000000000E+00 -0.00000000000E+00 -0.45593999997E+02  0.45594000000E+02  0.51100000000E-03 0. -1.
    9900012    2    1    2    0    0  0.30605262802E+02  0.67311054871E+01 -0.58932406330E+01  0.59301950113E+02  0.50000011098E+02 0.  0.
        -12    1    1    2    0    0 -0.30605262802E+02 -0.67311054871E+01  0.58932406330E+01  0.31886049887E+02  0.00000000000E+00 0.  1.
         11    1    3    3    0    0  0.15819611361E+02 -0.16051363503E+02 -0.60386060292E+01  0.23331762406E+02  0.51100000000E-03 0. -1.
        -11    1    3    3    0    0  0.12847782281E+02  0.56770125464E+01  0.89289819159E+01  0.16643938816E+02  0.51100000000E-03 0.  1.
        -12    1    3    3    0    0  0.19378691588E+01  0.17105456444E+02 -0.87836165197E+01  0.19326248891E+02  0.00000000000E+00 0.  1.
</event>
<event>
 7    1  0.3528441E-013  0.5930192E+02  0.7816164E-02  0.1266605E+00
        -11   -1    0    0    0    0  0.00000000000E+00  0.00000000000E+00  0.45593999997E+02  0.45594000000E+02  0.51100000000E-03 0. -1.
         11   -1    0    0    0    0 -0.00000000000E+00 -0.00000000000E+00 -0.45593999997E+02  0.45594000000E+02  0.51100000000E-03 0.  1.
    9900012    2    1    2    0    0 -0.10022109296E+02  0.24499729270E+02  0.17777596062E+02  0.59301916346E+02  0.49999949515E+02 0.  0.
        -12    1    1    2    0    0  0.10022109296E+02 -0.24499729270E+02 -0.17777596062E+02  0.31886083654E+02  0.00000000000E+00 0.  1.
         11    1    3    3    0    0 -0.45571803925E+01  0.52821293413E+01 -0.10138262584E+02  0.12306630408E+02  0.51100000000E-03 0. -1.
        -11    1    3    3    0    0  0.47912461353E+01  0.38920229075E+00 -0.54923481485E+01  0.72988633634E+01  0.51100000000E-03 0.  1.
         12    1    3    3    0    0 -0.10256175039E+02  0.18828397638E+02  0.33408206795E+02  0.39696422575E+02  0.00000000000E+00 0. -1.
</event>
<event>
 7    1  0.3528441E-013  0.5930195E+02  0.7816164E-02  0.1266605E+00
        -11   -1    0    0    0    0  0.00000000000E+00  0.00000000000E+00  0.45593999997E+02  0.45594000000E+02  0.51100000000E-03 0.  1.
         11   -1    0    0    0    0 -0.00000000000E+00 -0.00000000000E+00 -0.45593999997E+02  0.45594000000E+02  0.51100000000E-03 0. -1.
    9900012    2    1    2    0    0  0.16749175043E+02  0.13914200731E+02 -0.23293356143E+02  0.59301948394E+02  0.50000007963E+02 0.  0.
        -12    1    1    2    0    0 -0.16749175043E+02 -0.13914200731E+02  0.23293356143E+02  0.31886051606E+02  0.00000000000E+00 0.  1.
         11    1    3    3    0    0  0.17811682174E+02  0.19680618087E+02 -0.22396246907E+02  0.34730024848E+02  0.51100000000E-03 0. -1.
        -11    1    3    3    0    0  0.72411530734E+01  0.52901358063E+01 -0.48438054295E+01  0.10192265989E+02  0.51100000000E-03 0.  1.
        -12    1    3    3    0    0 -0.83036602041E+01 -0.11056553162E+02  0.39466961940E+01  0.14379657557E+02  0.00000000000E+00 0.  1.
</event>
<event>
 7    1  0.3528441E-013  0.5930196E+02  0.7816164E-02  0.1266605E+00
        -11   -1    0    0    0    0  0.00000000000E+00  0.00000000000E+00  0.45593999997E+02  0.45594000000E+02  0.51100000000E-03 0.  1.
         11   -1    0    0    0    0 -0.00000000000E+00 -0.00000000000E+00 -0.45593999997E+02  0.45594000000E+02  0.51100000000E-03 0. -1.
    9900012    2    1    2    0    0 -0.21543857378E+02 -0.21913304945E+01 -0.23404696268E+02  0.59301960305E+02  0.50000029685E+02 0.  0.
        -12    1    1    2    0    0  0.21543857378E+02  0.21913304945E+01  0.23404696268E+02  0.31886039695E+02  0.00000000000E+00 0.  1.
         11    1    3    3    0    0 -0.24486896068E+02  0.10783024198E+02 -0.83808741262E+01  0.28037844804E+02  0.51100000000E-03 0. -1.
        -11    1    3    3    0    0 -0.74663991985E+01  0.18119958193E+01  0.11002377155E+00  0.76839151044E+01  0.51100000000E-03 0.  1.
        -12    1    3    3    0    0  0.10409437888E+02 -0.14786350512E+02 -0.15133845913E+02  0.23580200396E+02  0.00000000000E+00 0.  1.
</event>
<event>
 7    1  0.3528441E-013  0.5930228E+02  0.7816164E-02  0.1266604E+00
        -11   -1    0    0    0    0  0.00000000000E+00  0.00000000000E+00  0.45593999997E+02  0.45594000000E+02  0.51100000000E-03 0. -1.
         11   -1    0    0    0    0 -0.00000000000E+00 -0.00000000000E+00 -0.45593999997E+02  0.45594000000E+02  0.51100000000E-03 0.  1.
    9900012    2    1    2    0    0  0.30340024684E+02  0.63780023057E+01  0.74500264116E+01  0.59302283688E+02  0.50000619454E+02 0.  0.
        -12    1    1    2    0    0 -0.30340024684E+02 -0.63780023057E+01 -0.74500264116E+01  0.31885716312E+02  0.00000000000E+00 0.  1.
         11    1    3    3    0    0  0.29247496364E+02  0.84339101551E+01  0.94284799568E+01  0.31866018242E+02  0.51100000000E-03 0. -1.
        -11    1    3    3    0    0  0.13326728038E+01  0.41745523935E+01  0.11651264063E+02  0.12448086560E+02  0.51100000000E-03 0.  1.
        -12    1    3    3    0    0 -0.24014448372E+00 -0.62304602429E+01 -0.13629717608E+02  0.14988178885E+02  0.00000000000E+00 0.  1.
</event>
<event>
 7    1  0.3528441E-013  0.5930193E+02  0.7816164E-02  0.1266605E+00
        -11   -1    0    0    0    0  0.00000000000E+00  0.00000000000E+00  0.45593999997E+02  0.45594000000E+02  0.51100000000E-03 0. -1.
         11   -1    0    0    0    0 -0.00000000000E+00 -0.00000000000E+00 -0.45593999997E+02  0.45594000000E+02  0.51100000000E-03 0.  1.
    9900012    2    1    2    0    0 -0.13457439211E+02  0.28769944277E+02  0.28123462945E+01  0.59301926935E+02  0.49999968828E+02 0.  0.
        -12    1    1    2    0    0  0.13457439211E+02 -0.28769944277E+02 -0.28123462945E+01  0.31886073065E+02  0.00000000000E+00 0.  1.
         11    1    3    3    0    0  0.41328910332E+01 -0.27335490104E+01 -0.11478725749E+01  0.50863238388E+01  0.51100000000E-03 0.  1.
        -11    1    3    3    0    0 -0.29663724057E+02  0.14094616330E+02  0.13504429287E+01  0.32869719055E+02  0.51100000000E-03 0. -1.
         12    1    3    3    0    0  0.12073393812E+02  0.17408876957E+02  0.26097759407E+01  0.21345884041E+02  0.00000000000E+00 0. -1.
</event>
<event>
 7    1  0.3528441E-013  0.5930193E+02  0.7816164E-02  0.1266605E+00
        -11   -1    0    0    0    0  0.00000000000E+00  0.00000000000E+00  0.45593999997E+02  0.45594000000E+02  0.51100000000E-03 0. -1.
         11   -1    0    0    0    0 -0.00000000000E+00 -0.00000000000E+00 -0.45593999997E+02  0.45594000000E+02  0.51100000000E-03 0.  1.
    9900012    2    1    2    0    0 -0.28342176099E+01  0.17811776840E+02  0.26295040168E+02  0.59301932179E+02  0.49999978391E+02 0.  0.
        -12    1    1    2    0    0  0.28342176099E+01 -0.17811776840E+02 -0.26295040168E+02  0.31886067821E+02  0.00000000000E+00 0.  1.
         11    1    3    3    0    0 -0.12957558092E+02 -0.68181621102E+00  0.12761539716E+02  0.18199452773E+02  0.51100000000E-03 0. -1.
        -11    1    3    3    0    0 -0.51528954755E+01 -0.60254017314E+01 -0.21724568178E+01  0.82205454011E+01  0.51100000000E-03 0.  1.
         12    1    3    3    0    0  0.15276235957E+02  0.24518994782E+02  0.15705957270E+02  0.32881934005E+02  0.00000000000E+00 0. -1.
</event>
<event>
 7    1  0.3528441E-013  0.5930197E+02  0.7816164E-02  0.1266605E+00
        -11   -1    0    0    0    0  0.00000000000E+00  0.00000000000E+00  0.45593999997E+02  0.45594000000E+02  0.51100000000E-03 0. -1.
         11   -1    0    0    0    0 -0.00000000000E+00 -0.00000000000E+00 -0.45593999997E+02  0.45594000000E+02  0.51100000000E-03 0.  1.
    9900012    2    1    2    0    0  0.22901547531E+02  0.15963356334E+00  0.22185862555E+02  0.59301970779E+02  0.50000048788E+02 0.  0.
        -12    1    1    2    0    0 -0.22901547531E+02 -0.15963356334E+00 -0.22185862555E+02  0.31886029221E+02  0.00000000000E+00 0.  1.
         11    1    3    3    0    0  0.21260631977E+01  0.12191763143E+02 -0.51621286606E+01  0.13409206010E+02  0.51100000000E-03 0. -1.
        -11    1    3    3    0    0  0.17302477427E+02  0.37422153467E+01  0.23261962508E+02  0.29231811453E+02  0.51100000000E-03 0.  1.
        -12    1    3    3    0    0  0.34730069057E+01 -0.15774344926E+02  0.40860287074E+01  0.16660953316E+02  0.00000000000E+00 0.  1.
</event>
<event>
 7    1  0.3528441E-013  0.5930203E+02  0.7816164E-02  0.1266604E+00
        -11   -1    0    0    0    0  0.00000000000E+00  0.00000000000E+00  0.45593999997E+02  0.45594000000E+02  0.51100000000E-03 0.  1.
         11   -1    0    0    0    0 -0.00000000000E+00 -0.00000000000E+00 -0.45593999997E+02  0.45594000000E+02  0.51100000000E-03 0. -1.
    9900012    2    1    2    0    0  0.32302893278E+01 -0.91468626540E+01 -0.30374581083E+02  0.59302030648E+02  0.50000157975E+02 0.  0.
        -12    1    1    2    0    0 -0.32302893278E+01  0.91468626540E+01  0.30374581083E+02  0.31885969352E+02  0.00000000000E+00 0.  1.
         11    1    3    3    0    0 -0.97029536575E+01  0.29584096916E+01 -0.82205002788E+00  0.10177193331E+02  0.51100000000E-03 0. -1.
        -11    1    3    3    0    0 -0.91551776923E+01 -0.10082070008E+02 -0.21652260107E+02  0.25579010579E+02  0.51100000000E-03 0.  1.
        -12    1    3    3    0    0  0.22088420678E+02 -0.20232023376E+01 -0.79002709479E+01  0.23545826738E+02  0.00000000000E+00 0.  1.
</event>
<event>
 7    1  0.3528441E-013  0.5930190E+02  0.7816164E-02  0.1266605E+00
        -11   -1    0    0    0    0  0.00000000000E+00  0.00000000000E+00  0.45593999997E+02  0.45594000000E+02  0.51100000000E-03 0. -1.
         11   -1    0    0    0    0 -0.00000000000E+00 -0.00000000000E+00 -0.45593999997E+02  0.45594000000E+02  0.51100000000E-03 0.  1.
    9900012    2    1    2    0    0  0.73843792357E+01  0.30433574412E+02 -0.59993432393E+01  0.59301896013E+02  0.49999912432E+02 0.  0.
        -12    1    1    2    0    0 -0.73843792357E+01 -0.30433574412E+02  0.59993432393E+01  0.31886103987E+02  0.00000000000E+00 0.  1.
         11    1    3    3    0    0 -0.63419442509E+01  0.76594418191E+01 -0.42427233099E+01  0.10811475718E+02  0.51100000000E-03 0. -1.
        -11    1    3    3    0    0  0.10827014663E+02  0.10363929661E+00 -0.17611981318E+02  0.20674062828E+02  0.51100000000E-03 0.  1.
         12    1    3    3    0    0  0.28993088239E+01  0.22670493296E+02  0.15855361388E+02  0.27816357467E+02  0.00000000000E+00 0. -1.
</event>
<event>
 7    1  0.3528441E-013  0.5930210E+02  0.7816164E-02  0.1266604E+00
        -11   -1    0    0    0    0  0.00000000000E+00  0.00000000000E+00  0.45593999997E+02  0.45594000000E+02  0.51100000000E-03 0. -1.
         11   -1    0    0    0    0 -0.00000000000E+00 -0.00000000000E+00 -0.45593999997E+02  0.45594000000E+02  0.51100000000E-03 0.  1.
    9900012    2    1    2    0    0  0.21819095869E+02 -0.18228372781E+02  0.14434829225E+02  0.59302096946E+02  0.50000278886E+02 0.  0.
        -12    1    1    2    0    0 -0.21819095869E+02  0.18228372781E+02 -0.14434829225E+02  0.31885903054E+02  0.00000000000E+00 0.  1.
         11    1    3    3    0    0  0.82149194463E+01 -0.10183739848E+02 -0.52515240481E+01  0.14098651137E+02  0.51100000000E-03 0. -1.
        -11    1    3    3    0    0 -0.74516214941E+01 -0.75609042238E+01 -0.58351535664E+01  0.12113750574E+02  0.51100000000E-03 0.  1.
         12    1    3    3    0    0  0.21055797917E+02 -0.48372870918E+00  0.25521506839E+02  0.33089695235E+02  0.00000000000E+00 0. -1.
</event>
<event>
 7    1  0.3528441E-013  0.5930194E+02  0.7816164E-02  0.1266605E+00
        -11   -1    0    0    0    0  0.00000000000E+00  0.00000000000E+00  0.45593999997E+02  0.45594000000E+02  0.51100000000E-03 0.  1.
         11   -1    0    0    0    0 -0.00000000000E+00 -0.00000000000E+00 -0.45593999997E+02  0.45594000000E+02  0.51100000000E-03 0. -1.
    9900012    2    1    2    0    0  0.29816643383E+02 -0.20493839318E+01 -0.11112543541E+02  0.59301940019E+02  0.49999992689E+02 0.  0.
        -12    1    1    2    0    0 -0.29816643383E+02  0.20493839318E+01  0.11112543541E+02  0.31886059981E+02  0.00000000000E+00 0.  1.
         11    1    3    3    0    0  0.13240552076E+02 -0.17271801973E+02 -0.47699598561E+01  0.22279584376E+02  0.51100000000E-03 0. -1.
        -11    1    3    3    0    0 -0.72347652949E+00 -0.73892756881E+01 -0.40560556299E+01  0.84602837433E+01  0.51100000000E-03 0.  1.
        -12    1    3    3    0    0  0.17299567837E+02  0.22611693729E+02 -0.22865280554E+01  0.28562071900E+02  0.00000000000E+00 0.  1.
</event>
<event>
 7    1  0.3528441E-013  0.5930196E+02  0.7816164E-02  0.1266605E+00
        -11   -1    0    0    0    0  0.00000000000E+00  0.00000000000E+00  0.45593999997E+02  0.45594000000E+02  0.51100000000E-03 0. -1.
         11   -1    0    0    0    0 -0.00000000000E+00 -0.00000000000E+00 -0.45593999997E+02  0.45594000000E+02  0.51100000000E-03 0.  1.
    9900012    2    1    2    0    0 -0.29046295310E+02  0.49177649886E+01  0.12200334415E+02  0.59301955348E+02  0.50000020646E+02 0.  0.
        -12    1    1    2    0    0  0.29046295310E+02 -0.49177649886E+01 -0.12200334415E+02  0.31886044652E+02  0.00000000000E+00 0.  1.
         11    1    3    3    0    0 -0.18835556906E+02  0.74356998560E+01  0.36340394277E+00  0.20253392284E+02  0.51100000000E-03 0. -1.
        -11    1    3    3    0    0 -0.20312383275E+02 -0.64457649857E+01 -0.20768553212E+01  0.21411541954E+02  0.51100000000E-03 0.  1.
         12    1    3    3    0    0  0.10101644872E+02  0.39278301184E+01  0.13913785793E+02  0.17637021110E+02  0.00000000000E+00 0. -1.
</event>
<event>
 7    1  0.3528441E-013  0.5930188E+02  0.7816164E-02  0.1266605E+00
        -11   -1    0    0    0    0  0.00000000000E+00  0.00000000000E+00  0.45593999997E+02  0.45594000000E+02  0.51100000000E-03 0.  1.
         11   -1    0    0    0    0 -0.00000000000E+00 -0.00000000000E+00 -0.45593999997E+02  0.45594000000E+02  0.51100000000E-03 0. -1.
    9900012    2    1    2    0    0  0.21488674236E+02  0.12588164052E+02 -0.19912292782E+02  0.59301883923E+02  0.49999890384E+02 0.  0.
        -12    1    1    2    0    0 -0.21488674236E+02 -0.12588164052E+02  0.19912292782E+02  0.31886116077E+02  0.00000000000E+00 0.  1.
         11    1    3    3    0    0  0.79998421882E+01 -0.73465146674E+01 -0.81117371138E+01  0.13556143702E+02  0.51100000000E-03 0. -1.
        -11    1    3    3    0    0  0.89737940028E+01 -0.34516866401E+01  0.97006768305E+01  0.13658193537E+02  0.51100000000E-03 0.  1.
         12    1    3    3    0    0  0.45150380453E+01  0.23386365359E+02 -0.21501232499E+02  0.32087546684E+02  0.00000000000E+00 0. -1.
</event>
<event>
 7    1  0.3528441E-013  0.5930189E+02  0.7816164E-02  0.1266605E+00
        -11   -1    0    0    0    0  0.00000000000E+00  0.00000000000E+00  0.45593999997E+02  0.45594000000E+02  0.51100000000E-03 0. -1.
         11   -1    0    0    0    0 -0.00000000000E+00 -0.00000000000E+00 -0.45593999997E+02  0.45594000000E+02  0.51100000000E-03 0.  1.
    9900012    2    1    2    0    0  0.72093959039E+01  0.46257923258E+01  0.30714014018E+02  0.59301890155E+02  0.49999901749E+02 0.  0.
        -12    1    1    2    0    0 -0.72093959039E+01 -0.46257923258E+01 -0.30714014018E+02  0.31886109845E+02  0.00000000000E+00 0.  1.
         11    1    3    3    0    0 -0.39878904158E+01 -0.11452709851E+00  0.15987520987E+02  0.16477779401E+02  0.51100000000E-03 0. -1.
        -11    1    3    3    0    0 -0.13432363930E+02  0.64664286454E-01  0.11236915205E+02  0.17512876572E+02  0.51100000000E-03 0.  1.
        -12    1    3    3    0    0  0.24629650250E+02  0.46756551378E+01  0.34895778262E+01  0.25311234182E+02  0.00000000000E+00 0.  1.
</event>
<event>
 7    1  0.3528441E-013  0.5930201E+02  0.7816164E-02  0.1266605E+00
        -11   -1    0    0    0    0  0.00000000000E+00  0.00000000000E+00  0.45593999997E+02  0.45594000000E+02  0.51100000000E-03 0. -1.
         11   -1    0    0    0    0 -0.00000000000E+00 -0.00000000000E+00 -0.45593999997E+02  0.45594000000E+02  0.51100000000E-03 0.  1.
    9900012    2    1    2    0    0  0.19640567329E+02  0.22613416710E+02  0.10936073085E+02  0.59302012564E+02  0.50000124993E+02 0.  0.
        -12    1    1    2    0    0 -0.19640567329E+02 -0.22613416710E+02 -0.10936073085E+02  0.31885987436E+02  0.00000000000E+00 0.  1.
         11    1    3    3    0    0  0.15220916010E+02  0.28398645936E+02  0.15750399453E+02  0.35864111008E+02  0.51100000000E-03 0. -1.
        -11    1    3    3    0    0  0.40952740680E+01  0.72405800617E+01 -0.61424386530E+01  0.10340542645E+02  0.51100000000E-03 0.  1.
        -12    1    3    3    0    0  0.32437725092E+00 -0.13025809288E+02  0.13281122846E+01  0.13097358911E+02  0.00000000000E+00 0.  1.
</event>
<event>
 7    1  0.3528441E-013  0.5930200E+02  0.7816164E-02  0.1266605E+00
        -11   -1    0    0    0    0  0.00000000000E+00  0.00000000000E+00  0.45593999997E+02  0.45594000000E+02  0.51100000000E-03 0.  1.
         11   -1    0    0    0    0 -0.00000000000E+00 -0.00000000000E+00 -0.45593999997E+02  0.45594000000E+02  0.51100000000E-03 0. -1.
    9900012    2    1    2    0    0 -0.22660455682E+02  0.13333121291E+02 -0.18040200958E+02  0.59301996399E+02  0.50000095512E+02 0.  0.
        -12    1    1    2    0    0  0.22660455682E+02 -0.13333121291E+02  0.18040200958E+02  0.31886003601E+02  0.00000000000E+00 0.  1.
         11    1    3    3    0    0 -0.15579918946E+02  0.18047836466E+02  0.45328218448E+01  0.24269420050E+02  0.51100000000E-03 0.  1.
        -11    1    3    3    0    0 -0.47007761879E+01 -0.12173904307E+02 -0.22355909095E+01  0.13240057018E+02  0.51100000000E-03 0. -1.
         12    1    3    3    0    0 -0.23797605486E+01  0.74591891322E+01 -0.20337431893E+02  0.21792519331E+02  0.00000000000E+00 0. -1.
</event>
<event>
 7    1  0.3528441E-013  0.5930197E+02  0.7816164E-02  0.1266605E+00
        -11   -1    0    0    0    0  0.00000000000E+00  0.00000000000E+00  0.45593999997E+02  0.45594000000E+02  0.51100000000E-03 0. -1.
         11   -1    0    0    0    0 -0.00000000000E+00 -0.00000000000E+00 -0.45593999997E+02  0.45594000000E+02  0.51100000000E-03 0.  1.
    9900012    2    1    2    0    0  0.28645719048E+02 -0.44993902437E+01  0.13262614419E+02  0.59301973694E+02  0.50000054104E+02 0.  0.
        -12    1    1    2    0    0 -0.28645719048E+02  0.44993902437E+01 -0.13262614419E+02  0.31886026306E+02  0.00000000000E+00 0.  1.
         11    1    3    3    0    0 -0.52302290775E+01  0.88274985905E+01  0.51595422957E+01  0.11484811907E+02  0.51100000000E-03 0. -1.
        -11    1    3    3    0    0  0.24300185301E+01 -0.79744644650E+01 -0.84581992502E+01  0.11875950841E+02  0.51100000000E-03 0.  1.
         12    1    3    3    0    0  0.31445929596E+02 -0.53524243693E+01  0.16561271374E+02  0.35941210946E+02  0.00000000000E+00 0. -1.
</event>
<event>
 7    1  0.3528441E-013  0.5930204E+02  0.7816164E-02  0.1266604E+00
        -11   -1    0    0    0    0  0.00000000000E+00  0.00000000000E+00  0.45593999997E+02  0.45594000000E+02  0.51100000000E-03 0.  1.
         11   -1    0    0    0    0 -0.00000000000E+00 -0.00000000000E+00 -0.45593999997E+02  0.45594000000E+02  0.51100000000E-03 0. -1.
    9900012    2    1    2    0    0 -0.82873731564E+01  0.30465513946E+02 -0.44594312474E+01  0.59302037244E+02  0.50000170004E+02 0.  0.
        -12    1    1    2    0    0  0.82873731564E+01 -0.30465513946E+02  0.44594312474E+01  0.31885962756E+02  0.00000000000E+00 0.  1.
         11    1    3    3    0    0 -0.96755155654E+00  0.33507674007E+01  0.72171436990E+01  0.80156697550E+01  0.51100000000E-03 0. -1.
        -11    1    3    3    0    0  0.15365038243E+02  0.13835379601E+01 -0.14699273100E+01  0.15497072758E+02  0.51100000000E-03 0.  1.
         12    1    3    3    0    0 -0.22684859843E+02  0.25731208585E+02 -0.10206647636E+02  0.35789294731E+02  0.00000000000E+00 0. -1.
</event>
<event>
 7    1  0.3528441E-013  0.5930193E+02  0.7816164E-02  0.1266605E+00
        -11   -1    0    0    0    0  0.00000000000E+00  0.00000000000E+00  0.45593999997E+02  0.45594000000E+02  0.51100000000E-03 0. -1.
         11   -1    0    0    0    0 -0.00000000000E+00 -0.00000000000E+00 -0.45593999997E+02  0.45594000000E+02  0.51100000000E-03 0.  1.
    9900012    2    1    2    0    0  0.58386140571E+01  0.30844443635E+02 -0.55903668999E+01  0.59301932207E+02  0.49999978441E+02 0.  0.
        -12    1    1    2    0    0 -0.58386140571E+01 -0.30844443635E+02  0.55903668999E+01  0.31886067793E+02  0.00000000000E+00 0.  1.
         11    1    3    3    0    0  0.18276627563E+01 -0.27137273764E+01 -0.78895427061E+01  0.85410509773E+01  0.51100000000E-03 0. -1.
        -11    1    3    3    0    0  0.28907693641E+01  0.45474829409E+01 -0.15701891345E+02  0.16600769280E+02  0.51100000000E-03 0.  1.
         12    1    3    3    0    0  0.11201819367E+01  0.29010688070E+02  0.18001067151E+02  0.34160111950E+02  0.00000000000E+00 0. -1.
</event>
<event>
 7    1  0.3528441E-013  0.5930198E+02  0.7816164E-02  0.1266605E+00
        -11   -1    0    0    0    0  0.00000000000E+00  0.00000000000E+00  0.45593999997E+02  0.45594000000E+02  0.51100000000E-03 0.  1.
         11   -1    0    0    0    0 -0.00000000000E+00 -0.00000000000E+00 -0.45593999997E+02  0.45594000000E+02  0.51100000000E-03 0. -1.
    9900012    2    1    2    0    0 -0.19861502304E+02 -0.12884640565E+02 -0.21359431687E+02  0.59301975502E+02  0.50000057402E+02 0.  0.
        -12    1    1    2    0    0  0.19861502304E+02  0.12884640565E+02  0.21359431687E+02  0.31886024498E+02  0.00000000000E+00 0.  1.
         11    1    3    3    0    0  0.23830741749E+01  0.24268702997E+01 -0.26571792957E+01  0.43161723836E+01  0.51100000000E-03 0. -1.
        -11    1    3    3    0    0 -0.30823800111E+02 -0.32620231248E+01  0.18411097954E+00  0.30996473110E+02  0.51100000000E-03 0.  1.
         12    1    3    3    0    0  0.85792236316E+01 -0.12049487740E+02 -0.18886363371E+02  0.23989330009E+02  0.00000000000E+00 0. -1.
</event>
<event>
 7    1  0.3528441E-013  0.5930195E+02  0.7816164E-02  0.1266605E+00
        -11   -1    0    0    0    0  0.00000000000E+00  0.00000000000E+00  0.45593999997E+02  0.45594000000E+02  0.51100000000E-03 0. -1.
         11   -1    0    0    0    0 -0.00000000000E+00 -0.00000000000E+00 -0.45593999997E+02  0.45594000000E+02  0.51100000000E-03 0.  1.
    9900012    2    1    2    0    0  0.70574460914E+01  0.29667036777E+02  0.93155666072E+01  0.59301946659E+02  0.50000004799E+02 0.  0.
        -12    1    1    2    0    0 -0.70574460914E+01 -0.29667036777E+02 -0.93155666072E+01  0.31886053341E+02  0.00000000000E+00 0.  1.
         11    1    3    3    0    0  0.16112459239E+02 -0.49583338734E+00  0.29442645132E+01  0.16386759510E+02  0.51100000000E-03 0. -1.
        -11    1    3    3    0    0  0.54818308609E+01 -0.29394356659E+01  0.95420487867E-01  0.62209209087E+01  0.51100000000E-03 0.  1.
        -12    1    3    3    0    0 -0.14536844008E+02  0.33102305830E+02  0.62758816061E+01  0.36694266240E+02  0.00000000000E+00 0.  1.
</event>
<event>
 7    1  0.3528441E-013  0.5930195E+02  0.7816164E-02  0.1266605E+00
        -11   -1    0    0    0    0  0.00000000000E+00  0.00000000000E+00  0.45593999997E+02  0.45594000000E+02  0.51100000000E-03 0.  1.
         11   -1    0    0    0    0 -0.00000000000E+00 -0.00000000000E+00 -0.45593999997E+02  0.45594000000E+02  0.51100000000E-03 0. -1.
    9900012    2    1    2    0    0 -0.98936308402E+01  0.29158204439E+02 -0.82846496983E+01  0.59301949164E+02  0.50000009367E+02 0.  0.
        -12    1    1    2    0    0  0.98936308402E+01 -0.29158204439E+02  0.82846496983E+01  0.31886050836E+02  0.00000000000E+00 0.  1.
         11    1    3    3    0    0  0.68279638403E+01 -0.46537813579E+01  0.98619478178E+01  0.12866109985E+02  0.51100000000E-03 0. -1.
        -11    1    3    3    0    0  0.37486445477E+00 -0.38054591757E+00  0.27961093822E+01  0.28466763942E+01  0.51100000000E-03 0.  1.
         12    1    3    3    0    0 -0.17096459135E+02  0.34192531714E+02 -0.20942706898E+02  0.43589162784E+02  0.00000000000E+00 0. -1.
</event>
<event>
 7    1  0.3528441E-013  0.5930193E+02  0.7816164E-02  0.1266605E+00
        -11   -1    0    0    0    0  0.00000000000E+00  0.00000000000E+00  0.45593999997E+02  0.45594000000E+02  0.51100000000E-03 0.  1.
         11   -1    0    0    0    0 -0.00000000000E+00 -0.00000000000E+00 -0.45593999997E+02  0.45594000000E+02  0.51100000000E-03 0. -1.
    9900012    2    1    2    0    0 -0.16666215109E+02  0.82976236436E+01 -0.25886446176E+02  0.59301931258E+02  0.49999976710E+02 0.  0.
        -12    1    1    2    0    0  0.16666215109E+02 -0.82976236436E+01  0.25886446176E+02  0.31886068742E+02  0.00000000000E+00 0.  1.
         11    1    3    3    0    0 -0.31849081152E+01  0.67717824369E+01 -0.68299865102E+01  0.10131603677E+02  0.51100000000E-03 0. -1.
        -11    1    3    3    0    0  0.28154623224E+01  0.16494070557E+02  0.40099426235E+01  0.17206418329E+02  0.51100000000E-03 0.  1.
        -12    1    3    3    0    0 -0.16296769317E+02 -0.14968229350E+02 -0.23066402290E+02  0.31963909251E+02  0.00000000000E+00 0.  1.
</event>
<event>
 7    1  0.3528441E-013  0.5930201E+02  0.7816164E-02  0.1266605E+00
        -11   -1    0    0    0    0  0.00000000000E+00  0.00000000000E+00  0.45593999997E+02  0.45594000000E+02  0.51100000000E-03 0.  1.
         11   -1    0    0    0    0 -0.00000000000E+00 -0.00000000000E+00 -0.45593999997E+02  0.45594000000E+02  0.51100000000E-03 0. -1.
    9900012    2    1    2    0    0 -0.27691231171E+02  0.55287508036E+01 -0.14810293861E+02  0.59302012898E+02  0.50000125602E+02 0.  0.
        -12    1    1    2    0    0  0.27691231171E+02 -0.55287508036E+01  0.14810293861E+02  0.31885987102E+02  0.00000000000E+00 0.  1.
         11    1    3    3    0    0 -0.27851616933E+01 -0.39197399943E+01 -0.17397824034E+01  0.51135438155E+01  0.51100000000E-03 0. -1.
        -11    1    3    3    0    0 -0.15497445385E+02 -0.58104573602E+01 -0.26875124660E+02  0.31562708280E+02  0.51100000000E-03 0.  1.
        -12    1    3    3    0    0 -0.94086240932E+01  0.15258948158E+02  0.13804613203E+02  0.22625760803E+02  0.00000000000E+00 0.  1.
</event>
<event>
 7    1  0.3528441E-013  0.5930189E+02  0.7816164E-02  0.1266605E+00
        -11   -1    0    0    0    0  0.00000000000E+00  0.00000000000E+00  0.45593999997E+02  0.45594000000E+02  0.51100000000E-03 0.  1.
         11   -1    0    0    0    0 -0.00000000000E+00 -0.00000000000E+00 -0.45593999997E+02  0.45594000000E+02  0.51100000000E-03 0. -1.
    9900012    2    1    2    0    0 -0.22366582468E+02 -0.45439887315E+01 -0.22266833077E+02  0.59301894873E+02  0.49999910354E+02 0.  0.
        -12    1    1    2    0    0  0.22366582468E+02  0.45439887315E+01  0.22266833077E+02  0.31886105127E+02  0.00000000000E+00 0.  1.
         11    1    3    3    0    0 -0.86587071638E+01  0.66063252012E+01 -0.79137690401E+01  0.13462707124E+02  0.51100000000E-03 0.  1.
        -11    1    3    3    0    0 -0.67688715447E+01  0.10960683784E+02 -0.18250902082E+02  0.22339418929E+02  0.51100000000E-03 0. -1.
        -12    1    3    3    0    0 -0.69390037596E+01 -0.22110997717E+02  0.38978380452E+01  0.23499768821E+02  0.00000000000E+00 0.  1.
</event>
<event>
 7    1  0.3528441E-013  0.5930194E+02  0.7816164E-02  0.1266605E+00
        -11   -1    0    0    0    0  0.00000000000E+00  0.00000000000E+00  0.45593999997E+02  0.45594000000E+02  0.51100000000E-03 0.  1.
         11   -1    0    0    0    0 -0.00000000000E+00 -0.00000000000E+00 -0.45593999997E+02  0.45594000000E+02  0.51100000000E-03 0. -1.
    9900012    2    1    2    0    0  0.29964758042E+02  0.72907733823E+01 -0.81042355603E+01  0.59301941369E+02  0.49999995150E+02 0.  0.
        -12    1    1    2    0    0 -0.29964758042E+02 -0.72907733823E+01  0.81042355603E+01  0.31886058631E+02  0.00000000000E+00 0.  1.
         11    1    3    3    0    0  0.10982168451E+02  0.16099693536E+02 -0.13597952184E+02  0.23763679423E+02  0.51100000000E-03 0. -1.
        -11    1    3    3    0    0 -0.37254976701E+01  0.37410461786E+01  0.78780944054E+01  0.94836243664E+01  0.51100000000E-03 0.  1.
        -12    1    3    3    0    0  0.22708087261E+02 -0.12549966333E+02 -0.23843777821E+01  0.26054637579E+02  0.00000000000E+00 0.  1.
</event>
<event>
 7    1  0.3528441E-013  0.5930192E+02  0.7816164E-02  0.1266605E+00
        -11   -1    0    0    0    0  0.00000000000E+00  0.00000000000E+00  0.45593999997E+02  0.45594000000E+02  0.51100000000E-03 0.  1.
         11   -1    0    0    0    0 -0.00000000000E+00 -0.00000000000E+00 -0.45593999997E+02  0.45594000000E+02  0.51100000000E-03 0. -1.
    9900012    2    1    2    0    0 -0.27246887168E+02 -0.13346211913E+02  0.98085686643E+01  0.59301917581E+02  0.49999951768E+02 0.  0.
        -12    1    1    2    0    0  0.27246887168E+02  0.13346211913E+02 -0.98085686643E+01  0.31886082419E+02  0.00000000000E+00 0.  1.
         11    1    3    3    0    0  0.74284105904E+00 -0.52220552306E+00 -0.63411245443E+01  0.64058076927E+01  0.51100000000E-03 0. -1.
        -11    1    3    3    0    0 -0.26485151722E+02 -0.17604228684E+01  0.26617895213E+02  0.37590885813E+02  0.51100000000E-03 0.  1.
         12    1    3    3    0    0 -0.15045765056E+01 -0.11063583521E+02 -0.10468202004E+02  0.15305224075E+02  0.00000000000E+00 0. -1.
</event>
<event>
 7    1  0.3528441E-013  0.5930193E+02  0.7816164E-02  0.1266605E+00
        -11   -1    0    0    0    0  0.00000000000E+00  0.00000000000E+00  0.45593999997E+02  0.45594000000E+02  0.51100000000E-03 0. -1.
         11   -1    0    0    0    0 -0.00000000000E+00 -0.00000000000E+00 -0.45593999997E+02  0.45594000000E+02  0.51100000000E-03 0.  1.
    9900012    2    1    2    0    0  0.13943962665E+02  0.22605080377E+02  0.17643624530E+02  0.59301933447E+02  0.49999980704E+02 0.  0.
        -12    1    1    2    0    0 -0.13943962665E+02 -0.22605080377E+02 -0.17643624530E+02  0.31886066553E+02  0.00000000000E+00 0.  1.
         11    1    3    3    0    0  0.50142292590E+01  0.29122119365E+02  0.20018130168E+02  0.35692658448E+02  0.51100000000E-03 0. -1.
        -11    1    3    3    0    0  0.17915386523E+01  0.37116781203E+01 -0.86977839397E+01  0.96248434239E+01  0.51100000000E-03 0.  1.
         12    1    3    3    0    0  0.71381947539E+01 -0.10228717108E+02  0.63232783011E+01  0.13984431576E+02  0.00000000000E+00 0. -1.
</event>
<event>
 7    1  0.3528441E-013  0.5930198E+02  0.7816164E-02  0.1266605E+00
        -11   -1    0    0    0    0  0.00000000000E+00  0.00000000000E+00  0.45593999997E+02  0.45594000000E+02  0.51100000000E-03 0.  1.
         11   -1    0    0    0    0 -0.00000000000E+00 -0.00000000000E+00 -0.45593999997E+02  0.45594000000E+02  0.51100000000E-03 0. -1.
    9900012    2    1    2    0    0  0.24305269507E+01 -0.31760273024E+02  0.14477571105E+01  0.59301977914E+02  0.50000061800E+02 0.  0.
        -12    1    1    2    0    0 -0.24305269507E+01  0.31760273024E+02 -0.14477571105E+01  0.31886022086E+02  0.00000000000E+00 0.  1.
         11    1    3    3    0    0  0.11444731283E+02 -0.13483068652E+01  0.40777240044E+01  0.12224059835E+02  0.51100000000E-03 0. -1.
        -11    1    3    3    0    0  0.41708181892E+01  0.37164160437E+01  0.72766000824E+01  0.91736787385E+01  0.51100000000E-03 0.  1.
         12    1    3    3    0    0 -0.13185022521E+02 -0.34128382203E+02 -0.99065669764E+01  0.37904239340E+02  0.00000000000E+00 0. -1.
</event>
<event>
 7    1  0.3528441E-013  0.5930194E+02  0.7816164E-02  0.1266605E+00
        -11   -1    0    0    0    0  0.00000000000E+00  0.00000000000E+00  0.45593999997E+02  0.45594000000E+02  0.51100000000E-03 0.  1.
         11   -1    0    0    0    0 -0.00000000000E+00 -0.00000000000E+00 -0.45593999997E+02  0.45594000000E+02  0.51100000000E-03 0. -1.
    9900012    2    1    2    0    0  0.10574654578E+02  0.10983200244E+02 -0.28004765578E+02  0.59301938749E+02  0.49999990373E+02 0.  0.
        -12    1    1    2    0    0 -0.10574654578E+02 -0.10983200244E+02  0.28004765578E+02  0.31886061251E+02  0.00000000000E+00 0.  1.
         11    1    3    3    0    0 -0.12260359690E+02  0.60547501713E+01 -0.13308649271E+02  0.19081314552E+02  0.51100000000E-03 0. -1.
        -11    1    3    3    0    0  0.59487438070E+01 -0.46480793644E+01  0.75626310616E+01  0.10685765461E+02  0.51100000000E-03 0.  1.
         12    1    3    3    0    0  0.16886270460E+02  0.95765294366E+01 -0.22258747369E+02  0.29534858736E+02  0.00000000000E+00 0. -1.
</event>
<event>
 7    1  0.3528441E-013  0.5930194E+02  0.7816164E-02  0.1266605E+00
        -11   -1    0    0    0    0  0.00000000000E+00  0.00000000000E+00  0.45593999997E+02  0.45594000000E+02  0.51100000000E-03 0.  1.
         11   -1    0    0    0    0 -0.00000000000E+00 -0.00000000000E+00 -0.45593999997E+02  0.45594000000E+02  0.51100000000E-03 0. -1.
    9900012    2    1    2    0    0  0.15142702697E+02  0.27977270165E+02 -0.21659930133E+01  0.59301943226E+02  0.49999998538E+02 0.  0.
        -12    1    1    2    0    0 -0.15142702697E+02 -0.27977270165E+02  0.21659930133E+01  0.31886056774E+02  0.00000000000E+00 0.  1.
         11    1    3    3    0    0  0.46274335958E+01  0.17970445907E+02  0.33247067704E+01  0.18852154868E+02  0.51100000000E-03 0. -1.
        -11    1    3    3    0    0 -0.67389961636E+01 -0.89525993315E+01  0.55897055531E+01  0.12522296615E+02  0.51100000000E-03 0.  1.
         12    1    3    3    0    0  0.17254265265E+02  0.18959423589E+02 -0.11080405337E+02  0.27927491744E+02  0.00000000000E+00 0. -1.
</event>
<event>
 7    1  0.3528441E-013  0.5930195E+02  0.7816164E-02  0.1266605E+00
        -11   -1    0    0    0    0  0.00000000000E+00  0.00000000000E+00  0.45593999997E+02  0.45594000000E+02  0.51100000000E-03 0. -1.
         11   -1    0    0    0    0 -0.00000000000E+00 -0.00000000000E+00 -0.45593999997E+02  0.45594000000E+02  0.51100000000E-03 0.  1.
    9900012    2    1    2    0    0 -0.30554003613E+02  0.51606719306E+01  0.75193587531E+01  0.59301946189E+02  0.50000003941E+02 0.  0.
        -12    1    1    2    0    0  0.30554003613E+02 -0.51606719306E+01 -0.75193587531E+01  0.31886053811E+02  0.00000000000E+00 0.  1.
         11    1    3    3    0    0 -0.21006611663E+02 -0.28565526255E+01  0.41911180662E+01  0.21610254449E+02  0.51100000000E-03 0. -1.
        -11    1    3    3    0    0 -0.21488529405E+02  0.11474393542E+02 -0.13780683862E+01  0.24399132687E+02  0.51100000000E-03 0.  1.
        -12    1    3    3    0    0  0.11941137454E+02 -0.34571689858E+01  0.47063090731E+01  0.13292559053E+02  0.00000000000E+00 0.  1.
</event>
<event>
 7    1  0.3528441E-013  0.5930196E+02  0.7816164E-02  0.1266605E+00
        -11   -1    0    0    0    0  0.00000000000E+00  0.00000000000E+00  0.45593999997E+02  0.45594000000E+02  0.51100000000E-03 0. -1.
         11   -1    0    0    0    0 -0.00000000000E+00 -0.00000000000E+00 -0.45593999997E+02  0.45594000000E+02  0.51100000000E-03 0.  1.
    9900012    2    1    2    0    0  0.55961287801E+01  0.38892073426E+00  0.31388719452E+02  0.59301958767E+02  0.50000026881E+02 0.  0.
        -12    1    1    2    0    0 -0.55961287801E+01 -0.38892073426E+00 -0.31388719452E+02  0.31886041233E+02  0.00000000000E+00 0.  1.
         11    1    3    3    0    0 -0.57688100588E+00  0.14203534292E+02  0.48218387599E+01  0.15010773044E+02  0.51100000000E-03 0. -1.
        -11    1    3    3    0    0 -0.12384442573E+02 -0.11192016477E+02  0.12870937817E+02  0.21078346501E+02  0.51100000000E-03 0.  1.
         12    1    3    3    0    0  0.18557452359E+02 -0.26225970808E+01  0.13695942875E+02  0.23212839222E+02  0.00000000000E+00 0. -1.
</event>
<event>
 7    1  0.3528441E-013  0.5930193E+02  0.7816164E-02  0.1266605E+00
        -11   -1    0    0    0    0  0.00000000000E+00  0.00000000000E+00  0.45593999997E+02  0.45594000000E+02  0.51100000000E-03 0.  1.
         11   -1    0    0    0    0 -0.00000000000E+00 -0.00000000000E+00 -0.45593999997E+02  0.45594000000E+02  0.51100000000E-03 0. -1.
    9900012    2    1    2    0    0  0.20354104430E+02  0.15897976999E+02 -0.18699901316E+02  0.59301928605E+02  0.49999971872E+02 0.  0.
        -12    1    1    2    0    0 -0.20354104430E+02 -0.15897976999E+02  0.18699901316E+02  0.31886071395E+02  0.00000000000E+00 0.  1.
         11    1    3    3    0    0  0.18626469380E+02  0.38212005247E+01  0.40823552295E+01  0.19447687768E+02  0.51100000000E-03 0. -1.
        -11    1    3    3    0    0  0.34080065585E+01  0.11204931469E+02  0.44703892041E+01  0.12535923494E+02  0.51100000000E-03 0.  1.
         12    1    3    3    0    0 -0.16803715088E+01  0.87184500431E+00 -0.27252645750E+02  0.27318317344E+02  0.00000000000E+00 0. -1.
</event>
<event>
 7    1  0.3528441E-013  0.5930192E+02  0.7816164E-02  0.1266605E+00
        -11   -1    0    0    0    0  0.00000000000E+00  0.00000000000E+00  0.45593999997E+02  0.45594000000E+02  0.51100000000E-03 0. -1.
         11   -1    0    0    0    0 -0.00000000000E+00 -0.00000000000E+00 -0.45593999997E+02  0.45594000000E+02  0.51100000000E-03 0.  1.
    9900012    2    1    2    0    0 -0.12515127583E+02  0.25408200738E+02  0.14646391435E+02  0.59301923646E+02  0.49999962829E+02 0.  0.
        -12    1    1    2    0    0  0.12515127583E+02 -0.25408200738E+02 -0.14646391435E+02  0.31886076354E+02  0.00000000000E+00 0.  1.
         11    1    3    3    0    0 -0.14522610789E+02  0.17777029469E+02  0.16259633579E+02  0.28130138380E+02  0.51100000000E-03 0. -1.
        -11    1    3    3    0    0 -0.11617801653E+02 -0.28167182372E+01  0.47460195274E+01  0.12862033995E+02  0.51100000000E-03 0.  1.
        -12    1    3    3    0    0  0.13625284859E+02  0.10447889506E+02 -0.63592616719E+01  0.18309751271E+02  0.00000000000E+00 0.  1.
</event>
<event>
 7    1  0.3528441E-013  0.5930194E+02  0.7816164E-02  0.1266605E+00
        -11   -1    0    0    0    0  0.00000000000E+00  0.00000000000E+00  0.45593999997E+02  0.45594000000E+02  0.51100000000E-03 0.  1.
         11   -1    0    0    0    0 -0.00000000000E+00 -0.00000000000E+00 -0.45593999997E+02  0.45594000000E+02  0.51100000000E-03 0. -1.
    9900012    2    1    2    0    0 -0.77612582007E+01  0.98611927131E+01 -0.29312807574E+02  0.59301938179E+02  0.49999989333E+02 0.  0.
        -12    1    1    2    0    0  0.77612582007E+01 -0.98611927131E+01  0.29312807574E+02  0.31886061821E+02  0.00000000000E+00 0.  1.
         11    1    3    3    0    0 -0.16786470383E+02  0.13383387090E+01 -0.88930952257E+01  0.19043736014E+02  0.51100000000E-03 0. -1.
        -11    1    3    3    0    0 -0.83241513922E+01  0.10407938726E+02  0.91337310845E-01  0.13327603974E+02  0.51100000000E-03 0.  1.
         12    1    3    3    0    0  0.17349363574E+02 -0.18850847216E+01 -0.20511049659E+02  0.26930598191E+02  0.00000000000E+00 0. -1.
</event>
<event>
 7    1  0.3528441E-013  0.5930193E+02  0.7816164E-02  0.1266605E+00
        -11   -1    0    0    0    0  0.00000000000E+00  0.00000000000E+00  0.45593999997E+02  0.45594000000E+02  0.51100000000E-03 0. -1.
         11   -1    0    0    0    0 -0.00000000000E+00 -0.00000000000E+00 -0.45593999997E+02  0.45594000000E+02  0.51100000000E-03 0.  1.
    9900012    2    1    2    0    0 -0.14784225124E+02 -0.28251180034E+02 -0.13747400747E+00  0.59301931178E+02  0.49999976565E+02 0.  0.
        -12    1    1    2    0    0  0.14784225124E+02  0.28251180034E+02  0.13747400747E+00  0.31886068822E+02  0.00000000000E+00 0.  1.
         11    1    3    3    0    0  0.80196206950E+01 -0.15380119416E+02 -0.91056890544E+01  0.19590200682E+02  0.51100000000E-03 0.  1.
        -11    1    3    3    0    0 -0.37545009488E+01 -0.15974160875E+02  0.11790430797E+02  0.20206047404E+02  0.51100000000E-03 0. -1.
         12    1    3    3    0    0 -0.19049344870E+02  0.31031002564E+01 -0.28222157502E+01  0.19505683093E+02  0.00000000000E+00 0. -1.
</event>
<event>
 7    1  0.3528441E-013  0.5930194E+02  0.7816164E-02  0.1266605E+00
        -11   -1    0    0    0    0  0.00000000000E+00  0.00000000000E+00  0.45593999997E+02  0.45594000000E+02  0.51100000000E-03 0. -1.
         11   -1    0    0    0    0 -0.00000000000E+00 -0.00000000000E+00 -0.45593999997E+02  0.45594000000E+02  0.51100000000E-03 0.  1.
    9900012    2    1    2    0    0  0.80067303530E+00 -0.31077780398E+02  0.70887936597E+01  0.59301944940E+02  0.50000001663E+02 0.  0.
        -12    1    1    2    0    0 -0.80067303530E+00  0.31077780398E+02 -0.70887936597E+01  0.31886055060E+02  0.00000000000E+00 0.  1.
         11    1    3    3    0    0 -0.59790321860E+01  0.84758338801E+01  0.34624359578E-01  0.10372549588E+02  0.51100000000E-03 0. -1.
        -11    1    3    3    0    0  0.37022839626E+00 -0.17512339732E+01 -0.76560275828E+01  0.78624835837E+01  0.51100000000E-03 0.  1.
         12    1    3    3    0    0  0.64094768250E+01 -0.37802380305E+02  0.14710196883E+02  0.41066911768E+02  0.00000000000E+00 0. -1.
</event>
<event>
 7    1  0.3528441E-013  0.5930178E+02  0.7816164E-02  0.1266605E+00
        -11   -1    0    0    0    0  0.00000000000E+00  0.00000000000E+00  0.45593999997E+02  0.45594000000E+02  0.51100000000E-03 0.  1.
         11   -1    0    0    0    0 -0.00000000000E+00 -0.00000000000E+00 -0.45593999997E+02  0.45594000000E+02  0.51100000000E-03 0. -1.
    9900012    2    1    2    0    0 -0.55106285362E+01  0.30890203397E+02 -0.56708955105E+01  0.59301784347E+02  0.49999708779E+02 0.  0.
        -12    1    1    2    0    0  0.55106285362E+01 -0.30890203397E+02  0.56708955105E+01  0.31886215653E+02  0.00000000000E+00 0.  1.
         11    1    3    3    0    0  0.10768087920E+02  0.62069882753E+00  0.27410443721E+01  0.11128805372E+02  0.51100000000E-03 0. -1.
        -11    1    3    3    0    0 -0.80587394274E+01 -0.50188960640E+01 -0.72076457541E+01  0.11919847165E+02  0.51100000000E-03 0.  1.
        -12    1    3    3    0    0 -0.82199770293E+01  0.35288400634E+02 -0.12042941286E+01  0.36253131810E+02  0.00000000000E+00 0.  1.
</event>
<event>
 7    1  0.3528441E-013  0.5930201E+02  0.7816164E-02  0.1266605E+00
        -11   -1    0    0    0    0  0.00000000000E+00  0.00000000000E+00  0.45593999997E+02  0.45594000000E+02  0.51100000000E-03 0.  1.
         11   -1    0    0    0    0 -0.00000000000E+00 -0.00000000000E+00 -0.45593999997E+02  0.45594000000E+02  0.51100000000E-03 0. -1.
    9900012    2    1    2    0    0 -0.97723002966E+01 -0.16297851622E+02 -0.25604656461E+02  0.59302011649E+02  0.50000123326E+02 0.  0.
        -12    1    1    2    0    0  0.97723002966E+01  0.16297851622E+02  0.25604656461E+02  0.31885988351E+02  0.00000000000E+00 0.  1.
         11    1    3    3    0    0 -0.40649592832E+01  0.21116459327E+01  0.39463669020E+01  0.60462181987E+01  0.51100000000E-03 0. -1.
        -11    1    3    3    0    0 -0.50545779697E+01 -0.29951719824E+02 -0.12937198873E+02  0.33015532615E+02  0.51100000000E-03 0.  1.
         12    1    3    3    0    0 -0.65276304365E+00  0.11542222269E+02 -0.16613824491E+02  0.20240260836E+02  0.00000000000E+00 0. -1.
</event>
<event>
 7    1  0.3528441E-013  0.5930195E+02  0.7816164E-02  0.1266605E+00
        -11   -1    0    0    0    0  0.00000000000E+00  0.00000000000E+00  0.45593999997E+02  0.45594000000E+02  0.51100000000E-03 0. -1.
         11   -1    0    0    0    0 -0.00000000000E+00 -0.00000000000E+00 -0.45593999997E+02  0.45594000000E+02  0.51100000000E-03 0.  1.
    9900012    2    1    2    0    0 -0.10178627882E+02  0.14566552769E+02  0.26475111755E+02  0.59301945563E+02  0.50000002800E+02 0.  0.
        -12    1    1    2    0    0  0.10178627882E+02 -0.14566552769E+02 -0.26475111755E+02  0.31886054437E+02  0.00000000000E+00 0.  1.
         11    1    3    3    0    0 -0.23566324950E+02  0.15494932868E+02  0.16613467289E+02  0.32733345564E+02  0.51100000000E-03 0. -1.
        -11    1    3    3    0    0  0.47238427574E+01  0.81524806987E+01 -0.16173854104E+01  0.95599983141E+01  0.51100000000E-03 0.  1.
        -12    1    3    3    0    0  0.86638543107E+01 -0.90808607977E+01  0.11479029877E+02  0.17008601684E+02  0.00000000000E+00 0.  1.
</event>
<event>
 7    1  0.3528441E-013  0.5930191E+02  0.7816164E-02  0.1266605E+00
        -11   -1    0    0    0    0  0.00000000000E+00  0.00000000000E+00  0.45593999997E+02  0.45594000000E+02  0.51100000000E-03 0.  1.
         11   -1    0    0    0    0 -0.00000000000E+00 -0.00000000000E+00 -0.45593999997E+02  0.45594000000E+02  0.51100000000E-03 0. -1.
    9900012    2    1    2    0    0 -0.12751699383E+02 -0.14549520767E+02 -0.25346176406E+02  0.59301905066E+02  0.49999928944E+02 0.  0.
        -12    1    1    2    0    0  0.12751699383E+02  0.14549520767E+02  0.25346176406E+02  0.31886094934E+02  0.00000000000E+00 0.  1.
         11    1    3    3    0    0 -0.16754969631E+02 -0.19771640908E+02 -0.16897760724E+02  0.30938343673E+02  0.51100000000E-03 0. -1.
        -11    1    3    3    0    0  0.90087414179E+01 -0.85234724854E+01 -0.46974535753E+01  0.13261714652E+02  0.51100000000E-03 0.  1.
        -12    1    3    3    0    0 -0.50054711702E+01  0.13745592626E+02 -0.37509621076E+01  0.15101846742E+02  0.00000000000E+00 0.  1.
</event>
<event>
 7    1  0.3528441E-013  0.5930202E+02  0.7816164E-02  0.1266605E+00
        -11   -1    0    0    0    0  0.00000000000E+00  0.00000000000E+00  0.45593999997E+02  0.45594000000E+02  0.51100000000E-03 0.  1.
         11   -1    0    0    0    0 -0.00000000000E+00 -0.00000000000E+00 -0.45593999997E+02  0.45594000000E+02  0.51100000000E-03 0. -1.
    9900012    2    1    2    0    0 -0.25389433309E+02  0.49600684874E+01 -0.18641089053E+02  0.59302018688E+02  0.50000136162E+02 0.  0.
        -12    1    1    2    0    0  0.25389433309E+02 -0.49600684874E+01  0.18641089053E+02  0.31885981312E+02  0.00000000000E+00 0.  1.
         11    1    3    3    0    0 -0.11289134395E+02  0.48229676645E+01 -0.37618811011E+01  0.12839677651E+02  0.51100000000E-03 0. -1.
        -11    1    3    3    0    0 -0.22111934744E+02  0.89831842197E+01  0.39277994064E+01  0.24188072790E+02  0.51100000000E-03 0.  1.
         12    1    3    3    0    0  0.80116358306E+01 -0.88460833969E+01 -0.18807007359E+02  0.22274268247E+02  0.00000000000E+00 0. -1.
</event>
<event>
 7    1  0.3528441E-013  0.5930194E+02  0.7816164E-02  0.1266605E+00
        -11   -1    0    0    0    0  0.00000000000E+00  0.00000000000E+00  0.45593999997E+02  0.45594000000E+02  0.51100000000E-03 0.  1.
         11   -1    0    0    0    0 -0.00000000000E+00 -0.00000000000E+00 -0.45593999997E+02  0.45594000000E+02  0.51100000000E-03 0. -1.
    9900012    2    1    2    0    0 -0.16636239851E+01 -0.28870072792E+02 -0.13433982635E+02  0.59301942902E+02  0.49999997948E+02 0.  0.
        -12    1    1    2    0    0  0.16636239851E+01  0.28870072792E+02  0.13433982635E+02  0.31886057098E+02  0.00000000000E+00 0.  1.
         11    1    3    3    0    0  0.80810425789E+01  0.92888289019E+01  0.20114158059E+01  0.12475230873E+02  0.51100000000E-03 0. -1.
        -11    1    3    3    0    0 -0.10235276073E+01  0.24548915128E+01 -0.11268829224E+01  0.28885924746E+01  0.51100000000E-03 0.  1.
         12    1    3    3    0    0 -0.87211389568E+01 -0.40613793207E+02 -0.14318515519E+02  0.43938119555E+02  0.00000000000E+00 0. -1.
</event>
<event>
 7    1  0.3528441E-013  0.5930195E+02  0.7816164E-02  0.1266605E+00
        -11   -1    0    0    0    0  0.00000000000E+00  0.00000000000E+00  0.45593999997E+02  0.45594000000E+02  0.51100000000E-03 0.  1.
         11   -1    0    0    0    0 -0.00000000000E+00 -0.00000000000E+00 -0.45593999997E+02  0.45594000000E+02  0.51100000000E-03 0. -1.
    9900012    2    1    2    0    0  0.11801529059E+02  0.16986690201E+02 -0.24267192104E+02  0.59301947489E+02  0.50000006312E+02 0.  0.
        -12    1    1    2    0    0 -0.11801529059E+02 -0.16986690201E+02  0.24267192104E+02  0.31886052511E+02  0.00000000000E+00 0.  1.
         11    1    3    3    0    0  0.46124382001E+01  0.11133358618E+02 -0.18422308837E+02  0.22013807563E+02  0.51100000000E-03 0. -1.
        -11    1    3    3    0    0 -0.11543952629E+02 -0.48420289885E+01 -0.90950170067E+01  0.15473442462E+02  0.51100000000E-03 0.  1.
         12    1    3    3    0    0  0.18733043488E+02  0.10695360572E+02  0.32501337395E+01  0.21814697464E+02  0.00000000000E+00 0. -1.
</event>
<event>
 7    1  0.3528441E-013  0.5930197E+02  0.7816164E-02  0.1266605E+00
        -11   -1    0    0    0    0  0.00000000000E+00  0.00000000000E+00  0.45593999997E+02  0.45594000000E+02  0.51100000000E-03 0.  1.
         11   -1    0    0    0    0 -0.00000000000E+00 -0.00000000000E+00 -0.45593999997E+02  0.45594000000E+02  0.51100000000E-03 0. -1.
    9900012    2    1    2    0    0 -0.22586587763E+02 -0.22488163688E+02  0.92064769124E+00  0.59301967870E+02  0.50000043483E+02 0.  0.
        -12    1    1    2    0    0  0.22586587763E+02  0.22488163688E+02 -0.92064769124E+00  0.31886032130E+02  0.00000000000E+00 0.  1.
         11    1    3    3    0    0 -0.14339187574E+02 -0.22249498500E+02 -0.86694722614E+01  0.27853406136E+02  0.51100000000E-03 0. -1.
        -11    1    3    3    0    0 -0.75934353932E+01 -0.13287936152E+02  0.10827764893E+00  0.15304941442E+02  0.51100000000E-03 0.  1.
        -12    1    3    3    0    0 -0.65396479552E+00  0.13049270964E+02  0.94818423037E+01  0.16143620292E+02  0.00000000000E+00 0.  1.
</event>
<event>
 7    1  0.3528441E-013  0.5930189E+02  0.7816164E-02  0.1266605E+00
        -11   -1    0    0    0    0  0.00000000000E+00  0.00000000000E+00  0.45593999997E+02  0.45594000000E+02  0.51100000000E-03 0.  1.
         11   -1    0    0    0    0 -0.00000000000E+00 -0.00000000000E+00 -0.45593999997E+02  0.45594000000E+02  0.51100000000E-03 0. -1.
    9900012    2    1    2    0    0 -0.14400255774E+02  0.22851375409E+02  0.16946120793E+02  0.59301894336E+02  0.49999909375E+02 0.  0.
        -12    1    1    2    0    0  0.14400255774E+02 -0.22851375409E+02 -0.16946120793E+02  0.31886105664E+02  0.00000000000E+00 0.  1.
         11    1    3    3    0    0 -0.17422466041E+02  0.25258865562E+02  0.11846753440E+02  0.32892220657E+02  0.51100000000E-03 0. -1.
        -11    1    3    3    0    0 -0.99506371926E+01 -0.36698835349E+01  0.77158222375E+01  0.13115530441E+02  0.51100000000E-03 0.  1.
         12    1    3    3    0    0  0.12972847460E+02  0.12623933820E+01 -0.26164548841E+01  0.13294143238E+02  0.00000000000E+00 0. -1.
</event>
<event>
 7    1  0.3528441E-013  0.5930196E+02  0.7816164E-02  0.1266605E+00
        -11   -1    0    0    0    0  0.00000000000E+00  0.00000000000E+00  0.45593999997E+02  0.45594000000E+02  0.51100000000E-03 0.  1.
         11   -1    0    0    0    0 -0.00000000000E+00 -0.00000000000E+00 -0.45593999997E+02  0.45594000000E+02  0.51100000000E-03 0. -1.
    9900012    2    1    2    0    0 -0.18599421587E+02 -0.11990771702E+02 -0.22956534094E+02  0.59301959999E+02  0.50000029127E+02 0.  0.
        -12    1    1    2    0    0  0.18599421587E+02  0.11990771702E+02  0.22956534094E+02  0.31886040001E+02  0.00000000000E+00 0.  1.
         11    1    3    3    0    0 -0.94243311042E+01  0.15576761798E+02 -0.31802153306E+01  0.18481539294E+02  0.51100000000E-03 0. -1.
        -11    1    3    3    0    0  0.12805859298E+01  0.27847842309E+01  0.92583229438E-01  0.30665119357E+01  0.51100000000E-03 0.  1.
        -12    1    3    3    0    0 -0.10455676412E+02 -0.30352317731E+02 -0.19868901993E+02  0.37753908768E+02  0.00000000000E+00 0.  1.
</event>
<event>
 7    1  0.3528441E-013  0.5930193E+02  0.7816164E-02  0.1266605E+00
        -11   -1    0    0    0    0  0.00000000000E+00  0.00000000000E+00  0.45593999997E+02  0.45594000000E+02  0.51100000000E-03 0. -1.
         11   -1    0    0    0    0 -0.00000000000E+00 -0.00000000000E+00 -0.45593999997E+02  0.45594000000E+02  0.51100000000E-03 0.  1.
    9900012    2    1    2    0    0 -0.24558849491E+01  0.28658849606E+02  0.13760837662E+02  0.59301926476E+02  0.49999967990E+02 0.  0.
        -12    1    1    2    0    0  0.24558849491E+01 -0.28658849606E+02 -0.13760837662E+02  0.31886073524E+02  0.00000000000E+00 0.  1.
         11    1    3    3    0    0 -0.17073230490E+00 -0.91110736251E+00  0.78777872055E+01  0.79321370173E+01  0.51100000000E-03 0. -1.
        -11    1    3    3    0    0 -0.18984357789E+01 -0.81639835526E+01  0.10408127325E+02  0.13363525004E+02  0.51100000000E-03 0.  1.
         12    1    3    3    0    0 -0.38671686537E+00  0.37733940521E+02 -0.45250768686E+01  0.38006264455E+02  0.00000000000E+00 0. -1.
</event>
<event>
 7    1  0.3528441E-013  0.5930202E+02  0.7816164E-02  0.1266605E+00
        -11   -1    0    0    0    0  0.00000000000E+00  0.00000000000E+00  0.45593999997E+02  0.45594000000E+02  0.51100000000E-03 0. -1.
         11   -1    0    0    0    0 -0.00000000000E+00 -0.00000000000E+00 -0.45593999997E+02  0.45594000000E+02  0.51100000000E-03 0.  1.
    9900012    2    1    2    0    0 -0.25872094077E+02 -0.18633149507E+02 -0.39555772456E+00  0.59302015957E+02  0.50000131181E+02 0.  0.
        -12    1    1    2    0    0  0.25872094077E+02  0.18633149507E+02  0.39555772456E+00  0.31885984043E+02  0.00000000000E+00 0.  1.
         11    1    3    3    0    0 -0.10525200936E+02  0.74848403387E+01 -0.13338482687E+01  0.12983907005E+02  0.51100000000E-03 0. -1.
        -11    1    3    3    0    0 -0.14469226247E+02  0.35420503898E+01 -0.56334115854E+01  0.15926077844E+02  0.51100000000E-03 0.  1.
         12    1    3    3    0    0 -0.87766689401E+00 -0.29660040236E+02  0.65717021296E+01  0.30392031108E+02  0.00000000000E+00 0. -1.
</event>
<event>
 7    1  0.3528441E-013  0.5930192E+02  0.7816164E-02  0.1266605E+00
        -11   -1    0    0    0    0  0.00000000000E+00  0.00000000000E+00  0.45593999997E+02  0.45594000000E+02  0.51100000000E-03 0.  1.
         11   -1    0    0    0    0 -0.00000000000E+00 -0.00000000000E+00 -0.45593999997E+02  0.45594000000E+02  0.51100000000E-03 0. -1.
    9900012    2    1    2    0    0 -0.22076690255E+01  0.18685158088E+02 -0.25743210554E+02  0.59301924278E+02  0.49999963982E+02 0.  0.
        -12    1    1    2    0    0  0.22076690255E+01 -0.18685158088E+02  0.25743210554E+02  0.31886075722E+02  0.00000000000E+00 0.  1.
         11    1    3    3    0    0  0.77216143695E+01  0.36933684627E+00 -0.17538628911E+01  0.79269018840E+01  0.51100000000E-03 0. -1.
        -11    1    3    3    0    0 -0.38078875416E+01  0.12115087794E+02  0.10077162022E+02  0.16211864621E+02  0.51100000000E-03 0.  1.
         12    1    3    3    0    0 -0.61213958534E+01  0.62007334472E+01 -0.34066509686E+02  0.35163157774E+02  0.00000000000E+00 0. -1.
</event>
<event>
 7    1  0.3528441E-013  0.5930188E+02  0.7816164E-02  0.1266605E+00
        -11   -1    0    0    0    0  0.00000000000E+00  0.00000000000E+00  0.45593999997E+02  0.45594000000E+02  0.51100000000E-03 0. -1.
         11   -1    0    0    0    0 -0.00000000000E+00 -0.00000000000E+00 -0.45593999997E+02  0.45594000000E+02  0.51100000000E-03 0.  1.
    9900012    2    1    2    0    0 -0.21266787664E+02 -0.67442096201E+01  0.22780786180E+02  0.59301877000E+02  0.49999877758E+02 0.  0.
        -12    1    1    2    0    0  0.21266787664E+02  0.67442096201E+01 -0.22780786180E+02  0.31886123000E+02  0.00000000000E+00 0.  1.
         11    1    3    3    0    0 -0.14699839911E+02  0.15151994495E+02  0.12686589238E+02  0.24629611798E+02  0.51100000000E-03 0. -1.
        -11    1    3    3    0    0  0.63129653329E+01  0.42486233628E-01 -0.18346645671E+01  0.65742931718E+01  0.51100000000E-03 0.  1.
         12    1    3    3    0    0 -0.12879913086E+02 -0.21938690348E+02  0.11928861510E+02  0.28097972031E+02  0.00000000000E+00 0. -1.
</event>
<event>
 7    1  0.3528441E-013  0.5930192E+02  0.7816164E-02  0.1266605E+00
        -11   -1    0    0    0    0  0.00000000000E+00  0.00000000000E+00  0.45593999997E+02  0.45594000000E+02  0.51100000000E-03 0. -1.
         11   -1    0    0    0    0 -0.00000000000E+00 -0.00000000000E+00 -0.45593999997E+02  0.45594000000E+02  0.51100000000E-03 0.  1.
    9900012    2    1    2    0    0  0.28607911646E+02  0.80201866222E+01 -0.11575224498E+02  0.59301924287E+02  0.49999963998E+02 0.  0.
        -12    1    1    2    0    0 -0.28607911646E+02 -0.80201866222E+01  0.11575224498E+02  0.31886075713E+02  0.00000000000E+00 0.  1.
         11    1    3    3    0    0 -0.73399639455E+01 -0.95083664419E+01  0.66891634021E+01  0.13748782142E+02  0.51100000000E-03 0. -1.
        -11    1    3    3    0    0  0.91848238187E+00  0.36437148312E+01 -0.33292365903E+01  0.50203669380E+01  0.51100000000E-03 0.  1.
        -12    1    3    3    0    0  0.35029393209E+02  0.13884838233E+02 -0.14935151310E+02  0.40532775207E+02  0.00000000000E+00 0.  1.
</event>
<event>
 7    1  0.3528441E-013  0.5930192E+02  0.7816164E-02  0.1266605E+00
        -11   -1    0    0    0    0  0.00000000000E+00  0.00000000000E+00  0.45593999997E+02  0.45594000000E+02  0.51100000000E-03 0. -1.
         11   -1    0    0    0    0 -0.00000000000E+00 -0.00000000000E+00 -0.45593999997E+02  0.45594000000E+02  0.51100000000E-03 0.  1.
    9900012    2    1    2    0    0  0.20516534815E+02  0.21961617849E+02 -0.10652757241E+02  0.59301920024E+02  0.49999956224E+02 0.  0.
        -12    1    1    2    0    0 -0.20516534815E+02 -0.21961617849E+02  0.10652757241E+02  0.31886079976E+02  0.00000000000E+00 0.  1.
         11    1    3    3    0    0  0.10681793968E+02 -0.10014237833E+02 -0.95894455770E+01  0.17502661183E+02  0.51100000000E-03 0. -1.
        -11    1    3    3    0    0 -0.21275137203E+01 -0.34490899386E+01 -0.17223929301E+01  0.44033139454E+01  0.51100000000E-03 0.  1.
         12    1    3    3    0    0  0.11962254567E+02  0.35424945621E+02  0.65908126615E+00  0.37395944896E+02  0.00000000000E+00 0. -1.
</event>
<event>
 7    1  0.3528441E-013  0.5930186E+02  0.7816164E-02  0.1266605E+00
        -11   -1    0    0    0    0  0.00000000000E+00  0.00000000000E+00  0.45593999997E+02  0.45594000000E+02  0.51100000000E-03 0.  1.
         11   -1    0    0    0    0 -0.00000000000E+00 -0.00000000000E+00 -0.45593999997E+02  0.45594000000E+02  0.51100000000E-03 0. -1.
    9900012    2    1    2    0    0 -0.16918033743E+02  0.24498330964E+02 -0.11416555826E+02  0.59301861434E+02  0.49999849368E+02 0.  0.
        -12    1    1    2    0    0  0.16918033743E+02 -0.24498330964E+02  0.11416555826E+02  0.31886138566E+02  0.00000000000E+00 0.  1.
         11    1    3    3    0    0 -0.19773563735E+02  0.83484427478E+01  0.84661809615E+01  0.23073069571E+02  0.51100000000E-03 0. -1.
        -11    1    3    3    0    0 -0.75808116341E+01 -0.11339537976E+01 -0.12632566833E+02  0.14776207270E+02  0.51100000000E-03 0.  1.
        -12    1    3    3    0    0  0.10436341627E+02  0.17283842014E+02 -0.72501699549E+01  0.21452584592E+02  0.00000000000E+00 0.  1.
</event>
<event>
 7    1  0.3528441E-013  0.5930194E+02  0.7816164E-02  0.1266605E+00
        -11   -1    0    0    0    0  0.00000000000E+00  0.00000000000E+00  0.45593999997E+02  0.45594000000E+02  0.51100000000E-03 0.  1.
         11   -1    0    0    0    0 -0.00000000000E+00 -0.00000000000E+00 -0.45593999997E+02  0.45594000000E+02  0.51100000000E-03 0. -1.
    9900012    2    1    2    0    0 -0.38914709230E+01 -0.14302083032E+02 -0.28231682949E+02  0.59301936474E+02  0.49999986225E+02 0.  0.
        -12    1    1    2    0    0  0.38914709230E+01  0.14302083032E+02  0.28231682949E+02  0.31886063526E+02  0.00000000000E+00 0.  1.
         11    1    3    3    0    0  0.25569363777E+01 -0.68029977561E+01 -0.33965997283E+02  0.34734819329E+02  0.51100000000E-03 0. -1.
        -11    1    3    3    0    0  0.24783760993E+01  0.66014119810E+01  0.29690874901E+01  0.76509129532E+01  0.51100000000E-03 0.  1.
        -12    1    3    3    0    0 -0.89267834001E+01 -0.14100497257E+02  0.27652268439E+01  0.16916204192E+02  0.00000000000E+00 0.  1.
</event>
<event>
 7    1  0.3528441E-013  0.5930195E+02  0.7816164E-02  0.1266605E+00
        -11   -1    0    0    0    0  0.00000000000E+00  0.00000000000E+00  0.45593999997E+02  0.45594000000E+02  0.51100000000E-03 0. -1.
         11   -1    0    0    0    0 -0.00000000000E+00 -0.00000000000E+00 -0.45593999997E+02  0.45594000000E+02  0.51100000000E-03 0.  1.
    9900012    2    1    2    0    0  0.27938439625E+02 -0.15325458440E+02  0.11375081023E+01  0.59301952742E+02  0.50000015893E+02 0.  0.
        -12    1    1    2    0    0 -0.27938439625E+02  0.15325458440E+02 -0.11375081023E+01  0.31886047258E+02  0.00000000000E+00 0.  1.
         11    1    3    3    0    0  0.12367401621E+02 -0.16150189184E+01 -0.10908148096E+01  0.12520015422E+02  0.51100000000E-03 0. -1.
        -11    1    3    3    0    0  0.99875739321E+01  0.64606237206E+01 -0.15371204963E+02  0.19436183632E+02  0.51100000000E-03 0.  1.
        -12    1    3    3    0    0  0.55834640717E+01 -0.20171063242E+02  0.17599527875E+02  0.27345753688E+02  0.00000000000E+00 0.  1.
</event>
<event>
 7    1  0.3528441E-013  0.5930195E+02  0.7816164E-02  0.1266605E+00
        -11   -1    0    0    0    0  0.00000000000E+00  0.00000000000E+00  0.45593999997E+02  0.45594000000E+02  0.51100000000E-03 0. -1.
         11   -1    0    0    0    0 -0.00000000000E+00 -0.00000000000E+00 -0.45593999997E+02  0.45594000000E+02  0.51100000000E-03 0.  1.
    9900012    2    1    2    0    0 -0.22369403729E+02 -0.19191060509E+02 -0.12166885738E+02  0.59301950775E+02  0.50000012305E+02 0.  0.
        -12    1    1    2    0    0  0.22369403729E+02  0.19191060509E+02  0.12166885738E+02  0.31886049225E+02  0.00000000000E+00 0.  1.
         11    1    3    3    0    0 -0.30107021572E+02 -0.31937420030E+01 -0.95660265760E+01  0.31751245655E+02  0.51100000000E-03 0. -1.
        -11    1    3    3    0    0 -0.71698807698E+01 -0.35188634723E+01 -0.74610713741E+00  0.80216124633E+01  0.51100000000E-03 0.  1.
        -12    1    3    3    0    0  0.14907498613E+02 -0.12478455034E+02 -0.18547520250E+01  0.19529092657E+02  0.00000000000E+00 0.  1.
</event>
<event>
 7    1  0.3528441E-013  0.5930207E+02  0.7816164E-02  0.1266604E+00
        -11   -1    0    0    0    0  0.00000000000E+00  0.00000000000E+00  0.45593999997E+02  0.45594000000E+02  0.51100000000E-03 0. -1.
         11   -1    0    0    0    0 -0.00000000000E+00 -0.00000000000E+00 -0.45593999997E+02  0.45594000000E+02  0.51100000000E-03 0.  1.
    9900012    2    1    2    0    0  0.28068694950E+02  0.14451391809E+02 -0.44741952996E+01  0.59302066032E+02  0.50000222506E+02 0.  0.
        -12    1    1    2    0    0 -0.28068694950E+02 -0.14451391809E+02  0.44741952996E+01  0.31885933968E+02  0.00000000000E+00 0.  1.
         11    1    3    3    0    0  0.97566594278E+01 -0.13683794006E+02  0.21981022039E+01  0.16949049388E+02  0.51100000000E-03 0. -1.
        -11    1    3    3    0    0  0.11084674149E+02  0.38455634292E+01 -0.11641615525E+02  0.16528326333E+02  0.51100000000E-03 0.  1.
         12    1    3    3    0    0  0.72273613736E+01  0.24289622386E+02  0.49693180217E+01  0.25824690311E+02  0.00000000000E+00 0. -1.
</event>
<event>
 7    1  0.3528441E-013  0.5930172E+02  0.7816164E-02  0.1266606E+00
        -11   -1    0    0    0    0  0.00000000000E+00  0.00000000000E+00  0.45593999997E+02  0.45594000000E+02  0.51100000000E-03 0.  1.
         11   -1    0    0    0    0 -0.00000000000E+00 -0.00000000000E+00 -0.45593999997E+02  0.45594000000E+02  0.51100000000E-03 0. -1.
    9900012    2    1    2    0    0  0.15410835879E+02 -0.74486474676E+01 -0.26902766200E+02  0.59301717043E+02  0.49999586033E+02 0.  0.
        -12    1    1    2    0    0 -0.15410835879E+02  0.74486474676E+01  0.26902766200E+02  0.31886282957E+02  0.00000000000E+00 0.  1.
         11    1    3    3    0    0  0.12794829706E+02 -0.58793779508E+01 -0.57139196954E+00  0.14092595266E+02  0.51100000000E-03 0. -1.
        -11    1    3    3    0    0 -0.15658548896E+00 -0.58720025539E+01  0.83183741771E+01  0.10183333551E+02  0.51100000000E-03 0.  1.
         12    1    3    3    0    0  0.27725916619E+01  0.43027330371E+01 -0.34649748408E+02  0.35025788226E+02  0.00000000000E+00 0. -1.
</event>
<event>
 7    1  0.3528441E-013  0.5930195E+02  0.7816164E-02  0.1266605E+00
        -11   -1    0    0    0    0  0.00000000000E+00  0.00000000000E+00  0.45593999997E+02  0.45594000000E+02  0.51100000000E-03 0.  1.
         11   -1    0    0    0    0 -0.00000000000E+00 -0.00000000000E+00 -0.45593999997E+02  0.45594000000E+02  0.51100000000E-03 0. -1.
    9900012    2    1    2    0    0  0.90892868144E+01  0.30541717263E+02  0.11439605597E+01  0.59301948599E+02  0.50000008337E+02 0.  0.
        -12    1    1    2    0    0 -0.90892868144E+01 -0.30541717263E+02 -0.11439605597E+01  0.31886051401E+02  0.00000000000E+00 0.  1.
         11    1    3    3    0    0  0.94630976781E+01  0.31767604171E+00  0.42852444410E+01  0.10393000333E+02  0.51100000000E-03 0. -1.
        -11    1    3    3    0    0  0.13795777116E+02 -0.16586679572E+01 -0.15764492275E+01  0.13984271094E+02  0.51100000000E-03 0.  1.
         12    1    3    3    0    0 -0.14169587979E+02  0.31882709179E+02 -0.15648346538E+01  0.34924677172E+02  0.00000000000E+00 0. -1.
</event>
<event>
 7    1  0.3528441E-013  0.5930195E+02  0.7816164E-02  0.1266605E+00
        -11   -1    0    0    0    0  0.00000000000E+00  0.00000000000E+00  0.45593999997E+02  0.45594000000E+02  0.51100000000E-03 0.  1.
         11   -1    0    0    0    0 -0.00000000000E+00 -0.00000000000E+00 -0.45593999997E+02  0.45594000000E+02  0.51100000000E-03 0. -1.
    9900012    2    1    2    0    0 -0.30389276018E+02  0.40252996714E+01 -0.87754855213E+01  0.59301948496E+02  0.50000008149E+02 0.  0.
        -12    1    1    2    0    0  0.30389276018E+02 -0.40252996714E+01  0.87754855213E+01  0.31886051504E+02  0.00000000000E+00 0.  1.
         11    1    3    3    0    0  0.28006191180E+01  0.58784709055E+01  0.32726072284E+01  0.72876502361E+01  0.51100000000E-03 0. -1.
        -11    1    3    3    0    0 -0.49034343512E+01 -0.15260253208E+02  0.44430188345E+01  0.16633081886E+02  0.51100000000E-03 0.  1.
         12    1    3    3    0    0 -0.28286460785E+02  0.13407081974E+02 -0.16491111584E+02  0.35381216374E+02  0.00000000000E+00 0. -1.
</event>
<event>
 7    1  0.3528441E-013  0.5930190E+02  0.7816164E-02  0.1266605E+00
        -11   -1    0    0    0    0  0.00000000000E+00  0.00000000000E+00  0.45593999997E+02  0.45594000000E+02  0.51100000000E-03 0.  1.
         11   -1    0    0    0    0 -0.00000000000E+00 -0.00000000000E+00 -0.45593999997E+02  0.45594000000E+02  0.51100000000E-03 0. -1.
    9900012    2    1    2    0    0 -0.12560253233E+02  0.28295311405E+02 -0.76379912442E+01  0.59301897714E+02  0.49999915534E+02 0.  0.
        -12    1    1    2    0    0  0.12560253233E+02 -0.28295311405E+02  0.76379912442E+01  0.31886102286E+02  0.00000000000E+00 0.  1.
         11    1    3    3    0    0  0.84723112751E+01 -0.56017442820E+01  0.92181224936E-02  0.10156755514E+02  0.51100000000E-03 0. -1.
        -11    1    3    3    0    0  0.55643951717E+01  0.76680975630E+01  0.35983986742E+01  0.10134628121E+02  0.51100000000E-03 0.  1.
         12    1    3    3    0    0 -0.26596959679E+02  0.26228958124E+02 -0.11245608041E+02  0.39010514079E+02  0.00000000000E+00 0. -1.
</event>
<event>
 7    1  0.3528441E-013  0.5930193E+02  0.7816164E-02  0.1266605E+00
        -11   -1    0    0    0    0  0.00000000000E+00  0.00000000000E+00  0.45593999997E+02  0.45594000000E+02  0.51100000000E-03 0. -1.
         11   -1    0    0    0    0 -0.00000000000E+00 -0.00000000000E+00 -0.45593999997E+02  0.45594000000E+02  0.51100000000E-03 0.  1.
    9900012    2    1    2    0    0  0.58660671827E+01  0.62138542845E+01  0.30719681879E+02  0.59301928056E+02  0.49999970872E+02 0.  0.
        -12    1    1    2    0    0 -0.58660671827E+01 -0.62138542845E+01 -0.30719681879E+02  0.31886071944E+02  0.00000000000E+00 0.  1.
         11    1    3    3    0    0  0.66245875965E+00 -0.10449706347E+02  0.18056706320E+02  0.20872945594E+02  0.51100000000E-03 0. -1.
        -11    1    3    3    0    0  0.60947164029E+01 -0.28547210078E+01 -0.76875160433E+01  0.10217284534E+02  0.51100000000E-03 0.  1.
         12    1    3    3    0    0 -0.89110797979E+00  0.19518281640E+02  0.20350491602E+02  0.28211697929E+02  0.00000000000E+00 0. -1.
</event>
<event>
 7    1  0.3528441E-013  0.5930196E+02  0.7816164E-02  0.1266605E+00
        -11   -1    0    0    0    0  0.00000000000E+00  0.00000000000E+00  0.45593999997E+02  0.45594000000E+02  0.51100000000E-03 0. -1.
         11   -1    0    0    0    0 -0.00000000000E+00 -0.00000000000E+00 -0.45593999997E+02  0.45594000000E+02  0.51100000000E-03 0.  1.
    9900012    2    1    2    0    0  0.29461981667E+02 -0.25010750699E+01  0.11935478468E+02  0.59301962515E+02  0.50000033716E+02 0.  0.
        -12    1    1    2    0    0 -0.29461981667E+02  0.25010750699E+01 -0.11935478468E+02  0.31886037485E+02  0.00000000000E+00 0.  1.
         11    1    3    3    0    0  0.14760359916E+02  0.20377478355E+02  0.43519288662E+01  0.25535252771E+02  0.51100000000E-03 0. -1.
        -11    1    3    3    0    0 -0.68007636742E+00  0.24084643300E+01 -0.13585478366E+01  0.28476054466E+01  0.51100000000E-03 0.  1.
         12    1    3    3    0    0  0.15381698118E+02 -0.25287017755E+02  0.89420974380E+01  0.30919104297E+02  0.00000000000E+00 0. -1.
</event>
<event>
 7    1  0.3528441E-013  0.5930209E+02  0.7816164E-02  0.1266604E+00
        -11   -1    0    0    0    0  0.00000000000E+00  0.00000000000E+00  0.45593999997E+02  0.45594000000E+02  0.51100000000E-03 0.  1.
         11   -1    0    0    0    0 -0.00000000000E+00 -0.00000000000E+00 -0.45593999997E+02  0.45594000000E+02  0.51100000000E-03 0. -1.
    9900012    2    1    2    0    0 -0.48208899965E+01  0.65762934657E+01 -0.30825686593E+02  0.59302085083E+02  0.50000257251E+02 0.  0.
        -12    1    1    2    0    0  0.48208899965E+01 -0.65762934657E+01  0.30825686593E+02  0.31885914917E+02  0.00000000000E+00 0.  1.
         11    1    3    3    0    0 -0.70656103055E+01  0.30728188782E+01 -0.19916300753E+02  0.21354720808E+02  0.51100000000E-03 0. -1.
        -11    1    3    3    0    0 -0.16020571213E+02 -0.79360645002E+00  0.38803826400E+00  0.16044908449E+02  0.51100000000E-03 0.  1.
        -12    1    3    3    0    0  0.18265291522E+02  0.42970810375E+01 -0.11297424104E+02  0.21902455826E+02  0.00000000000E+00 0.  1.
</event>
<event>
 7    1  0.3528441E-013  0.5930194E+02  0.7816164E-02  0.1266605E+00
        -11   -1    0    0    0    0  0.00000000000E+00  0.00000000000E+00  0.45593999997E+02  0.45594000000E+02  0.51100000000E-03 0.  1.
         11   -1    0    0    0    0 -0.00000000000E+00 -0.00000000000E+00 -0.45593999997E+02  0.45594000000E+02  0.51100000000E-03 0. -1.
    9900012    2    1    2    0    0 -0.13815302213E+02  0.67124906407E+01 -0.27942808118E+02  0.59301942995E+02  0.49999998116E+02 0.  0.
        -12    1    1    2    0    0  0.13815302213E+02 -0.67124906407E+01  0.27942808118E+02  0.31886057005E+02  0.00000000000E+00 0.  1.
         11    1    3    3    0    0 -0.31992572116E+01  0.15409750859E+02 -0.64902770287E+01  0.17024081896E+02  0.51100000000E-03 0. -1.
        -11    1    3    3    0    0 -0.22227142329E+02 -0.52826547378E+00 -0.12974771452E+02  0.25742370035E+02  0.51100000000E-03 0.  1.
        -12    1    3    3    0    0  0.11611097327E+02 -0.81689947441E+01 -0.84777596367E+01  0.16535491064E+02  0.00000000000E+00 0.  1.
</event>
<event>
 7    1  0.3528441E-013  0.5930194E+02  0.7816164E-02  0.1266605E+00
        -11   -1    0    0    0    0  0.00000000000E+00  0.00000000000E+00  0.45593999997E+02  0.45594000000E+02  0.51100000000E-03 0.  1.
         11   -1    0    0    0    0 -0.00000000000E+00 -0.00000000000E+00 -0.45593999997E+02  0.45594000000E+02  0.51100000000E-03 0. -1.
    9900012    2    1    2    0    0  0.13509977973E+02  0.58936828492E+01 -0.28274828793E+02  0.59301938067E+02  0.49999989128E+02 0.  0.
        -12    1    1    2    0    0 -0.13509977973E+02 -0.58936828492E+01  0.28274828793E+02  0.31886061933E+02  0.00000000000E+00 0.  1.
         11    1    3    3    0    0 -0.72367680838E+00  0.13562089001E+01  0.36976498835E+01  0.40044507271E+01  0.51100000000E-03 0. -1.
        -11    1    3    3    0    0  0.53185924726E+01  0.23125942509E+02 -0.11990291394E+02  0.26586909011E+02  0.51100000000E-03 0.  1.
         12    1    3    3    0    0  0.89150623089E+01 -0.18588468559E+02 -0.19982187282E+02  0.28710578328E+02  0.00000000000E+00 0. -1.
</event>
<event>
 7    1  0.3528441E-013  0.5930194E+02  0.7816164E-02  0.1266605E+00
        -11   -1    0    0    0    0  0.00000000000E+00  0.00000000000E+00  0.45593999997E+02  0.45594000000E+02  0.51100000000E-03 0.  1.
         11   -1    0    0    0    0 -0.00000000000E+00 -0.00000000000E+00 -0.45593999997E+02  0.45594000000E+02  0.51100000000E-03 0. -1.
    9900012    2    1    2    0    0  0.98824137854E+01 -0.26107596129E+02 -0.15409491301E+02  0.59301935646E+02  0.49999984713E+02 0.  0.
        -12    1    1    2    0    0 -0.98824137854E+01  0.26107596129E+02  0.15409491301E+02  0.31886064354E+02  0.00000000000E+00 0.  1.
         11    1    3    3    0    0 -0.49760940799E+01 -0.14516169715E+02  0.10599822867E+02  0.18650387142E+02  0.51100000000E-03 0.  1.
        -11    1    3    3    0    0 -0.53802318023E+01  0.30656560208E+01 -0.41822014533E+01  0.74723457054E+01  0.51100000000E-03 0. -1.
        -12    1    3    3    0    0  0.20238739668E+02 -0.14657082435E+02 -0.21827112715E+02  0.33179202798E+02  0.00000000000E+00 0.  1.
</event>
<event>
 7    1  0.3528441E-013  0.5930185E+02  0.7816164E-02  0.1266605E+00
        -11   -1    0    0    0    0  0.00000000000E+00  0.00000000000E+00  0.45593999997E+02  0.45594000000E+02  0.51100000000E-03 0. -1.
         11   -1    0    0    0    0 -0.00000000000E+00 -0.00000000000E+00 -0.45593999997E+02  0.45594000000E+02  0.51100000000E-03 0.  1.
    9900012    2    1    2    0    0 -0.23937544809E+02  0.21064419453E+02  0.10465367770E+00  0.59301846724E+02  0.49999822541E+02 0.  0.
        -12    1    1    2    0    0  0.23937544809E+02 -0.21064419453E+02 -0.10465367770E+00  0.31886153276E+02  0.00000000000E+00 0.  1.
         11    1    3    3    0    0 -0.22525702982E+02  0.69838155767E+01  0.15754840342E+01  0.23636055616E+02  0.51100000000E-03 0. -1.
        -11    1    3    3    0    0 -0.15983732309E+02  0.40512059442E+01 -0.57550342279E+01  0.17464603841E+02  0.51100000000E-03 0.  1.
         12    1    3    3    0    0  0.14571890482E+02  0.10029397932E+02  0.42842038715E+01  0.18201187267E+02  0.00000000000E+00 0. -1.
</event>
<event>
 7    1  0.3528441E-013  0.5930195E+02  0.7816164E-02  0.1266605E+00
        -11   -1    0    0    0    0  0.00000000000E+00  0.00000000000E+00  0.45593999997E+02  0.45594000000E+02  0.51100000000E-03 0.  1.
         11   -1    0    0    0    0 -0.00000000000E+00 -0.00000000000E+00 -0.45593999997E+02  0.45594000000E+02  0.51100000000E-03 0. -1.
    9900012    2    1    2    0    0  0.56431930098E+01 -0.17984682315E+02 -0.25718200982E+02  0.59301948393E+02  0.50000007962E+02 0.  0.
        -12    1    1    2    0    0 -0.56431930098E+01  0.17984682315E+02  0.25718200982E+02  0.31886051607E+02  0.00000000000E+00 0.  1.
         11    1    3    3    0    0  0.49314435400E+01 -0.12238201465E+02 -0.18398728624E+02  0.22640802233E+02  0.51100000000E-03 0. -1.
        -11    1    3    3    0    0  0.15366367332E+02 -0.64768670646E+01 -0.12775397710E+02  0.21006804585E+02  0.51100000000E-03 0.  1.
         12    1    3    3    0    0 -0.14654617863E+02  0.73038621465E+00  0.54559253519E+01  0.15654341576E+02  0.00000000000E+00 0. -1.
</event>
<event>
 7    1  0.3528441E-013  0.5930194E+02  0.7816164E-02  0.1266605E+00
        -11   -1    0    0    0    0  0.00000000000E+00  0.00000000000E+00  0.45593999997E+02  0.45594000000E+02  0.51100000000E-03 0.  1.
         11   -1    0    0    0    0 -0.00000000000E+00 -0.00000000000E+00 -0.45593999997E+02  0.45594000000E+02  0.51100000000E-03 0. -1.
    9900012    2    1    2    0    0 -0.63769903799E+01  0.44918932904E+01 -0.30917272333E+02  0.59301939721E+02  0.49999992145E+02 0.  0.
        -12    1    1    2    0    0  0.63769903799E+01 -0.44918932904E+01  0.30917272333E+02  0.31886060279E+02  0.00000000000E+00 0.  1.
         11    1    3    3    0    0 -0.10741373549E+02  0.17019436965E+02 -0.12484215894E+02  0.23683200524E+02  0.51100000000E-03 0. -1.
        -11    1    3    3    0    0  0.48207864766E+01 -0.14539170082E+02  0.16716413639E+01  0.15408498760E+02  0.51100000000E-03 0.  1.
         12    1    3    3    0    0 -0.45640330801E+00  0.20116264074E+01 -0.20104697803E+02  0.20210240437E+02  0.00000000000E+00 0. -1.
</event>
<event>
 7    1  0.3528441E-013  0.5930194E+02  0.7816164E-02  0.1266605E+00
        -11   -1    0    0    0    0  0.00000000000E+00  0.00000000000E+00  0.45593999997E+02  0.45594000000E+02  0.51100000000E-03 0.  1.
         11   -1    0    0    0    0 -0.00000000000E+00 -0.00000000000E+00 -0.45593999997E+02  0.45594000000E+02  0.51100000000E-03 0. -1.
    9900012    2    1    2    0    0  0.17033124834E+02  0.38466303116E+01 -0.26679525653E+02  0.59301937285E+02  0.49999987704E+02 0.  0.
        -12    1    1    2    0    0 -0.17033124834E+02 -0.38466303116E+01  0.26679525653E+02  0.31886062715E+02  0.00000000000E+00 0.  1.
         11    1    3    3    0    0  0.15086350410E+02 -0.86018664520E+01 -0.28132259690E+02  0.33060763916E+02  0.51100000000E-03 0. -1.
        -11    1    3    3    0    0  0.84930821859E+01 -0.19943689330E+01 -0.38291361133E+01  0.95274464623E+01  0.51100000000E-03 0.  1.
        -12    1    3    3    0    0 -0.65463077622E+01  0.14442865697E+02  0.52818701503E+01  0.16713726907E+02  0.00000000000E+00 0.  1.
</event>
<event>
 7    1  0.3528441E-013  0.5930191E+02  0.7816164E-02  0.1266605E+00
        -11   -1    0    0    0    0  0.00000000000E+00  0.00000000000E+00  0.45593999997E+02  0.45594000000E+02  0.51100000000E-03 0. -1.
         11   -1    0    0    0    0 -0.00000000000E+00 -0.00000000000E+00 -0.45593999997E+02  0.45594000000E+02  0.51100000000E-03 0.  1.
    9900012    2    1    2    0    0  0.34385901576E+00 -0.35032314845E+01  0.31691196344E+02  0.59301909058E+02  0.49999936223E+02 0.  0.
        -12    1    1    2    0    0 -0.34385901576E+00  0.35032314845E+01 -0.31691196344E+02  0.31886090942E+02  0.00000000000E+00 0.  1.
         11    1    3    3    0    0 -0.12589428815E+02 -0.14196515726E+02  0.43028894410E+01  0.19456352034E+02  0.51100000000E-03 0. -1.
        -11    1    3    3    0    0  0.10241758232E+01 -0.63232388160E+01  0.13642627888E+01  0.65493128234E+01  0.51100000000E-03 0.  1.
        -12    1    3    3    0    0  0.11909112008E+02  0.17016523058E+02  0.26024044114E+02  0.33296244201E+02  0.00000000000E+00 0.  1.
</event>
<event>
 7    1  0.3528441E-013  0.5930195E+02  0.7816164E-02  0.1266605E+00
        -11   -1    0    0    0    0  0.00000000000E+00  0.00000000000E+00  0.45593999997E+02  0.45594000000E+02  0.51100000000E-03 0.  1.
         11   -1    0    0    0    0 -0.00000000000E+00 -0.00000000000E+00 -0.45593999997E+02  0.45594000000E+02  0.51100000000E-03 0. -1.
    9900012    2    1    2    0    0 -0.89929106065E+01 -0.12616447129E+02 -0.27868848628E+02  0.59301954413E+02  0.50000018941E+02 0.  0.
        -12    1    1    2    0    0  0.89929106065E+01  0.12616447129E+02  0.27868848628E+02  0.31886045587E+02  0.00000000000E+00 0.  1.
         11    1    3    3    0    0 -0.23381843118E+01  0.82418580874E+01 -0.31033272443E+01  0.91118588035E+01  0.51100000000E-03 0. -1.
        -11    1    3    3    0    0  0.10646439477E+02 -0.12182280234E+01  0.38716027143E+01  0.11393860666E+02  0.51100000000E-03 0.  1.
        -12    1    3    3    0    0 -0.17301165771E+02 -0.19640077193E+02 -0.28637124098E+02  0.38796234943E+02  0.00000000000E+00 0.  1.
</event>
<event>
 7    1  0.3528441E-013  0.5930195E+02  0.7816164E-02  0.1266605E+00
        -11   -1    0    0    0    0  0.00000000000E+00  0.00000000000E+00  0.45593999997E+02  0.45594000000E+02  0.51100000000E-03 0.  1.
         11   -1    0    0    0    0 -0.00000000000E+00 -0.00000000000E+00 -0.45593999997E+02  0.45594000000E+02  0.51100000000E-03 0. -1.
    9900012    2    1    2    0    0  0.53769720522E+01 -0.17862852331E+02 -0.25859751027E+02  0.59301952189E+02  0.50000014885E+02 0.  0.
        -12    1    1    2    0    0 -0.53769720522E+01  0.17862852331E+02  0.25859751027E+02  0.31886047811E+02  0.00000000000E+00 0.  1.
         11    1    3    3    0    0  0.27421832475E+01  0.42512350313E+01 -0.64875603456E+01  0.82268467686E+01  0.51100000000E-03 0. -1.
        -11    1    3    3    0    0  0.60502929737E+01 -0.10541937058E+02  0.12233161230E+02  0.17244962045E+02  0.51100000000E-03 0.  1.
         12    1    3    3    0    0 -0.34155041690E+01 -0.11572150304E+02 -0.31605351911E+02  0.33830143375E+02  0.00000000000E+00 0. -1.
</event>
<event>
 7    1  0.3528441E-013  0.5930194E+02  0.7816164E-02  0.1266605E+00
        -11   -1    0    0    0    0  0.00000000000E+00  0.00000000000E+00  0.45593999997E+02  0.45594000000E+02  0.51100000000E-03 0.  1.
         11   -1    0    0    0    0 -0.00000000000E+00 -0.00000000000E+00 -0.45593999997E+02  0.45594000000E+02  0.51100000000E-03 0. -1.
    9900012    2    1    2    0    0  0.27794658143E+02 -0.15249989352E+02  0.34082168168E+01  0.59301935044E+02  0.49999983615E+02 0.  0.
        -12    1    1    2    0    0 -0.27794658143E+02  0.15249989352E+02 -0.34082168168E+01  0.31886064956E+02  0.00000000000E+00 0.  1.
         11    1    3    3    0    0  0.87085535768E+01 -0.10087721241E+02  0.11816723800E+02  0.17811119754E+02  0.51100000000E-03 0.  1.
        -11    1    3    3    0    0  0.14378422856E+02 -0.19429319313E+02 -0.10442119989E+02  0.26330122729E+02  0.51100000000E-03 0. -1.
         12    1    3    3    0    0  0.47076817100E+01  0.14267051202E+02  0.20336130058E+01  0.15160692561E+02  0.00000000000E+00 0. -1.
</event>
<event>
 7    1  0.3528441E-013  0.5930211E+02  0.7816164E-02  0.1266604E+00
        -11   -1    0    0    0    0  0.00000000000E+00  0.00000000000E+00  0.45593999997E+02  0.45594000000E+02  0.51100000000E-03 0. -1.
         11   -1    0    0    0    0 -0.00000000000E+00 -0.00000000000E+00 -0.45593999997E+02  0.45594000000E+02  0.51100000000E-03 0.  1.
    9900012    2    1    2    0    0 -0.27852039890E+02  0.45325298890E+01  0.14846890422E+02  0.59302108003E+02  0.50000299051E+02 0.  0.
        -12    1    1    2    0    0  0.27852039890E+02 -0.45325298890E+01 -0.14846890422E+02  0.31885891997E+02  0.00000000000E+00 0.  1.
         11    1    3    3    0    0 -0.31796149968E+02  0.73211204548E+01  0.27479091572E+01  0.32743624761E+02  0.51100000000E-03 0. -1.
        -11    1    3    3    0    0 -0.77493178735E+01  0.37856298386E+01  0.19998718560E+00  0.86268717340E+01  0.51100000000E-03 0.  1.
         12    1    3    3    0    0  0.11693427951E+02 -0.65742204044E+01  0.11898994079E+02  0.17931611508E+02  0.00000000000E+00 0. -1.
</event>
<event>
 7    1  0.3528441E-013  0.5930195E+02  0.7816164E-02  0.1266605E+00
        -11   -1    0    0    0    0  0.00000000000E+00  0.00000000000E+00  0.45593999997E+02  0.45594000000E+02  0.51100000000E-03 0.  1.
         11   -1    0    0    0    0 -0.00000000000E+00 -0.00000000000E+00 -0.45593999997E+02  0.45594000000E+02  0.51100000000E-03 0. -1.
    9900012    2    1    2    0    0 -0.22173708475E+02 -0.19217878255E+02  0.12478774851E+02  0.59301952676E+02  0.50000015773E+02 0.  0.
        -12    1    1    2    0    0  0.22173708475E+02  0.19217878255E+02 -0.12478774851E+02  0.31886047324E+02  0.00000000000E+00 0.  1.
         11    1    3    3    0    0 -0.17036432359E+02  0.67250938310E+01  0.21244689593E+02  0.28050022295E+02  0.51100000000E-03 0. -1.
        -11    1    3    3    0    0 -0.30516683933E+01  0.41347802629E+00  0.72049207476E+00  0.31627129418E+01  0.51100000000E-03 0.  1.
         12    1    3    3    0    0 -0.20856077220E+01 -0.26356450112E+02 -0.94864068168E+01  0.28089217440E+02  0.00000000000E+00 0. -1.
</event>
<event>
 7    1  0.3528441E-013  0.5930191E+02  0.7816164E-02  0.1266605E+00
        -11   -1    0    0    0    0  0.00000000000E+00  0.00000000000E+00  0.45593999997E+02  0.45594000000E+02  0.51100000000E-03 0.  1.
         11   -1    0    0    0    0 -0.00000000000E+00 -0.00000000000E+00 -0.45593999997E+02  0.45594000000E+02  0.51100000000E-03 0. -1.
    9900012    2    1    2    0    0  0.14117076396E+02  0.28551896826E+02  0.14900160160E+01  0.59301908893E+02  0.49999935923E+02 0.  0.
        -12    1    1    2    0    0 -0.14117076396E+02 -0.28551896826E+02 -0.14900160160E+01  0.31886091107E+02  0.00000000000E+00 0.  1.
         11    1    3    3    0    0  0.11044106159E+02 -0.63658593524E+01 -0.25815073998E+01  0.13006176489E+02  0.51100000000E-03 0. -1.
        -11    1    3    3    0    0  0.23110047509E+01 -0.38559536037E+01 -0.47329786184E+01  0.65276495017E+01  0.51100000000E-03 0.  1.
        -12    1    3    3    0    0  0.76196548663E+00  0.38773709782E+02  0.88045020343E+01  0.39768082903E+02  0.00000000000E+00 0.  1.
</event>
<event>
 7    1  0.3528441E-013  0.5930191E+02  0.7816164E-02  0.1266605E+00
        -11   -1    0    0    0    0  0.00000000000E+00  0.00000000000E+00  0.45593999997E+02  0.45594000000E+02  0.51100000000E-03 0. -1.
         11   -1    0    0    0    0 -0.00000000000E+00 -0.00000000000E+00 -0.45593999997E+02  0.45594000000E+02  0.51100000000E-03 0.  1.
    9900012    2    1    2    0    0 -0.36683627231E+01  0.27618538687E+02  0.15507483027E+02  0.59301912216E+02  0.49999941984E+02 0.  0.
        -12    1    1    2    0    0  0.36683627231E+01 -0.27618538687E+02 -0.15507483027E+02  0.31886087784E+02  0.00000000000E+00 0.  1.
         11    1    3    3    0    0  0.59544742741E-01  0.79576170359E+01  0.13596736332E+02  0.15754315396E+02  0.51100000000E-03 0. -1.
        -11    1    3    3    0    0 -0.15581049975E+02  0.10622783841E+02 -0.12652008815E+02  0.22708720399E+02  0.51100000000E-03 0.  1.
         12    1    3    3    0    0  0.11853142509E+02  0.90381378102E+01  0.14562755511E+02  0.20838876421E+02  0.00000000000E+00 0. -1.
</event>
<event>
 7    1  0.3528441E-013  0.5930189E+02  0.7816164E-02  0.1266605E+00
        -11   -1    0    0    0    0  0.00000000000E+00  0.00000000000E+00  0.45593999997E+02  0.45594000000E+02  0.51100000000E-03 0. -1.
         11   -1    0    0    0    0 -0.00000000000E+00 -0.00000000000E+00 -0.45593999997E+02  0.45594000000E+02  0.51100000000E-03 0.  1.
    9900012    2    1    2    0    0 -0.22873947289E+02 -0.11662181992E+02  0.18907668936E+02  0.59301891771E+02  0.49999904696E+02 0.  0.
        -12    1    1    2    0    0  0.22873947289E+02  0.11662181992E+02 -0.18907668936E+02  0.31886108229E+02  0.00000000000E+00 0.  1.
         11    1    3    3    0    0 -0.67684737679E+00  0.38070644822E+01  0.43450727706E+01  0.58164869110E+01  0.51100000000E-03 0. -1.
        -11    1    3    3    0    0  0.48517405211E+01 -0.97013370342E+01 -0.11269070068E+02  0.15641204135E+02  0.51100000000E-03 0.  1.
         12    1    3    3    0    0 -0.27048840434E+02 -0.57679094403E+01  0.25831666233E+02  0.37844200725E+02  0.00000000000E+00 0. -1.
</event>
<event>
 7    1  0.3528441E-013  0.5930192E+02  0.7816164E-02  0.1266605E+00
        -11   -1    0    0    0    0  0.00000000000E+00  0.00000000000E+00  0.45593999997E+02  0.45594000000E+02  0.51100000000E-03 0.  1.
         11   -1    0    0    0    0 -0.00000000000E+00 -0.00000000000E+00 -0.45593999997E+02  0.45594000000E+02  0.51100000000E-03 0. -1.
    9900012    2    1    2    0    0  0.15824383222E+02  0.20906848130E+02  0.18144275066E+02  0.59301919640E+02  0.49999955522E+02 0.  0.
        -12    1    1    2    0    0 -0.15824383222E+02 -0.20906848130E+02 -0.18144275066E+02  0.31886080360E+02  0.00000000000E+00 0.  1.
         11    1    3    3    0    0 -0.62509163544E+01  0.19315880945E+02  0.19870968461E+02  0.28408319200E+02  0.51100000000E-03 0.  1.
        -11    1    3    3    0    0 -0.32477432916E+01 -0.33860154674E+01  0.14028809799E+01  0.48970412024E+01  0.51100000000E-03 0. -1.
         12    1    3    3    0    0  0.25323042868E+02  0.49769826525E+01 -0.31295743746E+01  0.25996559237E+02  0.00000000000E+00 0. -1.
</event>
<event>
 7    1  0.3528441E-013  0.5930194E+02  0.7816164E-02  0.1266605E+00
        -11   -1    0    0    0    0  0.00000000000E+00  0.00000000000E+00  0.45593999997E+02  0.45594000000E+02  0.51100000000E-03 0.  1.
         11   -1    0    0    0    0 -0.00000000000E+00 -0.00000000000E+00 -0.45593999997E+02  0.45594000000E+02  0.51100000000E-03 0. -1.
    9900012    2    1    2    0    0 -0.11832936953E+02  0.27960919890E+02 -0.97411216748E+01  0.59301938947E+02  0.49999990733E+02 0.  0.
        -12    1    1    2    0    0  0.11832936953E+02 -0.27960919890E+02  0.97411216748E+01  0.31886061053E+02  0.00000000000E+00 0.  1.
         11    1    3    3    0    0 -0.14391281965E+02  0.60962788685E+01 -0.66998832006E+01  0.17004765444E+02  0.51100000000E-03 0. -1.
        -11    1    3    3    0    0 -0.70024150744E+01  0.23878439103E+02 -0.13228602466E+02  0.28181724475E+02  0.51100000000E-03 0.  1.
        -12    1    3    3    0    0  0.95607600867E+01 -0.20137980821E+01  0.10187363992E+02  0.14115449028E+02  0.00000000000E+00 0.  1.
</event>
<event>
 7    1  0.3528441E-013  0.5930192E+02  0.7816164E-02  0.1266605E+00
        -11   -1    0    0    0    0  0.00000000000E+00  0.00000000000E+00  0.45593999997E+02  0.45594000000E+02  0.51100000000E-03 0.  1.
         11   -1    0    0    0    0 -0.00000000000E+00 -0.00000000000E+00 -0.45593999997E+02  0.45594000000E+02  0.51100000000E-03 0. -1.
    9900012    2    1    2    0    0 -0.13160807070E+02  0.53914806519E+01 -0.28538516127E+02  0.59301924526E+02  0.49999964434E+02 0.  0.
        -12    1    1    2    0    0  0.13160807070E+02 -0.53914806519E+01  0.28538516127E+02  0.31886075474E+02  0.00000000000E+00 0.  1.
         11    1    3    3    0    0 -0.92185167532E+01  0.54873067396E+00  0.56687048588E+01  0.10835883514E+02  0.51100000000E-03 0. -1.
        -11    1    3    3    0    0 -0.13009566617E+02  0.11868748045E+01 -0.18279199146E+00  0.13064873077E+02  0.51100000000E-03 0.  1.
         12    1    3    3    0    0  0.90672762999E+01  0.36558751734E+01 -0.34024428995E+02  0.35401167936E+02  0.00000000000E+00 0. -1.
</event>
<event>
 7    1  0.3528441E-013  0.5930173E+02  0.7816164E-02  0.1266605E+00
        -11   -1    0    0    0    0  0.00000000000E+00  0.00000000000E+00  0.45593999997E+02  0.45594000000E+02  0.51100000000E-03 0.  1.
         11   -1    0    0    0    0 -0.00000000000E+00 -0.00000000000E+00 -0.45593999997E+02  0.45594000000E+02  0.51100000000E-03 0. -1.
    9900012    2    1    2    0    0  0.21842121558E+02 -0.23115347468E+02  0.23101049515E+01  0.59301731049E+02  0.49999611577E+02 0.  0.
        -12    1    1    2    0    0 -0.21842121558E+02  0.23115347468E+02 -0.23101049515E+01  0.31886268951E+02  0.00000000000E+00 0.  1.
         11    1    3    3    0    0 -0.98603526852E+01  0.24690091618E+01 -0.96494414051E+00  0.10210469077E+02  0.51100000000E-03 0. -1.
        -11    1    3    3    0    0  0.50013812963E+01 -0.82065565583E+01  0.12646145712E+02  0.15883525649E+02  0.51100000000E-03 0.  1.
        -12    1    3    3    0    0  0.26701092947E+02 -0.17377800072E+02 -0.93710966197E+01  0.33207736323E+02  0.00000000000E+00 0.  1.
</event>
<event>
 7    1  0.3528441E-013  0.5930193E+02  0.7816164E-02  0.1266605E+00
        -11   -1    0    0    0    0  0.00000000000E+00  0.00000000000E+00  0.45593999997E+02  0.45594000000E+02  0.51100000000E-03 0.  1.
         11   -1    0    0    0    0 -0.00000000000E+00 -0.00000000000E+00 -0.45593999997E+02  0.45594000000E+02  0.51100000000E-03 0. -1.
    9900012    2    1    2    0    0  0.90823758650E+01  0.62296853131E+01 -0.29923620648E+02  0.59301927756E+02  0.49999970325E+02 0.  0.
        -12    1    1    2    0    0 -0.90823758650E+01 -0.62296853131E+01  0.29923620648E+02  0.31886072244E+02  0.00000000000E+00 0.  1.
         11    1    3    3    0    0  0.16056452785E+02  0.99575819411E+01 -0.17444925284E+02  0.25715530960E+02  0.51100000000E-03 0. -1.
        -11    1    3    3    0    0  0.11578505013E+02 -0.30931986499E+01 -0.16559446460E+01  0.12098421763E+02  0.51100000000E-03 0.  1.
        -12    1    3    3    0    0 -0.18552581933E+02 -0.63469797816E+00 -0.10822750718E+02  0.21487975033E+02  0.00000000000E+00 0.  1.
</event>
<event>
 7    1  0.3528441E-013  0.5930192E+02  0.7816164E-02  0.1266605E+00
        -11   -1    0    0    0    0  0.00000000000E+00  0.00000000000E+00  0.45593999997E+02  0.45594000000E+02  0.51100000000E-03 0.  1.
         11   -1    0    0    0    0 -0.00000000000E+00 -0.00000000000E+00 -0.45593999997E+02  0.45594000000E+02  0.51100000000E-03 0. -1.
    9900012    2    1    2    0    0  0.13892082661E+02 -0.25693794418E+02 -0.12789089914E+02  0.59301923837E+02  0.49999963177E+02 0.  0.
        -12    1    1    2    0    0 -0.13892082661E+02  0.25693794418E+02  0.12789089914E+02  0.31886076163E+02  0.00000000000E+00 0.  1.
         11    1    3    3    0    0  0.40057958063E+01 -0.32100099767E+01  0.11249654252E+02  0.12365487663E+02  0.51100000000E-03 0. -1.
        -11    1    3    3    0    0  0.16611469226E+02 -0.13409216338E+02 -0.11105355106E+01  0.21377120527E+02  0.51100000000E-03 0.  1.
        -12    1    3    3    0    0 -0.67251823716E+01 -0.90745681034E+01 -0.22928208655E+02  0.25559315647E+02  0.00000000000E+00 0.  1.
</event>
<event>
 7    1  0.3528441E-013  0.5930196E+02  0.7816164E-02  0.1266605E+00
        -11   -1    0    0    0    0  0.00000000000E+00  0.00000000000E+00  0.45593999997E+02  0.45594000000E+02  0.51100000000E-03 0.  1.
         11   -1    0    0    0    0 -0.00000000000E+00 -0.00000000000E+00 -0.45593999997E+02  0.45594000000E+02  0.51100000000E-03 0. -1.
    9900012    2    1    2    0    0 -0.84185155905E+01  0.28040002269E+02  0.12633543568E+02  0.59301959872E+02  0.50000028895E+02 0.  0.
        -12    1    1    2    0    0  0.84185155905E+01 -0.28040002269E+02 -0.12633543568E+02  0.31886040128E+02  0.00000000000E+00 0.  1.
         11    1    3    3    0    0  0.72699073537E+01 -0.18966499267E+01  0.83292171227E+00  0.75592719700E+01  0.51100000000E-03 0. -1.
        -11    1    3    3    0    0  0.12067057282E+02  0.50097460657E+01  0.26655955027E+01  0.13334797589E+02  0.51100000000E-03 0.  1.
         12    1    3    3    0    0 -0.27755480226E+02  0.24926906130E+02  0.91350263533E+01  0.38407890313E+02  0.00000000000E+00 0. -1.
</event>
<event>
 7    1  0.3528441E-013  0.5930196E+02  0.7816164E-02  0.1266605E+00
        -11   -1    0    0    0    0  0.00000000000E+00  0.00000000000E+00  0.45593999997E+02  0.45594000000E+02  0.51100000000E-03 0.  1.
         11   -1    0    0    0    0 -0.00000000000E+00 -0.00000000000E+00 -0.45593999997E+02  0.45594000000E+02  0.51100000000E-03 0. -1.
    9900012    2    1    2    0    0 -0.22309490220E+02 -0.21724931323E+02 -0.68581111640E+01  0.59301957856E+02  0.50000025220E+02 0.  0.
        -12    1    1    2    0    0  0.22309490220E+02  0.21724931323E+02  0.68581111640E+01  0.31886042144E+02  0.00000000000E+00 0.  1.
         11    1    3    3    0    0 -0.15761503623E+02 -0.12559290895E+02 -0.70149501342E+01  0.21339407440E+02  0.51100000000E-03 0. -1.
        -11    1    3    3    0    0  0.53096294440E+01 -0.12245457829E+02 -0.13931002519E+02  0.19292906306E+02  0.51100000000E-03 0.  1.
        -12    1    3    3    0    0 -0.11857616041E+02  0.30798174004E+01  0.14087841489E+02  0.18669644111E+02  0.00000000000E+00 0.  1.
</event>
<event>
 7    1  0.3528441E-013  0.5930195E+02  0.7816164E-02  0.1266605E+00
        -11   -1    0    0    0    0  0.00000000000E+00  0.00000000000E+00  0.45593999997E+02  0.45594000000E+02  0.51100000000E-03 0. -1.
         11   -1    0    0    0    0 -0.00000000000E+00 -0.00000000000E+00 -0.45593999997E+02  0.45594000000E+02  0.51100000000E-03 0.  1.
    9900012    2    1    2    0    0 -0.31217460373E+02 -0.32334907500E+01 -0.56333971760E+01  0.59301945708E+02  0.50000003065E+02 0.  0.
        -12    1    1    2    0    0  0.31217460373E+02  0.32334907500E+01  0.56333971760E+01  0.31886054292E+02  0.00000000000E+00 0.  1.
         11    1    3    3    0    0 -0.24365315268E+02 -0.76279719910E+00 -0.10085549910E+02  0.26381219928E+02  0.51100000000E-03 0. -1.
        -11    1    3    3    0    0  0.11539079661E+02 -0.27421491147E+01 -0.42157928709E+01  0.12587400486E+02  0.51100000000E-03 0.  1.
         12    1    3    3    0    0 -0.18391224766E+02  0.27145556384E+00  0.86679456048E+01  0.20333325294E+02  0.00000000000E+00 0. -1.
</event>
<event>
 7    1  0.3528441E-013  0.5930195E+02  0.7816164E-02  0.1266605E+00
        -11   -1    0    0    0    0  0.00000000000E+00  0.00000000000E+00  0.45593999997E+02  0.45594000000E+02  0.51100000000E-03 0. -1.
         11   -1    0    0    0    0 -0.00000000000E+00 -0.00000000000E+00 -0.45593999997E+02  0.45594000000E+02  0.51100000000E-03 0.  1.
    9900012    2    1    2    0    0  0.22541094728E+01 -0.30432335835E+02  0.92472801051E+01  0.59301948767E+02  0.50000008643E+02 0.  0.
        -12    1    1    2    0    0 -0.22541094728E+01  0.30432335835E+02 -0.92472801051E+01  0.31886051233E+02  0.00000000000E+00 0.  1.
         11    1    3    3    0    0  0.44439295697E+01  0.61242644261E+01  0.96171772794E+01  0.12237043101E+02  0.51100000000E-03 0. -1.
        -11    1    3    3    0    0 -0.13619503850E+02 -0.82054360866E+01  0.34155468625E+01  0.16263026383E+02  0.51100000000E-03 0.  1.
        -12    1    3    3    0    0  0.11429683753E+02 -0.28351164175E+02 -0.37854440369E+01  0.30801879282E+02  0.00000000000E+00 0.  1.
</event>
<event>
 7    1  0.3528441E-013  0.5930198E+02  0.7816164E-02  0.1266605E+00
        -11   -1    0    0    0    0  0.00000000000E+00  0.00000000000E+00  0.45593999997E+02  0.45594000000E+02  0.51100000000E-03 0.  1.
         11   -1    0    0    0    0 -0.00000000000E+00 -0.00000000000E+00 -0.45593999997E+02  0.45594000000E+02  0.51100000000E-03 0. -1.
    9900012    2    1    2    0    0  0.78956253872E+01 -0.27104541476E+02  0.14822995350E+02  0.59301980179E+02  0.50000065932E+02 0.  0.
        -12    1    1    2    0    0 -0.78956253872E+01  0.27104541476E+02 -0.14822995350E+02  0.31886019821E+02  0.00000000000E+00 0.  1.
         11    1    3    3    0    0 -0.54193005179E+01 -0.30841528904E+01 -0.34924519876E+00  0.62452213431E+01  0.51100000000E-03 0. -1.
        -11    1    3    3    0    0 -0.67717358748E+01  0.55950923072E+01  0.14869955785E+02  0.17270699175E+02  0.51100000000E-03 0.  1.
        -12    1    3    3    0    0  0.20086661780E+02 -0.29615480893E+02  0.30228476321E+00  0.35786059661E+02  0.00000000000E+00 0.  1.
</event>
<event>
 7    1  0.3528441E-013  0.5930201E+02  0.7816164E-02  0.1266605E+00
        -11   -1    0    0    0    0  0.00000000000E+00  0.00000000000E+00  0.45593999997E+02  0.45594000000E+02  0.51100000000E-03 0. -1.
         11   -1    0    0    0    0 -0.00000000000E+00 -0.00000000000E+00 -0.45593999997E+02  0.45594000000E+02  0.51100000000E-03 0.  1.
    9900012    2    1    2    0    0  0.26539244634E+01 -0.30835311393E+02  0.76718023721E+01  0.59302010986E+02  0.50000122116E+02 0.  0.
        -12    1    1    2    0    0 -0.26539244634E+01  0.30835311393E+02 -0.76718023721E+01  0.31885989014E+02  0.00000000000E+00 0.  1.
         11    1    3    3    0    0  0.73480187135E+01 -0.15973451412E+02 -0.25332524675E+01  0.17764061961E+02  0.51100000000E-03 0. -1.
        -11    1    3    3    0    0  0.11014575936E+01  0.21007956360E+01 -0.12435872133E+02  0.12660073741E+02  0.51100000000E-03 0.  1.
         12    1    3    3    0    0 -0.57955518437E+01 -0.16962655617E+02  0.22640926973E+02  0.28877875285E+02  0.00000000000E+00 0. -1.
</event>
<event>
 7    1  0.3528441E-013  0.5930192E+02  0.7816164E-02  0.1266605E+00
        -11   -1    0    0    0    0  0.00000000000E+00  0.00000000000E+00  0.45593999997E+02  0.45594000000E+02  0.51100000000E-03 0.  1.
         11   -1    0    0    0    0 -0.00000000000E+00 -0.00000000000E+00 -0.45593999997E+02  0.45594000000E+02  0.51100000000E-03 0. -1.
    9900012    2    1    2    0    0 -0.20324822362E+02 -0.21197541678E+02 -0.12421256373E+02  0.59301924871E+02  0.49999965063E+02 0.  0.
        -12    1    1    2    0    0  0.20324822362E+02  0.21197541678E+02  0.12421256373E+02  0.31886075129E+02  0.00000000000E+00 0.  1.
         11    1    3    3    0    0  0.84989351955E+00  0.11859407682E+02  0.39035800352E+01  0.12514224184E+02  0.51100000000E-03 0. -1.
        -11    1    3    3    0    0 -0.34929726056E+01 -0.49447529179E+01  0.45395937417E+01  0.75669908579E+01  0.51100000000E-03 0.  1.
         12    1    3    3    0    0 -0.17681743276E+02 -0.28112196442E+02 -0.20864430150E+02  0.39220709830E+02  0.00000000000E+00 0. -1.
</event>
<event>
 7    1  0.3528441E-013  0.5930200E+02  0.7816164E-02  0.1266605E+00
        -11   -1    0    0    0    0  0.00000000000E+00  0.00000000000E+00  0.45593999997E+02  0.45594000000E+02  0.51100000000E-03 0. -1.
         11   -1    0    0    0    0 -0.00000000000E+00 -0.00000000000E+00 -0.45593999997E+02  0.45594000000E+02  0.51100000000E-03 0.  1.
    9900012    2    1    2    0    0 -0.22724742919E+02 -0.27454543614E+01  0.22198320750E+02  0.59302001435E+02  0.50000104696E+02 0.  0.
        -12    1    1    2    0    0  0.22724742919E+02  0.27454543614E+01 -0.22198320750E+02  0.31885998565E+02  0.00000000000E+00 0.  1.
         11    1    3    3    0    0 -0.21481867966E+02  0.16436373769E+02  0.30418206908E+01  0.27219068819E+02  0.51100000000E-03 0. -1.
        -11    1    3    3    0    0  0.32251643198E+01  0.92080369117E+00 -0.75475704399E+00  0.34379096532E+01  0.51100000000E-03 0.  1.
        -12    1    3    3    0    0 -0.44680392732E+01 -0.20102631822E+02  0.19911257103E+02  0.28645022963E+02  0.00000000000E+00 0.  1.
</event>
<event>
 7    1  0.3528441E-013  0.5930196E+02  0.7816164E-02  0.1266605E+00
        -11   -1    0    0    0    0  0.00000000000E+00  0.00000000000E+00  0.45593999997E+02  0.45594000000E+02  0.51100000000E-03 0. -1.
         11   -1    0    0    0    0 -0.00000000000E+00 -0.00000000000E+00 -0.45593999997E+02  0.45594000000E+02  0.51100000000E-03 0.  1.
    9900012    2    1    2    0    0 -0.19078273347E+02  0.24216514826E+02  0.81424596909E+01  0.59301956751E+02  0.50000023205E+02 0.  0.
        -12    1    1    2    0    0  0.19078273347E+02 -0.24216514826E+02 -0.81424596909E+01  0.31886043249E+02  0.00000000000E+00 0.  1.
         11    1    3    3    0    0 -0.17635308115E+02  0.24996013040E+02  0.17518669599E+02  0.35252071500E+02  0.51100000000E-03 0. -1.
        -11    1    3    3    0    0 -0.39356217010E+01  0.25758681602E+01  0.62794966202E+01  0.78457818614E+01  0.51100000000E-03 0.  1.
        -12    1    3    3    0    0  0.24926564689E+01 -0.33553663741E+01 -0.15655706528E+02  0.16204103390E+02  0.00000000000E+00 0.  1.
</event>
<event>
 7    1  0.3528441E-013  0.5930195E+02  0.7816164E-02  0.1266605E+00
        -11   -1    0    0    0    0  0.00000000000E+00  0.00000000000E+00  0.45593999997E+02  0.45594000000E+02  0.51100000000E-03 0. -1.
         11   -1    0    0    0    0 -0.00000000000E+00 -0.00000000000E+00 -0.45593999997E+02  0.45594000000E+02  0.51100000000E-03 0.  1.
    9900012    2    1    2    0    0  0.78636466572E+01  0.22668396104E+02  0.21000641345E+02  0.59301951992E+02  0.50000014525E+02 0.  0.
        -12    1    1    2    0    0 -0.78636466572E+01 -0.22668396104E+02 -0.21000641345E+02  0.31886048008E+02  0.00000000000E+00 0.  1.
         11    1    3    3    0    0 -0.14243536809E+02  0.58588012983E+00  0.15292206300E+02  0.20906294988E+02  0.51100000000E-03 0. -1.
        -11    1    3    3    0    0  0.43188412416E+01  0.13341614589E+02 -0.61353130508E+01  0.15306636992E+02  0.51100000000E-03 0.  1.
        -12    1    3    3    0    0  0.17788342225E+02  0.87409013851E+01  0.11843748096E+02  0.23089020012E+02  0.00000000000E+00 0.  1.
</event>
<event>
 7    1  0.3528441E-013  0.5930170E+02  0.7816164E-02  0.1266606E+00
        -11   -1    0    0    0    0  0.00000000000E+00  0.00000000000E+00  0.45593999997E+02  0.45594000000E+02  0.51100000000E-03 0.  1.
         11   -1    0    0    0    0 -0.00000000000E+00 -0.00000000000E+00 -0.45593999997E+02  0.45594000000E+02  0.51100000000E-03 0. -1.
    9900012    2    1    2    0    0 -0.10678492733E+02 -0.87068921011E+01 -0.28755793286E+02  0.59301704752E+02  0.49999563617E+02 0.  0.
        -12    1    1    2    0    0  0.10678492733E+02  0.87068921011E+01  0.28755793286E+02  0.31886295248E+02  0.00000000000E+00 0.  1.
         11    1    3    3    0    0 -0.69222877118E+01 -0.12727929178E+02 -0.21693263623E+02  0.26086700351E+02  0.51100000000E-03 0. -1.
        -11    1    3    3    0    0  0.92269182672E+01 -0.33776267525E+01 -0.13703836053E+02  0.16862369526E+02  0.51100000000E-03 0.  1.
         12    1    3    3    0    0 -0.12983123288E+02  0.73986638296E+01  0.66413063902E+01  0.16352634875E+02  0.00000000000E+00 0. -1.
</event>
<event>
 7    1  0.3528441E-013  0.5930193E+02  0.7816164E-02  0.1266605E+00
        -11   -1    0    0    0    0  0.00000000000E+00  0.00000000000E+00  0.45593999997E+02  0.45594000000E+02  0.51100000000E-03 0.  1.
         11   -1    0    0    0    0 -0.00000000000E+00 -0.00000000000E+00 -0.45593999997E+02  0.45594000000E+02  0.51100000000E-03 0. -1.
    9900012    2    1    2    0    0  0.31198474359E+02  0.45273958617E+01 -0.47832628568E+01  0.59301925936E+02  0.49999967005E+02 0.  0.
        -12    1    1    2    0    0 -0.31198474359E+02 -0.45273958617E+01  0.47832628568E+01  0.31886074064E+02  0.00000000000E+00 0.  1.
         11    1    3    3    0    0  0.20744059243E+02 -0.55889687766E+01 -0.41947170675E+01  0.21889454480E+02  0.51100000000E-03 0. -1.
        -11    1    3    3    0    0  0.15056933814E+02 -0.84810852345E+01 -0.45027924250E+01  0.17858197068E+02  0.51100000000E-03 0.  1.
         12    1    3    3    0    0 -0.46025186981E+01  0.18597449873E+02  0.39142466357E+01  0.19554274389E+02  0.00000000000E+00 0. -1.
</event>
<event>
 7    1  0.3528441E-013  0.5930194E+02  0.7816164E-02  0.1266605E+00
        -11   -1    0    0    0    0  0.00000000000E+00  0.00000000000E+00  0.45593999997E+02  0.45594000000E+02  0.51100000000E-03 0.  1.
         11   -1    0    0    0    0 -0.00000000000E+00 -0.00000000000E+00 -0.45593999997E+02  0.45594000000E+02  0.51100000000E-03 0. -1.
    9900012    2    1    2    0    0  0.38655779580E+00  0.17804512371E+02 -0.26449398765E+02  0.59301940621E+02  0.49999993786E+02 0.  0.
        -12    1    1    2    0    0 -0.38655779580E+00 -0.17804512371E+02  0.26449398765E+02  0.31886059379E+02  0.00000000000E+00 0.  1.
         11    1    3    3    0    0  0.47931863524E+01 -0.65020992096E+00 -0.23011005305E+02  0.23513905966E+02  0.51100000000E-03 0. -1.
        -11    1    3    3    0    0 -0.14138599239E+02  0.10872625588E+02 -0.11341959875E+02  0.21136556713E+02  0.51100000000E-03 0.  1.
        -12    1    3    3    0    0  0.97319706827E+01  0.75820967044E+01  0.79035664149E+01  0.14651477942E+02  0.00000000000E+00 0.  1.
</event>
<event>
 7    1  0.3601508E-013  0.5930189E+02  0.7816164E-02  0.1266605E+00
        -11   -1    0    0    0    0  0.00000000000E+00  0.00000000000E+00  0.45593999997E+02  0.45594000000E+02  0.51100000000E-03 0. -1.
         11   -1    0    0    0    0 -0.00000000000E+00 -0.00000000000E+00 -0.45593999997E+02  0.45594000000E+02  0.51100000000E-03 0.  1.
    9900012    2    1    2    0    0 -0.32219403757E+00  0.16125645022E+02  0.27506067233E+02  0.59301890626E+02  0.49999902609E+02 0.  0.
        -12    1    1    2    0    0  0.32219403757E+00 -0.16125645022E+02 -0.27506067233E+02  0.31886109374E+02  0.00000000000E+00 0.  1.
         11    1    3    3    0    0  0.59840382471E+01  0.36725419327E+01  0.35216753730E+02  0.35909831823E+02  0.51100000000E-03 0. -1.
        -11    1    3    3    0    0  0.11378942617E+01 -0.24889491130E+01 -0.60201014796E+01  0.66129640196E+01  0.51100000000E-03 0.  1.
        -12    1    3    3    0    0 -0.74441265463E+01  0.14942052202E+02 -0.16905850181E+01  0.16779094784E+02  0.00000000000E+00 0.  1.
</event>
<event>
 7    1  0.3528441E-013  0.5930194E+02  0.7816164E-02  0.1266605E+00
        -11   -1    0    0    0    0  0.00000000000E+00  0.00000000000E+00  0.45593999997E+02  0.45594000000E+02  0.51100000000E-03 0. -1.
         11   -1    0    0    0    0 -0.00000000000E+00 -0.00000000000E+00 -0.45593999997E+02  0.45594000000E+02  0.51100000000E-03 0.  1.
    9900012    2    1    2    0    0  0.22007267203E+02  0.20632177596E+02 -0.10330249754E+02  0.59301943140E+02  0.49999998382E+02 0.  0.
        -12    1    1    2    0    0 -0.22007267203E+02 -0.20632177596E+02  0.10330249754E+02  0.31886056860E+02  0.00000000000E+00 0.  1.
         11    1    3    3    0    0  0.28840962478E+02 -0.14054547709E+00 -0.23578212754E+01  0.28937522201E+02  0.51100000000E-03 0. -1.
        -11    1    3    3    0    0  0.65507914085E+01  0.88412621038E+01 -0.53765028910E+01  0.12246941139E+02  0.51100000000E-03 0.  1.
        -12    1    3    3    0    0 -0.13384486684E+02  0.11931460969E+02 -0.25959255875E+01  0.18117479800E+02  0.00000000000E+00 0.  1.
</event>
<event>
 7    1  0.3528441E-013  0.5930195E+02  0.7816164E-02  0.1266605E+00
        -11   -1    0    0    0    0  0.00000000000E+00  0.00000000000E+00  0.45593999997E+02  0.45594000000E+02  0.51100000000E-03 0. -1.
         11   -1    0    0    0    0 -0.00000000000E+00 -0.00000000000E+00 -0.45593999997E+02  0.45594000000E+02  0.51100000000E-03 0.  1.
    9900012    2    1    2    0    0 -0.50405135139E+01 -0.16470763306E+02  0.26833328113E+02  0.59301947908E+02  0.50000007077E+02 0.  0.
        -12    1    1    2    0    0  0.50405135139E+01  0.16470763306E+02 -0.26833328113E+02  0.31886052092E+02  0.00000000000E+00 0.  1.
         11    1    3    3    0    0 -0.51410817498E+01 -0.32073321884E+01 -0.31612221840E+01  0.68345466040E+01  0.51100000000E-03 0. -1.
        -11    1    3    3    0    0 -0.94343752449E+01  0.10038489626E+01 -0.69307525842E+01  0.11749488527E+02  0.51100000000E-03 0.  1.
         12    1    3    3    0    0  0.95349434807E+01 -0.14267280080E+02  0.36925302881E+02  0.40717912777E+02  0.00000000000E+00 0. -1.
</event>
<event>
 7    1  0.3528441E-013  0.5930190E+02  0.7816164E-02  0.1266605E+00
        -11   -1    0    0    0    0  0.00000000000E+00  0.00000000000E+00  0.45593999997E+02  0.45594000000E+02  0.51100000000E-03 0. -1.
         11   -1    0    0    0    0 -0.00000000000E+00 -0.00000000000E+00 -0.45593999997E+02  0.45594000000E+02  0.51100000000E-03 0.  1.
    9900012    2    1    2    0    0 -0.27588585019E+02  0.13253338439E+00  0.15986730082E+02  0.59301903859E+02  0.49999926741E+02 0.  0.
        -12    1    1    2    0    0  0.27588585019E+02 -0.13253338439E+00 -0.15986730082E+02  0.31886096141E+02  0.00000000000E+00 0.  1.
         11    1    3    3    0    0  0.52952599082E+00  0.69156895837E+01  0.16717727095E+01  0.71345626668E+01  0.51100000000E-03 0. -1.
        -11    1    3    3    0    0 -0.29025039024E+02  0.86368285252E+01  0.19330851374E+02  0.35926724210E+02  0.51100000000E-03 0.  1.
        -12    1    3    3    0    0  0.90692801452E+00 -0.15419984724E+02 -0.50158940022E+01  0.16240616982E+02  0.00000000000E+00 0.  1.
</event>
<event>
 7    1  0.3528441E-013  0.5930197E+02  0.7816164E-02  0.1266605E+00
        -11   -1    0    0    0    0  0.00000000000E+00  0.00000000000E+00  0.45593999997E+02  0.45594000000E+02  0.51100000000E-03 0.  1.
         11   -1    0    0    0    0 -0.00000000000E+00 -0.00000000000E+00 -0.45593999997E+02  0.45594000000E+02  0.51100000000E-03 0. -1.
    9900012    2    1    2    0    0  0.28914351719E+02 -0.92387207116E+01 -0.97634767323E+01  0.59301965853E+02  0.50000039804E+02 0.  0.
        -12    1    1    2    0    0 -0.28914351719E+02  0.92387207116E+01  0.97634767323E+01  0.31886034147E+02  0.00000000000E+00 0.  1.
         11    1    3    3    0    0  0.24252534771E+02 -0.76491533022E+01 -0.95813544772E+01  0.27175307596E+02  0.51100000000E-03 0. -1.
        -11    1    3    3    0    0  0.12438034181E+02 -0.21056497800E+01 -0.12364954576E+02  0.17664386692E+02  0.51100000000E-03 0.  1.
        -12    1    3    3    0    0 -0.77762172334E+01  0.51608237049E+00  0.12182832320E+02  0.14462271565E+02  0.00000000000E+00 0.  1.
</event>
<event>
 7    1  0.3528441E-013  0.5930188E+02  0.7816164E-02  0.1266605E+00
        -11   -1    0    0    0    0  0.00000000000E+00  0.00000000000E+00  0.45593999997E+02  0.45594000000E+02  0.51100000000E-03 0. -1.
         11   -1    0    0    0    0 -0.00000000000E+00 -0.00000000000E+00 -0.45593999997E+02  0.45594000000E+02  0.51100000000E-03 0.  1.
    9900012    2    1    2    0    0  0.11769425937E+02 -0.14160884345E+02  0.26032183843E+02  0.59301880325E+02  0.49999883821E+02 0.  0.
        -12    1    1    2    0    0 -0.11769425937E+02  0.14160884345E+02 -0.26032183843E+02  0.31886119675E+02  0.00000000000E+00 0.  1.
         11    1    3    3    0    0  0.99663534433E+01  0.36166728782E+01  0.30493855456E+02  0.32284419531E+02  0.51100000000E-03 0. -1.
        -11    1    3    3    0    0  0.75683088211E+01 -0.10269295998E+02  0.49359734640E+01  0.13678507704E+02  0.51100000000E-03 0.  1.
        -12    1    3    3    0    0 -0.57652363274E+01 -0.75082612248E+01 -0.93976450766E+01  0.13338953089E+02  0.00000000000E+00 0.  1.
</event>
<event>
 7    1  0.3528441E-013  0.5930195E+02  0.7816164E-02  0.1266605E+00
        -11   -1    0    0    0    0  0.00000000000E+00  0.00000000000E+00  0.45593999997E+02  0.45594000000E+02  0.51100000000E-03 0.  1.
         11   -1    0    0    0    0 -0.00000000000E+00 -0.00000000000E+00 -0.45593999997E+02  0.45594000000E+02  0.51100000000E-03 0. -1.
    9900012    2    1    2    0    0  0.51691337979E+01  0.19295147905E+02 -0.24853522558E+02  0.59301948811E+02  0.50000008724E+02 0.  0.
        -12    1    1    2    0    0 -0.51691337979E+01 -0.19295147905E+02  0.24853522558E+02  0.31886051189E+02  0.00000000000E+00 0.  1.
         11    1    3    3    0    0  0.18093850046E+02  0.73327583319E+01 -0.22792248591E+02  0.30010720590E+02  0.51100000000E-03 0. -1.
        -11    1    3    3    0    0 -0.29837209947E+01  0.10042512513E+02  0.93456670721E+01  0.14039093340E+02  0.51100000000E-03 0.  1.
        -12    1    3    3    0    0 -0.99409952532E+01  0.19198770608E+01 -0.11406941039E+02  0.15252134881E+02  0.00000000000E+00 0.  1.
</event>
<event>
 7    1  0.3528441E-013  0.5930195E+02  0.7816164E-02  0.1266605E+00
        -11   -1    0    0    0    0  0.00000000000E+00  0.00000000000E+00  0.45593999997E+02  0.45594000000E+02  0.51100000000E-03 0. -1.
         11   -1    0    0    0    0 -0.00000000000E+00 -0.00000000000E+00 -0.45593999997E+02  0.45594000000E+02  0.51100000000E-03 0.  1.
    9900012    2    1    2    0    0  0.16567373006E+02 -0.25774429473E+02  0.88273074658E+01  0.59301946308E+02  0.50000004159E+02 0.  0.
        -12    1    1    2    0    0 -0.16567373006E+02  0.25774429473E+02 -0.88273074658E+01  0.31886053692E+02  0.00000000000E+00 0.  1.
         11    1    3    3    0    0  0.46434431420E+01  0.29168076185E+00  0.57130957718E+01  0.73679105205E+01  0.51100000000E-03 0. -1.
        -11    1    3    3    0    0 -0.11915591075E+02  0.31082040955E+01  0.68195125997E+01  0.14076505096E+02  0.51100000000E-03 0.  1.
        -12    1    3    3    0    0  0.23839520939E+02 -0.29174314330E+02 -0.37053009057E+01  0.37857530691E+02  0.00000000000E+00 0.  1.
</event>
<event>
 7    1  0.3528441E-013  0.5930193E+02  0.7816164E-02  0.1266605E+00
        -11   -1    0    0    0    0  0.00000000000E+00  0.00000000000E+00  0.45593999997E+02  0.45594000000E+02  0.51100000000E-03 0. -1.
         11   -1    0    0    0    0 -0.00000000000E+00 -0.00000000000E+00 -0.45593999997E+02  0.45594000000E+02  0.51100000000E-03 0.  1.
    9900012    2    1    2    0    0 -0.11982527558E+02 -0.28669205077E+02  0.71566258030E+01  0.59301928130E+02  0.49999971007E+02 0.  0.
        -12    1    1    2    0    0  0.11982527558E+02  0.28669205077E+02 -0.71566258030E+01  0.31886071870E+02  0.00000000000E+00 0.  1.
         11    1    3    3    0    0 -0.69225086134E+01 -0.15564362182E+02 -0.71938410678E+01  0.18491128825E+02  0.51100000000E-03 0. -1.
        -11    1    3    3    0    0  0.21751475753E+01 -0.13226940062E+02 -0.91445400500E+01  0.16226700939E+02  0.51100000000E-03 0.  1.
         12    1    3    3    0    0 -0.72351665196E+01  0.12209716761E+00  0.23495006921E+02  0.24584098367E+02  0.00000000000E+00 0. -1.
</event>
<event>
 7    1  0.3528441E-013  0.5930194E+02  0.7816164E-02  0.1266605E+00
        -11   -1    0    0    0    0  0.00000000000E+00  0.00000000000E+00  0.45593999997E+02  0.45594000000E+02  0.51100000000E-03 0. -1.
         11   -1    0    0    0    0 -0.00000000000E+00 -0.00000000000E+00 -0.45593999997E+02  0.45594000000E+02  0.51100000000E-03 0.  1.
    9900012    2    1    2    0    0 -0.27642286774E+02  0.95501776890E+01  0.12705077717E+02  0.59301938597E+02  0.49999990096E+02 0.  0.
        -12    1    1    2    0    0  0.27642286774E+02 -0.95501776890E+01 -0.12705077717E+02  0.31886061403E+02  0.00000000000E+00 0.  1.
         11    1    3    3    0    0  0.13133776502E+02 -0.10857066083E+01  0.31297553674E+01  0.13545117680E+02  0.51100000000E-03 0.  1.
        -11    1    3    3    0    0 -0.18636484239E+02  0.12603501677E+02  0.54784119945E+01  0.23155556516E+02  0.51100000000E-03 0. -1.
        -12    1    3    3    0    0 -0.22139579037E+02 -0.19676173795E+01  0.40969103553E+01  0.22601264402E+02  0.00000000000E+00 0.  1.
</event>
<event>
 7    1  0.3528441E-013  0.5930196E+02  0.7816164E-02  0.1266605E+00
        -11   -1    0    0    0    0  0.00000000000E+00  0.00000000000E+00  0.45593999997E+02  0.45594000000E+02  0.51100000000E-03 0.  1.
         11   -1    0    0    0    0 -0.00000000000E+00 -0.00000000000E+00 -0.45593999997E+02  0.45594000000E+02  0.51100000000E-03 0. -1.
    9900012    2    1    2    0    0 -0.85927475503E+01  0.39144028880E+01 -0.30455894073E+02  0.59301963178E+02  0.50000034926E+02 0.  0.
        -12    1    1    2    0    0  0.85927475503E+01 -0.39144028880E+01  0.30455894073E+02  0.31886036822E+02  0.00000000000E+00 0.  1.
         11    1    3    3    0    0  0.80965010341E+01  0.13433307868E+02 -0.19425181219E+02  0.24966873150E+02  0.51100000000E-03 0. -1.
        -11    1    3    3    0    0  0.25349271535E+01  0.65369042193E+01 -0.48845021293E+01  0.85449010385E+01  0.51100000000E-03 0.  1.
        -12    1    3    3    0    0 -0.19224175738E+02 -0.16055809199E+02 -0.61462107247E+01  0.25790188990E+02  0.00000000000E+00 0.  1.
</event>
<event>
 7    1  0.3528441E-013  0.5930194E+02  0.7816164E-02  0.1266605E+00
        -11   -1    0    0    0    0  0.00000000000E+00  0.00000000000E+00  0.45593999997E+02  0.45594000000E+02  0.51100000000E-03 0.  1.
         11   -1    0    0    0    0 -0.00000000000E+00 -0.00000000000E+00 -0.45593999997E+02  0.45594000000E+02  0.51100000000E-03 0. -1.
    9900012    2    1    2    0    0 -0.18794475777E+02 -0.25679475121E+02 -0.20132231909E+01  0.59301939882E+02  0.49999992439E+02 0.  0.
        -12    1    1    2    0    0  0.18794475777E+02  0.25679475121E+02  0.20132231909E+01  0.31886060118E+02  0.00000000000E+00 0.  1.
         11    1    3    3    0    0 -0.25280029618E+02 -0.15026727263E+02  0.43274724390E+01  0.29725568921E+02  0.51100000000E-03 0.  1.
        -11    1    3    3    0    0 -0.93974656342E+01 -0.88049393440E+01 -0.33855036100E+01  0.13315440366E+02  0.51100000000E-03 0. -1.
        -12    1    3    3    0    0  0.15883019474E+02 -0.18478085133E+01 -0.29551920199E+01  0.16260930595E+02  0.00000000000E+00 0.  1.
</event>
<event>
 7    1  0.3528441E-013  0.5930184E+02  0.7816164E-02  0.1266605E+00
        -11   -1    0    0    0    0  0.00000000000E+00  0.00000000000E+00  0.45593999997E+02  0.45594000000E+02  0.51100000000E-03 0.  1.
         11   -1    0    0    0    0 -0.00000000000E+00 -0.00000000000E+00 -0.45593999997E+02  0.45594000000E+02  0.51100000000E-03 0. -1.
    9900012    2    1    2    0    0 -0.12359329862E+02  0.37922711640E+01 -0.29147779571E+02  0.59301836713E+02  0.49999804284E+02 0.  0.
        -12    1    1    2    0    0  0.12359329862E+02 -0.37922711640E+01  0.29147779571E+02  0.31886163287E+02  0.00000000000E+00 0.  1.
         11    1    3    3    0    0  0.15013797082E+02  0.27612862767E+00 -0.32200169665E+01  0.15357697073E+02  0.51100000000E-03 0. -1.
        -11    1    3    3    0    0 -0.48088449906E+01  0.29703147982E+01  0.36573177411E+01  0.67322903580E+01  0.51100000000E-03 0.  1.
        -12    1    3    3    0    0 -0.22564281953E+02  0.54582773807E+00 -0.29585080346E+02  0.37211849283E+02  0.00000000000E+00 0.  1.
</event>
<event>
 7    1  0.3528441E-013  0.5930196E+02  0.7816164E-02  0.1266605E+00
        -11   -1    0    0    0    0  0.00000000000E+00  0.00000000000E+00  0.45593999997E+02  0.45594000000E+02  0.51100000000E-03 0.  1.
         11   -1    0    0    0    0 -0.00000000000E+00 -0.00000000000E+00 -0.45593999997E+02  0.45594000000E+02  0.51100000000E-03 0. -1.
    9900012    2    1    2    0    0  0.11553734536E+02 -0.26772065262E+02 -0.12902996908E+02  0.59301959334E+02  0.50000027915E+02 0.  0.
        -12    1    1    2    0    0 -0.11553734536E+02  0.26772065262E+02  0.12902996908E+02  0.31886040666E+02  0.00000000000E+00 0.  1.
         11    1    3    3    0    0 -0.36249715792E+01  0.93103600288E+01 -0.10496283270E+02  0.14491210631E+02  0.51100000000E-03 0. -1.
        -11    1    3    3    0    0  0.25279903585E+01  0.74019369736E+00 -0.51442907063E+01  0.57794765416E+01  0.51100000000E-03 0.  1.
        -12    1    3    3    0    0  0.12650715757E+02 -0.36822618988E+02  0.27375770679E+01  0.39031272161E+02  0.00000000000E+00 0.  1.
</event>
<event>
 7    1  0.3528441E-013  0.5930200E+02  0.7816164E-02  0.1266605E+00
        -11   -1    0    0    0    0  0.00000000000E+00  0.00000000000E+00  0.45593999997E+02  0.45594000000E+02  0.51100000000E-03 0.  1.
         11   -1    0    0    0    0 -0.00000000000E+00 -0.00000000000E+00 -0.45593999997E+02  0.45594000000E+02  0.51100000000E-03 0. -1.
    9900012    2    1    2    0    0 -0.35264626192E+01  0.31645879484E+02 -0.16791486898E+01  0.59301997315E+02  0.50000097182E+02 0.  0.
        -12    1    1    2    0    0  0.35264626192E+01 -0.31645879484E+02  0.16791486898E+01  0.31886002685E+02  0.00000000000E+00 0.  1.
         11    1    3    3    0    0 -0.38396490055E+01  0.16557517167E+02 -0.11646940675E+02  0.20604502094E+02  0.51100000000E-03 0. -1.
        -11    1    3    3    0    0 -0.57646845837E+01 -0.10000611816E+02  0.23219920252E+01  0.11774356554E+02  0.51100000000E-03 0.  1.
        -12    1    3    3    0    0  0.60778709699E+01  0.25088974133E+02  0.76457999598E+01  0.26923138666E+02  0.00000000000E+00 0.  1.
</event>
<event>
 7    1  0.3528441E-013  0.5930176E+02  0.7816164E-02  0.1266605E+00
        -11   -1    0    0    0    0  0.00000000000E+00  0.00000000000E+00  0.45593999997E+02  0.45594000000E+02  0.51100000000E-03 0.  1.
         11   -1    0    0    0    0 -0.00000000000E+00 -0.00000000000E+00 -0.45593999997E+02  0.45594000000E+02  0.51100000000E-03 0. -1.
    9900012    2    1    2    0    0 -0.15356965380E+02  0.26741921849E+02 -0.81096059685E+01  0.59301757217E+02  0.49999659301E+02 0.  0.
        -12    1    1    2    0    0  0.15356965380E+02 -0.26741921849E+02  0.81096059685E+01  0.31886242783E+02  0.00000000000E+00 0.  1.
         11    1    3    3    0    0 -0.10584173169E+02  0.32011796998E+01 -0.46975307671E+01  0.12014119556E+02  0.51100000000E-03 0. -1.
        -11    1    3    3    0    0 -0.14089512129E+02  0.31634216108E+02 -0.43928001210E+01  0.34907516010E+02  0.51100000000E-03 0.  1.
         12    1    3    3    0    0  0.93167199175E+01 -0.80934739588E+01  0.98072491964E+00  0.12380121652E+02  0.00000000000E+00 0. -1.
</event>
<event>
 7    1  0.3528441E-013  0.5930183E+02  0.7816164E-02  0.1266605E+00
        -11   -1    0    0    0    0  0.00000000000E+00  0.00000000000E+00  0.45593999997E+02  0.45594000000E+02  0.51100000000E-03 0.  1.
         11   -1    0    0    0    0 -0.00000000000E+00 -0.00000000000E+00 -0.45593999997E+02  0.45594000000E+02  0.51100000000E-03 0. -1.
    9900012    2    1    2    0    0  0.23560228620E+02  0.20838531953E+02  0.52344319597E+01  0.59301826436E+02  0.49999785541E+02 0.  0.
        -12    1    1    2    0    0 -0.23560228620E+02 -0.20838531953E+02 -0.52344319597E+01  0.31886173564E+02  0.00000000000E+00 0.  1.
         11    1    3    3    0    0  0.59483214700E+01  0.16121685419E+02 -0.10609399121E+02  0.20195311808E+02  0.51100000000E-03 0. -1.
        -11    1    3    3    0    0 -0.35626557698E+01  0.12304122950E+02  0.28237601605E+01  0.13117072060E+02  0.51100000000E-03 0.  1.
        -12    1    3    3    0    0  0.21174562920E+02 -0.75872764159E+01  0.13020070920E+02  0.25989442569E+02  0.00000000000E+00 0.  1.
</event>
<event>
 7    1  0.3528441E-013  0.5930192E+02  0.7816164E-02  0.1266605E+00
        -11   -1    0    0    0    0  0.00000000000E+00  0.00000000000E+00  0.45593999997E+02  0.45594000000E+02  0.51100000000E-03 0. -1.
         11   -1    0    0    0    0 -0.00000000000E+00 -0.00000000000E+00 -0.45593999997E+02  0.45594000000E+02  0.51100000000E-03 0.  1.
    9900012    2    1    2    0    0 -0.23369959683E+02  0.12466693971E+02  0.17752431458E+02  0.59301916879E+02  0.49999950486E+02 0.  0.
        -12    1    1    2    0    0  0.23369959683E+02 -0.12466693971E+02 -0.17752431458E+02  0.31886083121E+02  0.00000000000E+00 0.  1.
         11    1    3    3    0    0  0.10714961681E+01  0.12103926165E+02 -0.40959201982E+01  0.12823014278E+02  0.51100000000E-03 0. -1.
        -11    1    3    3    0    0  0.30916915685E+01 -0.50017022139E+01 -0.49487282541E+01  0.76854078217E+01  0.51100000000E-03 0.  1.
         12    1    3    3    0    0 -0.27533147420E+02  0.53644700200E+01  0.26797079910E+02  0.38793494779E+02  0.00000000000E+00 0. -1.
</event>
<event>
 7    1  0.3528441E-013  0.5930193E+02  0.7816164E-02  0.1266605E+00
        -11   -1    0    0    0    0  0.00000000000E+00  0.00000000000E+00  0.45593999997E+02  0.45594000000E+02  0.51100000000E-03 0.  1.
         11   -1    0    0    0    0 -0.00000000000E+00 -0.00000000000E+00 -0.45593999997E+02  0.45594000000E+02  0.51100000000E-03 0. -1.
    9900012    2    1    2    0    0  0.31827781713E+02  0.18929542637E+01  0.36119199795E+00  0.59301930561E+02  0.49999975440E+02 0.  0.
        -12    1    1    2    0    0 -0.31827781713E+02 -0.18929542637E+01 -0.36119199795E+00  0.31886069439E+02  0.00000000000E+00 0.  1.
         11    1    3    3    0    0  0.36586472012E+02  0.21002784792E+01 -0.10654620320E+02  0.38164145980E+02  0.51100000000E-03 0. -1.
        -11    1    3    3    0    0  0.55332712115E+01  0.40428739444E+01  0.49874292845E+01  0.84756339680E+01  0.51100000000E-03 0.  1.
         12    1    3    3    0    0 -0.10291961510E+02 -0.42501981599E+01  0.60283830339E+01  0.12662150613E+02  0.00000000000E+00 0. -1.
</event>
<event>
 7    1  0.3528441E-013  0.5930200E+02  0.7816164E-02  0.1266605E+00
        -11   -1    0    0    0    0  0.00000000000E+00  0.00000000000E+00  0.45593999997E+02  0.45594000000E+02  0.51100000000E-03 0.  1.
         11   -1    0    0    0    0 -0.00000000000E+00 -0.00000000000E+00 -0.45593999997E+02  0.45594000000E+02  0.51100000000E-03 0. -1.
    9900012    2    1    2    0    0  0.19096214393E+02 -0.84775891275E+01 -0.24086965097E+02  0.59302002930E+02  0.50000107423E+02 0.  0.
        -12    1    1    2    0    0 -0.19096214393E+02  0.84775891275E+01  0.24086965097E+02  0.31885997070E+02  0.00000000000E+00 0.  1.
         11    1    3    3    0    0  0.20300788097E+01  0.10638385856E+02  0.75835662331E+00  0.10856867809E+02  0.51100000000E-03 0. -1.
        -11    1    3    3    0    0  0.77368515653E+01 -0.17509513973E+02  0.26874193229E+01  0.19330395097E+02  0.51100000000E-03 0.  1.
         12    1    3    3    0    0  0.93292840181E+01 -0.16064610109E+01 -0.27532741044E+02  0.29114740024E+02  0.00000000000E+00 0. -1.
</event>
<event>
 7    1  0.3528441E-013  0.5930194E+02  0.7816164E-02  0.1266605E+00
        -11   -1    0    0    0    0  0.00000000000E+00  0.00000000000E+00  0.45593999997E+02  0.45594000000E+02  0.51100000000E-03 0. -1.
         11   -1    0    0    0    0 -0.00000000000E+00 -0.00000000000E+00 -0.45593999997E+02  0.45594000000E+02  0.51100000000E-03 0.  1.
    9900012    2    1    2    0    0  0.27191812601E+02 -0.29518125633E-01 -0.16653083458E+02  0.59301941408E+02  0.49999995223E+02 0.  0.
        -12    1    1    2    0    0 -0.27191812601E+02  0.29518125633E-01  0.16653083458E+02  0.31886058592E+02  0.00000000000E+00 0.  1.
         11    1    3    3    0    0 -0.29218199849E+01  0.10251176630E+02  0.41055367763E+01  0.11422744277E+02  0.51100000000E-03 0. -1.
        -11    1    3    3    0    0  0.27579482100E+02 -0.13511036013E+02 -0.44139540452E+01  0.31026745199E+02  0.51100000000E-03 0.  1.
         12    1    3    3    0    0  0.25341504862E+01  0.32303412567E+01 -0.16344666189E+02  0.16852451933E+02  0.00000000000E+00 0. -1.
</event>
<event>
 7    1  0.3528441E-013  0.5930194E+02  0.7816164E-02  0.1266605E+00
        -11   -1    0    0    0    0  0.00000000000E+00  0.00000000000E+00  0.45593999997E+02  0.45594000000E+02  0.51100000000E-03 0.  1.
         11   -1    0    0    0    0 -0.00000000000E+00 -0.00000000000E+00 -0.45593999997E+02  0.45594000000E+02  0.51100000000E-03 0. -1.
    9900012    2    1    2    0    0  0.11344017709E+02 -0.29108195118E+02  0.63833499263E+01  0.59301938514E+02  0.49999989944E+02 0.  0.
        -12    1    1    2    0    0 -0.11344017709E+02  0.29108195118E+02 -0.63833499263E+01  0.31886061486E+02  0.00000000000E+00 0.  1.
         11    1    3    3    0    0  0.36835862634E+01 -0.14724309193E+01 -0.20056193717E+01  0.44451512794E+01  0.51100000000E-03 0. -1.
        -11    1    3    3    0    0  0.96286987221E+01 -0.10283920761E+02 -0.18218705585E+02  0.23030243133E+02  0.51100000000E-03 0.  1.
        -12    1    3    3    0    0 -0.19682672761E+01 -0.17351843438E+02  0.26607674883E+02  0.31826544102E+02  0.00000000000E+00 0.  1.
</event>
<event>
 7    1  0.3528441E-013  0.5930195E+02  0.7816164E-02  0.1266605E+00
        -11   -1    0    0    0    0  0.00000000000E+00  0.00000000000E+00  0.45593999997E+02  0.45594000000E+02  0.51100000000E-03 0. -1.
         11   -1    0    0    0    0 -0.00000000000E+00 -0.00000000000E+00 -0.45593999997E+02  0.45594000000E+02  0.51100000000E-03 0.  1.
    9900012    2    1    2    0    0  0.73822031296E+01  0.79761174642E+01  0.29976735644E+02  0.59301952068E+02  0.50000014664E+02 0.  0.
        -12    1    1    2    0    0 -0.73822031296E+01 -0.79761174642E+01 -0.29976735644E+02  0.31886047932E+02  0.00000000000E+00 0.  1.
         11    1    3    3    0    0  0.22236472453E+01  0.82166803556E+01 -0.32107918616E+01  0.90976715580E+01  0.51100000000E-03 0. -1.
        -11    1    3    3    0    0  0.13231920239E+02  0.10210897454E+02  0.26356243332E+01  0.16920184867E+02  0.51100000000E-03 0.  1.
         12    1    3    3    0    0 -0.80733643548E+01 -0.10451460346E+02  0.30551903172E+02  0.33284095644E+02  0.00000000000E+00 0. -1.
</event>
<event>
 7    1  0.3528441E-013  0.5930199E+02  0.7816164E-02  0.1266605E+00
        -11   -1    0    0    0    0  0.00000000000E+00  0.00000000000E+00  0.45593999997E+02  0.45594000000E+02  0.51100000000E-03 0. -1.
         11   -1    0    0    0    0 -0.00000000000E+00 -0.00000000000E+00 -0.45593999997E+02  0.45594000000E+02  0.51100000000E-03 0.  1.
    9900012    2    1    2    0    0 -0.30514090446E+02 -0.60506302137E+01  0.69998557533E+01  0.59301987043E+02  0.50000078449E+02 0.  0.
        -12    1    1    2    0    0  0.30514090446E+02  0.60506302137E+01 -0.69998557533E+01  0.31886012957E+02  0.00000000000E+00 0.  1.
         11    1    3    3    0    0  0.42691690498E+01 -0.11476360525E+02 -0.40835548746E+00  0.12251506427E+02  0.51100000000E-03 0. -1.
        -11    1    3    3    0    0 -0.23183464245E+02 -0.94670180157E+01 -0.34417320975E+01  0.25277321152E+02  0.51100000000E-03 0.  1.
         12    1    3    3    0    0 -0.11599795251E+02  0.14892748327E+02  0.10849943338E+02  0.21773159464E+02  0.00000000000E+00 0. -1.
</event>
<event>
 7    1  0.3528441E-013  0.5930184E+02  0.7816164E-02  0.1266605E+00
        -11   -1    0    0    0    0  0.00000000000E+00  0.00000000000E+00  0.45593999997E+02  0.45594000000E+02  0.51100000000E-03 0. -1.
         11   -1    0    0    0    0 -0.00000000000E+00 -0.00000000000E+00 -0.45593999997E+02  0.45594000000E+02  0.51100000000E-03 0.  1.
    9900012    2    1    2    0    0 -0.15061509428E+02  0.12093815634E+02  0.25369616632E+02  0.59301844840E+02  0.49999819104E+02 0.  0.
        -12    1    1    2    0    0  0.15061509428E+02 -0.12093815634E+02 -0.25369616632E+02  0.31886155160E+02  0.00000000000E+00 0.  1.
         11    1    3    3    0    0  0.11856751306E+02  0.14273186402E+02  0.14126028469E+02  0.23320614961E+02  0.51100000000E-03 0. -1.
        -11    1    3    3    0    0 -0.15849374474E+02  0.74264364516E+01 -0.10455062280E-01  0.17502992291E+02  0.51100000000E-03 0.  1.
        -12    1    3    3    0    0 -0.11068886261E+02 -0.96058072193E+01  0.11254043226E+02  0.18478237587E+02  0.00000000000E+00 0.  1.
</event>
<event>
 7    1  0.3528441E-013  0.5930193E+02  0.7816164E-02  0.1266605E+00
        -11   -1    0    0    0    0  0.00000000000E+00  0.00000000000E+00  0.45593999997E+02  0.45594000000E+02  0.51100000000E-03 0.  1.
         11   -1    0    0    0    0 -0.00000000000E+00 -0.00000000000E+00 -0.45593999997E+02  0.45594000000E+02  0.51100000000E-03 0. -1.
    9900012    2    1    2    0    0  0.22880412476E+02  0.20062318135E+02 -0.95242478169E+01  0.59301934384E+02  0.49999982412E+02 0.  0.
        -12    1    1    2    0    0 -0.22880412476E+02 -0.20062318135E+02  0.95242478169E+01  0.31886065616E+02  0.00000000000E+00 0.  1.
         11    1    3    3    0    0  0.69407245857E+01 -0.20340362556E+01 -0.12345646709E+02  0.14308247768E+02  0.51100000000E-03 0. -1.
        -11    1    3    3    0    0 -0.10701088424E+02  0.10490984310E+02 -0.31851861634E+01  0.15320556661E+02  0.51100000000E-03 0.  1.
         12    1    3    3    0    0  0.26640776314E+02  0.11605370080E+02  0.60065850552E+01  0.29673129955E+02  0.00000000000E+00 0. -1.
</event>
<event>
 7    1  0.3528441E-013  0.5930193E+02  0.7816164E-02  0.1266605E+00
        -11   -1    0    0    0    0  0.00000000000E+00  0.00000000000E+00  0.45593999997E+02  0.45594000000E+02  0.51100000000E-03 0.  1.
         11   -1    0    0    0    0 -0.00000000000E+00 -0.00000000000E+00 -0.45593999997E+02  0.45594000000E+02  0.51100000000E-03 0. -1.
    9900012    2    1    2    0    0  0.14881381380E+02 -0.12947305995E+02 -0.25052613921E+02  0.59301926103E+02  0.49999967309E+02 0.  0.
        -12    1    1    2    0    0 -0.14881381380E+02  0.12947305995E+02  0.25052613921E+02  0.31886073897E+02  0.00000000000E+00 0.  1.
         11    1    3    3    0    0 -0.70254643366E+01 -0.63060147504E+00  0.43431314416E+01  0.82835740080E+01  0.51100000000E-03 0. -1.
        -11    1    3    3    0    0  0.10064493628E+01 -0.73795737166E+01  0.60357840279E+01  0.95865393991E+01  0.51100000000E-03 0.  1.
         12    1    3    3    0    0  0.20900396353E+02 -0.49371308035E+01 -0.35431529391E+02  0.41431812696E+02  0.00000000000E+00 0. -1.
</event>
<event>
 7    1  0.3528441E-013  0.5930192E+02  0.7816164E-02  0.1266605E+00
        -11   -1    0    0    0    0  0.00000000000E+00  0.00000000000E+00  0.45593999997E+02  0.45594000000E+02  0.51100000000E-03 0. -1.
         11   -1    0    0    0    0 -0.00000000000E+00 -0.00000000000E+00 -0.45593999997E+02  0.45594000000E+02  0.51100000000E-03 0.  1.
    9900012    2    1    2    0    0 -0.39389954544E+00 -0.21266423650E+02  0.23755127869E+02  0.59301921035E+02  0.49999958066E+02 0.  0.
        -12    1    1    2    0    0  0.39389954544E+00  0.21266423650E+02 -0.23755127869E+02  0.31886078965E+02  0.00000000000E+00 0.  1.
         11    1    3    3    0    0  0.94918880203E+00  0.41780120090E+01  0.11372975542E+02  0.12153243052E+02  0.51100000000E-03 0. -1.
        -11    1    3    3    0    0  0.43071628381E+01 -0.29584551114E+00  0.19849260884E+02  0.20313353593E+02  0.51100000000E-03 0.  1.
        -12    1    3    3    0    0 -0.56502511856E+01 -0.25148590148E+02 -0.74671085576E+01  0.26835324390E+02  0.00000000000E+00 0.  1.
</event>
<event>
 7    1  0.3528441E-013  0.5930193E+02  0.7816164E-02  0.1266605E+00
        -11   -1    0    0    0    0  0.00000000000E+00  0.00000000000E+00  0.45593999997E+02  0.45594000000E+02  0.51100000000E-03 0. -1.
         11   -1    0    0    0    0 -0.00000000000E+00 -0.00000000000E+00 -0.45593999997E+02  0.45594000000E+02  0.51100000000E-03 0.  1.
    9900012    2    1    2    0    0  0.30501315184E+02 -0.92722527732E+01 -0.64536847059E+00  0.59301930943E+02  0.49999976137E+02 0.  0.
        -12    1    1    2    0    0 -0.30501315184E+02  0.92722527732E+01  0.64536847059E+00  0.31886069057E+02  0.00000000000E+00 0.  1.
         11    1    3    3    0    0 -0.77474453718E+01 -0.12450568499E+02  0.31344587766E+01  0.14995479246E+02  0.51100000000E-03 0. -1.
        -11    1    3    3    0    0  0.24704197113E+01 -0.66044111652E+01 -0.75595720195E+00  0.70917340574E+01  0.51100000000E-03 0.  1.
        -12    1    3    3    0    0  0.35778340844E+02  0.97827268908E+01 -0.30238700453E+01  0.37214717640E+02  0.00000000000E+00 0.  1.
</event>
<event>
 7    1  0.3528441E-013  0.5930194E+02  0.7816164E-02  0.1266605E+00
        -11   -1    0    0    0    0  0.00000000000E+00  0.00000000000E+00  0.45593999997E+02  0.45594000000E+02  0.51100000000E-03 0. -1.
         11   -1    0    0    0    0 -0.00000000000E+00 -0.00000000000E+00 -0.45593999997E+02  0.45594000000E+02  0.51100000000E-03 0.  1.
    9900012    2    1    2    0    0  0.12976534472E+02  0.26197811280E+01  0.29008054348E+02  0.59301938513E+02  0.49999989943E+02 0.  0.
        -12    1    1    2    0    0 -0.12976534472E+02 -0.26197811280E+01 -0.29008054348E+02  0.31886061487E+02  0.00000000000E+00 0.  1.
         11    1    3    3    0    0  0.10571592558E+02 -0.13334179069E+02 -0.82622213239E+00  0.17036476864E+02  0.51100000000E-03 0. -1.
        -11    1    3    3    0    0  0.62002062999E+01  0.19196271245E+02  0.11407975772E+02  0.23175014549E+02  0.51100000000E-03 0.  1.
        -12    1    3    3    0    0 -0.37952643863E+01 -0.32423110482E+01  0.18426300709E+02  0.19090447101E+02  0.00000000000E+00 0.  1.
</event>
<event>
 7    1  0.3528441E-013  0.5930194E+02  0.7816164E-02  0.1266605E+00
        -11   -1    0    0    0    0  0.00000000000E+00  0.00000000000E+00  0.45593999997E+02  0.45594000000E+02  0.51100000000E-03 0.  1.
         11   -1    0    0    0    0 -0.00000000000E+00 -0.00000000000E+00 -0.45593999997E+02  0.45594000000E+02  0.51100000000E-03 0. -1.
    9900012    2    1    2    0    0  0.15651294492E+02 -0.11116598463E+02 -0.25459355500E+02  0.59301944064E+02  0.50000000067E+02 0.  0.
        -12    1    1    2    0    0 -0.15651294492E+02  0.11116598463E+02  0.25459355500E+02  0.31886055936E+02  0.00000000000E+00 0.  1.
         11    1    3    3    0    0  0.44854774255E-01 -0.19088838212E+02 -0.21407778767E+02  0.28682376963E+02  0.51100000000E-03 0. -1.
        -11    1    3    3    0    0 -0.37841081827E+01 -0.53303039762E+01 -0.26790802278E+01  0.70646363208E+01  0.51100000000E-03 0.  1.
        -12    1    3    3    0    0  0.19390547900E+02  0.13302543725E+02 -0.13724965052E+01  0.23554930781E+02  0.00000000000E+00 0.  1.
</event>
<event>
 7    1  0.3528441E-013  0.5930190E+02  0.7816164E-02  0.1266605E+00
        -11   -1    0    0    0    0  0.00000000000E+00  0.00000000000E+00  0.45593999997E+02  0.45594000000E+02  0.51100000000E-03 0. -1.
         11   -1    0    0    0    0 -0.00000000000E+00 -0.00000000000E+00 -0.45593999997E+02  0.45594000000E+02  0.51100000000E-03 0.  1.
    9900012    2    1    2    0    0  0.30011420599E+01 -0.19264044619E+02 -0.25231194032E+02  0.59301899250E+02  0.49999918336E+02 0.  0.
        -12    1    1    2    0    0 -0.30011420599E+01  0.19264044619E+02  0.25231194032E+02  0.31886100750E+02  0.00000000000E+00 0.  1.
         11    1    3    3    0    0  0.10262478074E+02 -0.32348101553E+02 -0.14729052164E+02  0.36995447128E+02  0.51100000000E-03 0. -1.
        -11    1    3    3    0    0  0.20743926422E+01  0.21847460757E+01  0.17087264966E+01  0.34635194168E+01  0.51100000000E-03 0.  1.
        -12    1    3    3    0    0 -0.93357286564E+01  0.10899310857E+02 -0.12210868364E+02  0.18842932705E+02  0.00000000000E+00 0.  1.
</event>
<event>
 7    1  0.3528441E-013  0.5930195E+02  0.7816164E-02  0.1266605E+00
        -11   -1    0    0    0    0  0.00000000000E+00  0.00000000000E+00  0.45593999997E+02  0.45594000000E+02  0.51100000000E-03 0.  1.
         11   -1    0    0    0    0 -0.00000000000E+00 -0.00000000000E+00 -0.45593999997E+02  0.45594000000E+02  0.51100000000E-03 0. -1.
    9900012    2    1    2    0    0 -0.78594431540E+01 -0.30843084992E+02 -0.19113284780E+01  0.59301954226E+02  0.50000018600E+02 0.  0.
        -12    1    1    2    0    0  0.78594431540E+01  0.30843084992E+02  0.19113284780E+01  0.31886045774E+02  0.00000000000E+00 0.  1.
         11    1    3    3    0    0 -0.11343869629E+02 -0.72949184644E+01 -0.13162713956E+02  0.18845589736E+02  0.51100000000E-03 0. -1.
        -11    1    3    3    0    0 -0.12560477593E+02 -0.33723971963E+01  0.49829058662E+01  0.13927239904E+02  0.51100000000E-03 0.  1.
        -12    1    3    3    0    0  0.16044904068E+02 -0.20175769331E+02  0.62684796117E+01  0.26529124586E+02  0.00000000000E+00 0.  1.
</event>
<event>
 7    1  0.3528441E-013  0.5930194E+02  0.7816164E-02  0.1266605E+00
        -11   -1    0    0    0    0  0.00000000000E+00  0.00000000000E+00  0.45593999997E+02  0.45594000000E+02  0.51100000000E-03 0. -1.
         11   -1    0    0    0    0 -0.00000000000E+00 -0.00000000000E+00 -0.45593999997E+02  0.45594000000E+02  0.51100000000E-03 0.  1.
    9900012    2    1    2    0    0 -0.27770980510E+02  0.57223386264E+01  0.14585904018E+02  0.59301935428E+02  0.49999984317E+02 0.  0.
        -12    1    1    2    0    0  0.27770980510E+02 -0.57223386264E+01 -0.14585904018E+02  0.31886064572E+02  0.00000000000E+00 0.  1.
         11    1    3    3    0    0  0.80631418896E+01 -0.16325373016E+01  0.16219506075E+02  0.18186583318E+02  0.51100000000E-03 0. -1.
        -11    1    3    3    0    0  0.29117713384E+00 -0.32725499772E+01  0.79751800464E+00  0.33808878575E+01  0.51100000000E-03 0.  1.
        -12    1    3    3    0    0 -0.36125299533E+02  0.10627425905E+02 -0.24311200618E+01  0.37734464253E+02  0.00000000000E+00 0.  1.
</event>
<event>
 7    1  0.3528441E-013  0.5930195E+02  0.7816164E-02  0.1266605E+00
        -11   -1    0    0    0    0  0.00000000000E+00  0.00000000000E+00  0.45593999997E+02  0.45594000000E+02  0.51100000000E-03 0.  1.
         11   -1    0    0    0    0 -0.00000000000E+00 -0.00000000000E+00 -0.45593999997E+02  0.45594000000E+02  0.51100000000E-03 0. -1.
    9900012    2    1    2    0    0  0.21070325217E+02  0.67824921328E+01 -0.22951233965E+02  0.59301953760E+02  0.50000017750E+02 0.  0.
        -12    1    1    2    0    0 -0.21070325217E+02 -0.67824921328E+01  0.22951233965E+02  0.31886046240E+02  0.00000000000E+00 0.  1.
         11    1    3    3    0    0 -0.26041377479E+01 -0.18593741347E+01 -0.43999730069E+01  0.54404566266E+01  0.51100000000E-03 0. -1.
        -11    1    3    3    0    0  0.34490635418E+01 -0.20300193167E+01  0.13729757299E+02  0.14301162662E+02  0.51100000000E-03 0.  1.
         12    1    3    3    0    0  0.20225399423E+02  0.10671885584E+02 -0.32281018257E+02  0.39560334471E+02  0.00000000000E+00 0. -1.
</event>
<event>
 7    1  0.3528441E-013  0.5930210E+02  0.7816164E-02  0.1266604E+00
        -11   -1    0    0    0    0  0.00000000000E+00  0.00000000000E+00  0.45593999997E+02  0.45594000000E+02  0.51100000000E-03 0. -1.
         11   -1    0    0    0    0 -0.00000000000E+00 -0.00000000000E+00 -0.45593999997E+02  0.45594000000E+02  0.51100000000E-03 0.  1.
    9900012    2    1    2    0    0 -0.25433042500E+01  0.26009521188E+02  0.18268752447E+02  0.59302095514E+02  0.50000276274E+02 0.  0.
        -12    1    1    2    0    0  0.25433042500E+01 -0.26009521188E+02 -0.18268752447E+02  0.31885904486E+02  0.00000000000E+00 0.  1.
         11    1    3    3    0    0  0.40343097320E+01  0.52400991114E+01  0.48761186361E+01  0.82164972419E+01  0.51100000000E-03 0. -1.
        -11    1    3    3    0    0  0.67449657420E+01  0.27512891428E+02  0.20081881241E+02  0.34723705332E+02  0.51100000000E-03 0.  1.
        -12    1    3    3    0    0 -0.13322579724E+02 -0.67434693516E+01 -0.66892474297E+01  0.16361892940E+02  0.00000000000E+00 0.  1.
</event>
<event>
 7    1  0.3528441E-013  0.5930194E+02  0.7816164E-02  0.1266605E+00
        -11   -1    0    0    0    0  0.00000000000E+00  0.00000000000E+00  0.45593999997E+02  0.45594000000E+02  0.51100000000E-03 0.  1.
         11   -1    0    0    0    0 -0.00000000000E+00 -0.00000000000E+00 -0.45593999997E+02  0.45594000000E+02  0.51100000000E-03 0. -1.
    9900012    2    1    2    0    0  0.52224348465E+01  0.30672341797E+00 -0.31453979739E+02  0.59301941191E+02  0.49999994826E+02 0.  0.
        -12    1    1    2    0    0 -0.52224348465E+01 -0.30672341797E+00  0.31453979739E+02  0.31886058809E+02  0.00000000000E+00 0.  1.
         11    1    3    3    0    0  0.11344689403E+02  0.96408543793E+01 -0.31170193225E+02  0.34543146886E+02  0.51100000000E-03 0. -1.
        -11    1    3    3    0    0  0.77706675719E+01 -0.18886714434E+01 -0.34030739740E+01  0.86908726298E+01  0.51100000000E-03 0.  1.
        -12    1    3    3    0    0 -0.13892922129E+02 -0.74454595180E+01  0.31192874606E+01  0.16067921675E+02  0.00000000000E+00 0.  1.
</event>
<event>
 7    1  0.3528441E-013  0.5930194E+02  0.7816164E-02  0.1266605E+00
        -11   -1    0    0    0    0  0.00000000000E+00  0.00000000000E+00  0.45593999997E+02  0.45594000000E+02  0.51100000000E-03 0.  1.
         11   -1    0    0    0    0 -0.00000000000E+00 -0.00000000000E+00 -0.45593999997E+02  0.45594000000E+02  0.51100000000E-03 0. -1.
    9900012    2    1    2    0    0 -0.10934144864E+02  0.29952490468E+02 -0.11728502336E+00  0.59301937764E+02  0.49999988577E+02 0.  0.
        -12    1    1    2    0    0  0.10934144864E+02 -0.29952490468E+02  0.11728502336E+00  0.31886062236E+02  0.00000000000E+00 0.  1.
         11    1    3    3    0    0 -0.36616567024E+01 -0.26479132660E+01  0.70134608507E+01  0.83431293791E+01  0.51100000000E-03 0. -1.
        -11    1    3    3    0    0 -0.25268068307E+01 -0.20821974205E+01  0.11041882941E+02  0.11517095033E+02  0.51100000000E-03 0.  1.
         12    1    3    3    0    0 -0.47456813309E+01  0.34682601154E+02 -0.18172628815E+02  0.39441713352E+02  0.00000000000E+00 0. -1.
</event>
<event>
 7    1  0.3528441E-013  0.5930195E+02  0.7816164E-02  0.1266605E+00
        -11   -1    0    0    0    0  0.00000000000E+00  0.00000000000E+00  0.45593999997E+02  0.45594000000E+02  0.51100000000E-03 0. -1.
         11   -1    0    0    0    0 -0.00000000000E+00 -0.00000000000E+00 -0.45593999997E+02  0.45594000000E+02  0.51100000000E-03 0.  1.
    9900012    2    1    2    0    0 -0.38713185124E+01  0.31577513521E+02 -0.21432628388E+01  0.59301952224E+02  0.50000014947E+02 0.  0.
        -12    1    1    2    0    0  0.38713185124E+01 -0.31577513521E+02  0.21432628388E+01  0.31886047776E+02  0.00000000000E+00 0.  1.
         11    1    3    3    0    0 -0.46708241913E+01  0.14577971519E+01  0.66643120383E+01  0.82676977670E+01  0.51100000000E-03 0. -1.
        -11    1    3    3    0    0 -0.74270522795E+01  0.19866067653E+02  0.13500238002E+02  0.25141164967E+02  0.51100000000E-03 0.  1.
        -12    1    3    3    0    0  0.82265579585E+01  0.10253648717E+02 -0.22307812879E+02  0.25893089489E+02  0.00000000000E+00 0.  1.
</event>
<event>
 7    1  0.3528441E-013  0.5930181E+02  0.7816164E-02  0.1266605E+00
        -11   -1    0    0    0    0  0.00000000000E+00  0.00000000000E+00  0.45593999997E+02  0.45594000000E+02  0.51100000000E-03 0.  1.
         11   -1    0    0    0    0 -0.00000000000E+00 -0.00000000000E+00 -0.45593999997E+02  0.45594000000E+02  0.51100000000E-03 0. -1.
    9900012    2    1    2    0    0  0.59932152775E+01 -0.21223104619E+02 -0.23030201974E+02  0.59301811736E+02  0.49999758732E+02 0.  0.
        -12    1    1    2    0    0 -0.59932152775E+01  0.21223104619E+02  0.23030201974E+02  0.31886188264E+02  0.00000000000E+00 0.  1.
         11    1    3    3    0    0  0.84759345279E+01 -0.13324491213E+02 -0.14116852617E+02  0.21181809655E+02  0.51100000000E-03 0. -1.
        -11    1    3    3    0    0  0.13141118320E+01 -0.14601853005E+02 -0.19890201466E+02  0.24709534915E+02  0.51100000000E-03 0.  1.
        -12    1    3    3    0    0 -0.37968310824E+01  0.67032395987E+01  0.10976852109E+02  0.13410467166E+02  0.00000000000E+00 0.  1.
</event>
<event>
 7    1  0.3528441E-013  0.5930197E+02  0.7816164E-02  0.1266605E+00
        -11   -1    0    0    0    0  0.00000000000E+00  0.00000000000E+00  0.45593999997E+02  0.45594000000E+02  0.51100000000E-03 0.  1.
         11   -1    0    0    0    0 -0.00000000000E+00 -0.00000000000E+00 -0.45593999997E+02  0.45594000000E+02  0.51100000000E-03 0. -1.
    9900012    2    1    2    0    0  0.29548067591E+01  0.25746085017E+02 -0.18577600091E+02  0.59301968547E+02  0.50000044717E+02 0.  0.
        -12    1    1    2    0    0 -0.29548067591E+01 -0.25746085017E+02  0.18577600091E+02  0.31886031453E+02  0.00000000000E+00 0.  1.
         11    1    3    3    0    0  0.10836736106E+02  0.69872498424E+01  0.77168337215E+01  0.15026843738E+02  0.51100000000E-03 0. -1.
        -11    1    3    3    0    0  0.22042275201E+01  0.24029925083E+02 -0.16213860184E+02  0.29072068740E+02  0.51100000000E-03 0.  1.
        -12    1    3    3    0    0 -0.10086156867E+02 -0.52710899093E+01 -0.10080573628E+02  0.15203056069E+02  0.00000000000E+00 0.  1.
</event>
<event>
 7    1  0.3528441E-013  0.5930195E+02  0.7816164E-02  0.1266605E+00
        -11   -1    0    0    0    0  0.00000000000E+00  0.00000000000E+00  0.45593999997E+02  0.45594000000E+02  0.51100000000E-03 0.  1.
         11   -1    0    0    0    0 -0.00000000000E+00 -0.00000000000E+00 -0.45593999997E+02  0.45594000000E+02  0.51100000000E-03 0. -1.
    9900012    2    1    2    0    0  0.55946443067E+01  0.62311745578E+01 -0.30766741143E+02  0.59301953807E+02  0.50000017835E+02 0.  0.
        -12    1    1    2    0    0 -0.55946443067E+01 -0.62311745578E+01  0.30766741143E+02  0.31886046193E+02  0.00000000000E+00 0.  1.
         11    1    3    3    0    0 -0.23248834584E+01  0.34857390653E+01 -0.21886436582E+02  0.22283885802E+02  0.51100000000E-03 0. -1.
        -11    1    3    3    0    0  0.10941018586E+02  0.62823270886E+01 -0.20741550049E+02  0.24277261379E+02  0.51100000000E-03 0.  1.
        -12    1    3    3    0    0 -0.30214908208E+01 -0.35368915960E+01  0.11861245489E+02  0.12740806626E+02  0.00000000000E+00 0.  1.
</event>
<event>
 7    1  0.3528441E-013  0.5930194E+02  0.7816164E-02  0.1266605E+00
        -11   -1    0    0    0    0  0.00000000000E+00  0.00000000000E+00  0.45593999997E+02  0.45594000000E+02  0.51100000000E-03 0. -1.
         11   -1    0    0    0    0 -0.00000000000E+00 -0.00000000000E+00 -0.45593999997E+02  0.45594000000E+02  0.51100000000E-03 0.  1.
    9900012    2    1    2    0    0 -0.23374581775E+02  0.18234798998E+02  0.11740608763E+02  0.59301939381E+02  0.49999991526E+02 0.  0.
        -12    1    1    2    0    0  0.23374581775E+02 -0.18234798998E+02 -0.11740608763E+02  0.31886060619E+02  0.00000000000E+00 0.  1.
         11    1    3    3    0    0 -0.18440535462E+01  0.14158961197E+02 -0.53900516954E+01  0.15262023890E+02  0.51100000000E-03 0. -1.
        -11    1    3    3    0    0 -0.20790038407E+00  0.15253630190E+02  0.14835068937E+01  0.15327010456E+02  0.51100000000E-03 0.  1.
        -12    1    3    3    0    0 -0.21322627845E+02 -0.11177792390E+02  0.15647153565E+02  0.28712905036E+02  0.00000000000E+00 0.  1.
</event>
<event>
 7    1  0.3528441E-013  0.5930195E+02  0.7816164E-02  0.1266605E+00
        -11   -1    0    0    0    0  0.00000000000E+00  0.00000000000E+00  0.45593999997E+02  0.45594000000E+02  0.51100000000E-03 0.  1.
         11   -1    0    0    0    0 -0.00000000000E+00 -0.00000000000E+00 -0.45593999997E+02  0.45594000000E+02  0.51100000000E-03 0. -1.
    9900012    2    1    2    0    0  0.14880905971E+02  0.45450869543E+01 -0.27832009652E+02  0.59301953847E+02  0.50000017909E+02 0.  0.
        -12    1    1    2    0    0 -0.14880905971E+02 -0.45450869543E+01  0.27832009652E+02  0.31886046153E+02  0.00000000000E+00 0.  1.
         11    1    3    3    0    0 -0.23282035782E+01 -0.72563694247E+01 -0.32332883952E+02  0.33218832219E+02  0.51100000000E-03 0. -1.
        -11    1    3    3    0    0  0.14998723601E+01  0.51093184928E+00 -0.44818308149E+01  0.47536802759E+01  0.51100000000E-03 0.  1.
        -12    1    3    3    0    0  0.15709237189E+02  0.11290524530E+02  0.89827051140E+01  0.21329441352E+02  0.00000000000E+00 0.  1.
</event>
<event>
 7    1  0.3528441E-013  0.5930194E+02  0.7816164E-02  0.1266605E+00
        -11   -1    0    0    0    0  0.00000000000E+00  0.00000000000E+00  0.45593999997E+02  0.45594000000E+02  0.51100000000E-03 0. -1.
         11   -1    0    0    0    0 -0.00000000000E+00 -0.00000000000E+00 -0.45593999997E+02  0.45594000000E+02  0.51100000000E-03 0.  1.
    9900012    2    1    2    0    0  0.78690278910E+01  0.15549414033E+02  0.26702345331E+02  0.59301935287E+02  0.49999984060E+02 0.  0.
        -12    1    1    2    0    0 -0.78690278910E+01 -0.15549414033E+02 -0.26702345331E+02  0.31886064713E+02  0.00000000000E+00 0.  1.
         11    1    3    3    0    0  0.66837889114E+01 -0.25143646416E+00 -0.21952267724E+01  0.70395507918E+01  0.51100000000E-03 0. -1.
        -11    1    3    3    0    0  0.20166560738E+02  0.84936032154E+01  0.85524538857E+01  0.23494168113E+02  0.51100000000E-03 0.  1.
        -12    1    3    3    0    0 -0.18981321759E+02  0.73072472813E+01  0.20345118217E+02  0.28768216382E+02  0.00000000000E+00 0.  1.
</event>
<event>
 7    1  0.3528441E-013  0.5930191E+02  0.7816164E-02  0.1266605E+00
        -11   -1    0    0    0    0  0.00000000000E+00  0.00000000000E+00  0.45593999997E+02  0.45594000000E+02  0.51100000000E-03 0. -1.
         11   -1    0    0    0    0 -0.00000000000E+00 -0.00000000000E+00 -0.45593999997E+02  0.45594000000E+02  0.51100000000E-03 0.  1.
    9900012    2    1    2    0    0 -0.20321560586E+02  0.22679994859E+02 -0.94538334947E+01  0.59301906492E+02  0.49999931543E+02 0.  0.
        -12    1    1    2    0    0  0.20321560586E+02 -0.22679994859E+02  0.94538334947E+01  0.31886093508E+02  0.00000000000E+00 0.  1.
         11    1    3    3    0    0  0.70462980216E+01  0.16450989984E+01 -0.52649123056E+01  0.89485176633E+01  0.51100000000E-03 0. -1.
        -11    1    3    3    0    0 -0.76087243818E+01 -0.10063784973E+02  0.26174964564E+01  0.12885020088E+02  0.51100000000E-03 0.  1.
         12    1    3    3    0    0 -0.19759134226E+02  0.31098680833E+02 -0.68064176455E+01  0.37468368741E+02  0.00000000000E+00 0. -1.
</event>
<event>
 7    1  0.3528441E-013  0.5930208E+02  0.7816164E-02  0.1266604E+00
        -11   -1    0    0    0    0  0.00000000000E+00  0.00000000000E+00  0.45593999997E+02  0.45594000000E+02  0.51100000000E-03 0. -1.
         11   -1    0    0    0    0 -0.00000000000E+00 -0.00000000000E+00 -0.45593999997E+02  0.45594000000E+02  0.51100000000E-03 0.  1.
    9900012    2    1    2    0    0 -0.17542940430E+02  0.33867605695E+01  0.26409975577E+02  0.59302082794E+02  0.50000253076E+02 0.  0.
        -12    1    1    2    0    0  0.17542940430E+02 -0.33867605695E+01 -0.26409975577E+02  0.31885917206E+02  0.00000000000E+00 0.  1.
         11    1    3    3    0    0  0.86460939732E+01 -0.64356106891E+01  0.17518599220E+02  0.20568746798E+02  0.51100000000E-03 0. -1.
        -11    1    3    3    0    0 -0.22325689572E+01 -0.18665569920E+01  0.11581886454E+02  0.11941879804E+02  0.51100000000E-03 0.  1.
        -12    1    3    3    0    0 -0.23956465446E+02  0.11688928251E+02 -0.26905100982E+01  0.26791456192E+02  0.00000000000E+00 0.  1.
</event>
<event>
 7    1  0.3528441E-013  0.5930195E+02  0.7816164E-02  0.1266605E+00
        -11   -1    0    0    0    0  0.00000000000E+00  0.00000000000E+00  0.45593999997E+02  0.45594000000E+02  0.51100000000E-03 0.  1.
         11   -1    0    0    0    0 -0.00000000000E+00 -0.00000000000E+00 -0.45593999997E+02  0.45594000000E+02  0.51100000000E-03 0. -1.
    9900012    2    1    2    0    0  0.10409740442E+02  0.83130688135E+01 -0.28969822895E+02  0.59301945874E+02  0.50000003367E+02 0.  0.
        -12    1    1    2    0    0 -0.10409740442E+02 -0.83130688135E+01  0.28969822895E+02  0.31886054126E+02  0.00000000000E+00 0.  1.
         11    1    3    3    0    0 -0.39270708632E+01 -0.46165913602E+01 -0.18269086349E+01  0.63302762004E+01  0.51100000000E-03 0.  1.
        -11    1    3    3    0    0 -0.75328987438E+01  0.18922482095E+02 -0.43617929884E+01  0.20828589258E+02  0.51100000000E-03 0. -1.
        -12    1    3    3    0    0  0.21869710049E+02 -0.59928219213E+01 -0.22781121272E+02  0.32143080416E+02  0.00000000000E+00 0.  1.
</event>
<event>
 7    1  0.3528441E-013  0.5930195E+02  0.7816164E-02  0.1266605E+00
        -11   -1    0    0    0    0  0.00000000000E+00  0.00000000000E+00  0.45593999997E+02  0.45594000000E+02  0.51100000000E-03 0. -1.
         11   -1    0    0    0    0 -0.00000000000E+00 -0.00000000000E+00 -0.45593999997E+02  0.45594000000E+02  0.51100000000E-03 0.  1.
    9900012    2    1    2    0    0  0.22844454070E+02  0.16714467437E+02  0.14679149290E+02  0.59301954034E+02  0.50000018249E+02 0.  0.
        -12    1    1    2    0    0 -0.22844454070E+02 -0.16714467437E+02 -0.14679149290E+02  0.31886045966E+02  0.00000000000E+00 0.  1.
         11    1    3    3    0    0  0.14071150101E+02  0.16161311426E+02  0.10832690232E+02  0.24011089731E+02  0.51100000000E-03 0. -1.
        -11    1    3    3    0    0  0.64635916331E+01  0.16579925630E+02  0.63741218539E+01  0.18902417315E+02  0.51100000000E-03 0.  1.
        -12    1    3    3    0    0  0.23097123362E+01 -0.16026769618E+02 -0.25276627962E+01  0.16388446988E+02  0.00000000000E+00 0.  1.
</event>
<event>
 7    1  0.3528441E-013  0.5930194E+02  0.7816164E-02  0.1266605E+00
        -11   -1    0    0    0    0  0.00000000000E+00  0.00000000000E+00  0.45593999997E+02  0.45594000000E+02  0.51100000000E-03 0. -1.
         11   -1    0    0    0    0 -0.00000000000E+00 -0.00000000000E+00 -0.45593999997E+02  0.45594000000E+02  0.51100000000E-03 0.  1.
    9900012    2    1    2    0    0  0.13636502905E+01 -0.25030500399E+02  0.19706222902E+02  0.59301941708E+02  0.49999995769E+02 0.  0.
        -12    1    1    2    0    0 -0.13636502905E+01  0.25030500399E+02 -0.19706222902E+02  0.31886058292E+02  0.00000000000E+00 0.  1.
         11    1    3    3    0    0  0.79282072127E+01 -0.21946493156E+01 -0.68009692532E+01  0.10673618799E+02  0.51100000000E-03 0. -1.
        -11    1    3    3    0    0  0.61482052579E+01 -0.63823919318E+01 -0.55222200759E+01  0.10441756054E+02  0.51100000000E-03 0.  1.
         12    1    3    3    0    0 -0.12712762180E+02 -0.16453459152E+02  0.32029412231E+02  0.38186566855E+02  0.00000000000E+00 0. -1.
</event>
<event>
 7    1  0.3528441E-013  0.5930194E+02  0.7816164E-02  0.1266605E+00
        -11   -1    0    0    0    0  0.00000000000E+00  0.00000000000E+00  0.45593999997E+02  0.45594000000E+02  0.51100000000E-03 0. -1.
         11   -1    0    0    0    0 -0.00000000000E+00 -0.00000000000E+00 -0.45593999997E+02  0.45594000000E+02  0.51100000000E-03 0.  1.
    9900012    2    1    2    0    0  0.30002527636E+02 -0.48047053657E+01  0.96686943691E+01  0.59301944913E+02  0.50000001615E+02 0.  0.
        -12    1    1    2    0    0 -0.30002527636E+02  0.48047053657E+01 -0.96686943691E+01  0.31886055087E+02  0.00000000000E+00 0.  1.
         11    1    3    3    0    0  0.26364404032E+01 -0.68758828079E-01  0.18977459883E+02  0.19159841587E+02  0.51100000000E-03 0. -1.
        -11    1    3    3    0    0  0.10826808672E+02  0.11340390775E+02 -0.13261911730E+01  0.15734771439E+02  0.51100000000E-03 0.  1.
         12    1    3    3    0    0  0.16539278561E+02 -0.16076337313E+02 -0.79825743412E+01  0.24407331886E+02  0.00000000000E+00 0. -1.
</event>
<event>
 7    1  0.3528441E-013  0.5930191E+02  0.7816164E-02  0.1266605E+00
        -11   -1    0    0    0    0  0.00000000000E+00  0.00000000000E+00  0.45593999997E+02  0.45594000000E+02  0.51100000000E-03 0. -1.
         11   -1    0    0    0    0 -0.00000000000E+00 -0.00000000000E+00 -0.45593999997E+02  0.45594000000E+02  0.51100000000E-03 0.  1.
    9900012    2    1    2    0    0  0.17428964263E+02 -0.22395479525E+02  0.14539487133E+02  0.59301906094E+02  0.49999930819E+02 0.  0.
        -12    1    1    2    0    0 -0.17428964263E+02  0.22395479525E+02 -0.14539487133E+02  0.31886093906E+02  0.00000000000E+00 0.  1.
         11    1    3    3    0    0  0.11550547983E+02 -0.13134012063E+02  0.26126533173E+02  0.31440629248E+02  0.51100000000E-03 0. -1.
        -11    1    3    3    0    0  0.38577562914E+01 -0.60438346308E+01  0.63186115839E+01  0.95569384877E+01  0.51100000000E-03 0.  1.
        -12    1    3    3    0    0  0.20206599892E+01 -0.32176328312E+01 -0.17905657624E+02  0.18304338359E+02  0.00000000000E+00 0.  1.
</event>
<event>
 7    1  0.3528441E-013  0.5930193E+02  0.7816164E-02  0.1266605E+00
        -11   -1    0    0    0    0  0.00000000000E+00  0.00000000000E+00  0.45593999997E+02  0.45594000000E+02  0.51100000000E-03 0. -1.
         11   -1    0    0    0    0 -0.00000000000E+00 -0.00000000000E+00 -0.45593999997E+02  0.45594000000E+02  0.51100000000E-03 0.  1.
    9900012    2    1    2    0    0  0.34268074364E+01 -0.30252182447E+02 -0.94754336861E+01  0.59301931011E+02  0.49999976261E+02 0.  0.
        -12    1    1    2    0    0 -0.34268074364E+01  0.30252182447E+02  0.94754336861E+01  0.31886068989E+02  0.00000000000E+00 0.  1.
         11    1    3    3    0    0  0.50778072472E+00  0.66072469697E+01  0.48422671890E+01  0.82073811641E+01  0.51100000000E-03 0. -1.
        -11    1    3    3    0    0  0.52648027728E+01  0.32575866339E+01 -0.84614007989E+01  0.10484527775E+02  0.51100000000E-03 0.  1.
         12    1    3    3    0    0 -0.23457760611E+01 -0.40117016051E+02 -0.58563000762E+01  0.40610022072E+02  0.00000000000E+00 0. -1.
</event>
<event>
 7    1  0.3528441E-013  0.5930189E+02  0.7816164E-02  0.1266605E+00
        -11   -1    0    0    0    0  0.00000000000E+00  0.00000000000E+00  0.45593999997E+02  0.45594000000E+02  0.51100000000E-03 0.  1.
         11   -1    0    0    0    0 -0.00000000000E+00 -0.00000000000E+00 -0.45593999997E+02  0.45594000000E+02  0.51100000000E-03 0. -1.
    9900012    2    1    2    0    0  0.30609216883E+02 -0.61782876868E+01  0.64520066882E+01  0.59301893508E+02  0.49999907863E+02 0.  0.
        -12    1    1    2    0    0 -0.30609216883E+02  0.61782876868E+01 -0.64520066882E+01  0.31886106492E+02  0.00000000000E+00 0.  1.
         11    1    3    3    0    0 -0.61494466876E+01  0.67350002098E+01 -0.41819794873E-01  0.91201793593E+01  0.51100000000E-03 0. -1.
        -11    1    3    3    0    0 -0.34745165387E+01  0.23553284017E+01 -0.40959537322E+01  0.58648677986E+01  0.51100000000E-03 0.  1.
        -12    1    3    3    0    0  0.40233180109E+02 -0.15268616298E+02  0.10589780215E+02  0.44316846350E+02  0.00000000000E+00 0.  1.
</event>
<event>
 7    1  0.3528441E-013  0.5930198E+02  0.7816164E-02  0.1266605E+00
        -11   -1    0    0    0    0  0.00000000000E+00  0.00000000000E+00  0.45593999997E+02  0.45594000000E+02  0.51100000000E-03 0. -1.
         11   -1    0    0    0    0 -0.00000000000E+00 -0.00000000000E+00 -0.45593999997E+02  0.45594000000E+02  0.51100000000E-03 0.  1.
    9900012    2    1    2    0    0  0.70824074174E+00  0.10964645742E+02  0.29933143988E+02  0.59301981587E+02  0.50000068499E+02 0.  0.
        -12    1    1    2    0    0 -0.70824074174E+00 -0.10964645742E+02 -0.29933143988E+02  0.31886018413E+02  0.00000000000E+00 0.  1.
         11    1    3    3    0    0 -0.56503313361E+01 -0.26910457847E+00 -0.24283998047E+01  0.61559554380E+01  0.51100000000E-03 0. -1.
        -11    1    3    3    0    0 -0.10898221749E+02 -0.29863882233E+01 -0.26467375377E+01  0.11605816290E+02  0.51100000000E-03 0.  1.
         12    1    3    3    0    0  0.17256793827E+02  0.14220138544E+02  0.35008281331E+02  0.41540209859E+02  0.00000000000E+00 0. -1.
</event>
<event>
 7    1  0.3528441E-013  0.5930204E+02  0.7816164E-02  0.1266604E+00
        -11   -1    0    0    0    0  0.00000000000E+00  0.00000000000E+00  0.45593999997E+02  0.45594000000E+02  0.51100000000E-03 0.  1.
         11   -1    0    0    0    0 -0.00000000000E+00 -0.00000000000E+00 -0.45593999997E+02  0.45594000000E+02  0.51100000000E-03 0. -1.
    9900012    2    1    2    0    0  0.25350181450E+02  0.14559284047E+02 -0.12732237006E+02  0.59302042108E+02  0.50000178875E+02 0.  0.
        -12    1    1    2    0    0 -0.25350181450E+02 -0.14559284047E+02  0.12732237006E+02  0.31885957892E+02  0.00000000000E+00 0.  1.
         11    1    3    3    0    0  0.10682068986E+02 -0.12809796750E+02 -0.15052187880E+02  0.22466994700E+02  0.51100000000E-03 0.  1.
        -11    1    3    3    0    0  0.66628640895E+01  0.12717372109E+02 -0.87399702636E+01  0.16808104941E+02  0.51100000000E-03 0. -1.
        -12    1    3    3    0    0  0.80052483748E+01  0.14651708687E+02  0.11059921138E+02  0.20026942467E+02  0.00000000000E+00 0.  1.
</event>
<event>
 7    1  0.3528441E-013  0.5930200E+02  0.7816164E-02  0.1266605E+00
        -11   -1    0    0    0    0  0.00000000000E+00  0.00000000000E+00  0.45593999997E+02  0.45594000000E+02  0.51100000000E-03 0. -1.
         11   -1    0    0    0    0 -0.00000000000E+00 -0.00000000000E+00 -0.45593999997E+02  0.45594000000E+02  0.51100000000E-03 0.  1.
    9900012    2    1    2    0    0  0.82926580717E+01  0.13574390897E+02  0.27634842894E+02  0.59302002950E+02  0.50000107459E+02 0.  0.
        -12    1    1    2    0    0 -0.82926580717E+01 -0.13574390897E+02 -0.27634842894E+02  0.31885997050E+02  0.00000000000E+00 0.  1.
         11    1    3    3    0    0  0.18467706595E+02  0.11764721953E+02  0.83980915629E+01  0.23451925543E+02  0.51100000000E-03 0. -1.
        -11    1    3    3    0    0 -0.97126370764E+01  0.11556777671E+02  0.95410139414E+00  0.15126292964E+02  0.51100000000E-03 0.  1.
        -12    1    3    3    0    0 -0.46241144662E+00 -0.97471087274E+01  0.18282649937E+02  0.20723784442E+02  0.00000000000E+00 0.  1.
</event>
<event>
 7    1  0.3528441E-013  0.5930199E+02  0.7816164E-02  0.1266605E+00
        -11   -1    0    0    0    0  0.00000000000E+00  0.00000000000E+00  0.45593999997E+02  0.45594000000E+02  0.51100000000E-03 0.  1.
         11   -1    0    0    0    0 -0.00000000000E+00 -0.00000000000E+00 -0.45593999997E+02  0.45594000000E+02  0.51100000000E-03 0. -1.
    9900012    2    1    2    0    0 -0.92115286932E+01 -0.24804249512E+02  0.17793673481E+02  0.59301986284E+02  0.50000077066E+02 0.  0.
        -12    1    1    2    0    0  0.92115286932E+01  0.24804249512E+02 -0.17793673481E+02  0.31886013716E+02  0.00000000000E+00 0.  1.
         11    1    3    3    0    0 -0.10503633339E+01 -0.79605520696E+01  0.10764487874E+02  0.13429365280E+02  0.51100000000E-03 0. -1.
        -11    1    3    3    0    0 -0.13211961115E+02 -0.20644753880E+02  0.19874858543E+02  0.31555851781E+02  0.51100000000E-03 0.  1.
         12    1    3    3    0    0  0.50507957553E+01  0.38010564382E+01 -0.12845672936E+02  0.14316769223E+02  0.00000000000E+00 0. -1.
</event>
<event>
 7    1  0.3528441E-013  0.5930196E+02  0.7816164E-02  0.1266605E+00
        -11   -1    0    0    0    0  0.00000000000E+00  0.00000000000E+00  0.45593999997E+02  0.45594000000E+02  0.51100000000E-03 0.  1.
         11   -1    0    0    0    0 -0.00000000000E+00 -0.00000000000E+00 -0.45593999997E+02  0.45594000000E+02  0.51100000000E-03 0. -1.
    9900012    2    1    2    0    0  0.26130621831E+02  0.13365487759E+02  0.12460900890E+02  0.59301957421E+02  0.50000024427E+02 0.  0.
        -12    1    1    2    0    0 -0.26130621831E+02 -0.13365487759E+02 -0.12460900890E+02  0.31886042579E+02  0.00000000000E+00 0.  1.
         11    1    3    3    0    0 -0.95225720182E+01 -0.50315674001E+01  0.50637537304E+01  0.11901161727E+02  0.51100000000E-03 0. -1.
        -11    1    3    3    0    0  0.18410804933E+02 -0.58529343836E+00  0.11076451833E+02  0.21493908257E+02  0.51100000000E-03 0.  1.
         12    1    3    3    0    0  0.17242388917E+02  0.18982348597E+02 -0.36793046736E+01  0.25906887438E+02  0.00000000000E+00 0. -1.
</event>
<event>
 7    1  0.3528441E-013  0.5930194E+02  0.7816164E-02  0.1266605E+00
        -11   -1    0    0    0    0  0.00000000000E+00  0.00000000000E+00  0.45593999997E+02  0.45594000000E+02  0.51100000000E-03 0.  1.
         11   -1    0    0    0    0 -0.00000000000E+00 -0.00000000000E+00 -0.45593999997E+02  0.45594000000E+02  0.51100000000E-03 0. -1.
    9900012    2    1    2    0    0  0.41039200110E+01 -0.29030658325E+02  0.12533947044E+02  0.59301935477E+02  0.49999984405E+02 0.  0.
        -12    1    1    2    0    0 -0.41039200110E+01  0.29030658325E+02 -0.12533947044E+02  0.31886064523E+02  0.00000000000E+00 0.  1.
         11    1    3    3    0    0 -0.56492612588E+01 -0.10449023721E+02  0.18945421686E+01  0.12028530242E+02  0.51100000000E-03 0. -1.
        -11    1    3    3    0    0 -0.74940447375E+01 -0.20567813440E+02 -0.65425857562E+01  0.22847343059E+02  0.51100000000E-03 0.  1.
         12    1    3    3    0    0  0.17247226007E+02  0.19861788358E+01  0.17181990632E+02  0.24426062175E+02  0.00000000000E+00 0. -1.
</event>
<event>
 7    1  0.3528441E-013  0.5930193E+02  0.7816164E-02  0.1266605E+00
        -11   -1    0    0    0    0  0.00000000000E+00  0.00000000000E+00  0.45593999997E+02  0.45594000000E+02  0.51100000000E-03 0. -1.
         11   -1    0    0    0    0 -0.00000000000E+00 -0.00000000000E+00 -0.45593999997E+02  0.45594000000E+02  0.51100000000E-03 0.  1.
    9900012    2    1    2    0    0  0.91662175956E+01  0.18573063710E+02  0.24243417059E+02  0.59301929197E+02  0.49999972952E+02 0.  0.
        -12    1    1    2    0    0 -0.91662175956E+01 -0.18573063710E+02 -0.24243417059E+02  0.31886070803E+02  0.00000000000E+00 0.  1.
         11    1    3    3    0    0  0.84931248167E+01 -0.38226054801E+01  0.15034397155E+02  0.17685547203E+02  0.51100000000E-03 0. -1.
        -11    1    3    3    0    0  0.10739648401E+02  0.13682362334E+02  0.18491075501E+02  0.25386353819E+02  0.51100000000E-03 0.  1.
        -12    1    3    3    0    0 -0.10066555622E+02  0.87133068559E+01 -0.92820555967E+01  0.16230028175E+02  0.00000000000E+00 0.  1.
</event>
<event>
 7    1  0.3528441E-013  0.5930193E+02  0.7816164E-02  0.1266605E+00
        -11   -1    0    0    0    0  0.00000000000E+00  0.00000000000E+00  0.45593999997E+02  0.45594000000E+02  0.51100000000E-03 0.  1.
         11   -1    0    0    0    0 -0.00000000000E+00 -0.00000000000E+00 -0.45593999997E+02  0.45594000000E+02  0.51100000000E-03 0. -1.
    9900012    2    1    2    0    0 -0.44634072346E+01 -0.26330478718E+02 -0.17421397751E+02  0.59301933869E+02  0.49999981474E+02 0.  0.
        -12    1    1    2    0    0  0.44634072346E+01  0.26330478718E+02  0.17421397751E+02  0.31886066131E+02  0.00000000000E+00 0.  1.
         11    1    3    3    0    0 -0.59329372819E+01 -0.99956677642E+00 -0.18663166848E+02  0.19608994762E+02  0.51100000000E-03 0. -1.
        -11    1    3    3    0    0  0.23720228042E+01  0.63590413482E+01  0.39870491988E+01  0.78714967209E+01  0.51100000000E-03 0.  1.
        -12    1    3    3    0    0 -0.90249275693E+00 -0.31689953290E+02 -0.27452801020E+01  0.31821442386E+02  0.00000000000E+00 0.  1.
</event>
<event>
 7    1  0.3528441E-013  0.5930198E+02  0.7816164E-02  0.1266605E+00
        -11   -1    0    0    0    0  0.00000000000E+00  0.00000000000E+00  0.45593999997E+02  0.45594000000E+02  0.51100000000E-03 0.  1.
         11   -1    0    0    0    0 -0.00000000000E+00 -0.00000000000E+00 -0.45593999997E+02  0.45594000000E+02  0.51100000000E-03 0. -1.
    9900012    2    1    2    0    0  0.47026040126E+00  0.52432539836E+00 -0.31878243941E+02  0.59301976436E+02  0.50000059105E+02 0.  0.
        -12    1    1    2    0    0 -0.47026040126E+00 -0.52432539836E+00  0.31878243941E+02  0.31886023564E+02  0.00000000000E+00 0.  1.
         11    1    3    3    0    0 -0.13801089381E+01  0.54675037776E+01  0.79432239392E+01  0.97413092061E+01  0.51100000000E-03 0. -1.
        -11    1    3    3    0    0  0.94484055447E+01 -0.12028747230E+02 -0.10769173384E+02  0.18706635798E+02  0.51100000000E-03 0.  1.
         12    1    3    3    0    0 -0.75980362053E+01  0.70855688506E+01 -0.29052294496E+02  0.30854031432E+02  0.00000000000E+00 0. -1.
</event>
<event>
 7    1  0.3528441E-013  0.5930196E+02  0.7816164E-02  0.1266605E+00
        -11   -1    0    0    0    0  0.00000000000E+00  0.00000000000E+00  0.45593999997E+02  0.45594000000E+02  0.51100000000E-03 0.  1.
         11   -1    0    0    0    0 -0.00000000000E+00 -0.00000000000E+00 -0.45593999997E+02  0.45594000000E+02  0.51100000000E-03 0. -1.
    9900012    2    1    2    0    0  0.60829625616E+01  0.25687973445E+02 -0.17884211912E+02  0.59301961535E+02  0.50000031930E+02 0.  0.
        -12    1    1    2    0    0 -0.60829625616E+01 -0.25687973445E+02  0.17884211912E+02  0.31886038465E+02  0.00000000000E+00 0.  1.
         11    1    3    3    0    0 -0.10673376718E+02  0.24257678691E+02 -0.12617348559E+02  0.29352230426E+02  0.51100000000E-03 0. -1.
        -11    1    3    3    0    0  0.11438712942E+02  0.11149296184E+02  0.28371300086E+01  0.16223448034E+02  0.51100000000E-03 0.  1.
        -12    1    3    3    0    0  0.53176263381E+01 -0.97190014300E+01 -0.81039933618E+01  0.13726283076E+02  0.00000000000E+00 0.  1.
</event>
<event>
 7    1  0.3528441E-013  0.5930196E+02  0.7816164E-02  0.1266605E+00
        -11   -1    0    0    0    0  0.00000000000E+00  0.00000000000E+00  0.45593999997E+02  0.45594000000E+02  0.51100000000E-03 0.  1.
         11   -1    0    0    0    0 -0.00000000000E+00 -0.00000000000E+00 -0.45593999997E+02  0.45594000000E+02  0.51100000000E-03 0. -1.
    9900012    2    1    2    0    0  0.19691038988E+02 -0.19610808421E+02 -0.15633263028E+02  0.59301957031E+02  0.50000023714E+02 0.  0.
        -12    1    1    2    0    0 -0.19691038988E+02  0.19610808421E+02  0.15633263028E+02  0.31886042969E+02  0.00000000000E+00 0.  1.
         11    1    3    3    0    0  0.74031354922E+01  0.12649985753E+02 -0.27439634657E+00  0.14659599186E+02  0.51100000000E-03 0. -1.
        -11    1    3    3    0    0 -0.18421293746E+01  0.11554157481E+01 -0.71106631284E+01  0.74357216577E+01  0.51100000000E-03 0.  1.
        -12    1    3    3    0    0  0.14130032870E+02 -0.33416209922E+02 -0.82482035531E+01  0.37206636187E+02  0.00000000000E+00 0.  1.
</event>
<event>
 7    1  0.3528441E-013  0.5930195E+02  0.7816164E-02  0.1266605E+00
        -11   -1    0    0    0    0  0.00000000000E+00  0.00000000000E+00  0.45593999997E+02  0.45594000000E+02  0.51100000000E-03 0. -1.
         11   -1    0    0    0    0 -0.00000000000E+00 -0.00000000000E+00 -0.45593999997E+02  0.45594000000E+02  0.51100000000E-03 0.  1.
    9900012    2    1    2    0    0 -0.11278564543E+02 -0.25107228517E+02  0.16097863705E+02  0.59301950420E+02  0.50000011657E+02 0.  0.
        -12    1    1    2    0    0  0.11278564543E+02  0.25107228517E+02 -0.16097863705E+02  0.31886049580E+02  0.00000000000E+00 0.  1.
         11    1    3    3    0    0  0.12150505392E+02  0.10614036047E+01  0.11251154996E+02  0.16593668910E+02  0.51100000000E-03 0. -1.
        -11    1    3    3    0    0  0.36499330661E+01 -0.15629174636E+01 -0.33708470399E+01  0.52083905779E+01  0.51100000000E-03 0.  1.
         12    1    3    3    0    0 -0.27079003001E+02 -0.24605714659E+02  0.82175557492E+01  0.37499890932E+02  0.00000000000E+00 0. -1.
</event>
<event>
 7    1  0.3528441E-013  0.5930195E+02  0.7816164E-02  0.1266605E+00
        -11   -1    0    0    0    0  0.00000000000E+00  0.00000000000E+00  0.45593999997E+02  0.45594000000E+02  0.51100000000E-03 0.  1.
         11   -1    0    0    0    0 -0.00000000000E+00 -0.00000000000E+00 -0.45593999997E+02  0.45594000000E+02  0.51100000000E-03 0. -1.
    9900012    2    1    2    0    0  0.31868004394E+02 -0.84733375573E+00  0.65748970557E+00  0.59301953346E+02  0.50000016993E+02 0.  0.
        -12    1    1    2    0    0 -0.31868004394E+02  0.84733375573E+00 -0.65748970557E+00  0.31886046654E+02  0.00000000000E+00 0.  1.
         11    1    3    3    0    0  0.23880834618E+02 -0.11054138627E+02 -0.12765008978E+02  0.29247798162E+02  0.51100000000E-03 0. -1.
        -11    1    3    3    0    0 -0.39866848653E+01 -0.56835842226E+01  0.42968809662E+01  0.81645558440E+01  0.51100000000E-03 0.  1.
         12    1    3    3    0    0  0.11973854641E+02  0.15890389094E+02  0.91256177174E+01  0.21889599340E+02  0.00000000000E+00 0. -1.
</event>
<event>
 7    1  0.3528441E-013  0.5930195E+02  0.7816164E-02  0.1266605E+00
        -11   -1    0    0    0    0  0.00000000000E+00  0.00000000000E+00  0.45593999997E+02  0.45594000000E+02  0.51100000000E-03 0. -1.
         11   -1    0    0    0    0 -0.00000000000E+00 -0.00000000000E+00 -0.45593999997E+02  0.45594000000E+02  0.51100000000E-03 0.  1.
    9900012    2    1    2    0    0  0.66933199631E+01 -0.21605973035E+02  0.22474461739E+02  0.59301952372E+02  0.50000015217E+02 0.  0.
        -12    1    1    2    0    0 -0.66933199631E+01  0.21605973035E+02 -0.22474461739E+02  0.31886047628E+02  0.00000000000E+00 0.  1.
         11    1    3    3    0    0  0.59880623117E+01  0.11911690036E+02  0.10890457995E+02  0.17214741513E+02  0.51100000000E-03 0.  1.
        -11    1    3    3    0    0 -0.10468466704E+02 -0.10254479269E+02  0.41840800815E+01  0.15239739715E+02  0.51100000000E-03 0. -1.
        -12    1    3    3    0    0  0.11173724355E+02 -0.23263183802E+02  0.73999236628E+01  0.26847471143E+02  0.00000000000E+00 0.  1.
</event>
<event>
 7    1  0.3528441E-013  0.5930194E+02  0.7816164E-02  0.1266605E+00
        -11   -1    0    0    0    0  0.00000000000E+00  0.00000000000E+00  0.45593999997E+02  0.45594000000E+02  0.51100000000E-03 0.  1.
         11   -1    0    0    0    0 -0.00000000000E+00 -0.00000000000E+00 -0.45593999997E+02  0.45594000000E+02  0.51100000000E-03 0. -1.
    9900012    2    1    2    0    0 -0.16014022876E+02  0.92224963128E+01 -0.25984948204E+02  0.59301938781E+02  0.49999990431E+02 0.  0.
        -12    1    1    2    0    0  0.16014022876E+02 -0.92224963128E+01  0.25984948204E+02  0.31886061219E+02  0.00000000000E+00 0.  1.
         11    1    3    3    0    0  0.57349331079E+01  0.94783434205E+01 -0.18786378525E+02  0.21809549975E+02  0.51100000000E-03 0. -1.
        -11    1    3    3    0    0 -0.14917094270E+02  0.14327859414E+02 -0.44023385167E+01  0.21146816345E+02  0.51100000000E-03 0.  1.
        -12    1    3    3    0    0 -0.68318617145E+01 -0.14583706521E+02 -0.27962311616E+01  0.16345572462E+02  0.00000000000E+00 0.  1.
</event>
<event>
 7    1  0.3528441E-013  0.5930194E+02  0.7816164E-02  0.1266605E+00
        -11   -1    0    0    0    0  0.00000000000E+00  0.00000000000E+00  0.45593999997E+02  0.45594000000E+02  0.51100000000E-03 0.  1.
         11   -1    0    0    0    0 -0.00000000000E+00 -0.00000000000E+00 -0.45593999997E+02  0.45594000000E+02  0.51100000000E-03 0. -1.
    9900012    2    1    2    0    0  0.31420997283E+02 -0.18202379518E+01 -0.51116048615E+01  0.59301939712E+02  0.49999992129E+02 0.  0.
        -12    1    1    2    0    0 -0.31420997283E+02  0.18202379518E+01  0.51116048615E+01  0.31886060288E+02  0.00000000000E+00 0.  1.
         11    1    3    3    0    0  0.15888667147E+01 -0.34443753169E+01  0.17328822249E+01  0.41702637600E+01  0.51100000000E-03 0. -1.
        -11    1    3    3    0    0  0.10334770009E+02 -0.21696525682E+02 -0.57707428713E+01  0.24715342834E+02  0.51100000000E-03 0.  1.
         12    1    3    3    0    0  0.19497360559E+02  0.23320663047E+02 -0.10737442151E+01  0.30416333118E+02  0.00000000000E+00 0. -1.
</event>
<event>
 7    1  0.3528441E-013  0.5930199E+02  0.7816164E-02  0.1266605E+00
        -11   -1    0    0    0    0  0.00000000000E+00  0.00000000000E+00  0.45593999997E+02  0.45594000000E+02  0.51100000000E-03 0.  1.
         11   -1    0    0    0    0 -0.00000000000E+00 -0.00000000000E+00 -0.45593999997E+02  0.45594000000E+02  0.51100000000E-03 0. -1.
    9900012    2    1    2    0    0 -0.31856665009E+02 -0.13091822269E+01  0.39556664959E+00  0.59301991523E+02  0.50000086620E+02 0.  0.
        -12    1    1    2    0    0  0.31856665009E+02  0.13091822269E+01 -0.39556664959E+00  0.31886008477E+02  0.00000000000E+00 0.  1.
         11    1    3    3    0    0 -0.73811830224E+01 -0.29216749159E+01 -0.60716875133E+01  0.99941701328E+01  0.51100000000E-03 0. -1.
        -11    1    3    3    0    0 -0.29090281154E+02 -0.12413862513E+02  0.11580290401E+02  0.33681620598E+02  0.51100000000E-03 0.  1.
         12    1    3    3    0    0  0.46147991668E+01  0.14026355202E+02 -0.51130362382E+01  0.15626200792E+02  0.00000000000E+00 0. -1.
</event>
<event>
 7    1  0.3528441E-013  0.5930190E+02  0.7816164E-02  0.1266605E+00
        -11   -1    0    0    0    0  0.00000000000E+00  0.00000000000E+00  0.45593999997E+02  0.45594000000E+02  0.51100000000E-03 0. -1.
         11   -1    0    0    0    0 -0.00000000000E+00 -0.00000000000E+00 -0.45593999997E+02  0.45594000000E+02  0.51100000000E-03 0.  1.
    9900012    2    1    2    0    0 -0.11002048695E+02  0.19295440164E+02  0.22877153560E+02  0.59301902063E+02  0.49999923466E+02 0.  0.
        -12    1    1    2    0    0  0.11002048695E+02 -0.19295440164E+02 -0.22877153560E+02  0.31886097937E+02  0.00000000000E+00 0.  1.
         11    1    3    3    0    0  0.96238590346E+00  0.21349090087E+02  0.14111239436E+02  0.25609313010E+02  0.51100000000E-03 0. -1.
        -11    1    3    3    0    0  0.60236668508E+00 -0.12854929924E+00  0.17980486780E+02  0.17991033201E+02  0.51100000000E-03 0.  1.
        -12    1    3    3    0    0 -0.12566801284E+02 -0.19251006234E+01 -0.92145726560E+01  0.15701555851E+02  0.00000000000E+00 0.  1.
</event>
<event>
 7    1  0.3528441E-013  0.5930194E+02  0.7816164E-02  0.1266605E+00
        -11   -1    0    0    0    0  0.00000000000E+00  0.00000000000E+00  0.45593999997E+02  0.45594000000E+02  0.51100000000E-03 0.  1.
         11   -1    0    0    0    0 -0.00000000000E+00 -0.00000000000E+00 -0.45593999997E+02  0.45594000000E+02  0.51100000000E-03 0. -1.
    9900012    2    1    2    0    0  0.25946770747E+02  0.19108617784E+01 -0.18434594223E+02  0.59301943971E+02  0.49999999896E+02 0.  0.
        -12    1    1    2    0    0 -0.25946770747E+02 -0.19108617784E+01  0.18434594223E+02  0.31886056029E+02  0.00000000000E+00 0.  1.
         11    1    3    3    0    0 -0.12385161030E+01  0.14623047547E+02 -0.75434414547E+01  0.16500634865E+02  0.51100000000E-03 0. -1.
        -11    1    3    3    0    0  0.20475151497E+02  0.11997767198E+01  0.44980708516E+01  0.20997712605E+02  0.51100000000E-03 0.  1.
        -12    1    3    3    0    0  0.67101353529E+01 -0.13911962489E+02 -0.15389223620E+02  0.21803596501E+02  0.00000000000E+00 0.  1.
</event>
<event>
 7    1  0.3528441E-013  0.5930190E+02  0.7816164E-02  0.1266605E+00
        -11   -1    0    0    0    0  0.00000000000E+00  0.00000000000E+00  0.45593999997E+02  0.45594000000E+02  0.51100000000E-03 0. -1.
         11   -1    0    0    0    0 -0.00000000000E+00 -0.00000000000E+00 -0.45593999997E+02  0.45594000000E+02  0.51100000000E-03 0.  1.
    9900012    2    1    2    0    0 -0.14879633153E+01  0.29174009506E+02 -0.12782283080E+02  0.59301896032E+02  0.49999912468E+02 0.  0.
        -12    1    1    2    0    0  0.14879633153E+01 -0.29174009506E+02  0.12782283080E+02  0.31886103968E+02  0.00000000000E+00 0.  1.
         11    1    3    3    0    0  0.33480398373E+01  0.28315400031E+01  0.10348620311E+02  0.11239258523E+02  0.51100000000E-03 0. -1.
        -11    1    3    3    0    0  0.24953643913E+00  0.20778361505E+02  0.28827247759E+01  0.20978862640E+02  0.51100000000E-03 0.  1.
        -12    1    3    3    0    0 -0.50855395918E+01  0.55641079982E+01 -0.26013628168E+02  0.27083774870E+02  0.00000000000E+00 0.  1.
</event>
<event>
 7    1  0.3528441E-013  0.5930156E+02  0.7816164E-02  0.1266606E+00
        -11   -1    0    0    0    0  0.00000000000E+00  0.00000000000E+00  0.45593999997E+02  0.45594000000E+02  0.51100000000E-03 0. -1.
         11   -1    0    0    0    0 -0.00000000000E+00 -0.00000000000E+00 -0.45593999997E+02  0.45594000000E+02  0.51100000000E-03 0.  1.
    9900012    2    1    2    0    0  0.57278858214E+01  0.22143217626E+02  0.22217430891E+02  0.59301560904E+02  0.49999301269E+02 0.  0.
        -12    1    1    2    0    0 -0.57278858214E+01 -0.22143217626E+02 -0.22217430891E+02  0.31886439096E+02  0.00000000000E+00 0.  1.
         11    1    3    3    0    0  0.70696816286E+01  0.21486956615E+01  0.17940174663E+02  0.19402246225E+02  0.51100000000E-03 0. -1.
        -11    1    3    3    0    0  0.92595014719E+01  0.88392748760E+01  0.16045404889E+02  0.20526231173E+02  0.51100000000E-03 0.  1.
        -12    1    3    3    0    0 -0.10601297279E+02  0.11155247089E+02 -0.11768148661E+02  0.19373083506E+02  0.00000000000E+00 0.  1.
</event>
<event>
 7    1  0.3528441E-013  0.5930207E+02  0.7816164E-02  0.1266604E+00
        -11   -1    0    0    0    0  0.00000000000E+00  0.00000000000E+00  0.45593999997E+02  0.45594000000E+02  0.51100000000E-03 0.  1.
         11   -1    0    0    0    0 -0.00000000000E+00 -0.00000000000E+00 -0.45593999997E+02  0.45594000000E+02  0.51100000000E-03 0. -1.
    9900012    2    1    2    0    0  0.12594400804E+02 -0.68441242431E+01 -0.28482480862E+02  0.59302067611E+02  0.50000225386E+02 0.  0.
        -12    1    1    2    0    0 -0.12594400804E+02  0.68441242431E+01  0.28482480862E+02  0.31885932389E+02  0.00000000000E+00 0.  1.
         11    1    3    3    0    0  0.16014582513E+02  0.69800367102E+01 -0.27208841287E+02  0.32334328661E+02  0.51100000000E-03 0. -1.
        -11    1    3    3    0    0  0.35419775853E+01 -0.57060281141E+01 -0.10752142901E+02  0.12677260717E+02  0.51100000000E-03 0.  1.
        -12    1    3    3    0    0 -0.69621592936E+01 -0.81181328391E+01  0.94785033263E+01  0.14290478233E+02  0.00000000000E+00 0.  1.
</event>
<event>
 7    1  0.3528441E-013  0.5930196E+02  0.7816164E-02  0.1266605E+00
        -11   -1    0    0    0    0  0.00000000000E+00  0.00000000000E+00  0.45593999997E+02  0.45594000000E+02  0.51100000000E-03 0.  1.
         11   -1    0    0    0    0 -0.00000000000E+00 -0.00000000000E+00 -0.45593999997E+02  0.45594000000E+02  0.51100000000E-03 0. -1.
    9900012    2    1    2    0    0 -0.25007448372E+02 -0.18858531160E+02 -0.59751874953E+01  0.59301960152E+02  0.50000029406E+02 0.  0.
        -12    1    1    2    0    0  0.25007448372E+02  0.18858531160E+02  0.59751874953E+01  0.31886039848E+02  0.00000000000E+00 0.  1.
         11    1    3    3    0    0 -0.12572043026E+02 -0.80140385964E+01 -0.12780676533E+02  0.19637382040E+02  0.51100000000E-03 0. -1.
        -11    1    3    3    0    0  0.10647838147E+02  0.31413296947E+01 -0.19888980302E+01  0.11278303289E+02  0.51100000000E-03 0.  1.
         12    1    3    3    0    0 -0.23083243492E+02 -0.13985822258E+02  0.87943870683E+01  0.28386274822E+02  0.00000000000E+00 0. -1.
</event>
<event>
 7    1  0.3528441E-013  0.5930196E+02  0.7816164E-02  0.1266605E+00
        -11   -1    0    0    0    0  0.00000000000E+00  0.00000000000E+00  0.45593999997E+02  0.45594000000E+02  0.51100000000E-03 0. -1.
         11   -1    0    0    0    0 -0.00000000000E+00 -0.00000000000E+00 -0.45593999997E+02  0.45594000000E+02  0.51100000000E-03 0.  1.
    9900012    2    1    2    0    0  0.28950439661E+02  0.15849164780E+01  0.13269501038E+02  0.59301959565E+02  0.50000028336E+02 0.  0.
        -12    1    1    2    0    0 -0.28950439661E+02 -0.15849164780E+01 -0.13269501038E+02  0.31886040435E+02  0.00000000000E+00 0.  1.
         11    1    3    3    0    0  0.10484955810E+02 -0.71917468414E+01  0.34746636904E+01  0.13180622481E+02  0.51100000000E-03 0. -1.
        -11    1    3    3    0    0 -0.39576210102E+01 -0.12672413731E+02 -0.88353688483E+00  0.13305392573E+02  0.51100000000E-03 0.  1.
         12    1    3    3    0    0  0.22423104862E+02  0.21449077050E+02  0.10678374233E+02  0.32815944512E+02  0.00000000000E+00 0. -1.
</event>
<event>
 7    1  0.3528441E-013  0.5930191E+02  0.7816164E-02  0.1266605E+00
        -11   -1    0    0    0    0  0.00000000000E+00  0.00000000000E+00  0.45593999997E+02  0.45594000000E+02  0.51100000000E-03 0. -1.
         11   -1    0    0    0    0 -0.00000000000E+00 -0.00000000000E+00 -0.45593999997E+02  0.45594000000E+02  0.51100000000E-03 0.  1.
    9900012    2    1    2    0    0  0.83498330868E+01 -0.29636749593E+02  0.82865176363E+01  0.59301905640E+02  0.49999929990E+02 0.  0.
        -12    1    1    2    0    0 -0.83498330868E+01  0.29636749593E+02 -0.82865176363E+01  0.31886094360E+02  0.00000000000E+00 0.  1.
         11    1    3    3    0    0 -0.78093528889E+01 -0.95811541248E+01  0.10482730476E+02  0.16207163398E+02  0.51100000000E-03 0. -1.
        -11    1    3    3    0    0 -0.35694565032E+01 -0.21039047142E+02 -0.75382361874E+01  0.22632002330E+02  0.51100000000E-03 0.  1.
         12    1    3    3    0    0  0.19728642479E+02  0.98345167444E+00  0.53420233472E+01  0.20462739912E+02  0.00000000000E+00 0. -1.
</event>
<event>
 7    1  0.3528441E-013  0.5930194E+02  0.7816164E-02  0.1266605E+00
        -11   -1    0    0    0    0  0.00000000000E+00  0.00000000000E+00  0.45593999997E+02  0.45594000000E+02  0.51100000000E-03 0.  1.
         11   -1    0    0    0    0 -0.00000000000E+00 -0.00000000000E+00 -0.45593999997E+02  0.45594000000E+02  0.51100000000E-03 0. -1.
    9900012    2    1    2    0    0 -0.90916340043E+01 -0.42166393982E+01 -0.30270170267E+02  0.59301936200E+02  0.49999985723E+02 0.  0.
        -12    1    1    2    0    0  0.90916340043E+01  0.42166393982E+01  0.30270170267E+02  0.31886063800E+02  0.00000000000E+00 0.  1.
         11    1    3    3    0    0 -0.18441067283E+02  0.12134388903E+02 -0.22243966227E+02  0.31338640531E+02  0.51100000000E-03 0. -1.
        -11    1    3    3    0    0  0.86812159081E+01  0.11294200636E+01 -0.92010372935E-01  0.87548595359E+01  0.51100000000E-03 0.  1.
        -12    1    3    3    0    0  0.66821737075E+00 -0.17480448365E+02 -0.79341936675E+01  0.19208436132E+02  0.00000000000E+00 0.  1.
</event>
<event>
 7    1  0.3528441E-013  0.5930195E+02  0.7816164E-02  0.1266605E+00
        -11   -1    0    0    0    0  0.00000000000E+00  0.00000000000E+00  0.45593999997E+02  0.45594000000E+02  0.51100000000E-03 0.  1.
         11   -1    0    0    0    0 -0.00000000000E+00 -0.00000000000E+00 -0.45593999997E+02  0.45594000000E+02  0.51100000000E-03 0. -1.
    9900012    2    1    2    0    0 -0.16343177163E+02  0.18977826076E+02 -0.19734815271E+02  0.59301948878E+02  0.50000008847E+02 0.  0.
        -12    1    1    2    0    0  0.16343177163E+02 -0.18977826076E+02  0.19734815271E+02  0.31886051122E+02  0.00000000000E+00 0.  1.
         11    1    3    3    0    0  0.24975622617E+01  0.98978618051E+00 -0.56097488846E+00  0.27444830152E+01  0.51100000000E-03 0. -1.
        -11    1    3    3    0    0  0.68663383054E+01 -0.56066493773E+01  0.83017410791E+01  0.12144958797E+02  0.51100000000E-03 0.  1.
         12    1    3    3    0    0 -0.25707077730E+02  0.23594689273E+02 -0.27475581462E+02  0.44412507067E+02  0.00000000000E+00 0. -1.
</event>
<event>
 7    1  0.3528441E-013  0.5930195E+02  0.7816164E-02  0.1266605E+00
        -11   -1    0    0    0    0  0.00000000000E+00  0.00000000000E+00  0.45593999997E+02  0.45594000000E+02  0.51100000000E-03 0.  1.
         11   -1    0    0    0    0 -0.00000000000E+00 -0.00000000000E+00 -0.45593999997E+02  0.45594000000E+02  0.51100000000E-03 0. -1.
    9900012    2    1    2    0    0  0.88668238741E+01  0.99356900969E+01 -0.28972087716E+02  0.59301947093E+02  0.50000005591E+02 0.  0.
        -12    1    1    2    0    0 -0.88668238741E+01 -0.99356900969E+01  0.28972087716E+02  0.31886052907E+02  0.00000000000E+00 0.  1.
         11    1    3    3    0    0  0.19130018791E+02 -0.81132345383E+01 -0.60226300470E+01  0.21634561853E+02  0.51100000000E-03 0. -1.
        -11    1    3    3    0    0  0.43530398781E+01 -0.22144939302E+01 -0.38037078699E+01  0.61904065591E+01  0.51100000000E-03 0.  1.
        -12    1    3    3    0    0 -0.14616234795E+02  0.20263418565E+02 -0.19145749799E+02  0.31476978682E+02  0.00000000000E+00 0.  1.
</event>
<event>
 7    1  0.3528441E-013  0.5930197E+02  0.7816164E-02  0.1266605E+00
        -11   -1    0    0    0    0  0.00000000000E+00  0.00000000000E+00  0.45593999997E+02  0.45594000000E+02  0.51100000000E-03 0.  1.
         11   -1    0    0    0    0 -0.00000000000E+00 -0.00000000000E+00 -0.45593999997E+02  0.45594000000E+02  0.51100000000E-03 0. -1.
    9900012    2    1    2    0    0  0.27621648198E+02 -0.15925517894E+02  0.37622130352E+00  0.59301966822E+02  0.50000041572E+02 0.  0.
        -12    1    1    2    0    0 -0.27621648198E+02  0.15925517894E+02 -0.37622130352E+00  0.31886033178E+02  0.00000000000E+00 0.  1.
         11    1    3    3    0    0  0.10840221883E+02 -0.17158599784E+02  0.93029968582E+01  0.22326524759E+02  0.51100000000E-03 0. -1.
        -11    1    3    3    0    0  0.11455001960E+02  0.11584325510E+02  0.65928665326E+01  0.17574969610E+02  0.51100000000E-03 0.  1.
         12    1    3    3    0    0  0.53264243544E+01 -0.10351243620E+02 -0.15519642087E+02  0.19400472453E+02  0.00000000000E+00 0. -1.
</event>
<event>
 7    1  0.3528441E-013  0.5930195E+02  0.7816164E-02  0.1266605E+00
        -11   -1    0    0    0    0  0.00000000000E+00  0.00000000000E+00  0.45593999997E+02  0.45594000000E+02  0.51100000000E-03 0.  1.
         11   -1    0    0    0    0 -0.00000000000E+00 -0.00000000000E+00 -0.45593999997E+02  0.45594000000E+02  0.51100000000E-03 0. -1.
    9900012    2    1    2    0    0  0.13766101438E+02  0.23334732173E+01 -0.28666519564E+02  0.59301953052E+02  0.50000016458E+02 0.  0.
        -12    1    1    2    0    0 -0.13766101438E+02 -0.23334732173E+01  0.28666519564E+02  0.31886046948E+02  0.00000000000E+00 0.  1.
         11    1    3    3    0    0 -0.96203922585E+01  0.41824097375E+00 -0.18575108579E+02  0.20922751533E+02  0.51100000000E-03 0. -1.
        -11    1    3    3    0    0  0.19075098856E+02 -0.59555957122E+01 -0.17637832553E+02  0.26653736212E+02  0.51100000000E-03 0.  1.
        -12    1    3    3    0    0  0.43113948407E+01  0.78708279558E+01  0.75464215681E+01  0.11725465307E+02  0.00000000000E+00 0.  1.
</event>
<event>
 7    1  0.3528441E-013  0.5930195E+02  0.7816164E-02  0.1266605E+00
        -11   -1    0    0    0    0  0.00000000000E+00  0.00000000000E+00  0.45593999997E+02  0.45594000000E+02  0.51100000000E-03 0.  1.
         11   -1    0    0    0    0 -0.00000000000E+00 -0.00000000000E+00 -0.45593999997E+02  0.45594000000E+02  0.51100000000E-03 0. -1.
    9900012    2    1    2    0    0 -0.13984176622E+02  0.22388276390E+02  0.17886540706E+02  0.59301945776E+02  0.50000003189E+02 0.  0.
        -12    1    1    2    0    0  0.13984176622E+02 -0.22388276390E+02 -0.17886540706E+02  0.31886054224E+02  0.00000000000E+00 0.  1.
         11    1    3    3    0    0 -0.16100539331E+02  0.67346917407E+01  0.21014183015E+02  0.27316283196E+02  0.51100000000E-03 0. -1.
        -11    1    3    3    0    0 -0.95900088643E+01 -0.22810624175E+01  0.17713218929E+01  0.10015442940E+02  0.51100000000E-03 0.  1.
         12    1    3    3    0    0  0.11706371573E+02  0.17934647067E+02 -0.48989642017E+01  0.21970219641E+02  0.00000000000E+00 0. -1.
</event>
<event>
 7    1  0.3528441E-013  0.5930194E+02  0.7816164E-02  0.1266605E+00
        -11   -1    0    0    0    0  0.00000000000E+00  0.00000000000E+00  0.45593999997E+02  0.45594000000E+02  0.51100000000E-03 0.  1.
         11   -1    0    0    0    0 -0.00000000000E+00 -0.00000000000E+00 -0.45593999997E+02  0.45594000000E+02  0.51100000000E-03 0. -1.
    9900012    2    1    2    0    0  0.89524365671E+00 -0.11414926526E+02 -0.29759347564E+02  0.59301940723E+02  0.49999993973E+02 0.  0.
        -12    1    1    2    0    0 -0.89524365671E+00  0.11414926526E+02  0.29759347564E+02  0.31886059277E+02  0.00000000000E+00 0.  1.
         11    1    3    3    0    0  0.22066428531E+01  0.86525450148E+01 -0.20402803650E+02  0.22271286558E+02  0.51100000000E-03 0. -1.
        -11    1    3    3    0    0  0.69300762162E+01 -0.84020066761E+01 -0.17482772466E+02  0.20597742738E+02  0.51100000000E-03 0.  1.
        -12    1    3    3    0    0 -0.82414754126E+01 -0.11665464864E+02  0.81262285524E+01  0.16432911427E+02  0.00000000000E+00 0.  1.
</event>
<event>
 7    1  0.3528441E-013  0.5930193E+02  0.7816164E-02  0.1266605E+00
        -11   -1    0    0    0    0  0.00000000000E+00  0.00000000000E+00  0.45593999997E+02  0.45594000000E+02  0.51100000000E-03 0.  1.
         11   -1    0    0    0    0 -0.00000000000E+00 -0.00000000000E+00 -0.45593999997E+02  0.45594000000E+02  0.51100000000E-03 0. -1.
    9900012    2    1    2    0    0  0.29523185639E+02 -0.10774708406E+02  0.53859920333E+01  0.59301925583E+02  0.49999966362E+02 0.  0.
        -12    1    1    2    0    0 -0.29523185639E+02  0.10774708406E+02 -0.53859920333E+01  0.31886074417E+02  0.00000000000E+00 0.  1.
         11    1    3    3    0    0  0.36473093777E+02 -0.15426186885E+02  0.39971750458E+00  0.39603201711E+02  0.51100000000E-03 0. -1.
        -11    1    3    3    0    0 -0.45329559821E+01 -0.51196452471E+01 -0.23639292016E+01  0.72350963313E+01  0.51100000000E-03 0.  1.
        -12    1    3    3    0    0 -0.24169521551E+01  0.97711237263E+01  0.73502037304E+01  0.12463627541E+02  0.00000000000E+00 0.  1.
</event>
<event>
 7    1  0.3528441E-013  0.5930195E+02  0.7816164E-02  0.1266605E+00
        -11   -1    0    0    0    0  0.00000000000E+00  0.00000000000E+00  0.45593999997E+02  0.45594000000E+02  0.51100000000E-03 0.  1.
         11   -1    0    0    0    0 -0.00000000000E+00 -0.00000000000E+00 -0.45593999997E+02  0.45594000000E+02  0.51100000000E-03 0. -1.
    9900012    2    1    2    0    0 -0.17326996991E+01 -0.19320053604E+02 -0.25307182877E+02  0.59301949371E+02  0.50000009746E+02 0.  0.
        -12    1    1    2    0    0  0.17326996991E+01  0.19320053604E+02  0.25307182877E+02  0.31886050629E+02  0.00000000000E+00 0.  1.
         11    1    3    3    0    0 -0.11806253364E+02 -0.14219643269E+02 -0.15323486970E+02  0.24008230389E+02  0.51100000000E-03 0. -1.
        -11    1    3    3    0    0  0.12092091914E+02 -0.95497003418E+01 -0.19346614007E+02  0.24732709865E+02  0.51100000000E-03 0.  1.
         12    1    3    3    0    0 -0.20185382490E+01  0.44492900077E+01  0.93629180998E+01  0.10561009117E+02  0.00000000000E+00 0. -1.
</event>
<event>
 7    1  0.3528441E-013  0.5930194E+02  0.7816164E-02  0.1266605E+00
        -11   -1    0    0    0    0  0.00000000000E+00  0.00000000000E+00  0.45593999997E+02  0.45594000000E+02  0.51100000000E-03 0.  1.
         11   -1    0    0    0    0 -0.00000000000E+00 -0.00000000000E+00 -0.45593999997E+02  0.45594000000E+02  0.51100000000E-03 0. -1.
    9900012    2    1    2    0    0 -0.19392099784E+02  0.25160776212E+02  0.27572929377E+01  0.59301939441E+02  0.49999991635E+02 0.  0.
        -12    1    1    2    0    0  0.19392099784E+02 -0.25160776212E+02 -0.27572929377E+01  0.31886060559E+02  0.00000000000E+00 0.  1.
         11    1    3    3    0    0 -0.64306863108E+01  0.35650692496E+01  0.48105672233E+01  0.87866377218E+01  0.51100000000E-03 0. -1.
        -11    1    3    3    0    0 -0.26874803425E+02  0.89471934106E+01 -0.10087144313E+02  0.30067554102E+02  0.51100000000E-03 0.  1.
        -12    1    3    3    0    0  0.13913389951E+02  0.12648513551E+02  0.80338700271E+01  0.20447747617E+02  0.00000000000E+00 0.  1.
</event>
<event>
 7    1  0.3528441E-013  0.5930195E+02  0.7816164E-02  0.1266605E+00
        -11   -1    0    0    0    0  0.00000000000E+00  0.00000000000E+00  0.45593999997E+02  0.45594000000E+02  0.51100000000E-03 0. -1.
         11   -1    0    0    0    0 -0.00000000000E+00 -0.00000000000E+00 -0.45593999997E+02  0.45594000000E+02  0.51100000000E-03 0.  1.
    9900012    2    1    2    0    0  0.37949073222E+01 -0.19168328789E+01  0.31601340442E+02  0.59301948385E+02  0.50000007947E+02 0.  0.
        -12    1    1    2    0    0 -0.37949073222E+01  0.19168328789E+01 -0.31601340442E+02  0.31886051615E+02  0.00000000000E+00 0.  1.
         11    1    3    3    0    0 -0.15755479662E+02 -0.25122069532E+01  0.82455835736E+01  0.17959286509E+02  0.51100000000E-03 0. -1.
        -11    1    3    3    0    0 -0.20987281477E+00  0.78493049294E+01 -0.22759772687E+01  0.81753108358E+01  0.51100000000E-03 0.  1.
         12    1    3    3    0    0  0.19760259799E+02 -0.72539308551E+01  0.25631734137E+02  0.33167351041E+02  0.00000000000E+00 0. -1.
</event>
<event>
 7    1  0.3528441E-013  0.5930197E+02  0.7816164E-02  0.1266605E+00
        -11   -1    0    0    0    0  0.00000000000E+00  0.00000000000E+00  0.45593999997E+02  0.45594000000E+02  0.51100000000E-03 0. -1.
         11   -1    0    0    0    0 -0.00000000000E+00 -0.00000000000E+00 -0.45593999997E+02  0.45594000000E+02  0.51100000000E-03 0.  1.
    9900012    2    1    2    0    0 -0.39881644833E+01  0.87621072557E+01  0.30398008639E+02  0.59301970007E+02  0.50000047379E+02 0.  0.
        -12    1    1    2    0    0  0.39881644833E+01 -0.87621072557E+01 -0.30398008639E+02  0.31886029993E+02  0.00000000000E+00 0.  1.
         11    1    3    3    0    0  0.46042102820E+01 -0.14253575755E+02 -0.15565145816E+01  0.15059412739E+02  0.51100000000E-03 0. -1.
        -11    1    3    3    0    0 -0.20230406197E+01 -0.31243430503E+00 -0.17747037742E+01  0.27092217132E+01  0.51100000000E-03 0.  1.
        -12    1    3    3    0    0 -0.65693341456E+01  0.23328117316E+02  0.33729226995E+02  0.41533335555E+02  0.00000000000E+00 0.  1.
</event>
<event>
 7    1  0.3528441E-013  0.5930195E+02  0.7816164E-02  0.1266605E+00
        -11   -1    0    0    0    0  0.00000000000E+00  0.00000000000E+00  0.45593999997E+02  0.45594000000E+02  0.51100000000E-03 0. -1.
         11   -1    0    0    0    0 -0.00000000000E+00 -0.00000000000E+00 -0.45593999997E+02  0.45594000000E+02  0.51100000000E-03 0.  1.
    9900012    2    1    2    0    0 -0.16597503148E+02 -0.27044113793E+02  0.31399328549E+01  0.59301946936E+02  0.50000005305E+02 0.  0.
        -12    1    1    2    0    0  0.16597503148E+02  0.27044113793E+02 -0.31399328549E+01  0.31886053064E+02  0.00000000000E+00 0.  1.
         11    1    3    3    0    0 -0.84055693783E+01  0.90742580703E+01  0.69964650199E+01  0.14210780384E+02  0.51100000000E-03 0. -1.
        -11    1    3    3    0    0  0.28607600161E+01  0.30773264421E+01 -0.37778162635E+00  0.42186022708E+01  0.51100000000E-03 0.  1.
        -12    1    3    3    0    0 -0.11052693786E+02 -0.39195698306E+02 -0.34787505387E+01  0.40872564281E+02  0.00000000000E+00 0.  1.
</event>
<event>
 7    1  0.3528441E-013  0.5930196E+02  0.7816164E-02  0.1266605E+00
        -11   -1    0    0    0    0  0.00000000000E+00  0.00000000000E+00  0.45593999997E+02  0.45594000000E+02  0.51100000000E-03 0. -1.
         11   -1    0    0    0    0 -0.00000000000E+00 -0.00000000000E+00 -0.45593999997E+02  0.45594000000E+02  0.51100000000E-03 0.  1.
    9900012    2    1    2    0    0 -0.13192289431E+02 -0.23329870382E+02  0.17274266793E+02  0.59301958450E+02  0.50000026303E+02 0.  0.
        -12    1    1    2    0    0  0.13192289431E+02  0.23329870382E+02 -0.17274266793E+02  0.31886041550E+02  0.00000000000E+00 0.  1.
         11    1    3    3    0    0 -0.41902464183E+01  0.12715394122E+02 -0.18976909411E+01  0.13521858004E+02  0.51100000000E-03 0. -1.
        -11    1    3    3    0    0  0.57141643712E+00 -0.39306794395E+01  0.10410555970E+02  0.11142550582E+02  0.51100000000E-03 0.  1.
        -12    1    3    3    0    0 -0.95734594494E+01 -0.32114585065E+02  0.87614017643E+01  0.34637549864E+02  0.00000000000E+00 0.  1.
</event>
<event>
 7    1  0.3528441E-013  0.5930194E+02  0.7816164E-02  0.1266605E+00
        -11   -1    0    0    0    0  0.00000000000E+00  0.00000000000E+00  0.45593999997E+02  0.45594000000E+02  0.51100000000E-03 0. -1.
         11   -1    0    0    0    0 -0.00000000000E+00 -0.00000000000E+00 -0.45593999997E+02  0.45594000000E+02  0.51100000000E-03 0.  1.
    9900012    2    1    2    0    0 -0.20735483533E+02  0.22684349177E+02 -0.84959414308E+01  0.59301937281E+02  0.49999987696E+02 0.  0.
        -12    1    1    2    0    0  0.20735483533E+02 -0.22684349177E+02  0.84959414308E+01  0.31886062719E+02  0.00000000000E+00 0.  1.
         11    1    3    3    0    0 -0.12787569113E+02  0.15433636687E+02  0.26009058769E+01  0.20210981590E+02  0.51100000000E-03 0. -1.
        -11    1    3    3    0    0 -0.10341366594E+02  0.18274606782E+02 -0.16383252766E+02  0.26632988708E+02  0.51100000000E-03 0.  1.
        -12    1    3    3    0    0  0.23934521741E+01 -0.11023894292E+02  0.52864054581E+01  0.12457966983E+02  0.00000000000E+00 0.  1.
</event>
<event>
 7    1  0.3528441E-013  0.5930193E+02  0.7816164E-02  0.1266605E+00
        -11   -1    0    0    0    0  0.00000000000E+00  0.00000000000E+00  0.45593999997E+02  0.45594000000E+02  0.51100000000E-03 0.  1.
         11   -1    0    0    0    0 -0.00000000000E+00 -0.00000000000E+00 -0.45593999997E+02  0.45594000000E+02  0.51100000000E-03 0. -1.
    9900012    2    1    2    0    0 -0.10900664456E+01  0.29714413321E+02 -0.11514644511E+02  0.59301927146E+02  0.49999969211E+02 0.  0.
        -12    1    1    2    0    0  0.10900664456E+01 -0.29714413321E+02  0.11514644511E+02  0.31886072854E+02  0.00000000000E+00 0.  1.
         11    1    3    3    0    0  0.42854613305E+01 -0.16506376495E+01 -0.28156311769E+01  0.53867952115E+01  0.51100000000E-03 0. -1.
        -11    1    3    3    0    0  0.14738077472E+02  0.23533520015E+02  0.51895992921E+01  0.28248352747E+02  0.51100000000E-03 0.  1.
         12    1    3    3    0    0 -0.20113605248E+02  0.78315309560E+01 -0.13888612626E+02  0.25666779187E+02  0.00000000000E+00 0. -1.
</event>
<event>
 7    1  0.3528441E-013  0.5930196E+02  0.7816164E-02  0.1266605E+00
        -11   -1    0    0    0    0  0.00000000000E+00  0.00000000000E+00  0.45593999997E+02  0.45594000000E+02  0.51100000000E-03 0.  1.
         11   -1    0    0    0    0 -0.00000000000E+00 -0.00000000000E+00 -0.45593999997E+02  0.45594000000E+02  0.51100000000E-03 0. -1.
    9900012    2    1    2    0    0 -0.42886576199E+01 -0.26615780839E+02 -0.17027254208E+02  0.59301956662E+02  0.50000023042E+02 0.  0.
        -12    1    1    2    0    0  0.42886576199E+01  0.26615780839E+02  0.17027254208E+02  0.31886043338E+02  0.00000000000E+00 0.  1.
         11    1    3    3    0    0 -0.94548524092E+00 -0.46202450886E+01 -0.87529508998E+01  0.99425729434E+01  0.51100000000E-03 0. -1.
        -11    1    3    3    0    0  0.19664738455E+02 -0.57656480463E+01 -0.29414760095E+01  0.20702582382E+02  0.51100000000E-03 0.  1.
         12    1    3    3    0    0 -0.23007910834E+02 -0.16229887704E+02 -0.53328272991E+01  0.28656801337E+02  0.00000000000E+00 0. -1.
</event>
<event>
 7    1  0.3528441E-013  0.5930195E+02  0.7816164E-02  0.1266605E+00
        -11   -1    0    0    0    0  0.00000000000E+00  0.00000000000E+00  0.45593999997E+02  0.45594000000E+02  0.51100000000E-03 0.  1.
         11   -1    0    0    0    0 -0.00000000000E+00 -0.00000000000E+00 -0.45593999997E+02  0.45594000000E+02  0.51100000000E-03 0. -1.
    9900012    2    1    2    0    0 -0.22243550641E+02 -0.10182599825E+02 -0.20451392091E+02  0.59301947833E+02  0.50000006940E+02 0.  0.
        -12    1    1    2    0    0  0.22243550641E+02  0.10182599825E+02  0.20451392091E+02  0.31886052167E+02  0.00000000000E+00 0.  1.
         11    1    3    3    0    0 -0.16390889743E+02  0.20357725215E+01 -0.10119198248E+02  0.19370178362E+02  0.51100000000E-03 0. -1.
        -11    1    3    3    0    0 -0.81700656258E+01  0.88202782166E+01  0.57713854227E+01  0.13336272722E+02  0.51100000000E-03 0.  1.
        -12    1    3    3    0    0  0.23174047279E+01 -0.21038650563E+02 -0.16103579266E+02  0.26595496749E+02  0.00000000000E+00 0.  1.
</event>
<event>
 7    1  0.3528441E-013  0.5930199E+02  0.7816164E-02  0.1266605E+00
        -11   -1    0    0    0    0  0.00000000000E+00  0.00000000000E+00  0.45593999997E+02  0.45594000000E+02  0.51100000000E-03 0. -1.
         11   -1    0    0    0    0 -0.00000000000E+00 -0.00000000000E+00 -0.45593999997E+02  0.45594000000E+02  0.51100000000E-03 0.  1.
    9900012    2    1    2    0    0 -0.26456450880E+02  0.17100146073E+02  0.49354807999E+01  0.59301988026E+02  0.50000080242E+02 0.  0.
        -12    1    1    2    0    0  0.26456450880E+02 -0.17100146073E+02 -0.49354807999E+01  0.31886011974E+02  0.00000000000E+00 0.  1.
         11    1    3    3    0    0 -0.93561082299E+01  0.44922431257E+01 -0.10424005602E+02  0.14709755353E+02  0.51100000000E-03 0. -1.
        -11    1    3    3    0    0  0.94246677131E+00  0.39708992260E+01 -0.10866856828E+02  0.11607965449E+02  0.51100000000E-03 0.  1.
         12    1    3    3    0    0 -0.18042809421E+02  0.86370037209E+01  0.26226343230E+02  0.32984267224E+02  0.00000000000E+00 0. -1.
</event>
<event>
 7    1  0.3528441E-013  0.5930195E+02  0.7816164E-02  0.1266605E+00
        -11   -1    0    0    0    0  0.00000000000E+00  0.00000000000E+00  0.45593999997E+02  0.45594000000E+02  0.51100000000E-03 0.  1.
         11   -1    0    0    0    0 -0.00000000000E+00 -0.00000000000E+00 -0.45593999997E+02  0.45594000000E+02  0.51100000000E-03 0. -1.
    9900012    2    1    2    0    0  0.42911217811E+01  0.19263131802E+02 -0.25044726109E+02  0.59301948522E+02  0.50000008197E+02 0.  0.
        -12    1    1    2    0    0 -0.42911217811E+01 -0.19263131802E+02  0.25044726109E+02  0.31886051478E+02  0.00000000000E+00 0.  1.
         11    1    3    3    0    0 -0.45128644360E+01  0.28115565522E+01 -0.20553760170E+02  0.21230352165E+02  0.51100000000E-03 0. -1.
        -11    1    3    3    0    0 -0.18852120897E+00  0.23127598249E+02 -0.10456360729E+02  0.25382214659E+02  0.51100000000E-03 0.  1.
        -12    1    3    3    0    0  0.89925074261E+01 -0.66760229989E+01  0.59653947905E+01  0.12689381699E+02  0.00000000000E+00 0.  1.
</event>
<event>
 7    1  0.3528441E-013  0.5930199E+02  0.7816164E-02  0.1266605E+00
        -11   -1    0    0    0    0  0.00000000000E+00  0.00000000000E+00  0.45593999997E+02  0.45594000000E+02  0.51100000000E-03 0. -1.
         11   -1    0    0    0    0 -0.00000000000E+00 -0.00000000000E+00 -0.45593999997E+02  0.45594000000E+02  0.51100000000E-03 0.  1.
    9900012    2    1    2    0    0  0.18999967196E+02  0.25571680675E+02  0.13446581648E+01  0.59301988780E+02  0.50000081617E+02 0.  0.
        -12    1    1    2    0    0 -0.18999967196E+02 -0.25571680675E+02 -0.13446581648E+01  0.31886011220E+02  0.00000000000E+00 0.  1.
         11    1    3    3    0    0  0.76626369467E+01  0.27280907971E+02 -0.14554615859E+02  0.31855938030E+02  0.51100000000E-03 0. -1.
        -11    1    3    3    0    0  0.13536994426E+02  0.37403029246E+01  0.47198486054E+01  0.14816107963E+02  0.51100000000E-03 0.  1.
        -12    1    3    3    0    0 -0.21996641767E+01 -0.54495302208E+01  0.11179425418E+02  0.12629942787E+02  0.00000000000E+00 0.  1.
</event>
<event>
 7    1  0.3528441E-013  0.5930194E+02  0.7816164E-02  0.1266605E+00
        -11   -1    0    0    0    0  0.00000000000E+00  0.00000000000E+00  0.45593999997E+02  0.45594000000E+02  0.51100000000E-03 0.  1.
         11   -1    0    0    0    0 -0.00000000000E+00 -0.00000000000E+00 -0.45593999997E+02  0.45594000000E+02  0.51100000000E-03 0. -1.
    9900012    2    1    2    0    0 -0.99974702269E+01  0.30273309869E+02  0.54578966475E+00  0.59301943679E+02  0.49999999363E+02 0.  0.
        -12    1    1    2    0    0  0.99974702269E+01 -0.30273309869E+02 -0.54578966475E+00  0.31886056321E+02  0.00000000000E+00 0.  1.
         11    1    3    3    0    0 -0.16213079525E+02  0.14827720249E+02 -0.72939013778E+01  0.23150080627E+02  0.51100000000E-03 0. -1.
        -11    1    3    3    0    0  0.36006079159E+01  0.25015748469E+02  0.68265864555E+01  0.26179272941E+02  0.51100000000E-03 0.  1.
         12    1    3    3    0    0  0.26150013818E+01 -0.95701588488E+01  0.10131045870E+01  0.99725901110E+01  0.00000000000E+00 0. -1.
</event>
<event>
 7    1  0.3528441E-013  0.5930193E+02  0.7816164E-02  0.1266605E+00
        -11   -1    0    0    0    0  0.00000000000E+00  0.00000000000E+00  0.45593999997E+02  0.45594000000E+02  0.51100000000E-03 0.  1.
         11   -1    0    0    0    0 -0.00000000000E+00 -0.00000000000E+00 -0.45593999997E+02  0.45594000000E+02  0.51100000000E-03 0. -1.
    9900012    2    1    2    0    0  0.14327011458E+02  0.18547205068E+02  0.21620813641E+02  0.59301926933E+02  0.49999968824E+02 0.  0.
        -12    1    1    2    0    0 -0.14327011458E+02 -0.18547205068E+02 -0.21620813641E+02  0.31886073067E+02  0.00000000000E+00 0.  1.
         11    1    3    3    0    0 -0.94556619719E+01  0.63583406499E+00  0.94107167522E+01  0.13355726051E+02  0.51100000000E-03 0. -1.
        -11    1    3    3    0    0  0.93631510623E+01 -0.92235887483E+01  0.66101072473E+01  0.14711787971E+02  0.51100000000E-03 0.  1.
         12    1    3    3    0    0  0.14419522367E+02  0.27134959751E+02  0.55999896412E+01  0.31234412912E+02  0.00000000000E+00 0. -1.
</event>
<event>
 7    1  0.3528441E-013  0.5930195E+02  0.7816164E-02  0.1266605E+00
        -11   -1    0    0    0    0  0.00000000000E+00  0.00000000000E+00  0.45593999997E+02  0.45594000000E+02  0.51100000000E-03 0.  1.
         11   -1    0    0    0    0 -0.00000000000E+00 -0.00000000000E+00 -0.45593999997E+02  0.45594000000E+02  0.51100000000E-03 0. -1.
    9900012    2    1    2    0    0 -0.30670392339E+02  0.59659026100E+01 -0.63604444099E+01  0.59301949551E+02  0.50000010073E+02 0.  0.
        -12    1    1    2    0    0  0.30670392339E+02 -0.59659026100E+01  0.63604444099E+01  0.31886050449E+02  0.00000000000E+00 0.  1.
         11    1    3    3    0    0 -0.26479870439E+02 -0.42232870004E+01  0.16398986169E+01  0.26864641432E+02  0.51100000000E-03 0. -1.
        -11    1    3    3    0    0 -0.46397040095E+00 -0.38980611250E+01  0.91356233176E+01  0.99433275481E+01  0.51100000000E-03 0.  1.
         12    1    3    3    0    0 -0.37265514991E+01  0.14087250735E+02 -0.17135966344E+02  0.22493980571E+02  0.00000000000E+00 0. -1.
</event>
<event>
 7    1  0.3528441E-013  0.5930195E+02  0.7816164E-02  0.1266605E+00
        -11   -1    0    0    0    0  0.00000000000E+00  0.00000000000E+00  0.45593999997E+02  0.45594000000E+02  0.51100000000E-03 0. -1.
         11   -1    0    0    0    0 -0.00000000000E+00 -0.00000000000E+00 -0.45593999997E+02  0.45594000000E+02  0.51100000000E-03 0.  1.
    9900012    2    1    2    0    0  0.17499890274E+02 -0.21915983899E+02  0.15171153433E+02  0.59301946522E+02  0.50000004550E+02 0.  0.
        -12    1    1    2    0    0 -0.17499890274E+02  0.21915983899E+02 -0.15171153433E+02  0.31886053478E+02  0.00000000000E+00 0.  1.
         11    1    3    3    0    0  0.10830159249E+02 -0.72486935285E+01 -0.96413408153E+01  0.16210840824E+02  0.51100000000E-03 0. -1.
        -11    1    3    3    0    0 -0.63155507457E+01  0.47165982830E+01 -0.13927725468E+01  0.80045172379E+01  0.51100000000E-03 0.  1.
         12    1    3    3    0    0  0.12985281771E+02 -0.19383888654E+02  0.26205266795E+02  0.35086588461E+02  0.00000000000E+00 0. -1.
</event>
<event>
 7    1  0.3528441E-013  0.5930195E+02  0.7816164E-02  0.1266605E+00
        -11   -1    0    0    0    0  0.00000000000E+00  0.00000000000E+00  0.45593999997E+02  0.45594000000E+02  0.51100000000E-03 0.  1.
         11   -1    0    0    0    0 -0.00000000000E+00 -0.00000000000E+00 -0.45593999997E+02  0.45594000000E+02  0.51100000000E-03 0. -1.
    9900012    2    1    2    0    0 -0.18239392182E+02  0.69785654067E+01 -0.25206043420E+02  0.59301946196E+02  0.50000003955E+02 0.  0.
        -12    1    1    2    0    0  0.18239392182E+02 -0.69785654067E+01  0.25206043420E+02  0.31886053804E+02  0.00000000000E+00 0.  1.
         11    1    3    3    0    0 -0.83947296770E+01 -0.25153482391E+01 -0.73688335887E+01  0.11449810996E+02  0.51100000000E-03 0. -1.
        -11    1    3    3    0    0  0.89901643736E+00 -0.16370840327E+02 -0.66982910536E+01  0.17711006376E+02  0.51100000000E-03 0.  1.
         12    1    3    3    0    0 -0.10743678942E+02  0.25864753973E+02 -0.11138918777E+02  0.30141128824E+02  0.00000000000E+00 0. -1.
</event>
<event>
 7    1  0.3528441E-013  0.5930196E+02  0.7816164E-02  0.1266605E+00
        -11   -1    0    0    0    0  0.00000000000E+00  0.00000000000E+00  0.45593999997E+02  0.45594000000E+02  0.51100000000E-03 0.  1.
         11   -1    0    0    0    0 -0.00000000000E+00 -0.00000000000E+00 -0.45593999997E+02  0.45594000000E+02  0.51100000000E-03 0. -1.
    9900012    2    1    2    0    0 -0.19089324217E+02  0.54177111606E+01 -0.24959285597E+02  0.59301955548E+02  0.50000021009E+02 0.  0.
        -12    1    1    2    0    0  0.19089324217E+02 -0.54177111606E+01  0.24959285597E+02  0.31886044452E+02  0.00000000000E+00 0.  1.
         11    1    3    3    0    0  0.36652617413E+01  0.33150350273E+01 -0.19263958033E+02  0.19887777156E+02  0.51100000000E-03 0. -1.
        -11    1    3    3    0    0  0.78065739269E+01 -0.19975915100E+01 -0.23757167496E+01  0.84010117636E+01  0.51100000000E-03 0.  1.
        -12    1    3    3    0    0 -0.30561159886E+02  0.41002676433E+01 -0.33196108146E+01  0.31013166627E+02  0.00000000000E+00 0.  1.
</event>
<event>
 7    1  0.3528441E-013  0.5930196E+02  0.7816164E-02  0.1266605E+00
        -11   -1    0    0    0    0  0.00000000000E+00  0.00000000000E+00  0.45593999997E+02  0.45594000000E+02  0.51100000000E-03 0.  1.
         11   -1    0    0    0    0 -0.00000000000E+00 -0.00000000000E+00 -0.45593999997E+02  0.45594000000E+02  0.51100000000E-03 0. -1.
    9900012    2    1    2    0    0 -0.23258333738E+02  0.13691887700E+02 -0.16979452062E+02  0.59301958079E+02  0.50000025625E+02 0.  0.
        -12    1    1    2    0    0  0.23258333738E+02 -0.13691887700E+02  0.16979452062E+02  0.31886041921E+02  0.00000000000E+00 0.  1.
         11    1    3    3    0    0  0.20364362688E+00 -0.14767533005E+02  0.89375458604E+00  0.14795955505E+02  0.51100000000E-03 0.  1.
        -11    1    3    3    0    0 -0.91710061889E+01  0.30411290318E+01 -0.10817466582E+02  0.14504254680E+02  0.51100000000E-03 0. -1.
        -12    1    3    3    0    0 -0.14290971176E+02  0.25418291674E+02 -0.70557400666E+01  0.30001747894E+02  0.00000000000E+00 0.  1.
</event>
<event>
 7    1  0.3528441E-013  0.5930194E+02  0.7816164E-02  0.1266605E+00
        -11   -1    0    0    0    0  0.00000000000E+00  0.00000000000E+00  0.45593999997E+02  0.45594000000E+02  0.51100000000E-03 0.  1.
         11   -1    0    0    0    0 -0.00000000000E+00 -0.00000000000E+00 -0.45593999997E+02  0.45594000000E+02  0.51100000000E-03 0. -1.
    9900012    2    1    2    0    0 -0.15266273307E+02 -0.27216198382E+01 -0.27861347724E+02  0.59301937022E+02  0.49999987223E+02 0.  0.
        -12    1    1    2    0    0  0.15266273307E+02  0.27216198382E+01  0.27861347724E+02  0.31886062978E+02  0.00000000000E+00 0.  1.
         11    1    3    3    0    0 -0.23827135934E+02  0.14958140596E+01 -0.19615561938E+02  0.30898869509E+02  0.51100000000E-03 0. -1.
        -11    1    3    3    0    0 -0.62567889679E+01 -0.90854124680E+01 -0.62505313261E+01  0.12679166772E+02  0.51100000000E-03 0.  1.
        -12    1    3    3    0    0  0.14817651595E+02  0.48679785703E+01 -0.19952544604E+01  0.15723900741E+02  0.00000000000E+00 0.  1.
</event>
<event>
 7    1  0.3528441E-013  0.5930177E+02  0.7816164E-02  0.1266605E+00
        -11   -1    0    0    0    0  0.00000000000E+00  0.00000000000E+00  0.45593999997E+02  0.45594000000E+02  0.51100000000E-03 0.  1.
         11   -1    0    0    0    0 -0.00000000000E+00 -0.00000000000E+00 -0.45593999997E+02  0.45594000000E+02  0.51100000000E-03 0. -1.
    9900012    2    1    2    0    0 -0.16102735004E+02  0.24608503547E+02 -0.12322964629E+02  0.59301765060E+02  0.49999673604E+02 0.  0.
        -12    1    1    2    0    0  0.16102735004E+02 -0.24608503547E+02  0.12322964629E+02  0.31886234940E+02  0.00000000000E+00 0.  1.
         11    1    3    3    0    0  0.44119185616E+01  0.20504613293E+02 -0.13304992964E+02  0.24838015817E+02  0.51100000000E-03 0. -1.
        -11    1    3    3    0    0 -0.19199936752E+02  0.12311055799E+02 -0.60274683865E+01  0.23590888953E+02  0.51100000000E-03 0.  1.
        -12    1    3    3    0    0 -0.13147168134E+01 -0.82071655458E+01  0.70094967214E+01  0.10872860290E+02  0.00000000000E+00 0.  1.
</event>
<event>
 7    1  0.3528441E-013  0.5930195E+02  0.7816164E-02  0.1266605E+00
        -11   -1    0    0    0    0  0.00000000000E+00  0.00000000000E+00  0.45593999997E+02  0.45594000000E+02  0.51100000000E-03 0. -1.
         11   -1    0    0    0    0 -0.00000000000E+00 -0.00000000000E+00 -0.45593999997E+02  0.45594000000E+02  0.51100000000E-03 0.  1.
    9900012    2    1    2    0    0  0.55780471163E+01 -0.29238024564E+02 -0.11434302244E+02  0.59301953555E+02  0.50000017376E+02 0.  0.
        -12    1    1    2    0    0 -0.55780471163E+01  0.29238024564E+02  0.11434302244E+02  0.31886046445E+02  0.00000000000E+00 0.  1.
         11    1    3    3    0    0  0.47590845470E+01 -0.16951468105E+02  0.13668892570E+01  0.17659828514E+02  0.51100000000E-03 0. -1.
        -11    1    3    3    0    0 -0.34328603098E+00 -0.24639151531E+02 -0.15273391604E+02  0.28991069743E+02  0.51100000000E-03 0.  1.
         12    1    3    3    0    0  0.11622486002E+01  0.12352595072E+02  0.24722001030E+01  0.12651055298E+02  0.00000000000E+00 0. -1.
</event>
<event>
 7    1  0.3528441E-013  0.5930194E+02  0.7816164E-02  0.1266605E+00
        -11   -1    0    0    0    0  0.00000000000E+00  0.00000000000E+00  0.45593999997E+02  0.45594000000E+02  0.51100000000E-03 0.  1.
         11   -1    0    0    0    0 -0.00000000000E+00 -0.00000000000E+00 -0.45593999997E+02  0.45594000000E+02  0.51100000000E-03 0. -1.
    9900012    2    1    2    0    0 -0.26465301178E+02 -0.17747091223E+02  0.11615964052E+01  0.59301941612E+02  0.49999995594E+02 0.  0.
        -12    1    1    2    0    0  0.26465301178E+02  0.17747091223E+02 -0.11615964052E+01  0.31886058388E+02  0.00000000000E+00 0.  1.
         11    1    3    3    0    0 -0.15535322791E+02 -0.13253318911E+02 -0.12277701863E+02  0.23827267566E+02  0.51100000000E-03 0. -1.
        -11    1    3    3    0    0 -0.32025232186E+01 -0.15246435548E+02 -0.13334824520E+01  0.15636116129E+02  0.51100000000E-03 0.  1.
        -12    1    3    3    0    0 -0.77274551690E+01  0.10752663236E+02  0.14772780720E+02  0.19838557918E+02  0.00000000000E+00 0.  1.
</event>
<event>
 7    1  0.3528441E-013  0.5930196E+02  0.7816164E-02  0.1266605E+00
        -11   -1    0    0    0    0  0.00000000000E+00  0.00000000000E+00  0.45593999997E+02  0.45594000000E+02  0.51100000000E-03 0.  1.
         11   -1    0    0    0    0 -0.00000000000E+00 -0.00000000000E+00 -0.45593999997E+02  0.45594000000E+02  0.51100000000E-03 0. -1.
    9900012    2    1    2    0    0  0.24132507421E+02  0.13422319410E+02 -0.15943120414E+02  0.59301958205E+02  0.50000025856E+02 0.  0.
        -12    1    1    2    0    0 -0.24132507421E+02 -0.13422319410E+02  0.15943120414E+02  0.31886041795E+02  0.00000000000E+00 0.  1.
         11    1    3    3    0    0 -0.51886830139E+00  0.96711575942E+00  0.11886212343E+01  0.16178250542E+01  0.51100000000E-03 0. -1.
        -11    1    3    3    0    0  0.10692918632E+02  0.18504410613E+02  0.12224010039E+02  0.24620685261E+02  0.51100000000E-03 0.  1.
         12    1    3    3    0    0  0.13958457091E+02 -0.60492069624E+01 -0.29355751688E+02  0.33063447890E+02  0.00000000000E+00 0. -1.
</event>
<event>
 7    1  0.3528441E-013  0.5930194E+02  0.7816164E-02  0.1266605E+00
        -11   -1    0    0    0    0  0.00000000000E+00  0.00000000000E+00  0.45593999997E+02  0.45594000000E+02  0.51100000000E-03 0.  1.
         11   -1    0    0    0    0 -0.00000000000E+00 -0.00000000000E+00 -0.45593999997E+02  0.45594000000E+02  0.51100000000E-03 0. -1.
    9900012    2    1    2    0    0  0.19840625981E+02 -0.24844783034E+02 -0.24098169341E+01  0.59301938767E+02  0.49999990406E+02 0.  0.
        -12    1    1    2    0    0 -0.19840625981E+02  0.24844783034E+02  0.24098169341E+01  0.31886061233E+02  0.00000000000E+00 0.  1.
         11    1    3    3    0    0  0.72030584398E+01 -0.15997126135E+02 -0.22528660721E+02  0.28554030357E+02  0.51100000000E-03 0. -1.
        -11    1    3    3    0    0 -0.79608054770E+00  0.43995049004E+00 -0.26077542017E+01  0.27618260101E+01  0.51100000000E-03 0.  1.
        -12    1    3    3    0    0  0.13433648089E+02 -0.92876073883E+01  0.22726597989E+02  0.27986082400E+02  0.00000000000E+00 0.  1.
</event>
<event>
 7    1  0.3528441E-013  0.5930203E+02  0.7816164E-02  0.1266604E+00
        -11   -1    0    0    0    0  0.00000000000E+00  0.00000000000E+00  0.45593999997E+02  0.45594000000E+02  0.51100000000E-03 0.  1.
         11   -1    0    0    0    0 -0.00000000000E+00 -0.00000000000E+00 -0.45593999997E+02  0.45594000000E+02  0.51100000000E-03 0. -1.
    9900012    2    1    2    0    0 -0.18358256747E+02 -0.26007262609E+02  0.18198761037E+01  0.59302027407E+02  0.50000152063E+02 0.  0.
        -12    1    1    2    0    0  0.18358256747E+02  0.26007262609E+02 -0.18198761037E+01  0.31885972593E+02  0.00000000000E+00 0.  1.
         11    1    3    3    0    0  0.25977239668E+01 -0.19249086922E+02  0.57857107654E+00  0.19432196528E+02  0.51100000000E-03 0.  1.
        -11    1    3    3    0    0 -0.20219482264E+02 -0.13109887111E+02  0.12330529949E+02  0.27069144282E+02  0.51100000000E-03 0. -1.
        -12    1    3    3    0    0 -0.73649845019E+00  0.63517114251E+01 -0.11089224922E+02  0.12800686597E+02  0.00000000000E+00 0.  1.
</event>
<event>
 7    1  0.3528441E-013  0.5930163E+02  0.7816164E-02  0.1266606E+00
        -11   -1    0    0    0    0  0.00000000000E+00  0.00000000000E+00  0.45593999997E+02  0.45594000000E+02  0.51100000000E-03 0.  1.
         11   -1    0    0    0    0 -0.00000000000E+00 -0.00000000000E+00 -0.45593999997E+02  0.45594000000E+02  0.51100000000E-03 0. -1.
    9900012    2    1    2    0    0 -0.15953357262E+02  0.19842557963E+02 -0.19196447134E+02  0.59301634622E+02  0.49999435716E+02 0.  0.
        -12    1    1    2    0    0  0.15953357262E+02 -0.19842557963E+02  0.19196447134E+02  0.31886365378E+02  0.00000000000E+00 0.  1.
         11    1    3    3    0    0 -0.21886063696E+01  0.10653727039E+02 -0.13982797254E+02  0.17714697766E+02  0.51100000000E-03 0. -1.
        -11    1    3    3    0    0 -0.66827592037E+01  0.19862864733E+02 -0.14741465473E+02  0.25622323676E+02  0.51100000000E-03 0.  1.
        -12    1    3    3    0    0 -0.70819916884E+01 -0.10674033809E+02  0.95278155932E+01  0.15964613180E+02  0.00000000000E+00 0.  1.
</event>
<event>
 7    1  0.3528441E-013  0.5930199E+02  0.7816164E-02  0.1266605E+00
        -11   -1    0    0    0    0  0.00000000000E+00  0.00000000000E+00  0.45593999997E+02  0.45594000000E+02  0.51100000000E-03 0.  1.
         11   -1    0    0    0    0 -0.00000000000E+00 -0.00000000000E+00 -0.45593999997E+02  0.45594000000E+02  0.51100000000E-03 0. -1.
    9900012    2    1    2    0    0 -0.31806493057E+02 -0.19381140172E+01 -0.11438349739E+01  0.59301989824E+02  0.50000083521E+02 0.  0.
        -12    1    1    2    0    0  0.31806493057E+02  0.19381140172E+01  0.11438349739E+01  0.31886010176E+02  0.00000000000E+00 0.  1.
         11    1    3    3    0    0  0.34522946039E+01  0.98487500112E+01 -0.78543230751E+01  0.13061646376E+02  0.51100000000E-03 0.  1.
        -11    1    3    3    0    0 -0.29189262613E+02 -0.83685059192E+00 -0.43639349648E+01  0.29525536395E+02  0.51100000000E-03 0. -1.
        -12    1    3    3    0    0 -0.60695250478E+01 -0.10950013437E+02  0.11074423066E+02  0.16714807053E+02  0.00000000000E+00 0.  1.
</event>
<event>
 7    1  0.3528441E-013  0.5930198E+02  0.7816164E-02  0.1266605E+00
        -11   -1    0    0    0    0  0.00000000000E+00  0.00000000000E+00  0.45593999997E+02  0.45594000000E+02  0.51100000000E-03 0.  1.
         11   -1    0    0    0    0 -0.00000000000E+00 -0.00000000000E+00 -0.45593999997E+02  0.45594000000E+02  0.51100000000E-03 0. -1.
    9900012    2    1    2    0    0 -0.78275551959E+01 -0.92107855319E+01 -0.29506088305E+02  0.59301977396E+02  0.50000060856E+02 0.  0.
        -12    1    1    2    0    0  0.78275551959E+01  0.92107855319E+01  0.29506088305E+02  0.31886022604E+02  0.00000000000E+00 0.  1.
         11    1    3    3    0    0  0.87472766750E+01 -0.12038465304E+01 -0.42201511581E+00  0.88398072783E+01  0.51100000000E-03 0. -1.
        -11    1    3    3    0    0 -0.17642353747E+01  0.13787802453E+02 -0.50262709574E+01  0.14781049454E+02  0.51100000000E-03 0.  1.
         12    1    3    3    0    0 -0.14810596496E+02 -0.21794741455E+02 -0.24057802231E+02  0.35681120664E+02  0.00000000000E+00 0. -1.
</event>
<event>
 7    1  0.3528441E-013  0.5930191E+02  0.7816164E-02  0.1266605E+00
        -11   -1    0    0    0    0  0.00000000000E+00  0.00000000000E+00  0.45593999997E+02  0.45594000000E+02  0.51100000000E-03 0. -1.
         11   -1    0    0    0    0 -0.00000000000E+00 -0.00000000000E+00 -0.45593999997E+02  0.45594000000E+02  0.51100000000E-03 0.  1.
    9900012    2    1    2    0    0 -0.29889529711E+01  0.26102872959E+02  0.18067339462E+02  0.59301912567E+02  0.49999942623E+02 0.  0.
        -12    1    1    2    0    0  0.29889529711E+01 -0.26102872959E+02 -0.18067339462E+02  0.31886087433E+02  0.00000000000E+00 0.  1.
         11    1    3    3    0    0  0.69819902651E+01  0.13506886137E+02 -0.10350640248E+01  0.15239931725E+02  0.51100000000E-03 0. -1.
        -11    1    3    3    0    0  0.17722112193E+01 -0.60725771730E+01 -0.73002223970E+01  0.96597191178E+01  0.51100000000E-03 0.  1.
        -12    1    3    3    0    0 -0.11743154455E+02  0.18668563995E+02  0.26402625884E+02  0.34402261724E+02  0.00000000000E+00 0.  1.
</event>
<event>
 7    1  0.3528441E-013  0.5930194E+02  0.7816164E-02  0.1266605E+00
        -11   -1    0    0    0    0  0.00000000000E+00  0.00000000000E+00  0.45593999997E+02  0.45594000000E+02  0.51100000000E-03 0. -1.
         11   -1    0    0    0    0 -0.00000000000E+00 -0.00000000000E+00 -0.45593999997E+02  0.45594000000E+02  0.51100000000E-03 0.  1.
    9900012    2    1    2    0    0  0.24618124504E+02  0.90704032200E+01  0.18121711624E+02  0.59301941904E+02  0.49999996127E+02 0.  0.
        -12    1    1    2    0    0 -0.24618124504E+02 -0.90704032200E+01 -0.18121711624E+02  0.31886058096E+02  0.00000000000E+00 0.  1.
         11    1    3    3    0    0  0.76773705917E+01  0.25591136887E+01  0.79867397605E+01  0.11370096496E+02  0.51100000000E-03 0. -1.
        -11    1    3    3    0    0  0.11343591485E+02 -0.31109710319E+01  0.26008174452E+02  0.28544357535E+02  0.51100000000E-03 0.  1.
        -12    1    3    3    0    0  0.55971624282E+01  0.96222605632E+01 -0.15873202588E+02  0.19387487872E+02  0.00000000000E+00 0.  1.
</event>
<event>
 7    1  0.3528441E-013  0.5930193E+02  0.7816164E-02  0.1266605E+00
        -11   -1    0    0    0    0  0.00000000000E+00  0.00000000000E+00  0.45593999997E+02  0.45594000000E+02  0.51100000000E-03 0.  1.
         11   -1    0    0    0    0 -0.00000000000E+00 -0.00000000000E+00 -0.45593999997E+02  0.45594000000E+02  0.51100000000E-03 0. -1.
    9900012    2    1    2    0    0 -0.14199939890E+02  0.27042606230E+02 -0.91531803355E+01  0.59301928514E+02  0.49999971706E+02 0.  0.
        -12    1    1    2    0    0  0.14199939890E+02 -0.27042606230E+02  0.91531803355E+01  0.31886071486E+02  0.00000000000E+00 0.  1.
         11    1    3    3    0    0 -0.24475274789E+02  0.82704926576E+01 -0.13760537146E+02  0.29271018220E+02  0.51100000000E-03 0. -1.
        -11    1    3    3    0    0 -0.12894588814E+01  0.16997926016E+02 -0.95997586192E+00  0.17073773659E+02  0.51100000000E-03 0.  1.
        -12    1    3    3    0    0  0.11564793781E+02  0.17741875562E+01  0.55673326725E+01  0.12957136635E+02  0.00000000000E+00 0.  1.
</event>
<event>
 7    1  0.3528441E-013  0.5930177E+02  0.7816164E-02  0.1266605E+00
        -11   -1    0    0    0    0  0.00000000000E+00  0.00000000000E+00  0.45593999997E+02  0.45594000000E+02  0.51100000000E-03 0.  1.
         11   -1    0    0    0    0 -0.00000000000E+00 -0.00000000000E+00 -0.45593999997E+02  0.45594000000E+02  0.51100000000E-03 0. -1.
    9900012    2    1    2    0    0  0.76939726842E+01 -0.25559180557E+02  0.17443130651E+02  0.59301768907E+02  0.49999680620E+02 0.  0.
        -12    1    1    2    0    0 -0.76939726842E+01  0.25559180557E+02 -0.17443130651E+02  0.31886231093E+02  0.00000000000E+00 0.  1.
         11    1    3    3    0    0  0.87121764595E+01 -0.24265390722E+01  0.13865030180E+02  0.16553826527E+02  0.51100000000E-03 0. -1.
        -11    1    3    3    0    0  0.13532171930E+01  0.35607841859E+01  0.13610155690E+02  0.14133177950E+02  0.51100000000E-03 0.  1.
         12    1    3    3    0    0 -0.23714209683E+01 -0.26693425671E+02 -0.10032055219E+02  0.28614764430E+02  0.00000000000E+00 0. -1.
</event>
<event>
 7    1  0.3528441E-013  0.5930200E+02  0.7816164E-02  0.1266605E+00
        -11   -1    0    0    0    0  0.00000000000E+00  0.00000000000E+00  0.45593999997E+02  0.45594000000E+02  0.51100000000E-03 0. -1.
         11   -1    0    0    0    0 -0.00000000000E+00 -0.00000000000E+00 -0.45593999997E+02  0.45594000000E+02  0.51100000000E-03 0.  1.
    9900012    2    1    2    0    0 -0.51026014163E+01 -0.19825345610E+02  0.24446594592E+02  0.59302002181E+02  0.50000106058E+02 0.  0.
        -12    1    1    2    0    0  0.51026014163E+01  0.19825345610E+02 -0.24446594592E+02  0.31885997819E+02  0.00000000000E+00 0.  1.
         11    1    3    3    0    0  0.19379302032E+01 -0.80712408574E+01  0.43305443351E+01  0.93623777402E+01  0.51100000000E-03 0. -1.
        -11    1    3    3    0    0  0.78016012698E+01 -0.21373722396E+02  0.22611299853E+02  0.32077591442E+02  0.51100000000E-03 0.  1.
         12    1    3    3    0    0 -0.14842132889E+02  0.96196176430E+01 -0.24952495962E+01  0.17862032999E+02  0.00000000000E+00 0. -1.
</event>
<event>
 7    1  0.3528441E-013  0.5930194E+02  0.7816164E-02  0.1266605E+00
        -11   -1    0    0    0    0  0.00000000000E+00  0.00000000000E+00  0.45593999997E+02  0.45594000000E+02  0.51100000000E-03 0.  1.
         11   -1    0    0    0    0 -0.00000000000E+00 -0.00000000000E+00 -0.45593999997E+02  0.45594000000E+02  0.51100000000E-03 0. -1.
    9900012    2    1    2    0    0 -0.39394757632E+01 -0.29454910440E+02 -0.11558973289E+02  0.59301935931E+02  0.49999985233E+02 0.  0.
        -12    1    1    2    0    0  0.39394757632E+01  0.29454910440E+02  0.11558973289E+02  0.31886064069E+02  0.00000000000E+00 0.  1.
         11    1    3    3    0    0  0.12536669399E+02  0.23849970804E+01 -0.80255233682E+01  0.15075321432E+02  0.51100000000E-03 0. -1.
        -11    1    3    3    0    0 -0.40260523652E+01 -0.17930639022E+02 -0.13745046994E+02  0.22948708689E+02  0.51100000000E-03 0.  1.
        -12    1    3    3    0    0 -0.12450092797E+02 -0.13909268499E+02  0.10211597073E+02  0.21277905809E+02  0.00000000000E+00 0.  1.
</event>
<event>
 7    1  0.3528441E-013  0.5930196E+02  0.7816164E-02  0.1266605E+00
        -11   -1    0    0    0    0  0.00000000000E+00  0.00000000000E+00  0.45593999997E+02  0.45594000000E+02  0.51100000000E-03 0. -1.
         11   -1    0    0    0    0 -0.00000000000E+00 -0.00000000000E+00 -0.45593999997E+02  0.45594000000E+02  0.51100000000E-03 0.  1.
    9900012    2    1    2    0    0  0.17105786518E+02  0.22477482367E+02  0.14794410662E+02  0.59301957084E+02  0.50000023812E+02 0.  0.
        -12    1    1    2    0    0 -0.17105786518E+02 -0.22477482367E+02 -0.14794410662E+02  0.31886042916E+02  0.00000000000E+00 0.  1.
         11    1    3    3    0    0  0.21274694328E+02  0.22244467389E+02  0.12224996958E+02  0.33119171171E+02  0.51100000000E-03 0. -1.
        -11    1    3    3    0    0  0.80834587230E+01 -0.79293376383E+01  0.74211110693E+00  0.11347573726E+02  0.51100000000E-03 0.  1.
        -12    1    3    3    0    0 -0.12252366532E+02  0.81623526160E+01  0.18273025971E+01  0.14835212188E+02  0.00000000000E+00 0.  1.
</event>
<event>
 7    1  0.3528441E-013  0.5930192E+02  0.7816164E-02  0.1266605E+00
        -11   -1    0    0    0    0  0.00000000000E+00  0.00000000000E+00  0.45593999997E+02  0.45594000000E+02  0.51100000000E-03 0.  1.
         11   -1    0    0    0    0 -0.00000000000E+00 -0.00000000000E+00 -0.45593999997E+02  0.45594000000E+02  0.51100000000E-03 0. -1.
    9900012    2    1    2    0    0 -0.21592015172E+02 -0.15261651974E+02 -0.17821033694E+02  0.59301915541E+02  0.49999948048E+02 0.  0.
        -12    1    1    2    0    0  0.21592015172E+02  0.15261651974E+02  0.17821033694E+02  0.31886084459E+02  0.00000000000E+00 0.  1.
         11    1    3    3    0    0  0.65658767722E+00  0.39561829396E+01 -0.73126592732E+01  0.83401125134E+01  0.51100000000E-03 0. -1.
        -11    1    3    3    0    0  0.10154719103E+02  0.29695447381E+01 -0.27440949021E+01  0.10930076537E+02  0.51100000000E-03 0.  1.
         12    1    3    3    0    0 -0.32403321953E+02 -0.22187379652E+02 -0.77642795186E+01  0.40031726491E+02  0.00000000000E+00 0. -1.
</event>
<event>
 7    1  0.3528441E-013  0.5930191E+02  0.7816164E-02  0.1266605E+00
        -11   -1    0    0    0    0  0.00000000000E+00  0.00000000000E+00  0.45593999997E+02  0.45594000000E+02  0.51100000000E-03 0.  1.
         11   -1    0    0    0    0 -0.00000000000E+00 -0.00000000000E+00 -0.45593999997E+02  0.45594000000E+02  0.51100000000E-03 0. -1.
    9900012    2    1    2    0    0 -0.23255973005E+02 -0.83449746308E+00 -0.21798763701E+02  0.59301909533E+02  0.49999937089E+02 0.  0.
        -12    1    1    2    0    0  0.23255973005E+02  0.83449746308E+00  0.21798763701E+02  0.31886090467E+02  0.00000000000E+00 0.  1.
         11    1    3    3    0    0 -0.24114767361E+02  0.79381162564E+01  0.64395685233E+01  0.26191673059E+02  0.51100000000E-03 0. -1.
        -11    1    3    3    0    0 -0.40322634764E+01 -0.50072614293E+01 -0.29392083175E+01  0.70690000395E+01  0.51100000000E-03 0.  1.
        -12    1    3    3    0    0  0.48910578328E+01 -0.37653522902E+01 -0.25299123907E+02  0.26041236434E+02  0.00000000000E+00 0.  1.
</event>
<event>
 7    1  0.3528441E-013  0.5930192E+02  0.7816164E-02  0.1266605E+00
        -11   -1    0    0    0    0  0.00000000000E+00  0.00000000000E+00  0.45593999997E+02  0.45594000000E+02  0.51100000000E-03 0.  1.
         11   -1    0    0    0    0 -0.00000000000E+00 -0.00000000000E+00 -0.45593999997E+02  0.45594000000E+02  0.51100000000E-03 0. -1.
    9900012    2    1    2    0    0  0.20328694800E+02 -0.15323028437E+02 -0.19200800870E+02  0.59301924876E+02  0.49999965072E+02 0.  0.
        -12    1    1    2    0    0 -0.20328694800E+02  0.15323028437E+02  0.19200800870E+02  0.31886075124E+02  0.00000000000E+00 0.  1.
         11    1    3    3    0    0  0.14998815213E+02 -0.85701001827E+00 -0.23848321411E+02  0.28185836130E+02  0.51100000000E-03 0. -1.
        -11    1    3    3    0    0 -0.24262611445E+01  0.40167089389E+01 -0.66257793390E+01  0.81192146141E+01  0.51100000000E-03 0.  1.
        -12    1    3    3    0    0  0.77561407318E+01 -0.18482727358E+02  0.11273299880E+02  0.22996874132E+02  0.00000000000E+00 0.  1.
</event>
<event>
 7    1  0.3528441E-013  0.5930195E+02  0.7816164E-02  0.1266605E+00
        -11   -1    0    0    0    0  0.00000000000E+00  0.00000000000E+00  0.45593999997E+02  0.45594000000E+02  0.51100000000E-03 0. -1.
         11   -1    0    0    0    0 -0.00000000000E+00 -0.00000000000E+00 -0.45593999997E+02  0.45594000000E+02  0.51100000000E-03 0.  1.
    9900012    2    1    2    0    0 -0.14466170530E+02  0.42786445957E+01  0.28091698819E+02  0.59301946122E+02  0.50000003819E+02 0.  0.
        -12    1    1    2    0    0  0.14466170530E+02 -0.42786445957E+01 -0.28091698819E+02  0.31886053878E+02  0.00000000000E+00 0.  1.
         11    1    3    3    0    0 -0.12091915784E+02  0.42054834338E+01  0.10571500197E+02  0.16602925493E+02  0.51100000000E-03 0. -1.
        -11    1    3    3    0    0 -0.17575968035E+02 -0.31839728530E+01  0.20154608349E+02  0.26930662329E+02  0.51100000000E-03 0.  1.
         12    1    3    3    0    0  0.15201713288E+02  0.32571340149E+01 -0.26344097274E+01  0.15768358301E+02  0.00000000000E+00 0. -1.
</event>
<event>
 7    1  0.3528441E-013  0.5930203E+02  0.7816164E-02  0.1266604E+00
        -11   -1    0    0    0    0  0.00000000000E+00  0.00000000000E+00  0.45593999997E+02  0.45594000000E+02  0.51100000000E-03 0. -1.
         11   -1    0    0    0    0 -0.00000000000E+00 -0.00000000000E+00 -0.45593999997E+02  0.45594000000E+02  0.51100000000E-03 0.  1.
    9900012    2    1    2    0    0 -0.19799332316E+01  0.22271377956E+02 -0.22732807579E+02  0.59302032051E+02  0.50000160532E+02 0.  0.
        -12    1    1    2    0    0  0.19799332316E+01 -0.22271377956E+02  0.22732807579E+02  0.31885967949E+02  0.00000000000E+00 0.  1.
         11    1    3    3    0    0 -0.39810830027E+01 -0.20943312321E+01  0.74091328949E+01  0.86677849361E+01  0.51100000000E-03 0. -1.
        -11    1    3    3    0    0 -0.50705910087E+01 -0.12402413878E+01  0.45603949772E+01  0.69315434419E+01  0.51100000000E-03 0.  1.
        -12    1    3    3    0    0  0.70717407799E+01  0.25605950576E+02 -0.34702335451E+02  0.43702703673E+02  0.00000000000E+00 0.  1.
</event>
<event>
 7    1  0.3528441E-013  0.5930202E+02  0.7816164E-02  0.1266605E+00
        -11   -1    0    0    0    0  0.00000000000E+00  0.00000000000E+00  0.45593999997E+02  0.45594000000E+02  0.51100000000E-03 0.  1.
         11   -1    0    0    0    0 -0.00000000000E+00 -0.00000000000E+00 -0.45593999997E+02  0.45594000000E+02  0.51100000000E-03 0. -1.
    9900012    2    1    2    0    0  0.17326635368E+02  0.15416178756E+02 -0.21882526257E+02  0.59302018504E+02  0.50000135826E+02 0.  0.
        -12    1    1    2    0    0 -0.17326635368E+02 -0.15416178756E+02  0.21882526257E+02  0.31885981496E+02  0.00000000000E+00 0.  1.
         11    1    3    3    0    0  0.26085309999E+02  0.16912432009E+02  0.70880568553E+00  0.31096240286E+02  0.51100000000E-03 0.  1.
        -11    1    3    3    0    0  0.18695322478E+01 -0.21560057761E+01 -0.14641265816E+02  0.14916775009E+02  0.51100000000E-03 0. -1.
        -12    1    3    3    0    0 -0.10628206879E+02  0.65975252343E+00 -0.79500661268E+01  0.13289003208E+02  0.00000000000E+00 0.  1.
</event>
<event>
 7    1  0.3528441E-013  0.5930195E+02  0.7816164E-02  0.1266605E+00
        -11   -1    0    0    0    0  0.00000000000E+00  0.00000000000E+00  0.45593999997E+02  0.45594000000E+02  0.51100000000E-03 0.  1.
         11   -1    0    0    0    0 -0.00000000000E+00 -0.00000000000E+00 -0.45593999997E+02  0.45594000000E+02  0.51100000000E-03 0. -1.
    9900012    2    1    2    0    0 -0.27265148246E+02  0.56261068982E+01 -0.15546020366E+02  0.59301950747E+02  0.50000012255E+02 0.  0.
        -12    1    1    2    0    0  0.27265148246E+02 -0.56261068982E+01  0.15546020366E+02  0.31886049253E+02  0.00000000000E+00 0.  1.
         11    1    3    3    0    0 -0.12121787459E+02 -0.81080989340E+01 -0.13291703169E+02  0.19731912551E+02  0.51100000000E-03 0. -1.
        -11    1    3    3    0    0 -0.81834952094E+00 -0.72329826197E+01  0.91843652593E+01  0.11719142417E+02  0.51100000000E-03 0.  1.
         12    1    3    3    0    0 -0.14325011266E+02  0.20967188452E+02 -0.11438682457E+02  0.27850895779E+02  0.00000000000E+00 0. -1.
</event>
<event>
 7    1  0.3528441E-013  0.5930194E+02  0.7816164E-02  0.1266605E+00
        -11   -1    0    0    0    0  0.00000000000E+00  0.00000000000E+00  0.45593999997E+02  0.45594000000E+02  0.51100000000E-03 0. -1.
         11   -1    0    0    0    0 -0.00000000000E+00 -0.00000000000E+00 -0.45593999997E+02  0.45594000000E+02  0.51100000000E-03 0.  1.
    9900012    2    1    2    0    0 -0.13427413402E+02  0.14287208880E+02  0.25145601711E+02  0.59301936372E+02  0.49999986038E+02 0.  0.
        -12    1    1    2    0    0  0.13427413402E+02 -0.14287208880E+02 -0.25145601711E+02  0.31886063628E+02  0.00000000000E+00 0.  1.
         11    1    3    3    0    0  0.68733218169E+01 -0.48470267263E+01  0.13344803142E+02  0.15774029036E+02  0.51100000000E-03 0. -1.
        -11    1    3    3    0    0 -0.28380637708E+02  0.11016469996E+02  0.84850700614E+01  0.31604107678E+02  0.51100000000E-03 0.  1.
         12    1    3    3    0    0  0.80799024896E+01  0.81177656109E+01  0.33157285082E+01  0.11923799658E+02  0.00000000000E+00 0. -1.
</event>
<event>
 7    1  0.3528441E-013  0.5930193E+02  0.7816164E-02  0.1266605E+00
        -11   -1    0    0    0    0  0.00000000000E+00  0.00000000000E+00  0.45593999997E+02  0.45594000000E+02  0.51100000000E-03 0. -1.
         11   -1    0    0    0    0 -0.00000000000E+00 -0.00000000000E+00 -0.45593999997E+02  0.45594000000E+02  0.51100000000E-03 0.  1.
    9900012    2    1    2    0    0 -0.20643685540E+02 -0.12360191934E+02  0.20923316927E+02  0.59301932689E+02  0.49999979321E+02 0.  0.
        -12    1    1    2    0    0  0.20643685540E+02  0.12360191934E+02 -0.20923316927E+02  0.31886067311E+02  0.00000000000E+00 0.  1.
         11    1    3    3    0    0 -0.14046786214E+02 -0.44965657893E+01  0.52164623736E+01  0.15644257311E+02  0.51100000000E-03 0. -1.
        -11    1    3    3    0    0 -0.76495767173E+01  0.91424246251E+01  0.22381739444E+02  0.25358277007E+02  0.51100000000E-03 0.  1.
         12    1    3    3    0    0  0.10526773916E+01 -0.17006050770E+02 -0.66748848901E+01  0.18299398372E+02  0.00000000000E+00 0. -1.
</event>
<event>
 7    1  0.3528441E-013  0.5930194E+02  0.7816164E-02  0.1266605E+00
        -11   -1    0    0    0    0  0.00000000000E+00  0.00000000000E+00  0.45593999997E+02  0.45594000000E+02  0.51100000000E-03 0.  1.
         11   -1    0    0    0    0 -0.00000000000E+00 -0.00000000000E+00 -0.45593999997E+02  0.45594000000E+02  0.51100000000E-03 0. -1.
    9900012    2    1    2    0    0 -0.14175709144E+02 -0.13794798966E+02 -0.25009468780E+02  0.59301941339E+02  0.49999995097E+02 0.  0.
        -12    1    1    2    0    0  0.14175709144E+02  0.13794798966E+02  0.25009468780E+02  0.31886058661E+02  0.00000000000E+00 0.  1.
         11    1    3    3    0    0  0.18077670384E+01 -0.58849679479E+01 -0.96752256019E+01  0.11467818455E+02  0.51100000000E-03 0. -1.
        -11    1    3    3    0    0 -0.23473769671E+01 -0.21709910967E+02  0.18534639674E+01  0.21914966159E+02  0.51100000000E-03 0.  1.
         12    1    3    3    0    0 -0.13636099215E+02  0.13800079949E+02 -0.17187707146E+02  0.25919156725E+02  0.00000000000E+00 0. -1.
</event>
<event>
 7    1  0.3528441E-013  0.5930194E+02  0.7816164E-02  0.1266605E+00
        -11   -1    0    0    0    0  0.00000000000E+00  0.00000000000E+00  0.45593999997E+02  0.45594000000E+02  0.51100000000E-03 0.  1.
         11   -1    0    0    0    0 -0.00000000000E+00 -0.00000000000E+00 -0.45593999997E+02  0.45594000000E+02  0.51100000000E-03 0. -1.
    9900012    2    1    2    0    0 -0.84140114781E+01 -0.20319985546E+01 -0.30688701056E+02  0.59301937531E+02  0.49999988151E+02 0.  0.
        -12    1    1    2    0    0  0.84140114781E+01  0.20319985546E+01  0.30688701056E+02  0.31886062469E+02  0.00000000000E+00 0.  1.
         11    1    3    3    0    0  0.24610244976E+01 -0.61650463653E+01 -0.35567000059E+01  0.75309065495E+01  0.51100000000E-03 0.  1.
        -11    1    3    3    0    0  0.10439091358E+02  0.16443604602E+02 -0.11841910689E+02  0.22794683804E+02  0.51100000000E-03 0. -1.
         12    1    3    3    0    0 -0.21314127334E+02 -0.12310556791E+02 -0.15290090361E+02  0.28976347177E+02  0.00000000000E+00 0. -1.
</event>
<event>
 7    1  0.3528441E-013  0.5930192E+02  0.7816164E-02  0.1266605E+00
        -11   -1    0    0    0    0  0.00000000000E+00  0.00000000000E+00  0.45593999997E+02  0.45594000000E+02  0.51100000000E-03 0.  1.
         11   -1    0    0    0    0 -0.00000000000E+00 -0.00000000000E+00 -0.45593999997E+02  0.45594000000E+02  0.51100000000E-03 0. -1.
    9900012    2    1    2    0    0 -0.24707777898E+02 -0.15818988216E+02 -0.12490301951E+02  0.59301916520E+02  0.49999949833E+02 0.  0.
        -12    1    1    2    0    0  0.24707777898E+02  0.15818988216E+02  0.12490301951E+02  0.31886083480E+02  0.00000000000E+00 0.  1.
         11    1    3    3    0    0 -0.44196239671E+01 -0.73407651311E+01  0.29783485199E+01  0.90714094213E+01  0.51100000000E-03 0. -1.
        -11    1    3    3    0    0 -0.96779310610E+01 -0.13920997033E+02  0.11673282829E+02  0.20584509716E+02  0.51100000000E-03 0.  1.
         12    1    3    3    0    0 -0.10610222870E+02  0.54427739479E+01 -0.27141933299E+02  0.29645997383E+02  0.00000000000E+00 0. -1.
</event>
<event>
 7    1  0.3528441E-013  0.5930195E+02  0.7816164E-02  0.1266605E+00
        -11   -1    0    0    0    0  0.00000000000E+00  0.00000000000E+00  0.45593999997E+02  0.45594000000E+02  0.51100000000E-03 0. -1.
         11   -1    0    0    0    0 -0.00000000000E+00 -0.00000000000E+00 -0.45593999997E+02  0.45594000000E+02  0.51100000000E-03 0.  1.
    9900012    2    1    2    0    0 -0.98980095272E+01 -0.30155085034E+02  0.30692883530E+01  0.59301948551E+02  0.50000008250E+02 0.  0.
        -12    1    1    2    0    0  0.98980095272E+01  0.30155085034E+02 -0.30692883530E+01  0.31886051449E+02  0.00000000000E+00 0.  1.
         11    1    3    3    0    0 -0.13013121240E+01  0.60603585217E+01  0.28670967893E+01  0.68294657856E+01  0.51100000000E-03 0.  1.
        -11    1    3    3    0    0  0.19848090780E+01  0.73539262681E+01 -0.46983805032E+00  0.76315428773E+01  0.51100000000E-03 0. -1.
        -12    1    3    3    0    0 -0.10581506481E+02 -0.43569369824E+02  0.67202961398E+00  0.44840939888E+02  0.00000000000E+00 0.  1.
</event>
<event>
 7    1  0.3528441E-013  0.5930193E+02  0.7816164E-02  0.1266605E+00
        -11   -1    0    0    0    0  0.00000000000E+00  0.00000000000E+00  0.45593999997E+02  0.45594000000E+02  0.51100000000E-03 0.  1.
         11   -1    0    0    0    0 -0.00000000000E+00 -0.00000000000E+00 -0.45593999997E+02  0.45594000000E+02  0.51100000000E-03 0. -1.
    9900012    2    1    2    0    0  0.26512586319E+02  0.16518116290E+02 -0.63996801981E+01  0.59301932420E+02  0.49999978830E+02 0.  0.
        -12    1    1    2    0    0 -0.26512586319E+02 -0.16518116290E+02  0.63996801981E+01  0.31886067580E+02  0.00000000000E+00 0.  1.
         11    1    3    3    0    0 -0.26142549083E+00 -0.92465628930E+01 -0.99357340768E+01  0.13575200939E+02  0.51100000000E-03 0. -1.
        -11    1    3    3    0    0  0.28106878646E+01 -0.20369421758E+01 -0.67660452628E+01  0.76045031698E+01  0.51100000000E-03 0.  1.
        -12    1    3    3    0    0  0.23963323946E+02  0.27801621358E+02  0.10302099142E+02  0.38122228311E+02  0.00000000000E+00 0.  1.
</event>
<event>
 7    1  0.3528441E-013  0.5930194E+02  0.7816164E-02  0.1266605E+00
        -11   -1    0    0    0    0  0.00000000000E+00  0.00000000000E+00  0.45593999997E+02  0.45594000000E+02  0.51100000000E-03 0. -1.
         11   -1    0    0    0    0 -0.00000000000E+00 -0.00000000000E+00 -0.45593999997E+02  0.45594000000E+02  0.51100000000E-03 0.  1.
    9900012    2    1    2    0    0 -0.11769792607E+02  0.26138248800E+02  0.13963694912E+02  0.59301939661E+02  0.49999992036E+02 0.  0.
        -12    1    1    2    0    0  0.11769792607E+02 -0.26138248800E+02 -0.13963694912E+02  0.31886060339E+02  0.00000000000E+00 0.  1.
         11    1    3    3    0    0  0.20549244365E+01  0.37408304138E+01  0.32840564502E+01  0.53853090583E+01  0.51100000000E-03 0. -1.
        -11    1    3    3    0    0 -0.14294245756E+02  0.35445655840E+02  0.20670498622E+01  0.38275222730E+02  0.51100000000E-03 0.  1.
        -12    1    3    3    0    0  0.46952871339E+00 -0.13048237453E+02  0.86125885993E+01  0.15641407872E+02  0.00000000000E+00 0.  1.
</event>
<event>
 7    1  0.3528441E-013  0.5930193E+02  0.7816164E-02  0.1266605E+00
        -11   -1    0    0    0    0  0.00000000000E+00  0.00000000000E+00  0.45593999997E+02  0.45594000000E+02  0.51100000000E-03 0. -1.
         11   -1    0    0    0    0 -0.00000000000E+00 -0.00000000000E+00 -0.45593999997E+02  0.45594000000E+02  0.51100000000E-03 0.  1.
    9900012    2    1    2    0    0 -0.13438092290E+02 -0.87156602842E+01  0.27571294189E+02  0.59301932168E+02  0.49999978370E+02 0.  0.
        -12    1    1    2    0    0  0.13438092290E+02  0.87156602842E+01 -0.27571294189E+02  0.31886067832E+02  0.00000000000E+00 0.  1.
         11    1    3    3    0    0 -0.24945798099E+01 -0.34165042441E+01  0.46396998985E+01  0.62787136491E+01  0.51100000000E-03 0. -1.
        -11    1    3    3    0    0 -0.35480957786E+01 -0.10570694321E+02  0.35673752547E+02  0.37375729868E+02  0.51100000000E-03 0.  1.
        -12    1    3    3    0    0 -0.73954167011E+01  0.52715382809E+01 -0.12742158257E+02  0.15647488651E+02  0.00000000000E+00 0.  1.
</event>
<event>
 7    1  0.3528441E-013  0.5930192E+02  0.7816164E-02  0.1266605E+00
        -11   -1    0    0    0    0  0.00000000000E+00  0.00000000000E+00  0.45593999997E+02  0.45594000000E+02  0.51100000000E-03 0.  1.
         11   -1    0    0    0    0 -0.00000000000E+00 -0.00000000000E+00 -0.45593999997E+02  0.45594000000E+02  0.51100000000E-03 0. -1.
    9900012    2    1    2    0    0 -0.16070210887E+02  0.11935174544E+02 -0.24819795527E+02  0.59301916526E+02  0.49999949843E+02 0.  0.
        -12    1    1    2    0    0  0.16070210887E+02 -0.11935174544E+02  0.24819795527E+02  0.31886083474E+02  0.00000000000E+00 0.  1.
         11    1    3    3    0    0  0.97849963123E+01  0.21204409767E+02 -0.88636840288E+01  0.24978751795E+02  0.51100000000E-03 0. -1.
        -11    1    3    3    0    0  0.14516189763E+01 -0.16033665170E+00 -0.15638590877E+01  0.21397572295E+01  0.51100000000E-03 0.  1.
        -12    1    3    3    0    0 -0.27306826175E+02 -0.91088985716E+01 -0.14392252410E+02  0.32183407501E+02  0.00000000000E+00 0.  1.
</event>
<event>
 7    1  0.3528441E-013  0.5930195E+02  0.7816164E-02  0.1266605E+00
        -11   -1    0    0    0    0  0.00000000000E+00  0.00000000000E+00  0.45593999997E+02  0.45594000000E+02  0.51100000000E-03 0.  1.
         11   -1    0    0    0    0 -0.00000000000E+00 -0.00000000000E+00 -0.45593999997E+02  0.45594000000E+02  0.51100000000E-03 0. -1.
    9900012    2    1    2    0    0 -0.17767813469E+01  0.74958176416E+01 -0.30941495019E+02  0.59301947437E+02  0.50000006217E+02 0.  0.
        -12    1    1    2    0    0  0.17767813469E+01 -0.74958176416E+01  0.30941495019E+02  0.31886052563E+02  0.00000000000E+00 0.  1.
         11    1    3    3    0    0 -0.74723800558E+01  0.77132437478E+01 -0.87844781934E+01  0.13874352244E+02  0.51100000000E-03 0. -1.
        -11    1    3    3    0    0 -0.16870321659E+02  0.11565138274E+01 -0.11380013456E+02  0.20382590209E+02  0.51100000000E-03 0.  1.
        -12    1    3    3    0    0  0.22565920368E+02 -0.13739399336E+01 -0.10777003370E+02  0.25045004984E+02  0.00000000000E+00 0.  1.
</event>
<event>
 7    1  0.3528441E-013  0.5930194E+02  0.7816164E-02  0.1266605E+00
        -11   -1    0    0    0    0  0.00000000000E+00  0.00000000000E+00  0.45593999997E+02  0.45594000000E+02  0.51100000000E-03 0.  1.
         11   -1    0    0    0    0 -0.00000000000E+00 -0.00000000000E+00 -0.45593999997E+02  0.45594000000E+02  0.51100000000E-03 0. -1.
    9900012    2    1    2    0    0 -0.65438837565E+01  0.78206491009E+00 -0.31197549051E+02  0.59301935537E+02  0.49999984515E+02 0.  0.
        -12    1    1    2    0    0  0.65438837565E+01 -0.78206491009E+00  0.31197549051E+02  0.31886064463E+02  0.00000000000E+00 0.  1.
         11    1    3    3    0    0 -0.14070019076E+00  0.29235841134E+01  0.15380656315E+01  0.33064764871E+01  0.51100000000E-03 0. -1.
        -11    1    3    3    0    0 -0.20166714662E+02  0.13708847582E+02 -0.18933442571E+02  0.30872384588E+02  0.51100000000E-03 0.  1.
         12    1    3    3    0    0  0.13763531096E+02 -0.15850366785E+02 -0.13802172111E+02  0.25123074462E+02  0.00000000000E+00 0. -1.
</event>
<event>
 7    1  0.3528441E-013  0.5930197E+02  0.7816164E-02  0.1266605E+00
        -11   -1    0    0    0    0  0.00000000000E+00  0.00000000000E+00  0.45593999997E+02  0.45594000000E+02  0.51100000000E-03 0.  1.
         11   -1    0    0    0    0 -0.00000000000E+00 -0.00000000000E+00 -0.45593999997E+02  0.45594000000E+02  0.51100000000E-03 0. -1.
    9900012    2    1    2    0    0 -0.23373793745E+02  0.19487563845E+02 -0.95194154744E+01  0.59301974070E+02  0.50000054790E+02 0.  0.
        -12    1    1    2    0    0  0.23373793745E+02 -0.19487563845E+02  0.95194154744E+01  0.31886025930E+02  0.00000000000E+00 0.  1.
         11    1    3    3    0    0 -0.19085345503E+02  0.47233147633E+00 -0.26502449561E+01  0.19274265449E+02  0.51100000000E-03 0. -1.
        -11    1    3    3    0    0 -0.66446559223E+01  0.21619334338E+02  0.85756858449E+01  0.24188622481E+02  0.51100000000E-03 0.  1.
         12    1    3    3    0    0  0.23562076806E+01 -0.26041019692E+01 -0.15444856363E+02  0.15839086141E+02  0.00000000000E+00 0. -1.
</event>
<event>
 7    1  0.3528441E-013  0.5930196E+02  0.7816164E-02  0.1266605E+00
        -11   -1    0    0    0    0  0.00000000000E+00  0.00000000000E+00  0.45593999997E+02  0.45594000000E+02  0.51100000000E-03 0. -1.
         11   -1    0    0    0    0 -0.00000000000E+00 -0.00000000000E+00 -0.45593999997E+02  0.45594000000E+02  0.51100000000E-03 0.  1.
    9900012    2    1    2    0    0 -0.26447648818E+02  0.14792017571E+02  0.99215754197E+01  0.59301959628E+02  0.50000028451E+02 0.  0.
        -12    1    1    2    0    0  0.26447648818E+02 -0.14792017571E+02 -0.99215754197E+01  0.31886040372E+02  0.00000000000E+00 0.  1.
         11    1    3    3    0    0 -0.99150332303E+00  0.15279398891E+01  0.53290456886E+01  0.56317321808E+01  0.51100000000E-03 0. -1.
        -11    1    3    3    0    0 -0.10790093471E+02  0.29370359566E+02  0.59276256751E+01  0.31846206753E+02  0.51100000000E-03 0.  1.
        -12    1    3    3    0    0 -0.14666052023E+02 -0.16106281884E+02 -0.13350959440E+01  0.21824020694E+02  0.00000000000E+00 0.  1.
</event>
<event>
 7    1  0.3528441E-013  0.5930192E+02  0.7816164E-02  0.1266605E+00
        -11   -1    0    0    0    0  0.00000000000E+00  0.00000000000E+00  0.45593999997E+02  0.45594000000E+02  0.51100000000E-03 0. -1.
         11   -1    0    0    0    0 -0.00000000000E+00 -0.00000000000E+00 -0.45593999997E+02  0.45594000000E+02  0.51100000000E-03 0.  1.
    9900012    2    1    2    0    0  0.14587515467E+02 -0.23940744104E+02  0.15191025031E+02  0.59301920321E+02  0.49999956765E+02 0.  0.
        -12    1    1    2    0    0 -0.14587515467E+02  0.23940744104E+02 -0.15191025031E+02  0.31886079679E+02  0.00000000000E+00 0.  1.
         11    1    3    3    0    0 -0.13588178018E+01 -0.26731362669E+02 -0.24755436570E+01  0.26880112586E+02  0.51100000000E-03 0. -1.
        -11    1    3    3    0    0  0.80528534476E+01 -0.95777231619E+01  0.81399962909E+01  0.14927852139E+02  0.51100000000E-03 0.  1.
        -12    1    3    3    0    0  0.78934798211E+01  0.12368341727E+02  0.95265723974E+01  0.17493955596E+02  0.00000000000E+00 0.  1.
</event>
<event>
 7    1  0.3528441E-013  0.5930194E+02  0.7816164E-02  0.1266605E+00
        -11   -1    0    0    0    0  0.00000000000E+00  0.00000000000E+00  0.45593999997E+02  0.45594000000E+02  0.51100000000E-03 0. -1.
         11   -1    0    0    0    0 -0.00000000000E+00 -0.00000000000E+00 -0.45593999997E+02  0.45594000000E+02  0.51100000000E-03 0.  1.
    9900012    2    1    2    0    0 -0.36776932584E+01 -0.14350687053E+02  0.28235667389E+02  0.59301944122E+02  0.50000000171E+02 0.  0.
        -12    1    1    2    0    0  0.36776932584E+01  0.14350687053E+02 -0.28235667389E+02  0.31886055878E+02  0.00000000000E+00 0.  1.
         11    1    3    3    0    0  0.39751553744E+01 -0.10298189731E+02  0.12430761196E+02  0.16624632211E+02  0.51100000000E-03 0. -1.
        -11    1    3    3    0    0 -0.22949481202E+02 -0.69949950598E+01  0.83035757338E+01  0.25388147108E+02  0.51100000000E-03 0.  1.
         12    1    3    3    0    0  0.15296632570E+02  0.29424977382E+01  0.75013304593E+01  0.17289164802E+02  0.00000000000E+00 0. -1.
</event>
<event>
 7    1  0.3528441E-013  0.5930193E+02  0.7816164E-02  0.1266605E+00
        -11   -1    0    0    0    0  0.00000000000E+00  0.00000000000E+00  0.45593999997E+02  0.45594000000E+02  0.51100000000E-03 0.  1.
         11   -1    0    0    0    0 -0.00000000000E+00 -0.00000000000E+00 -0.45593999997E+02  0.45594000000E+02  0.51100000000E-03 0. -1.
    9900012    2    1    2    0    0  0.25452914984E+01 -0.31472575389E+02  0.44407095289E+01  0.59301930761E+02  0.49999975804E+02 0.  0.
        -12    1    1    2    0    0 -0.25452914984E+01  0.31472575389E+02 -0.44407095289E+01  0.31886069239E+02  0.00000000000E+00 0.  1.
         11    1    3    3    0    0 -0.74399458891E+01 -0.45413830723E+01  0.93997288342E+01  0.12819198784E+02  0.51100000000E-03 0. -1.
        -11    1    3    3    0    0  0.17231469388E+01 -0.53426735132E+01  0.14953911808E+02  0.15972879335E+02  0.51100000000E-03 0.  1.
         12    1    3    3    0    0  0.82620904488E+01 -0.21588518803E+02 -0.19912931113E+02  0.30509852642E+02  0.00000000000E+00 0. -1.
</event>
<event>
 7    1  0.3528441E-013  0.5930195E+02  0.7816164E-02  0.1266605E+00
        -11   -1    0    0    0    0  0.00000000000E+00  0.00000000000E+00  0.45593999997E+02  0.45594000000E+02  0.51100000000E-03 0.  1.
         11   -1    0    0    0    0 -0.00000000000E+00 -0.00000000000E+00 -0.45593999997E+02  0.45594000000E+02  0.51100000000E-03 0. -1.
    9900012    2    1    2    0    0  0.54176832535E+01 -0.26861112359E+02 -0.16304899008E+02  0.59301946925E+02  0.50000005285E+02 0.  0.
        -12    1    1    2    0    0 -0.54176832535E+01  0.26861112359E+02  0.16304899008E+02  0.31886053075E+02  0.00000000000E+00 0.  1.
         11    1    3    3    0    0 -0.12726056141E+00 -0.15412604958E+02 -0.24097031497E+02  0.28604746355E+02  0.51100000000E-03 0. -1.
        -11    1    3    3    0    0 -0.50274160131E+01  0.53634951080E+01 -0.31779807543E+01  0.80088422058E+01  0.51100000000E-03 0.  1.
        -12    1    3    3    0    0  0.10572359828E+02 -0.16812002509E+02  0.10970113243E+02  0.22688358364E+02  0.00000000000E+00 0.  1.
</event>
<event>
 7    1  0.3528441E-013  0.5930197E+02  0.7816164E-02  0.1266605E+00
        -11   -1    0    0    0    0  0.00000000000E+00  0.00000000000E+00  0.45593999997E+02  0.45594000000E+02  0.51100000000E-03 0. -1.
         11   -1    0    0    0    0 -0.00000000000E+00 -0.00000000000E+00 -0.45593999997E+02  0.45594000000E+02  0.51100000000E-03 0.  1.
    9900012    2    1    2    0    0  0.16249613159E+02  0.78902572203E+01  0.26275705697E+02  0.59301971763E+02  0.50000050583E+02 0.  0.
        -12    1    1    2    0    0 -0.16249613159E+02 -0.78902572203E+01 -0.26275705697E+02  0.31886028237E+02  0.00000000000E+00 0.  1.
         11    1    3    3    0    0 -0.16364770713E+01 -0.89110010480E+01  0.27388878129E+00  0.90641608661E+01  0.51100000000E-03 0. -1.
        -11    1    3    3    0    0 -0.68867855571E+01  0.16845480762E+02  0.11638072502E+02  0.21601915870E+02  0.51100000000E-03 0.  1.
         12    1    3    3    0    0  0.24772875788E+02 -0.44222494114E-01  0.14363744414E+02  0.28635895027E+02  0.00000000000E+00 0. -1.
</event>
<event>
 7    1  0.3528441E-013  0.5930194E+02  0.7816164E-02  0.1266605E+00
        -11   -1    0    0    0    0  0.00000000000E+00  0.00000000000E+00  0.45593999997E+02  0.45594000000E+02  0.51100000000E-03 0.  1.
         11   -1    0    0    0    0 -0.00000000000E+00 -0.00000000000E+00 -0.45593999997E+02  0.45594000000E+02  0.51100000000E-03 0. -1.
    9900012    2    1    2    0    0 -0.13699417161E+02 -0.42283319198E+00 -0.28790069085E+02  0.59301938839E+02  0.49999990538E+02 0.  0.
        -12    1    1    2    0    0  0.13699417161E+02  0.42283319198E+00  0.28790069085E+02  0.31886061161E+02  0.00000000000E+00 0.  1.
         11    1    3    3    0    0  0.38188184738E+01  0.78088013441E+00  0.42361513632E+01  0.57565725005E+01  0.51100000000E-03 0. -1.
        -11    1    3    3    0    0 -0.23328049798E+02 -0.13567423552E+02 -0.14832924009E+02  0.30794293694E+02  0.51100000000E-03 0.  1.
         12    1    3    3    0    0  0.58098141636E+01  0.12363710226E+02 -0.18193296439E+02  0.22751072645E+02  0.00000000000E+00 0. -1.
</event>
<event>
 7    1  0.3528441E-013  0.5930195E+02  0.7816164E-02  0.1266605E+00
        -11   -1    0    0    0    0  0.00000000000E+00  0.00000000000E+00  0.45593999997E+02  0.45594000000E+02  0.51100000000E-03 0.  1.
         11   -1    0    0    0    0 -0.00000000000E+00 -0.00000000000E+00 -0.45593999997E+02  0.45594000000E+02  0.51100000000E-03 0. -1.
    9900012    2    1    2    0    0 -0.23210456410E+02  0.21638754966E+02  0.31239817088E+01  0.59301948740E+02  0.50000008594E+02 0.  0.
        -12    1    1    2    0    0  0.23210456410E+02 -0.21638754966E+02 -0.31239817088E+01  0.31886051260E+02  0.00000000000E+00 0.  1.
         11    1    3    3    0    0 -0.50227629968E+00  0.92293746874E+01 -0.23031432402E+01  0.95256552346E+01  0.51100000000E-03 0. -1.
        -11    1    3    3    0    0 -0.89425117282E+01 -0.12513604457E+02 -0.90392467525E+01  0.17840033482E+02  0.51100000000E-03 0.  1.
         12    1    3    3    0    0 -0.13765668382E+02  0.24922984735E+02  0.14466371701E+02  0.31936260024E+02  0.00000000000E+00 0. -1.
</event>
<event>
 7    1  0.3528441E-013  0.5930194E+02  0.7816164E-02  0.1266605E+00
        -11   -1    0    0    0    0  0.00000000000E+00  0.00000000000E+00  0.45593999997E+02  0.45594000000E+02  0.51100000000E-03 0. -1.
         11   -1    0    0    0    0 -0.00000000000E+00 -0.00000000000E+00 -0.45593999997E+02  0.45594000000E+02  0.51100000000E-03 0.  1.
    9900012    2    1    2    0    0 -0.81490164610E+01 -0.37048322076E+01  0.30603733613E+02  0.59301940945E+02  0.49999994378E+02 0.  0.
        -12    1    1    2    0    0  0.81490164610E+01  0.37048322076E+01 -0.30603733613E+02  0.31886059055E+02  0.00000000000E+00 0.  1.
         11    1    3    3    0    0  0.16501278909E+01  0.79583577219E+00  0.24885992885E+00  0.18488396788E+01  0.51100000000E-03 0.  1.
        -11    1    3    3    0    0 -0.10727147671E+02  0.18995050619E+02  0.25292098541E+02  0.33400207994E+02  0.51100000000E-03 0. -1.
         12    1    3    3    0    0  0.92800331915E+00 -0.23495718599E+02  0.50627751433E+01  0.24052893272E+02  0.00000000000E+00 0. -1.
</event>
<event>
 7    1  0.3528441E-013  0.5930194E+02  0.7816164E-02  0.1266605E+00
        -11   -1    0    0    0    0  0.00000000000E+00  0.00000000000E+00  0.45593999997E+02  0.45594000000E+02  0.51100000000E-03 0.  1.
         11   -1    0    0    0    0 -0.00000000000E+00 -0.00000000000E+00 -0.45593999997E+02  0.45594000000E+02  0.51100000000E-03 0. -1.
    9900012    2    1    2    0    0  0.27441640898E+02 -0.52090427348E+01 -0.15379963548E+02  0.59301936271E+02  0.49999985853E+02 0.  0.
        -12    1    1    2    0    0 -0.27441640898E+02  0.52090427348E+01  0.15379963548E+02  0.31886063729E+02  0.00000000000E+00 0.  1.
         11    1    3    3    0    0  0.29018485250E+02 -0.58551509401E+01  0.28855747599E+01  0.29743601341E+02  0.51100000000E-03 0. -1.
        -11    1    3    3    0    0  0.81376696091E+01 -0.57405497727E+01 -0.30613222476E+01  0.10418602235E+02  0.51100000000E-03 0.  1.
        -12    1    3    3    0    0 -0.97145139615E+01  0.63866579780E+01 -0.15204216061E+02  0.19139732695E+02  0.00000000000E+00 0.  1.
</event>
<event>
 7    1  0.3528441E-013  0.5930192E+02  0.7816164E-02  0.1266605E+00
        -11   -1    0    0    0    0  0.00000000000E+00  0.00000000000E+00  0.45593999997E+02  0.45594000000E+02  0.51100000000E-03 0. -1.
         11   -1    0    0    0    0 -0.00000000000E+00 -0.00000000000E+00 -0.45593999997E+02  0.45594000000E+02  0.51100000000E-03 0.  1.
    9900012    2    1    2    0    0 -0.30982077080E+02  0.47739622253E+01 -0.58345641782E+01  0.59301922244E+02  0.49999960272E+02 0.  0.
        -12    1    1    2    0    0  0.30982077080E+02 -0.47739622253E+01  0.58345641782E+01  0.31886077756E+02  0.00000000000E+00 0.  1.
         11    1    3    3    0    0 -0.25100099351E+01 -0.81498614992E+01 -0.93515603575E+01  0.12655910624E+02  0.51100000000E-03 0. -1.
        -11    1    3    3    0    0  0.79138771310E+01  0.39926212451E+01 -0.94940186881E+00  0.89146979658E+01  0.51100000000E-03 0.  1.
        -12    1    3    3    0    0 -0.36385944276E+02  0.89312024795E+01  0.44663980482E+01  0.37731313655E+02  0.00000000000E+00 0.  1.
</event>
<event>
 7    1  0.3528441E-013  0.5930191E+02  0.7816164E-02  0.1266605E+00
        -11   -1    0    0    0    0  0.00000000000E+00  0.00000000000E+00  0.45593999997E+02  0.45594000000E+02  0.51100000000E-03 0. -1.
         11   -1    0    0    0    0 -0.00000000000E+00 -0.00000000000E+00 -0.45593999997E+02  0.45594000000E+02  0.51100000000E-03 0.  1.
    9900012    2    1    2    0    0 -0.82414789230E+01  0.27369751691E+02 -0.14131434268E+02  0.59301910291E+02  0.49999938472E+02 0.  0.
        -12    1    1    2    0    0  0.82414789230E+01 -0.27369751691E+02  0.14131434268E+02  0.31886089709E+02  0.00000000000E+00 0.  1.
         11    1    3    3    0    0  0.13973443328E+01  0.20275372653E+02 -0.15957449935E+02  0.25839572677E+02  0.51100000000E-03 0. -1.
        -11    1    3    3    0    0 -0.10902474529E+01  0.79600497979E+01 -0.13605106106E+02  0.15800314703E+02  0.51100000000E-03 0.  1.
        -12    1    3    3    0    0 -0.85485758029E+01 -0.86567076037E+00  0.15431121773E+02  0.17662022911E+02  0.00000000000E+00 0.  1.
</event>
<event>
 7    1  0.3528441E-013  0.5930191E+02  0.7816164E-02  0.1266605E+00
        -11   -1    0    0    0    0  0.00000000000E+00  0.00000000000E+00  0.45593999997E+02  0.45594000000E+02  0.51100000000E-03 0.  1.
         11   -1    0    0    0    0 -0.00000000000E+00 -0.00000000000E+00 -0.45593999997E+02  0.45594000000E+02  0.51100000000E-03 0. -1.
    9900012    2    1    2    0    0 -0.22703231208E+01  0.74474600660E+01 -0.30920924165E+02  0.59301912443E+02  0.49999942397E+02 0.  0.
        -12    1    1    2    0    0  0.22703231208E+01 -0.74474600660E+01  0.30920924165E+02  0.31886087557E+02  0.00000000000E+00 0.  1.
         11    1    3    3    0    0 -0.95367102402E+01  0.12425345885E+02 -0.78874663202E+00  0.15683117805E+02  0.51100000000E-03 0. -1.
        -11    1    3    3    0    0 -0.52857705182E+01  0.18295291222E+01 -0.28731602411E+02  0.29271001420E+02  0.51100000000E-03 0.  1.
        -12    1    3    3    0    0  0.12552157638E+02 -0.68074149417E+01 -0.14005751219E+01  0.14347793218E+02  0.00000000000E+00 0.  1.
</event>
<event>
 7    1  0.3528441E-013  0.5930187E+02  0.7816164E-02  0.1266605E+00
        -11   -1    0    0    0    0  0.00000000000E+00  0.00000000000E+00  0.45593999997E+02  0.45594000000E+02  0.51100000000E-03 0. -1.
         11   -1    0    0    0    0 -0.00000000000E+00 -0.00000000000E+00 -0.45593999997E+02  0.45594000000E+02  0.51100000000E-03 0.  1.
    9900012    2    1    2    0    0  0.29609733078E+02  0.11169269702E+02  0.39033504765E+01  0.59301874121E+02  0.49999872507E+02 0.  0.
        -12    1    1    2    0    0 -0.29609733078E+02 -0.11169269702E+02 -0.39033504765E+01  0.31886125879E+02  0.00000000000E+00 0.  1.
         11    1    3    3    0    0  0.97014706447E+01  0.26726174955E+01 -0.12041194150E+02  0.15692411343E+02  0.51100000000E-03 0. -1.
        -11    1    3    3    0    0  0.12181266165E+02  0.27814687933E+01 -0.99604567671E+01  0.15979064844E+02  0.51100000000E-03 0.  1.
        -12    1    3    3    0    0  0.77269962679E+01  0.57151834130E+01  0.25905001394E+02  0.27630397934E+02  0.00000000000E+00 0.  1.
</event>
<event>
 7    1  0.3528441E-013  0.5930193E+02  0.7816164E-02  0.1266605E+00
        -11   -1    0    0    0    0  0.00000000000E+00  0.00000000000E+00  0.45593999997E+02  0.45594000000E+02  0.51100000000E-03 0.  1.
         11   -1    0    0    0    0 -0.00000000000E+00 -0.00000000000E+00 -0.45593999997E+02  0.45594000000E+02  0.51100000000E-03 0. -1.
    9900012    2    1    2    0    0  0.21954955122E+02  0.15763471031E+02 -0.16917865534E+02  0.59301933332E+02  0.49999980493E+02 0.  0.
        -12    1    1    2    0    0 -0.21954955122E+02 -0.15763471031E+02  0.16917865534E+02  0.31886066668E+02  0.00000000000E+00 0.  1.
         11    1    3    3    0    0  0.44641127407E+01  0.16374544951E+02 -0.30090008059E+01  0.17236824273E+02  0.51100000000E-03 0. -1.
        -11    1    3    3    0    0 -0.79144095289E+01  0.53370288700E+01  0.40712513452E+01  0.10377708954E+02  0.51100000000E-03 0.  1.
        -12    1    3    3    0    0  0.25405251910E+02 -0.59481027895E+01 -0.17980116074E+02  0.31687400105E+02  0.00000000000E+00 0.  1.
</event>
<event>
 7    1  0.3528441E-013  0.5930193E+02  0.7816164E-02  0.1266605E+00
        -11   -1    0    0    0    0  0.00000000000E+00  0.00000000000E+00  0.45593999997E+02  0.45594000000E+02  0.51100000000E-03 0. -1.
         11   -1    0    0    0    0 -0.00000000000E+00 -0.00000000000E+00 -0.45593999997E+02  0.45594000000E+02  0.51100000000E-03 0.  1.
    9900012    2    1    2    0    0 -0.30274380258E+02 -0.53729041423E+01  0.84448373057E+01  0.59301929749E+02  0.49999973960E+02 0.  0.
        -12    1    1    2    0    0  0.30274380258E+02  0.53729041423E+01 -0.84448373057E+01  0.31886070251E+02  0.00000000000E+00 0.  1.
         11    1    3    3    0    0 -0.50978357787E+01  0.16707715549E+01 -0.87332655109E+01  0.10249357734E+02  0.51100000000E-03 0. -1.
        -11    1    3    3    0    0  0.98169307181E+01 -0.39100354188E+01  0.61626721346E+01  0.12232703454E+02  0.51100000000E-03 0.  1.
         12    1    3    3    0    0 -0.34993475197E+02 -0.31336402784E+01  0.11015430682E+02  0.36819868561E+02  0.00000000000E+00 0. -1.
</event>
<event>
 7    1  0.3528441E-013  0.5930195E+02  0.7816164E-02  0.1266605E+00
        -11   -1    0    0    0    0  0.00000000000E+00  0.00000000000E+00  0.45593999997E+02  0.45594000000E+02  0.51100000000E-03 0. -1.
         11   -1    0    0    0    0 -0.00000000000E+00 -0.00000000000E+00 -0.45593999997E+02  0.45594000000E+02  0.51100000000E-03 0.  1.
    9900012    2    1    2    0    0 -0.42358002476E+01  0.13850520713E+02  0.28406708113E+02  0.59301952995E+02  0.50000016355E+02 0.  0.
        -12    1    1    2    0    0  0.42358002476E+01 -0.13850520713E+02 -0.28406708113E+02  0.31886047005E+02  0.00000000000E+00 0.  1.
         11    1    3    3    0    0 -0.14707890405E+02  0.64638680301E+01  0.40606149809E+01  0.16570824493E+02  0.51100000000E-03 0. -1.
        -11    1    3    3    0    0  0.24924197672E+01  0.10240319064E+02 -0.53712376044E+01  0.11829052561E+02  0.51100000000E-03 0.  1.
         12    1    3    3    0    0  0.79796703905E+01 -0.28536663815E+01  0.29717330737E+02  0.30902075941E+02  0.00000000000E+00 0. -1.
</event>
<event>
 7    1  0.3528441E-013  0.5930194E+02  0.7816164E-02  0.1266605E+00
        -11   -1    0    0    0    0  0.00000000000E+00  0.00000000000E+00  0.45593999997E+02  0.45594000000E+02  0.51100000000E-03 0.  1.
         11   -1    0    0    0    0 -0.00000000000E+00 -0.00000000000E+00 -0.45593999997E+02  0.45594000000E+02  0.51100000000E-03 0. -1.
    9900012    2    1    2    0    0 -0.38027947343E+01 -0.50177546567E+01 -0.31258308731E+02  0.59301937617E+02  0.49999988309E+02 0.  0.
        -12    1    1    2    0    0  0.38027947343E+01  0.50177546567E+01  0.31258308731E+02  0.31886062383E+02  0.00000000000E+00 0.  1.
         11    1    3    3    0    0 -0.90284385850E+01  0.48932288668E+01 -0.58251544214E+01  0.11806304092E+02  0.51100000000E-03 0. -1.
        -11    1    3    3    0    0  0.14575291671E+02 -0.31312632997E+01  0.43682480342E+01  0.15534655719E+02  0.51100000000E-03 0.  1.
         12    1    3    3    0    0 -0.93496478206E+01 -0.67797202238E+01 -0.29801402343E+02  0.31960977806E+02  0.00000000000E+00 0. -1.
</event>
<event>
 7    1  0.3528441E-013  0.5930197E+02  0.7816164E-02  0.1266605E+00
        -11   -1    0    0    0    0  0.00000000000E+00  0.00000000000E+00  0.45593999997E+02  0.45594000000E+02  0.51100000000E-03 0.  1.
         11   -1    0    0    0    0 -0.00000000000E+00 -0.00000000000E+00 -0.45593999997E+02  0.45594000000E+02  0.51100000000E-03 0. -1.
    9900012    2    1    2    0    0 -0.12634458231E+02  0.24463271927E+02 -0.16082224025E+02  0.59301966416E+02  0.50000040831E+02 0.  0.
        -12    1    1    2    0    0  0.12634458231E+02 -0.24463271927E+02  0.16082224025E+02  0.31886033584E+02  0.00000000000E+00 0.  1.
         11    1    3    3    0    0  0.10996754246E+02  0.14737189011E+02 -0.54012522638E+01  0.19164729849E+02  0.51100000000E-03 0. -1.
        -11    1    3    3    0    0 -0.14962174860E+01  0.50223071509E+01 -0.16046533711E+02  0.16880565165E+02  0.51100000000E-03 0.  1.
        -12    1    3    3    0    0 -0.22134994991E+02  0.47037757644E+01  0.53655619500E+01  0.23256671402E+02  0.00000000000E+00 0.  1.
</event>
<event>
 7    1  0.3528441E-013  0.5930189E+02  0.7816164E-02  0.1266605E+00
        -11   -1    0    0    0    0  0.00000000000E+00  0.00000000000E+00  0.45593999997E+02  0.45594000000E+02  0.51100000000E-03 0. -1.
         11   -1    0    0    0    0 -0.00000000000E+00 -0.00000000000E+00 -0.45593999997E+02  0.45594000000E+02  0.51100000000E-03 0.  1.
    9900012    2    1    2    0    0 -0.21317827364E+02  0.10817118979E+02  0.21101278373E+02  0.59301893691E+02  0.49999908199E+02 0.  0.
        -12    1    1    2    0    0  0.21317827364E+02 -0.10817118979E+02 -0.21101278373E+02  0.31886106309E+02  0.00000000000E+00 0.  1.
         11    1    3    3    0    0 -0.19276653369E+02  0.10393357710E+02 -0.22501411959E+01  0.22015321603E+02  0.51100000000E-03 0. -1.
        -11    1    3    3    0    0 -0.22902632340E+00  0.13435235444E+02  0.19341703880E+02  0.23551210452E+02  0.51100000000E-03 0.  1.
        -12    1    3    3    0    0 -0.18121476717E+01 -0.13011474175E+02  0.40097156888E+01  0.13735361637E+02  0.00000000000E+00 0.  1.
</event>
<event>
 7    1  0.3528441E-013  0.5930204E+02  0.7816164E-02  0.1266604E+00
        -11   -1    0    0    0    0  0.00000000000E+00  0.00000000000E+00  0.45593999997E+02  0.45594000000E+02  0.51100000000E-03 0.  1.
         11   -1    0    0    0    0 -0.00000000000E+00 -0.00000000000E+00 -0.45593999997E+02  0.45594000000E+02  0.51100000000E-03 0. -1.
    9900012    2    1    2    0    0 -0.23220346351E+02  0.20094503625E+02 -0.85872510483E+01  0.59302040062E+02  0.50000175144E+02 0.  0.
        -12    1    1    2    0    0  0.23220346351E+02 -0.20094503625E+02  0.85872510483E+01  0.31885959938E+02  0.00000000000E+00 0.  1.
         11    1    3    3    0    0 -0.16361092035E+02  0.30726857035E+02  0.73794095688E+01  0.35584838930E+02  0.51100000000E-03 0. -1.
        -11    1    3    3    0    0  0.28615190227E+01 -0.27929830332E+01 -0.81212483914E+00  0.40802686623E+01  0.51100000000E-03 0.  1.
        -12    1    3    3    0    0 -0.97207733386E+01 -0.78393703765E+01 -0.15154535778E+02  0.19636932470E+02  0.00000000000E+00 0.  1.
</event>
<event>
 7    1  0.3528441E-013  0.5930195E+02  0.7816164E-02  0.1266605E+00
        -11   -1    0    0    0    0  0.00000000000E+00  0.00000000000E+00  0.45593999997E+02  0.45594000000E+02  0.51100000000E-03 0.  1.
         11   -1    0    0    0    0 -0.00000000000E+00 -0.00000000000E+00 -0.45593999997E+02  0.45594000000E+02  0.51100000000E-03 0. -1.
    9900012    2    1    2    0    0  0.31575779176E+01  0.14156001232E+01 -0.31697723554E+02  0.59301954455E+02  0.50000019017E+02 0.  0.
        -12    1    1    2    0    0 -0.31575779176E+01 -0.14156001232E+01  0.31697723554E+02  0.31886045545E+02  0.00000000000E+00 0.  1.
         11    1    3    3    0    0  0.16883850176E+02 -0.74677190659E+01 -0.22288062167E+02  0.28941128869E+02  0.51100000000E-03 0. -1.
        -11    1    3    3    0    0  0.65971830081E+01  0.10766909041E+01 -0.44547833985E+01  0.80328813221E+01  0.51100000000E-03 0.  1.
        -12    1    3    3    0    0 -0.20323455267E+02  0.78066282851E+01 -0.49548779883E+01  0.22327944264E+02  0.00000000000E+00 0.  1.
</event>
<event>
 7    1  0.3528441E-013  0.5930195E+02  0.7816164E-02  0.1266605E+00
        -11   -1    0    0    0    0  0.00000000000E+00  0.00000000000E+00  0.45593999997E+02  0.45594000000E+02  0.51100000000E-03 0. -1.
         11   -1    0    0    0    0 -0.00000000000E+00 -0.00000000000E+00 -0.45593999997E+02  0.45594000000E+02  0.51100000000E-03 0.  1.
    9900012    2    1    2    0    0 -0.23006076943E+02 -0.14497413310E+02  0.16651292237E+02  0.59301951293E+02  0.50000013251E+02 0.  0.
        -12    1    1    2    0    0  0.23006076943E+02  0.14497413310E+02 -0.16651292237E+02  0.31886048707E+02  0.00000000000E+00 0.  1.
         11    1    3    3    0    0 -0.20369301533E+01 -0.92410074909E+01  0.50784320367E+01  0.10739449525E+02  0.51100000000E-03 0. -1.
        -11    1    3    3    0    0 -0.42312542030E+01 -0.21416049607E+02 -0.14893974336E+01  0.21880790614E+02  0.51100000000E-03 0.  1.
         12    1    3    3    0    0 -0.16737892587E+02  0.16159643789E+02  0.13062257633E+02  0.26681711154E+02  0.00000000000E+00 0. -1.
</event>
<event>
 7    1  0.3528441E-013  0.5930184E+02  0.7816164E-02  0.1266605E+00
        -11   -1    0    0    0    0  0.00000000000E+00  0.00000000000E+00  0.45593999997E+02  0.45594000000E+02  0.51100000000E-03 0.  1.
         11   -1    0    0    0    0 -0.00000000000E+00 -0.00000000000E+00 -0.45593999997E+02  0.45594000000E+02  0.51100000000E-03 0. -1.
    9900012    2    1    2    0    0 -0.28151038353E+02  0.63803966388E+01  0.13547575720E+02  0.59301839531E+02  0.49999809422E+02 0.  0.
        -12    1    1    2    0    0  0.28151038353E+02 -0.63803966388E+01 -0.13547575720E+02  0.31886160469E+02  0.00000000000E+00 0.  1.
         11    1    3    3    0    0  0.59309788963E+01  0.94327623351E+01 -0.44784053201E+01  0.12008731424E+02  0.51100000000E-03 0. -1.
        -11    1    3    3    0    0 -0.27304588696E+01  0.79736913250E+01 -0.17672296207E+01  0.86115190169E+01  0.51100000000E-03 0.  1.
        -12    1    3    3    0    0 -0.31351558379E+02 -0.11026057021E+02  0.19793210661E+02  0.38681589090E+02  0.00000000000E+00 0.  1.
</event>
<event>
 7    1  0.3528441E-013  0.5930193E+02  0.7816164E-02  0.1266605E+00
        -11   -1    0    0    0    0  0.00000000000E+00  0.00000000000E+00  0.45593999997E+02  0.45594000000E+02  0.51100000000E-03 0.  1.
         11   -1    0    0    0    0 -0.00000000000E+00 -0.00000000000E+00 -0.45593999997E+02  0.45594000000E+02  0.51100000000E-03 0. -1.
    9900012    2    1    2    0    0  0.23456492325E+02 -0.20653879862E+02 -0.63191720125E+01  0.59301925916E+02  0.49999966969E+02 0.  0.
        -12    1    1    2    0    0 -0.23456492325E+02  0.20653879862E+02  0.63191720125E+01  0.31886074084E+02  0.00000000000E+00 0.  1.
         11    1    3    3    0    0  0.67088916123E+01  0.40685826508E+01 -0.23320410100E+01  0.81854142830E+01  0.51100000000E-03 0. -1.
        -11    1    3    3    0    0  0.42983637176E+01  0.11074377669E+02  0.37055967550E+01  0.12443842613E+02  0.51100000000E-03 0.  1.
         12    1    3    3    0    0  0.12449236995E+02 -0.35796840182E+02 -0.76927277575E+01  0.38672669020E+02  0.00000000000E+00 0. -1.
</event>
<event>
 7    1  0.3528441E-013  0.5930192E+02  0.7816164E-02  0.1266605E+00
        -11   -1    0    0    0    0  0.00000000000E+00  0.00000000000E+00  0.45593999997E+02  0.45594000000E+02  0.51100000000E-03 0. -1.
         11   -1    0    0    0    0 -0.00000000000E+00 -0.00000000000E+00 -0.45593999997E+02  0.45594000000E+02  0.51100000000E-03 0.  1.
    9900012    2    1    2    0    0 -0.39416658034E+01 -0.26846048501E+02  0.16747397207E+02  0.59301915847E+02  0.49999948604E+02 0.  0.
        -12    1    1    2    0    0  0.39416658034E+01  0.26846048501E+02 -0.16747397207E+02  0.31886084153E+02  0.00000000000E+00 0.  1.
         11    1    3    3    0    0 -0.79183405334E+01 -0.10642146294E+02  0.14204711794E+02  0.19435257445E+02  0.51100000000E-03 0. -1.
        -11    1    3    3    0    0  0.12834188044E+02 -0.14975530605E+02  0.14825548843E+02  0.24673463446E+02  0.51100000000E-03 0.  1.
        -12    1    3    3    0    0 -0.88575133142E+01 -0.12283716012E+01 -0.12282863430E+02  0.15193194955E+02  0.00000000000E+00 0.  1.
</event>
<event>
 7    1  0.3528441E-013  0.5930193E+02  0.7816164E-02  0.1266605E+00
        -11   -1    0    0    0    0  0.00000000000E+00  0.00000000000E+00  0.45593999997E+02  0.45594000000E+02  0.51100000000E-03 0.  1.
         11   -1    0    0    0    0 -0.00000000000E+00 -0.00000000000E+00 -0.45593999997E+02  0.45594000000E+02  0.51100000000E-03 0. -1.
    9900012    2    1    2    0    0  0.63998649149E+01  0.19286757197E+02 -0.24572015582E+02  0.59301933704E+02  0.49999981172E+02 0.  0.
        -12    1    1    2    0    0 -0.63998649149E+01 -0.19286757197E+02  0.24572015582E+02  0.31886066296E+02  0.00000000000E+00 0.  1.
         11    1    3    3    0    0  0.23649595793E+01 -0.51755114029E+01  0.72422248419E+00  0.57361529409E+01  0.51100000000E-03 0.  1.
        -11    1    3    3    0    0  0.41068624347E+00 -0.10953572682E+02 -0.99298282140E+01  0.14790230097E+02  0.51100000000E-03 0. -1.
         12    1    3    3    0    0  0.36242190922E+01  0.35415841282E+02 -0.15366409852E+02  0.38775550666E+02  0.00000000000E+00 0. -1.
</event>
<event>
 7    1  0.3528441E-013  0.5930195E+02  0.7816164E-02  0.1266605E+00
        -11   -1    0    0    0    0  0.00000000000E+00  0.00000000000E+00  0.45593999997E+02  0.45594000000E+02  0.51100000000E-03 0.  1.
         11   -1    0    0    0    0 -0.00000000000E+00 -0.00000000000E+00 -0.45593999997E+02  0.45594000000E+02  0.51100000000E-03 0. -1.
    9900012    2    1    2    0    0 -0.66648816697E+00  0.24670319262E+02 -0.20190384713E+02  0.59301945152E+02  0.50000002050E+02 0.  0.
        -12    1    1    2    0    0  0.66648816697E+00 -0.24670319262E+02  0.20190384713E+02  0.31886054848E+02  0.00000000000E+00 0.  1.
         11    1    3    3    0    0  0.12340042261E+02  0.22310009783E+02 -0.25992522796E+02  0.36409125520E+02  0.51100000000E-03 0. -1.
        -11    1    3    3    0    0 -0.10307211519E+02  0.85008161894E+01 -0.92569150471E+00  0.13392512468E+02  0.51100000000E-03 0.  1.
        -12    1    3    3    0    0 -0.26993189088E+01 -0.61405067107E+01  0.67278295883E+01  0.95003071637E+01  0.00000000000E+00 0.  1.
</event>
<event>
 7    1  0.3528441E-013  0.5930195E+02  0.7816164E-02  0.1266605E+00
        -11   -1    0    0    0    0  0.00000000000E+00  0.00000000000E+00  0.45593999997E+02  0.45594000000E+02  0.51100000000E-03 0. -1.
         11   -1    0    0    0    0 -0.00000000000E+00 -0.00000000000E+00 -0.45593999997E+02  0.45594000000E+02  0.51100000000E-03 0.  1.
    9900012    2    1    2    0    0 -0.18783076463E+02 -0.19111389562E+02  0.17282103679E+02  0.59301948505E+02  0.50000008165E+02 0.  0.
        -12    1    1    2    0    0  0.18783076463E+02  0.19111389562E+02 -0.17282103679E+02  0.31886051495E+02  0.00000000000E+00 0.  1.
         11    1    3    3    0    0 -0.18459293735E+02 -0.13964642591E+02  0.12885799434E+02  0.26491519307E+02  0.51100000000E-03 0. -1.
        -11    1    3    3    0    0 -0.13483677880E+02 -0.10726026519E+02  0.63940867138E+01  0.18377746305E+02  0.51100000000E-03 0.  1.
        -12    1    3    3    0    0  0.13159895152E+02  0.55792795482E+01 -0.19977824687E+01  0.14432682893E+02  0.00000000000E+00 0.  1.
</event>
<event>
 7    1  0.3528441E-013  0.5930193E+02  0.7816164E-02  0.1266605E+00
        -11   -1    0    0    0    0  0.00000000000E+00  0.00000000000E+00  0.45593999997E+02  0.45594000000E+02  0.51100000000E-03 0.  1.
         11   -1    0    0    0    0 -0.00000000000E+00 -0.00000000000E+00 -0.45593999997E+02  0.45594000000E+02  0.51100000000E-03 0. -1.
    9900012    2    1    2    0    0  0.17622575581E+02  0.20297918149E+02 -0.17151115605E+02  0.59301930662E+02  0.49999975625E+02 0.  0.
        -12    1    1    2    0    0 -0.17622575581E+02 -0.20297918149E+02  0.17151115605E+02  0.31886069338E+02  0.00000000000E+00 0.  1.
         11    1    3    3    0    0  0.85845979740E+01 -0.31742399260E+01  0.39375602209E+01  0.99637092610E+01  0.51100000000E-03 0. -1.
        -11    1    3    3    0    0 -0.24223973231E+01 -0.45421552591E+01 -0.18221736143E+02  0.18934910919E+02  0.51100000000E-03 0.  1.
         12    1    3    3    0    0  0.11460374931E+02  0.28014313334E+02 -0.28669396826E+01  0.30403310482E+02  0.00000000000E+00 0. -1.
</event>
<event>
 7    1  0.3528441E-013  0.5930194E+02  0.7816164E-02  0.1266605E+00
        -11   -1    0    0    0    0  0.00000000000E+00  0.00000000000E+00  0.45593999997E+02  0.45594000000E+02  0.51100000000E-03 0.  1.
         11   -1    0    0    0    0 -0.00000000000E+00 -0.00000000000E+00 -0.45593999997E+02  0.45594000000E+02  0.51100000000E-03 0. -1.
    9900012    2    1    2    0    0  0.10643989066E+02  0.15853790677E+02 -0.25535934126E+02  0.59301935430E+02  0.49999984321E+02 0.  0.
        -12    1    1    2    0    0 -0.10643989066E+02 -0.15853790677E+02  0.25535934126E+02  0.31886064570E+02  0.00000000000E+00 0.  1.
         11    1    3    3    0    0 -0.50445723373E+00  0.15849791813E+02 -0.21586246043E+02  0.26785003194E+02  0.51100000000E-03 0. -1.
        -11    1    3    3    0    0  0.61847424815E+01 -0.14731980895E+01 -0.17174894935E+02  0.18313884581E+02  0.51100000000E-03 0.  1.
         12    1    3    3    0    0  0.49637038179E+01  0.14771969537E+01  0.13225206852E+02  0.14203047655E+02  0.00000000000E+00 0. -1.
</event>
<event>
 7    1  0.3528441E-013  0.5930194E+02  0.7816164E-02  0.1266605E+00
        -11   -1    0    0    0    0  0.00000000000E+00  0.00000000000E+00  0.45593999997E+02  0.45594000000E+02  0.51100000000E-03 0.  1.
         11   -1    0    0    0    0 -0.00000000000E+00 -0.00000000000E+00 -0.45593999997E+02  0.45594000000E+02  0.51100000000E-03 0. -1.
    9900012    2    1    2    0    0 -0.18278303227E+02 -0.18493967261E+02 -0.18455283287E+02  0.59301942308E+02  0.49999996865E+02 0.  0.
        -12    1    1    2    0    0  0.18278303227E+02  0.18493967261E+02  0.18455283287E+02  0.31886057692E+02  0.00000000000E+00 0.  1.
         11    1    3    3    0    0 -0.32369659610E+02 -0.14367786443E+02 -0.14841549910E+02  0.38399215546E+02  0.51100000000E-03 0. -1.
        -11    1    3    3    0    0  0.18945303222E+01 -0.55592414577E+01 -0.59958193979E+01  0.83931079607E+01  0.51100000000E-03 0.  1.
        -12    1    3    3    0    0  0.12196826061E+02  0.14330606404E+01  0.23820860210E+01  0.12509618802E+02  0.00000000000E+00 0.  1.
</event>
<event>
 7    1  0.3528441E-013  0.5930196E+02  0.7816164E-02  0.1266605E+00
        -11   -1    0    0    0    0  0.00000000000E+00  0.00000000000E+00  0.45593999997E+02  0.45594000000E+02  0.51100000000E-03 0.  1.
         11   -1    0    0    0    0 -0.00000000000E+00 -0.00000000000E+00 -0.45593999997E+02  0.45594000000E+02  0.51100000000E-03 0. -1.
    9900012    2    1    2    0    0 -0.39132551708E+01 -0.16917522929E+02 -0.26743288303E+02  0.59301958895E+02  0.50000027114E+02 0.  0.
        -12    1    1    2    0    0  0.39132551708E+01  0.16917522929E+02  0.26743288303E+02  0.31886041105E+02  0.00000000000E+00 0.  1.
         11    1    3    3    0    0 -0.33215548096E+01  0.28379729915E+01 -0.10833140758E+02  0.11680914177E+02  0.51100000000E-03 0. -1.
        -11    1    3    3    0    0 -0.10688821409E+02 -0.15772618800E+02 -0.26379300011E+02  0.32540649598E+02  0.51100000000E-03 0.  1.
        -12    1    3    3    0    0  0.10097121048E+02 -0.39828771208E+01  0.10469152466E+02  0.15080395120E+02  0.00000000000E+00 0.  1.
</event>
<event>
 7    1  0.3528441E-013  0.5930193E+02  0.7816164E-02  0.1266605E+00
        -11   -1    0    0    0    0  0.00000000000E+00  0.00000000000E+00  0.45593999997E+02  0.45594000000E+02  0.51100000000E-03 0. -1.
         11   -1    0    0    0    0 -0.00000000000E+00 -0.00000000000E+00 -0.45593999997E+02  0.45594000000E+02  0.51100000000E-03 0.  1.
    9900012    2    1    2    0    0 -0.19539999740E+02  0.25151674227E+02 -0.15175293783E+01  0.59301934051E+02  0.49999981805E+02 0.  0.
        -12    1    1    2    0    0  0.19539999740E+02 -0.25151674227E+02  0.15175293783E+01  0.31886065949E+02  0.00000000000E+00 0.  1.
         11    1    3    3    0    0  0.10415094666E+02 -0.19675033713E+01 -0.52631460578E+01  0.11834102125E+02  0.51100000000E-03 0. -1.
        -11    1    3    3    0    0 -0.16366584965E+02  0.84046659197E+01 -0.96141244650E+01  0.20758971605E+02  0.51100000000E-03 0.  1.
         12    1    3    3    0    0 -0.13588509441E+02  0.18714511679E+02  0.13359741145E+02  0.26708860321E+02  0.00000000000E+00 0. -1.
</event>
<event>
 7    1  0.3528441E-013  0.5930194E+02  0.7816164E-02  0.1266605E+00
        -11   -1    0    0    0    0  0.00000000000E+00  0.00000000000E+00  0.45593999997E+02  0.45594000000E+02  0.51100000000E-03 0. -1.
         11   -1    0    0    0    0 -0.00000000000E+00 -0.00000000000E+00 -0.45593999997E+02  0.45594000000E+02  0.51100000000E-03 0.  1.
    9900012    2    1    2    0    0  0.31195416936E+02 -0.53802119924E+01 -0.38235932250E+01  0.59301943737E+02  0.49999999470E+02 0.  0.
        -12    1    1    2    0    0 -0.31195416936E+02  0.53802119924E+01  0.38235932250E+01  0.31886056263E+02  0.00000000000E+00 0.  1.
         11    1    3    3    0    0  0.22657345571E+02 -0.99297210170E+01  0.24761414680E+01  0.24861334329E+02  0.51100000000E-03 0. -1.
        -11    1    3    3    0    0  0.13831170521E+01 -0.13636746872E+02 -0.58212590485E+01  0.14891639775E+02  0.51100000000E-03 0.  1.
        -12    1    3    3    0    0  0.71549543125E+01  0.18186255896E+02 -0.47847564453E+00  0.19548969632E+02  0.00000000000E+00 0.  1.
</event>
<event>
 7    1  0.3528441E-013  0.5930195E+02  0.7816164E-02  0.1266605E+00
        -11   -1    0    0    0    0  0.00000000000E+00  0.00000000000E+00  0.45593999997E+02  0.45594000000E+02  0.51100000000E-03 0.  1.
         11   -1    0    0    0    0 -0.00000000000E+00 -0.00000000000E+00 -0.45593999997E+02  0.45594000000E+02  0.51100000000E-03 0. -1.
    9900012    2    1    2    0    0 -0.13779841345E+02 -0.16330535100E+02 -0.23667482920E+02  0.59301950513E+02  0.50000011827E+02 0.  0.
        -12    1    1    2    0    0  0.13779841345E+02  0.16330535100E+02  0.23667482920E+02  0.31886049487E+02  0.00000000000E+00 0.  1.
         11    1    3    3    0    0 -0.10507545902E+01 -0.15978495810E+02 -0.10832819388E+02  0.19333038812E+02  0.51100000000E-03 0. -1.
        -11    1    3    3    0    0 -0.94757512720E+01  0.15452651651E+01 -0.25240068201E+02  0.27004420928E+02  0.51100000000E-03 0.  1.
         12    1    3    3    0    0 -0.32533354830E+01 -0.18973044558E+01  0.12405404670E+02  0.12964490772E+02  0.00000000000E+00 0. -1.
</event>
<event>
 7    1  0.3528441E-013  0.5930193E+02  0.7816164E-02  0.1266605E+00
        -11   -1    0    0    0    0  0.00000000000E+00  0.00000000000E+00  0.45593999997E+02  0.45594000000E+02  0.51100000000E-03 0.  1.
         11   -1    0    0    0    0 -0.00000000000E+00 -0.00000000000E+00 -0.45593999997E+02  0.45594000000E+02  0.51100000000E-03 0. -1.
    9900012    2    1    2    0    0 -0.30178509152E+02  0.96724396695E+01 -0.35246125731E+01  0.59301930979E+02  0.49999976202E+02 0.  0.
        -12    1    1    2    0    0  0.30178509152E+02 -0.96724396695E+01  0.35246125731E+01  0.31886069021E+02  0.00000000000E+00 0.  1.
         11    1    3    3    0    0 -0.93310251468E+00  0.25074937231E+01  0.70171356223E+01  0.75098866621E+01  0.51100000000E-03 0. -1.
        -11    1    3    3    0    0 -0.58877048534E+01  0.33192438585E+01  0.15312360305E+02  0.16737706731E+02  0.51100000000E-03 0.  1.
         12    1    3    3    0    0 -0.23357701784E+02  0.38457020879E+01 -0.25854108501E+02  0.35054337586E+02  0.00000000000E+00 0. -1.
</event>
<event>
 7    1  0.3528441E-013  0.5930188E+02  0.7816164E-02  0.1266605E+00
        -11   -1    0    0    0    0  0.00000000000E+00  0.00000000000E+00  0.45593999997E+02  0.45594000000E+02  0.51100000000E-03 0.  1.
         11   -1    0    0    0    0 -0.00000000000E+00 -0.00000000000E+00 -0.45593999997E+02  0.45594000000E+02  0.51100000000E-03 0. -1.
    9900012    2    1    2    0    0  0.24090501634E+01  0.70665121365E+01 -0.30999769864E+02  0.59301876872E+02  0.49999877525E+02 0.  0.
        -12    1    1    2    0    0 -0.24090501634E+01 -0.70665121365E+01  0.30999769864E+02  0.31886123128E+02  0.00000000000E+00 0.  1.
         11    1    3    3    0    0 -0.19264212866E+01  0.44082554894E+01  0.13252397488E+01  0.49899976038E+01  0.51100000000E-03 0. -1.
        -11    1    3    3    0    0  0.19432281991E+01  0.20342646536E+02 -0.39832279359E+01  0.20819834509E+02  0.51100000000E-03 0.  1.
         12    1    3    3    0    0  0.23922432509E+01 -0.17684389889E+02 -0.28341781677E+02  0.33492044759E+02  0.00000000000E+00 0. -1.
</event>
<event>
 7    1  0.3528441E-013  0.5930195E+02  0.7816164E-02  0.1266605E+00
        -11   -1    0    0    0    0  0.00000000000E+00  0.00000000000E+00  0.45593999997E+02  0.45594000000E+02  0.51100000000E-03 0. -1.
         11   -1    0    0    0    0 -0.00000000000E+00 -0.00000000000E+00 -0.45593999997E+02  0.45594000000E+02  0.51100000000E-03 0.  1.
    9900012    2    1    2    0    0  0.17817400969E+02 -0.14998374257E+02  0.21778647185E+02  0.59301945355E+02  0.50000002421E+02 0.  0.
        -12    1    1    2    0    0 -0.17817400969E+02  0.14998374257E+02 -0.21778647185E+02  0.31886054645E+02  0.00000000000E+00 0.  1.
         11    1    3    3    0    0 -0.25359213538E+01  0.57545258259E+01  0.72919267212E+00  0.63306545324E+01  0.51100000000E-03 0. -1.
        -11    1    3    3    0    0  0.63674959291E+01 -0.17765322415E+02 -0.80734464689E+01  0.20526378713E+02  0.51100000000E-03 0.  1.
         12    1    3    3    0    0  0.13985826393E+02 -0.29875776679E+01  0.29122900982E+02  0.32444912110E+02  0.00000000000E+00 0. -1.
</event>
<event>
 7    1  0.3528441E-013  0.5930194E+02  0.7816164E-02  0.1266605E+00
        -11   -1    0    0    0    0  0.00000000000E+00  0.00000000000E+00  0.45593999997E+02  0.45594000000E+02  0.51100000000E-03 0.  1.
         11   -1    0    0    0    0 -0.00000000000E+00 -0.00000000000E+00 -0.45593999997E+02  0.45594000000E+02  0.51100000000E-03 0. -1.
    9900012    2    1    2    0    0  0.13416985938E+01  0.11272870410E+01 -0.31837866572E+02  0.59301942247E+02  0.49999996751E+02 0.  0.
        -12    1    1    2    0    0 -0.13416985938E+01 -0.11272870410E+01  0.31837866572E+02  0.31886057753E+02  0.00000000000E+00 0.  1.
         11    1    3    3    0    0 -0.89777145450E+01  0.78986685930E+00 -0.15095824779E+02  0.17581444028E+02  0.51100000000E-03 0. -1.
        -11    1    3    3    0    0 -0.88783856305E+01  0.12592373026E+02 -0.59407113315E+01  0.16513195972E+02  0.51100000000E-03 0.  1.
        -12    1    3    3    0    0  0.19197798769E+02 -0.12254952844E+02 -0.10801330462E+02  0.25207302246E+02  0.00000000000E+00 0.  1.
</event>
<event>
 7    1  0.3528441E-013  0.5930193E+02  0.7816164E-02  0.1266605E+00
        -11   -1    0    0    0    0  0.00000000000E+00  0.00000000000E+00  0.45593999997E+02  0.45594000000E+02  0.51100000000E-03 0.  1.
         11   -1    0    0    0    0 -0.00000000000E+00 -0.00000000000E+00 -0.45593999997E+02  0.45594000000E+02  0.51100000000E-03 0. -1.
    9900012    2    1    2    0    0 -0.24093924894E+02 -0.19124111780E+02 -0.83947838617E+01  0.59301933070E+02  0.49999980015E+02 0.  0.
        -12    1    1    2    0    0  0.24093924894E+02  0.19124111780E+02  0.83947838617E+01  0.31886066930E+02  0.00000000000E+00 0.  1.
         11    1    3    3    0    0 -0.23314661402E+02 -0.11606679743E+02  0.14324054625E+02  0.29723172645E+02  0.51100000000E-03 0. -1.
        -11    1    3    3    0    0  0.14463603432E+00  0.18595572090E+00  0.28494811773E+01  0.28592030977E+01  0.51100000000E-03 0.  1.
         12    1    3    3    0    0 -0.92389952715E+00 -0.77033877580E+01 -0.25568319664E+02  0.26719557327E+02  0.00000000000E+00 0. -1.
</event>
<event>
 7    1  0.3528441E-013  0.5930194E+02  0.7816164E-02  0.1266605E+00
        -11   -1    0    0    0    0  0.00000000000E+00  0.00000000000E+00  0.45593999997E+02  0.45594000000E+02  0.51100000000E-03 0.  1.
         11   -1    0    0    0    0 -0.00000000000E+00 -0.00000000000E+00 -0.45593999997E+02  0.45594000000E+02  0.51100000000E-03 0. -1.
    9900012    2    1    2    0    0  0.18318938043E+02 -0.29379135884E+01 -0.25932722399E+02  0.59301938495E+02  0.49999989910E+02 0.  0.
        -12    1    1    2    0    0 -0.18318938043E+02  0.29379135884E+01  0.25932722399E+02  0.31886061505E+02  0.00000000000E+00 0.  1.
         11    1    3    3    0    0  0.24975237558E+01  0.56453027320E+00 -0.15645430261E+02  0.15853573971E+02  0.51100000000E-03 0. -1.
        -11    1    3    3    0    0  0.82711589512E+01 -0.10827351548E+02 -0.23131552497E+02  0.26846085993E+02  0.51100000000E-03 0.  1.
        -12    1    3    3    0    0  0.75502553360E+01  0.73249076862E+01  0.12844260360E+02  0.16602278532E+02  0.00000000000E+00 0.  1.
</event>
<event>
 7    1  0.3528441E-013  0.5930195E+02  0.7816164E-02  0.1266605E+00
        -11   -1    0    0    0    0  0.00000000000E+00  0.00000000000E+00  0.45593999997E+02  0.45594000000E+02  0.51100000000E-03 0. -1.
         11   -1    0    0    0    0 -0.00000000000E+00 -0.00000000000E+00 -0.45593999997E+02  0.45594000000E+02  0.51100000000E-03 0.  1.
    9900012    2    1    2    0    0  0.10177944540E+02  0.15886467524E+01  0.30176248781E+02  0.59301947500E+02  0.50000006333E+02 0.  0.
        -12    1    1    2    0    0 -0.10177944540E+02 -0.15886467524E+01 -0.30176248781E+02  0.31886052500E+02  0.00000000000E+00 0.  1.
         11    1    3    3    0    0  0.15764862647E+02  0.25514984003E+01  0.80027504170E+01  0.17862951964E+02  0.51100000000E-03 0. -1.
        -11    1    3    3    0    0 -0.12482522740E+01  0.14816774845E+02  0.13157394693E+01  0.14927361494E+02  0.51100000000E-03 0.  1.
         12    1    3    3    0    0 -0.43386658334E+01 -0.15779626493E+02  0.20857758894E+02  0.26511634042E+02  0.00000000000E+00 0. -1.
</event>
<event>
 7    1  0.3528441E-013  0.5930192E+02  0.7816164E-02  0.1266605E+00
        -11   -1    0    0    0    0  0.00000000000E+00  0.00000000000E+00  0.45593999997E+02  0.45594000000E+02  0.51100000000E-03 0.  1.
         11   -1    0    0    0    0 -0.00000000000E+00 -0.00000000000E+00 -0.45593999997E+02  0.45594000000E+02  0.51100000000E-03 0. -1.
    9900012    2    1    2    0    0  0.24751276133E+02  0.18740722857E+02  0.72719825264E+01  0.59301920071E+02  0.49999956308E+02 0.  0.
        -12    1    1    2    0    0 -0.24751276133E+02 -0.18740722857E+02 -0.72719825264E+01  0.31886079929E+02  0.00000000000E+00 0.  1.
         11    1    3    3    0    0 -0.10499776512E+01 -0.31454305113E+01  0.19228256123E+01  0.38332029383E+01  0.51100000000E-03 0. -1.
        -11    1    3    3    0    0  0.55667565978E+01 -0.13353496314E+02  0.29292445209E+01  0.14760932103E+02  0.51100000000E-03 0.  1.
        -12    1    3    3    0    0  0.20234497186E+02  0.35239649681E+02  0.24199123933E+01  0.40707785030E+02  0.00000000000E+00 0.  1.
</event>
<event>
 7    1  0.3528441E-013  0.5930198E+02  0.7816164E-02  0.1266605E+00
        -11   -1    0    0    0    0  0.00000000000E+00  0.00000000000E+00  0.45593999997E+02  0.45594000000E+02  0.51100000000E-03 0.  1.
         11   -1    0    0    0    0 -0.00000000000E+00 -0.00000000000E+00 -0.45593999997E+02  0.45594000000E+02  0.51100000000E-03 0. -1.
    9900012    2    1    2    0    0 -0.11589771600E+02  0.29090705611E+02 -0.60104949732E+01  0.59301984122E+02  0.50000073123E+02 0.  0.
        -12    1    1    2    0    0  0.11589771600E+02 -0.29090705611E+02  0.60104949732E+01  0.31886015878E+02  0.00000000000E+00 0.  1.
         11    1    3    3    0    0  0.64836259694E+01  0.29530843272E+02 -0.48606967919E+01  0.30622450647E+02  0.51100000000E-03 0. -1.
        -11    1    3    3    0    0  0.26896288208E+01 -0.11178953674E+01 -0.65899514318E+01  0.72049464523E+01  0.51100000000E-03 0.  1.
         12    1    3    3    0    0 -0.20763026391E+02  0.67775770640E+00  0.54401532505E+01  0.21474587023E+02  0.00000000000E+00 0. -1.
</event>
<event>
 7    1  0.3528441E-013  0.5930196E+02  0.7816164E-02  0.1266605E+00
        -11   -1    0    0    0    0  0.00000000000E+00  0.00000000000E+00  0.45593999997E+02  0.45594000000E+02  0.51100000000E-03 0.  1.
         11   -1    0    0    0    0 -0.00000000000E+00 -0.00000000000E+00 -0.45593999997E+02  0.45594000000E+02  0.51100000000E-03 0. -1.
    9900012    2    1    2    0    0  0.14957662083E+02 -0.16500717332E+02 -0.22819166084E+02  0.59301958097E+02  0.50000025659E+02 0.  0.
        -12    1    1    2    0    0 -0.14957662083E+02  0.16500717332E+02  0.22819166084E+02  0.31886041903E+02  0.00000000000E+00 0.  1.
         11    1    3    3    0    0  0.22531806568E+02  0.44142210158E+01 -0.25081311260E+02  0.34003526717E+02  0.51100000000E-03 0. -1.
        -11    1    3    3    0    0 -0.67598255982E+00 -0.17162250057E+02  0.18926523424E+00  0.17176600392E+02  0.51100000000E-03 0.  1.
        -12    1    3    3    0    0 -0.68981619251E+01 -0.37526882903E+01  0.20728799416E+01  0.81218309882E+01  0.00000000000E+00 0.  1.
</event>
<event>
 7    1  0.3528441E-013  0.5930195E+02  0.7816164E-02  0.1266605E+00
        -11   -1    0    0    0    0  0.00000000000E+00  0.00000000000E+00  0.45593999997E+02  0.45594000000E+02  0.51100000000E-03 0.  1.
         11   -1    0    0    0    0 -0.00000000000E+00 -0.00000000000E+00 -0.45593999997E+02  0.45594000000E+02  0.51100000000E-03 0. -1.
    9900012    2    1    2    0    0 -0.19266090552E+02  0.17700491684E+02  0.18227199141E+02  0.59301946003E+02  0.50000003602E+02 0.  0.
        -12    1    1    2    0    0  0.19266090552E+02 -0.17700491684E+02 -0.18227199141E+02  0.31886053997E+02  0.00000000000E+00 0.  1.
         11    1    3    3    0    0  0.10417816182E+02  0.55807596582E+01  0.10421785020E+02  0.15757200755E+02  0.51100000000E-03 0. -1.
        -11    1    3    3    0    0  0.44212852606E+01  0.59869004940E+01 -0.16551181042E+01  0.76243135482E+01  0.51100000000E-03 0.  1.
         12    1    3    3    0    0 -0.34105191994E+02  0.61328315313E+01  0.94605322251E+01  0.35920431700E+02  0.00000000000E+00 0. -1.
</event>
<event>
 7    1  0.3528441E-013  0.5930193E+02  0.7816164E-02  0.1266605E+00
        -11   -1    0    0    0    0  0.00000000000E+00  0.00000000000E+00  0.45593999997E+02  0.45594000000E+02  0.51100000000E-03 0.  1.
         11   -1    0    0    0    0 -0.00000000000E+00 -0.00000000000E+00 -0.45593999997E+02  0.45594000000E+02  0.51100000000E-03 0. -1.
    9900012    2    1    2    0    0 -0.56776104896E+01  0.19622983428E+02 -0.24483147872E+02  0.59301932992E+02  0.49999979874E+02 0.  0.
        -12    1    1    2    0    0  0.56776104896E+01 -0.19622983428E+02  0.24483147872E+02  0.31886067008E+02  0.00000000000E+00 0.  1.
         11    1    3    3    0    0 -0.17929479723E+02 -0.34177155314E+01 -0.25510333848E+02  0.31367565349E+02  0.51100000000E-03 0. -1.
        -11    1    3    3    0    0  0.62776493559E+01  0.30342898267E+01 -0.55879337145E+00  0.69948585747E+01  0.51100000000E-03 0.  1.
        -12    1    3    3    0    0  0.59742198779E+01  0.20006409133E+02  0.15859793482E+01  0.20939509069E+02  0.00000000000E+00 0.  1.
</event>
<event>
 7    1  0.3528441E-013  0.5930195E+02  0.7816164E-02  0.1266605E+00
        -11   -1    0    0    0    0  0.00000000000E+00  0.00000000000E+00  0.45593999997E+02  0.45594000000E+02  0.51100000000E-03 0. -1.
         11   -1    0    0    0    0 -0.00000000000E+00 -0.00000000000E+00 -0.45593999997E+02  0.45594000000E+02  0.51100000000E-03 0.  1.
    9900012    2    1    2    0    0  0.51880930252E+01  0.29667315991E+02  0.10471602866E+02  0.59301946404E+02  0.50000004333E+02 0.  0.
        -12    1    1    2    0    0 -0.51880930252E+01 -0.29667315991E+02 -0.10471602866E+02  0.31886053596E+02  0.00000000000E+00 0.  1.
         11    1    3    3    0    0  0.44264336994E+01 -0.10809145729E+01  0.17001704415E+02  0.17601694375E+02  0.51100000000E-03 0. -1.
        -11    1    3    3    0    0  0.12658133025E+02  0.11601749559E+02 -0.83351027983E+01  0.19086719556E+02  0.51100000000E-03 0.  1.
         12    1    3    3    0    0 -0.11896473699E+02  0.19146481006E+02  0.18050012493E+01  0.22613532472E+02  0.00000000000E+00 0. -1.
</event>
<event>
 7    1  0.3528441E-013  0.5930196E+02  0.7816164E-02  0.1266605E+00
        -11   -1    0    0    0    0  0.00000000000E+00  0.00000000000E+00  0.45593999997E+02  0.45594000000E+02  0.51100000000E-03 0. -1.
         11   -1    0    0    0    0 -0.00000000000E+00 -0.00000000000E+00 -0.45593999997E+02  0.45594000000E+02  0.51100000000E-03 0.  1.
    9900012    2    1    2    0    0  0.33229978028E+01  0.19499891735E+02  0.25008626917E+02  0.59301960541E+02  0.50000030117E+02 0.  0.
        -12    1    1    2    0    0 -0.33229978028E+01 -0.19499891735E+02 -0.25008626917E+02  0.31886039459E+02  0.00000000000E+00 0.  1.
         11    1    3    3    0    0 -0.22541161565E+01  0.38519214358E+01 -0.35290165632E+01  0.56896657687E+01  0.51100000000E-03 0. -1.
        -11    1    3    3    0    0 -0.10024233059E+02  0.11778449862E+02 -0.51374737117E+01  0.16297569327E+02  0.51100000000E-03 0.  1.
        -12    1    3    3    0    0  0.15601347018E+02  0.38695204373E+01  0.33675117192E+02  0.37314725446E+02  0.00000000000E+00 0.  1.
</event>
<event>
 7    1  0.3528441E-013  0.5930180E+02  0.7816164E-02  0.1266605E+00
        -11   -1    0    0    0    0  0.00000000000E+00  0.00000000000E+00  0.45593999997E+02  0.45594000000E+02  0.51100000000E-03 0.  1.
         11   -1    0    0    0    0 -0.00000000000E+00 -0.00000000000E+00 -0.45593999997E+02  0.45594000000E+02  0.51100000000E-03 0. -1.
    9900012    2    1    2    0    0  0.19445554091E+02  0.16626668141E+02 -0.19030354147E+02  0.59301795360E+02  0.49999728865E+02 0.  0.
        -12    1    1    2    0    0 -0.19445554091E+02 -0.16626668141E+02  0.19030354147E+02  0.31886204640E+02  0.00000000000E+00 0.  1.
         11    1    3    3    0    0  0.49420593156E+01 -0.56419399559E+01 -0.39955638701E+01  0.84982332073E+01  0.51100000000E-03 0. -1.
        -11    1    3    3    0    0 -0.61076826997E+01 -0.17924494171E+01 -0.17894285669E+02  0.18992686033E+02  0.51100000000E-03 0.  1.
         12    1    3    3    0    0  0.20611177475E+02  0.24061057514E+02  0.28594953920E+01  0.31810876120E+02  0.00000000000E+00 0. -1.
</event>
<event>
 7    1  0.3528441E-013  0.5930192E+02  0.7816164E-02  0.1266605E+00
        -11   -1    0    0    0    0  0.00000000000E+00  0.00000000000E+00  0.45593999997E+02  0.45594000000E+02  0.51100000000E-03 0.  1.
         11   -1    0    0    0    0 -0.00000000000E+00 -0.00000000000E+00 -0.45593999997E+02  0.45594000000E+02  0.51100000000E-03 0. -1.
    9900012    2    1    2    0    0 -0.48453860759E+01  0.26570418544E+02 -0.16948665558E+02  0.59301918835E+02  0.49999954055E+02 0.  0.
        -12    1    1    2    0    0  0.48453860759E+01 -0.26570418544E+02  0.16948665558E+02  0.31886081165E+02  0.00000000000E+00 0.  1.
         11    1    3    3    0    0 -0.21670193095E+02  0.13711492656E+02  0.25267412848E+01  0.25767939797E+02  0.51100000000E-03 0. -1.
        -11    1    3    3    0    0 -0.31790660921E+01  0.23206886579E+01 -0.40746078274E+00  0.39570293928E+01  0.51100000000E-03 0.  1.
         12    1    3    3    0    0  0.20003873111E+02  0.10538237231E+02 -0.19067946061E+02  0.29576949645E+02  0.00000000000E+00 0. -1.
</event>
<event>
 7    1  0.3528441E-013  0.5930194E+02  0.7816164E-02  0.1266605E+00
        -11   -1    0    0    0    0  0.00000000000E+00  0.00000000000E+00  0.45593999997E+02  0.45594000000E+02  0.51100000000E-03 0.  1.
         11   -1    0    0    0    0 -0.00000000000E+00 -0.00000000000E+00 -0.45593999997E+02  0.45594000000E+02  0.51100000000E-03 0. -1.
    9900012    2    1    2    0    0  0.17170518780E+02  0.20719796363E+02 -0.17105084784E+02  0.59301943456E+02  0.49999998957E+02 0.  0.
        -12    1    1    2    0    0 -0.17170518780E+02 -0.20719796363E+02  0.17105084784E+02  0.31886056544E+02  0.00000000000E+00 0.  1.
         11    1    3    3    0    0  0.15721351849E+02  0.20973040815E+02  0.55710344559E+01  0.26796749246E+02  0.51100000000E-03 0.  1.
        -11    1    3    3    0    0 -0.15262760051E+00  0.11441369926E+02 -0.12148230238E+02  0.16688551139E+02  0.51100000000E-03 0. -1.
        -12    1    3    3    0    0  0.16017945316E+01 -0.11694614378E+02 -0.10527889002E+02  0.15816643070E+02  0.00000000000E+00 0.  1.
</event>
<event>
 7    1  0.3528441E-013  0.5930203E+02  0.7816164E-02  0.1266604E+00
        -11   -1    0    0    0    0  0.00000000000E+00  0.00000000000E+00  0.45593999997E+02  0.45594000000E+02  0.51100000000E-03 0. -1.
         11   -1    0    0    0    0 -0.00000000000E+00 -0.00000000000E+00 -0.45593999997E+02  0.45594000000E+02  0.51100000000E-03 0.  1.
    9900012    2    1    2    0    0  0.22824948193E+02 -0.11248419735E+02  0.19214837906E+02  0.59302028127E+02  0.50000153376E+02 0.  0.
        -12    1    1    2    0    0 -0.22824948193E+02  0.11248419735E+02 -0.19214837906E+02  0.31885971873E+02  0.00000000000E+00 0.  1.
         11    1    3    3    0    0  0.14895399580E+02 -0.20846609318E+02  0.11939353510E+02  0.28266627163E+02  0.51100000000E-03 0. -1.
        -11    1    3    3    0    0  0.70952902356E+01 -0.32456361989E+01 -0.79225764015E+01  0.11119555520E+02  0.51100000000E-03 0.  1.
         12    1    3    3    0    0  0.83425837735E+00  0.12843825781E+02  0.15198060798E+02  0.19915845444E+02  0.00000000000E+00 0. -1.
</event>
<event>
 7    1  0.3528441E-013  0.5930196E+02  0.7816164E-02  0.1266605E+00
        -11   -1    0    0    0    0  0.00000000000E+00  0.00000000000E+00  0.45593999997E+02  0.45594000000E+02  0.51100000000E-03 0.  1.
         11   -1    0    0    0    0 -0.00000000000E+00 -0.00000000000E+00 -0.45593999997E+02  0.45594000000E+02  0.51100000000E-03 0. -1.
    9900012    2    1    2    0    0 -0.30950472269E+02  0.67730068464E+01 -0.35936211136E+01  0.59301961235E+02  0.50000031382E+02 0.  0.
        -12    1    1    2    0    0  0.30950472269E+02 -0.67730068464E+01  0.35936211136E+01  0.31886038765E+02  0.00000000000E+00 0.  1.
         11    1    3    3    0    0 -0.15452328542E+02 -0.14833409674E+02 -0.82776515386E+01  0.22963536644E+02  0.51100000000E-03 0. -1.
        -11    1    3    3    0    0 -0.74748532731E+01  0.15958340866E+01  0.11428591120E+02  0.13748920435E+02  0.51100000000E-03 0.  1.
        -12    1    3    3    0    0 -0.80232904535E+01  0.20010582434E+02 -0.67445606946E+01  0.22589504156E+02  0.00000000000E+00 0.  1.
</event>
<event>
 7    1  0.3528441E-013  0.5930195E+02  0.7816164E-02  0.1266605E+00
        -11   -1    0    0    0    0  0.00000000000E+00  0.00000000000E+00  0.45593999997E+02  0.45594000000E+02  0.51100000000E-03 0.  1.
         11   -1    0    0    0    0 -0.00000000000E+00 -0.00000000000E+00 -0.45593999997E+02  0.45594000000E+02  0.51100000000E-03 0. -1.
    9900012    2    1    2    0    0  0.16031636058E+02  0.14006955436E+02 -0.23738404833E+02  0.59301952592E+02  0.50000015620E+02 0.  0.
        -12    1    1    2    0    0 -0.16031636058E+02 -0.14006955436E+02  0.23738404833E+02  0.31886047408E+02  0.00000000000E+00 0.  1.
         11    1    3    3    0    0  0.21958242994E+02  0.29448620864E+01 -0.18367483984E+02  0.28778483564E+02  0.51100000000E-03 0. -1.
        -11    1    3    3    0    0  0.97558183772E+01 -0.21596515814E+00 -0.55098908419E+01  0.11206316545E+02  0.51100000000E-03 0.  1.
        -12    1    3    3    0    0 -0.15682425313E+02  0.11278058508E+02  0.13896999293E+00  0.19317152483E+02  0.00000000000E+00 0.  1.
</event>
<event>
 7    1  0.3528441E-013  0.5930194E+02  0.7816164E-02  0.1266605E+00
        -11   -1    0    0    0    0  0.00000000000E+00  0.00000000000E+00  0.45593999997E+02  0.45594000000E+02  0.51100000000E-03 0. -1.
         11   -1    0    0    0    0 -0.00000000000E+00 -0.00000000000E+00 -0.45593999997E+02  0.45594000000E+02  0.51100000000E-03 0.  1.
    9900012    2    1    2    0    0 -0.16080382549E+02  0.27240205948E+02  0.40141113007E+01  0.59301943290E+02  0.49999998654E+02 0.  0.
        -12    1    1    2    0    0  0.16080382549E+02 -0.27240205948E+02 -0.40141113007E+01  0.31886056710E+02  0.00000000000E+00 0.  1.
         11    1    3    3    0    0 -0.84695285911E+01  0.80397998929E+01  0.66367323938E+01  0.13431958681E+02  0.51100000000E-03 0. -1.
        -11    1    3    3    0    0 -0.54433990116E+01 -0.74891480328E+01 -0.13992887862E+02  0.16778523238E+02  0.51100000000E-03 0.  1.
         12    1    3    3    0    0 -0.21674549467E+01  0.26689554087E+02  0.11370266769E+02  0.29091461371E+02  0.00000000000E+00 0. -1.
</event>
<event>
 7    1  0.3528441E-013  0.5930195E+02  0.7816164E-02  0.1266605E+00
        -11   -1    0    0    0    0  0.00000000000E+00  0.00000000000E+00  0.45593999997E+02  0.45594000000E+02  0.51100000000E-03 0.  1.
         11   -1    0    0    0    0 -0.00000000000E+00 -0.00000000000E+00 -0.45593999997E+02  0.45594000000E+02  0.51100000000E-03 0. -1.
    9900012    2    1    2    0    0  0.20901877877E+02  0.16994151860E+02 -0.17059620467E+02  0.59301947458E+02  0.50000006256E+02 0.  0.
        -12    1    1    2    0    0 -0.20901877877E+02 -0.16994151860E+02  0.17059620467E+02  0.31886052542E+02  0.00000000000E+00 0.  1.
         11    1    3    3    0    0  0.31707263918E+02  0.21884206636E+02 -0.16962361914E+02  0.42095021169E+02  0.51100000000E-03 0. -1.
        -11    1    3    3    0    0  0.15389243304E+01  0.20482138728E+01 -0.15137051589E+01  0.29756968482E+01  0.51100000000E-03 0.  1.
        -12    1    3    3    0    0 -0.12344310371E+02 -0.69382686492E+01  0.14164466059E+01  0.14231229440E+02  0.00000000000E+00 0.  1.
</event>
<event>
 7    1  0.3528441E-013  0.5930190E+02  0.7816164E-02  0.1266605E+00
        -11   -1    0    0    0    0  0.00000000000E+00  0.00000000000E+00  0.45593999997E+02  0.45594000000E+02  0.51100000000E-03 0.  1.
         11   -1    0    0    0    0 -0.00000000000E+00 -0.00000000000E+00 -0.45593999997E+02  0.45594000000E+02  0.51100000000E-03 0. -1.
    9900012    2    1    2    0    0  0.26901748638E+02  0.44856496891E+01 -0.16519625174E+02  0.59301903518E+02  0.49999926121E+02 0.  0.
        -12    1    1    2    0    0 -0.26901748638E+02 -0.44856496891E+01  0.16519625174E+02  0.31886096482E+02  0.00000000000E+00 0.  1.
         11    1    3    3    0    0  0.75904678025E+01  0.33163857491E+01  0.14081493367E+01  0.84021723806E+01  0.51100000000E-03 0. -1.
        -11    1    3    3    0    0  0.18552474470E+02 -0.43127687244E+01  0.10628642972E+02  0.21811976864E+02  0.51100000000E-03 0.  1.
         12    1    3    3    0    0  0.75880636605E+00  0.54820326644E+01 -0.28556417483E+02  0.29087754274E+02  0.00000000000E+00 0. -1.
</event>
<event>
 7    1  0.3528441E-013  0.5930198E+02  0.7816164E-02  0.1266605E+00
        -11   -1    0    0    0    0  0.00000000000E+00  0.00000000000E+00  0.45593999997E+02  0.45594000000E+02  0.51100000000E-03 0. -1.
         11   -1    0    0    0    0 -0.00000000000E+00 -0.00000000000E+00 -0.45593999997E+02  0.45594000000E+02  0.51100000000E-03 0.  1.
    9900012    2    1    2    0    0  0.11774038356E+02 -0.20861483292E+02  0.21044928232E+02  0.59301976907E+02  0.50000059965E+02 0.  0.
        -12    1    1    2    0    0 -0.11774038356E+02  0.20861483292E+02 -0.21044928232E+02  0.31886023093E+02  0.00000000000E+00 0.  1.
         11    1    3    3    0    0 -0.10044961063E+02  0.71883307877E+01  0.66358493842E+01  0.14021691752E+02  0.51100000000E-03 0. -1.
        -11    1    3    3    0    0 -0.23160599534E+01 -0.12253895206E+02  0.10239281119E+02  0.16135828443E+02  0.51100000000E-03 0.  1.
        -12    1    3    3    0    0  0.24135059373E+02 -0.15795918873E+02  0.41697977288E+01  0.29144456713E+02  0.00000000000E+00 0.  1.
</event>
<event>
 7    1  0.3528441E-013  0.5930195E+02  0.7816164E-02  0.1266605E+00
        -11   -1    0    0    0    0  0.00000000000E+00  0.00000000000E+00  0.45593999997E+02  0.45594000000E+02  0.51100000000E-03 0.  1.
         11   -1    0    0    0    0 -0.00000000000E+00 -0.00000000000E+00 -0.45593999997E+02  0.45594000000E+02  0.51100000000E-03 0. -1.
    9900012    2    1    2    0    0  0.13770956293E+02 -0.85401021797E+01 -0.27461752014E+02  0.59301946526E+02  0.50000004556E+02 0.  0.
        -12    1    1    2    0    0 -0.13770956293E+02  0.85401021797E+01  0.27461752014E+02  0.31886053474E+02  0.00000000000E+00 0.  1.
         11    1    3    3    0    0 -0.32349542548E+01 -0.20882643825E+01 -0.76436949222E-02  0.38504332028E+01  0.51100000000E-03 0. -1.
        -11    1    3    3    0    0 -0.37100659874E+01  0.12882923523E+02 -0.23202704437E+02  0.26797384230E+02  0.51100000000E-03 0.  1.
         12    1    3    3    0    0  0.20715976535E+02 -0.19334761320E+02 -0.42514038829E+01  0.28654129093E+02  0.00000000000E+00 0. -1.
</event>
<event>
 7    1  0.3528441E-013  0.5930193E+02  0.7816164E-02  0.1266605E+00
        -11   -1    0    0    0    0  0.00000000000E+00  0.00000000000E+00  0.45593999997E+02  0.45594000000E+02  0.51100000000E-03 0.  1.
         11   -1    0    0    0    0 -0.00000000000E+00 -0.00000000000E+00 -0.45593999997E+02  0.45594000000E+02  0.51100000000E-03 0. -1.
    9900012    2    1    2    0    0  0.72514779828E+01 -0.25397482946E+02 -0.17863524589E+02  0.59301928062E+02  0.49999970881E+02 0.  0.
        -12    1    1    2    0    0 -0.72514779828E+01  0.25397482946E+02  0.17863524589E+02  0.31886071938E+02  0.00000000000E+00 0.  1.
         11    1    3    3    0    0  0.12496722563E+02 -0.13573982632E+02 -0.11499460480E+02  0.21740714590E+02  0.51100000000E-03 0. -1.
        -11    1    3    3    0    0 -0.19298353844E+02 -0.53092369248E+01 -0.88301352518E+01  0.21876602721E+02  0.51100000000E-03 0.  1.
         12    1    3    3    0    0  0.14053109264E+02 -0.65142633892E+01  0.24660711428E+01  0.15684610750E+02  0.00000000000E+00 0. -1.
</event>
<event>
 7    1  0.3528441E-013  0.5930196E+02  0.7816164E-02  0.1266605E+00
        -11   -1    0    0    0    0  0.00000000000E+00  0.00000000000E+00  0.45593999997E+02  0.45594000000E+02  0.51100000000E-03 0.  1.
         11   -1    0    0    0    0 -0.00000000000E+00 -0.00000000000E+00 -0.45593999997E+02  0.45594000000E+02  0.51100000000E-03 0. -1.
    9900012    2    1    2    0    0 -0.11376857078E+01  0.31421853261E+02 -0.53002485220E+01  0.59301955631E+02  0.50000021161E+02 0.  0.
        -12    1    1    2    0    0  0.11376857078E+01 -0.31421853261E+02  0.53002485220E+01  0.31886044369E+02  0.00000000000E+00 0.  1.
         11    1    3    3    0    0  0.20150526320E+02  0.24933371501E+02 -0.37790050853E+01  0.32279987687E+02  0.51100000000E-03 0. -1.
        -11    1    3    3    0    0  0.85940289224E+00  0.44698643077E+00  0.34070564341E+01  0.35420903442E+01  0.51100000000E-03 0.  1.
        -12    1    3    3    0    0 -0.22147614920E+02  0.60414953293E+01 -0.49282998708E+01  0.23479877600E+02  0.00000000000E+00 0.  1.
</event>
<event>
 7    1  0.3528441E-013  0.5930194E+02  0.7816164E-02  0.1266605E+00
        -11   -1    0    0    0    0  0.00000000000E+00  0.00000000000E+00  0.45593999997E+02  0.45594000000E+02  0.51100000000E-03 0.  1.
         11   -1    0    0    0    0 -0.00000000000E+00 -0.00000000000E+00 -0.45593999997E+02  0.45594000000E+02  0.51100000000E-03 0. -1.
    9900012    2    1    2    0    0  0.12439097995E+02  0.29305647167E+02 -0.17800344059E+01  0.59301942901E+02  0.49999997946E+02 0.  0.
        -12    1    1    2    0    0 -0.12439097995E+02 -0.29305647167E+02  0.17800344059E+01  0.31886057099E+02  0.00000000000E+00 0.  1.
         11    1    3    3    0    0  0.84585151416E+01  0.49033000956E+01 -0.14311699654E+02  0.17332442917E+02  0.51100000000E-03 0. -1.
        -11    1    3    3    0    0 -0.11505477865E+02  0.21324234801E+02  0.67182513757E+01  0.25144262020E+02  0.51100000000E-03 0.  1.
         12    1    3    3    0    0  0.15486060718E+02  0.30781122709E+01  0.58134138720E+01  0.16825237965E+02  0.00000000000E+00 0. -1.
</event>
<event>
 7    1  0.3528441E-013  0.5930194E+02  0.7816164E-02  0.1266605E+00
        -11   -1    0    0    0    0  0.00000000000E+00  0.00000000000E+00  0.45593999997E+02  0.45594000000E+02  0.51100000000E-03 0.  1.
         11   -1    0    0    0    0 -0.00000000000E+00 -0.00000000000E+00 -0.45593999997E+02  0.45594000000E+02  0.51100000000E-03 0. -1.
    9900012    2    1    2    0    0  0.43769028805E+01 -0.99743636534E+01 -0.29967908379E+02  0.59301941264E+02  0.49999994960E+02 0.  0.
        -12    1    1    2    0    0 -0.43769028805E+01  0.99743636534E+01  0.29967908379E+02  0.31886058736E+02  0.00000000000E+00 0.  1.
         11    1    3    3    0    0  0.11751494005E+02 -0.12086993024E+02 -0.13261304812E+00  0.16858546740E+02  0.51100000000E-03 0. -1.
        -11    1    3    3    0    0  0.10089552856E+01  0.12328541409E+02 -0.33047873969E+01  0.12803614491E+02  0.51100000000E-03 0.  1.
         12    1    3    3    0    0 -0.83835464098E+01 -0.10215912038E+02 -0.26530507934E+02  0.29639780033E+02  0.00000000000E+00 0. -1.
</event>
<event>
 7    1  0.3528441E-013  0.5930204E+02  0.7816164E-02  0.1266604E+00
        -11   -1    0    0    0    0  0.00000000000E+00  0.00000000000E+00  0.45593999997E+02  0.45594000000E+02  0.51100000000E-03 0. -1.
         11   -1    0    0    0    0 -0.00000000000E+00 -0.00000000000E+00 -0.45593999997E+02  0.45594000000E+02  0.51100000000E-03 0.  1.
    9900012    2    1    2    0    0  0.11457100766E+02  0.29725013605E+02 -0.13685326598E+01  0.59302039556E+02  0.50000174221E+02 0.  0.
        -12    1    1    2    0    0 -0.11457100766E+02 -0.29725013605E+02  0.13685326598E+01  0.31885960444E+02  0.00000000000E+00 0.  1.
         11    1    3    3    0    0  0.10600699724E+02  0.10024709572E+02 -0.87207108527E+01  0.16997659682E+02  0.51100000000E-03 0. -1.
        -11    1    3    3    0    0  0.27670327247E+01  0.29887149902E+02  0.76683755778E+00  0.30024760439E+02  0.51100000000E-03 0.  1.
        -12    1    3    3    0    0 -0.19106316825E+01 -0.10186845869E+02  0.65853406351E+01  0.12279619434E+02  0.00000000000E+00 0.  1.
</event>
<event>
 7    1  0.3528441E-013  0.5930193E+02  0.7816164E-02  0.1266605E+00
        -11   -1    0    0    0    0  0.00000000000E+00  0.00000000000E+00  0.45593999997E+02  0.45594000000E+02  0.51100000000E-03 0. -1.
         11   -1    0    0    0    0 -0.00000000000E+00 -0.00000000000E+00 -0.45593999997E+02  0.45594000000E+02  0.51100000000E-03 0.  1.
    9900012    2    1    2    0    0 -0.25942212669E+02 -0.12083129544E+02  0.14061338654E+02  0.59301926826E+02  0.49999968627E+02 0.  0.
        -12    1    1    2    0    0  0.25942212669E+02  0.12083129544E+02 -0.14061338654E+02  0.31886073174E+02  0.00000000000E+00 0.  1.
         11    1    3    3    0    0 -0.56822598883E+01  0.32458840155E+01  0.18443506226E+02  0.19570047589E+02  0.51100000000E-03 0. -1.
        -11    1    3    3    0    0 -0.27045538962E+01 -0.99212534342E+01  0.11515325658E+02  0.15438542896E+02  0.51100000000E-03 0.  1.
        -12    1    3    3    0    0 -0.17555398884E+02 -0.54077601253E+01 -0.15897493230E+02  0.24293336340E+02  0.00000000000E+00 0.  1.
</event>
<event>
 7    1  0.3528441E-013  0.5930197E+02  0.7816164E-02  0.1266605E+00
        -11   -1    0    0    0    0  0.00000000000E+00  0.00000000000E+00  0.45593999997E+02  0.45594000000E+02  0.51100000000E-03 0.  1.
         11   -1    0    0    0    0 -0.00000000000E+00 -0.00000000000E+00 -0.45593999997E+02  0.45594000000E+02  0.51100000000E-03 0. -1.
    9900012    2    1    2    0    0 -0.27754645147E+01 -0.24269682395E+02 -0.20493856096E+02  0.59301971328E+02  0.50000049788E+02 0.  0.
        -12    1    1    2    0    0  0.27754645147E+01  0.24269682395E+02  0.20493856096E+02  0.31886028672E+02  0.00000000000E+00 0.  1.
         11    1    3    3    0    0 -0.11359291600E+02 -0.75432936590E+01 -0.22991896490E+02  0.26731294195E+02  0.51100000000E-03 0. -1.
        -11    1    3    3    0    0  0.56024291393E+01 -0.16422710368E+02 -0.97894592678E+01  0.19923005323E+02  0.51100000000E-03 0.  1.
         12    1    3    3    0    0  0.29813979459E+01 -0.30367836825E+00  0.12287499662E+02  0.12647671810E+02  0.00000000000E+00 0. -1.
</event>
<event>
 7    1  0.3528441E-013  0.5930194E+02  0.7816164E-02  0.1266605E+00
        -11   -1    0    0    0    0  0.00000000000E+00  0.00000000000E+00  0.45593999997E+02  0.45594000000E+02  0.51100000000E-03 0.  1.
         11   -1    0    0    0    0 -0.00000000000E+00 -0.00000000000E+00 -0.45593999997E+02  0.45594000000E+02  0.51100000000E-03 0. -1.
    9900012    2    1    2    0    0  0.23045386995E+02  0.39889498026E+01 -0.21673010884E+02  0.59301937480E+02  0.49999988058E+02 0.  0.
        -12    1    1    2    0    0 -0.23045386995E+02 -0.39889498026E+01  0.21673010884E+02  0.31886062520E+02  0.00000000000E+00 0.  1.
         11    1    3    3    0    0  0.16970608869E+02 -0.19242228802E+01 -0.10039580374E+02  0.19811546467E+02  0.51100000000E-03 0. -1.
        -11    1    3    3    0    0  0.15890625740E+02  0.11272920158E+01 -0.20117807801E+02  0.25661429513E+02  0.51100000000E-03 0.  1.
         12    1    3    3    0    0 -0.98158476136E+01  0.47858806671E+01  0.84843772911E+01  0.13828961499E+02  0.00000000000E+00 0. -1.
</event>
<event>
 7    1  0.3528441E-013  0.5930194E+02  0.7816164E-02  0.1266605E+00
        -11   -1    0    0    0    0  0.00000000000E+00  0.00000000000E+00  0.45593999997E+02  0.45594000000E+02  0.51100000000E-03 0.  1.
         11   -1    0    0    0    0 -0.00000000000E+00 -0.00000000000E+00 -0.45593999997E+02  0.45594000000E+02  0.51100000000E-03 0. -1.
    9900012    2    1    2    0    0 -0.24300975349E+02  0.15841865897E+02 -0.13237028594E+02  0.59301936524E+02  0.49999986314E+02 0.  0.
        -12    1    1    2    0    0  0.24300975349E+02 -0.15841865897E+02  0.13237028594E+02  0.31886063476E+02  0.00000000000E+00 0.  1.
         11    1    3    3    0    0  0.62605737970E+00 -0.31316501568E+01  0.69649143897E+01  0.76621937632E+01  0.51100000000E-03 0.  1.
        -11    1    3    3    0    0  0.39334295672E+01  0.17481691987E+02 -0.12117138789E+02  0.21631145961E+02  0.51100000000E-03 0. -1.
         12    1    3    3    0    0 -0.28860462296E+02  0.14918240667E+01 -0.80848041943E+01  0.30008596799E+02  0.00000000000E+00 0. -1.
</event>
<event>
 7    1  0.3528441E-013  0.5930202E+02  0.7816164E-02  0.1266605E+00
        -11   -1    0    0    0    0  0.00000000000E+00  0.00000000000E+00  0.45593999997E+02  0.45594000000E+02  0.51100000000E-03 0.  1.
         11   -1    0    0    0    0 -0.00000000000E+00 -0.00000000000E+00 -0.45593999997E+02  0.45594000000E+02  0.51100000000E-03 0. -1.
    9900012    2    1    2    0    0 -0.26999699569E+02 -0.15682361622E+02  0.64649517215E+01  0.59302018070E+02  0.50000135036E+02 0.  0.
        -12    1    1    2    0    0  0.26999699569E+02  0.15682361622E+02 -0.64649517215E+01  0.31885981930E+02  0.00000000000E+00 0.  1.
         11    1    3    3    0    0  0.18154228824E+01 -0.13758202172E+01 -0.20839304708E-01  0.22779543564E+01  0.51100000000E-03 0. -1.
        -11    1    3    3    0    0 -0.26243445307E+00  0.10972101921E+02 -0.10580344512E+02  0.15244657512E+02  0.51100000000E-03 0.  1.
         12    1    3    3    0    0 -0.28552687998E+02 -0.25278643326E+02  0.17066135538E+02  0.41779406202E+02  0.00000000000E+00 0. -1.
</event>
<event>
 7    1  0.3528441E-013  0.5930194E+02  0.7816164E-02  0.1266605E+00
        -11   -1    0    0    0    0  0.00000000000E+00  0.00000000000E+00  0.45593999997E+02  0.45594000000E+02  0.51100000000E-03 0.  1.
         11   -1    0    0    0    0 -0.00000000000E+00 -0.00000000000E+00 -0.45593999997E+02  0.45594000000E+02  0.51100000000E-03 0. -1.
    9900012    2    1    2    0    0 -0.27036861110E+02 -0.67912756162E+01  0.15479268388E+02  0.59301936696E+02  0.49999986629E+02 0.  0.
        -12    1    1    2    0    0  0.27036861110E+02  0.67912756162E+01 -0.15479268388E+02  0.31886063304E+02  0.00000000000E+00 0.  1.
         11    1    3    3    0    0 -0.48975533909E+01  0.73443495731E+01  0.11536045861E+02  0.14526040556E+02  0.51100000000E-03 0. -1.
        -11    1    3    3    0    0 -0.18149473267E+01  0.21323854757E+01  0.15888213836E+02  0.16133085284E+02  0.51100000000E-03 0.  1.
         12    1    3    3    0    0 -0.20324360393E+02 -0.16268010665E+02 -0.11944991309E+02  0.28642810856E+02  0.00000000000E+00 0. -1.
</event>
<event>
 7    1  0.3528441E-013  0.5930197E+02  0.7816164E-02  0.1266605E+00
        -11   -1    0    0    0    0  0.00000000000E+00  0.00000000000E+00  0.45593999997E+02  0.45594000000E+02  0.51100000000E-03 0.  1.
         11   -1    0    0    0    0 -0.00000000000E+00 -0.00000000000E+00 -0.45593999997E+02  0.45594000000E+02  0.51100000000E-03 0. -1.
    9900012    2    1    2    0    0 -0.76518340449E+01 -0.24696564055E+02 -0.18661414402E+02  0.59301965003E+02  0.50000038254E+02 0.  0.
        -12    1    1    2    0    0  0.76518340449E+01  0.24696564055E+02  0.18661414402E+02  0.31886034997E+02  0.00000000000E+00 0.  1.
         11    1    3    3    0    0 -0.70178649880E+00 -0.27801491124E+01  0.30713214481E+01  0.42017554755E+01  0.51100000000E-03 0. -1.
        -11    1    3    3    0    0 -0.11807796432E+01 -0.30672295610E+02  0.30338076719E+00  0.30696514439E+02  0.51100000000E-03 0.  1.
         12    1    3    3    0    0 -0.57692679029E+01  0.87558806676E+01 -0.22036116617E+02  0.24403695088E+02  0.00000000000E+00 0. -1.
</event>
<event>
 7    1  0.3528441E-013  0.5930195E+02  0.7816164E-02  0.1266605E+00
        -11   -1    0    0    0    0  0.00000000000E+00  0.00000000000E+00  0.45593999997E+02  0.45594000000E+02  0.51100000000E-03 0.  1.
         11   -1    0    0    0    0 -0.00000000000E+00 -0.00000000000E+00 -0.45593999997E+02  0.45594000000E+02  0.51100000000E-03 0. -1.
    9900012    2    1    2    0    0  0.26586280920E+02 -0.48629412807E+01 -0.16918682819E+02  0.59301947259E+02  0.50000005894E+02 0.  0.
        -12    1    1    2    0    0 -0.26586280920E+02  0.48629412807E+01  0.16918682819E+02  0.31886052741E+02  0.00000000000E+00 0.  1.
         11    1    3    3    0    0  0.26391734568E+01 -0.71824236193E+01  0.12635646133E+02  0.14772000509E+02  0.51100000000E-03 0. -1.
        -11    1    3    3    0    0  0.10424833523E+02 -0.19949056540E+01  0.11770395039E+01  0.10679055426E+02  0.51100000000E-03 0.  1.
         12    1    3    3    0    0  0.13522273940E+02  0.43143879926E+01 -0.30731368456E+02  0.33850891324E+02  0.00000000000E+00 0. -1.
</event>
<event>
 7    1  0.3528441E-013  0.5930190E+02  0.7816164E-02  0.1266605E+00
        -11   -1    0    0    0    0  0.00000000000E+00  0.00000000000E+00  0.45593999997E+02  0.45594000000E+02  0.51100000000E-03 0.  1.
         11   -1    0    0    0    0 -0.00000000000E+00 -0.00000000000E+00 -0.45593999997E+02  0.45594000000E+02  0.51100000000E-03 0. -1.
    9900012    2    1    2    0    0  0.73867665131E+01 -0.93984077426E+01 -0.29560596766E+02  0.59301901638E+02  0.49999922691E+02 0.  0.
        -12    1    1    2    0    0 -0.73867665131E+01  0.93984077426E+01  0.29560596766E+02  0.31886098362E+02  0.00000000000E+00 0.  1.
         11    1    3    3    0    0  0.28625032488E+01 -0.22669027531E+02 -0.16366207145E+02  0.28105719536E+02  0.51100000000E-03 0. -1.
        -11    1    3    3    0    0 -0.53717128450E+01  0.23596963386E+01 -0.15234634424E+02  0.16325365294E+02  0.51100000000E-03 0.  1.
        -12    1    3    3    0    0  0.98959761094E+01  0.10910923450E+02  0.20402448032E+01  0.14870816808E+02  0.00000000000E+00 0.  1.
</event>
<event>
 7    1  0.3528441E-013  0.5930193E+02  0.7816164E-02  0.1266605E+00
        -11   -1    0    0    0    0  0.00000000000E+00  0.00000000000E+00  0.45593999997E+02  0.45594000000E+02  0.51100000000E-03 0.  1.
         11   -1    0    0    0    0 -0.00000000000E+00 -0.00000000000E+00 -0.45593999997E+02  0.45594000000E+02  0.51100000000E-03 0. -1.
    9900012    2    1    2    0    0 -0.29326294170E+02  0.11855171295E+02  0.40180476298E+01  0.59301932150E+02  0.49999978339E+02 0.  0.
        -12    1    1    2    0    0  0.29326294170E+02 -0.11855171295E+02 -0.40180476298E+01  0.31886067850E+02  0.00000000000E+00 0.  1.
         11    1    3    3    0    0 -0.32266337899E+02  0.16620945900E+02 -0.69403106307E+01  0.36953217937E+02  0.51100000000E-03 0. -1.
        -11    1    3    3    0    0 -0.36597015026E+01 -0.46236974689E+01 -0.32129808161E+01  0.67152989031E+01  0.51100000000E-03 0.  1.
         12    1    3    3    0    0  0.65997452315E+01 -0.14207713671E+00  0.14171339077E+02  0.15633415310E+02  0.00000000000E+00 0. -1.
</event>
<event>
 7    1  0.3528441E-013  0.5930194E+02  0.7816164E-02  0.1266605E+00
        -11   -1    0    0    0    0  0.00000000000E+00  0.00000000000E+00  0.45593999997E+02  0.45594000000E+02  0.51100000000E-03 0.  1.
         11   -1    0    0    0    0 -0.00000000000E+00 -0.00000000000E+00 -0.45593999997E+02  0.45594000000E+02  0.51100000000E-03 0. -1.
    9900012    2    1    2    0    0 -0.16140306426E+02  0.19903793931E+02 -0.18974997442E+02  0.59301936707E+02  0.49999986649E+02 0.  0.
        -12    1    1    2    0    0  0.16140306426E+02 -0.19903793931E+02  0.18974997442E+02  0.31886063293E+02  0.00000000000E+00 0.  1.
         11    1    3    3    0    0 -0.10287062022E+02  0.11581799241E+02 -0.40117440134E+01  0.16001743936E+02  0.51100000000E-03 0. -1.
        -11    1    3    3    0    0 -0.97048641679E+01  0.10289793030E+02 -0.27016085526E+02  0.30494804582E+02  0.51100000000E-03 0.  1.
        -12    1    3    3    0    0  0.38516197640E+01 -0.19677983398E+01  0.12052832097E+02  0.12805388189E+02  0.00000000000E+00 0.  1.
</event>
<event>
 7    1  0.3528441E-013  0.5930199E+02  0.7816164E-02  0.1266605E+00
        -11   -1    0    0    0    0  0.00000000000E+00  0.00000000000E+00  0.45593999997E+02  0.45594000000E+02  0.51100000000E-03 0. -1.
         11   -1    0    0    0    0 -0.00000000000E+00 -0.00000000000E+00 -0.45593999997E+02  0.45594000000E+02  0.51100000000E-03 0.  1.
    9900012    2    1    2    0    0  0.45021298518E+01  0.28684418274E+02  0.13177740323E+02  0.59301986374E+02  0.50000077230E+02 0.  0.
        -12    1    1    2    0    0 -0.45021298518E+01 -0.28684418274E+02 -0.13177740323E+02  0.31886013626E+02  0.00000000000E+00 0.  1.
         11    1    3    3    0    0  0.67661881065E+00 -0.30086937025E+01  0.10150266027E+02  0.10608390618E+02  0.51100000000E-03 0. -1.
        -11    1    3    3    0    0  0.83933384791E+01  0.13873948321E+01 -0.11880330664E+02  0.14612161106E+02  0.51100000000E-03 0.  1.
         12    1    3    3    0    0 -0.45678274379E+01  0.30305717144E+02  0.14907804959E+02  0.34081434651E+02  0.00000000000E+00 0. -1.
</event>
<event>
 7    1  0.3528441E-013  0.5930193E+02  0.7816164E-02  0.1266605E+00
        -11   -1    0    0    0    0  0.00000000000E+00  0.00000000000E+00  0.45593999997E+02  0.45594000000E+02  0.51100000000E-03 0. -1.
         11   -1    0    0    0    0 -0.00000000000E+00 -0.00000000000E+00 -0.45593999997E+02  0.45594000000E+02  0.51100000000E-03 0.  1.
    9900012    2    1    2    0    0 -0.33117362142E+01 -0.29662822109E+02  0.11219207640E+02  0.59301933571E+02  0.49999980930E+02 0.  0.
        -12    1    1    2    0    0  0.33117362142E+01  0.29662822109E+02 -0.11219207640E+02  0.31886066429E+02  0.00000000000E+00 0.  1.
         11    1    3    3    0    0  0.34406626002E+01 -0.19603350189E+02  0.16566730136E+02  0.25895676192E+02  0.51100000000E-03 0. -1.
        -11    1    3    3    0    0 -0.14410988199E+02 -0.14716574777E+02  0.34065565100E+01  0.20877231175E+02  0.51100000000E-03 0.  1.
        -12    1    3    3    0    0  0.76585893847E+01  0.46571028565E+01 -0.87540790063E+01  0.12529026204E+02  0.00000000000E+00 0.  1.
</event>
<event>
 7    1  0.3528441E-013  0.5930194E+02  0.7816164E-02  0.1266605E+00
        -11   -1    0    0    0    0  0.00000000000E+00  0.00000000000E+00  0.45593999997E+02  0.45594000000E+02  0.51100000000E-03 0. -1.
         11   -1    0    0    0    0 -0.00000000000E+00 -0.00000000000E+00 -0.45593999997E+02  0.45594000000E+02  0.51100000000E-03 0.  1.
    9900012    2    1    2    0    0  0.49893318722E+01 -0.23234949253E+02  0.21259455346E+02  0.59301941276E+02  0.49999994981E+02 0.  0.
        -12    1    1    2    0    0 -0.49893318722E+01  0.23234949253E+02 -0.21259455346E+02  0.31886058724E+02  0.00000000000E+00 0.  1.
         11    1    3    3    0    0 -0.28555446707E+01  0.44350387121E+01 -0.81080884069E+01  0.96728900345E+01  0.51100000000E-03 0. -1.
        -11    1    3    3    0    0 -0.37354558939E+00 -0.49142052028E-01 -0.48662408276E+01  0.48808043704E+01  0.51100000000E-03 0.  1.
         12    1    3    3    0    0  0.82184221323E+01 -0.27620845914E+02  0.34233784581E+02  0.44748246871E+02  0.00000000000E+00 0. -1.
</event>
<event>
 7    1  0.3528441E-013  0.5930193E+02  0.7816164E-02  0.1266605E+00
        -11   -1    0    0    0    0  0.00000000000E+00  0.00000000000E+00  0.45593999997E+02  0.45594000000E+02  0.51100000000E-03 0. -1.
         11   -1    0    0    0    0 -0.00000000000E+00 -0.00000000000E+00 -0.45593999997E+02  0.45594000000E+02  0.51100000000E-03 0.  1.
    9900012    2    1    2    0    0 -0.25743245596E+02 -0.10070830836E+02  0.15892934031E+02  0.59301926557E+02  0.49999968137E+02 0.  0.
        -12    1    1    2    0    0  0.25743245596E+02  0.10070830836E+02 -0.15892934031E+02  0.31886073443E+02  0.00000000000E+00 0.  1.
         11    1    3    3    0    0  0.24674345228E+01  0.31532675720E+01  0.21981154550E+02  0.22342839683E+02  0.51100000000E-03 0. -1.
        -11    1    3    3    0    0 -0.19413849738E+02  0.92995077272E+00 -0.71486121913E+00  0.19449251834E+02  0.51100000000E-03 0.  1.
        -12    1    3    3    0    0 -0.87968303810E+01 -0.14154049181E+02 -0.53733592999E+01  0.17509835040E+02  0.00000000000E+00 0.  1.
</event>
<event>
 7    1  0.3528441E-013  0.5930194E+02  0.7816164E-02  0.1266605E+00
        -11   -1    0    0    0    0  0.00000000000E+00  0.00000000000E+00  0.45593999997E+02  0.45594000000E+02  0.51100000000E-03 0.  1.
         11   -1    0    0    0    0 -0.00000000000E+00 -0.00000000000E+00 -0.45593999997E+02  0.45594000000E+02  0.51100000000E-03 0. -1.
    9900012    2    1    2    0    0  0.30003738287E+02 -0.10503173711E+02 -0.24859089555E+01  0.59301941722E+02  0.49999995795E+02 0.  0.
        -12    1    1    2    0    0 -0.30003738287E+02  0.10503173711E+02  0.24859089555E+01  0.31886058278E+02  0.00000000000E+00 0.  1.
         11    1    3    3    0    0  0.19820756563E+02  0.63656770693E+01  0.59731972145E+01  0.21657869713E+02  0.51100000000E-03 0. -1.
        -11    1    3    3    0    0 -0.92780524594E+01 -0.47039334137E+01 -0.10275823083E+02  0.14621962498E+02  0.51100000000E-03 0.  1.
         12    1    3    3    0    0  0.19461034183E+02 -0.12164917367E+02  0.18167169126E+01  0.23022109512E+02  0.00000000000E+00 0. -1.
</event>
<event>
 7    1  0.3528441E-013  0.5930192E+02  0.7816164E-02  0.1266605E+00
        -11   -1    0    0    0    0  0.00000000000E+00  0.00000000000E+00  0.45593999997E+02  0.45594000000E+02  0.51100000000E-03 0.  1.
         11   -1    0    0    0    0 -0.00000000000E+00 -0.00000000000E+00 -0.45593999997E+02  0.45594000000E+02  0.51100000000E-03 0. -1.
    9900012    2    1    2    0    0  0.24288136132E+02  0.20435712905E+02  0.30314980605E+01  0.59301923114E+02  0.49999961858E+02 0.  0.
        -12    1    1    2    0    0 -0.24288136132E+02 -0.20435712905E+02 -0.30314980605E+01  0.31886076886E+02  0.00000000000E+00 0.  1.
         11    1    3    3    0    0  0.35985562339E+01  0.93783186571E+01  0.17249352676E+02  0.19961027924E+02  0.51100000000E-03 0. -1.
        -11    1    3    3    0    0 -0.36543997403E+01 -0.59268005828E+01 -0.20280521937E+01  0.72522133567E+01  0.51100000000E-03 0.  1.
         12    1    3    3    0    0  0.24343979638E+02  0.16984194831E+02 -0.12189802421E+02  0.32088681833E+02  0.00000000000E+00 0. -1.
</event>
<event>
 7    1  0.3528441E-013  0.5930194E+02  0.7816164E-02  0.1266605E+00
        -11   -1    0    0    0    0  0.00000000000E+00  0.00000000000E+00  0.45593999997E+02  0.45594000000E+02  0.51100000000E-03 0. -1.
         11   -1    0    0    0    0 -0.00000000000E+00 -0.00000000000E+00 -0.45593999997E+02  0.45594000000E+02  0.51100000000E-03 0.  1.
    9900012    2    1    2    0    0 -0.28688141115E+02  0.48364231165E+01  0.13050682711E+02  0.59301941159E+02  0.49999994769E+02 0.  0.
        -12    1    1    2    0    0  0.28688141115E+02 -0.48364231165E+01 -0.13050682711E+02  0.31886058841E+02  0.00000000000E+00 0.  1.
         11    1    3    3    0    0  0.55588369880E+01 -0.66110621979E+01 -0.23997936581E+00  0.86408565779E+01  0.51100000000E-03 0. -1.
        -11    1    3    3    0    0  0.59911258160E+01  0.56089641522E+01  0.27804369699E+01  0.86651542057E+01  0.51100000000E-03 0.  1.
        -12    1    3    3    0    0 -0.40238103919E+02  0.58385211622E+01  0.10510225107E+02  0.41995930376E+02  0.00000000000E+00 0.  1.
</event>
<event>
 7    1  0.3528441E-013  0.5930194E+02  0.7816164E-02  0.1266605E+00
        -11   -1    0    0    0    0  0.00000000000E+00  0.00000000000E+00  0.45593999997E+02  0.45594000000E+02  0.51100000000E-03 0.  1.
         11   -1    0    0    0    0 -0.00000000000E+00 -0.00000000000E+00 -0.45593999997E+02  0.45594000000E+02  0.51100000000E-03 0. -1.
    9900012    2    1    2    0    0 -0.15908840632E+01  0.25823343121E+02 -0.18637185490E+02  0.59301942780E+02  0.49999997725E+02 0.  0.
        -12    1    1    2    0    0  0.15908840632E+01 -0.25823343121E+02  0.18637185490E+02  0.31886057220E+02  0.00000000000E+00 0.  1.
         11    1    3    3    0    0 -0.73760305145E+01  0.21849392604E+02 -0.76737609554E+01  0.24304081772E+02  0.51100000000E-03 0. -1.
        -11    1    3    3    0    0  0.78712527557E+01  0.74542451672E+01  0.93299473152E+01  0.14302807701E+02  0.51100000000E-03 0.  1.
         12    1    3    3    0    0 -0.20861063044E+01 -0.34802946503E+01 -0.20293371850E+02  0.20695053308E+02  0.00000000000E+00 0. -1.
</event>
<event>
 7    1  0.3528441E-013  0.5930195E+02  0.7816164E-02  0.1266605E+00
        -11   -1    0    0    0    0  0.00000000000E+00  0.00000000000E+00  0.45593999997E+02  0.45594000000E+02  0.51100000000E-03 0.  1.
         11   -1    0    0    0    0 -0.00000000000E+00 -0.00000000000E+00 -0.45593999997E+02  0.45594000000E+02  0.51100000000E-03 0. -1.
    9900012    2    1    2    0    0 -0.29555244481E+01  0.31710811405E+02  0.15522695716E+01  0.59301949358E+02  0.50000009722E+02 0.  0.
        -12    1    1    2    0    0  0.29555244481E+01 -0.31710811405E+02 -0.15522695716E+01  0.31886050642E+02  0.00000000000E+00 0.  1.
         11    1    3    3    0    0  0.52292770350E+01  0.13654887798E+02 -0.83105789321E+01  0.16818651002E+02  0.51100000000E-03 0. -1.
        -11    1    3    3    0    0 -0.17327955909E+02  0.15151670606E+02  0.18533674058E+02  0.29552127715E+02  0.51100000000E-03 0.  1.
         12    1    3    3    0    0  0.91431544260E+01  0.29042530008E+01 -0.86708255545E+01  0.12931170641E+02  0.00000000000E+00 0. -1.
</event>
<event>
 7    1  0.3528441E-013  0.5930195E+02  0.7816164E-02  0.1266605E+00
        -11   -1    0    0    0    0  0.00000000000E+00  0.00000000000E+00  0.45593999997E+02  0.45594000000E+02  0.51100000000E-03 0.  1.
         11   -1    0    0    0    0 -0.00000000000E+00 -0.00000000000E+00 -0.45593999997E+02  0.45594000000E+02  0.51100000000E-03 0. -1.
    9900012    2    1    2    0    0  0.20555288059E+02 -0.72675696875E+01 -0.23267633350E+02  0.59301949789E+02  0.50000010508E+02 0.  0.
        -12    1    1    2    0    0 -0.20555288059E+02  0.72675696875E+01  0.23267633350E+02  0.31886050211E+02  0.00000000000E+00 0.  1.
         11    1    3    3    0    0  0.46815330780E+01  0.15945204272E+02  0.14077446030E+01  0.16677770726E+02  0.51100000000E-03 0. -1.
        -11    1    3    3    0    0  0.13618362195E+01  0.19619444971E+01  0.20481455827E+01  0.31462238775E+01  0.51100000000E-03 0.  1.
         12    1    3    3    0    0  0.14511918762E+02 -0.25174718457E+02 -0.26723523535E+02  0.39477955186E+02  0.00000000000E+00 0. -1.
</event>
<event>
 7    1  0.3528441E-013  0.5930193E+02  0.7816164E-02  0.1266605E+00
        -11   -1    0    0    0    0  0.00000000000E+00  0.00000000000E+00  0.45593999997E+02  0.45594000000E+02  0.51100000000E-03 0. -1.
         11   -1    0    0    0    0 -0.00000000000E+00 -0.00000000000E+00 -0.45593999997E+02  0.45594000000E+02  0.51100000000E-03 0.  1.
    9900012    2    1    2    0    0 -0.74328915081E+01  0.13423434926E+02  0.27951470259E+02  0.59301934532E+02  0.49999982682E+02 0.  0.
        -12    1    1    2    0    0  0.74328915081E+01 -0.13423434926E+02 -0.27951470259E+02  0.31886065468E+02  0.00000000000E+00 0.  1.
         11    1    3    3    0    0 -0.78741629543E+01  0.11894790196E+01  0.25646033663E+01  0.83662711679E+01  0.51100000000E-03 0. -1.
        -11    1    3    3    0    0 -0.12077288854E+02 -0.34184260008E+01 -0.58290529486E+01  0.13839234117E+02  0.51100000000E-03 0.  1.
         12    1    3    3    0    0  0.12518560301E+02  0.15652381907E+02  0.31215919841E+02  0.37096429247E+02  0.00000000000E+00 0. -1.
</event>
<event>
 7    1  0.3528441E-013  0.5930195E+02  0.7816164E-02  0.1266605E+00
        -11   -1    0    0    0    0  0.00000000000E+00  0.00000000000E+00  0.45593999997E+02  0.45594000000E+02  0.51100000000E-03 0. -1.
         11   -1    0    0    0    0 -0.00000000000E+00 -0.00000000000E+00 -0.45593999997E+02  0.45594000000E+02  0.51100000000E-03 0.  1.
    9900012    2    1    2    0    0 -0.17542044353E+02 -0.24435144519E+02  0.10579263628E+02  0.59301946204E+02  0.50000003969E+02 0.  0.
        -12    1    1    2    0    0  0.17542044353E+02  0.24435144519E+02 -0.10579263628E+02  0.31886053796E+02  0.00000000000E+00 0.  1.
         11    1    3    3    0    0 -0.91059957508E+01 -0.24914426186E+02 -0.24945845642E+00  0.26527533255E+02  0.51100000000E-03 0.  1.
        -11    1    3    3    0    0 -0.13381156098E+02 -0.81766417338E+01 -0.27584808987E+01  0.15922375002E+02  0.51100000000E-03 0. -1.
         12    1    3    3    0    0  0.49451074959E+01  0.86559234008E+01  0.13587202983E+02  0.16852037947E+02  0.00000000000E+00 0. -1.
</event>
<event>
 7    1  0.3528441E-013  0.5930195E+02  0.7816164E-02  0.1266605E+00
        -11   -1    0    0    0    0  0.00000000000E+00  0.00000000000E+00  0.45593999997E+02  0.45594000000E+02  0.51100000000E-03 0. -1.
         11   -1    0    0    0    0 -0.00000000000E+00 -0.00000000000E+00 -0.45593999997E+02  0.45594000000E+02  0.51100000000E-03 0.  1.
    9900012    2    1    2    0    0 -0.29017964844E+02 -0.12652065950E+02 -0.38214292295E+01  0.59301946970E+02  0.50000005365E+02 0.  0.
        -12    1    1    2    0    0  0.29017964844E+02  0.12652065950E+02  0.38214292295E+01  0.31886053030E+02  0.00000000000E+00 0.  1.
         11    1    3    3    0    0 -0.12137662120E+02  0.62162817689E+01 -0.10603251627E+01  0.13678058725E+02  0.51100000000E-03 0. -1.
        -11    1    3    3    0    0 -0.19617361024E+02 -0.15404159736E+01 -0.14563196151E+02  0.24480613091E+02  0.51100000000E-03 0.  1.
         12    1    3    3    0    0  0.27370582989E+01 -0.17327931745E+02  0.11802092084E+02  0.21143275154E+02  0.00000000000E+00 0. -1.
</event>
<event>
 7    1  0.3528441E-013  0.5930194E+02  0.7816164E-02  0.1266605E+00
        -11   -1    0    0    0    0  0.00000000000E+00  0.00000000000E+00  0.45593999997E+02  0.45594000000E+02  0.51100000000E-03 0.  1.
         11   -1    0    0    0    0 -0.00000000000E+00 -0.00000000000E+00 -0.45593999997E+02  0.45594000000E+02  0.51100000000E-03 0. -1.
    9900012    2    1    2    0    0 -0.26219723285E+02  0.15199315599E+02 -0.99110018344E+01  0.59301936568E+02  0.49999986396E+02 0.  0.
        -12    1    1    2    0    0  0.26219723285E+02 -0.15199315599E+02  0.99110018344E+01  0.31886063432E+02  0.00000000000E+00 0.  1.
         11    1    3    3    0    0 -0.76148311427E+01  0.11505390154E+02 -0.92031275789E+01  0.16584848911E+02  0.51100000000E-03 0. -1.
        -11    1    3    3    0    0 -0.15848796995E+02  0.19936527012E+02  0.35142210719E+01  0.25709905202E+02  0.51100000000E-03 0.  1.
        -12    1    3    3    0    0 -0.27560951470E+01 -0.16242601566E+02 -0.42220953274E+01  0.17007182455E+02  0.00000000000E+00 0.  1.
</event>
<event>
 7    1  0.3528441E-013  0.5930196E+02  0.7816164E-02  0.1266605E+00
        -11   -1    0    0    0    0  0.00000000000E+00  0.00000000000E+00  0.45593999997E+02  0.45594000000E+02  0.51100000000E-03 0. -1.
         11   -1    0    0    0    0 -0.00000000000E+00 -0.00000000000E+00 -0.45593999997E+02  0.45594000000E+02  0.51100000000E-03 0.  1.
    9900012    2    1    2    0    0  0.29858104143E+02 -0.49182349950E+01 -0.10051064296E+02  0.59301963684E+02  0.50000035848E+02 0.  0.
        -12    1    1    2    0    0 -0.29858104143E+02  0.49182349950E+01  0.10051064296E+02  0.31886036316E+02  0.00000000000E+00 0.  1.
         11    1    3    3    0    0  0.10548027122E+02 -0.28338918469E+01  0.60934000144E+01  0.12506851848E+02  0.51100000000E-03 0. -1.
        -11    1    3    3    0    0  0.17374076572E+02 -0.88022212557E+01  0.84467855127E+01  0.21229362250E+02  0.51100000000E-03 0.  1.
        -12    1    3    3    0    0  0.19360004491E+01  0.67178781077E+01 -0.24591249823E+02  0.25565749586E+02  0.00000000000E+00 0.  1.
</event>
<event>
 7    1  0.3528441E-013  0.5930194E+02  0.7816164E-02  0.1266605E+00
        -11   -1    0    0    0    0  0.00000000000E+00  0.00000000000E+00  0.45593999997E+02  0.45594000000E+02  0.51100000000E-03 0. -1.
         11   -1    0    0    0    0 -0.00000000000E+00 -0.00000000000E+00 -0.45593999997E+02  0.45594000000E+02  0.51100000000E-03 0.  1.
    9900012    2    1    2    0    0  0.48943806658E+01  0.14986232444E+02  0.27716032043E+02  0.59301944158E+02  0.50000000238E+02 0.  0.
        -12    1    1    2    0    0 -0.48943806658E+01 -0.14986232444E+02 -0.27716032043E+02  0.31886055842E+02  0.00000000000E+00 0.  1.
         11    1    3    3    0    0 -0.22294826817E+01  0.14177678990E+02  0.35398436804E+01  0.14782004874E+02  0.51100000000E-03 0. -1.
        -11    1    3    3    0    0 -0.33887675554E+01  0.10242722942E+02 -0.51608083193E+01  0.11959559423E+02  0.51100000000E-03 0.  1.
        -12    1    3    3    0    0  0.10512630903E+02 -0.94341694880E+01  0.29336996682E+02  0.32560379861E+02  0.00000000000E+00 0.  1.
</event>
<event>
 7    1  0.3528441E-013  0.5930193E+02  0.7816164E-02  0.1266605E+00
        -11   -1    0    0    0    0  0.00000000000E+00  0.00000000000E+00  0.45593999997E+02  0.45594000000E+02  0.51100000000E-03 0.  1.
         11   -1    0    0    0    0 -0.00000000000E+00 -0.00000000000E+00 -0.45593999997E+02  0.45594000000E+02  0.51100000000E-03 0. -1.
    9900012    2    1    2    0    0  0.31384883284E+02 -0.15201751515E+00 -0.56291604001E+01  0.59301930081E+02  0.49999974564E+02 0.  0.
        -12    1    1    2    0    0 -0.31384883284E+02  0.15201751515E+00  0.56291604001E+01  0.31886069919E+02  0.00000000000E+00 0.  1.
         11    1    3    3    0    0  0.52472736010E+01  0.13037198211E+02  0.27547446189E+01  0.14320999812E+02  0.51100000000E-03 0. -1.
        -11    1    3    3    0    0  0.14887966359E+02 -0.71218061019E+01  0.12357571958E+02  0.20617498621E+02  0.51100000000E-03 0.  1.
         12    1    3    3    0    0  0.11249643324E+02 -0.60674096241E+01 -0.20741476977E+02  0.24363431647E+02  0.00000000000E+00 0. -1.
</event>
<event>
 7    1  0.3528441E-013  0.5930193E+02  0.7816164E-02  0.1266605E+00
        -11   -1    0    0    0    0  0.00000000000E+00  0.00000000000E+00  0.45593999997E+02  0.45594000000E+02  0.51100000000E-03 0. -1.
         11   -1    0    0    0    0 -0.00000000000E+00 -0.00000000000E+00 -0.45593999997E+02  0.45594000000E+02  0.51100000000E-03 0.  1.
    9900012    2    1    2    0    0  0.93598689287E+01  0.17995691487E+02  0.24602224269E+02  0.59301929414E+02  0.49999973348E+02 0.  0.
        -12    1    1    2    0    0 -0.93598689287E+01 -0.17995691487E+02 -0.24602224269E+02  0.31886070586E+02  0.00000000000E+00 0.  1.
         11    1    3    3    0    0  0.23694462483E+02  0.16435068275E+02  0.10300411265E+02  0.30620866971E+02  0.51100000000E-03 0. -1.
        -11    1    3    3    0    0  0.18861501354E+01  0.26629584956E+01  0.11785983676E+02  0.12229403982E+02  0.51100000000E-03 0.  1.
        -12    1    3    3    0    0 -0.16220743690E+02 -0.11023352832E+01  0.25158293277E+01  0.16451658461E+02  0.00000000000E+00 0.  1.
</event>
<event>
 7    1  0.3528441E-013  0.5930195E+02  0.7816164E-02  0.1266605E+00
        -11   -1    0    0    0    0  0.00000000000E+00  0.00000000000E+00  0.45593999997E+02  0.45594000000E+02  0.51100000000E-03 0. -1.
         11   -1    0    0    0    0 -0.00000000000E+00 -0.00000000000E+00 -0.45593999997E+02  0.45594000000E+02  0.51100000000E-03 0.  1.
    9900012    2    1    2    0    0  0.19272587838E+02  0.24758495204E+02 -0.56837087921E+01  0.59301948624E+02  0.50000008383E+02 0.  0.
        -12    1    1    2    0    0 -0.19272587838E+02 -0.24758495204E+02  0.56837087921E+01  0.31886051376E+02  0.00000000000E+00 0.  1.
         11    1    3    3    0    0 -0.47735125473E+01  0.83791327554E+01  0.32127961122E+01  0.10164563291E+02  0.51100000000E-03 0. -1.
        -11    1    3    3    0    0 -0.42148778888E+01  0.19220284854E+02 -0.60787157590E+01  0.20594546148E+02  0.51100000000E-03 0.  1.
        -12    1    3    3    0    0  0.28260978274E+02 -0.28409224058E+01 -0.28177891453E+01  0.28542839185E+02  0.00000000000E+00 0.  1.
</event>
<event>
 7    1  0.3528441E-013  0.5930199E+02  0.7816164E-02  0.1266605E+00
        -11   -1    0    0    0    0  0.00000000000E+00  0.00000000000E+00  0.45593999997E+02  0.45594000000E+02  0.51100000000E-03 0.  1.
         11   -1    0    0    0    0 -0.00000000000E+00 -0.00000000000E+00 -0.45593999997E+02  0.45594000000E+02  0.51100000000E-03 0. -1.
    9900012    2    1    2    0    0  0.23620515010E+02  0.20843762104E+02 -0.49322042133E+01  0.59301987606E+02  0.50000079477E+02 0.  0.
        -12    1    1    2    0    0 -0.23620515010E+02 -0.20843762104E+02  0.49322042133E+01  0.31886012394E+02  0.00000000000E+00 0.  1.
         11    1    3    3    0    0 -0.81176853873E+01  0.12207804667E+02 -0.36393618307E+00  0.14664915978E+02  0.51100000000E-03 0.  1.
        -11    1    3    3    0    0 -0.44640847514E+01  0.65751652840E+01 -0.24411292711E+01  0.83138416847E+01  0.51100000000E-03 0. -1.
        -12    1    3    3    0    0  0.36202285148E+02  0.20607921531E+01 -0.21271387591E+01  0.36323229944E+02  0.00000000000E+00 0.  1.
</event>
<event>
 7    1  0.3528441E-013  0.5930204E+02  0.7816164E-02  0.1266604E+00
        -11   -1    0    0    0    0  0.00000000000E+00  0.00000000000E+00  0.45593999997E+02  0.45594000000E+02  0.51100000000E-03 0. -1.
         11   -1    0    0    0    0 -0.00000000000E+00 -0.00000000000E+00 -0.45593999997E+02  0.45594000000E+02  0.51100000000E-03 0.  1.
    9900012    2    1    2    0    0  0.15180693915E+02  0.13870985477E+02  0.24369179342E+02  0.59302037452E+02  0.50000170383E+02 0.  0.
        -12    1    1    2    0    0 -0.15180693915E+02 -0.13870985477E+02 -0.24369179342E+02  0.31885962548E+02  0.00000000000E+00 0.  1.
         11    1    3    3    0    0  0.48822787251E+01  0.95524486418E+01  0.55845138662E+01  0.12094325776E+02  0.51100000000E-03 0. -1.
        -11    1    3    3    0    0  0.22193640595E+02 -0.53468096713E+01 -0.17298909229E+00  0.22829279051E+02  0.51100000000E-03 0.  1.
         12    1    3    3    0    0 -0.11895225405E+02  0.96653465065E+01  0.18957654568E+02  0.24378432624E+02  0.00000000000E+00 0. -1.
</event>
<event>
 7    1  0.3528441E-013  0.5930188E+02  0.7816164E-02  0.1266605E+00
        -11   -1    0    0    0    0  0.00000000000E+00  0.00000000000E+00  0.45593999997E+02  0.45594000000E+02  0.51100000000E-03 0. -1.
         11   -1    0    0    0    0 -0.00000000000E+00 -0.00000000000E+00 -0.45593999997E+02  0.45594000000E+02  0.51100000000E-03 0.  1.
    9900012    2    1    2    0    0  0.10320621793E+02 -0.30092577748E+02  0.21555260465E+01  0.59301878219E+02  0.49999879981E+02 0.  0.
        -12    1    1    2    0    0 -0.10320621793E+02  0.30092577748E+02 -0.21555260465E+01  0.31886121781E+02  0.00000000000E+00 0.  1.
         11    1    3    3    0    0  0.96985964451E+01 -0.63989460955E+01  0.36598160982E+01  0.12182099091E+02  0.51100000000E-03 0. -1.
        -11    1    3    3    0    0  0.58717828877E+01 -0.11473618234E+02  0.18832141579E+02  0.22820414247E+02  0.51100000000E-03 0.  1.
        -12    1    3    3    0    0 -0.52497575395E+01 -0.12220013418E+02 -0.20336431631E+02  0.24299364881E+02  0.00000000000E+00 0.  1.
</event>
<event>
 7    1  0.3528441E-013  0.5930195E+02  0.7816164E-02  0.1266605E+00
        -11   -1    0    0    0    0  0.00000000000E+00  0.00000000000E+00  0.45593999997E+02  0.45594000000E+02  0.51100000000E-03 0.  1.
         11   -1    0    0    0    0 -0.00000000000E+00 -0.00000000000E+00 -0.45593999997E+02  0.45594000000E+02  0.51100000000E-03 0. -1.
    9900012    2    1    2    0    0  0.94796337092E+01 -0.23792956961E+02  0.18993472238E+02  0.59301949071E+02  0.50000009197E+02 0.  0.
        -12    1    1    2    0    0 -0.94796337092E+01  0.23792956961E+02 -0.18993472238E+02  0.31886050929E+02  0.00000000000E+00 0.  1.
         11    1    3    3    0    0  0.39156885308E+01  0.51718246284E+01 -0.19988170046E+00  0.64900184601E+01  0.51100000000E-03 0. -1.
        -11    1    3    3    0    0 -0.44921220751E+01  0.86514111896E+01  0.70319406267E+01  0.12019744820E+02  0.51100000000E-03 0.  1.
        -12    1    3    3    0    0  0.10056067253E+02 -0.37616192779E+02  0.12161413312E+02  0.40792185790E+02  0.00000000000E+00 0.  1.
</event>
<event>
 7    1  0.3528441E-013  0.5930194E+02  0.7816164E-02  0.1266605E+00
        -11   -1    0    0    0    0  0.00000000000E+00  0.00000000000E+00  0.45593999997E+02  0.45594000000E+02  0.51100000000E-03 0.  1.
         11   -1    0    0    0    0 -0.00000000000E+00 -0.00000000000E+00 -0.45593999997E+02  0.45594000000E+02  0.51100000000E-03 0. -1.
    9900012    2    1    2    0    0  0.29831219425E+02 -0.48204705053E+01 -0.10177547477E+02  0.59301936259E+02  0.49999985832E+02 0.  0.
        -12    1    1    2    0    0 -0.29831219425E+02  0.48204705053E+01  0.10177547477E+02  0.31886063741E+02  0.00000000000E+00 0.  1.
         11    1    3    3    0    0  0.10227202501E+02  0.42293887591E+00 -0.41568891148E+01  0.11047817688E+02  0.51100000000E-03 0. -1.
        -11    1    3    3    0    0  0.32922197136E+02 -0.20024841085E+01  0.69533071313E+00  0.32990369685E+02  0.51100000000E-03 0.  1.
        -12    1    3    3    0    0 -0.13318180213E+02 -0.32409252728E+01 -0.67159890753E+01  0.15263748886E+02  0.00000000000E+00 0.  1.
</event>
<event>
 7    1  0.3528441E-013  0.5930191E+02  0.7816164E-02  0.1266605E+00
        -11   -1    0    0    0    0  0.00000000000E+00  0.00000000000E+00  0.45593999997E+02  0.45594000000E+02  0.51100000000E-03 0. -1.
         11   -1    0    0    0    0 -0.00000000000E+00 -0.00000000000E+00 -0.45593999997E+02  0.45594000000E+02  0.51100000000E-03 0.  1.
    9900012    2    1    2    0    0  0.27531131841E+01  0.26410274305E+01  0.31657037439E+02  0.59301910909E+02  0.49999939600E+02 0.  0.
        -12    1    1    2    0    0 -0.27531131841E+01 -0.26410274305E+01 -0.31657037439E+02  0.31886089091E+02  0.00000000000E+00 0.  1.
         11    1    3    3    0    0  0.10420685633E+02 -0.13897640224E+02  0.11914994148E+02  0.21064239332E+02  0.51100000000E-03 0. -1.
        -11    1    3    3    0    0 -0.37105763145E+01  0.11311881338E+02 -0.47992321218E+01  0.12835874150E+02  0.51100000000E-03 0.  1.
         12    1    3    3    0    0 -0.39569961345E+01  0.52267863162E+01  0.24541275413E+02  0.25401797427E+02  0.00000000000E+00 0. -1.
</event>
<event>
 7    1  0.3528441E-013  0.5930194E+02  0.7816164E-02  0.1266605E+00
        -11   -1    0    0    0    0  0.00000000000E+00  0.00000000000E+00  0.45593999997E+02  0.45594000000E+02  0.51100000000E-03 0.  1.
         11   -1    0    0    0    0 -0.00000000000E+00 -0.00000000000E+00 -0.45593999997E+02  0.45594000000E+02  0.51100000000E-03 0. -1.
    9900012    2    1    2    0    0  0.28621848063E+02  0.13756922080E+02  0.28736033853E+01  0.59301942105E+02  0.49999996494E+02 0.  0.
        -12    1    1    2    0    0 -0.28621848063E+02 -0.13756922080E+02 -0.28736033853E+01  0.31886057895E+02  0.00000000000E+00 0.  1.
         11    1    3    3    0    0 -0.18898710665E+01 -0.47123763906E+01  0.87772988571E+01  0.10139974329E+02  0.51100000000E-03 0. -1.
        -11    1    3    3    0    0 -0.99649318859E+00 -0.77460559775E+01 -0.12792199086E+01  0.79139614428E+01  0.51100000000E-03 0.  1.
         12    1    3    3    0    0  0.31508212318E+02  0.26215354448E+02 -0.46244755632E+01  0.41248006334E+02  0.00000000000E+00 0. -1.
</event>
<event>
 7    1  0.3528441E-013  0.5930199E+02  0.7816164E-02  0.1266605E+00
        -11   -1    0    0    0    0  0.00000000000E+00  0.00000000000E+00  0.45593999997E+02  0.45594000000E+02  0.51100000000E-03 0. -1.
         11   -1    0    0    0    0 -0.00000000000E+00 -0.00000000000E+00 -0.45593999997E+02  0.45594000000E+02  0.51100000000E-03 0.  1.
    9900012    2    1    2    0    0 -0.23454637494E+02  0.21523680674E+02  0.18244988941E+01  0.59301989808E+02  0.50000083493E+02 0.  0.
        -12    1    1    2    0    0  0.23454637494E+02 -0.21523680674E+02 -0.18244988941E+01  0.31886010192E+02  0.00000000000E+00 0.  1.
         11    1    3    3    0    0 -0.38539311421E+01 -0.11846098383E+02  0.58722200989E+01  0.13771920755E+02  0.51100000000E-03 0. -1.
        -11    1    3    3    0    0  0.24131725925E+01 -0.10169223402E+01 -0.39031378796E+01  0.47002147371E+01  0.51100000000E-03 0.  1.
        -12    1    3    3    0    0 -0.22013878945E+02  0.34386701396E+02 -0.14458332528E+00  0.40829854316E+02  0.00000000000E+00 0.  1.
</event>
<event>
 7    1  0.3528441E-013  0.5930199E+02  0.7816164E-02  0.1266605E+00
        -11   -1    0    0    0    0  0.00000000000E+00  0.00000000000E+00  0.45593999997E+02  0.45594000000E+02  0.51100000000E-03 0.  1.
         11   -1    0    0    0    0 -0.00000000000E+00 -0.00000000000E+00 -0.45593999997E+02  0.45594000000E+02  0.51100000000E-03 0. -1.
    9900012    2    1    2    0    0  0.11192638725E+02 -0.22317629351E+02 -0.19833456487E+02  0.59301988369E+02  0.50000080868E+02 0.  0.
        -12    1    1    2    0    0 -0.11192638725E+02  0.22317629351E+02  0.19833456487E+02  0.31886011631E+02  0.00000000000E+00 0.  1.
         11    1    3    3    0    0  0.21581234605E+02 -0.17682051069E+02 -0.90555917536E+01  0.29332718240E+02  0.51100000000E-03 0. -1.
        -11    1    3    3    0    0  0.59993116894E+01 -0.79323314378E+01  0.24037706595E+00  0.99484372733E+01  0.51100000000E-03 0.  1.
        -12    1    3    3    0    0 -0.16387907570E+02  0.32967531554E+01 -0.11018241800E+02  0.20020832856E+02  0.00000000000E+00 0.  1.
</event>
<event>
 7    1  0.3528441E-013  0.5930194E+02  0.7816164E-02  0.1266605E+00
        -11   -1    0    0    0    0  0.00000000000E+00  0.00000000000E+00  0.45593999997E+02  0.45594000000E+02  0.51100000000E-03 0. -1.
         11   -1    0    0    0    0 -0.00000000000E+00 -0.00000000000E+00 -0.45593999997E+02  0.45594000000E+02  0.51100000000E-03 0.  1.
    9900012    2    1    2    0    0  0.31712685892E+02  0.18229554096E+01  0.27754820851E+01  0.59301938567E+02  0.49999990041E+02 0.  0.
        -12    1    1    2    0    0 -0.31712685892E+02 -0.18229554096E+01 -0.27754820851E+01  0.31886061433E+02  0.00000000000E+00 0.  1.
         11    1    3    3    0    0  0.38665175378E+02 -0.62044498206E+01 -0.99060253517E+01  0.40393320279E+02  0.51100000000E-03 0. -1.
        -11    1    3    3    0    0  0.40423195075E+00  0.32604875245E+01  0.86634529397E+01  0.92655058938E+01  0.51100000000E-03 0.  1.
        -12    1    3    3    0    0 -0.73567214367E+01  0.47669177057E+01  0.40180544971E+01  0.96431123945E+01  0.00000000000E+00 0.  1.
</event>
<event>
 7    1  0.3528441E-013  0.5930197E+02  0.7816164E-02  0.1266605E+00
        -11   -1    0    0    0    0  0.00000000000E+00  0.00000000000E+00  0.45593999997E+02  0.45594000000E+02  0.51100000000E-03 0.  1.
         11   -1    0    0    0    0 -0.00000000000E+00 -0.00000000000E+00 -0.45593999997E+02  0.45594000000E+02  0.51100000000E-03 0. -1.
    9900012    2    1    2    0    0 -0.26980756481E+02  0.64871275117E+01 -0.15705887351E+02  0.59301969499E+02  0.50000046454E+02 0.  0.
        -12    1    1    2    0    0  0.26980756481E+02 -0.64871275117E+01  0.15705887351E+02  0.31886030501E+02  0.00000000000E+00 0.  1.
         11    1    3    3    0    0 -0.14534329514E+01 -0.68365904151E+01 -0.60880796908E+01  0.92690965272E+01  0.51100000000E-03 0. -1.
        -11    1    3    3    0    0 -0.66639563536E+01 -0.13558690392E+02 -0.81355339107E+01  0.17159059173E+02  0.51100000000E-03 0.  1.
        -12    1    3    3    0    0 -0.18863367176E+02  0.26882408319E+02 -0.14822737494E+01  0.32873813799E+02  0.00000000000E+00 0.  1.
</event>
<event>
 7    1  0.3528441E-013  0.5930194E+02  0.7816164E-02  0.1266605E+00
        -11   -1    0    0    0    0  0.00000000000E+00  0.00000000000E+00  0.45593999997E+02  0.45594000000E+02  0.51100000000E-03 0. -1.
         11   -1    0    0    0    0 -0.00000000000E+00 -0.00000000000E+00 -0.45593999997E+02  0.45594000000E+02  0.51100000000E-03 0.  1.
    9900012    2    1    2    0    0  0.22140503879E+01 -0.11392788117E+01  0.31788690284E+02  0.59301940266E+02  0.49999993140E+02 0.  0.
        -12    1    1    2    0    0 -0.22140503879E+01  0.11392788117E+01 -0.31788690284E+02  0.31886059734E+02  0.00000000000E+00 0.  1.
         11    1    3    3    0    0  0.56847785915E+00 -0.14159756396E+02  0.40808368014E+01  0.14747036906E+02  0.51100000000E-03 0. -1.
        -11    1    3    3    0    0  0.75249227809E+00 -0.77495603314E+01 -0.22370151299E+01  0.81009978961E+01  0.51100000000E-03 0.  1.
         12    1    3    3    0    0  0.89308025067E+00  0.20770037915E+02  0.29944868613E+02  0.36453905464E+02  0.00000000000E+00 0. -1.
</event>
<event>
 7    1  0.3528441E-013  0.5930195E+02  0.7816164E-02  0.1266605E+00
        -11   -1    0    0    0    0  0.00000000000E+00  0.00000000000E+00  0.45593999997E+02  0.45594000000E+02  0.51100000000E-03 0.  1.
         11   -1    0    0    0    0 -0.00000000000E+00 -0.00000000000E+00 -0.45593999997E+02  0.45594000000E+02  0.51100000000E-03 0. -1.
    9900012    2    1    2    0    0 -0.99809656608E+00 -0.31836383952E+02 -0.14726367858E+01  0.59301949774E+02  0.50000010480E+02 0.  0.
        -12    1    1    2    0    0  0.99809656608E+00  0.31836383952E+02  0.14726367858E+01  0.31886050226E+02  0.00000000000E+00 0.  1.
         11    1    3    3    0    0 -0.27405929511E+01 -0.28850716151E+02 -0.12530239730E+02  0.31573431554E+02  0.51100000000E-03 0. -1.
        -11    1    3    3    0    0  0.14093788893E+01 -0.56420022966E+01 -0.72115934009E+01  0.92642116993E+01  0.51100000000E-03 0.  1.
        -12    1    3    3    0    0  0.33311749577E+00  0.26563344951E+01  0.18269196345E+02  0.18464306521E+02  0.00000000000E+00 0.  1.
</event>
<event>
 7    1  0.3528441E-013  0.5930197E+02  0.7816164E-02  0.1266605E+00
        -11   -1    0    0    0    0  0.00000000000E+00  0.00000000000E+00  0.45593999997E+02  0.45594000000E+02  0.51100000000E-03 0.  1.
         11   -1    0    0    0    0 -0.00000000000E+00 -0.00000000000E+00 -0.45593999997E+02  0.45594000000E+02  0.51100000000E-03 0. -1.
    9900012    2    1    2    0    0 -0.22721632031E+00 -0.23794662362E+02 -0.21224549752E+02  0.59301967064E+02  0.50000042013E+02 0.  0.
        -12    1    1    2    0    0  0.22721632031E+00  0.23794662362E+02  0.21224549752E+02  0.31886032936E+02  0.00000000000E+00 0.  1.
         11    1    3    3    0    0 -0.34728524501E+01  0.23688074575E+01 -0.93110994543E+01  0.10216091533E+02  0.51100000000E-03 0. -1.
        -11    1    3    3    0    0 -0.14114234308E+02  0.10991696791E+01  0.11970528061E+01  0.14207488159E+02  0.51100000000E-03 0.  1.
         12    1    3    3    0    0  0.17359870438E+02 -0.27262639499E+02 -0.13110503104E+02  0.34878387372E+02  0.00000000000E+00 0. -1.
</event>
<event>
 7    1  0.3528441E-013  0.5930197E+02  0.7816164E-02  0.1266605E+00
        -11   -1    0    0    0    0  0.00000000000E+00  0.00000000000E+00  0.45593999997E+02  0.45594000000E+02  0.51100000000E-03 0. -1.
         11   -1    0    0    0    0 -0.00000000000E+00 -0.00000000000E+00 -0.45593999997E+02  0.45594000000E+02  0.51100000000E-03 0.  1.
    9900012    2    1    2    0    0  0.99717649189E+01  0.22835050609E+02  0.19895812107E+02  0.59301969025E+02  0.50000045590E+02 0.  0.
        -12    1    1    2    0    0 -0.99717649189E+01 -0.22835050609E+02 -0.19895812107E+02  0.31886030975E+02  0.00000000000E+00 0.  1.
         11    1    3    3    0    0  0.22513736972E+01  0.14390861790E+02 -0.62938164342E+01  0.15867504913E+02  0.51100000000E-03 0.  1.
        -11    1    3    3    0    0  0.14739017048E+01  0.20721288295E+02  0.14101021719E+02  0.25107428953E+02  0.51100000000E-03 0. -1.
        -12    1    3    3    0    0  0.62464895170E+01 -0.12277099476E+02  0.12088606823E+02  0.18327035160E+02  0.00000000000E+00 0.  1.
</event>
<event>
 7    1  0.3528441E-013  0.5930188E+02  0.7816164E-02  0.1266605E+00
        -11   -1    0    0    0    0  0.00000000000E+00  0.00000000000E+00  0.45593999997E+02  0.45594000000E+02  0.51100000000E-03 0. -1.
         11   -1    0    0    0    0 -0.00000000000E+00 -0.00000000000E+00 -0.45593999997E+02  0.45594000000E+02  0.51100000000E-03 0.  1.
    9900012    2    1    2    0    0 -0.11471056288E+02  0.28887458450E+02  0.71171811536E+01  0.59301879890E+02  0.49999883029E+02 0.  0.
        -12    1    1    2    0    0  0.11471056288E+02 -0.28887458450E+02 -0.71171811536E+01  0.31886120110E+02  0.00000000000E+00 0.  1.
         11    1    3    3    0    0 -0.92374776152E+01  0.82215798845E+01  0.16958834136E+02  0.20988745175E+02  0.51100000000E-03 0. -1.
        -11    1    3    3    0    0 -0.23776620763E+01 -0.36694475693E+01 -0.13053510324E+02  0.13766344993E+02  0.51100000000E-03 0.  1.
         12    1    3    3    0    0  0.14408340305E+00  0.24335326135E+02  0.32118573415E+01  0.24546789723E+02  0.00000000000E+00 0. -1.
</event>
<event>
 7    1  0.3528441E-013  0.5930183E+02  0.7816164E-02  0.1266605E+00
        -11   -1    0    0    0    0  0.00000000000E+00  0.00000000000E+00  0.45593999997E+02  0.45594000000E+02  0.51100000000E-03 0.  1.
         11   -1    0    0    0    0 -0.00000000000E+00 -0.00000000000E+00 -0.45593999997E+02  0.45594000000E+02  0.51100000000E-03 0. -1.
    9900012    2    1    2    0    0  0.14891364004E+02  0.10038290706E+02 -0.26347820661E+02  0.59301832845E+02  0.49999797230E+02 0.  0.
        -12    1    1    2    0    0 -0.14891364004E+02 -0.10038290706E+02  0.26347820661E+02  0.31886167155E+02  0.00000000000E+00 0.  1.
         11    1    3    3    0    0 -0.13320576321E+00  0.16822466869E+02  0.59289387187E+01  0.17837192883E+02  0.51100000000E-03 0. -1.
        -11    1    3    3    0    0  0.37868243294E+01  0.69710411501E+01 -0.13188282898E+02  0.15390460009E+02  0.51100000000E-03 0.  1.
        -12    1    3    3    0    0  0.11237745438E+02 -0.13755217314E+02 -0.19088476482E+02  0.26074179954E+02  0.00000000000E+00 0.  1.
</event>
<event>
 7    1  0.3528441E-013  0.5930195E+02  0.7816164E-02  0.1266605E+00
        -11   -1    0    0    0    0  0.00000000000E+00  0.00000000000E+00  0.45593999997E+02  0.45594000000E+02  0.51100000000E-03 0.  1.
         11   -1    0    0    0    0 -0.00000000000E+00 -0.00000000000E+00 -0.45593999997E+02  0.45594000000E+02  0.51100000000E-03 0. -1.
    9900012    2    1    2    0    0 -0.31162870133E+02  0.49970157302E+01  0.45415216274E+01  0.59301951957E+02  0.50000014460E+02 0.  0.
        -12    1    1    2    0    0  0.31162870133E+02 -0.49970157302E+01 -0.45415216274E+01  0.31886048043E+02  0.00000000000E+00 0.  1.
         11    1    3    3    0    0 -0.31981299053E+02  0.21634095752E+01  0.34914677765E+01  0.32243978936E+02  0.51100000000E-03 0. -1.
        -11    1    3    3    0    0 -0.93215272698E+01  0.10304832982E+02  0.32544504926E+01  0.14271366497E+02  0.51100000000E-03 0.  1.
        -12    1    3    3    0    0  0.10139956190E+02 -0.74712268267E+01 -0.22043966418E+01  0.12786606524E+02  0.00000000000E+00 0.  1.
</event>
<event>
 7    1  0.3528441E-013  0.5930196E+02  0.7816164E-02  0.1266605E+00
        -11   -1    0    0    0    0  0.00000000000E+00  0.00000000000E+00  0.45593999997E+02  0.45594000000E+02  0.51100000000E-03 0.  1.
         11   -1    0    0    0    0 -0.00000000000E+00 -0.00000000000E+00 -0.45593999997E+02  0.45594000000E+02  0.51100000000E-03 0. -1.
    9900012    2    1    2    0    0  0.19195055908E+02  0.25460519976E+02  0.17742923412E+00  0.59301957131E+02  0.50000023897E+02 0.  0.
        -12    1    1    2    0    0 -0.19195055908E+02 -0.25460519976E+02 -0.17742923412E+00  0.31886042869E+02  0.00000000000E+00 0.  1.
         11    1    3    3    0    0  0.20298232290E+02  0.28350906040E+02 -0.71648102848E+01  0.35596721957E+02  0.51100000000E-03 0. -1.
        -11    1    3    3    0    0 -0.89414660191E+00  0.35728755078E+01 -0.70349159974E+01  0.79407166485E+01  0.51100000000E-03 0.  1.
        -12    1    3    3    0    0 -0.20902978011E+00 -0.64632615726E+01  0.14377155516E+02  0.15764518526E+02  0.00000000000E+00 0.  1.
</event>
<event>
 7    1  0.3528441E-013  0.5930197E+02  0.7816164E-02  0.1266605E+00
        -11   -1    0    0    0    0  0.00000000000E+00  0.00000000000E+00  0.45593999997E+02  0.45594000000E+02  0.51100000000E-03 0. -1.
         11   -1    0    0    0    0 -0.00000000000E+00 -0.00000000000E+00 -0.45593999997E+02  0.45594000000E+02  0.51100000000E-03 0.  1.
    9900012    2    1    2    0    0  0.21172951730E+02 -0.10814238533E+02  0.21247998837E+02  0.59301967092E+02  0.50000042064E+02 0.  0.
        -12    1    1    2    0    0 -0.21172951730E+02  0.10814238533E+02 -0.21247998837E+02  0.31886032908E+02  0.00000000000E+00 0.  1.
         11    1    3    3    0    0 -0.29327688799E+01 -0.15234375967E+01  0.19468092351E+01  0.38356305704E+01  0.51100000000E-03 0. -1.
        -11    1    3    3    0    0 -0.88126286429E+01 -0.13157636378E+02  0.15405783991E+02  0.22093528448E+02  0.51100000000E-03 0.  1.
        -12    1    3    3    0    0  0.32918349252E+02  0.38668354412E+01  0.38954056109E+01  0.33372808073E+02  0.00000000000E+00 0.  1.
</event>
<event>
 7    1  0.3528441E-013  0.5930191E+02  0.7816164E-02  0.1266605E+00
        -11   -1    0    0    0    0  0.00000000000E+00  0.00000000000E+00  0.45593999997E+02  0.45594000000E+02  0.51100000000E-03 0.  1.
         11   -1    0    0    0    0 -0.00000000000E+00 -0.00000000000E+00 -0.45593999997E+02  0.45594000000E+02  0.51100000000E-03 0. -1.
    9900012    2    1    2    0    0 -0.14310437587E+02  0.12164936943E+01 -0.28468480700E+02  0.59301907825E+02  0.49999933975E+02 0.  0.
        -12    1    1    2    0    0  0.14310437587E+02 -0.12164936943E+01  0.28468480700E+02  0.31886092175E+02  0.00000000000E+00 0.  1.
         11    1    3    3    0    0  0.61386058568E+01 -0.41318277074E+01 -0.26280126555E+01  0.78524475705E+01  0.51100000000E-03 0. -1.
        -11    1    3    3    0    0 -0.10975471124E+02  0.24312702430E+01  0.95168238415E+01  0.14728950325E+02  0.51100000000E-03 0.  1.
         12    1    3    3    0    0 -0.94735723198E+01  0.29170511588E+01 -0.35357291886E+02  0.36720509929E+02  0.00000000000E+00 0. -1.
</event>
<event>
 7    1  0.3528441E-013  0.5930194E+02  0.7816164E-02  0.1266605E+00
        -11   -1    0    0    0    0  0.00000000000E+00  0.00000000000E+00  0.45593999997E+02  0.45594000000E+02  0.51100000000E-03 0.  1.
         11   -1    0    0    0    0 -0.00000000000E+00 -0.00000000000E+00 -0.45593999997E+02  0.45594000000E+02  0.51100000000E-03 0. -1.
    9900012    2    1    2    0    0 -0.20141562846E+02  0.14625275939E+02 -0.19928368789E+02  0.59301935132E+02  0.49999983777E+02 0.  0.
        -12    1    1    2    0    0  0.20141562846E+02 -0.14625275939E+02  0.19928368789E+02  0.31886064868E+02  0.00000000000E+00 0.  1.
         11    1    3    3    0    0 -0.19641523999E+02  0.42973447034E+01 -0.62318614993E+01  0.21049768039E+02  0.51100000000E-03 0. -1.
        -11    1    3    3    0    0 -0.16209394954E+02  0.96845939705E+01 -0.27198034452E+01  0.19077032689E+02  0.51100000000E-03 0.  1.
        -12    1    3    3    0    0  0.15709356107E+02  0.64333726475E+00 -0.10976703845E+02  0.19175134405E+02  0.00000000000E+00 0.  1.
</event>
<event>
 7    1  0.3528441E-013  0.5930195E+02  0.7816164E-02  0.1266605E+00
        -11   -1    0    0    0    0  0.00000000000E+00  0.00000000000E+00  0.45593999997E+02  0.45594000000E+02  0.51100000000E-03 0.  1.
         11   -1    0    0    0    0 -0.00000000000E+00 -0.00000000000E+00 -0.45593999997E+02  0.45594000000E+02  0.51100000000E-03 0. -1.
    9900012    2    1    2    0    0 -0.15763041216E+02 -0.11606333100E+02 -0.25170215700E+02  0.59301949840E+02  0.50000010601E+02 0.  0.
        -12    1    1    2    0    0  0.15763041216E+02  0.11606333100E+02  0.25170215700E+02  0.31886050160E+02  0.00000000000E+00 0.  1.
         11    1    3    3    0    0 -0.13909315949E+02 -0.17726529685E+02 -0.30630064333E+02  0.38024988706E+02  0.51100000000E-03 0. -1.
        -11    1    3    3    0    0  0.85954551964E+00 -0.60626550464E+01 -0.23442068894E+01  0.65566691935E+01  0.51100000000E-03 0.  1.
        -12    1    3    3    0    0 -0.27132707864E+01  0.12182851631E+02  0.78040555220E+01  0.14720291941E+02  0.00000000000E+00 0.  1.
</event>
<event>
 7    1  0.3528441E-013  0.5930200E+02  0.7816164E-02  0.1266605E+00
        -11   -1    0    0    0    0  0.00000000000E+00  0.00000000000E+00  0.45593999997E+02  0.45594000000E+02  0.51100000000E-03 0.  1.
         11   -1    0    0    0    0 -0.00000000000E+00 -0.00000000000E+00 -0.45593999997E+02  0.45594000000E+02  0.51100000000E-03 0. -1.
    9900012    2    1    2    0    0 -0.18836728802E+02 -0.20578904271E+02 -0.15440320676E+02  0.59301997499E+02  0.50000097519E+02 0.  0.
        -12    1    1    2    0    0  0.18836728802E+02  0.20578904271E+02  0.15440320676E+02  0.31886002501E+02  0.00000000000E+00 0.  1.
         11    1    3    3    0    0  0.76442988234E+01  0.19191921450E+01 -0.40381514689E+01  0.88558043416E+01  0.51100000000E-03 0. -1.
        -11    1    3    3    0    0 -0.35197175488E+01  0.78241779454E+01 -0.88495655366E+01  0.12325623010E+02  0.51100000000E-03 0.  1.
         12    1    3    3    0    0 -0.22961310076E+02 -0.30322274361E+02 -0.25526036701E+01  0.38120570147E+02  0.00000000000E+00 0. -1.
</event>
<event>
 7    1  0.3528441E-013  0.5930195E+02  0.7816164E-02  0.1266605E+00
        -11   -1    0    0    0    0  0.00000000000E+00  0.00000000000E+00  0.45593999997E+02  0.45594000000E+02  0.51100000000E-03 0. -1.
         11   -1    0    0    0    0 -0.00000000000E+00 -0.00000000000E+00 -0.45593999997E+02  0.45594000000E+02  0.51100000000E-03 0.  1.
    9900012    2    1    2    0    0  0.31785882097E+02  0.27890285920E+00  0.25100396466E+01  0.59301946834E+02  0.50000005118E+02 0.  0.
        -12    1    1    2    0    0 -0.31785882097E+02 -0.27890285920E+00 -0.25100396466E+01  0.31886053166E+02  0.00000000000E+00 0.  1.
         11    1    3    3    0    0  0.27088488708E+02  0.47087242422E+01 -0.91751606318E+01  0.28985201006E+02  0.51100000000E-03 0. -1.
        -11    1    3    3    0    0 -0.16347698351E+00  0.25737803558E+01 -0.82454475498E+01  0.86393562030E+01  0.51100000000E-03 0.  1.
         12    1    3    3    0    0  0.48608703720E+01 -0.70036017388E+01  0.19930647828E+02  0.21677389625E+02  0.00000000000E+00 0. -1.
</event>
<event>
 7    1  0.3528441E-013  0.5930195E+02  0.7816164E-02  0.1266605E+00
        -11   -1    0    0    0    0  0.00000000000E+00  0.00000000000E+00  0.45593999997E+02  0.45594000000E+02  0.51100000000E-03 0.  1.
         11   -1    0    0    0    0 -0.00000000000E+00 -0.00000000000E+00 -0.45593999997E+02  0.45594000000E+02  0.51100000000E-03 0. -1.
    9900012    2    1    2    0    0 -0.72614309058E+01  0.29620279743E+02  0.93075644089E+01  0.59301951231E+02  0.50000013138E+02 0.  0.
        -12    1    1    2    0    0  0.72614309058E+01 -0.29620279743E+02 -0.93075644089E+01  0.31886048769E+02  0.00000000000E+00 0.  1.
         11    1    3    3    0    0  0.52596221812E+01  0.19142899801E+01 -0.18389854800E+01  0.58915192840E+01  0.51100000000E-03 0. -1.
        -11    1    3    3    0    0  0.20753596031E+01 -0.10141042817E+02  0.72955800780E+01  0.12663860227E+02  0.51100000000E-03 0.  1.
         12    1    3    3    0    0 -0.14596412690E+02  0.37847032580E+02  0.38509698109E+01  0.40746571721E+02  0.00000000000E+00 0. -1.
</event>
<event>
 7    1  0.3528441E-013  0.5930199E+02  0.7816164E-02  0.1266605E+00
        -11   -1    0    0    0    0  0.00000000000E+00  0.00000000000E+00  0.45593999997E+02  0.45594000000E+02  0.51100000000E-03 0. -1.
         11   -1    0    0    0    0 -0.00000000000E+00 -0.00000000000E+00 -0.45593999997E+02  0.45594000000E+02  0.51100000000E-03 0.  1.
    9900012    2    1    2    0    0  0.70803326518E+01  0.30129399782E+02  0.76684924806E+01  0.59301990237E+02  0.50000084275E+02 0.  0.
        -12    1    1    2    0    0 -0.70803326518E+01 -0.30129399782E+02 -0.76684924806E+01  0.31886009763E+02  0.00000000000E+00 0.  1.
         11    1    3    3    0    0 -0.10907958225E+02  0.64174096145E+01 -0.67388714791E+01  0.14338029428E+02  0.51100000000E-03 0. -1.
        -11    1    3    3    0    0 -0.78595453316E+01  0.30757115251E+01 -0.95768241602E+00  0.84940926576E+01  0.51100000000E-03 0.  1.
        -12    1    3    3    0    0  0.25847836209E+02  0.20636278642E+02  0.15365046376E+02  0.36469868152E+02  0.00000000000E+00 0.  1.
</event>
<event>
 7    1  0.3528441E-013  0.5930194E+02  0.7816164E-02  0.1266605E+00
        -11   -1    0    0    0    0  0.00000000000E+00  0.00000000000E+00  0.45593999997E+02  0.45594000000E+02  0.51100000000E-03 0. -1.
         11   -1    0    0    0    0 -0.00000000000E+00 -0.00000000000E+00 -0.45593999997E+02  0.45594000000E+02  0.51100000000E-03 0.  1.
    9900012    2    1    2    0    0  0.17703230841E+02 -0.64627216112E+01  0.25720611656E+02  0.59301936951E+02  0.49999987093E+02 0.  0.
        -12    1    1    2    0    0 -0.17703230841E+02  0.64627216112E+01 -0.25720611656E+02  0.31886063049E+02  0.00000000000E+00 0.  1.
         11    1    3    3    0    0 -0.31590929693E+01 -0.21445532529E+01 -0.59357358539E+01  0.70577572522E+01  0.51100000000E-03 0.  1.
        -11    1    3    3    0    0  0.92143585937E+01  0.61600484875E+01  0.34574188144E+02  0.36307369606E+02  0.51100000000E-03 0. -1.
         12    1    3    3    0    0  0.11647965216E+02 -0.10478216846E+02 -0.29178406336E+01  0.15936810092E+02  0.00000000000E+00 0. -1.
</event>
<event>
 7    1  0.3528441E-013  0.5930189E+02  0.7816164E-02  0.1266605E+00
        -11   -1    0    0    0    0  0.00000000000E+00  0.00000000000E+00  0.45593999997E+02  0.45594000000E+02  0.51100000000E-03 0. -1.
         11   -1    0    0    0    0 -0.00000000000E+00 -0.00000000000E+00 -0.45593999997E+02  0.45594000000E+02  0.51100000000E-03 0.  1.
    9900012    2    1    2    0    0  0.16325984010E+01 -0.27184823426E+02  0.16584443177E+02  0.59301893971E+02  0.49999908708E+02 0.  0.
        -12    1    1    2    0    0 -0.16325984010E+01  0.27184823426E+02 -0.16584443177E+02  0.31886106029E+02  0.00000000000E+00 0.  1.
         11    1    3    3    0    0  0.11894751660E+02 -0.67434655652E+01  0.19105351828E+02  0.23494125088E+02  0.51100000000E-03 0. -1.
        -11    1    3    3    0    0  0.46606031746E+01 -0.90504986617E+00  0.78114411677E+01  0.91410585048E+01  0.51100000000E-03 0.  1.
        -12    1    3    3    0    0 -0.14922756434E+02 -0.19536307994E+02 -0.10332349819E+02  0.26666710379E+02  0.00000000000E+00 0.  1.
</event>
<event>
 7    1  0.3528441E-013  0.5930195E+02  0.7816164E-02  0.1266605E+00
        -11   -1    0    0    0    0  0.00000000000E+00  0.00000000000E+00  0.45593999997E+02  0.45594000000E+02  0.51100000000E-03 0.  1.
         11   -1    0    0    0    0 -0.00000000000E+00 -0.00000000000E+00 -0.45593999997E+02  0.45594000000E+02  0.51100000000E-03 0. -1.
    9900012    2    1    2    0    0  0.16423268503E+02 -0.48661729820E+01 -0.26894554903E+02  0.59301945505E+02  0.50000002694E+02 0.  0.
        -12    1    1    2    0    0 -0.16423268503E+02  0.48661729820E+01  0.26894554903E+02  0.31886054495E+02  0.00000000000E+00 0.  1.
         11    1    3    3    0    0 -0.60832012441E+01 -0.62131608815E+01 -0.16188882002E+02  0.18376305566E+02  0.51100000000E-03 0. -1.
        -11    1    3    3    0    0  0.15629272281E+02  0.19852145906E+00 -0.22397707039E+02  0.27312466818E+02  0.51100000000E-03 0.  1.
        -12    1    3    3    0    0  0.68771974654E+01  0.11484664405E+01  0.11692034138E+02  0.13613173121E+02  0.00000000000E+00 0.  1.
</event>
<event>
 7    1  0.3528441E-013  0.5930215E+02  0.7816164E-02  0.1266604E+00
        -11   -1    0    0    0    0  0.00000000000E+00  0.00000000000E+00  0.45593999997E+02  0.45594000000E+02  0.51100000000E-03 0.  1.
         11   -1    0    0    0    0 -0.00000000000E+00 -0.00000000000E+00 -0.45593999997E+02  0.45594000000E+02  0.51100000000E-03 0. -1.
    9900012    2    1    2    0    0  0.43201897729E+01 -0.62878760812E+01 -0.30959748646E+02  0.59302149510E+02  0.50000374748E+02 0.  0.
        -12    1    1    2    0    0 -0.43201897729E+01  0.62878760812E+01  0.30959748646E+02  0.31885850490E+02  0.00000000000E+00 0.  1.
         11    1    3    3    0    0 -0.11936349383E+02 -0.72373942342E+01 -0.11208096826E+02  0.17901892263E+02  0.51100000000E-03 0. -1.
        -11    1    3    3    0    0  0.73407284217E+00  0.81975308621E+01 -0.22583510523E+02  0.24036499807E+02  0.51100000000E-03 0.  1.
        -12    1    3    3    0    0  0.15522466314E+02 -0.72480127091E+01  0.28318587030E+01  0.17363757439E+02  0.00000000000E+00 0.  1.
</event>
<event>
 7    1  0.3528441E-013  0.5930191E+02  0.7816164E-02  0.1266605E+00
        -11   -1    0    0    0    0  0.00000000000E+00  0.00000000000E+00  0.45593999997E+02  0.45594000000E+02  0.51100000000E-03 0.  1.
         11   -1    0    0    0    0 -0.00000000000E+00 -0.00000000000E+00 -0.45593999997E+02  0.45594000000E+02  0.51100000000E-03 0. -1.
    9900012    2    1    2    0    0 -0.20807909305E+02 -0.70216358763E+01 -0.23118176540E+02  0.59301912962E+02  0.49999943344E+02 0.  0.
        -12    1    1    2    0    0  0.20807909305E+02  0.70216358763E+01  0.23118176540E+02  0.31886087038E+02  0.00000000000E+00 0.  1.
         11    1    3    3    0    0 -0.37049724613E+01  0.37848368636E+00  0.79088718466E+01  0.87418719384E+01  0.51100000000E-03 0. -1.
        -11    1    3    3    0    0 -0.32059660290E+01  0.67172363669E+01  0.53311778239E+01  0.91553776459E+01  0.51100000000E-03 0.  1.
         12    1    3    3    0    0 -0.13896970815E+02 -0.14117355930E+02 -0.36358226211E+02  0.41404663378E+02  0.00000000000E+00 0. -1.
</event>
<event>
 7    1  0.3528441E-013  0.5930193E+02  0.7816164E-02  0.1266605E+00
        -11   -1    0    0    0    0  0.00000000000E+00  0.00000000000E+00  0.45593999997E+02  0.45594000000E+02  0.51100000000E-03 0.  1.
         11   -1    0    0    0    0 -0.00000000000E+00 -0.00000000000E+00 -0.45593999997E+02  0.45594000000E+02  0.51100000000E-03 0. -1.
    9900012    2    1    2    0    0  0.11524584875E+00 -0.92521714800E+01 -0.30514016906E+02  0.59301934290E+02  0.49999982241E+02 0.  0.
        -12    1    1    2    0    0 -0.11524584875E+00  0.92521714800E+01  0.30514016906E+02  0.31886065710E+02  0.00000000000E+00 0.  1.
         11    1    3    3    0    0  0.11209157335E+02 -0.19965693691E+01 -0.12858227084E+02  0.17174559715E+02  0.51100000000E-03 0. -1.
        -11    1    3    3    0    0 -0.21762631015E+02 -0.12234257891E+02 -0.62520088759E+01  0.25736681800E+02  0.51100000000E-03 0.  1.
         12    1    3    3    0    0  0.10668719529E+02  0.49786557799E+01 -0.11403780947E+02  0.16390692775E+02  0.00000000000E+00 0. -1.
</event>
<event>
 7    1  0.3528441E-013  0.5930195E+02  0.7816164E-02  0.1266605E+00
        -11   -1    0    0    0    0  0.00000000000E+00  0.00000000000E+00  0.45593999997E+02  0.45594000000E+02  0.51100000000E-03 0.  1.
         11   -1    0    0    0    0 -0.00000000000E+00 -0.00000000000E+00 -0.45593999997E+02  0.45594000000E+02  0.51100000000E-03 0. -1.
    9900012    2    1    2    0    0 -0.98452834523E+00  0.21630677203E+02 -0.23406511004E+02  0.59301948979E+02  0.50000009030E+02 0.  0.
        -12    1    1    2    0    0  0.98452834523E+00 -0.21630677203E+02  0.23406511004E+02  0.31886051021E+02  0.00000000000E+00 0.  1.
         11    1    3    3    0    0  0.92113977803E+01 -0.67289828158E+00 -0.21743150093E+02  0.23623446349E+02  0.51100000000E-03 0. -1.
        -11    1    3    3    0    0  0.67387478791E+01  0.97542011231E+01 -0.72194880115E+01  0.13880784197E+02  0.51100000000E-03 0.  1.
         12    1    3    3    0    0 -0.16934674005E+02  0.12549374362E+02  0.55561271008E+01  0.21797718433E+02  0.00000000000E+00 0. -1.
</event>
<event>
 7    1  0.3528441E-013  0.5930194E+02  0.7816164E-02  0.1266605E+00
        -11   -1    0    0    0    0  0.00000000000E+00  0.00000000000E+00  0.45593999997E+02  0.45594000000E+02  0.51100000000E-03 0.  1.
         11   -1    0    0    0    0 -0.00000000000E+00 -0.00000000000E+00 -0.45593999997E+02  0.45594000000E+02  0.51100000000E-03 0. -1.
    9900012    2    1    2    0    0 -0.15270525650E+02 -0.27983982860E+02  0.65454495736E+00  0.59301942240E+02  0.49999996740E+02 0.  0.
        -12    1    1    2    0    0  0.15270525650E+02  0.27983982860E+02 -0.65454495736E+00  0.31886057760E+02  0.00000000000E+00 0.  1.
         11    1    3    3    0    0 -0.75038586148E+01  0.12515926547E+02  0.27560288628E+01  0.14850993461E+02  0.51100000000E-03 0. -1.
        -11    1    3    3    0    0 -0.31712868898E+00 -0.67821167629E+00  0.34765321617E+01  0.35562364679E+01  0.51100000000E-03 0.  1.
         12    1    3    3    0    0 -0.74495383466E+01 -0.39821697731E+02 -0.55780160671E+01  0.40894712311E+02  0.00000000000E+00 0. -1.
</event>
<event>
 7    1  0.3528441E-013  0.5930194E+02  0.7816164E-02  0.1266605E+00
        -11   -1    0    0    0    0  0.00000000000E+00  0.00000000000E+00  0.45593999997E+02  0.45594000000E+02  0.51100000000E-03 0.  1.
         11   -1    0    0    0    0 -0.00000000000E+00 -0.00000000000E+00 -0.45593999997E+02  0.45594000000E+02  0.51100000000E-03 0. -1.
    9900012    2    1    2    0    0 -0.25668499399E+02  0.11302512992E+02 -0.15169113862E+02  0.59301942284E+02  0.49999996819E+02 0.  0.
        -12    1    1    2    0    0  0.25668499399E+02 -0.11302512992E+02  0.15169113862E+02  0.31886057716E+02  0.00000000000E+00 0.  1.
         11    1    3    3    0    0  0.34657858427E+01  0.94992821987E+01  0.17095729594E+01  0.10255275411E+02  0.51100000000E-03 0. -1.
        -11    1    3    3    0    0 -0.76749278292E+01 -0.21387994642E+01  0.11039348755E+02  0.13614191182E+02  0.51100000000E-03 0.  1.
         12    1    3    3    0    0 -0.21459357413E+02  0.39420302573E+01 -0.27918035577E+02  0.35432475691E+02  0.00000000000E+00 0. -1.
</event>
<event>
 7    1  0.3528441E-013  0.5930195E+02  0.7816164E-02  0.1266605E+00
        -11   -1    0    0    0    0  0.00000000000E+00  0.00000000000E+00  0.45593999997E+02  0.45594000000E+02  0.51100000000E-03 0.  1.
         11   -1    0    0    0    0 -0.00000000000E+00 -0.00000000000E+00 -0.45593999997E+02  0.45594000000E+02  0.51100000000E-03 0. -1.
    9900012    2    1    2    0    0  0.31850151549E+02  0.78049230457E-02 -0.15127019346E+01  0.59301945340E+02  0.50000002393E+02 0.  0.
        -12    1    1    2    0    0 -0.31850151549E+02 -0.78049230457E-02  0.15127019346E+01  0.31886054660E+02  0.00000000000E+00 0.  1.
         11    1    3    3    0    0  0.71938393628E+01 -0.13326943007E+02  0.99875284560E+01  0.18141374248E+02  0.51100000000E-03 0. -1.
        -11    1    3    3    0    0  0.23454428839E+01  0.16060553424E+02 -0.75769612487E+00  0.16248587086E+02  0.51100000000E-03 0.  1.
         12    1    3    3    0    0  0.22310869303E+02 -0.27258054940E+01 -0.10742534266E+02  0.24911984005E+02  0.00000000000E+00 0. -1.
</event>
<event>
 7    1  0.3528441E-013  0.5930190E+02  0.7816164E-02  0.1266605E+00
        -11   -1    0    0    0    0  0.00000000000E+00  0.00000000000E+00  0.45593999997E+02  0.45594000000E+02  0.51100000000E-03 0. -1.
         11   -1    0    0    0    0 -0.00000000000E+00 -0.00000000000E+00 -0.45593999997E+02  0.45594000000E+02  0.51100000000E-03 0.  1.
    9900012    2    1    2    0    0 -0.19947474678E+02 -0.18999646604E+02  0.16057238895E+02  0.59301902120E+02  0.49999923570E+02 0.  0.
        -12    1    1    2    0    0  0.19947474678E+02  0.18999646604E+02 -0.16057238895E+02  0.31886097880E+02  0.00000000000E+00 0.  1.
         11    1    3    3    0    0 -0.57775880174E+01 -0.23201577026E+02  0.17725428504E+02  0.29763812184E+02  0.51100000000E-03 0. -1.
        -11    1    3    3    0    0  0.38321188228E+01  0.64245218995E+01 -0.73930110295E+01  0.10517425001E+02  0.51100000000E-03 0.  1.
        -12    1    3    3    0    0 -0.18002005483E+02 -0.22225914782E+01  0.57248214197E+01  0.19020664935E+02  0.00000000000E+00 0.  1.
</event>
<event>
 7    1  0.3528441E-013  0.5930194E+02  0.7816164E-02  0.1266605E+00
        -11   -1    0    0    0    0  0.00000000000E+00  0.00000000000E+00  0.45593999997E+02  0.45594000000E+02  0.51100000000E-03 0.  1.
         11   -1    0    0    0    0 -0.00000000000E+00 -0.00000000000E+00 -0.45593999997E+02  0.45594000000E+02  0.51100000000E-03 0. -1.
    9900012    2    1    2    0    0  0.70645268933E+01 -0.30441738732E+02  0.63335422038E+01  0.59301941070E+02  0.49999994605E+02 0.  0.
        -12    1    1    2    0    0 -0.70645268933E+01  0.30441738732E+02 -0.63335422038E+01  0.31886058930E+02  0.00000000000E+00 0.  1.
         11    1    3    3    0    0  0.11309522768E+02 -0.16298418836E+02  0.88160802478E+01  0.21708685658E+02  0.51100000000E-03 0. -1.
        -11    1    3    3    0    0  0.10529577719E+02 -0.19090913472E+02  0.83843372126E-01  0.21802339648E+02  0.51100000000E-03 0.  1.
        -12    1    3    3    0    0 -0.14774573594E+02  0.49475935761E+01 -0.25663814161E+01  0.15790915764E+02  0.00000000000E+00 0.  1.
</event>
<event>
 7    1  0.3528441E-013  0.5930194E+02  0.7816164E-02  0.1266605E+00
        -11   -1    0    0    0    0  0.00000000000E+00  0.00000000000E+00  0.45593999997E+02  0.45594000000E+02  0.51100000000E-03 0.  1.
         11   -1    0    0    0    0 -0.00000000000E+00 -0.00000000000E+00 -0.45593999997E+02  0.45594000000E+02  0.51100000000E-03 0. -1.
    9900012    2    1    2    0    0  0.15507086082E+02 -0.20396714709E+02 -0.18979603305E+02  0.59301936723E+02  0.49999986678E+02 0.  0.
        -12    1    1    2    0    0 -0.15507086082E+02  0.20396714709E+02  0.18979603305E+02  0.31886063277E+02  0.00000000000E+00 0.  1.
         11    1    3    3    0    0  0.42452995798E+01  0.51994030875E+01 -0.17131978372E+02  0.18400028375E+02  0.51100000000E-03 0. -1.
        -11    1    3    3    0    0 -0.34679373824E+01 -0.13597613530E+02 -0.12782202562E+02  0.18981738224E+02  0.51100000000E-03 0.  1.
        -12    1    3    3    0    0  0.14729723884E+02 -0.11998504267E+02  0.10934577630E+02  0.21920170125E+02  0.00000000000E+00 0.  1.
</event>
<event>
 7    1  0.3528441E-013  0.5930184E+02  0.7816164E-02  0.1266605E+00
        -11   -1    0    0    0    0  0.00000000000E+00  0.00000000000E+00  0.45593999997E+02  0.45594000000E+02  0.51100000000E-03 0. -1.
         11   -1    0    0    0    0 -0.00000000000E+00 -0.00000000000E+00 -0.45593999997E+02  0.45594000000E+02  0.51100000000E-03 0.  1.
    9900012    2    1    2    0    0 -0.17778004192E+02  0.24720502404E+02  0.94639583150E+01  0.59301840320E+02  0.49999810861E+02 0.  0.
        -12    1    1    2    0    0  0.17778004192E+02 -0.24720502404E+02 -0.94639583150E+01  0.31886159680E+02  0.00000000000E+00 0.  1.
         11    1    3    3    0    0 -0.79288538983E+01  0.30342974760E+01 -0.98842108704E+01  0.13029632002E+02  0.51100000000E-03 0. -1.
        -11    1    3    3    0    0 -0.94555396246E+01 -0.74240844145E+01  0.14783690855E+01  0.12112383514E+02  0.51100000000E-03 0.  1.
         12    1    3    3    0    0 -0.39361066914E+00  0.29110289343E+02  0.17869800100E+02  0.34159824803E+02  0.00000000000E+00 0. -1.
</event>
<event>
 7    1  0.3528441E-013  0.5930195E+02  0.7816164E-02  0.1266605E+00
        -11   -1    0    0    0    0  0.00000000000E+00  0.00000000000E+00  0.45593999997E+02  0.45594000000E+02  0.51100000000E-03 0.  1.
         11   -1    0    0    0    0 -0.00000000000E+00 -0.00000000000E+00 -0.45593999997E+02  0.45594000000E+02  0.51100000000E-03 0. -1.
    9900012    2    1    2    0    0 -0.20827540072E+02 -0.20789295685E+02  0.12277575987E+02  0.59301951129E+02  0.50000012950E+02 0.  0.
        -12    1    1    2    0    0  0.20827540072E+02  0.20789295685E+02 -0.12277575987E+02  0.31886048871E+02  0.00000000000E+00 0.  1.
         11    1    3    3    0    0 -0.22422734682E+02 -0.16399563885E+02 -0.48907489381E+01  0.28207164899E+02  0.51100000000E-03 0. -1.
        -11    1    3    3    0    0 -0.11191882250E+02 -0.24763873277E+01  0.28677467785E+01  0.11815866212E+02  0.51100000000E-03 0.  1.
        -12    1    3    3    0    0  0.12787076860E+02 -0.19133444719E+01  0.14300578146E+02  0.19278920017E+02  0.00000000000E+00 0.  1.
</event>
<event>
 7    1  0.3528441E-013  0.5930206E+02  0.7816164E-02  0.1266604E+00
        -11   -1    0    0    0    0  0.00000000000E+00  0.00000000000E+00  0.45593999997E+02  0.45594000000E+02  0.51100000000E-03 0.  1.
         11   -1    0    0    0    0 -0.00000000000E+00 -0.00000000000E+00 -0.45593999997E+02  0.45594000000E+02  0.51100000000E-03 0. -1.
    9900012    2    1    2    0    0  0.21520411822E+02 -0.18530380145E+01 -0.23455306007E+02  0.59302058666E+02  0.50000209073E+02 0.  0.
        -12    1    1    2    0    0 -0.21520411822E+02  0.18530380145E+01  0.23455306007E+02  0.31885941334E+02  0.00000000000E+00 0.  1.
         11    1    3    3    0    0  0.73073114983E+01 -0.12434281042E+02  0.71316868346E+00  0.14440109286E+02  0.51100000000E-03 0. -1.
        -11    1    3    3    0    0 -0.90259293450E+01 -0.38077080288E+01 -0.28623141044E+01  0.10205825947E+02  0.51100000000E-03 0.  1.
         12    1    3    3    0    0  0.23239029668E+02  0.14388951057E+02 -0.21306160586E+02  0.34656123432E+02  0.00000000000E+00 0. -1.
</event>
<event>
 7    1  0.3528441E-013  0.5930207E+02  0.7816164E-02  0.1266604E+00
        -11   -1    0    0    0    0  0.00000000000E+00  0.00000000000E+00  0.45593999997E+02  0.45594000000E+02  0.51100000000E-03 0.  1.
         11   -1    0    0    0    0 -0.00000000000E+00 -0.00000000000E+00 -0.45593999997E+02  0.45594000000E+02  0.51100000000E-03 0. -1.
    9900012    2    1    2    0    0 -0.87982883547E+01  0.28520829082E+02 -0.11218966395E+02  0.59302066166E+02  0.50000222750E+02 0.  0.
        -12    1    1    2    0    0  0.87982883547E+01 -0.28520829082E+02  0.11218966395E+02  0.31885933834E+02  0.00000000000E+00 0.  1.
         11    1    3    3    0    0  0.26122146404E+01 -0.10057217211E+02 -0.54682142867E+01  0.11741918544E+02  0.51100000000E-03 0. -1.
        -11    1    3    3    0    0 -0.16911686139E+02  0.14734747631E+02 -0.54753619448E+01  0.23088904359E+02  0.51100000000E-03 0.  1.
        -12    1    3    3    0    0  0.55011831440E+01  0.23843298662E+02 -0.27539016330E+00  0.24471243263E+02  0.00000000000E+00 0.  1.
</event>
<event>
 7    1  0.3528441E-013  0.5930200E+02  0.7816164E-02  0.1266605E+00
        -11   -1    0    0    0    0  0.00000000000E+00  0.00000000000E+00  0.45593999997E+02  0.45594000000E+02  0.51100000000E-03 0.  1.
         11   -1    0    0    0    0 -0.00000000000E+00 -0.00000000000E+00 -0.45593999997E+02  0.45594000000E+02  0.51100000000E-03 0. -1.
    9900012    2    1    2    0    0 -0.24860410144E+02  0.98455751552E+01 -0.17370717583E+02  0.59301997240E+02  0.50000097047E+02 0.  0.
        -12    1    1    2    0    0  0.24860410144E+02 -0.98455751552E+01  0.17370717583E+02  0.31886002760E+02  0.00000000000E+00 0.  1.
         11    1    3    3    0    0  0.11231598167E+02 -0.74841529736E+00 -0.54974974723E+01  0.12527226411E+02  0.51100000000E-03 0. -1.
        -11    1    3    3    0    0 -0.44703410866E+00  0.93976875016E+01 -0.41507285831E+01  0.10283234798E+02  0.51100000000E-03 0.  1.
         12    1    3    3    0    0 -0.35644974202E+02  0.11963029510E+01 -0.77224915271E+01  0.36491536032E+02  0.00000000000E+00 0. -1.
</event>
<event>
 7    1  0.3528441E-013  0.5930194E+02  0.7816164E-02  0.1266605E+00
        -11   -1    0    0    0    0  0.00000000000E+00  0.00000000000E+00  0.45593999997E+02  0.45594000000E+02  0.51100000000E-03 0. -1.
         11   -1    0    0    0    0 -0.00000000000E+00 -0.00000000000E+00 -0.45593999997E+02  0.45594000000E+02  0.51100000000E-03 0.  1.
    9900012    2    1    2    0    0  0.14166500592E+02  0.14137777168E+01  0.28531247334E+02  0.59301943786E+02  0.49999999559E+02 0.  0.
        -12    1    1    2    0    0 -0.14166500592E+02 -0.14137777168E+01 -0.28531247334E+02  0.31886056214E+02  0.00000000000E+00 0.  1.
         11    1    3    3    0    0  0.69408950272E+01  0.12360516427E+01  0.17346181265E+02  0.18724151574E+02  0.51100000000E-03 0. -1.
        -11    1    3    3    0    0  0.68148459447E+01  0.10913484835E+02  0.21902784486E+02  0.25402327550E+02  0.51100000000E-03 0.  1.
        -12    1    3    3    0    0  0.41075961972E+00 -0.10735758761E+02 -0.10717718416E+02  0.15175464661E+02  0.00000000000E+00 0.  1.
</event>
<event>
 7    1  0.3528441E-013  0.5930196E+02  0.7816164E-02  0.1266605E+00
        -11   -1    0    0    0    0  0.00000000000E+00  0.00000000000E+00  0.45593999997E+02  0.45594000000E+02  0.51100000000E-03 0. -1.
         11   -1    0    0    0    0 -0.00000000000E+00 -0.00000000000E+00 -0.45593999997E+02  0.45594000000E+02  0.51100000000E-03 0.  1.
    9900012    2    1    2    0    0  0.27195934703E+02  0.22214082764E+01  0.16497455425E+02  0.59301959879E+02  0.50000028909E+02 0.  0.
        -12    1    1    2    0    0 -0.27195934703E+02 -0.22214082764E+01 -0.16497455425E+02  0.31886040121E+02  0.00000000000E+00 0.  1.
         11    1    3    3    0    0  0.24878667681E+02  0.16300768240E+02  0.12229364777E+02  0.32159299027E+02  0.51100000000E-03 0. -1.
        -11    1    3    3    0    0  0.11989469171E+02 -0.11727591569E+02  0.36850777966E+01  0.17171592053E+02  0.51100000000E-03 0.  1.
        -12    1    3    3    0    0 -0.96722021492E+01 -0.23517683949E+01  0.58301285061E+00  0.99710687984E+01  0.00000000000E+00 0.  1.
</event>
<event>
 7    1  0.3528441E-013  0.5930194E+02  0.7816164E-02  0.1266605E+00
        -11   -1    0    0    0    0  0.00000000000E+00  0.00000000000E+00  0.45593999997E+02  0.45594000000E+02  0.51100000000E-03 0. -1.
         11   -1    0    0    0    0 -0.00000000000E+00 -0.00000000000E+00 -0.45593999997E+02  0.45594000000E+02  0.51100000000E-03 0.  1.
    9900012    2    1    2    0    0 -0.18667873519E+02 -0.16368925507E+02  0.20007235314E+02  0.59301942093E+02  0.49999996471E+02 0.  0.
        -12    1    1    2    0    0  0.18667873519E+02  0.16368925507E+02 -0.20007235314E+02  0.31886057907E+02  0.00000000000E+00 0.  1.
         11    1    3    3    0    0 -0.31675981070E+02 -0.47845879533E+01  0.18398635943E+02  0.36942791766E+02  0.51100000000E-03 0. -1.
        -11    1    3    3    0    0  0.86770352190E+01 -0.93409487430E+00  0.53883212375E+01  0.10256582250E+02  0.51100000000E-03 0.  1.
        -12    1    3    3    0    0  0.43310723318E+01 -0.10650242679E+02 -0.37797218666E+01  0.12102568077E+02  0.00000000000E+00 0.  1.
</event>
<event>
 7    1  0.3528441E-013  0.5930193E+02  0.7816164E-02  0.1266605E+00
        -11   -1    0    0    0    0  0.00000000000E+00  0.00000000000E+00  0.45593999997E+02  0.45594000000E+02  0.51100000000E-03 0. -1.
         11   -1    0    0    0    0 -0.00000000000E+00 -0.00000000000E+00 -0.45593999997E+02  0.45594000000E+02  0.51100000000E-03 0.  1.
    9900012    2    1    2    0    0 -0.33994546857E+01 -0.27663413043E+02  0.15488722097E+02  0.59301933677E+02  0.49999981122E+02 0.  0.
        -12    1    1    2    0    0  0.33994546857E+01  0.27663413043E+02 -0.15488722097E+02  0.31886066323E+02  0.00000000000E+00 0.  1.
         11    1    3    3    0    0  0.35480056495E+01 -0.30053554777E+02  0.23285229236E+02  0.38183849985E+02  0.51100000000E-03 0. -1.
        -11    1    3    3    0    0 -0.72589567000E+01 -0.66030612192E+01 -0.70614044064E+01  0.12089512078E+02  0.51100000000E-03 0.  1.
        -12    1    3    3    0    0  0.31149636487E+00  0.89932029534E+01 -0.73510273251E+00  0.90285716131E+01  0.00000000000E+00 0.  1.
</event>
<event>
 7    1  0.3528441E-013  0.5930190E+02  0.7816164E-02  0.1266605E+00
        -11   -1    0    0    0    0  0.00000000000E+00  0.00000000000E+00  0.45593999997E+02  0.45594000000E+02  0.51100000000E-03 0. -1.
         11   -1    0    0    0    0 -0.00000000000E+00 -0.00000000000E+00 -0.45593999997E+02  0.45594000000E+02  0.51100000000E-03 0.  1.
    9900012    2    1    2    0    0  0.57024779178E+01  0.30702667316E+02  0.64460496253E+01  0.59301896593E+02  0.49999913491E+02 0.  0.
        -12    1    1    2    0    0 -0.57024779178E+01 -0.30702667316E+02 -0.64460496253E+01  0.31886103407E+02  0.00000000000E+00 0.  1.
         11    1    3    3    0    0  0.87867918022E+01  0.18224657492E+02  0.74134130643E+01  0.21547727128E+02  0.51100000000E-03 0. -1.
        -11    1    3    3    0    0  0.91442050368E+01 -0.81854357320E+01 -0.52782037558E+01  0.13359538878E+02  0.51100000000E-03 0.  1.
         12    1    3    3    0    0 -0.12228518921E+02  0.20663445556E+02  0.43108403167E+01  0.24394630587E+02  0.00000000000E+00 0. -1.
</event>
<event>
 7    1  0.3528441E-013  0.5930197E+02  0.7816164E-02  0.1266605E+00
        -11   -1    0    0    0    0  0.00000000000E+00  0.00000000000E+00  0.45593999997E+02  0.45594000000E+02  0.51100000000E-03 0.  1.
         11   -1    0    0    0    0 -0.00000000000E+00 -0.00000000000E+00 -0.45593999997E+02  0.45594000000E+02  0.51100000000E-03 0. -1.
    9900012    2    1    2    0    0  0.21983521075E+02 -0.19090152441E+02 -0.13000380353E+02  0.59301968444E+02  0.50000044529E+02 0.  0.
        -12    1    1    2    0    0 -0.21983521075E+02  0.19090152441E+02  0.13000380353E+02  0.31886031556E+02  0.00000000000E+00 0.  1.
         11    1    3    3    0    0  0.71844518703E+01  0.49494281653E-01  0.68148205725E+01  0.99025541178E+01  0.51100000000E-03 0. -1.
        -11    1    3    3    0    0  0.46739671550E+01 -0.26527772614E+02 -0.12068010842E+01  0.26963402195E+02  0.51100000000E-03 0.  1.
         12    1    3    3    0    0  0.10125102050E+02  0.73881258910E+01 -0.18608399841E+02  0.22436012131E+02  0.00000000000E+00 0. -1.
</event>
<event>
 7    1  0.3528441E-013  0.5930194E+02  0.7816164E-02  0.1266605E+00
        -11   -1    0    0    0    0  0.00000000000E+00  0.00000000000E+00  0.45593999997E+02  0.45594000000E+02  0.51100000000E-03 0.  1.
         11   -1    0    0    0    0 -0.00000000000E+00 -0.00000000000E+00 -0.45593999997E+02  0.45594000000E+02  0.51100000000E-03 0. -1.
    9900012    2    1    2    0    0 -0.12241186186E+02 -0.15963433574E+02 -0.24739500518E+02  0.59301941344E+02  0.49999995106E+02 0.  0.
        -12    1    1    2    0    0  0.12241186186E+02  0.15963433574E+02  0.24739500518E+02  0.31886058656E+02  0.00000000000E+00 0.  1.
         11    1    3    3    0    0  0.12767693547E+02 -0.10713570474E+02  0.17436326833E+01  0.16758127760E+02  0.51100000000E-03 0.  1.
        -11    1    3    3    0    0  0.11431805705E+01 -0.42995090444E+01  0.10364429786E+01  0.45680251913E+01  0.51100000000E-03 0. -1.
         12    1    3    3    0    0 -0.26152060304E+02 -0.95035405568E+00 -0.27519576180E+02  0.37975788393E+02  0.00000000000E+00 0. -1.
</event>
<event>
 7    1  0.3528441E-013  0.5930192E+02  0.7816164E-02  0.1266605E+00
        -11   -1    0    0    0    0  0.00000000000E+00  0.00000000000E+00  0.45593999997E+02  0.45594000000E+02  0.51100000000E-03 0.  1.
         11   -1    0    0    0    0 -0.00000000000E+00 -0.00000000000E+00 -0.45593999997E+02  0.45594000000E+02  0.51100000000E-03 0. -1.
    9900012    2    1    2    0    0  0.18410246151E+02 -0.22071077321E+02 -0.13807702040E+02  0.59301917565E+02  0.49999951738E+02 0.  0.
        -12    1    1    2    0    0 -0.18410246151E+02  0.22071077321E+02  0.13807702040E+02  0.31886082435E+02  0.00000000000E+00 0.  1.
         11    1    3    3    0    0 -0.66729960603E+00  0.30844817318E+01 -0.57216102128E+01  0.65342283406E+01  0.51100000000E-03 0.  1.
        -11    1    3    3    0    0 -0.10339757308E+02 -0.18458716384E+01 -0.10890532814E+02  0.15130152958E+02  0.51100000000E-03 0. -1.
        -12    1    3    3    0    0  0.29417303065E+02 -0.23309687414E+02  0.28044409872E+01  0.37637536266E+02  0.00000000000E+00 0.  1.
</event>
<event>
 7    1  0.3528441E-013  0.5930194E+02  0.7816164E-02  0.1266605E+00
        -11   -1    0    0    0    0  0.00000000000E+00  0.00000000000E+00  0.45593999997E+02  0.45594000000E+02  0.51100000000E-03 0. -1.
         11   -1    0    0    0    0 -0.00000000000E+00 -0.00000000000E+00 -0.45593999997E+02  0.45594000000E+02  0.51100000000E-03 0.  1.
    9900012    2    1    2    0    0 -0.11455024233E+02 -0.26871253833E+02  0.12784326550E+02  0.59301939283E+02  0.49999991346E+02 0.  0.
        -12    1    1    2    0    0  0.11455024233E+02  0.26871253833E+02 -0.12784326550E+02  0.31886060717E+02  0.00000000000E+00 0.  1.
         11    1    3    3    0    0 -0.16223383856E+02 -0.23723375380E+02  0.12927415307E+02  0.31513723835E+02  0.51100000000E-03 0. -1.
        -11    1    3    3    0    0 -0.91449040196E+01 -0.38681682980E+01 -0.71090236314E+01  0.12211888174E+02  0.51100000000E-03 0.  1.
        -12    1    3    3    0    0  0.13913263644E+02  0.72028984497E+00  0.69659348739E+01  0.15576327274E+02  0.00000000000E+00 0.  1.
</event>
<event>
 7    1  0.3528441E-013  0.5930192E+02  0.7816164E-02  0.1266605E+00
        -11   -1    0    0    0    0  0.00000000000E+00  0.00000000000E+00  0.45593999997E+02  0.45594000000E+02  0.51100000000E-03 0.  1.
         11   -1    0    0    0    0 -0.00000000000E+00 -0.00000000000E+00 -0.45593999997E+02  0.45594000000E+02  0.51100000000E-03 0. -1.
    9900012    2    1    2    0    0  0.34517261415E+00 -0.31660394854E+02 -0.37712514340E+01  0.59301920219E+02  0.49999956578E+02 0.  0.
        -12    1    1    2    0    0 -0.34517261415E+00  0.31660394854E+02  0.37712514340E+01  0.31886079781E+02  0.00000000000E+00 0.  1.
         11    1    3    3    0    0  0.11112562426E+02 -0.38576281441E+01 -0.12324879092E+02  0.17037399551E+02  0.51100000000E-03 0. -1.
        -11    1    3    3    0    0  0.97071998024E+01 -0.77407498370E+01  0.49809363974E+01  0.13377543261E+02  0.51100000000E-03 0.  1.
         12    1    3    3    0    0 -0.20474589614E+02 -0.20062016873E+02  0.35726912603E+01  0.28886977407E+02  0.00000000000E+00 0. -1.
</event>
<event>
 7    1  0.3528441E-013  0.5930197E+02  0.7816164E-02  0.1266605E+00
        -11   -1    0    0    0    0  0.00000000000E+00  0.00000000000E+00  0.45593999997E+02  0.45594000000E+02  0.51100000000E-03 0.  1.
         11   -1    0    0    0    0 -0.00000000000E+00 -0.00000000000E+00 -0.45593999997E+02  0.45594000000E+02  0.51100000000E-03 0. -1.
    9900012    2    1    2    0    0  0.34659322719E+01  0.77691106861E+01 -0.30730233801E+02  0.59301967998E+02  0.50000043717E+02 0.  0.
        -12    1    1    2    0    0 -0.34659322719E+01 -0.77691106861E+01  0.30730233801E+02  0.31886032002E+02  0.00000000000E+00 0.  1.
         11    1    3    3    0    0  0.55071134697E+01  0.20040425766E+02 -0.26519890897E+02  0.33693494581E+02  0.51100000000E-03 0. -1.
        -11    1    3    3    0    0 -0.51671911598E+01 -0.24311851060E+00  0.71134426657E+01  0.87954555261E+01  0.51100000000E-03 0.  1.
        -12    1    3    3    0    0  0.31260099621E+01 -0.12028196569E+02 -0.11323785570E+02  0.16813017891E+02  0.00000000000E+00 0.  1.
</event>
<event>
 7    1  0.3528441E-013  0.5930191E+02  0.7816164E-02  0.1266605E+00
        -11   -1    0    0    0    0  0.00000000000E+00  0.00000000000E+00  0.45593999997E+02  0.45594000000E+02  0.51100000000E-03 0. -1.
         11   -1    0    0    0    0 -0.00000000000E+00 -0.00000000000E+00 -0.45593999997E+02  0.45594000000E+02  0.51100000000E-03 0.  1.
    9900012    2    1    2    0    0  0.49837950056E+01  0.23357053723E+02  0.21126586114E+02  0.59301908799E+02  0.49999935750E+02 0.  0.
        -12    1    1    2    0    0 -0.49837950056E+01 -0.23357053723E+02 -0.21126586114E+02  0.31886091201E+02  0.00000000000E+00 0.  1.
         11    1    3    3    0    0 -0.59474137595E+01  0.16151756829E+02  0.21918460998E+02  0.27868798178E+02  0.51100000000E-03 0. -1.
        -11    1    3    3    0    0 -0.15097846095E+01  0.11967627383E+02 -0.96397661592E+01  0.15441134887E+02  0.51100000000E-03 0.  1.
         12    1    3    3    0    0  0.12440993375E+02 -0.47623304893E+01  0.88478912749E+01  0.15991975733E+02  0.00000000000E+00 0. -1.
</event>
<event>
 7    1  0.3528441E-013  0.5930192E+02  0.7816164E-02  0.1266605E+00
        -11   -1    0    0    0    0  0.00000000000E+00  0.00000000000E+00  0.45593999997E+02  0.45594000000E+02  0.51100000000E-03 0.  1.
         11   -1    0    0    0    0 -0.00000000000E+00 -0.00000000000E+00 -0.45593999997E+02  0.45594000000E+02  0.51100000000E-03 0. -1.
    9900012    2    1    2    0    0  0.32732401258E+01 -0.27096018327E+02 -0.16486771743E+02  0.59301922276E+02  0.49999960331E+02 0.  0.
        -12    1    1    2    0    0 -0.32732401258E+01  0.27096018327E+02  0.16486771743E+02  0.31886077724E+02  0.00000000000E+00 0.  1.
         11    1    3    3    0    0 -0.10218843613E+00  0.82045038042E+01 -0.18546143604E+02  0.20280132347E+02  0.51100000000E-03 0. -1.
        -11    1    3    3    0    0 -0.59418893760E+01 -0.12161111850E+02  0.36736496557E+01  0.14024777818E+02  0.51100000000E-03 0.  1.
        -12    1    3    3    0    0  0.93173179379E+01 -0.23139410281E+02 -0.16142777944E+01  0.24997012112E+02  0.00000000000E+00 0.  1.
</event>
<event>
 7    1  0.3528441E-013  0.5930189E+02  0.7816164E-02  0.1266605E+00
        -11   -1    0    0    0    0  0.00000000000E+00  0.00000000000E+00  0.45593999997E+02  0.45594000000E+02  0.51100000000E-03 0.  1.
         11   -1    0    0    0    0 -0.00000000000E+00 -0.00000000000E+00 -0.45593999997E+02  0.45594000000E+02  0.51100000000E-03 0. -1.
    9900012    2    1    2    0    0 -0.14010374229E+01 -0.84952609334E+01 -0.30701655233E+02  0.59301890199E+02  0.49999901830E+02 0.  0.
        -12    1    1    2    0    0  0.14010374229E+01  0.84952609334E+01  0.30701655233E+02  0.31886109801E+02  0.00000000000E+00 0.  1.
         11    1    3    3    0    0 -0.48480157556E+01  0.59559409563E+01 -0.40092339362E+01  0.86631660759E+01  0.51100000000E-03 0. -1.
        -11    1    3    3    0    0 -0.17328760601E+02  0.27828911114E+00 -0.82467639548E+01  0.19193032715E+02  0.51100000000E-03 0.  1.
         12    1    3    3    0    0  0.20775738934E+02 -0.14729491001E+02 -0.18445657342E+02  0.31445691409E+02  0.00000000000E+00 0. -1.
</event>
<event>
 7    1  0.3528441E-013  0.5930196E+02  0.7816164E-02  0.1266605E+00
        -11   -1    0    0    0    0  0.00000000000E+00  0.00000000000E+00  0.45593999997E+02  0.45594000000E+02  0.51100000000E-03 0.  1.
         11   -1    0    0    0    0 -0.00000000000E+00 -0.00000000000E+00 -0.45593999997E+02  0.45594000000E+02  0.51100000000E-03 0. -1.
    9900012    2    1    2    0    0 -0.19858784129E+02 -0.26038207599E+01 -0.24810646587E+02  0.59301962715E+02  0.50000034082E+02 0.  0.
        -12    1    1    2    0    0  0.19858784129E+02  0.26038207599E+01  0.24810646587E+02  0.31886037285E+02  0.00000000000E+00 0.  1.
         11    1    3    3    0    0 -0.99467151978E+01 -0.10357101617E+02  0.65065021792E+01  0.15765191658E+02  0.51100000000E-03 0. -1.
        -11    1    3    3    0    0  0.71174155654E+01 -0.50904538143E+01 -0.71255918854E+01  0.11284696910E+02  0.51100000000E-03 0.  1.
        -12    1    3    3    0    0 -0.17029484497E+02  0.12843734671E+02 -0.24191556881E+02  0.32252074148E+02  0.00000000000E+00 0.  1.
</event>
<event>
 7    1  0.3528441E-013  0.5930193E+02  0.7816164E-02  0.1266605E+00
        -11   -1    0    0    0    0  0.00000000000E+00  0.00000000000E+00  0.45593999997E+02  0.45594000000E+02  0.51100000000E-03 0.  1.
         11   -1    0    0    0    0 -0.00000000000E+00 -0.00000000000E+00 -0.45593999997E+02  0.45594000000E+02  0.51100000000E-03 0. -1.
    9900012    2    1    2    0    0 -0.13628474392E+02  0.16691695344E+01 -0.28778464276E+02  0.59301930200E+02  0.49999974782E+02 0.  0.
        -12    1    1    2    0    0  0.13628474392E+02 -0.16691695344E+01  0.28778464276E+02  0.31886069800E+02  0.00000000000E+00 0.  1.
         11    1    3    3    0    0  0.43880478324E+01 -0.15683894765E+02 -0.26082370352E+02  0.30749464422E+02  0.51100000000E-03 0. -1.
        -11    1    3    3    0    0 -0.16323511709E+01 -0.43968964284E+00 -0.39871982925E+01  0.43307791229E+01  0.51100000000E-03 0.  1.
        -12    1    3    3    0    0 -0.16384171054E+02  0.17792753942E+02  0.12911043685E+01  0.24221686655E+02  0.00000000000E+00 0.  1.
</event>
<event>
 7    1  0.3528441E-013  0.5930195E+02  0.7816164E-02  0.1266605E+00
        -11   -1    0    0    0    0  0.00000000000E+00  0.00000000000E+00  0.45593999997E+02  0.45594000000E+02  0.51100000000E-03 0. -1.
         11   -1    0    0    0    0 -0.00000000000E+00 -0.00000000000E+00 -0.45593999997E+02  0.45594000000E+02  0.51100000000E-03 0.  1.
    9900012    2    1    2    0    0 -0.90566639452E+01 -0.30548187917E+02 -0.12269251954E+01  0.59301948312E+02  0.50000007813E+02 0.  0.
        -12    1    1    2    0    0  0.90566639452E+01  0.30548187917E+02  0.12269251954E+01  0.31886051688E+02  0.00000000000E+00 0.  1.
         11    1    3    3    0    0  0.68186699696E+01 -0.86590607993E+01  0.14234393164E+02  0.18002542684E+02  0.51100000000E-03 0. -1.
        -11    1    3    3    0    0 -0.24930459964E+01  0.60503301277E+01  0.28132119008E+00  0.65498789964E+01  0.51100000000E-03 0.  1.
         12    1    3    3    0    0 -0.13382287918E+02 -0.27939457245E+02 -0.15742639550E+02  0.34749526631E+02  0.00000000000E+00 0. -1.
</event>
<event>
 7    1  0.3528441E-013  0.5930194E+02  0.7816164E-02  0.1266605E+00
        -11   -1    0    0    0    0  0.00000000000E+00  0.00000000000E+00  0.45593999997E+02  0.45594000000E+02  0.51100000000E-03 0. -1.
         11   -1    0    0    0    0 -0.00000000000E+00 -0.00000000000E+00 -0.45593999997E+02  0.45594000000E+02  0.51100000000E-03 0.  1.
    9900012    2    1    2    0    0 -0.18192916634E+02  0.25981996857E+02  0.32671303712E+01  0.59301944785E+02  0.50000001381E+02 0.  0.
        -12    1    1    2    0    0  0.18192916634E+02 -0.25981996857E+02 -0.32671303712E+01  0.31886055215E+02  0.00000000000E+00 0.  1.
         11    1    3    3    0    0  0.31168425589E+01 -0.34618169748E+01  0.69945523154E+00  0.47104269643E+01  0.51100000000E-03 0. -1.
        -11    1    3    3    0    0  0.47590112393E+01 -0.77600073737E+01  0.41776804682E+00  0.91126523481E+01  0.51100000000E-03 0.  1.
         12    1    3    3    0    0 -0.26068770433E+02  0.37203821205E+02  0.21499070929E+01  0.45478865472E+02  0.00000000000E+00 0. -1.
</event>
<event>
 7    1  0.3528441E-013  0.5930195E+02  0.7816164E-02  0.1266605E+00
        -11   -1    0    0    0    0  0.00000000000E+00  0.00000000000E+00  0.45593999997E+02  0.45594000000E+02  0.51100000000E-03 0.  1.
         11   -1    0    0    0    0 -0.00000000000E+00 -0.00000000000E+00 -0.45593999997E+02  0.45594000000E+02  0.51100000000E-03 0. -1.
    9900012    2    1    2    0    0  0.81032169868E+01  0.30770408631E+02  0.20592031387E+01  0.59301945204E+02  0.50000002146E+02 0.  0.
        -12    1    1    2    0    0 -0.81032169868E+01 -0.30770408631E+02 -0.20592031387E+01  0.31886054796E+02  0.00000000000E+00 0.  1.
         11    1    3    3    0    0  0.24624462982E+02  0.16849315828E+02  0.82689423153E+01  0.30961896394E+02  0.51100000000E-03 0. -1.
        -11    1    3    3    0    0 -0.65400478248E+01  0.16064364994E+02 -0.50549320594E+01  0.18066222256E+02  0.51100000000E-03 0.  1.
        -12    1    3    3    0    0 -0.99811981702E+01 -0.21432721907E+01 -0.11548071171E+01  0.10273826555E+02  0.00000000000E+00 0.  1.
</event>
<event>
 7    1  0.3528441E-013  0.5930187E+02  0.7816164E-02  0.1266605E+00
        -11   -1    0    0    0    0  0.00000000000E+00  0.00000000000E+00  0.45593999997E+02  0.45594000000E+02  0.51100000000E-03 0. -1.
         11   -1    0    0    0    0 -0.00000000000E+00 -0.00000000000E+00 -0.45593999997E+02  0.45594000000E+02  0.51100000000E-03 0.  1.
    9900012    2    1    2    0    0  0.28266822954E+02 -0.14440028383E+02 -0.30327749806E+01  0.59301867847E+02  0.49999861064E+02 0.  0.
        -12    1    1    2    0    0 -0.28266822954E+02  0.14440028383E+02  0.30327749806E+01  0.31886132153E+02  0.00000000000E+00 0.  1.
         11    1    3    3    0    0 -0.48233879878E+01  0.19861481356E+01 -0.38825986385E+01  0.65026478104E+01  0.51100000000E-03 0. -1.
        -11    1    3    3    0    0 -0.85342092061E+01 -0.27235309065E+01  0.57177259681E+00  0.89764843639E+01  0.51100000000E-03 0.  1.
         12    1    3    3    0    0  0.41624420148E+02 -0.13702645612E+02  0.27805106108E+00  0.43822735672E+02  0.00000000000E+00 0. -1.
</event>
<event>
 7    1  0.3528441E-013  0.5930193E+02  0.7816164E-02  0.1266605E+00
        -11   -1    0    0    0    0  0.00000000000E+00  0.00000000000E+00  0.45593999997E+02  0.45594000000E+02  0.51100000000E-03 0.  1.
         11   -1    0    0    0    0 -0.00000000000E+00 -0.00000000000E+00 -0.45593999997E+02  0.45594000000E+02  0.51100000000E-03 0. -1.
    9900012    2    1    2    0    0 -0.26000999411E+02  0.17316634464E+02 -0.63877756390E+01  0.59301929732E+02  0.49999973928E+02 0.  0.
        -12    1    1    2    0    0  0.26000999411E+02 -0.17316634464E+02  0.63877756390E+01  0.31886070268E+02  0.00000000000E+00 0.  1.
         11    1    3    3    0    0 -0.60574169548E+00 -0.13367338334E+01  0.65247698745E+01  0.66877800890E+01  0.51100000000E-03 0. -1.
        -11    1    3    3    0    0  0.90056095812E+01  0.12077919796E+02  0.59131784767E+00  0.15077360763E+02  0.51100000000E-03 0.  1.
         12    1    3    3    0    0 -0.34400867296E+02  0.65754485023E+01 -0.13503863361E+02  0.37536788880E+02  0.00000000000E+00 0. -1.
</event>
<event>
 7    1  0.3528441E-013  0.5930195E+02  0.7816164E-02  0.1266605E+00
        -11   -1    0    0    0    0  0.00000000000E+00  0.00000000000E+00  0.45593999997E+02  0.45594000000E+02  0.51100000000E-03 0. -1.
         11   -1    0    0    0    0 -0.00000000000E+00 -0.00000000000E+00 -0.45593999997E+02  0.45594000000E+02  0.51100000000E-03 0.  1.
    9900012    2    1    2    0    0 -0.29484216919E+01 -0.21395131447E+02  0.23457950503E+02  0.59301948474E+02  0.50000008109E+02 0.  0.
        -12    1    1    2    0    0  0.29484216919E+01  0.21395131447E+02 -0.23457950503E+02  0.31886051526E+02  0.00000000000E+00 0.  1.
         11    1    3    3    0    0  0.55256105394E+01 -0.19664069858E+02  0.13814784904E+02  0.24658797566E+02  0.51100000000E-03 0. -1.
        -11    1    3    3    0    0  0.31100308941E+01 -0.36836195689E+01 -0.10370607299E+02  0.11436382352E+02  0.51100000000E-03 0.  1.
         12    1    3    3    0    0 -0.11584063125E+02  0.19525579800E+01  0.20013772899E+02  0.23206768556E+02  0.00000000000E+00 0. -1.
</event>
<event>
 7    1  0.3528441E-013  0.5930193E+02  0.7816164E-02  0.1266605E+00
        -11   -1    0    0    0    0  0.00000000000E+00  0.00000000000E+00  0.45593999997E+02  0.45594000000E+02  0.51100000000E-03 0.  1.
         11   -1    0    0    0    0 -0.00000000000E+00 -0.00000000000E+00 -0.45593999997E+02  0.45594000000E+02  0.51100000000E-03 0. -1.
    9900012    2    1    2    0    0  0.18774265464E+01  0.23890207626E+02 -0.21034613531E+02  0.59301925967E+02  0.49999967061E+02 0.  0.
        -12    1    1    2    0    0 -0.18774265464E+01 -0.23890207626E+02  0.21034613531E+02  0.31886074033E+02  0.00000000000E+00 0.  1.
         11    1    3    3    0    0  0.79410530999E+01 -0.88759384458E+00 -0.36849160118E+01  0.87992473226E+01  0.51100000000E-03 0. -1.
        -11    1    3    3    0    0  0.15480515948E+02  0.21076414857E+01 -0.22864812039E+01  0.15789760074E+02  0.51100000000E-03 0.  1.
        -12    1    3    3    0    0 -0.21544142501E+02  0.22670159985E+02 -0.15063216315E+02  0.34712918570E+02  0.00000000000E+00 0.  1.
</event>
<event>
 7    1  0.3528441E-013  0.5930197E+02  0.7816164E-02  0.1266605E+00
        -11   -1    0    0    0    0  0.00000000000E+00  0.00000000000E+00  0.45593999997E+02  0.45594000000E+02  0.51100000000E-03 0. -1.
         11   -1    0    0    0    0 -0.00000000000E+00 -0.00000000000E+00 -0.45593999997E+02  0.45594000000E+02  0.51100000000E-03 0.  1.
    9900012    2    1    2    0    0  0.14843628364E+02  0.16744653876E+02 -0.22715682421E+02  0.59301969136E+02  0.50000045791E+02 0.  0.
        -12    1    1    2    0    0 -0.14843628364E+02 -0.16744653876E+02  0.22715682421E+02  0.31886030864E+02  0.00000000000E+00 0.  1.
         11    1    3    3    0    0 -0.50571687959E+01  0.11840117384E+02 -0.72686405565E+01  0.14785008343E+02  0.51100000000E-03 0. -1.
        -11    1    3    3    0    0  0.12376787000E+02 -0.13546925013E+02 -0.16340167697E+02  0.24570411360E+02  0.51100000000E-03 0.  1.
         12    1    3    3    0    0  0.75240101593E+01  0.18451461505E+02  0.89312583228E+00  0.19946549433E+02  0.00000000000E+00 0. -1.
</event>
<event>
 7    1  0.3528441E-013  0.5930193E+02  0.7816164E-02  0.1266605E+00
        -11   -1    0    0    0    0  0.00000000000E+00  0.00000000000E+00  0.45593999997E+02  0.45594000000E+02  0.51100000000E-03 0. -1.
         11   -1    0    0    0    0 -0.00000000000E+00 -0.00000000000E+00 -0.45593999997E+02  0.45594000000E+02  0.51100000000E-03 0.  1.
    9900012    2    1    2    0    0 -0.13395057410E+02 -0.22094372935E+02  0.18685083903E+02  0.59301933468E+02  0.49999980742E+02 0.  0.
        -12    1    1    2    0    0  0.13395057410E+02  0.22094372935E+02 -0.18685083903E+02  0.31886066532E+02  0.00000000000E+00 0.  1.
         11    1    3    3    0    0 -0.21018463211E+02 -0.22642572555E+01 -0.25375500264E+01  0.21291825123E+02  0.51100000000E-03 0. -1.
        -11    1    3    3    0    0 -0.47894879539E+01 -0.43225877612E+01 -0.26321810390E+01  0.69679507100E+01  0.51100000000E-03 0.  1.
         12    1    3    3    0    0  0.12412893755E+02 -0.15507527918E+02  0.23854814968E+02  0.31042157636E+02  0.00000000000E+00 0. -1.
</event>
<event>
 7    1  0.3528441E-013  0.5930195E+02  0.7816164E-02  0.1266605E+00
        -11   -1    0    0    0    0  0.00000000000E+00  0.00000000000E+00  0.45593999997E+02  0.45594000000E+02  0.51100000000E-03 0.  1.
         11   -1    0    0    0    0 -0.00000000000E+00 -0.00000000000E+00 -0.45593999997E+02  0.45594000000E+02  0.51100000000E-03 0. -1.
    9900012    2    1    2    0    0  0.26657500081E+02 -0.12195142929E+02 -0.12544985883E+02  0.59301945173E+02  0.50000002088E+02 0.  0.
        -12    1    1    2    0    0 -0.26657500081E+02  0.12195142929E+02  0.12544985883E+02  0.31886054827E+02  0.00000000000E+00 0.  1.
         11    1    3    3    0    0 -0.59843438702E+01  0.23729153133E+01 -0.32358019472E+01  0.72051032708E+01  0.51100000000E-03 0. -1.
        -11    1    3    3    0    0  0.41041705941E+01 -0.14267253314E+02  0.97657233731E+01  0.17769864565E+02  0.51100000000E-03 0.  1.
         12    1    3    3    0    0  0.28537673357E+02 -0.30080492789E+00 -0.19074907309E+02  0.34326977337E+02  0.00000000000E+00 0. -1.
</event>
<event>
 7    1  0.3528441E-013  0.5930193E+02  0.7816164E-02  0.1266605E+00
        -11   -1    0    0    0    0  0.00000000000E+00  0.00000000000E+00  0.45593999997E+02  0.45594000000E+02  0.51100000000E-03 0.  1.
         11   -1    0    0    0    0 -0.00000000000E+00 -0.00000000000E+00 -0.45593999997E+02  0.45594000000E+02  0.51100000000E-03 0. -1.
    9900012    2    1    2    0    0  0.29375318864E+01  0.26249133626E+02 -0.17862688479E+02  0.59301925462E+02  0.49999966141E+02 0.  0.
        -12    1    1    2    0    0 -0.29375318864E+01 -0.26249133626E+02  0.17862688479E+02  0.31886074538E+02  0.00000000000E+00 0.  1.
         11    1    3    3    0    0  0.17848679102E+01  0.22279568359E+02  0.35640235198E+01  0.22633320208E+02  0.51100000000E-03 0. -1.
        -11    1    3    3    0    0  0.74997863942E+01 -0.48820321286E+00  0.50661536726E+01  0.90637217318E+01  0.51100000000E-03 0.  1.
         12    1    3    3    0    0 -0.63471224180E+01  0.44577684802E+01 -0.26492865672E+02  0.27604883523E+02  0.00000000000E+00 0. -1.
</event>
<event>
 7    1  0.3528441E-013  0.5930195E+02  0.7816164E-02  0.1266605E+00
        -11   -1    0    0    0    0  0.00000000000E+00  0.00000000000E+00  0.45593999997E+02  0.45594000000E+02  0.51100000000E-03 0.  1.
         11   -1    0    0    0    0 -0.00000000000E+00 -0.00000000000E+00 -0.45593999997E+02  0.45594000000E+02  0.51100000000E-03 0. -1.
    9900012    2    1    2    0    0 -0.21865203321E+02  0.18045061082E+00 -0.23207766409E+02  0.59301951320E+02  0.50000013300E+02 0.  0.
        -12    1    1    2    0    0  0.21865203321E+02 -0.18045061082E+00  0.23207766409E+02  0.31886048680E+02  0.00000000000E+00 0.  1.
         11    1    3    3    0    0 -0.11202514872E+02 -0.16673969849E+02 -0.17974649523E+02  0.26955623453E+02  0.51100000000E-03 0. -1.
        -11    1    3    3    0    0  0.32229647701E+01  0.69333248026E+00 -0.99855432056E+01  0.10515668557E+02  0.51100000000E-03 0.  1.
        -12    1    3    3    0    0 -0.13885653219E+02  0.16161087979E+02  0.47524263197E+01  0.21830659310E+02  0.00000000000E+00 0.  1.
</event>
<event>
 7    1  0.3528441E-013  0.5930194E+02  0.7816164E-02  0.1266605E+00
        -11   -1    0    0    0    0  0.00000000000E+00  0.00000000000E+00  0.45593999997E+02  0.45594000000E+02  0.51100000000E-03 0.  1.
         11   -1    0    0    0    0 -0.00000000000E+00 -0.00000000000E+00 -0.45593999997E+02  0.45594000000E+02  0.51100000000E-03 0. -1.
    9900012    2    1    2    0    0 -0.36061680517E+01 -0.24121040127E+02 -0.20540000981E+02  0.59301942465E+02  0.49999997151E+02 0.  0.
        -12    1    1    2    0    0  0.36061680517E+01  0.24121040127E+02  0.20540000981E+02  0.31886057535E+02  0.00000000000E+00 0.  1.
         11    1    3    3    0    0  0.19872124435E+01  0.28441250777E+01 -0.36896151625E+01  0.50647133247E+01  0.51100000000E-03 0. -1.
        -11    1    3    3    0    0  0.46060773207E+01 -0.14540064451E+00 -0.24185640541E+02  0.24620769652E+02  0.51100000000E-03 0.  1.
         12    1    3    3    0    0 -0.10199457816E+02 -0.26819764560E+02  0.73352547229E+01  0.29616459489E+02  0.00000000000E+00 0. -1.
</event>
<event>
 7    1  0.3528441E-013  0.5930193E+02  0.7816164E-02  0.1266605E+00
        -11   -1    0    0    0    0  0.00000000000E+00  0.00000000000E+00  0.45593999997E+02  0.45594000000E+02  0.51100000000E-03 0. -1.
         11   -1    0    0    0    0 -0.00000000000E+00 -0.00000000000E+00 -0.45593999997E+02  0.45594000000E+02  0.51100000000E-03 0.  1.
    9900012    2    1    2    0    0  0.26310715718E+02  0.49083645367E+00  0.18006301588E+02  0.59301928136E+02  0.49999971018E+02 0.  0.
        -12    1    1    2    0    0 -0.26310715718E+02 -0.49083645367E+00 -0.18006301588E+02  0.31886071864E+02  0.00000000000E+00 0.  1.
         11    1    3    3    0    0  0.38991763615E+01  0.83741979195E+01  0.72563362627E+01  0.11746709467E+02  0.51100000000E-03 0.  1.
        -11    1    3    3    0    0  0.38972272987E+01  0.11535242045E+02  0.16111198925E+02  0.20194576517E+02  0.51100000000E-03 0. -1.
         12    1    3    3    0    0  0.18514312058E+02 -0.19418603511E+02 -0.53612335991E+01  0.27360642152E+02  0.00000000000E+00 0. -1.
</event>
<event>
 7    1  0.3528441E-013  0.5930192E+02  0.7816164E-02  0.1266605E+00
        -11   -1    0    0    0    0  0.00000000000E+00  0.00000000000E+00  0.45593999997E+02  0.45594000000E+02  0.51100000000E-03 0.  1.
         11   -1    0    0    0    0 -0.00000000000E+00 -0.00000000000E+00 -0.45593999997E+02  0.45594000000E+02  0.51100000000E-03 0. -1.
    9900012    2    1    2    0    0 -0.21028542121E+02 -0.20837815543E+02 -0.11845154761E+02  0.59301924173E+02  0.49999963790E+02 0.  0.
        -12    1    1    2    0    0  0.21028542121E+02  0.20837815543E+02  0.11845154761E+02  0.31886075827E+02  0.00000000000E+00 0.  1.
         11    1    3    3    0    0 -0.14516923945E+02  0.56761567857E+01 -0.31968049649E+01  0.15911612078E+02  0.51100000000E-03 0. -1.
        -11    1    3    3    0    0 -0.16756790463E+02 -0.24930627693E+02 -0.12214688446E+02  0.32427223716E+02  0.51100000000E-03 0.  1.
        -12    1    3    3    0    0  0.10245172288E+02 -0.15833446354E+01  0.35663386495E+01  0.10963088379E+02  0.00000000000E+00 0.  1.
</event>
<event>
 7    1  0.3528441E-013  0.5930196E+02  0.7816164E-02  0.1266605E+00
        -11   -1    0    0    0    0  0.00000000000E+00  0.00000000000E+00  0.45593999997E+02  0.45594000000E+02  0.51100000000E-03 0. -1.
         11   -1    0    0    0    0 -0.00000000000E+00 -0.00000000000E+00 -0.45593999997E+02  0.45594000000E+02  0.51100000000E-03 0.  1.
    9900012    2    1    2    0    0 -0.14660595294E+02 -0.11500576954E+02  0.25875143384E+02  0.59301962776E+02  0.50000034193E+02 0.  0.
        -12    1    1    2    0    0  0.14660595294E+02  0.11500576954E+02 -0.25875143384E+02  0.31886037224E+02  0.00000000000E+00 0.  1.
         11    1    3    3    0    0  0.36710793889E+01  0.60741587344E+01  0.63434866861E+01  0.95190362856E+01  0.51100000000E-03 0. -1.
        -11    1    3    3    0    0  0.29700374357E+01  0.90816343284E+01  0.11077483786E+02  0.14629007203E+02  0.51100000000E-03 0.  1.
        -12    1    3    3    0    0 -0.21301712119E+02 -0.26656370017E+02  0.84541729124E+01  0.35153919288E+02  0.00000000000E+00 0.  1.
</event>
<event>
 7    1  0.3528441E-013  0.5930194E+02  0.7816164E-02  0.1266605E+00
        -11   -1    0    0    0    0  0.00000000000E+00  0.00000000000E+00  0.45593999997E+02  0.45594000000E+02  0.51100000000E-03 0.  1.
         11   -1    0    0    0    0 -0.00000000000E+00 -0.00000000000E+00 -0.45593999997E+02  0.45594000000E+02  0.51100000000E-03 0. -1.
    9900012    2    1    2    0    0 -0.24135568852E+02  0.16795959865E+02 -0.12332515469E+02  0.59301938949E+02  0.49999990738E+02 0.  0.
        -12    1    1    2    0    0  0.24135568852E+02 -0.16795959865E+02  0.12332515469E+02  0.31886061051E+02  0.00000000000E+00 0.  1.
         11    1    3    3    0    0 -0.21926246604E+02  0.15033208682E+01 -0.25249053695E+02  0.33474392848E+02  0.51100000000E-03 0. -1.
        -11    1    3    3    0    0 -0.79725736012E+01  0.10210295562E+02  0.30261965036E+01  0.13303004579E+02  0.51100000000E-03 0.  1.
        -12    1    3    3    0    0  0.57632513536E+01  0.50823434340E+01  0.98903417227E+01  0.12524541522E+02  0.00000000000E+00 0.  1.
</event>
<event>
 7    1  0.3528441E-013  0.5930187E+02  0.7816164E-02  0.1266605E+00
        -11   -1    0    0    0    0  0.00000000000E+00  0.00000000000E+00  0.45593999997E+02  0.45594000000E+02  0.51100000000E-03 0.  1.
         11   -1    0    0    0    0 -0.00000000000E+00 -0.00000000000E+00 -0.45593999997E+02  0.45594000000E+02  0.51100000000E-03 0. -1.
    9900012    2    1    2    0    0 -0.15516361259E+02 -0.22268493512E+02 -0.16735648566E+02  0.59301871308E+02  0.49999867377E+02 0.  0.
        -12    1    1    2    0    0  0.15516361259E+02  0.22268493512E+02  0.16735648566E+02  0.31886128692E+02  0.00000000000E+00 0.  1.
         11    1    3    3    0    0  0.10650338815E+02 -0.89326426544E+01 -0.81706396512E+01  0.16123931724E+02  0.51100000000E-03 0. -1.
        -11    1    3    3    0    0 -0.61575918352E+01 -0.19827200439E+02 -0.76380596387E+01  0.22121794000E+02  0.51100000000E-03 0.  1.
        -12    1    3    3    0    0 -0.20009108239E+02  0.64913495815E+01 -0.92694927637E+00  0.21056145585E+02  0.00000000000E+00 0.  1.
</event>
<event>
 7    1  0.3528441E-013  0.5930192E+02  0.7816164E-02  0.1266605E+00
        -11   -1    0    0    0    0  0.00000000000E+00  0.00000000000E+00  0.45593999997E+02  0.45594000000E+02  0.51100000000E-03 0. -1.
         11   -1    0    0    0    0 -0.00000000000E+00 -0.00000000000E+00 -0.45593999997E+02  0.45594000000E+02  0.51100000000E-03 0.  1.
    9900012    2    1    2    0    0 -0.16012877662E+02 -0.35422715781E+01  0.27345239226E+02  0.59301920792E+02  0.49999957623E+02 0.  0.
        -12    1    1    2    0    0  0.16012877662E+02  0.35422715781E+01 -0.27345239226E+02  0.31886079208E+02  0.00000000000E+00 0.  1.
         11    1    3    3    0    0  0.37407096078E+01 -0.18639423306E+02  0.16257579214E+02  0.25014593575E+02  0.51100000000E-03 0. -1.
        -11    1    3    3    0    0 -0.10168502361E+01 -0.35240795253E+01  0.65175174773E+01  0.74787134744E+01  0.51100000000E-03 0.  1.
         12    1    3    3    0    0 -0.18736737033E+02  0.18621231253E+02  0.45701425348E+01  0.26808613743E+02  0.00000000000E+00 0. -1.
</event>
<event>
 7    1  0.3528441E-013  0.5930192E+02  0.7816164E-02  0.1266605E+00
        -11   -1    0    0    0    0  0.00000000000E+00  0.00000000000E+00  0.45593999997E+02  0.45594000000E+02  0.51100000000E-03 0.  1.
         11   -1    0    0    0    0 -0.00000000000E+00 -0.00000000000E+00 -0.45593999997E+02  0.45594000000E+02  0.51100000000E-03 0. -1.
    9900012    2    1    2    0    0 -0.61110302838E+01  0.87556910768E+01 -0.30045220891E+02  0.59301919718E+02  0.49999955664E+02 0.  0.
        -12    1    1    2    0    0  0.61110302838E+01 -0.87556910768E+01  0.30045220891E+02  0.31886080282E+02  0.00000000000E+00 0.  1.
         11    1    3    3    0    0  0.35290208976E+01 -0.56125052592E+01 -0.99395201507E+01  0.11947730532E+02  0.51100000000E-03 0.  1.
        -11    1    3    3    0    0  0.98875018766E+01  0.19507105763E+02 -0.58566834169E+01  0.22640463986E+02  0.51100000000E-03 0. -1.
         12    1    3    3    0    0 -0.19527553058E+02 -0.51389094269E+01 -0.14249017324E+02  0.24713725199E+02  0.00000000000E+00 0. -1.
</event>
<event>
 7    1  0.3528441E-013  0.5930188E+02  0.7816164E-02  0.1266605E+00
        -11   -1    0    0    0    0  0.00000000000E+00  0.00000000000E+00  0.45593999997E+02  0.45594000000E+02  0.51100000000E-03 0. -1.
         11   -1    0    0    0    0 -0.00000000000E+00 -0.00000000000E+00 -0.45593999997E+02  0.45594000000E+02  0.51100000000E-03 0.  1.
    9900012    2    1    2    0    0 -0.29749560842E+02 -0.11337170518E+02  0.17767745429E+01  0.59301878671E+02  0.49999880805E+02 0.  0.
        -12    1    1    2    0    0  0.29749560842E+02  0.11337170518E+02 -0.17767745429E+01  0.31886121329E+02  0.00000000000E+00 0.  1.
         11    1    3    3    0    0 -0.29643703229E+02 -0.20405730368E+02 -0.35346658342E+00  0.35989830673E+02  0.51100000000E-03 0. -1.
        -11    1    3    3    0    0  0.11920144270E+01 -0.44386663431E+01  0.74364314831E+01  0.87420347039E+01  0.51100000000E-03 0.  1.
        -12    1    3    3    0    0 -0.12978720404E+01  0.13507226194E+02 -0.53061903568E+01  0.14570013294E+02  0.00000000000E+00 0.  1.
</event>
<event>
 7    1  0.3528441E-013  0.5930188E+02  0.7816164E-02  0.1266605E+00
        -11   -1    0    0    0    0  0.00000000000E+00  0.00000000000E+00  0.45593999997E+02  0.45594000000E+02  0.51100000000E-03 0. -1.
         11   -1    0    0    0    0 -0.00000000000E+00 -0.00000000000E+00 -0.45593999997E+02  0.45594000000E+02  0.51100000000E-03 0.  1.
    9900012    2    1    2    0    0  0.18410523534E+02  0.57994576235E+00  0.26027692269E+02  0.59301882664E+02  0.49999888088E+02 0.  0.
        -12    1    1    2    0    0 -0.18410523534E+02 -0.57994576235E+00 -0.26027692269E+02  0.31886117336E+02  0.00000000000E+00 0.  1.
         11    1    3    3    0    0  0.20333522087E+02 -0.42243181435E+01  0.14658983483E+02  0.25420125516E+02  0.51100000000E-03 0. -1.
        -11    1    3    3    0    0  0.47331839173E+01 -0.19827866683E+01 -0.95851070381E+01  0.10872384750E+02  0.51100000000E-03 0.  1.
        -12    1    3    3    0    0 -0.66561824698E+01  0.67870505742E+01  0.20953815824E+02  0.23009372398E+02  0.00000000000E+00 0.  1.
</event>
<event>
 7    1  0.3528441E-013  0.5930195E+02  0.7816164E-02  0.1266605E+00
        -11   -1    0    0    0    0  0.00000000000E+00  0.00000000000E+00  0.45593999997E+02  0.45594000000E+02  0.51100000000E-03 0. -1.
         11   -1    0    0    0    0 -0.00000000000E+00 -0.00000000000E+00 -0.45593999997E+02  0.45594000000E+02  0.51100000000E-03 0.  1.
    9900012    2    1    2    0    0 -0.24787411863E+02 -0.11768995388E+02  0.16241772776E+02  0.59301949410E+02  0.50000009816E+02 0.  0.
        -12    1    1    2    0    0  0.24787411863E+02  0.11768995388E+02 -0.16241772776E+02  0.31886050590E+02  0.00000000000E+00 0.  1.
         11    1    3    3    0    0 -0.50384427795E+01  0.10458836687E+02  0.14497434093E+02  0.18572796398E+02  0.51100000000E-03 0. -1.
        -11    1    3    3    0    0 -0.77082199471E+01  0.57140119109E+01 -0.27305346734E+01  0.99760917565E+01  0.51100000000E-03 0.  1.
        -12    1    3    3    0    0 -0.12040749137E+02 -0.27941843985E+02  0.44748733558E+01  0.30753061256E+02  0.00000000000E+00 0.  1.
</event>
<event>
 7    1  0.3528441E-013  0.5930195E+02  0.7816164E-02  0.1266605E+00
        -11   -1    0    0    0    0  0.00000000000E+00  0.00000000000E+00  0.45593999997E+02  0.45594000000E+02  0.51100000000E-03 0. -1.
         11   -1    0    0    0    0 -0.00000000000E+00 -0.00000000000E+00 -0.45593999997E+02  0.45594000000E+02  0.51100000000E-03 0.  1.
    9900012    2    1    2    0    0  0.59091038208E+01  0.17696227896E+02  0.25858199160E+02  0.59301945784E+02  0.50000003202E+02 0.  0.
        -12    1    1    2    0    0 -0.59091038208E+01 -0.17696227896E+02 -0.25858199160E+02  0.31886054216E+02  0.00000000000E+00 0.  1.
         11    1    3    3    0    0  0.76540625498E+01  0.51237257846E+01 -0.29473900344E+01  0.96707987109E+01  0.51100000000E-03 0. -1.
        -11    1    3    3    0    0  0.16162015673E+02  0.92123961092E+01  0.42982318814E+01  0.19093291761E+02  0.51100000000E-03 0.  1.
         12    1    3    3    0    0 -0.17906974402E+02  0.33601060025E+01  0.24507357313E+02  0.30537855312E+02  0.00000000000E+00 0. -1.
</event>
<event>
 7    1  0.3528441E-013  0.5930193E+02  0.7816164E-02  0.1266605E+00
        -11   -1    0    0    0    0  0.00000000000E+00  0.00000000000E+00  0.45593999997E+02  0.45594000000E+02  0.51100000000E-03 0. -1.
         11   -1    0    0    0    0 -0.00000000000E+00 -0.00000000000E+00 -0.45593999997E+02  0.45594000000E+02  0.51100000000E-03 0.  1.
    9900012    2    1    2    0    0  0.25586041052E+02  0.22259925137E+01  0.18897645741E+02  0.59301928528E+02  0.49999971732E+02 0.  0.
        -12    1    1    2    0    0 -0.25586041052E+02 -0.22259925137E+01 -0.18897645741E+02  0.31886071472E+02  0.00000000000E+00 0.  1.
         11    1    3    3    0    0  0.13743926259E+02  0.14474186806E+02  0.13197369935E+02  0.23928396649E+02  0.51100000000E-03 0. -1.
        -11    1    3    3    0    0 -0.10029535094E+02 -0.31999443910E+01  0.50966350693E+01  0.11696448504E+02  0.51100000000E-03 0.  1.
         12    1    3    3    0    0  0.21871649887E+02 -0.90482499015E+01  0.60364073627E+00  0.23677083376E+02  0.00000000000E+00 0. -1.
</event>
<event>
 7    1  0.3528441E-013  0.5930196E+02  0.7816164E-02  0.1266605E+00
        -11   -1    0    0    0    0  0.00000000000E+00  0.00000000000E+00  0.45593999997E+02  0.45594000000E+02  0.51100000000E-03 0.  1.
         11   -1    0    0    0    0 -0.00000000000E+00 -0.00000000000E+00 -0.45593999997E+02  0.45594000000E+02  0.51100000000E-03 0. -1.
    9900012    2    1    2    0    0 -0.13448940932E+02  0.26191045355E+02 -0.12242329403E+02  0.59301960764E+02  0.50000030522E+02 0.  0.
        -12    1    1    2    0    0  0.13448940932E+02 -0.26191045355E+02  0.12242329403E+02  0.31886039236E+02  0.00000000000E+00 0.  1.
         11    1    3    3    0    0 -0.31753106924E+01  0.14320150187E+02 -0.10998931504E+02  0.18333733768E+02  0.51100000000E-03 0. -1.
        -11    1    3    3    0    0  0.68366588108E+01  0.18789078824E+02  0.63979134591E+01  0.20992919845E+02  0.51100000000E-03 0.  1.
        -12    1    3    3    0    0 -0.17110289050E+02 -0.69181836563E+01 -0.76413113587E+01  0.19975307150E+02  0.00000000000E+00 0.  1.
</event>
<event>
 7    1  0.3528441E-013  0.5930193E+02  0.7816164E-02  0.1266605E+00
        -11   -1    0    0    0    0  0.00000000000E+00  0.00000000000E+00  0.45593999997E+02  0.45594000000E+02  0.51100000000E-03 0. -1.
         11   -1    0    0    0    0 -0.00000000000E+00 -0.00000000000E+00 -0.45593999997E+02  0.45594000000E+02  0.51100000000E-03 0.  1.
    9900012    2    1    2    0    0 -0.13759672173E+02  0.26717401921E+02  0.10657064365E+02  0.59301934633E+02  0.49999982866E+02 0.  0.
        -12    1    1    2    0    0  0.13759672173E+02 -0.26717401921E+02 -0.10657064365E+02  0.31886065367E+02  0.00000000000E+00 0.  1.
         11    1    3    3    0    0  0.10414674042E+00  0.57937133094E+01  0.20279917442E+02  0.21091538876E+02  0.51100000000E-03 0. -1.
        -11    1    3    3    0    0  0.76501296976E+01  0.63715576267E+01 -0.68599880312E+01  0.12090519717E+02  0.51100000000E-03 0.  1.
         12    1    3    3    0    0 -0.21513948611E+02  0.14552130985E+02 -0.27628650462E+01  0.26119876039E+02  0.00000000000E+00 0. -1.
</event>
<event>
 7    1  0.3528441E-013  0.5930207E+02  0.7816164E-02  0.1266604E+00
        -11   -1    0    0    0    0  0.00000000000E+00  0.00000000000E+00  0.45593999997E+02  0.45594000000E+02  0.51100000000E-03 0.  1.
         11   -1    0    0    0    0 -0.00000000000E+00 -0.00000000000E+00 -0.45593999997E+02  0.45594000000E+02  0.51100000000E-03 0. -1.
    9900012    2    1    2    0    0  0.28864742804E+02 -0.95622969169E+00 -0.13513875619E+02  0.59302069143E+02  0.50000228180E+02 0.  0.
        -12    1    1    2    0    0 -0.28864742804E+02  0.95622969169E+00  0.13513875619E+02  0.31885930857E+02  0.00000000000E+00 0.  1.
         11    1    3    3    0    0  0.14124940094E+02 -0.43334788715E+01  0.77571542860E+01  0.16687312985E+02  0.51100000000E-03 0. -1.
        -11    1    3    3    0    0  0.83903995990E+01  0.13328330007E+02  0.26208006585E+01  0.15965956989E+02  0.51100000000E-03 0.  1.
         12    1    3    3    0    0  0.63494031104E+01 -0.99510808273E+01 -0.23891830564E+02  0.26648799169E+02  0.00000000000E+00 0. -1.
</event>
<event>
 7    1  0.3528441E-013  0.5930194E+02  0.7816164E-02  0.1266605E+00
        -11   -1    0    0    0    0  0.00000000000E+00  0.00000000000E+00  0.45593999997E+02  0.45594000000E+02  0.51100000000E-03 0. -1.
         11   -1    0    0    0    0 -0.00000000000E+00 -0.00000000000E+00 -0.45593999997E+02  0.45594000000E+02  0.51100000000E-03 0.  1.
    9900012    2    1    2    0    0 -0.52109625234E+00 -0.31827595108E+02 -0.18583378497E+01  0.59301940801E+02  0.49999994116E+02 0.  0.
        -12    1    1    2    0    0  0.52109625234E+00  0.31827595108E+02  0.18583378497E+01  0.31886059199E+02  0.00000000000E+00 0.  1.
         11    1    3    3    0    0 -0.18534264355E+02 -0.19957343385E+02  0.18053822584E+01  0.27296042121E+02  0.51100000000E-03 0. -1.
        -11    1    3    3    0    0  0.52725244596E+01 -0.14752483155E+02 -0.88012264148E+01  0.17969331097E+02  0.51100000000E-03 0.  1.
         12    1    3    3    0    0  0.12740643643E+02  0.28822314318E+01  0.51375063066E+01  0.14036567583E+02  0.00000000000E+00 0. -1.
</event>
<event>
 7    1  0.3528441E-013  0.5930193E+02  0.7816164E-02  0.1266605E+00
        -11   -1    0    0    0    0  0.00000000000E+00  0.00000000000E+00  0.45593999997E+02  0.45594000000E+02  0.51100000000E-03 0. -1.
         11   -1    0    0    0    0 -0.00000000000E+00 -0.00000000000E+00 -0.45593999997E+02  0.45594000000E+02  0.51100000000E-03 0.  1.
    9900012    2    1    2    0    0 -0.50920304111E+01 -0.10500920888E+02  0.29673617497E+02  0.59301926417E+02  0.49999967882E+02 0.  0.
        -12    1    1    2    0    0  0.50920304111E+01  0.10500920888E+02 -0.29673617497E+02  0.31886073583E+02  0.00000000000E+00 0.  1.
         11    1    3    3    0    0  0.24021316240E+01 -0.76330674776E+01  0.89714724599E+00  0.80522561371E+01  0.51100000000E-03 0. -1.
        -11    1    3    3    0    0  0.44188463811E+01 -0.19861694343E+02  0.20567529791E+02  0.28931581144E+02  0.51100000000E-03 0.  1.
         12    1    3    3    0    0 -0.11913008416E+02  0.16993840933E+02  0.82089404602E+01  0.22318089136E+02  0.00000000000E+00 0. -1.
</event>
<event>
 7    1  0.3528441E-013  0.5930202E+02  0.7816164E-02  0.1266604E+00
        -11   -1    0    0    0    0  0.00000000000E+00  0.00000000000E+00  0.45593999997E+02  0.45594000000E+02  0.51100000000E-03 0.  1.
         11   -1    0    0    0    0 -0.00000000000E+00 -0.00000000000E+00 -0.45593999997E+02  0.45594000000E+02  0.51100000000E-03 0. -1.
    9900012    2    1    2    0    0 -0.80991433070E+01  0.96543924610E+01 -0.29290137424E+02  0.59302022417E+02  0.50000142963E+02 0.  0.
        -12    1    1    2    0    0  0.80991433070E+01 -0.96543924610E+01  0.29290137424E+02  0.31885977583E+02  0.00000000000E+00 0.  1.
         11    1    3    3    0    0 -0.12535804759E+02  0.11404830831E+02 -0.23124753125E+02  0.28670032693E+02  0.51100000000E-03 0. -1.
        -11    1    3    3    0    0 -0.11409964105E+02 -0.49964593616E+01 -0.72634936400E+01  0.14419092453E+02  0.51100000000E-03 0.  1.
        -12    1    3    3    0    0  0.15846625557E+02  0.32460209918E+01  0.10981093415E+01  0.16212897272E+02  0.00000000000E+00 0.  1.
</event>
<event>
 7    1  0.3528441E-013  0.5930194E+02  0.7816164E-02  0.1266605E+00
        -11   -1    0    0    0    0  0.00000000000E+00  0.00000000000E+00  0.45593999997E+02  0.45594000000E+02  0.51100000000E-03 0. -1.
         11   -1    0    0    0    0 -0.00000000000E+00 -0.00000000000E+00 -0.45593999997E+02  0.45594000000E+02  0.51100000000E-03 0.  1.
    9900012    2    1    2    0    0  0.96057764454E+00  0.31871349550E+02  0.12447537794E+00  0.59301935244E+02  0.49999983980E+02 0.  0.
        -12    1    1    2    0    0 -0.96057764454E+00 -0.31871349550E+02 -0.12447537794E+00  0.31886064756E+02  0.00000000000E+00 0.  1.
         11    1    3    3    0    0  0.11061922145E+02  0.21624249947E+02  0.10873199092E+02  0.26612041749E+02  0.51100000000E-03 0. -1.
        -11    1    3    3    0    0 -0.10249491534E+02  0.62971394605E+00  0.70517290242E+01  0.12456945807E+02  0.51100000000E-03 0.  1.
         12    1    3    3    0    0  0.14814703394E+00  0.96173856567E+01 -0.17800452738E+02  0.20232947687E+02  0.00000000000E+00 0. -1.
</event>
<event>
 7    1  0.3528441E-013  0.5930193E+02  0.7816164E-02  0.1266605E+00
        -11   -1    0    0    0    0  0.00000000000E+00  0.00000000000E+00  0.45593999997E+02  0.45594000000E+02  0.51100000000E-03 0.  1.
         11   -1    0    0    0    0 -0.00000000000E+00 -0.00000000000E+00 -0.45593999997E+02  0.45594000000E+02  0.51100000000E-03 0. -1.
    9900012    2    1    2    0    0  0.22801553403E+02  0.75724150263E+01 -0.20963513622E+02  0.59301933916E+02  0.49999981559E+02 0.  0.
        -12    1    1    2    0    0 -0.22801553403E+02 -0.75724150263E+01  0.20963513622E+02  0.31886066084E+02  0.00000000000E+00 0.  1.
         11    1    3    3    0    0  0.18222687337E+02  0.10319430180E+02  0.25391080868E+01  0.21095118941E+02  0.51100000000E-03 0. -1.
        -11    1    3    3    0    0 -0.23136025487E+01  0.80421170370E+01  0.29059455367E+01  0.88584943932E+01  0.51100000000E-03 0.  1.
         12    1    3    3    0    0  0.68924686156E+01 -0.10789132191E+02 -0.26408567245E+02  0.29348320582E+02  0.00000000000E+00 0. -1.
</event>
<event>
 7    1  0.3528441E-013  0.5930193E+02  0.7816164E-02  0.1266605E+00
        -11   -1    0    0    0    0  0.00000000000E+00  0.00000000000E+00  0.45593999997E+02  0.45594000000E+02  0.51100000000E-03 0.  1.
         11   -1    0    0    0    0 -0.00000000000E+00 -0.00000000000E+00 -0.45593999997E+02  0.45594000000E+02  0.51100000000E-03 0. -1.
    9900012    2    1    2    0    0  0.24057987537E+02  0.14310934694E+02 -0.15268660392E+02  0.59301927706E+02  0.49999970234E+02 0.  0.
        -12    1    1    2    0    0 -0.24057987537E+02 -0.14310934694E+02  0.15268660392E+02  0.31886072294E+02  0.00000000000E+00 0.  1.
         11    1    3    3    0    0  0.87511375506E+01 -0.19807408637E+01 -0.68241390453E+01  0.11272737767E+02  0.51100000000E-03 0. -1.
        -11    1    3    3    0    0 -0.32914464625E+01  0.16770016837E+01  0.14567520533E+02  0.15028593055E+02  0.51100000000E-03 0.  1.
         12    1    3    3    0    0  0.18598296449E+02  0.14614673874E+02 -0.23012041880E+02  0.33000596884E+02  0.00000000000E+00 0. -1.
</event>
<event>
 7    1  0.3528441E-013  0.5930194E+02  0.7816164E-02  0.1266605E+00
        -11   -1    0    0    0    0  0.00000000000E+00  0.00000000000E+00  0.45593999997E+02  0.45594000000E+02  0.51100000000E-03 0.  1.
         11   -1    0    0    0    0 -0.00000000000E+00 -0.00000000000E+00 -0.45593999997E+02  0.45594000000E+02  0.51100000000E-03 0. -1.
    9900012    2    1    2    0    0  0.16454183286E+02  0.26107554610E+02 -0.80234715722E+01  0.59301942681E+02  0.49999997543E+02 0.  0.
        -12    1    1    2    0    0 -0.16454183286E+02 -0.26107554610E+02  0.80234715722E+01  0.31886057319E+02  0.00000000000E+00 0.  1.
         11    1    3    3    0    0 -0.71485321334E+01  0.18547884587E+02 -0.14536731438E+02  0.24626045063E+02  0.51100000000E-03 0. -1.
        -11    1    3    3    0    0  0.17304894463E+02  0.76065508904E+01 -0.66864910171E+01  0.20050639671E+02  0.51100000000E-03 0.  1.
        -12    1    3    3    0    0  0.62978209566E+01 -0.46880867389E-01  0.13199750883E+02  0.14625257946E+02  0.00000000000E+00 0.  1.
</event>
<event>
 7    1  0.3528441E-013  0.5930194E+02  0.7816164E-02  0.1266605E+00
        -11   -1    0    0    0    0  0.00000000000E+00  0.00000000000E+00  0.45593999997E+02  0.45594000000E+02  0.51100000000E-03 0. -1.
         11   -1    0    0    0    0 -0.00000000000E+00 -0.00000000000E+00 -0.45593999997E+02  0.45594000000E+02  0.51100000000E-03 0.  1.
    9900012    2    1    2    0    0  0.25551516484E+02 -0.17807476693E+02  0.68362845152E+01  0.59301937107E+02  0.49999987379E+02 0.  0.
        -12    1    1    2    0    0 -0.25551516484E+02  0.17807476693E+02 -0.68362845152E+01  0.31886062893E+02  0.00000000000E+00 0.  1.
         11    1    3    3    0    0 -0.98296116280E+01 -0.99297769692E+01  0.17547108709E+01  0.14081929765E+02  0.51100000000E-03 0. -1.
        -11    1    3    3    0    0  0.31214487578E+00 -0.93465758090E+01  0.38074503303E+01  0.10097157623E+02  0.51100000000E-03 0.  1.
         12    1    3    3    0    0  0.35068983236E+02  0.14688760851E+01  0.12741233140E+01  0.35122849719E+02  0.00000000000E+00 0. -1.
</event>
<event>
 7    1  0.3528441E-013  0.5930193E+02  0.7816164E-02  0.1266605E+00
        -11   -1    0    0    0    0  0.00000000000E+00  0.00000000000E+00  0.45593999997E+02  0.45594000000E+02  0.51100000000E-03 0.  1.
         11   -1    0    0    0    0 -0.00000000000E+00 -0.00000000000E+00 -0.45593999997E+02  0.45594000000E+02  0.51100000000E-03 0. -1.
    9900012    2    1    2    0    0  0.43493790026E+01  0.31448201214E+02 -0.29690497108E+01  0.59301926026E+02  0.49999967168E+02 0.  0.
        -12    1    1    2    0    0 -0.43493790026E+01 -0.31448201214E+02  0.29690497108E+01  0.31886073974E+02  0.00000000000E+00 0.  1.
         11    1    3    3    0    0 -0.29265877285E+01 -0.36055471210E+01 -0.23359908092E+01  0.51982438473E+01  0.51100000000E-03 0. -1.
        -11    1    3    3    0    0 -0.67254238380E+01 -0.37468008856E+01  0.88991664854E+01  0.11767115495E+02  0.51100000000E-03 0.  1.
        -12    1    3    3    0    0  0.14001390569E+02  0.38800549221E+02 -0.95322253870E+01  0.42336566683E+02  0.00000000000E+00 0.  1.
</event>
<event>
 7    1  0.3528441E-013  0.5930194E+02  0.7816164E-02  0.1266605E+00
        -11   -1    0    0    0    0  0.00000000000E+00  0.00000000000E+00  0.45593999997E+02  0.45594000000E+02  0.51100000000E-03 0.  1.
         11   -1    0    0    0    0 -0.00000000000E+00 -0.00000000000E+00 -0.45593999997E+02  0.45594000000E+02  0.51100000000E-03 0. -1.
    9900012    2    1    2    0    0 -0.99964658970E+01 -0.12555793797E+02 -0.27552559751E+02  0.59301939767E+02  0.49999992230E+02 0.  0.
        -12    1    1    2    0    0  0.99964658970E+01  0.12555793797E+02  0.27552559751E+02  0.31886060233E+02  0.00000000000E+00 0.  1.
         11    1    3    3    0    0 -0.78256994335E+00 -0.17380444316E+02 -0.28767082019E+02  0.33619001599E+02  0.51100000000E-03 0. -1.
        -11    1    3    3    0    0 -0.95272769668E+01 -0.74876133408E+01 -0.33107949614E+01  0.12561636975E+02  0.51100000000E-03 0.  1.
         12    1    3    3    0    0  0.31338101315E+00  0.12312263860E+02  0.45253172292E+01  0.13121301194E+02  0.00000000000E+00 0. -1.
</event>
<event>
 7    1  0.3528441E-013  0.5930196E+02  0.7816164E-02  0.1266605E+00
        -11   -1    0    0    0    0  0.00000000000E+00  0.00000000000E+00  0.45593999997E+02  0.45594000000E+02  0.51100000000E-03 0.  1.
         11   -1    0    0    0    0 -0.00000000000E+00 -0.00000000000E+00 -0.45593999997E+02  0.45594000000E+02  0.51100000000E-03 0. -1.
    9900012    2    1    2    0    0  0.14562977633E+02 -0.23772657255E+01 -0.28266376764E+02  0.59301956576E+02  0.50000022884E+02 0.  0.
        -12    1    1    2    0    0 -0.14562977633E+02  0.23772657255E+01  0.28266376764E+02  0.31886043424E+02  0.00000000000E+00 0.  1.
         11    1    3    3    0    0 -0.62846862410E+01 -0.50708618087E+01 -0.76964514075E+01  0.11155549523E+02  0.51100000000E-03 0. -1.
        -11    1    3    3    0    0  0.28866802022E+02 -0.62574081254E+01 -0.76719365111E+01  0.30517306984E+02  0.51100000000E-03 0.  1.
         12    1    3    3    0    0 -0.80191381479E+01  0.89510042085E+01 -0.12897988846E+02  0.17629100069E+02  0.00000000000E+00 0. -1.
</event>
<event>
 7    1  0.3528441E-013  0.5930189E+02  0.7816164E-02  0.1266605E+00
        -11   -1    0    0    0    0  0.00000000000E+00  0.00000000000E+00  0.45593999997E+02  0.45594000000E+02  0.51100000000E-03 0.  1.
         11   -1    0    0    0    0 -0.00000000000E+00 -0.00000000000E+00 -0.45593999997E+02  0.45594000000E+02  0.51100000000E-03 0. -1.
    9900012    2    1    2    0    0 -0.22381165948E+02 -0.12529611203E+02 -0.18942443639E+02  0.59301891471E+02  0.49999904150E+02 0.  0.
        -12    1    1    2    0    0  0.22381165948E+02  0.12529611203E+02  0.18942443639E+02  0.31886108529E+02  0.00000000000E+00 0.  1.
         11    1    3    3    0    0 -0.23565283671E+02  0.56608500683E+01 -0.26688843647E+01  0.24382181240E+02  0.51100000000E-03 0. -1.
        -11    1    3    3    0    0  0.38602921371E+01  0.13116197562E+01 -0.14606015121E+02  0.15164362161E+02  0.51100000000E-03 0.  1.
        -12    1    3    3    0    0 -0.26761744136E+01 -0.19502081028E+02 -0.16675441540E+01  0.19755348071E+02  0.00000000000E+00 0.  1.
</event>
<event>
 7    1  0.3528441E-013  0.5930196E+02  0.7816164E-02  0.1266605E+00
        -11   -1    0    0    0    0  0.00000000000E+00  0.00000000000E+00  0.45593999997E+02  0.45594000000E+02  0.51100000000E-03 0. -1.
         11   -1    0    0    0    0 -0.00000000000E+00 -0.00000000000E+00 -0.45593999997E+02  0.45594000000E+02  0.51100000000E-03 0.  1.
    9900012    2    1    2    0    0  0.36477817497E+01 -0.23221917136E+02  0.21544274857E+02  0.59301960324E+02  0.50000029720E+02 0.  0.
        -12    1    1    2    0    0 -0.36477817497E+01  0.23221917136E+02 -0.21544274857E+02  0.31886039676E+02  0.00000000000E+00 0.  1.
         11    1    3    3    0    0  0.12328004267E+01 -0.74847752512E+01 -0.56454680962E+01  0.94558430476E+01  0.51100000000E-03 0. -1.
        -11    1    3    3    0    0  0.75680146479E+01 -0.64430289398E+01 -0.82063123121E+01  0.12889182660E+02  0.51100000000E-03 0.  1.
         12    1    3    3    0    0 -0.51530333249E+01 -0.92941129446E+01  0.35396055265E+02  0.36956934616E+02  0.00000000000E+00 0. -1.
</event>
<event>
 7    1  0.3528441E-013  0.5930191E+02  0.7816164E-02  0.1266605E+00
        -11   -1    0    0    0    0  0.00000000000E+00  0.00000000000E+00  0.45593999997E+02  0.45594000000E+02  0.51100000000E-03 0.  1.
         11   -1    0    0    0    0 -0.00000000000E+00 -0.00000000000E+00 -0.45593999997E+02  0.45594000000E+02  0.51100000000E-03 0. -1.
    9900012    2    1    2    0    0 -0.29367523740E+01 -0.31697211006E+02  0.18398194128E+01  0.59301911568E+02  0.49999940800E+02 0.  0.
        -12    1    1    2    0    0  0.29367523740E+01  0.31697211006E+02 -0.18398194128E+01  0.31886088432E+02  0.00000000000E+00 0.  1.
         11    1    3    3    0    0  0.89556387497E+00 -0.16493179152E+02 -0.79401731241E+01  0.18326847593E+02  0.51100000000E-03 0. -1.
        -11    1    3    3    0    0 -0.42158888581E+01 -0.20883753111E+02 -0.76516670116E+01  0.22637421920E+02  0.51100000000E-03 0.  1.
        -12    1    3    3    0    0  0.38357260919E+00  0.56797212573E+01  0.17431659549E+02  0.18337642055E+02  0.00000000000E+00 0.  1.
</event>
<event>
 7    1  0.3528441E-013  0.5930195E+02  0.7816164E-02  0.1266605E+00
        -11   -1    0    0    0    0  0.00000000000E+00  0.00000000000E+00  0.45593999997E+02  0.45594000000E+02  0.51100000000E-03 0. -1.
         11   -1    0    0    0    0 -0.00000000000E+00 -0.00000000000E+00 -0.45593999997E+02  0.45594000000E+02  0.51100000000E-03 0.  1.
    9900012    2    1    2    0    0  0.27307433230E+02 -0.99379567326E+01  0.13124842407E+02  0.59301946907E+02  0.50000005252E+02 0.  0.
        -12    1    1    2    0    0 -0.27307433230E+02  0.99379567326E+01 -0.13124842407E+02  0.31886053093E+02  0.00000000000E+00 0.  1.
         11    1    3    3    0    0  0.83359718310E+01 -0.15760149424E+02 -0.16306975132E+01  0.17903349152E+02  0.51100000000E-03 0. -1.
        -11    1    3    3    0    0 -0.64612273344E+01 -0.11056820578E+00 -0.53906948991E+01  0.84154189290E+01  0.51100000000E-03 0.  1.
        -12    1    3    3    0    0  0.25432688733E+02  0.59327608972E+01  0.20146234819E+02  0.32983178826E+02  0.00000000000E+00 0.  1.
</event>
<event>
 7    1  0.3528441E-013  0.5930194E+02  0.7816164E-02  0.1266605E+00
        -11   -1    0    0    0    0  0.00000000000E+00  0.00000000000E+00  0.45593999997E+02  0.45594000000E+02  0.51100000000E-03 0. -1.
         11   -1    0    0    0    0 -0.00000000000E+00 -0.00000000000E+00 -0.45593999997E+02  0.45594000000E+02  0.51100000000E-03 0.  1.
    9900012    2    1    2    0    0 -0.20157412571E+02 -0.14266866669E+02  0.20170673684E+02  0.59301939677E+02  0.49999992065E+02 0.  0.
        -12    1    1    2    0    0  0.20157412571E+02  0.14266866669E+02 -0.20170673684E+02  0.31886060323E+02  0.00000000000E+00 0.  1.
         11    1    3    3    0    0 -0.12421572117E+02 -0.50786498259E+01  0.75639408996E+01  0.15404588281E+02  0.51100000000E-03 0. -1.
        -11    1    3    3    0    0 -0.15691932754E+01  0.10918511144E+02 -0.86327457498E+01  0.14007160761E+02  0.51100000000E-03 0.  1.
         12    1    3    3    0    0 -0.61666471780E+01 -0.20106727987E+02  0.21239478534E+02  0.29890190635E+02  0.00000000000E+00 0. -1.
</event>
<event>
 7    1  0.3528441E-013  0.5930182E+02  0.7816164E-02  0.1266605E+00
        -11   -1    0    0    0    0  0.00000000000E+00  0.00000000000E+00  0.45593999997E+02  0.45594000000E+02  0.51100000000E-03 0.  1.
         11   -1    0    0    0    0 -0.00000000000E+00 -0.00000000000E+00 -0.45593999997E+02  0.45594000000E+02  0.51100000000E-03 0. -1.
    9900012    2    1    2    0    0 -0.22389224552E+02  0.48705965785E+01 -0.22174954736E+02  0.59301816400E+02  0.49999767237E+02 0.  0.
        -12    1    1    2    0    0  0.22389224552E+02 -0.48705965785E+01  0.22174954736E+02  0.31886183600E+02  0.00000000000E+00 0.  1.
         11    1    3    3    0    0 -0.10096497485E+02  0.26223468468E+01  0.82676627562E+00  0.10464201220E+02  0.51100000000E-03 0. -1.
        -11    1    3    3    0    0 -0.16038018851E+02  0.10367734426E+02  0.47514741565E+01  0.19679544525E+02  0.51100000000E-03 0.  1.
         12    1    3    3    0    0  0.37452917843E+01 -0.81194846946E+01 -0.27753195168E+02  0.29158070654E+02  0.00000000000E+00 0. -1.
</event>
<event>
 7    1  0.3528441E-013  0.5930163E+02  0.7816164E-02  0.1266606E+00
        -11   -1    0    0    0    0  0.00000000000E+00  0.00000000000E+00  0.45593999997E+02  0.45594000000E+02  0.51100000000E-03 0. -1.
         11   -1    0    0    0    0 -0.00000000000E+00 -0.00000000000E+00 -0.45593999997E+02  0.45594000000E+02  0.51100000000E-03 0.  1.
    9900012    2    1    2    0    0  0.31636920947E+02  0.59817671326E+00  0.39354922282E+01  0.59301628593E+02  0.49999424720E+02 0.  0.
        -12    1    1    2    0    0 -0.31636920947E+02 -0.59817671326E+00 -0.39354922282E+01  0.31886371407E+02  0.00000000000E+00 0.  1.
         11    1    3    3    0    0  0.14270174969E+02  0.24738379548E+02 -0.22087334332E+01  0.28644437854E+02  0.51100000000E-03 0.  1.
        -11    1    3    3    0    0  0.70056490389E+01 -0.89827025946E+01  0.44089548863E+01  0.12215029587E+02  0.51100000000E-03 0. -1.
        -12    1    3    3    0    0  0.10361096939E+02 -0.15157500240E+02  0.17352707752E+01  0.18442161153E+02  0.00000000000E+00 0.  1.
</event>
<event>
 7    1  0.3528441E-013  0.5930200E+02  0.7816164E-02  0.1266605E+00
        -11   -1    0    0    0    0  0.00000000000E+00  0.00000000000E+00  0.45593999997E+02  0.45594000000E+02  0.51100000000E-03 0.  1.
         11   -1    0    0    0    0 -0.00000000000E+00 -0.00000000000E+00 -0.45593999997E+02  0.45594000000E+02  0.51100000000E-03 0. -1.
    9900012    2    1    2    0    0 -0.11143260494E+02 -0.12834488901E+02 -0.26978155490E+02  0.59301996277E+02  0.50000095289E+02 0.  0.
        -12    1    1    2    0    0  0.11143260494E+02  0.12834488901E+02  0.26978155490E+02  0.31886003723E+02  0.00000000000E+00 0.  1.
         11    1    3    3    0    0 -0.10052089521E+02  0.14137088021E+02 -0.50382932071E+01  0.18063392819E+02  0.51100000000E-03 0.  1.
        -11    1    3    3    0    0 -0.47841780538E+01 -0.12061989778E+02 -0.22382679477E+02  0.25872075640E+02  0.51100000000E-03 0. -1.
         12    1    3    3    0    0  0.36930070809E+01 -0.14909587144E+02  0.44281719414E+00  0.15366527817E+02  0.00000000000E+00 0. -1.
</event>
<event>
 7    1  0.3528441E-013  0.5930193E+02  0.7816164E-02  0.1266605E+00
        -11   -1    0    0    0    0  0.00000000000E+00  0.00000000000E+00  0.45593999997E+02  0.45594000000E+02  0.51100000000E-03 0. -1.
         11   -1    0    0    0    0 -0.00000000000E+00 -0.00000000000E+00 -0.45593999997E+02  0.45594000000E+02  0.51100000000E-03 0.  1.
    9900012    2    1    2    0    0 -0.28875943771E+02  0.13482872325E+02 -0.10552101627E+01  0.59301930263E+02  0.49999974896E+02 0.  0.
        -12    1    1    2    0    0  0.28875943771E+02 -0.13482872325E+02  0.10552101627E+01  0.31886069737E+02  0.00000000000E+00 0.  1.
         11    1    3    3    0    0 -0.15744414974E+02  0.18166269730E+02  0.21371852981E+01  0.24134363883E+02  0.51100000000E-03 0. -1.
        -11    1    3    3    0    0 -0.59227973816E+01  0.12545066730E+02 -0.78224791675E+01  0.15926374624E+02  0.51100000000E-03 0.  1.
        -12    1    3    3    0    0 -0.72087314156E+01 -0.17228464134E+02  0.46300837067E+01  0.19241191756E+02  0.00000000000E+00 0.  1.
</event>
<event>
 7    1  0.3528441E-013  0.5930209E+02  0.7816164E-02  0.1266604E+00
        -11   -1    0    0    0    0  0.00000000000E+00  0.00000000000E+00  0.45593999997E+02  0.45594000000E+02  0.51100000000E-03 0.  1.
         11   -1    0    0    0    0 -0.00000000000E+00 -0.00000000000E+00 -0.45593999997E+02  0.45594000000E+02  0.51100000000E-03 0. -1.
    9900012    2    1    2    0    0  0.31666435484E+02 -0.31669101426E+01 -0.19796212242E+01  0.59302088436E+02  0.50000263365E+02 0.  0.
        -12    1    1    2    0    0 -0.31666435484E+02  0.31669101426E+01  0.19796212242E+01  0.31885911564E+02  0.00000000000E+00 0.  1.
         11    1    3    3    0    0  0.35437514123E+02 -0.10591514469E+02 -0.17494272033E+02  0.40915121168E+02  0.51100000000E-03 0. -1.
        -11    1    3    3    0    0  0.78437784844E-01  0.14140348967E+01  0.75933538364E+01  0.77242909009E+01  0.51100000000E-03 0.  1.
        -12    1    3    3    0    0 -0.38495164246E+01  0.60105694297E+01  0.79212969724E+01  0.10662676367E+02  0.00000000000E+00 0.  1.
</event>
<event>
 7    1  0.3528441E-013  0.5930195E+02  0.7816164E-02  0.1266605E+00
        -11   -1    0    0    0    0  0.00000000000E+00  0.00000000000E+00  0.45593999997E+02  0.45594000000E+02  0.51100000000E-03 0.  1.
         11   -1    0    0    0    0 -0.00000000000E+00 -0.00000000000E+00 -0.45593999997E+02  0.45594000000E+02  0.51100000000E-03 0. -1.
    9900012    2    1    2    0    0  0.21195643715E+02 -0.41776007448E+01 -0.23452348854E+02  0.59301947763E+02  0.50000006813E+02 0.  0.
        -12    1    1    2    0    0 -0.21195643715E+02  0.41776007448E+01  0.23452348854E+02  0.31886052237E+02  0.00000000000E+00 0.  1.
         11    1    3    3    0    0 -0.13251318855E+00  0.35316231870E+01 -0.15724655714E+02  0.16116907882E+02  0.51100000000E-03 0. -1.
        -11    1    3    3    0    0  0.11626710795E+02 -0.19627949023E+02 -0.13798456556E+02  0.26661473897E+02  0.51100000000E-03 0.  1.
        -12    1    3    3    0    0  0.97014461080E+01  0.11918725092E+02  0.60707634157E+01  0.16523565984E+02  0.00000000000E+00 0.  1.
</event>
<event>
 7    1  0.3528441E-013  0.5930194E+02  0.7816164E-02  0.1266605E+00
        -11   -1    0    0    0    0  0.00000000000E+00  0.00000000000E+00  0.45593999997E+02  0.45594000000E+02  0.51100000000E-03 0. -1.
         11   -1    0    0    0    0 -0.00000000000E+00 -0.00000000000E+00 -0.45593999997E+02  0.45594000000E+02  0.51100000000E-03 0.  1.
    9900012    2    1    2    0    0  0.15895601125E+02 -0.25973798915E+01  0.27519167224E+02  0.59301935926E+02  0.49999985224E+02 0.  0.
        -12    1    1    2    0    0 -0.15895601125E+02  0.25973798915E+01 -0.27519167224E+02  0.31886064074E+02  0.00000000000E+00 0.  1.
         11    1    3    3    0    0 -0.14291305415E+01  0.10302269552E+02  0.10496997923E+02  0.14777216845E+02  0.51100000000E-03 0. -1.
        -11    1    3    3    0    0  0.95336472546E+00  0.80452865890E+01  0.15984554050E+02  0.17920421564E+02  0.51100000000E-03 0.  1.
         12    1    3    3    0    0  0.16371366941E+02 -0.20944936033E+02  0.10376152516E+01  0.26604297516E+02  0.00000000000E+00 0. -1.
</event>
<event>
 7    1  0.3528441E-013  0.5930191E+02  0.7816164E-02  0.1266605E+00
        -11   -1    0    0    0    0  0.00000000000E+00  0.00000000000E+00  0.45593999997E+02  0.45594000000E+02  0.51100000000E-03 0.  1.
         11   -1    0    0    0    0 -0.00000000000E+00 -0.00000000000E+00 -0.45593999997E+02  0.45594000000E+02  0.51100000000E-03 0. -1.
    9900012    2    1    2    0    0  0.26718158923E+02 -0.97787639756E+00 -0.17375453619E+02  0.59301911388E+02  0.49999940473E+02 0.  0.
        -12    1    1    2    0    0 -0.26718158923E+02  0.97787639756E+00  0.17375453619E+02  0.31886088612E+02  0.00000000000E+00 0.  1.
         11    1    3    3    0    0 -0.17021539795E+01  0.10753441721E+01  0.16316528595E+01  0.25915216715E+01  0.51100000000E-03 0. -1.
        -11    1    3    3    0    0 -0.96712069359E+01 -0.60814812062E+01  0.39091528359E+01  0.12074689785E+02  0.51100000000E-03 0.  1.
         12    1    3    3    0    0  0.38091519839E+02  0.40282606365E+01 -0.22916259315E+02  0.44635699931E+02  0.00000000000E+00 0. -1.
</event>
<event>
 7    1  0.3528441E-013  0.5930193E+02  0.7816164E-02  0.1266605E+00
        -11   -1    0    0    0    0  0.00000000000E+00  0.00000000000E+00  0.45593999997E+02  0.45594000000E+02  0.51100000000E-03 0.  1.
         11   -1    0    0    0    0 -0.00000000000E+00 -0.00000000000E+00 -0.45593999997E+02  0.45594000000E+02  0.51100000000E-03 0. -1.
    9900012    2    1    2    0    0  0.17417817001E+02 -0.26647117829E+02 -0.18089973839E+01  0.59301926093E+02  0.49999967291E+02 0.  0.
        -12    1    1    2    0    0 -0.17417817001E+02  0.26647117829E+02  0.18089973839E+01  0.31886073907E+02  0.00000000000E+00 0.  1.
         11    1    3    3    0    0  0.16220830310E+01 -0.48243678836E+01  0.62820594310E+01  0.80851685073E+01  0.51100000000E-03 0. -1.
        -11    1    3    3    0    0 -0.12835294742E+02 -0.94720557914E+01 -0.11762935740E+02  0.19819971986E+02  0.51100000000E-03 0.  1.
         12    1    3    3    0    0  0.28631028711E+02 -0.12350694154E+02  0.36718789252E+01  0.31396785600E+02  0.00000000000E+00 0. -1.
</event>
<event>
 7    1  0.3528441E-013  0.5930172E+02  0.7816164E-02  0.1266606E+00
        -11   -1    0    0    0    0  0.00000000000E+00  0.00000000000E+00  0.45593999997E+02  0.45594000000E+02  0.51100000000E-03 0.  1.
         11   -1    0    0    0    0 -0.00000000000E+00 -0.00000000000E+00 -0.45593999997E+02  0.45594000000E+02  0.51100000000E-03 0. -1.
    9900012    2    1    2    0    0  0.21964149730E+02  0.15564521338E+02 -0.17089662543E+02  0.59301721389E+02  0.49999593959E+02 0.  0.
        -12    1    1    2    0    0 -0.21964149730E+02 -0.15564521338E+02  0.17089662543E+02  0.31886278611E+02  0.00000000000E+00 0.  1.
         11    1    3    3    0    0  0.23372648631E+02 -0.92885449118E+01 -0.20752680100E+02  0.32607230827E+02  0.51100000000E-03 0. -1.
        -11    1    3    3    0    0  0.28043339530E+01  0.30466493283E+01  0.13944087693E+01  0.43692948088E+01  0.51100000000E-03 0.  1.
        -12    1    3    3    0    0 -0.42128328544E+01  0.21806416921E+02  0.22686087875E+01  0.22325195754E+02  0.00000000000E+00 0.  1.
</event>
<event>
 7    1  0.3528441E-013  0.5930194E+02  0.7816164E-02  0.1266605E+00
        -11   -1    0    0    0    0  0.00000000000E+00  0.00000000000E+00  0.45593999997E+02  0.45594000000E+02  0.51100000000E-03 0.  1.
         11   -1    0    0    0    0 -0.00000000000E+00 -0.00000000000E+00 -0.45593999997E+02  0.45594000000E+02  0.51100000000E-03 0. -1.
    9900012    2    1    2    0    0  0.90385854768E+01 -0.29341477577E+02 -0.86082679852E+01  0.59301943306E+02  0.49999998683E+02 0.  0.
        -12    1    1    2    0    0 -0.90385854768E+01  0.29341477577E+02  0.86082679852E+01  0.31886056694E+02  0.00000000000E+00 0.  1.
         11    1    3    3    0    0  0.50423179235E+00 -0.76281704551E+01  0.67783694399E+01  0.10217119296E+02  0.51100000000E-03 0. -1.
        -11    1    3    3    0    0  0.20542619010E+02 -0.42632090952E+01  0.27996194821E+01  0.21166294364E+02  0.51100000000E-03 0.  1.
         12    1    3    3    0    0 -0.12008265326E+02 -0.17450098027E+02 -0.18186256907E+02  0.27918529645E+02  0.00000000000E+00 0. -1.
</event>
<event>
 7    1  0.3528441E-013  0.5930193E+02  0.7816164E-02  0.1266605E+00
        -11   -1    0    0    0    0  0.00000000000E+00  0.00000000000E+00  0.45593999997E+02  0.45594000000E+02  0.51100000000E-03 0. -1.
         11   -1    0    0    0    0 -0.00000000000E+00 -0.00000000000E+00 -0.45593999997E+02  0.45594000000E+02  0.51100000000E-03 0.  1.
    9900012    2    1    2    0    0 -0.12443475094E+02 -0.21825552173E+02  0.19634827603E+02  0.59301933214E+02  0.49999980279E+02 0.  0.
        -12    1    1    2    0    0  0.12443475094E+02  0.21825552173E+02 -0.19634827603E+02  0.31886066786E+02  0.00000000000E+00 0.  1.
         11    1    3    3    0    0 -0.65505320448E+01 -0.18110522556E+02  0.79616738406E+01  0.20839595676E+02  0.51100000000E-03 0. -1.
        -11    1    3    3    0    0 -0.18969017255E+01 -0.19300997660E+02  0.11135016619E+02  0.22363258756E+02  0.51100000000E-03 0.  1.
         12    1    3    3    0    0 -0.39960413236E+01  0.15585968042E+02  0.53813714352E+00  0.16099078783E+02  0.00000000000E+00 0. -1.
</event>
<event>
 7    1  0.3528441E-013  0.5930195E+02  0.7816164E-02  0.1266605E+00
        -11   -1    0    0    0    0  0.00000000000E+00  0.00000000000E+00  0.45593999997E+02  0.45594000000E+02  0.51100000000E-03 0. -1.
         11   -1    0    0    0    0 -0.00000000000E+00 -0.00000000000E+00 -0.45593999997E+02  0.45594000000E+02  0.51100000000E-03 0.  1.
    9900012    2    1    2    0    0  0.23156055062E+02 -0.10555904724E+02  0.19211718297E+02  0.59301950849E+02  0.50000012440E+02 0.  0.
        -12    1    1    2    0    0 -0.23156055062E+02  0.10555904724E+02 -0.19211718297E+02  0.31886049151E+02  0.00000000000E+00 0.  1.
         11    1    3    3    0    0  0.22398491520E+02 -0.76738640760E+01  0.19172907041E+01  0.23754086304E+02  0.51100000000E-03 0. -1.
        -11    1    3    3    0    0  0.10719368828E+02  0.11371702160E+01  0.21468942358E+02  0.24023186933E+02  0.51100000000E-03 0.  1.
        -12    1    3    3    0    0 -0.99618052864E+01 -0.40192108645E+01 -0.41745147651E+01  0.11524677612E+02  0.00000000000E+00 0.  1.
</event>
<event>
 7    1  0.3528441E-013  0.5930194E+02  0.7816164E-02  0.1266605E+00
        -11   -1    0    0    0    0  0.00000000000E+00  0.00000000000E+00  0.45593999997E+02  0.45594000000E+02  0.51100000000E-03 0.  1.
         11   -1    0    0    0    0 -0.00000000000E+00 -0.00000000000E+00 -0.45593999997E+02  0.45594000000E+02  0.51100000000E-03 0. -1.
    9900012    2    1    2    0    0  0.26251384480E+02  0.16455892023E+02 -0.75358477440E+01  0.59301943947E+02  0.49999999853E+02 0.  0.
        -12    1    1    2    0    0 -0.26251384480E+02 -0.16455892023E+02  0.75358477440E+01  0.31886056053E+02  0.00000000000E+00 0.  1.
         11    1    3    3    0    0  0.14846943992E+02  0.16044866507E+02  0.96723448681E+01  0.23904471185E+02  0.51100000000E-03 0. -1.
        -11    1    3    3    0    0  0.15392972359E+02  0.10146441625E+02 -0.16682419976E+02  0.24863567970E+02  0.51100000000E-03 0.  1.
        -12    1    3    3    0    0 -0.39885318710E+01 -0.97354161089E+01 -0.52577263639E+00  0.10533904792E+02  0.00000000000E+00 0.  1.
</event>
<event>
 7    1  0.3528441E-013  0.5930192E+02  0.7816164E-02  0.1266605E+00
        -11   -1    0    0    0    0  0.00000000000E+00  0.00000000000E+00  0.45593999997E+02  0.45594000000E+02  0.51100000000E-03 0.  1.
         11   -1    0    0    0    0 -0.00000000000E+00 -0.00000000000E+00 -0.45593999997E+02  0.45594000000E+02  0.51100000000E-03 0. -1.
    9900012    2    1    2    0    0  0.23339116912E+02 -0.68712096769E+01 -0.20610539951E+02  0.59301917492E+02  0.49999951605E+02 0.  0.
        -12    1    1    2    0    0 -0.23339116912E+02  0.68712096769E+01  0.20610539951E+02  0.31886082508E+02  0.00000000000E+00 0.  1.
         11    1    3    3    0    0  0.19259376915E+02  0.12742479861E+02  0.26577897953E+01  0.23245606876E+02  0.51100000000E-03 0. -1.
        -11    1    3    3    0    0  0.64522049922E+01 -0.16696146366E+01 -0.11253054203E+00  0.66656751856E+01  0.51100000000E-03 0.  1.
        -12    1    3    3    0    0 -0.23724649953E+01 -0.17944074901E+02 -0.23155799204E+02  0.29390635431E+02  0.00000000000E+00 0.  1.
</event>
<event>
 7    1  0.3528441E-013  0.5930188E+02  0.7816164E-02  0.1266605E+00
        -11   -1    0    0    0    0  0.00000000000E+00  0.00000000000E+00  0.45593999997E+02  0.45594000000E+02  0.51100000000E-03 0.  1.
         11   -1    0    0    0    0 -0.00000000000E+00 -0.00000000000E+00 -0.45593999997E+02  0.45594000000E+02  0.51100000000E-03 0. -1.
    9900012    2    1    2    0    0 -0.20385763465E+02  0.23421086083E+02 -0.72524488840E+01  0.59301880134E+02  0.49999883472E+02 0.  0.
        -12    1    1    2    0    0  0.20385763465E+02 -0.23421086083E+02  0.72524488840E+01  0.31886119866E+02  0.00000000000E+00 0.  1.
         11    1    3    3    0    0 -0.24589815027E+02 -0.51388748224E-01 -0.13558742067E+02  0.28080262296E+02  0.51100000000E-03 0. -1.
        -11    1    3    3    0    0 -0.30805128906E+01  0.16045721858E+02 -0.37381250743E+01  0.16760916709E+02  0.51100000000E-03 0.  1.
         12    1    3    3    0    0  0.72845644532E+01  0.74267529732E+01  0.10044418258E+02  0.14460701129E+02  0.00000000000E+00 0. -1.
</event>
<event>
 7    1  0.3528441E-013  0.5930194E+02  0.7816164E-02  0.1266605E+00
        -11   -1    0    0    0    0  0.00000000000E+00  0.00000000000E+00  0.45593999997E+02  0.45594000000E+02  0.51100000000E-03 0.  1.
         11   -1    0    0    0    0 -0.00000000000E+00 -0.00000000000E+00 -0.45593999997E+02  0.45594000000E+02  0.51100000000E-03 0. -1.
    9900012    2    1    2    0    0  0.31262635214E+02  0.45937091443E+01 -0.42739264038E+01  0.59301937666E+02  0.49999988398E+02 0.  0.
        -12    1    1    2    0    0 -0.31262635214E+02 -0.45937091443E+01  0.42739264038E+01  0.31886062334E+02  0.00000000000E+00 0.  1.
         11    1    3    3    0    0 -0.61987186498E+01  0.44632510135E+01  0.60693560358E+01  0.97561163103E+01  0.51100000000E-03 0. -1.
        -11    1    3    3    0    0  0.15677492544E+01  0.54395558584E+01  0.72688190388E+01  0.92131610288E+01  0.51100000000E-03 0.  1.
         12    1    3    3    0    0  0.35893604610E+02 -0.53090977276E+01 -0.17612101478E+02  0.40332660327E+02  0.00000000000E+00 0. -1.
</event>
<event>
 7    1  0.3528441E-013  0.5930194E+02  0.7816164E-02  0.1266605E+00
        -11   -1    0    0    0    0  0.00000000000E+00  0.00000000000E+00  0.45593999997E+02  0.45594000000E+02  0.51100000000E-03 0. -1.
         11   -1    0    0    0    0 -0.00000000000E+00 -0.00000000000E+00 -0.45593999997E+02  0.45594000000E+02  0.51100000000E-03 0.  1.
    9900012    2    1    2    0    0 -0.12883465940E+02  0.61782740521E+01  0.28505545052E+02  0.59301939353E+02  0.49999991474E+02 0.  0.
        -12    1    1    2    0    0  0.12883465940E+02 -0.61782740521E+01 -0.28505545052E+02  0.31886060647E+02  0.00000000000E+00 0.  1.
         11    1    3    3    0    0 -0.39335191846E+01 -0.78127375433E+01  0.18682798958E+02  0.20629067315E+02  0.51100000000E-03 0. -1.
        -11    1    3    3    0    0  0.12445587017E+02  0.25251644944E+01  0.61932122720E+01  0.14128870104E+02  0.51100000000E-03 0.  1.
         12    1    3    3    0    0 -0.21395533772E+02  0.11465847101E+02  0.36295338217E+01  0.24544001933E+02  0.00000000000E+00 0. -1.
</event>
<event>
 7    1  0.3528441E-013  0.5930195E+02  0.7816164E-02  0.1266605E+00
        -11   -1    0    0    0    0  0.00000000000E+00  0.00000000000E+00  0.45593999997E+02  0.45594000000E+02  0.51100000000E-03 0.  1.
         11   -1    0    0    0    0 -0.00000000000E+00 -0.00000000000E+00 -0.45593999997E+02  0.45594000000E+02  0.51100000000E-03 0. -1.
    9900012    2    1    2    0    0  0.18240591759E+02 -0.20928607340E+02 -0.15684207690E+02  0.59301950327E+02  0.50000011488E+02 0.  0.
        -12    1    1    2    0    0 -0.18240591759E+02  0.20928607340E+02  0.15684207690E+02  0.31886049673E+02  0.00000000000E+00 0.  1.
         11    1    3    3    0    0  0.63272862872E+01  0.40664490156E+00 -0.17879584472E+02  0.18970489002E+02  0.51100000000E-03 0. -1.
        -11    1    3    3    0    0 -0.98993032646E+01 -0.29582619685E+01  0.53512072207E+01  0.11635417396E+02  0.51100000000E-03 0.  1.
         12    1    3    3    0    0  0.21812608737E+02 -0.18376990273E+02 -0.31558304386E+01  0.28696043929E+02  0.00000000000E+00 0. -1.
</event>
<event>
 7    1  0.3528441E-013  0.5930189E+02  0.7816164E-02  0.1266605E+00
        -11   -1    0    0    0    0  0.00000000000E+00  0.00000000000E+00  0.45593999997E+02  0.45594000000E+02  0.51100000000E-03 0. -1.
         11   -1    0    0    0    0 -0.00000000000E+00 -0.00000000000E+00 -0.45593999997E+02  0.45594000000E+02  0.51100000000E-03 0.  1.
    9900012    2    1    2    0    0 -0.56872331147E+01  0.12657324903E+02  0.28708383282E+02  0.59301893858E+02  0.49999908503E+02 0.  0.
        -12    1    1    2    0    0  0.56872331147E+01 -0.12657324903E+02 -0.28708383282E+02  0.31886106142E+02  0.00000000000E+00 0.  1.
         11    1    3    3    0    0 -0.14023781321E+02  0.19173739041E+02  0.94003972083E+01  0.25547332136E+02  0.51100000000E-03 0. -1.
        -11    1    3    3    0    0  0.47551863556E+01  0.86898346682E+01  0.14231963442E+01  0.10007522767E+02  0.51100000000E-03 0.  1.
        -12    1    3    3    0    0  0.35813618505E+01 -0.15206248806E+02  0.17884789730E+02  0.23747038955E+02  0.00000000000E+00 0.  1.
</event>
<event>
 7    1  0.3528441E-013  0.5930195E+02  0.7816164E-02  0.1266605E+00
        -11   -1    0    0    0    0  0.00000000000E+00  0.00000000000E+00  0.45593999997E+02  0.45594000000E+02  0.51100000000E-03 0.  1.
         11   -1    0    0    0    0 -0.00000000000E+00 -0.00000000000E+00 -0.45593999997E+02  0.45594000000E+02  0.51100000000E-03 0. -1.
    9900012    2    1    2    0    0  0.17442409165E+02 -0.21148000570E+02 -0.16286326326E+02  0.59301953039E+02  0.50000016434E+02 0.  0.
        -12    1    1    2    0    0 -0.17442409165E+02  0.21148000570E+02  0.16286326326E+02  0.31886046961E+02  0.00000000000E+00 0.  1.
         11    1    3    3    0    0  0.94671064830E+01 -0.33438014062E+02 -0.21623498070E+02  0.40930460034E+02  0.51100000000E-03 0. -1.
        -11    1    3    3    0    0  0.37007970276E+00 -0.45881601839E+00 -0.18042642864E+01  0.18981151181E+01  0.51100000000E-03 0.  1.
        -12    1    3    3    0    0  0.76052229793E+01  0.12748829510E+02  0.71414360296E+01  0.16473377887E+02  0.00000000000E+00 0.  1.
</event>
<event>
 7    1  0.3528441E-013  0.5930191E+02  0.7816164E-02  0.1266605E+00
        -11   -1    0    0    0    0  0.00000000000E+00  0.00000000000E+00  0.45593999997E+02  0.45594000000E+02  0.51100000000E-03 0.  1.
         11   -1    0    0    0    0 -0.00000000000E+00 -0.00000000000E+00 -0.45593999997E+02  0.45594000000E+02  0.51100000000E-03 0. -1.
    9900012    2    1    2    0    0  0.12903254096E+01  0.37969078969E+01 -0.31632912925E+02  0.59301911664E+02  0.49999940976E+02 0.  0.
        -12    1    1    2    0    0 -0.12903254096E+01 -0.37969078969E+01  0.31632912925E+02  0.31886088336E+02  0.00000000000E+00 0.  1.
         11    1    3    3    0    0  0.51662269386E+01 -0.17924308866E+02 -0.21401254151E+02  0.28389864892E+02  0.51100000000E-03 0. -1.
        -11    1    3    3    0    0  0.49321320580E+01  0.80723678399E+01 -0.11173972527E+02  0.14640584397E+02  0.51100000000E-03 0.  1.
        -12    1    3    3    0    0 -0.88080335870E+01  0.13648848923E+02  0.94231375243E+00  0.16271462375E+02  0.00000000000E+00 0.  1.
</event>
<event>
 7    1  0.3528441E-013  0.5930196E+02  0.7816164E-02  0.1266605E+00
        -11   -1    0    0    0    0  0.00000000000E+00  0.00000000000E+00  0.45593999997E+02  0.45594000000E+02  0.51100000000E-03 0.  1.
         11   -1    0    0    0    0 -0.00000000000E+00 -0.00000000000E+00 -0.45593999997E+02  0.45594000000E+02  0.51100000000E-03 0. -1.
    9900012    2    1    2    0    0  0.19332251740E+02  0.35969432678E+01 -0.25100712886E+02  0.59301956884E+02  0.50000023447E+02 0.  0.
        -12    1    1    2    0    0 -0.19332251740E+02 -0.35969432678E+01  0.25100712886E+02  0.31886043116E+02  0.00000000000E+00 0.  1.
         11    1    3    3    0    0  0.36081807762E+01 -0.68726935107E+01  0.10373737067E+01  0.78312852760E+01  0.51100000000E-03 0. -1.
        -11    1    3    3    0    0 -0.18166885982E+01 -0.60678825409E+01  0.76702827132E+01  0.99475018550E+01  0.51100000000E-03 0.  1.
         12    1    3    3    0    0  0.17540759562E+02  0.16537519319E+02 -0.33808369306E+02  0.41523169753E+02  0.00000000000E+00 0. -1.
</event>
<event>
 7    1  0.3528441E-013  0.5930194E+02  0.7816164E-02  0.1266605E+00
        -11   -1    0    0    0    0  0.00000000000E+00  0.00000000000E+00  0.45593999997E+02  0.45594000000E+02  0.51100000000E-03 0. -1.
         11   -1    0    0    0    0 -0.00000000000E+00 -0.00000000000E+00 -0.45593999997E+02  0.45594000000E+02  0.51100000000E-03 0.  1.
    9900012    2    1    2    0    0  0.20910912749E+02 -0.29862199168E+01  0.23885921024E+02  0.59301937143E+02  0.49999987443E+02 0.  0.
        -12    1    1    2    0    0 -0.20910912749E+02  0.29862199168E+01 -0.23885921024E+02  0.31886062857E+02  0.00000000000E+00 0.  1.
         11    1    3    3    0    0  0.84001871620E+00  0.72882520362E+00 -0.21492449646E+01  0.24199321891E+01  0.51100000000E-03 0. -1.
        -11    1    3    3    0    0  0.27615458068E+01  0.19896875990E+02  0.46288654919E+01  0.20614029335E+02  0.51100000000E-03 0.  1.
         12    1    3    3    0    0  0.17309348226E+02 -0.23611921111E+02  0.21406300497E+02  0.36267975619E+02  0.00000000000E+00 0. -1.
</event>
<event>
 7    1  0.3528441E-013  0.5930198E+02  0.7816164E-02  0.1266605E+00
        -11   -1    0    0    0    0  0.00000000000E+00  0.00000000000E+00  0.45593999997E+02  0.45594000000E+02  0.51100000000E-03 0. -1.
         11   -1    0    0    0    0 -0.00000000000E+00 -0.00000000000E+00 -0.45593999997E+02  0.45594000000E+02  0.51100000000E-03 0.  1.
    9900012    2    1    2    0    0  0.65262535946E+00  0.31556321432E+02  0.45267250552E+01  0.59301975132E+02  0.50000056726E+02 0.  0.
        -12    1    1    2    0    0 -0.65262535946E+00 -0.31556321432E+02 -0.45267250552E+01  0.31886024868E+02  0.00000000000E+00 0.  1.
         11    1    3    3    0    0 -0.20457437105E+00  0.36060621828E+02 -0.19494027438E+01  0.36113854248E+02  0.51100000000E-03 0.  1.
        -11    1    3    3    0    0  0.26241094430E+01  0.66967920937E+01  0.90500020672E+01  0.11560082716E+02  0.51100000000E-03 0. -1.
        -12    1    3    3    0    0 -0.17669097125E+01 -0.11201092490E+02 -0.25738742681E+01  0.11628038169E+02  0.00000000000E+00 0.  1.
</event>
<event>
 7    1  0.3528441E-013  0.5930193E+02  0.7816164E-02  0.1266605E+00
        -11   -1    0    0    0    0  0.00000000000E+00  0.00000000000E+00  0.45593999997E+02  0.45594000000E+02  0.51100000000E-03 0. -1.
         11   -1    0    0    0    0 -0.00000000000E+00 -0.00000000000E+00 -0.45593999997E+02  0.45594000000E+02  0.51100000000E-03 0.  1.
    9900012    2    1    2    0    0 -0.35535828574E+01  0.31453265732E+02  0.38452392786E+01  0.59301925588E+02  0.49999966370E+02 0.  0.
        -12    1    1    2    0    0  0.35535828574E+01 -0.31453265732E+02 -0.38452392786E+01  0.31886074412E+02  0.00000000000E+00 0.  1.
         11    1    3    3    0    0  0.38303115020E+01  0.36788568830E+02  0.80632871947E+01  0.37856131385E+02  0.51100000000E-03 0. -1.
        -11    1    3    3    0    0  0.55153595363E+01 -0.14695083222E+01  0.26914693166E+01  0.63105192232E+01  0.51100000000E-03 0.  1.
        -12    1    3    3    0    0 -0.12899253896E+02 -0.38657947765E+01 -0.69095172327E+01  0.15135274980E+02  0.00000000000E+00 0.  1.
</event>
<event>
 7    1  0.3528441E-013  0.5930194E+02  0.7816164E-02  0.1266605E+00
        -11   -1    0    0    0    0  0.00000000000E+00  0.00000000000E+00  0.45593999997E+02  0.45594000000E+02  0.51100000000E-03 0.  1.
         11   -1    0    0    0    0 -0.00000000000E+00 -0.00000000000E+00 -0.45593999997E+02  0.45594000000E+02  0.51100000000E-03 0. -1.
    9900012    2    1    2    0    0 -0.23942758901E+02 -0.46137642283E+01 -0.20546972025E+02  0.59301943744E+02  0.49999999483E+02 0.  0.
        -12    1    1    2    0    0  0.23942758901E+02  0.46137642283E+01  0.20546972025E+02  0.31886056256E+02  0.00000000000E+00 0.  1.
         11    1    3    3    0    0 -0.12807851657E+02 -0.18356207281E+02  0.53278173108E+01  0.23008195222E+02  0.51100000000E-03 0. -1.
        -11    1    3    3    0    0  0.36957816360E+01  0.17470788676E+00 -0.10056156299E+02  0.10715204362E+02  0.51100000000E-03 0.  1.
        -12    1    3    3    0    0 -0.14830688880E+02  0.13567735166E+02 -0.15818633037E+02  0.25578544160E+02  0.00000000000E+00 0.  1.
</event>
<event>
 7    1  0.3528441E-013  0.5930196E+02  0.7816164E-02  0.1266605E+00
        -11   -1    0    0    0    0  0.00000000000E+00  0.00000000000E+00  0.45593999997E+02  0.45594000000E+02  0.51100000000E-03 0. -1.
         11   -1    0    0    0    0 -0.00000000000E+00 -0.00000000000E+00 -0.45593999997E+02  0.45594000000E+02  0.51100000000E-03 0.  1.
    9900012    2    1    2    0    0  0.15392306795E+02  0.72315953165E+01  0.26972219888E+02  0.59301957207E+02  0.50000024036E+02 0.  0.
        -12    1    1    2    0    0 -0.15392306795E+02 -0.72315953165E+01 -0.26972219888E+02  0.31886042793E+02  0.00000000000E+00 0.  1.
         11    1    3    3    0    0  0.23265049732E+02  0.19444521424E+02  0.16417115131E+02  0.34480046722E+02  0.51100000000E-03 0. -1.
        -11    1    3    3    0    0 -0.11624194799E+01  0.35309623227E+01  0.60897262666E+01  0.71346815090E+01  0.51100000000E-03 0.  1.
        -12    1    3    3    0    0 -0.67103234565E+01 -0.15743888430E+02  0.44653784906E+01  0.17687228976E+02  0.00000000000E+00 0.  1.
</event>
<event>
 7    1  0.3528441E-013  0.5930200E+02  0.7816164E-02  0.1266605E+00
        -11   -1    0    0    0    0  0.00000000000E+00  0.00000000000E+00  0.45593999997E+02  0.45594000000E+02  0.51100000000E-03 0.  1.
         11   -1    0    0    0    0 -0.00000000000E+00 -0.00000000000E+00 -0.45593999997E+02  0.45594000000E+02  0.51100000000E-03 0. -1.
    9900012    2    1    2    0    0  0.26007235340E+02 -0.13418985734E+02 -0.12659830888E+02  0.59302003288E+02  0.50000108077E+02 0.  0.
        -12    1    1    2    0    0 -0.26007235340E+02  0.13418985734E+02  0.12659830888E+02  0.31885996712E+02  0.00000000000E+00 0.  1.
         11    1    3    3    0    0  0.11919901529E+02 -0.62918984963E+01 -0.14641499461E+02  0.19900893092E+02  0.51100000000E-03 0. -1.
        -11    1    3    3    0    0  0.88008289105E+01 -0.11327944679E+02 -0.15224159875E+02  0.20917742812E+02  0.51100000000E-03 0.  1.
        -12    1    3    3    0    0  0.52865049006E+01  0.42008574414E+01  0.17205828447E+02  0.18483367384E+02  0.00000000000E+00 0.  1.
</event>
<event>
 7    1  0.3528441E-013  0.5930196E+02  0.7816164E-02  0.1266605E+00
        -11   -1    0    0    0    0  0.00000000000E+00  0.00000000000E+00  0.45593999997E+02  0.45594000000E+02  0.51100000000E-03 0. -1.
         11   -1    0    0    0    0 -0.00000000000E+00 -0.00000000000E+00 -0.45593999997E+02  0.45594000000E+02  0.51100000000E-03 0.  1.
    9900012    2    1    2    0    0  0.13835871974E+02  0.21344879479E+02  0.19227179552E+02  0.59301958120E+02  0.50000025702E+02 0.  0.
        -12    1    1    2    0    0 -0.13835871974E+02 -0.21344879479E+02 -0.19227179552E+02  0.31886041880E+02  0.00000000000E+00 0.  1.
         11    1    3    3    0    0 -0.27729454196E+01 -0.10321562549E+01 -0.87831704731E+01  0.92681528179E+01  0.51100000000E-03 0. -1.
        -11    1    3    3    0    0 -0.43223565542E+01 -0.22134851603E+00 -0.37960280904E+01  0.57568733590E+01  0.51100000000E-03 0.  1.
         12    1    3    3    0    0  0.20931173947E+02  0.22598384249E+02  0.31806378116E+02  0.44276931944E+02  0.00000000000E+00 0. -1.
</event>
<event>
 7    1  0.3528441E-013  0.5930193E+02  0.7816164E-02  0.1266605E+00
        -11   -1    0    0    0    0  0.00000000000E+00  0.00000000000E+00  0.45593999997E+02  0.45594000000E+02  0.51100000000E-03 0.  1.
         11   -1    0    0    0    0 -0.00000000000E+00 -0.00000000000E+00 -0.45593999997E+02  0.45594000000E+02  0.51100000000E-03 0. -1.
    9900012    2    1    2    0    0 -0.19943611645E+02  0.66253885811E+01 -0.23980782053E+02  0.59301932084E+02  0.49999978217E+02 0.  0.
        -12    1    1    2    0    0  0.19943611645E+02 -0.66253885811E+01  0.23980782053E+02  0.31886067916E+02  0.00000000000E+00 0.  1.
         11    1    3    3    0    0  0.35975857999E+01 -0.32319738367E+01 -0.27158880491E+01  0.55465598911E+01  0.51100000000E-03 0. -1.
        -11    1    3    3    0    0  0.88649792751E+01  0.48321428072E+00  0.57151733235E+01  0.10558624909E+02  0.51100000000E-03 0.  1.
         12    1    3    3    0    0 -0.32406176720E+02  0.93741481370E+01 -0.26980067327E+02  0.43196747284E+02  0.00000000000E+00 0. -1.
</event>
<event>
 7    1  0.3528441E-013  0.5930194E+02  0.7816164E-02  0.1266605E+00
        -11   -1    0    0    0    0  0.00000000000E+00  0.00000000000E+00  0.45593999997E+02  0.45594000000E+02  0.51100000000E-03 0.  1.
         11   -1    0    0    0    0 -0.00000000000E+00 -0.00000000000E+00 -0.45593999997E+02  0.45594000000E+02  0.51100000000E-03 0. -1.
    9900012    2    1    2    0    0  0.52451115221E+00  0.16713906689E+01 -0.31837902445E+02  0.59301942062E+02  0.49999996415E+02 0.  0.
        -12    1    1    2    0    0 -0.52451115221E+00 -0.16713906689E+01  0.31837902445E+02  0.31886057938E+02  0.00000000000E+00 0.  1.
         11    1    3    3    0    0 -0.62854442507E+01 -0.54722362388E+01 -0.39086174415E+02  0.39964749587E+02  0.51100000000E-03 0. -1.
        -11    1    3    3    0    0  0.49391563953E+01 -0.35961577673E+01 -0.23541315510E+00  0.61141668442E+01  0.51100000000E-03 0.  1.
        -12    1    3    3    0    0  0.18707990076E+01  0.10739784675E+02  0.74836851245E+01  0.13223025631E+02  0.00000000000E+00 0.  1.
</event>
<event>
 7    1  0.3528441E-013  0.5930194E+02  0.7816164E-02  0.1266605E+00
        -11   -1    0    0    0    0  0.00000000000E+00  0.00000000000E+00  0.45593999997E+02  0.45594000000E+02  0.51100000000E-03 0.  1.
         11   -1    0    0    0    0 -0.00000000000E+00 -0.00000000000E+00 -0.45593999997E+02  0.45594000000E+02  0.51100000000E-03 0. -1.
    9900012    2    1    2    0    0  0.67305408787E+01 -0.48827287855E+01 -0.30782778680E+02  0.59301942166E+02  0.49999996605E+02 0.  0.
        -12    1    1    2    0    0 -0.67305408787E+01  0.48827287855E+01  0.30782778680E+02  0.31886057834E+02  0.00000000000E+00 0.  1.
         11    1    3    3    0    0  0.14451873787E+01  0.65574383299E+01 -0.31532938119E+02  0.32239955811E+02  0.51100000000E-03 0. -1.
        -11    1    3    3    0    0  0.90088949435E+01 -0.53615009286E+01 -0.97857745304E+01  0.14341103993E+02  0.51100000000E-03 0.  1.
        -12    1    3    3    0    0 -0.37235414435E+01 -0.60786661868E+01  0.10535933969E+02  0.12720882363E+02  0.00000000000E+00 0.  1.
</event>
<event>
 7    1  0.3528441E-013  0.5930197E+02  0.7816164E-02  0.1266605E+00
        -11   -1    0    0    0    0  0.00000000000E+00  0.00000000000E+00  0.45593999997E+02  0.45594000000E+02  0.51100000000E-03 0.  1.
         11   -1    0    0    0    0 -0.00000000000E+00 -0.00000000000E+00 -0.45593999997E+02  0.45594000000E+02  0.51100000000E-03 0. -1.
    9900012    2    1    2    0    0  0.29996842072E+02  0.95854091017E+01 -0.50028482396E+01  0.59301967126E+02  0.50000042125E+02 0.  0.
        -12    1    1    2    0    0 -0.29996842072E+02 -0.95854091017E+01  0.50028482396E+01  0.31886032874E+02  0.00000000000E+00 0.  1.
         11    1    3    3    0    0  0.11914050211E+02 -0.15701982881E+01  0.11587295354E+01  0.12072811168E+02  0.51100000000E-03 0. -1.
        -11    1    3    3    0    0  0.31472223917E+02  0.11267530471E+02 -0.47733612712E+01  0.33767485830E+02  0.51100000000E-03 0.  1.
         12    1    3    3    0    0 -0.13389432056E+02 -0.11192308117E+00 -0.13882165037E+01  0.13461670128E+02  0.00000000000E+00 0. -1.
</event>
<event>
 7    1  0.3528441E-013  0.5930228E+02  0.7816164E-02  0.1266604E+00
        -11   -1    0    0    0    0  0.00000000000E+00  0.00000000000E+00  0.45593999997E+02  0.45594000000E+02  0.51100000000E-03 0.  1.
         11   -1    0    0    0    0 -0.00000000000E+00 -0.00000000000E+00 -0.45593999997E+02  0.45594000000E+02  0.51100000000E-03 0. -1.
    9900012    2    1    2    0    0 -0.20872892537E+02  0.23875058766E+02  0.33171156208E+01  0.59302277020E+02  0.50000607294E+02 0.  0.
        -12    1    1    2    0    0  0.20872892537E+02 -0.23875058766E+02 -0.33171156208E+01  0.31885722980E+02  0.00000000000E+00 0.  1.
         11    1    3    3    0    0 -0.87932562254E+00 -0.41056105254E+01 -0.16459156842E+01  0.45097993345E+01  0.51100000000E-03 0. -1.
        -11    1    3    3    0    0 -0.26880716234E+02  0.17404164275E+02 -0.11520106054E+02  0.34032200680E+02  0.51100000000E-03 0.  1.
         12    1    3    3    0    0  0.68871493201E+01  0.10576505016E+02  0.16483137359E+02  0.20760277005E+02  0.00000000000E+00 0. -1.
</event>
<event>
 7    1  0.3528441E-013  0.5930194E+02  0.7816164E-02  0.1266605E+00
        -11   -1    0    0    0    0  0.00000000000E+00  0.00000000000E+00  0.45593999997E+02  0.45594000000E+02  0.51100000000E-03 0.  1.
         11   -1    0    0    0    0 -0.00000000000E+00 -0.00000000000E+00 -0.45593999997E+02  0.45594000000E+02  0.51100000000E-03 0. -1.
    9900012    2    1    2    0    0 -0.15219138411E+02 -0.27371516317E+02 -0.59915414093E+01  0.59301942734E+02  0.49999997641E+02 0.  0.
        -12    1    1    2    0    0  0.15219138411E+02  0.27371516317E+02  0.59915414093E+01  0.31886057266E+02  0.00000000000E+00 0.  1.
         11    1    3    3    0    0  0.14347499218E+02 -0.12403666614E+02  0.44344854202E+00  0.18970986431E+02  0.51100000000E-03 0. -1.
        -11    1    3    3    0    0 -0.43445978305E+01  0.43284398756E+01  0.34938059138E+01  0.70581585481E+01  0.51100000000E-03 0.  1.
        -12    1    3    3    0    0 -0.25222039799E+02 -0.19296289579E+02 -0.99287958651E+01  0.33272797756E+02  0.00000000000E+00 0.  1.
</event>
<event>
 7    1  0.3528441E-013  0.5930194E+02  0.7816164E-02  0.1266605E+00
        -11   -1    0    0    0    0  0.00000000000E+00  0.00000000000E+00  0.45593999997E+02  0.45594000000E+02  0.51100000000E-03 0. -1.
         11   -1    0    0    0    0 -0.00000000000E+00 -0.00000000000E+00 -0.45593999997E+02  0.45594000000E+02  0.51100000000E-03 0.  1.
    9900012    2    1    2    0    0  0.53329650298E+01  0.64159944797E+01  0.30775237241E+02  0.59301941473E+02  0.49999995340E+02 0.  0.
        -12    1    1    2    0    0 -0.53329650298E+01 -0.64159944797E+01 -0.30775237241E+02  0.31886058527E+02  0.00000000000E+00 0.  1.
         11    1    3    3    0    0  0.21220089376E+01 -0.55463805120E+00 -0.28613395194E+01  0.36052474819E+01  0.51100000000E-03 0. -1.
        -11    1    3    3    0    0  0.39125898899E+01  0.20830304914E+02  0.21693779941E+01  0.21305308344E+02  0.51100000000E-03 0.  1.
         12    1    3    3    0    0 -0.70163379777E+00 -0.13859672383E+02  0.31467198766E+02  0.34391385647E+02  0.00000000000E+00 0. -1.
</event>
<event>
 7    1  0.3528441E-013  0.5930191E+02  0.7816164E-02  0.1266605E+00
        -11   -1    0    0    0    0  0.00000000000E+00  0.00000000000E+00  0.45593999997E+02  0.45594000000E+02  0.51100000000E-03 0. -1.
         11   -1    0    0    0    0 -0.00000000000E+00 -0.00000000000E+00 -0.45593999997E+02  0.45594000000E+02  0.51100000000E-03 0.  1.
    9900012    2    1    2    0    0  0.29603592990E+02 -0.11677638485E+02 -0.19956110408E+01  0.59301914916E+02  0.49999946908E+02 0.  0.
        -12    1    1    2    0    0 -0.29603592990E+02  0.11677638485E+02  0.19956110408E+01  0.31886085084E+02  0.00000000000E+00 0.  1.
         11    1    3    3    0    0  0.25101139871E+01 -0.65151434172E+01  0.82507550426E+01  0.10808456181E+02  0.51100000000E-03 0. -1.
        -11    1    3    3    0    0  0.11552490733E+02 -0.19006344743E+02  0.48719215283E+01  0.22769207327E+02  0.51100000000E-03 0.  1.
         12    1    3    3    0    0  0.15540988270E+02  0.13843849676E+02 -0.15118287612E+02  0.25724251409E+02  0.00000000000E+00 0. -1.
</event>
<event>
 7    1  0.3528441E-013  0.5930192E+02  0.7816164E-02  0.1266605E+00
        -11   -1    0    0    0    0  0.00000000000E+00  0.00000000000E+00  0.45593999997E+02  0.45594000000E+02  0.51100000000E-03 0.  1.
         11   -1    0    0    0    0 -0.00000000000E+00 -0.00000000000E+00 -0.45593999997E+02  0.45594000000E+02  0.51100000000E-03 0. -1.
    9900012    2    1    2    0    0  0.72306875593E+01 -0.95920385969E+01 -0.29536962157E+02  0.59301918703E+02  0.49999953813E+02 0.  0.
        -12    1    1    2    0    0 -0.72306875593E+01  0.95920385969E+01  0.29536962157E+02  0.31886081297E+02  0.00000000000E+00 0.  1.
         11    1    3    3    0    0  0.96690827980E+01 -0.12439248750E+02 -0.17489046332E+02  0.23539176143E+02  0.51100000000E-03 0. -1.
        -11    1    3    3    0    0  0.70110618448E+01 -0.11087053458E+02  0.26858697686E+01  0.13389982795E+02  0.51100000000E-03 0.  1.
         12    1    3    3    0    0 -0.94494570834E+01  0.13934263611E+02 -0.14733785594E+02  0.22372759765E+02  0.00000000000E+00 0. -1.
</event>
<event>
 7    1  0.3528441E-013  0.5930196E+02  0.7816164E-02  0.1266605E+00
        -11   -1    0    0    0    0  0.00000000000E+00  0.00000000000E+00  0.45593999997E+02  0.45594000000E+02  0.51100000000E-03 0.  1.
         11   -1    0    0    0    0 -0.00000000000E+00 -0.00000000000E+00 -0.45593999997E+02  0.45594000000E+02  0.51100000000E-03 0. -1.
    9900012    2    1    2    0    0  0.18370511865E+02  0.19002215245E+01 -0.25992945788E+02  0.59301956364E+02  0.50000022498E+02 0.  0.
        -12    1    1    2    0    0 -0.18370511865E+02 -0.19002215245E+01  0.25992945788E+02  0.31886043636E+02  0.00000000000E+00 0.  1.
         11    1    3    3    0    0  0.52528168682E+01  0.49048739471E+01 -0.23865234775E+02  0.24923870177E+02  0.51100000000E-03 0. -1.
        -11    1    3    3    0    0  0.13309234042E+02  0.12794131590E+02 -0.21430426675E+00  0.18462704040E+02  0.51100000000E-03 0.  1.
         12    1    3    3    0    0 -0.19153904453E+00 -0.15798784012E+02 -0.19134067465E+01  0.15915382146E+02  0.00000000000E+00 0. -1.
</event>
<event>
 7    1  0.3528441E-013  0.5930193E+02  0.7816164E-02  0.1266605E+00
        -11   -1    0    0    0    0  0.00000000000E+00  0.00000000000E+00  0.45593999997E+02  0.45594000000E+02  0.51100000000E-03 0. -1.
         11   -1    0    0    0    0 -0.00000000000E+00 -0.00000000000E+00 -0.45593999997E+02  0.45594000000E+02  0.51100000000E-03 0.  1.
    9900012    2    1    2    0    0 -0.10513588009E+02  0.30056044003E+02  0.16794174162E+01  0.59301925347E+02  0.49999965931E+02 0.  0.
        -12    1    1    2    0    0  0.10513588009E+02 -0.30056044003E+02 -0.16794174162E+01  0.31886074653E+02  0.00000000000E+00 0.  1.
         11    1    3    3    0    0 -0.15363363275E+01 -0.40341734119E+01 -0.93424466761E+01  0.10291559386E+02  0.51100000000E-03 0. -1.
        -11    1    3    3    0    0 -0.78028012360E+01 -0.35826946302E+01 -0.25394897173E+01  0.89536817136E+01  0.51100000000E-03 0.  1.
         12    1    3    3    0    0 -0.11744504458E+01  0.37672912045E+02  0.13561353810E+02  0.40056684248E+02  0.00000000000E+00 0. -1.
</event>
<event>
 7    1  0.3528441E-013  0.5930194E+02  0.7816164E-02  0.1266605E+00
        -11   -1    0    0    0    0  0.00000000000E+00  0.00000000000E+00  0.45593999997E+02  0.45594000000E+02  0.51100000000E-03 0. -1.
         11   -1    0    0    0    0 -0.00000000000E+00 -0.00000000000E+00 -0.45593999997E+02  0.45594000000E+02  0.51100000000E-03 0.  1.
    9900012    2    1    2    0    0  0.15744830600E+02  0.13716709127E+02  0.24097154235E+02  0.59301942826E+02  0.49999997809E+02 0.  0.
        -12    1    1    2    0    0 -0.15744830600E+02 -0.13716709127E+02 -0.24097154235E+02  0.31886057174E+02  0.00000000000E+00 0.  1.
         11    1    3    3    0    0 -0.39506532378E+00  0.59067217622E+01  0.24452129336E+02  0.25158538668E+02  0.51100000000E-03 0. -1.
        -11    1    3    3    0    0 -0.28598888718E+01  0.75696793938E+01  0.97110181765E+01  0.12640525494E+02  0.51100000000E-03 0.  1.
        -12    1    3    3    0    0  0.18999784795E+02  0.24030797050E+00 -0.10065993278E+02  0.21502878664E+02  0.00000000000E+00 0.  1.
</event>
<event>
 7    1  0.3528441E-013  0.5930194E+02  0.7816164E-02  0.1266605E+00
        -11   -1    0    0    0    0  0.00000000000E+00  0.00000000000E+00  0.45593999997E+02  0.45594000000E+02  0.51100000000E-03 0. -1.
         11   -1    0    0    0    0 -0.00000000000E+00 -0.00000000000E+00 -0.45593999997E+02  0.45594000000E+02  0.51100000000E-03 0.  1.
    9900012    2    1    2    0    0  0.20179110324E+01  0.16839654560E+02 -0.27001384101E+02  0.59301942325E+02  0.49999996895E+02 0.  0.
        -12    1    1    2    0    0 -0.20179110324E+01 -0.16839654560E+02  0.27001384101E+02  0.31886057675E+02  0.00000000000E+00 0.  1.
         11    1    3    3    0    0 -0.24877347964E+01 -0.95048391709E+00 -0.64624925332E+01  0.69897105875E+01  0.51100000000E-03 0. -1.
        -11    1    3    3    0    0  0.15575220249E+00  0.65637008334E+01 -0.33782144295E+02  0.34414236891E+02  0.51100000000E-03 0.  1.
         12    1    3    3    0    0  0.43498936263E+01  0.11226437644E+02  0.13243252727E+02  0.17897994846E+02  0.00000000000E+00 0. -1.
</event>
<event>
 7    1  0.3528441E-013  0.5930195E+02  0.7816164E-02  0.1266605E+00
        -11   -1    0    0    0    0  0.00000000000E+00  0.00000000000E+00  0.45593999997E+02  0.45594000000E+02  0.51100000000E-03 0.  1.
         11   -1    0    0    0    0 -0.00000000000E+00 -0.00000000000E+00 -0.45593999997E+02  0.45594000000E+02  0.51100000000E-03 0. -1.
    9900012    2    1    2    0    0 -0.51610690898E+01  0.14773178703E+02 -0.27781953025E+02  0.59301947297E+02  0.50000005961E+02 0.  0.
        -12    1    1    2    0    0  0.51610690898E+01 -0.14773178703E+02  0.27781953025E+02  0.31886052703E+02  0.00000000000E+00 0.  1.
         11    1    3    3    0    0  0.13111682862E+01 -0.15108106531E+02 -0.91993118213E+01  0.17737006046E+02  0.51100000000E-03 0. -1.
        -11    1    3    3    0    0 -0.14395473043E+01 -0.21530482958E+01 -0.64356694577E+01  0.69372728817E+01  0.51100000000E-03 0.  1.
        -12    1    3    3    0    0 -0.50326900717E+01  0.32034333530E+02 -0.12146971746E+02  0.34627668369E+02  0.00000000000E+00 0.  1.
</event>
<event>
 7    1  0.3528441E-013  0.5930195E+02  0.7816164E-02  0.1266605E+00
        -11   -1    0    0    0    0  0.00000000000E+00  0.00000000000E+00  0.45593999997E+02  0.45594000000E+02  0.51100000000E-03 0.  1.
         11   -1    0    0    0    0 -0.00000000000E+00 -0.00000000000E+00 -0.45593999997E+02  0.45594000000E+02  0.51100000000E-03 0. -1.
    9900012    2    1    2    0    0  0.56837870835E+01  0.21879926555E+02 -0.22487408955E+02  0.59301950023E+02  0.50000010933E+02 0.  0.
        -12    1    1    2    0    0 -0.56837870835E+01 -0.21879926555E+02  0.22487408955E+02  0.31886049977E+02  0.00000000000E+00 0.  1.
         11    1    3    3    0    0  0.56572279983E+01  0.18176798094E+02  0.84419048204E+01  0.20824648252E+02  0.51100000000E-03 0. -1.
        -11    1    3    3    0    0 -0.30482029155E+01  0.12478765892E+02 -0.12976557402E+02  0.18259303970E+02  0.51100000000E-03 0.  1.
        -12    1    3    3    0    0  0.30747620008E+01 -0.87756374307E+01 -0.17952756373E+02  0.20217997800E+02  0.00000000000E+00 0.  1.
</event>
<event>
 7    1  0.3528441E-013  0.5930201E+02  0.7816164E-02  0.1266605E+00
        -11   -1    0    0    0    0  0.00000000000E+00  0.00000000000E+00  0.45593999997E+02  0.45594000000E+02  0.51100000000E-03 0.  1.
         11   -1    0    0    0    0 -0.00000000000E+00 -0.00000000000E+00 -0.45593999997E+02  0.45594000000E+02  0.51100000000E-03 0. -1.
    9900012    2    1    2    0    0 -0.21894427693E+02  0.14913438226E+02 -0.17746540375E+02  0.59302010929E+02  0.50000122012E+02 0.  0.
        -12    1    1    2    0    0  0.21894427693E+02 -0.14913438226E+02  0.17746540375E+02  0.31885989071E+02  0.00000000000E+00 0.  1.
         11    1    3    3    0    0  0.69483705182E+01  0.23548588568E+01  0.23078671897E+01  0.76909989156E+01  0.51100000000E-03 0. -1.
        -11    1    3    3    0    0  0.17574804790E+01  0.15186904187E+02 -0.69150105834E+00  0.15303887428E+02  0.51100000000E-03 0.  1.
         12    1    3    3    0    0 -0.30600278691E+02 -0.26283248181E+01 -0.19362906507E+02  0.36307124586E+02  0.00000000000E+00 0. -1.
</event>
<event>
 7    1  0.3528441E-013  0.5930198E+02  0.7816164E-02  0.1266605E+00
        -11   -1    0    0    0    0  0.00000000000E+00  0.00000000000E+00  0.45593999997E+02  0.45594000000E+02  0.51100000000E-03 0. -1.
         11   -1    0    0    0    0 -0.00000000000E+00 -0.00000000000E+00 -0.45593999997E+02  0.45594000000E+02  0.51100000000E-03 0.  1.
    9900012    2    1    2    0    0 -0.57565394045E+01 -0.27193621310E+02  0.15623297921E+02  0.59301980747E+02  0.50000066967E+02 0.  0.
        -12    1    1    2    0    0  0.57565394045E+01  0.27193621310E+02 -0.15623297921E+02  0.31886019253E+02  0.00000000000E+00 0.  1.
         11    1    3    3    0    0  0.11035966204E+02 -0.31680743181E+02  0.14111244383E+02  0.36394907018E+02  0.51100000000E-03 0. -1.
        -11    1    3    3    0    0 -0.10486228635E+02 -0.45743412719E+01 -0.13014491866E+01  0.11514311065E+02  0.51100000000E-03 0.  1.
        -12    1    3    3    0    0 -0.63062769735E+01  0.90614631424E+01  0.28135027248E+01  0.11392762665E+02  0.00000000000E+00 0.  1.
</event>
<event>
 7    1  0.3528441E-013  0.5930188E+02  0.7816164E-02  0.1266605E+00
        -11   -1    0    0    0    0  0.00000000000E+00  0.00000000000E+00  0.45593999997E+02  0.45594000000E+02  0.51100000000E-03 0.  1.
         11   -1    0    0    0    0 -0.00000000000E+00 -0.00000000000E+00 -0.45593999997E+02  0.45594000000E+02  0.51100000000E-03 0. -1.
    9900012    2    1    2    0    0  0.25963237774E+02 -0.18505851712E+02  0.41010793719E+00  0.59301883086E+02  0.49999888857E+02 0.  0.
        -12    1    1    2    0    0 -0.25963237774E+02  0.18505851712E+02 -0.41010793719E+00  0.31886116914E+02  0.00000000000E+00 0.  1.
         11    1    3    3    0    0  0.19976118707E+02 -0.31333804233E+02  0.30594118507E+01  0.37285554944E+02  0.51100000000E-03 0. -1.
        -11    1    3    3    0    0  0.10804144073E+02  0.34980619951E+01 -0.13787080646E+01  0.11439702927E+02  0.51100000000E-03 0.  1.
        -12    1    3    3    0    0 -0.48170250063E+01  0.93298905257E+01 -0.12705958489E+01  0.10576625215E+02  0.00000000000E+00 0.  1.
</event>
<event>
 7    1  0.3528441E-013  0.5930193E+02  0.7816164E-02  0.1266605E+00
        -11   -1    0    0    0    0  0.00000000000E+00  0.00000000000E+00  0.45593999997E+02  0.45594000000E+02  0.51100000000E-03 0. -1.
         11   -1    0    0    0    0 -0.00000000000E+00 -0.00000000000E+00 -0.45593999997E+02  0.45594000000E+02  0.51100000000E-03 0.  1.
    9900012    2    1    2    0    0  0.19611675876E+01  0.29516736094E+02  0.11901162481E+02  0.59301928490E+02  0.49999971663E+02 0.  0.
        -12    1    1    2    0    0 -0.19611675876E+01 -0.29516736094E+02 -0.11901162481E+02  0.31886071510E+02  0.00000000000E+00 0.  1.
         11    1    3    3    0    0 -0.37449393660E+01 -0.21374841614E+01  0.10214801334E+02  0.11087631666E+02  0.51100000000E-03 0.  1.
        -11    1    3    3    0    0  0.51809445317E+01  0.15510383231E+01  0.14513195038E+02  0.15488083697E+02  0.51100000000E-03 0. -1.
        -12    1    3    3    0    0  0.52516242196E+00  0.30103181932E+02 -0.12826833891E+02  0.32726213128E+02  0.00000000000E+00 0.  1.
</event>
<event>
 7    1  0.3528441E-013  0.5930194E+02  0.7816164E-02  0.1266605E+00
        -11   -1    0    0    0    0  0.00000000000E+00  0.00000000000E+00  0.45593999997E+02  0.45594000000E+02  0.51100000000E-03 0.  1.
         11   -1    0    0    0    0 -0.00000000000E+00 -0.00000000000E+00 -0.45593999997E+02  0.45594000000E+02  0.51100000000E-03 0. -1.
    9900012    2    1    2    0    0  0.19902692243E+02  0.11568183409E+01 -0.24885049251E+02  0.59301936219E+02  0.49999985759E+02 0.  0.
        -12    1    1    2    0    0 -0.19902692243E+02 -0.11568183409E+01  0.24885049251E+02  0.31886063781E+02  0.00000000000E+00 0.  1.
         11    1    3    3    0    0 -0.67209362374E+01 -0.79598682107E+01  0.36018755222E+01  0.11022884984E+02  0.51100000000E-03 0. -1.
        -11    1    3    3    0    0  0.26322072927E+02  0.54363935972E+01 -0.88487944176E+01  0.28296767686E+02  0.51100000000E-03 0.  1.
         12    1    3    3    0    0  0.30155555327E+00  0.36802929543E+01 -0.19638130356E+02  0.19982283549E+02  0.00000000000E+00 0. -1.
</event>
<event>
 7    1  0.3528441E-013  0.5930191E+02  0.7816164E-02  0.1266605E+00
        -11   -1    0    0    0    0  0.00000000000E+00  0.00000000000E+00  0.45593999997E+02  0.45594000000E+02  0.51100000000E-03 0.  1.
         11   -1    0    0    0    0 -0.00000000000E+00 -0.00000000000E+00 -0.45593999997E+02  0.45594000000E+02  0.51100000000E-03 0. -1.
    9900012    2    1    2    0    0  0.22693433559E+02  0.19637622778E+01 -0.22313098248E+02  0.59301911459E+02  0.49999940603E+02 0.  0.
        -12    1    1    2    0    0 -0.22693433559E+02 -0.19637622778E+01  0.22313098248E+02  0.31886088541E+02  0.00000000000E+00 0.  1.
         11    1    3    3    0    0  0.10234160415E+02 -0.81738092053E+01 -0.54819875753E+01  0.14198640230E+02  0.51100000000E-03 0. -1.
        -11    1    3    3    0    0  0.14270136992E+01 -0.84152283068E+01  0.83475771049E+01  0.11938780479E+02  0.51100000000E-03 0.  1.
         12    1    3    3    0    0  0.11032259444E+02  0.18552799790E+02 -0.25178687778E+02  0.33164490750E+02  0.00000000000E+00 0. -1.
</event>
<event>
 7    1  0.3528441E-013  0.5930194E+02  0.7816164E-02  0.1266605E+00
        -11   -1    0    0    0    0  0.00000000000E+00  0.00000000000E+00  0.45593999997E+02  0.45594000000E+02  0.51100000000E-03 0.  1.
         11   -1    0    0    0    0 -0.00000000000E+00 -0.00000000000E+00 -0.45593999997E+02  0.45594000000E+02  0.51100000000E-03 0. -1.
    9900012    2    1    2    0    0  0.85446604313E+01  0.11473988286E+02 -0.28496616321E+02  0.59301940808E+02  0.49999994128E+02 0.  0.
        -12    1    1    2    0    0 -0.85446604313E+01 -0.11473988286E+02  0.28496616321E+02  0.31886059192E+02  0.00000000000E+00 0.  1.
         11    1    3    3    0    0  0.33841316350E+01  0.62706431599E+01 -0.31150231599E+02  0.31954815623E+02  0.51100000000E-03 0. -1.
        -11    1    3    3    0    0  0.70942902138E+00  0.13888313181E+02  0.81780277263E+01  0.16132844458E+02  0.51100000000E-03 0.  1.
        -12    1    3    3    0    0  0.44510997749E+01 -0.86849680552E+01 -0.55244124481E+01  0.11214280727E+02  0.00000000000E+00 0.  1.
</event>
<event>
 7    1  0.3528441E-013  0.5930194E+02  0.7816164E-02  0.1266605E+00
        -11   -1    0    0    0    0  0.00000000000E+00  0.00000000000E+00  0.45593999997E+02  0.45594000000E+02  0.51100000000E-03 0.  1.
         11   -1    0    0    0    0 -0.00000000000E+00 -0.00000000000E+00 -0.45593999997E+02  0.45594000000E+02  0.51100000000E-03 0. -1.
    9900012    2    1    2    0    0  0.14327514160E+02 -0.25004254373E+02 -0.13646635676E+02  0.59301936210E+02  0.49999985742E+02 0.  0.
        -12    1    1    2    0    0 -0.14327514160E+02  0.25004254373E+02  0.13646635676E+02  0.31886063790E+02  0.00000000000E+00 0.  1.
         11    1    3    3    0    0  0.74564509747E+01 -0.15069000675E+02 -0.58289741850E+01  0.17794672877E+02  0.51100000000E-03 0. -1.
        -11    1    3    3    0    0 -0.58150533076E+01 -0.99981804209E+01 -0.20519728104E+02  0.23554993068E+02  0.51100000000E-03 0.  1.
        -12    1    3    3    0    0  0.12686116493E+02  0.62926722553E-01  0.12702066613E+02  0.17952270265E+02  0.00000000000E+00 0.  1.
</event>
<event>
 7    1  0.3528441E-013  0.5930194E+02  0.7816164E-02  0.1266605E+00
        -11   -1    0    0    0    0  0.00000000000E+00  0.00000000000E+00  0.45593999997E+02  0.45594000000E+02  0.51100000000E-03 0. -1.
         11   -1    0    0    0    0 -0.00000000000E+00 -0.00000000000E+00 -0.45593999997E+02  0.45594000000E+02  0.51100000000E-03 0.  1.
    9900012    2    1    2    0    0  0.65473698554E+01 -0.15907826225E+02  0.26847604237E+02  0.59301939715E+02  0.49999992135E+02 0.  0.
        -12    1    1    2    0    0 -0.65473698554E+01  0.15907826225E+02 -0.26847604237E+02  0.31886060285E+02  0.00000000000E+00 0.  1.
         11    1    3    3    0    0 -0.16623796226E+01  0.79344078028E+01  0.60064033584E+01  0.10089361464E+02  0.51100000000E-03 0.  1.
        -11    1    3    3    0    0  0.11848378563E+02 -0.10037066558E+02  0.28907945301E+02  0.32814571175E+02  0.51100000000E-03 0. -1.
         12    1    3    3    0    0 -0.36386290847E+01 -0.13805167470E+02 -0.80667444221E+01  0.16398007076E+02  0.00000000000E+00 0. -1.
</event>
<event>
 7    1  0.3528441E-013  0.5930194E+02  0.7816164E-02  0.1266605E+00
        -11   -1    0    0    0    0  0.00000000000E+00  0.00000000000E+00  0.45593999997E+02  0.45594000000E+02  0.51100000000E-03 0.  1.
         11   -1    0    0    0    0 -0.00000000000E+00 -0.00000000000E+00 -0.45593999997E+02  0.45594000000E+02  0.51100000000E-03 0. -1.
    9900012    2    1    2    0    0 -0.18507897939E+02 -0.17399956202E+02 -0.19272259930E+02  0.59301940903E+02  0.49999994301E+02 0.  0.
        -12    1    1    2    0    0  0.18507897939E+02  0.17399956202E+02  0.19272259930E+02  0.31886059097E+02  0.00000000000E+00 0.  1.
         11    1    3    3    0    0 -0.51349781809E+01 -0.22225370205E+01 -0.50372124079E+01  0.75286905123E+01  0.51100000000E-03 0. -1.
        -11    1    3    3    0    0 -0.28505130513E+02 -0.52514158818E+01 -0.16789909669E+02  0.33496580441E+02  0.51100000000E-03 0.  1.
         12    1    3    3    0    0  0.15132210755E+02 -0.99260032998E+01  0.25548621470E+01  0.18276669949E+02  0.00000000000E+00 0. -1.
</event>
<event>
 7    1  0.3528441E-013  0.5930196E+02  0.7816164E-02  0.1266605E+00
        -11   -1    0    0    0    0  0.00000000000E+00  0.00000000000E+00  0.45593999997E+02  0.45594000000E+02  0.51100000000E-03 0.  1.
         11   -1    0    0    0    0 -0.00000000000E+00 -0.00000000000E+00 -0.45593999997E+02  0.45594000000E+02  0.51100000000E-03 0. -1.
    9900012    2    1    2    0    0 -0.17062277874E+02  0.11711532900E+02 -0.24257748618E+02  0.59301957644E+02  0.50000024834E+02 0.  0.
        -12    1    1    2    0    0  0.17062277874E+02 -0.11711532900E+02  0.24257748618E+02  0.31886042356E+02  0.00000000000E+00 0.  1.
         11    1    3    3    0    0 -0.82414338301E+01  0.11603353393E+02 -0.15302630548E+02  0.20898075115E+02  0.51100000000E-03 0. -1.
        -11    1    3    3    0    0 -0.19619566970E+02  0.95641287775E+01 -0.68317749727E+00  0.21837277740E+02  0.51100000000E-03 0.  1.
         12    1    3    3    0    0  0.10798722926E+02 -0.94559492701E+01 -0.82719405719E+01  0.16566604790E+02  0.00000000000E+00 0. -1.
</event>
<event>
 7    1  0.3528441E-013  0.5930194E+02  0.7816164E-02  0.1266605E+00
        -11   -1    0    0    0    0  0.00000000000E+00  0.00000000000E+00  0.45593999997E+02  0.45594000000E+02  0.51100000000E-03 0.  1.
         11   -1    0    0    0    0 -0.00000000000E+00 -0.00000000000E+00 -0.45593999997E+02  0.45594000000E+02  0.51100000000E-03 0. -1.
    9900012    2    1    2    0    0  0.81099405463E+01  0.22427055308E+02 -0.21165460772E+02  0.59301942308E+02  0.49999996863E+02 0.  0.
        -12    1    1    2    0    0 -0.81099405463E+01 -0.22427055308E+02  0.21165460772E+02  0.31886057692E+02  0.00000000000E+00 0.  1.
         11    1    3    3    0    0  0.19607234234E+02  0.12644249449E+02 -0.28521768931E+02  0.36848500399E+02  0.51100000000E-03 0. -1.
        -11    1    3    3    0    0 -0.44097065204E+01  0.38300443750E+01 -0.45277669916E+01  0.73902250102E+01  0.51100000000E-03 0.  1.
        -12    1    3    3    0    0 -0.70875871676E+01  0.59527614841E+01  0.11884075150E+02  0.15063216898E+02  0.00000000000E+00 0.  1.
</event>
<event>
 7    1  0.3528441E-013  0.5930200E+02  0.7816164E-02  0.1266605E+00
        -11   -1    0    0    0    0  0.00000000000E+00  0.00000000000E+00  0.45593999997E+02  0.45594000000E+02  0.51100000000E-03 0.  1.
         11   -1    0    0    0    0 -0.00000000000E+00 -0.00000000000E+00 -0.45593999997E+02  0.45594000000E+02  0.51100000000E-03 0. -1.
    9900012    2    1    2    0    0 -0.18242005219E+02  0.13726707848E+02 -0.22260366668E+02  0.59301997006E+02  0.50000096619E+02 0.  0.
        -12    1    1    2    0    0  0.18242005219E+02 -0.13726707848E+02  0.22260366668E+02  0.31886002994E+02  0.00000000000E+00 0.  1.
         11    1    3    3    0    0 -0.41179740326E+01  0.36096845622E+01  0.41950499988E+01  0.68982590213E+01  0.51100000000E-03 0. -1.
        -11    1    3    3    0    0  0.30306791220E+01  0.82228297167E+01  0.92522678194E+01  0.12743798670E+02  0.51100000000E-03 0.  1.
         12    1    3    3    0    0 -0.17154710309E+02  0.18941935692E+01 -0.35707684486E+02  0.39659939314E+02  0.00000000000E+00 0. -1.
</event>
<event>
 7    1  0.3528441E-013  0.5930197E+02  0.7816164E-02  0.1266605E+00
        -11   -1    0    0    0    0  0.00000000000E+00  0.00000000000E+00  0.45593999997E+02  0.45594000000E+02  0.51100000000E-03 0.  1.
         11   -1    0    0    0    0 -0.00000000000E+00 -0.00000000000E+00 -0.45593999997E+02  0.45594000000E+02  0.51100000000E-03 0. -1.
    9900012    2    1    2    0    0 -0.13157182532E+02  0.21663171766E+02 -0.19347213671E+02  0.59301966380E+02  0.50000040766E+02 0.  0.
        -12    1    1    2    0    0  0.13157182532E+02 -0.21663171766E+02  0.19347213671E+02  0.31886033620E+02  0.00000000000E+00 0.  1.
         11    1    3    3    0    0  0.33250655960E+01  0.13210827738E+02 -0.81630976586E+01  0.15881378856E+02  0.51100000000E-03 0. -1.
        -11    1    3    3    0    0 -0.21804710849E+01  0.21969176713E+02 -0.37973777279E+01  0.22401322672E+02  0.51100000000E-03 0.  1.
        -12    1    3    3    0    0 -0.14301777043E+02 -0.13516832685E+02 -0.73867382848E+01  0.21019264852E+02  0.00000000000E+00 0.  1.
</event>
<event>
 7    1  0.3528441E-013  0.5930189E+02  0.7816164E-02  0.1266605E+00
        -11   -1    0    0    0    0  0.00000000000E+00  0.00000000000E+00  0.45593999997E+02  0.45594000000E+02  0.51100000000E-03 0.  1.
         11   -1    0    0    0    0 -0.00000000000E+00 -0.00000000000E+00 -0.45593999997E+02  0.45594000000E+02  0.51100000000E-03 0. -1.
    9900012    2    1    2    0    0 -0.16981288702E+00 -0.30095738510E+02  0.10532890128E+02  0.59301888802E+02  0.49999899281E+02 0.  0.
        -12    1    1    2    0    0  0.16981288702E+00  0.30095738510E+02 -0.10532890128E+02  0.31886111198E+02  0.00000000000E+00 0.  1.
         11    1    3    3    0    0 -0.45749310929E+01  0.19009299750E+01 -0.51732030111E+01  0.71627898845E+01  0.51100000000E-03 0. -1.
        -11    1    3    3    0    0 -0.77082669156E+01 -0.14754453019E+02 -0.95937186619E+01  0.19213294896E+02  0.51100000000E-03 0.  1.
         12    1    3    3    0    0  0.12113385122E+02 -0.17242215466E+02  0.25299811801E+02  0.32925804021E+02  0.00000000000E+00 0. -1.
</event>
<event>
 7    1  0.3528441E-013  0.5930191E+02  0.7816164E-02  0.1266605E+00
        -11   -1    0    0    0    0  0.00000000000E+00  0.00000000000E+00  0.45593999997E+02  0.45594000000E+02  0.51100000000E-03 0.  1.
         11   -1    0    0    0    0 -0.00000000000E+00 -0.00000000000E+00 -0.45593999997E+02  0.45594000000E+02  0.51100000000E-03 0. -1.
    9900012    2    1    2    0    0  0.26139074493E+02 -0.54705392041E+01 -0.17422532426E+02  0.59301911330E+02  0.49999940366E+02 0.  0.
        -12    1    1    2    0    0 -0.26139074493E+02  0.54705392041E+01  0.17422532426E+02  0.31886088670E+02  0.00000000000E+00 0.  1.
         11    1    3    3    0    0  0.18256070420E+02 -0.55857399640E+01 -0.20663116944E+02  0.28132703394E+02  0.51100000000E-03 0. -1.
        -11    1    3    3    0    0  0.95815199244E+01 -0.12018805496E+02 -0.52723739418E+01  0.16249773440E+02  0.51100000000E-03 0.  1.
        -12    1    3    3    0    0 -0.16985158516E+01  0.12134006256E+02  0.85129584595E+01  0.14919434495E+02  0.00000000000E+00 0.  1.
</event>
<event>
 7    1  0.3528441E-013  0.5930194E+02  0.7816164E-02  0.1266605E+00
        -11   -1    0    0    0    0  0.00000000000E+00  0.00000000000E+00  0.45593999997E+02  0.45594000000E+02  0.51100000000E-03 0.  1.
         11   -1    0    0    0    0 -0.00000000000E+00 -0.00000000000E+00 -0.45593999997E+02  0.45594000000E+02  0.51100000000E-03 0. -1.
    9900012    2    1    2    0    0  0.13916276521E+02  0.25780555773E+02 -0.12586545859E+02  0.59301938079E+02  0.49999989151E+02 0.  0.
        -12    1    1    2    0    0 -0.13916276521E+02 -0.25780555773E+02  0.12586545859E+02  0.31886061921E+02  0.00000000000E+00 0.  1.
         11    1    3    3    0    0  0.80105039213E+01  0.69411676688E+01 -0.18351411225E+02  0.21192505182E+02  0.51100000000E-03 0.  1.
        -11    1    3    3    0    0 -0.53903087349E+01  0.12567536264E+02 -0.10569128796E+02  0.17283080737E+02  0.51100000000E-03 0. -1.
        -12    1    3    3    0    0  0.11296081335E+02  0.62718518400E+01  0.16333994162E+02  0.20826352160E+02  0.00000000000E+00 0.  1.
</event>
<event>
 7    1  0.3528441E-013  0.5930194E+02  0.7816164E-02  0.1266605E+00
        -11   -1    0    0    0    0  0.00000000000E+00  0.00000000000E+00  0.45593999997E+02  0.45594000000E+02  0.51100000000E-03 0. -1.
         11   -1    0    0    0    0 -0.00000000000E+00 -0.00000000000E+00 -0.45593999997E+02  0.45594000000E+02  0.51100000000E-03 0.  1.
    9900012    2    1    2    0    0 -0.13143953129E+02  0.28581016525E+02  0.52041409960E+01  0.59301935756E+02  0.49999984915E+02 0.  0.
        -12    1    1    2    0    0  0.13143953129E+02 -0.28581016525E+02 -0.52041409960E+01  0.31886064244E+02  0.00000000000E+00 0.  1.
         11    1    3    3    0    0 -0.65957144501E+01 -0.45491443384E+01 -0.11046473541E+02  0.13646345345E+02  0.51100000000E-03 0. -1.
        -11    1    3    3    0    0  0.36218410174E+01  0.66611494016E+01 -0.59540510266E+01  0.96405066047E+01  0.51100000000E-03 0.  1.
         12    1    3    3    0    0 -0.10170079697E+02  0.26469011461E+02  0.22204665564E+02  0.36015083806E+02  0.00000000000E+00 0. -1.
</event>
<event>
 7    1  0.3528441E-013  0.5930196E+02  0.7816164E-02  0.1266605E+00
        -11   -1    0    0    0    0  0.00000000000E+00  0.00000000000E+00  0.45593999997E+02  0.45594000000E+02  0.51100000000E-03 0. -1.
         11   -1    0    0    0    0 -0.00000000000E+00 -0.00000000000E+00 -0.45593999997E+02  0.45594000000E+02  0.51100000000E-03 0.  1.
    9900012    2    1    2    0    0  0.17500636519E+02 -0.22435759325E+02  0.14390401900E+02  0.59301964782E+02  0.50000037851E+02 0.  0.
        -12    1    1    2    0    0 -0.17500636519E+02  0.22435759325E+02 -0.14390401900E+02  0.31886035218E+02  0.00000000000E+00 0.  1.
         11    1    3    3    0    0 -0.15525971546E+01 -0.19878060690E+01  0.16948519006E+01  0.30388244633E+01  0.51100000000E-03 0. -1.
        -11    1    3    3    0    0  0.24154048221E+01 -0.30432262055E+02  0.18883922159E+02  0.35896507777E+02  0.51100000000E-03 0.  1.
        -12    1    3    3    0    0  0.16637828852E+02  0.99843087995E+01 -0.61883721595E+01  0.20366632542E+02  0.00000000000E+00 0.  1.
</event>
<event>
 7    1  0.3528441E-013  0.5930195E+02  0.7816164E-02  0.1266605E+00
        -11   -1    0    0    0    0  0.00000000000E+00  0.00000000000E+00  0.45593999997E+02  0.45594000000E+02  0.51100000000E-03 0. -1.
         11   -1    0    0    0    0 -0.00000000000E+00 -0.00000000000E+00 -0.45593999997E+02  0.45594000000E+02  0.51100000000E-03 0.  1.
    9900012    2    1    2    0    0  0.29910200558E+02 -0.26319570319E+01  0.10731871471E+02  0.59301947242E+02  0.50000005862E+02 0.  0.
        -12    1    1    2    0    0 -0.29910200558E+02  0.26319570319E+01 -0.10731871471E+02  0.31886052758E+02  0.00000000000E+00 0.  1.
         11    1    3    3    0    0  0.12756115462E+02 -0.25813915855E+01  0.26473900396E+02  0.29499990960E+02  0.51100000000E-03 0. -1.
        -11    1    3    3    0    0  0.72453088515E+01 -0.65623088389E+01  0.38771451720E+00  0.97830833820E+01  0.51100000000E-03 0.  1.
         12    1    3    3    0    0  0.99087762444E+01  0.65117433925E+01 -0.16129743442E+02  0.20018872900E+02  0.00000000000E+00 0. -1.
</event>
<event>
 7    1  0.3528441E-013  0.5930201E+02  0.7816164E-02  0.1266605E+00
        -11   -1    0    0    0    0  0.00000000000E+00  0.00000000000E+00  0.45593999997E+02  0.45594000000E+02  0.51100000000E-03 0.  1.
         11   -1    0    0    0    0 -0.00000000000E+00 -0.00000000000E+00 -0.45593999997E+02  0.45594000000E+02  0.51100000000E-03 0. -1.
    9900012    2    1    2    0    0  0.13903094630E+02 -0.90179302576E+01 -0.27241466470E+02  0.59302006180E+02  0.50000113351E+02 0.  0.
        -12    1    1    2    0    0 -0.13903094630E+02  0.90179302576E+01  0.27241466470E+02  0.31885993820E+02  0.00000000000E+00 0.  1.
         11    1    3    3    0    0 -0.95002940178E+00  0.13323427829E+02 -0.10203365470E+02  0.16808478579E+02  0.51100000000E-03 0. -1.
        -11    1    3    3    0    0  0.11259041370E+01  0.45060142592E+01 -0.10723603278E+02  0.11686209487E+02  0.51100000000E-03 0.  1.
        -12    1    3    3    0    0  0.13727219895E+02 -0.26847372346E+02 -0.63144977216E+01  0.30807318114E+02  0.00000000000E+00 0.  1.
</event>
<event>
 7    1  0.3528441E-013  0.5930195E+02  0.7816164E-02  0.1266605E+00
        -11   -1    0    0    0    0  0.00000000000E+00  0.00000000000E+00  0.45593999997E+02  0.45594000000E+02  0.51100000000E-03 0.  1.
         11   -1    0    0    0    0 -0.00000000000E+00 -0.00000000000E+00 -0.45593999997E+02  0.45594000000E+02  0.51100000000E-03 0. -1.
    9900012    2    1    2    0    0 -0.59228694040E+01 -0.10142671539E+02 -0.29643983364E+02  0.59301954187E+02  0.50000018528E+02 0.  0.
        -12    1    1    2    0    0  0.59228694040E+01  0.10142671539E+02  0.29643983364E+02  0.31886045813E+02  0.00000000000E+00 0.  1.
         11    1    3    3    0    0 -0.94194849928E+01  0.71280841050E+01 -0.69730574678E+01  0.13717135679E+02  0.51100000000E-03 0. -1.
        -11    1    3    3    0    0 -0.54082358079E+01 -0.15356938864E+02  0.45296708432E+01  0.16899778224E+02  0.51100000000E-03 0.  1.
         12    1    3    3    0    0  0.89048513968E+01 -0.19138167799E+01 -0.27200596739E+02  0.28685040283E+02  0.00000000000E+00 0. -1.
</event>
<event>
 7    1  0.3528441E-013  0.5930193E+02  0.7816164E-02  0.1266605E+00
        -11   -1    0    0    0    0  0.00000000000E+00  0.00000000000E+00  0.45593999997E+02  0.45594000000E+02  0.51100000000E-03 0. -1.
         11   -1    0    0    0    0 -0.00000000000E+00 -0.00000000000E+00 -0.45593999997E+02  0.45594000000E+02  0.51100000000E-03 0.  1.
    9900012    2    1    2    0    0 -0.14355287531E+02 -0.22813361545E+02  0.17035189803E+02  0.59301930366E+02  0.49999975084E+02 0.  0.
        -12    1    1    2    0    0  0.14355287531E+02  0.22813361545E+02 -0.17035189803E+02  0.31886069634E+02  0.00000000000E+00 0.  1.
         11    1    3    3    0    0 -0.60900773017E+01 -0.36866921300E+01  0.21775463046E+02  0.22909638398E+02  0.51100000000E-03 0. -1.
        -11    1    3    3    0    0 -0.51496890976E+01 -0.67856394615E+01  0.12399278803E+02  0.15043480840E+02  0.51100000000E-03 0.  1.
        -12    1    3    3    0    0 -0.31155211318E+01 -0.12341029953E+02 -0.17139552045E+02  0.21348811127E+02  0.00000000000E+00 0.  1.
</event>
<event>
 7    1  0.3528441E-013  0.5930201E+02  0.7816164E-02  0.1266605E+00
        -11   -1    0    0    0    0  0.00000000000E+00  0.00000000000E+00  0.45593999997E+02  0.45594000000E+02  0.51100000000E-03 0.  1.
         11   -1    0    0    0    0 -0.00000000000E+00 -0.00000000000E+00 -0.45593999997E+02  0.45594000000E+02  0.51100000000E-03 0. -1.
    9900012    2    1    2    0    0 -0.98583081360E+01 -0.54824386474E+01 -0.29824029781E+02  0.59302013654E+02  0.50000126982E+02 0.  0.
        -12    1    1    2    0    0  0.98583081360E+01  0.54824386474E+01  0.29824029781E+02  0.31885986346E+02  0.00000000000E+00 0.  1.
         11    1    3    3    0    0  0.24035621734E+01  0.95438408305E+01 -0.11622912490E+01  0.99102436967E+01  0.51100000000E-03 0. -1.
        -11    1    3    3    0    0 -0.27169335608E+01 -0.51713225544E+01  0.81952556675E+01  0.10064120461E+02  0.51100000000E-03 0.  1.
         12    1    3    3    0    0 -0.95449367486E+01 -0.98549569235E+01 -0.36856994200E+02  0.39327649497E+02  0.00000000000E+00 0. -1.
</event>
<event>
 7    1  0.3528441E-013  0.5930192E+02  0.7816164E-02  0.1266605E+00
        -11   -1    0    0    0    0  0.00000000000E+00  0.00000000000E+00  0.45593999997E+02  0.45594000000E+02  0.51100000000E-03 0.  1.
         11   -1    0    0    0    0 -0.00000000000E+00 -0.00000000000E+00 -0.45593999997E+02  0.45594000000E+02  0.51100000000E-03 0. -1.
    9900012    2    1    2    0    0  0.17506389971E+02 -0.21803130439E+02 -0.15325532356E+02  0.59301919514E+02  0.49999955294E+02 0.  0.
        -12    1    1    2    0    0 -0.17506389971E+02  0.21803130439E+02  0.15325532356E+02  0.31886080486E+02  0.00000000000E+00 0.  1.
         11    1    3    3    0    0  0.68586758080E+01 -0.83140484271E+01 -0.30520898575E+02  0.32368041108E+02  0.51100000000E-03 0. -1.
        -11    1    3    3    0    0  0.78917774229E+01 -0.58229856658E+01  0.13157050608E+00  0.98083955883E+01  0.51100000000E-03 0.  1.
        -12    1    3    3    0    0  0.27559367397E+01 -0.76660963456E+01  0.15063795712E+02  0.17125482818E+02  0.00000000000E+00 0.  1.
</event>
<event>
 7    1  0.3528441E-013  0.5930194E+02  0.7816164E-02  0.1266605E+00
        -11   -1    0    0    0    0  0.00000000000E+00  0.00000000000E+00  0.45593999997E+02  0.45594000000E+02  0.51100000000E-03 0. -1.
         11   -1    0    0    0    0 -0.00000000000E+00 -0.00000000000E+00 -0.45593999997E+02  0.45594000000E+02  0.51100000000E-03 0.  1.
    9900012    2    1    2    0    0  0.16575989047E+02 -0.27042873127E+02  0.32619206948E+01  0.59301944639E+02  0.50000001116E+02 0.  0.
        -12    1    1    2    0    0 -0.16575989047E+02  0.27042873127E+02 -0.32619206948E+01  0.31886055361E+02  0.00000000000E+00 0.  1.
         11    1    3    3    0    0 -0.39237426181E+01 -0.18927408051E+02  0.11680052380E+02  0.22584644241E+02  0.51100000000E-03 0. -1.
        -11    1    3    3    0    0 -0.58477885850E+00 -0.34124427245E+01 -0.13986400603E+02  0.14408543776E+02  0.51100000000E-03 0.  1.
        -12    1    3    3    0    0  0.21084510524E+02 -0.47030223517E+01  0.55682689177E+01  0.22308756622E+02  0.00000000000E+00 0.  1.
</event>
<event>
 7    1  0.3528441E-013  0.5930194E+02  0.7816164E-02  0.1266605E+00
        -11   -1    0    0    0    0  0.00000000000E+00  0.00000000000E+00  0.45593999997E+02  0.45594000000E+02  0.51100000000E-03 0. -1.
         11   -1    0    0    0    0 -0.00000000000E+00 -0.00000000000E+00 -0.45593999997E+02  0.45594000000E+02  0.51100000000E-03 0.  1.
    9900012    2    1    2    0    0  0.10346346245E+02  0.22350103878E+02  0.20252084024E+02  0.59301938291E+02  0.49999989538E+02 0.  0.
        -12    1    1    2    0    0 -0.10346346245E+02 -0.22350103878E+02 -0.20252084024E+02  0.31886061709E+02  0.00000000000E+00 0.  1.
         11    1    3    3    0    0  0.37204239455E+01  0.13997603505E+01  0.11657564422E+02  0.12316642882E+02  0.51100000000E-03 0. -1.
        -11    1    3    3    0    0 -0.50348803033E+01 -0.11041958964E+02  0.19336824899E+01  0.12288775597E+02  0.51100000000E-03 0.  1.
        -12    1    3    3    0    0  0.11660802603E+02  0.31992302492E+02  0.66608371119E+01  0.34696519813E+02  0.00000000000E+00 0.  1.
</event>
<event>
 7    1  0.3528441E-013  0.5930190E+02  0.7816164E-02  0.1266605E+00
        -11   -1    0    0    0    0  0.00000000000E+00  0.00000000000E+00  0.45593999997E+02  0.45594000000E+02  0.51100000000E-03 0. -1.
         11   -1    0    0    0    0 -0.00000000000E+00 -0.00000000000E+00 -0.45593999997E+02  0.45594000000E+02  0.51100000000E-03 0.  1.
    9900012    2    1    2    0    0 -0.17687188610E+02 -0.25778331612E+02  0.62740933624E+01  0.59301901632E+02  0.49999922679E+02 0.  0.
        -12    1    1    2    0    0  0.17687188610E+02  0.25778331612E+02 -0.62740933624E+01  0.31886098368E+02  0.00000000000E+00 0.  1.
         11    1    3    3    0    0 -0.77301468641E+00 -0.11476398175E+02  0.16487633224E+02  0.20103415540E+02  0.51100000000E-03 0. -1.
        -11    1    3    3    0    0  0.20185399929E+01  0.50140954939E+01  0.56689055104E+01  0.78327611525E+01  0.51100000000E-03 0.  1.
        -12    1    3    3    0    0 -0.18932713917E+02 -0.19316028932E+02 -0.15882445373E+02  0.31365724939E+02  0.00000000000E+00 0.  1.
</event>
<event>
 7    1  0.3528441E-013  0.5930193E+02  0.7816164E-02  0.1266605E+00
        -11   -1    0    0    0    0  0.00000000000E+00  0.00000000000E+00  0.45593999997E+02  0.45594000000E+02  0.51100000000E-03 0. -1.
         11   -1    0    0    0    0 -0.00000000000E+00 -0.00000000000E+00 -0.45593999997E+02  0.45594000000E+02  0.51100000000E-03 0.  1.
    9900012    2    1    2    0    0 -0.22868314168E+02 -0.20745854065E+02  0.79605862497E+01  0.59301934279E+02  0.49999982220E+02 0.  0.
        -12    1    1    2    0    0  0.22868314168E+02  0.20745854065E+02 -0.79605862497E+01  0.31886065721E+02  0.00000000000E+00 0.  1.
         11    1    3    3    0    0 -0.24932271101E+02 -0.11766440742E+02  0.13285939924E+02  0.30603651252E+02  0.51100000000E-03 0. -1.
        -11    1    3    3    0    0  0.43054499325E+01 -0.25471138126E+01  0.10411248822E+02  0.11550705182E+02  0.51100000000E-03 0.  1.
        -12    1    3    3    0    0 -0.22414929986E+01 -0.64322995102E+01 -0.15736602496E+02  0.17147577846E+02  0.00000000000E+00 0.  1.
</event>
<event>
 7    1  0.3528441E-013  0.5930192E+02  0.7816164E-02  0.1266605E+00
        -11   -1    0    0    0    0  0.00000000000E+00  0.00000000000E+00  0.45593999997E+02  0.45594000000E+02  0.51100000000E-03 0.  1.
         11   -1    0    0    0    0 -0.00000000000E+00 -0.00000000000E+00 -0.45593999997E+02  0.45594000000E+02  0.51100000000E-03 0. -1.
    9900012    2    1    2    0    0  0.23766873262E+02  0.21254522450E+02 -0.32088723132E+00  0.59301922194E+02  0.49999960180E+02 0.  0.
        -12    1    1    2    0    0 -0.23766873262E+02 -0.21254522450E+02  0.32088723132E+00  0.31886077806E+02  0.00000000000E+00 0.  1.
         11    1    3    3    0    0  0.31106637187E+02  0.38218231067E+01 -0.57812434210E+01  0.31869295328E+02  0.51100000000E-03 0. -1.
        -11    1    3    3    0    0  0.19377866329E+00  0.84591032202E+01  0.11479047209E+02  0.14260522520E+02  0.51100000000E-03 0.  1.
        -12    1    3    3    0    0 -0.75335425880E+01  0.89735961234E+01 -0.60186910195E+01  0.13172104346E+02  0.00000000000E+00 0.  1.
</event>
<event>
 7    1  0.3528441E-013  0.5930193E+02  0.7816164E-02  0.1266605E+00
        -11   -1    0    0    0    0  0.00000000000E+00  0.00000000000E+00  0.45593999997E+02  0.45594000000E+02  0.51100000000E-03 0.  1.
         11   -1    0    0    0    0 -0.00000000000E+00 -0.00000000000E+00 -0.45593999997E+02  0.45594000000E+02  0.51100000000E-03 0. -1.
    9900012    2    1    2    0    0  0.23277092808E+02 -0.36419634881E+01 -0.21485676854E+02  0.59301933176E+02  0.49999980209E+02 0.  0.
        -12    1    1    2    0    0 -0.23277092808E+02  0.36419634881E+01  0.21485676854E+02  0.31886066824E+02  0.00000000000E+00 0.  1.
         11    1    3    3    0    0  0.24924024209E+02 -0.16306180015E+02 -0.83308405295E+01  0.30927356720E+02  0.51100000000E-03 0. -1.
        -11    1    3    3    0    0 -0.81918843252E+00 -0.33816822765E+00  0.55273929220E+01  0.55979907300E+01  0.51100000000E-03 0.  1.
         12    1    3    3    0    0 -0.82774296856E+00  0.13002384755E+02 -0.18682229246E+02  0.22776585726E+02  0.00000000000E+00 0. -1.
</event>
<event>
 7    1  0.3528441E-013  0.5930181E+02  0.7816164E-02  0.1266605E+00
        -11   -1    0    0    0    0  0.00000000000E+00  0.00000000000E+00  0.45593999997E+02  0.45594000000E+02  0.51100000000E-03 0. -1.
         11   -1    0    0    0    0 -0.00000000000E+00 -0.00000000000E+00 -0.45593999997E+02  0.45594000000E+02  0.51100000000E-03 0.  1.
    9900012    2    1    2    0    0 -0.10424590329E+02  0.25293830538E+02  0.16379235286E+02  0.59301807136E+02  0.49999750342E+02 0.  0.
        -12    1    1    2    0    0  0.10424590329E+02 -0.25293830538E+02 -0.16379235286E+02  0.31886192864E+02  0.00000000000E+00 0.  1.
         11    1    3    3    0    0  0.49972729331E+01  0.10123318914E+02  0.95214817243E+01  0.14768647097E+02  0.51100000000E-03 0. -1.
        -11    1    3    3    0    0  0.68979214195E+01  0.11822681158E+02  0.15215159254E+02  0.20466025043E+02  0.51100000000E-03 0.  1.
         12    1    3    3    0    0 -0.22319784681E+02  0.33478304663E+01 -0.83574056921E+01  0.24067134997E+02  0.00000000000E+00 0. -1.
</event>
<event>
 7    1  0.3528441E-013  0.5930195E+02  0.7816164E-02  0.1266605E+00
        -11   -1    0    0    0    0  0.00000000000E+00  0.00000000000E+00  0.45593999997E+02  0.45594000000E+02  0.51100000000E-03 0.  1.
         11   -1    0    0    0    0 -0.00000000000E+00 -0.00000000000E+00 -0.45593999997E+02  0.45594000000E+02  0.51100000000E-03 0. -1.
    9900012    2    1    2    0    0  0.68118456765E+01  0.57319787480E+01 -0.30618025816E+02  0.59301947770E+02  0.50000006826E+02 0.  0.
        -12    1    1    2    0    0 -0.68118456765E+01 -0.57319787480E+01  0.30618025816E+02  0.31886052230E+02  0.00000000000E+00 0.  1.
         11    1    3    3    0    0 -0.41483056752E+01  0.13141819788E+02  0.21702695763E+00  0.13782705405E+02  0.51100000000E-03 0. -1.
        -11    1    3    3    0    0 -0.54575153777E+01  0.12193085110E+01  0.34273635200E+01  0.65588115008E+01  0.51100000000E-03 0.  1.
         12    1    3    3    0    0  0.16417666729E+02 -0.86291495515E+01 -0.34262416294E+02  0.38960430864E+02  0.00000000000E+00 0. -1.
</event>
<event>
 7    1  0.3528441E-013  0.5930193E+02  0.7816164E-02  0.1266605E+00
        -11   -1    0    0    0    0  0.00000000000E+00  0.00000000000E+00  0.45593999997E+02  0.45594000000E+02  0.51100000000E-03 0.  1.
         11   -1    0    0    0    0 -0.00000000000E+00 -0.00000000000E+00 -0.45593999997E+02  0.45594000000E+02  0.51100000000E-03 0. -1.
    9900012    2    1    2    0    0  0.20286985762E+02 -0.24538050435E+02  0.17445797943E+01  0.59301932994E+02  0.49999979877E+02 0.  0.
        -12    1    1    2    0    0 -0.20286985762E+02  0.24538050435E+02 -0.17445797943E+01  0.31886067006E+02  0.00000000000E+00 0.  1.
         11    1    3    3    0    0  0.21480710403E+02 -0.13619879827E+02 -0.77892106345E+01  0.26600636242E+02  0.51100000000E-03 0. -1.
        -11    1    3    3    0    0 -0.14713819851E+01  0.87705788911E+01 -0.29700472341E+01  0.93759906071E+01  0.51100000000E-03 0.  1.
        -12    1    3    3    0    0  0.27765734379E+00 -0.19688749499E+02  0.12503837663E+02  0.23325306145E+02  0.00000000000E+00 0.  1.
</event>
<event>
 7    1  0.3528441E-013  0.5930192E+02  0.7816164E-02  0.1266605E+00
        -11   -1    0    0    0    0  0.00000000000E+00  0.00000000000E+00  0.45593999997E+02  0.45594000000E+02  0.51100000000E-03 0. -1.
         11   -1    0    0    0    0 -0.00000000000E+00 -0.00000000000E+00 -0.45593999997E+02  0.45594000000E+02  0.51100000000E-03 0.  1.
    9900012    2    1    2    0    0 -0.19499660655E+02 -0.20669626343E+01  0.25143841903E+02  0.59301923323E+02  0.49999962239E+02 0.  0.
        -12    1    1    2    0    0  0.19499660655E+02  0.20669626343E+01 -0.25143841903E+02  0.31886076677E+02  0.00000000000E+00 0.  1.
         11    1    3    3    0    0 -0.92985651658E+01  0.84358597397E+01  0.57337437705E+01  0.13802277405E+02  0.51100000000E-03 0. -1.
        -11    1    3    3    0    0 -0.68985621166E+01 -0.93233650823E+01  0.31154258120E+02  0.33243090937E+02  0.51100000000E-03 0.  1.
        -12    1    3    3    0    0 -0.33025333727E+01 -0.11794572917E+01 -0.11744159987E+02  0.12256554981E+02  0.00000000000E+00 0.  1.
</event>
<event>
 7    1  0.3528441E-013  0.5930193E+02  0.7816164E-02  0.1266605E+00
        -11   -1    0    0    0    0  0.00000000000E+00  0.00000000000E+00  0.45593999997E+02  0.45594000000E+02  0.51100000000E-03 0.  1.
         11   -1    0    0    0    0 -0.00000000000E+00 -0.00000000000E+00 -0.45593999997E+02  0.45594000000E+02  0.51100000000E-03 0. -1.
    9900012    2    1    2    0    0 -0.19405217338E+02  0.92179866132E+01 -0.23562420333E+02  0.59301931113E+02  0.49999976447E+02 0.  0.
        -12    1    1    2    0    0  0.19405217338E+02 -0.92179866132E+01  0.23562420333E+02  0.31886068887E+02  0.00000000000E+00 0.  1.
         11    1    3    3    0    0 -0.26481530151E+01  0.41818914050E+01  0.53842142820E+00  0.49790388640E+01  0.51100000000E-03 0. -1.
        -11    1    3    3    0    0 -0.95945191305E+01 -0.78649007425E+00  0.12951895220E+02  0.16137687382E+02  0.51100000000E-03 0.  1.
        -12    1    3    3    0    0 -0.71625451921E+01  0.58225852825E+01 -0.37052736981E+02  0.38185204867E+02  0.00000000000E+00 0.  1.
</event>
<event>
 7    1  0.3528441E-013  0.5930190E+02  0.7816164E-02  0.1266605E+00
        -11   -1    0    0    0    0  0.00000000000E+00  0.00000000000E+00  0.45593999997E+02  0.45594000000E+02  0.51100000000E-03 0. -1.
         11   -1    0    0    0    0 -0.00000000000E+00 -0.00000000000E+00 -0.45593999997E+02  0.45594000000E+02  0.51100000000E-03 0.  1.
    9900012    2    1    2    0    0  0.11600220752E+02 -0.90359879846E+01  0.28293272312E+02  0.59301898663E+02  0.49999917266E+02 0.  0.
        -12    1    1    2    0    0 -0.11600220752E+02  0.90359879846E+01 -0.28293272312E+02  0.31886101337E+02  0.00000000000E+00 0.  1.
         11    1    3    3    0    0  0.29491187081E+01 -0.21076128318E+02  0.11193224762E+02  0.24045556073E+02  0.51100000000E-03 0. -1.
        -11    1    3    3    0    0  0.12201059997E+02 -0.50612314216E+01  0.56177162539E+01  0.14354116647E+02  0.51100000000E-03 0.  1.
         12    1    3    3    0    0 -0.35499579525E+01  0.17101371755E+02  0.11482331296E+02  0.20902225943E+02  0.00000000000E+00 0. -1.
</event>
<event>
 7    1  0.3528441E-013  0.5930202E+02  0.7816164E-02  0.1266605E+00
        -11   -1    0    0    0    0  0.00000000000E+00  0.00000000000E+00  0.45593999997E+02  0.45594000000E+02  0.51100000000E-03 0.  1.
         11   -1    0    0    0    0 -0.00000000000E+00 -0.00000000000E+00 -0.45593999997E+02  0.45594000000E+02  0.51100000000E-03 0. -1.
    9900012    2    1    2    0    0 -0.21005143301E+02 -0.11881965478E+02 -0.20840316886E+02  0.59302016298E+02  0.50000131803E+02 0.  0.
        -12    1    1    2    0    0  0.21005143301E+02  0.11881965478E+02  0.20840316886E+02  0.31885983702E+02  0.00000000000E+00 0.  1.
         11    1    3    3    0    0  0.35714877745E+01  0.12891028149E+00 -0.10135230004E+00  0.35752503875E+01  0.51100000000E-03 0. -1.
        -11    1    3    3    0    0  0.11066510145E+02  0.25178333987E+01 -0.11470110745E+02  0.16136002373E+02  0.51100000000E-03 0.  1.
         12    1    3    3    0    0 -0.35643141221E+02 -0.14528709159E+02 -0.92688538412E+01  0.39590763537E+02  0.00000000000E+00 0. -1.
</event>
<event>
 7    1  0.3528441E-013  0.5930194E+02  0.7816164E-02  0.1266605E+00
        -11   -1    0    0    0    0  0.00000000000E+00  0.00000000000E+00  0.45593999997E+02  0.45594000000E+02  0.51100000000E-03 0. -1.
         11   -1    0    0    0    0 -0.00000000000E+00 -0.00000000000E+00 -0.45593999997E+02  0.45594000000E+02  0.51100000000E-03 0.  1.
    9900012    2    1    2    0    0 -0.21889529694E+02 -0.32318928743E+01  0.22959190342E+02  0.59301936227E+02  0.49999985774E+02 0.  0.
        -12    1    1    2    0    0  0.21889529694E+02  0.32318928743E+01 -0.22959190342E+02  0.31886063773E+02  0.00000000000E+00 0.  1.
         11    1    3    3    0    0 -0.19569898757E+02  0.96636737858E+01  0.13633914530E+02  0.25734240887E+02  0.51100000000E-03 0. -1.
        -11    1    3    3    0    0 -0.11689214120E+02 -0.10812072352E+02 -0.46732530878E+01  0.16594515057E+02  0.51100000000E-03 0.  1.
         12    1    3    3    0    0  0.93695831827E+01 -0.20834943080E+01  0.13998528900E+02  0.16973180283E+02  0.00000000000E+00 0. -1.
</event>
<event>
 7    1  0.3528441E-013  0.5930196E+02  0.7816164E-02  0.1266605E+00
        -11   -1    0    0    0    0  0.00000000000E+00  0.00000000000E+00  0.45593999997E+02  0.45594000000E+02  0.51100000000E-03 0.  1.
         11   -1    0    0    0    0 -0.00000000000E+00 -0.00000000000E+00 -0.45593999997E+02  0.45594000000E+02  0.51100000000E-03 0. -1.
    9900012    2    1    2    0    0  0.61772292103E+01 -0.17422785889E+02 -0.25980913585E+02  0.59301960742E+02  0.50000030483E+02 0.  0.
        -12    1    1    2    0    0 -0.61772292103E+01  0.17422785889E+02  0.25980913585E+02  0.31886039258E+02  0.00000000000E+00 0.  1.
         11    1    3    3    0    0 -0.17825427540E+02 -0.95696713610E+01 -0.22673011873E+02  0.30387331975E+02  0.51100000000E-03 0. -1.
        -11    1    3    3    0    0  0.18429746859E+01  0.20828011166E+01  0.27224781522E+01  0.38918509394E+01  0.51100000000E-03 0.  1.
        -12    1    3    3    0    0  0.22159682064E+02 -0.99359156447E+01 -0.60303798648E+01  0.25022777827E+02  0.00000000000E+00 0.  1.
</event>
<event>
 7    1  0.3528441E-013  0.5930187E+02  0.7816164E-02  0.1266605E+00
        -11   -1    0    0    0    0  0.00000000000E+00  0.00000000000E+00  0.45593999997E+02  0.45594000000E+02  0.51100000000E-03 0. -1.
         11   -1    0    0    0    0 -0.00000000000E+00 -0.00000000000E+00 -0.45593999997E+02  0.45594000000E+02  0.51100000000E-03 0.  1.
    9900012    2    1    2    0    0  0.54031487793E+01  0.87107670167E+01  0.30193606055E+02  0.59301869389E+02  0.49999863877E+02 0.  0.
        -12    1    1    2    0    0 -0.54031487793E+01 -0.87107670167E+01 -0.30193606055E+02  0.31886130611E+02  0.00000000000E+00 0.  1.
         11    1    3    3    0    0  0.10873975584E+02  0.13186250876E+02  0.59870225729E+01  0.18109803884E+02  0.51100000000E-03 0. -1.
        -11    1    3    3    0    0 -0.98983004487E+01 -0.59728756302E+01 -0.42777481286E+01  0.12326829454E+02  0.51100000000E-03 0.  1.
         12    1    3    3    0    0  0.44274736440E+01  0.14973917706E+01  0.28484331611E+02  0.28865236051E+02  0.00000000000E+00 0. -1.
</event>
<event>
 7    1  0.3528441E-013  0.5930197E+02  0.7816164E-02  0.1266605E+00
        -11   -1    0    0    0    0  0.00000000000E+00  0.00000000000E+00  0.45593999997E+02  0.45594000000E+02  0.51100000000E-03 0.  1.
         11   -1    0    0    0    0 -0.00000000000E+00 -0.00000000000E+00 -0.45593999997E+02  0.45594000000E+02  0.51100000000E-03 0. -1.
    9900012    2    1    2    0    0 -0.23255567119E+01  0.37488416940E+01 -0.31579377927E+02  0.59301966407E+02  0.50000040814E+02 0.  0.
        -12    1    1    2    0    0  0.23255567119E+01 -0.37488416940E+01  0.31579377927E+02  0.31886033593E+02  0.00000000000E+00 0.  1.
         11    1    3    3    0    0  0.55149810495E+01 -0.85160871112E+01 -0.11344108590E+02  0.15219315215E+02  0.51100000000E-03 0. -1.
        -11    1    3    3    0    0  0.11396857717E+02  0.11465483431E+02 -0.21126361034E-01  0.16166203102E+02  0.51100000000E-03 0.  1.
        -12    1    3    3    0    0 -0.19237395479E+02  0.79944537412E+00 -0.20214142976E+02  0.27916448090E+02  0.00000000000E+00 0.  1.
</event>
<event>
 7    1  0.3528441E-013  0.5930193E+02  0.7816164E-02  0.1266605E+00
        -11   -1    0    0    0    0  0.00000000000E+00  0.00000000000E+00  0.45593999997E+02  0.45594000000E+02  0.51100000000E-03 0.  1.
         11   -1    0    0    0    0 -0.00000000000E+00 -0.00000000000E+00 -0.45593999997E+02  0.45594000000E+02  0.51100000000E-03 0. -1.
    9900012    2    1    2    0    0  0.48746170901E+01  0.38677493677E+01 -0.31272994316E+02  0.59301928583E+02  0.49999971832E+02 0.  0.
        -12    1    1    2    0    0 -0.48746170901E+01 -0.38677493677E+01  0.31272994316E+02  0.31886071417E+02  0.00000000000E+00 0.  1.
         11    1    3    3    0    0 -0.79592537857E+01 -0.88141121257E+01 -0.42703572308E+01  0.12620390031E+02  0.51100000000E-03 0. -1.
        -11    1    3    3    0    0  0.17658579378E+01 -0.11418866946E+02 -0.85028453027E+01  0.14345980451E+02  0.51100000000E-03 0.  1.
        -12    1    3    3    0    0  0.11068012938E+02  0.24100728440E+02 -0.18499791782E+02  0.32335558101E+02  0.00000000000E+00 0.  1.
</event>
<event>
 7    1  0.3528441E-013  0.5930193E+02  0.7816164E-02  0.1266605E+00
        -11   -1    0    0    0    0  0.00000000000E+00  0.00000000000E+00  0.45593999997E+02  0.45594000000E+02  0.51100000000E-03 0. -1.
         11   -1    0    0    0    0 -0.00000000000E+00 -0.00000000000E+00 -0.45593999997E+02  0.45594000000E+02  0.51100000000E-03 0.  1.
    9900012    2    1    2    0    0  0.88122832351E+01 -0.25259547591E+01  0.30539891425E+02  0.59301925430E+02  0.49999966082E+02 0.  0.
        -12    1    1    2    0    0 -0.88122832351E+01  0.25259547591E+01 -0.30539891425E+02  0.31886074570E+02  0.00000000000E+00 0.  1.
         11    1    3    3    0    0  0.94982026047E+01 -0.21445876001E+00  0.18857716376E+02  0.21115759813E+02  0.51100000000E-03 0. -1.
        -11    1    3    3    0    0 -0.38796337342E+01  0.10649290310E+02 -0.83754498798E+01  0.14092803233E+02  0.51100000000E-03 0.  1.
         12    1    3    3    0    0  0.31937143646E+01 -0.12960786309E+02  0.20057624928E+02  0.24093362384E+02  0.00000000000E+00 0. -1.
</event>
<event>
 7    1  0.3528441E-013  0.5930194E+02  0.7816164E-02  0.1266605E+00
        -11   -1    0    0    0    0  0.00000000000E+00  0.00000000000E+00  0.45593999997E+02  0.45594000000E+02  0.51100000000E-03 0. -1.
         11   -1    0    0    0    0 -0.00000000000E+00 -0.00000000000E+00 -0.45593999997E+02  0.45594000000E+02  0.51100000000E-03 0.  1.
    9900012    2    1    2    0    0  0.16662085764E+02 -0.22676100977E+02  0.14996343237E+02  0.59301937716E+02  0.49999988488E+02 0.  0.
        -12    1    1    2    0    0 -0.16662085764E+02  0.22676100977E+02 -0.14996343237E+02  0.31886062284E+02  0.00000000000E+00 0.  1.
         11    1    3    3    0    0  0.22376117839E+02 -0.16939951495E+02  0.14538232019E+02  0.31607163692E+02  0.51100000000E-03 0. -1.
        -11    1    3    3    0    0 -0.14897563316E+01  0.16981420721E+01  0.12624042256E+02  0.12824566409E+02  0.51100000000E-03 0.  1.
        -12    1    3    3    0    0 -0.42242757434E+01 -0.74342915548E+01 -0.12165931038E+02  0.14870207615E+02  0.00000000000E+00 0.  1.
</event>
<event>
 7    1  0.3528441E-013  0.5930192E+02  0.7816164E-02  0.1266605E+00
        -11   -1    0    0    0    0  0.00000000000E+00  0.00000000000E+00  0.45593999997E+02  0.45594000000E+02  0.51100000000E-03 0. -1.
         11   -1    0    0    0    0 -0.00000000000E+00 -0.00000000000E+00 -0.45593999997E+02  0.45594000000E+02  0.51100000000E-03 0.  1.
    9900012    2    1    2    0    0 -0.17131886799E+00 -0.30827974974E+02 -0.81442551225E+01  0.59301917100E+02  0.49999950891E+02 0.  0.
        -12    1    1    2    0    0  0.17131886799E+00  0.30827974974E+02  0.81442551225E+01  0.31886082900E+02  0.00000000000E+00 0.  1.
         11    1    3    3    0    0  0.14658054497E+02 -0.99663813901E+01  0.58459140840E+01  0.18664459044E+02  0.51100000000E-03 0. -1.
        -11    1    3    3    0    0  0.63020708738E+01  0.16260073549E+01  0.53731505316E+00  0.65305975947E+01  0.51100000000E-03 0.  1.
         12    1    3    3    0    0 -0.21131444239E+02 -0.22487600939E+02 -0.14527484260E+02  0.34106860462E+02  0.00000000000E+00 0. -1.
</event>
<event>
 7    1  0.3528441E-013  0.5930194E+02  0.7816164E-02  0.1266605E+00
        -11   -1    0    0    0    0  0.00000000000E+00  0.00000000000E+00  0.45593999997E+02  0.45594000000E+02  0.51100000000E-03 0. -1.
         11   -1    0    0    0    0 -0.00000000000E+00 -0.00000000000E+00 -0.45593999997E+02  0.45594000000E+02  0.51100000000E-03 0.  1.
    9900012    2    1    2    0    0 -0.25695265051E+02 -0.14041374660E+02  0.12621971063E+02  0.59301937184E+02  0.49999987519E+02 0.  0.
        -12    1    1    2    0    0  0.25695265051E+02  0.14041374660E+02 -0.12621971063E+02  0.31886062816E+02  0.00000000000E+00 0.  1.
         11    1    3    3    0    0 -0.13654115508E+02  0.10981844505E+02  0.30303667899E+01  0.17782544874E+02  0.51100000000E-03 0. -1.
        -11    1    3    3    0    0 -0.13779382343E+02 -0.95295642421E+00  0.10529746897E+02  0.17368220222E+02  0.51100000000E-03 0.  1.
        -12    1    3    3    0    0  0.17382327999E+01 -0.24070262741E+02 -0.93814262399E+00  0.24151172089E+02  0.00000000000E+00 0.  1.
</event>
<event>
 7    1  0.3528441E-013  0.5930193E+02  0.7816164E-02  0.1266605E+00
        -11   -1    0    0    0    0  0.00000000000E+00  0.00000000000E+00  0.45593999997E+02  0.45594000000E+02  0.51100000000E-03 0.  1.
         11   -1    0    0    0    0 -0.00000000000E+00 -0.00000000000E+00 -0.45593999997E+02  0.45594000000E+02  0.51100000000E-03 0. -1.
    9900012    2    1    2    0    0 -0.72802218507E+01 -0.24411115149E+02 -0.19178567411E+02  0.59301927477E+02  0.49999969816E+02 0.  0.
        -12    1    1    2    0    0  0.72802218507E+01  0.24411115149E+02  0.19178567411E+02  0.31886072523E+02  0.00000000000E+00 0.  1.
         11    1    3    3    0    0 -0.45700366703E+01 -0.35645986276E+01  0.44950074123E+01  0.73346227198E+01  0.51100000000E-03 0. -1.
        -11    1    3    3    0    0 -0.13273341622E+02 -0.47169699186E+01  0.70057145535E+01  0.15732496296E+02  0.51100000000E-03 0.  1.
         12    1    3    3    0    0  0.10563156441E+02 -0.16129546602E+02 -0.30679289377E+02  0.36234808462E+02  0.00000000000E+00 0. -1.
</event>
<event>
 7    1  0.3528441E-013  0.5930195E+02  0.7816164E-02  0.1266605E+00
        -11   -1    0    0    0    0  0.00000000000E+00  0.00000000000E+00  0.45593999997E+02  0.45594000000E+02  0.51100000000E-03 0.  1.
         11   -1    0    0    0    0 -0.00000000000E+00 -0.00000000000E+00 -0.45593999997E+02  0.45594000000E+02  0.51100000000E-03 0. -1.
    9900012    2    1    2    0    0  0.32088567703E+01 -0.31536402523E+02  0.34465369277E+01  0.59301951912E+02  0.50000014380E+02 0.  0.
        -12    1    1    2    0    0 -0.32088567703E+01  0.31536402523E+02 -0.34465369277E+01  0.31886048088E+02  0.00000000000E+00 0.  1.
         11    1    3    3    0    0  0.10886810583E+02 -0.29514171963E+02  0.86493860747E+00  0.31469939790E+02  0.51100000000E-03 0. -1.
        -11    1    3    3    0    0  0.77936665284E+01  0.58110404755E+01 -0.19340838813E+01  0.99121193538E+01  0.51100000000E-03 0.  1.
         12    1    3    3    0    0 -0.15471620341E+02 -0.78332710353E+01  0.45156822015E+01  0.17919892768E+02  0.00000000000E+00 0. -1.
</event>
<event>
 7    1  0.3528441E-013  0.5930194E+02  0.7816164E-02  0.1266605E+00
        -11   -1    0    0    0    0  0.00000000000E+00  0.00000000000E+00  0.45593999997E+02  0.45594000000E+02  0.51100000000E-03 0.  1.
         11   -1    0    0    0    0 -0.00000000000E+00 -0.00000000000E+00 -0.45593999997E+02  0.45594000000E+02  0.51100000000E-03 0. -1.
    9900012    2    1    2    0    0  0.15426792626E+02  0.16431447858E+02 -0.22555318702E+02  0.59301940175E+02  0.49999992973E+02 0.  0.
        -12    1    1    2    0    0 -0.15426792626E+02 -0.16431447858E+02  0.22555318702E+02  0.31886059825E+02  0.00000000000E+00 0.  1.
         11    1    3    3    0    0 -0.85630741483E+01  0.65489933001E+01 -0.15596931176E+02  0.18959952914E+02  0.51100000000E-03 0. -1.
        -11    1    3    3    0    0  0.42649181227E+01  0.16512689444E+02  0.29269231372E+01  0.17303910499E+02  0.51100000000E-03 0.  1.
         12    1    3    3    0    0  0.19724948652E+02 -0.66302348860E+01 -0.98853106633E+01  0.23038076762E+02  0.00000000000E+00 0. -1.
</event>
<event>
 7    1  0.3528441E-013  0.5930194E+02  0.7816164E-02  0.1266605E+00
        -11   -1    0    0    0    0  0.00000000000E+00  0.00000000000E+00  0.45593999997E+02  0.45594000000E+02  0.51100000000E-03 0. -1.
         11   -1    0    0    0    0 -0.00000000000E+00 -0.00000000000E+00 -0.45593999997E+02  0.45594000000E+02  0.51100000000E-03 0.  1.
    9900012    2    1    2    0    0  0.24579095208E+02  0.11106631891E+02  0.17006817396E+02  0.59301936725E+02  0.49999986682E+02 0.  0.
        -12    1    1    2    0    0 -0.24579095208E+02 -0.11106631891E+02 -0.17006817396E+02  0.31886063275E+02  0.00000000000E+00 0.  1.
         11    1    3    3    0    0  0.16942447868E+01 -0.34694363148E+01  0.84637670473E+01  0.93028386330E+01  0.51100000000E-03 0. -1.
        -11    1    3    3    0    0  0.30530944421E+02  0.21651522191E+01 -0.38720371280E+01  0.30851565976E+02  0.51100000000E-03 0.  1.
         12    1    3    3    0    0 -0.76460939995E+01  0.12410915987E+02  0.12415087477E+02  0.19147532116E+02  0.00000000000E+00 0. -1.
</event>
<event>
 7    1  0.3528441E-013  0.5930175E+02  0.7816164E-02  0.1266605E+00
        -11   -1    0    0    0    0  0.00000000000E+00  0.00000000000E+00  0.45593999997E+02  0.45594000000E+02  0.51100000000E-03 0.  1.
         11   -1    0    0    0    0 -0.00000000000E+00 -0.00000000000E+00 -0.45593999997E+02  0.45594000000E+02  0.51100000000E-03 0. -1.
    9900012    2    1    2    0    0 -0.91028346753E+01  0.26581040391E+02 -0.15077116244E+02  0.59301753095E+02  0.49999651784E+02 0.  0.
        -12    1    1    2    0    0  0.91028346753E+01 -0.26581040391E+02  0.15077116244E+02  0.31886246905E+02  0.00000000000E+00 0.  1.
         11    1    3    3    0    0 -0.23594549407E+01  0.18639461525E+02 -0.70315036439E+01  0.20060872297E+02  0.51100000000E-03 0. -1.
        -11    1    3    3    0    0 -0.95746572568E+01  0.19558312129E+02 -0.13995191576E+02  0.25885652830E+02  0.51100000000E-03 0.  1.
        -12    1    3    3    0    0  0.28312775222E+01 -0.11616733262E+02  0.59495789759E+01  0.13355227968E+02  0.00000000000E+00 0.  1.
</event>
<event>
 7    1  0.3528441E-013  0.5930197E+02  0.7816164E-02  0.1266605E+00
        -11   -1    0    0    0    0  0.00000000000E+00  0.00000000000E+00  0.45593999997E+02  0.45594000000E+02  0.51100000000E-03 0.  1.
         11   -1    0    0    0    0 -0.00000000000E+00 -0.00000000000E+00 -0.45593999997E+02  0.45594000000E+02  0.51100000000E-03 0. -1.
    9900012    2    1    2    0    0 -0.51144346863E+01 -0.31471686406E+02  0.30758354830E+00  0.59301967085E+02  0.50000042052E+02 0.  0.
        -12    1    1    2    0    0  0.51144346863E+01  0.31471686406E+02 -0.30758354830E+00  0.31886032915E+02  0.00000000000E+00 0.  1.
         11    1    3    3    0    0 -0.34081639779E+01 -0.22149247670E+02 -0.14479575658E+02  0.26680758339E+02  0.51100000000E-03 0. -1.
        -11    1    3    3    0    0  0.11795609282E+02 -0.10119530083E+02  0.74749749518E+01  0.17245768705E+02  0.51100000000E-03 0.  1.
        -12    1    3    3    0    0 -0.13501879990E+02  0.79709134764E+00  0.73121842543E+01  0.15375440041E+02  0.00000000000E+00 0.  1.
</event>
<event>
 7    1  0.3528441E-013  0.5930195E+02  0.7816164E-02  0.1266605E+00
        -11   -1    0    0    0    0  0.00000000000E+00  0.00000000000E+00  0.45593999997E+02  0.45594000000E+02  0.51100000000E-03 0.  1.
         11   -1    0    0    0    0 -0.00000000000E+00 -0.00000000000E+00 -0.45593999997E+02  0.45594000000E+02  0.51100000000E-03 0. -1.
    9900012    2    1    2    0    0 -0.18093074714E+01  0.25338707566E+02 -0.19271656231E+02  0.59301946175E+02  0.50000003917E+02 0.  0.
        -12    1    1    2    0    0  0.18093074714E+01 -0.25338707566E+02  0.19271656231E+02  0.31886053825E+02  0.00000000000E+00 0.  1.
         11    1    3    3    0    0 -0.35092427701E+01  0.12746406355E+02 -0.13285574856E+02  0.18742789528E+02  0.51100000000E-03 0. -1.
        -11    1    3    3    0    0 -0.17192981954E+02  0.11794038530E+02 -0.44463330073E+00  0.20854152400E+02  0.51100000000E-03 0.  1.
        -12    1    3    3    0    0  0.18892917252E+02  0.79826268016E+00 -0.55414480748E+01  0.19705004247E+02  0.00000000000E+00 0.  1.
</event>
<event>
 7    1  0.3528441E-013  0.5930196E+02  0.7816164E-02  0.1266605E+00
        -11   -1    0    0    0    0  0.00000000000E+00  0.00000000000E+00  0.45593999997E+02  0.45594000000E+02  0.51100000000E-03 0.  1.
         11   -1    0    0    0    0 -0.00000000000E+00 -0.00000000000E+00 -0.45593999997E+02  0.45594000000E+02  0.51100000000E-03 0. -1.
    9900012    2    1    2    0    0 -0.10977749449E+02 -0.20015991816E+02 -0.22261367138E+02  0.59301962645E+02  0.50000033954E+02 0.  0.
        -12    1    1    2    0    0  0.10977749449E+02  0.20015991816E+02  0.22261367138E+02  0.31886037355E+02  0.00000000000E+00 0.  1.
         11    1    3    3    0    0 -0.15236621815E+02 -0.15351635564E+02 -0.31987531257E+02  0.38613851336E+02  0.51100000000E-03 0. -1.
        -11    1    3    3    0    0  0.51534514591E+01 -0.56307281935E+01 -0.27719833845E+01  0.81207791544E+01  0.51100000000E-03 0.  1.
        -12    1    3    3    0    0 -0.89457909318E+00  0.96637194175E+00  0.12498147503E+02  0.12567332155E+02  0.00000000000E+00 0.  1.
</event>
<event>
 7    1  0.3528441E-013  0.5930196E+02  0.7816164E-02  0.1266605E+00
        -11   -1    0    0    0    0  0.00000000000E+00  0.00000000000E+00  0.45593999997E+02  0.45594000000E+02  0.51100000000E-03 0.  1.
         11   -1    0    0    0    0 -0.00000000000E+00 -0.00000000000E+00 -0.45593999997E+02  0.45594000000E+02  0.51100000000E-03 0. -1.
    9900012    2    1    2    0    0 -0.17393480530E+02 -0.21331882270E+02 -0.16097733827E+02  0.59301962295E+02  0.50000033316E+02 0.  0.
        -12    1    1    2    0    0  0.17393480530E+02  0.21331882270E+02  0.16097733827E+02  0.31886037705E+02  0.00000000000E+00 0.  1.
         11    1    3    3    0    0 -0.22780174157E+01 -0.66358455475E+01 -0.28112181550E+01  0.75582244775E+01  0.51100000000E-03 0.  1.
        -11    1    3    3    0    0  0.51610310368E+01 -0.25602565589E+02 -0.11836244504E+02  0.28674453619E+02  0.51100000000E-03 0. -1.
        -12    1    3    3    0    0 -0.20276494151E+02  0.10906528867E+02 -0.14502711674E+01  0.23069284199E+02  0.00000000000E+00 0.  1.
</event>
<event>
 7    1  0.3528441E-013  0.5930194E+02  0.7816164E-02  0.1266605E+00
        -11   -1    0    0    0    0  0.00000000000E+00  0.00000000000E+00  0.45593999997E+02  0.45594000000E+02  0.51100000000E-03 0.  1.
         11   -1    0    0    0    0 -0.00000000000E+00 -0.00000000000E+00 -0.45593999997E+02  0.45594000000E+02  0.51100000000E-03 0. -1.
    9900012    2    1    2    0    0 -0.20847281971E+01 -0.61581772822E+00 -0.31811874502E+02  0.59301942193E+02  0.49999996655E+02 0.  0.
        -12    1    1    2    0    0  0.20847281971E+01  0.61581772822E+00  0.31811874502E+02  0.31886057807E+02  0.00000000000E+00 0.  1.
         11    1    3    3    0    0 -0.88376476971E+01  0.13714639662E+02 -0.31749783195E+01  0.16621547625E+02  0.51100000000E-03 0. -1.
        -11    1    3    3    0    0 -0.27483308818E+01 -0.25103550982E+01  0.47357977722E+01  0.60235360176E+01  0.51100000000E-03 0.  1.
        -12    1    3    3    0    0  0.95012503818E+01 -0.11820102292E+02 -0.33372693954E+02  0.36656858550E+02  0.00000000000E+00 0.  1.
</event>
<event>
 7    1  0.3528441E-013  0.5930194E+02  0.7816164E-02  0.1266605E+00
        -11   -1    0    0    0    0  0.00000000000E+00  0.00000000000E+00  0.45593999997E+02  0.45594000000E+02  0.51100000000E-03 0. -1.
         11   -1    0    0    0    0 -0.00000000000E+00 -0.00000000000E+00 -0.45593999997E+02  0.45594000000E+02  0.51100000000E-03 0.  1.
    9900012    2    1    2    0    0  0.10990035101E+02 -0.18400589072E+02  0.23608436620E+02  0.59301939890E+02  0.49999992453E+02 0.  0.
        -12    1    1    2    0    0 -0.10990035101E+02  0.18400589072E+02 -0.23608436620E+02  0.31886060110E+02  0.00000000000E+00 0.  1.
         11    1    3    3    0    0 -0.87813973175E+01 -0.36592417979E+01  0.83594107658E+01  0.12664230652E+02  0.51100000000E-03 0. -1.
        -11    1    3    3    0    0 -0.25753811287E+01 -0.14949838049E+02 -0.55062628725E+01  0.16138437866E+02  0.51100000000E-03 0.  1.
        -12    1    3    3    0    0  0.22346813547E+02  0.20849077576E+00  0.20755288727E+02  0.30499271373E+02  0.00000000000E+00 0.  1.
</event>
<event>
 7    1  0.3528441E-013  0.5930193E+02  0.7816164E-02  0.1266605E+00
        -11   -1    0    0    0    0  0.00000000000E+00  0.00000000000E+00  0.45593999997E+02  0.45594000000E+02  0.51100000000E-03 0.  1.
         11   -1    0    0    0    0 -0.00000000000E+00 -0.00000000000E+00 -0.45593999997E+02  0.45594000000E+02  0.51100000000E-03 0. -1.
    9900012    2    1    2    0    0  0.20232140987E+02 -0.21054230649E+02 -0.12810201868E+02  0.59301930486E+02  0.49999975304E+02 0.  0.
        -12    1    1    2    0    0 -0.20232140987E+02  0.21054230649E+02  0.12810201868E+02  0.31886069514E+02  0.00000000000E+00 0.  1.
         11    1    3    3    0    0 -0.10698206701E+01  0.66493288471E+01  0.84788998120E+00  0.67880047189E+01  0.51100000000E-03 0. -1.
        -11    1    3    3    0    0  0.99446997229E+01 -0.10472208694E+01  0.10711254048E+02  0.14653487219E+02  0.51100000000E-03 0.  1.
         12    1    3    3    0    0  0.11357261934E+02 -0.26656338626E+02 -0.24369345898E+02  0.37860438548E+02  0.00000000000E+00 0. -1.
</event>
<event>
 7    1  0.3528441E-013  0.5930214E+02  0.7816164E-02  0.1266604E+00
        -11   -1    0    0    0    0  0.00000000000E+00  0.00000000000E+00  0.45593999997E+02  0.45594000000E+02  0.51100000000E-03 0.  1.
         11   -1    0    0    0    0 -0.00000000000E+00 -0.00000000000E+00 -0.45593999997E+02  0.45594000000E+02  0.51100000000E-03 0. -1.
    9900012    2    1    2    0    0  0.85631199984E+01 -0.30318070595E+02 -0.49189002452E+01  0.59302140935E+02  0.50000359110E+02 0.  0.
        -12    1    1    2    0    0 -0.85631199984E+01  0.30318070595E+02  0.49189002452E+01  0.31885859065E+02  0.00000000000E+00 0.  1.
         11    1    3    3    0    0  0.67868644060E+01 -0.16700341096E+02  0.78154527652E+01  0.19648008127E+02  0.51100000000E-03 0. -1.
        -11    1    3    3    0    0  0.14374531761E+02  0.19564552959E+01  0.21934066707E+01  0.14671943081E+02  0.51100000000E-03 0.  1.
         12    1    3    3    0    0 -0.12598276169E+02 -0.15574184795E+02 -0.14927759681E+02  0.24982189727E+02  0.00000000000E+00 0. -1.
</event>
<event>
 7    1  0.3528441E-013  0.5930194E+02  0.7816164E-02  0.1266605E+00
        -11   -1    0    0    0    0  0.00000000000E+00  0.00000000000E+00  0.45593999997E+02  0.45594000000E+02  0.51100000000E-03 0. -1.
         11   -1    0    0    0    0 -0.00000000000E+00 -0.00000000000E+00 -0.45593999997E+02  0.45594000000E+02  0.51100000000E-03 0.  1.
    9900012    2    1    2    0    0 -0.17281335874E+01  0.63884647819E+01  0.31191691916E+02  0.59301943917E+02  0.49999999797E+02 0.  0.
        -12    1    1    2    0    0  0.17281335874E+01 -0.63884647819E+01 -0.31191691916E+02  0.31886056083E+02  0.00000000000E+00 0.  1.
         11    1    3    3    0    0  0.11031395891E+02  0.27110058251E+01  0.56611782821E+01  0.12692130935E+02  0.51100000000E-03 0. -1.
        -11    1    3    3    0    0  0.28116440656E-01  0.86423808534E+01 -0.71181457905E+01  0.11196407330E+02  0.51100000000E-03 0.  1.
         12    1    3    3    0    0 -0.12787645919E+02 -0.49649218966E+01  0.32648659424E+02  0.35413405651E+02  0.00000000000E+00 0. -1.
</event>
<event>
 7    1  0.3528441E-013  0.5930196E+02  0.7816164E-02  0.1266605E+00
        -11   -1    0    0    0    0  0.00000000000E+00  0.00000000000E+00  0.45593999997E+02  0.45594000000E+02  0.51100000000E-03 0.  1.
         11   -1    0    0    0    0 -0.00000000000E+00 -0.00000000000E+00 -0.45593999997E+02  0.45594000000E+02  0.51100000000E-03 0. -1.
    9900012    2    1    2    0    0  0.26580113393E+02 -0.10916618474E+02 -0.13821888909E+02  0.59301959169E+02  0.50000027614E+02 0.  0.
        -12    1    1    2    0    0 -0.26580113393E+02  0.10916618474E+02  0.13821888909E+02  0.31886040831E+02  0.00000000000E+00 0.  1.
         11    1    3    3    0    0  0.26391300849E+02 -0.50901057493E+01 -0.51212150009E+01  0.27361227685E+02  0.51100000000E-03 0. -1.
        -11    1    3    3    0    0  0.95425949189E+00  0.19506936811E+01 -0.18937684171E+02  0.19061786355E+02  0.51100000000E-03 0.  1.
        -12    1    3    3    0    0 -0.76544694836E+00 -0.77772064055E+01  0.10237010264E+02  0.12878945129E+02  0.00000000000E+00 0.  1.
</event>
<event>
 7    1  0.3528441E-013  0.5930195E+02  0.7816164E-02  0.1266605E+00
        -11   -1    0    0    0    0  0.00000000000E+00  0.00000000000E+00  0.45593999997E+02  0.45594000000E+02  0.51100000000E-03 0.  1.
         11   -1    0    0    0    0 -0.00000000000E+00 -0.00000000000E+00 -0.45593999997E+02  0.45594000000E+02  0.51100000000E-03 0. -1.
    9900012    2    1    2    0    0 -0.21254132636E+02  0.23361872652E+02  0.43823289213E+01  0.59301952037E+02  0.50000014607E+02 0.  0.
        -12    1    1    2    0    0  0.21254132636E+02 -0.23361872652E+02 -0.43823289213E+01  0.31886047963E+02  0.00000000000E+00 0.  1.
         11    1    3    3    0    0 -0.12807521882E+02  0.81009440688E+00  0.14081814123E+02  0.19052200895E+02  0.51100000000E-03 0. -1.
        -11    1    3    3    0    0 -0.12549077579E+02 -0.13402031494E+01  0.28707617231E+01  0.12942826805E+02  0.51100000000E-03 0.  1.
         12    1    3    3    0    0  0.41024668248E+01  0.23891981394E+02 -0.12570246924E+02  0.27306924337E+02  0.00000000000E+00 0. -1.
</event>
<event>
 7    1  0.3528441E-013  0.5930192E+02  0.7816164E-02  0.1266605E+00
        -11   -1    0    0    0    0  0.00000000000E+00  0.00000000000E+00  0.45593999997E+02  0.45594000000E+02  0.51100000000E-03 0. -1.
         11   -1    0    0    0    0 -0.00000000000E+00 -0.00000000000E+00 -0.45593999997E+02  0.45594000000E+02  0.51100000000E-03 0.  1.
    9900012    2    1    2    0    0 -0.15758541465E+02 -0.82616839658E+01  0.26460061986E+02  0.59301922609E+02  0.49999960938E+02 0.  0.
        -12    1    1    2    0    0  0.15758541465E+02  0.82616839658E+01 -0.26460061986E+02  0.31886077391E+02  0.00000000000E+00 0.  1.
         11    1    3    3    0    0  0.66012832574E+01 -0.58075368696E+01  0.12418772785E+02  0.15216121151E+02  0.51100000000E-03 0. -1.
        -11    1    3    3    0    0  0.87587354845E+01 -0.57790860666E+01  0.36425991637E+01  0.11107736582E+02  0.51100000000E-03 0.  1.
         12    1    3    3    0    0 -0.31118560207E+02  0.33249389705E+01  0.10398690038E+02  0.32978064876E+02  0.00000000000E+00 0. -1.
</event>
<event>
 7    1  0.3528441E-013  0.5930195E+02  0.7816164E-02  0.1266605E+00
        -11   -1    0    0    0    0  0.00000000000E+00  0.00000000000E+00  0.45593999997E+02  0.45594000000E+02  0.51100000000E-03 0.  1.
         11   -1    0    0    0    0 -0.00000000000E+00 -0.00000000000E+00 -0.45593999997E+02  0.45594000000E+02  0.51100000000E-03 0. -1.
    9900012    2    1    2    0    0 -0.21888618272E+02  0.73734096685E+01 -0.21982756802E+02  0.59301946989E+02  0.50000005401E+02 0.  0.
        -12    1    1    2    0    0  0.21888618272E+02 -0.73734096685E+01  0.21982756802E+02  0.31886053011E+02  0.00000000000E+00 0.  1.
         11    1    3    3    0    0 -0.95389340108E+01 -0.17826375890E+02 -0.18289696741E+02  0.27263234338E+02  0.51100000000E-03 0. -1.
        -11    1    3    3    0    0 -0.41795043743E+01  0.48172792188E+01  0.53167902314E+01  0.83031737615E+01  0.51100000000E-03 0.  1.
        -12    1    3    3    0    0 -0.81701798871E+01  0.20382506340E+02 -0.90098502921E+01  0.23735538890E+02  0.00000000000E+00 0.  1.
</event>
<event>
 7    1  0.3528441E-013  0.5930186E+02  0.7816164E-02  0.1266605E+00
        -11   -1    0    0    0    0  0.00000000000E+00  0.00000000000E+00  0.45593999997E+02  0.45594000000E+02  0.51100000000E-03 0.  1.
         11   -1    0    0    0    0 -0.00000000000E+00 -0.00000000000E+00 -0.45593999997E+02  0.45594000000E+02  0.51100000000E-03 0. -1.
    9900012    2    1    2    0    0 -0.57375356759E+01 -0.44715386387E+01 -0.31045322036E+02  0.59301858908E+02  0.49999844762E+02 0.  0.
        -12    1    1    2    0    0  0.57375356759E+01  0.44715386387E+01  0.31045322036E+02  0.31886141092E+02  0.00000000000E+00 0.  1.
         11    1    3    3    0    0 -0.20032993923E+02 -0.95922369934E+01 -0.16174756989E+02  0.27476437542E+02  0.51100000000E-03 0. -1.
        -11    1    3    3    0    0  0.29856518456E+01 -0.83088253637E+01 -0.10525808036E+02  0.13738388950E+02  0.51100000000E-03 0.  1.
         12    1    3    3    0    0  0.11309806402E+02  0.13429523718E+02 -0.43447570105E+01  0.18087032416E+02  0.00000000000E+00 0. -1.
</event>
<event>
 7    1  0.3528441E-013  0.5930172E+02  0.7816164E-02  0.1266606E+00
        -11   -1    0    0    0    0  0.00000000000E+00  0.00000000000E+00  0.45593999997E+02  0.45594000000E+02  0.51100000000E-03 0.  1.
         11   -1    0    0    0    0 -0.00000000000E+00 -0.00000000000E+00 -0.45593999997E+02  0.45594000000E+02  0.51100000000E-03 0. -1.
    9900012    2    1    2    0    0 -0.49386763167E+01  0.20560614069E+02 -0.23866403809E+02  0.59301723870E+02  0.49999598484E+02 0.  0.
        -12    1    1    2    0    0  0.49386763167E+01 -0.20560614069E+02  0.23866403809E+02  0.31886276130E+02  0.00000000000E+00 0.  1.
         11    1    3    3    0    0 -0.45261340825E+01  0.28204074911E+01  0.56085835352E+01  0.77393021443E+01  0.51100000000E-03 0.  1.
        -11    1    3    3    0    0  0.57346111122E+01  0.28240458942E+02 -0.26237018359E+02  0.38971661736E+02  0.51100000000E-03 0. -1.
         12    1    3    3    0    0 -0.61471533464E+01 -0.10500252364E+02 -0.32379689852E+01  0.12590759990E+02  0.00000000000E+00 0. -1.
</event>
<event>
 7    1  0.3528441E-013  0.5930195E+02  0.7816164E-02  0.1266605E+00
        -11   -1    0    0    0    0  0.00000000000E+00  0.00000000000E+00  0.45593999997E+02  0.45594000000E+02  0.51100000000E-03 0. -1.
         11   -1    0    0    0    0 -0.00000000000E+00 -0.00000000000E+00 -0.45593999997E+02  0.45594000000E+02  0.51100000000E-03 0.  1.
    9900012    2    1    2    0    0 -0.30663629356E+02 -0.18906945669E+01  0.85374027542E+01  0.59301950746E+02  0.50000012253E+02 0.  0.
        -12    1    1    2    0    0  0.30663629356E+02  0.18906945669E+01 -0.85374027542E+01  0.31886049254E+02  0.00000000000E+00 0.  1.
         11    1    3    3    0    0 -0.33068041163E+02 -0.25258759269E+01  0.53546421586E+01  0.33593862363E+02  0.51100000000E-03 0. -1.
        -11    1    3    3    0    0 -0.11450937761E+02  0.11419716726E+01  0.11587555535E+00  0.11508323176E+02  0.51100000000E-03 0.  1.
        -12    1    3    3    0    0  0.13855349568E+02 -0.50679031256E+00  0.30668850403E+01  0.14199765207E+02  0.00000000000E+00 0.  1.
</event>
<event>
 7    1  0.3528441E-013  0.5930195E+02  0.7816164E-02  0.1266605E+00
        -11   -1    0    0    0    0  0.00000000000E+00  0.00000000000E+00  0.45593999997E+02  0.45594000000E+02  0.51100000000E-03 0.  1.
         11   -1    0    0    0    0 -0.00000000000E+00 -0.00000000000E+00 -0.45593999997E+02  0.45594000000E+02  0.51100000000E-03 0. -1.
    9900012    2    1    2    0    0  0.26914444965E+01 -0.29396773293E+02 -0.12054298949E+02  0.59301948557E+02  0.50000008259E+02 0.  0.
        -12    1    1    2    0    0 -0.26914444965E+01  0.29396773293E+02  0.12054298949E+02  0.31886051443E+02  0.00000000000E+00 0.  1.
         11    1    3    3    0    0  0.84331276862E+01 -0.10989195079E+02 -0.53323630631E+01  0.14842983095E+02  0.51100000000E-03 0. -1.
        -11    1    3    3    0    0 -0.38623095127E+01 -0.24312995771E+02  0.10041218967E+02  0.26586938085E+02  0.51100000000E-03 0.  1.
         12    1    3    3    0    0 -0.18793736771E+01  0.59054175571E+01 -0.16763154853E+02  0.17872027377E+02  0.00000000000E+00 0. -1.
</event>
<event>
 7    1  0.3528441E-013  0.5930191E+02  0.7816164E-02  0.1266605E+00
        -11   -1    0    0    0    0  0.00000000000E+00  0.00000000000E+00  0.45593999997E+02  0.45594000000E+02  0.51100000000E-03 0.  1.
         11   -1    0    0    0    0 -0.00000000000E+00 -0.00000000000E+00 -0.45593999997E+02  0.45594000000E+02  0.51100000000E-03 0. -1.
    9900012    2    1    2    0    0 -0.30628216151E+01 -0.98992351566E+00 -0.31723211093E+02  0.59301906685E+02  0.49999931896E+02 0.  0.
        -12    1    1    2    0    0  0.30628216151E+01  0.98992351566E+00  0.31723211093E+02  0.31886093315E+02  0.00000000000E+00 0.  1.
         11    1    3    3    0    0  0.44791719158E+01  0.17095699841E+02 -0.14956055773E+02  0.23151879808E+02  0.51100000000E-03 0. -1.
        -11    1    3    3    0    0 -0.13316858940E+02 -0.19992826925E+01 -0.21018749309E+01  0.13629150443E+02  0.51100000000E-03 0.  1.
         12    1    3    3    0    0  0.57748654096E+01 -0.16086340664E+02 -0.14665280389E+02  0.22520876434E+02  0.00000000000E+00 0. -1.
</event>
<event>
 7    1  0.3528441E-013  0.5930194E+02  0.7816164E-02  0.1266605E+00
        -11   -1    0    0    0    0  0.00000000000E+00  0.00000000000E+00  0.45593999997E+02  0.45594000000E+02  0.51100000000E-03 0. -1.
         11   -1    0    0    0    0 -0.00000000000E+00 -0.00000000000E+00 -0.45593999997E+02  0.45594000000E+02  0.51100000000E-03 0.  1.
    9900012    2    1    2    0    0 -0.92141996138E+01  0.26531596252E+02  0.15096146482E+02  0.59301941717E+02  0.49999995786E+02 0.  0.
        -12    1    1    2    0    0  0.92141996138E+01 -0.26531596252E+02 -0.15096146482E+02  0.31886058283E+02  0.00000000000E+00 0.  1.
         11    1    3    3    0    0 -0.13370416085E+02 -0.53393211593E+01  0.26996921287E+01  0.14648027668E+02  0.51100000000E-03 0. -1.
        -11    1    3    3    0    0  0.30334247213E+01 -0.18643110982E+01  0.10228460052E+02  0.10830453209E+02  0.51100000000E-03 0.  1.
         12    1    3    3    0    0  0.11227917497E+01  0.33735228510E+02  0.21679943014E+01  0.33823460840E+02  0.00000000000E+00 0. -1.
</event>
<event>
 7    1  0.3528441E-013  0.5930195E+02  0.7816164E-02  0.1266605E+00
        -11   -1    0    0    0    0  0.00000000000E+00  0.00000000000E+00  0.45593999997E+02  0.45594000000E+02  0.51100000000E-03 0.  1.
         11   -1    0    0    0    0 -0.00000000000E+00 -0.00000000000E+00 -0.45593999997E+02  0.45594000000E+02  0.51100000000E-03 0. -1.
    9900012    2    1    2    0    0 -0.19657497530E+02  0.18073522005E+02 -0.17425574905E+02  0.59301951835E+02  0.50000014239E+02 0.  0.
        -12    1    1    2    0    0  0.19657497530E+02 -0.18073522005E+02  0.17425574905E+02  0.31886048165E+02  0.00000000000E+00 0.  1.
         11    1    3    3    0    0 -0.19425925823E+01 -0.11781964419E+02 -0.15392246311E+01  0.12039832401E+02  0.51100000000E-03 0.  1.
        -11    1    3    3    0    0 -0.54233853611E+01 -0.43492746883E+01 -0.69570432349E+01  0.98351283632E+01  0.51100000000E-03 0. -1.
        -12    1    3    3    0    0 -0.12291519587E+02  0.34204761112E+02 -0.89293070392E+01  0.37426991071E+02  0.00000000000E+00 0.  1.
</event>
<event>
 7    1  0.3528441E-013  0.5930162E+02  0.7816164E-02  0.1266606E+00
        -11   -1    0    0    0    0  0.00000000000E+00  0.00000000000E+00  0.45593999997E+02  0.45594000000E+02  0.51100000000E-03 0.  1.
         11   -1    0    0    0    0 -0.00000000000E+00 -0.00000000000E+00 -0.45593999997E+02  0.45594000000E+02  0.51100000000E-03 0. -1.
    9900012    2    1    2    0    0  0.27163125038E+02  0.12460988313E+02  0.11118889145E+02  0.59301619092E+02  0.49999407393E+02 0.  0.
        -12    1    1    2    0    0 -0.27163125038E+02 -0.12460988313E+02 -0.11118889145E+02  0.31886380908E+02  0.00000000000E+00 0.  1.
         11    1    3    3    0    0  0.10856105885E+02  0.17537521038E+02  0.11827131315E+02  0.23776053384E+02  0.51100000000E-03 0. -1.
        -11    1    3    3    0    0  0.77007972169E+00  0.96800478198E+01  0.78150289885E+01  0.12464791491E+02  0.51100000000E-03 0.  1.
         12    1    3    3    0    0  0.15536939431E+02 -0.14756580544E+02 -0.85232711586E+01  0.23060774217E+02  0.00000000000E+00 0. -1.
</event>
<event>
 7    1  0.3528441E-013  0.5930194E+02  0.7816164E-02  0.1266605E+00
        -11   -1    0    0    0    0  0.00000000000E+00  0.00000000000E+00  0.45593999997E+02  0.45594000000E+02  0.51100000000E-03 0.  1.
         11   -1    0    0    0    0 -0.00000000000E+00 -0.00000000000E+00 -0.45593999997E+02  0.45594000000E+02  0.51100000000E-03 0. -1.
    9900012    2    1    2    0    0  0.88455043392E+01  0.50234722413E+01 -0.30219907515E+02  0.59301936734E+02  0.49999986698E+02 0.  0.
        -12    1    1    2    0    0 -0.88455043392E+01 -0.50234722413E+01  0.30219907515E+02  0.31886063266E+02  0.00000000000E+00 0.  1.
         11    1    3    3    0    0 -0.66649993403E+01  0.80571885714E+01 -0.30270257782E+02  0.32025443171E+02  0.51100000000E-03 0. -1.
        -11    1    3    3    0    0 -0.17467949788E+00 -0.15031495187E+01 -0.89842635199E+01  0.91108156967E+01  0.51100000000E-03 0.  1.
        -12    1    3    3    0    0  0.15685183177E+02 -0.15305668113E+01  0.90346137863E+01  0.18165677866E+02  0.00000000000E+00 0.  1.
</event>
<event>
 7    1  0.3528441E-013  0.5930197E+02  0.7816164E-02  0.1266605E+00
        -11   -1    0    0    0    0  0.00000000000E+00  0.00000000000E+00  0.45593999997E+02  0.45594000000E+02  0.51100000000E-03 0.  1.
         11   -1    0    0    0    0 -0.00000000000E+00 -0.00000000000E+00 -0.45593999997E+02  0.45594000000E+02  0.51100000000E-03 0. -1.
    9900012    2    1    2    0    0  0.19439406230E+02 -0.24465540403E+02 -0.63455039630E+01  0.59301974812E+02  0.50000056142E+02 0.  0.
        -12    1    1    2    0    0 -0.19439406230E+02  0.24465540403E+02  0.63455039630E+01  0.31886025188E+02  0.00000000000E+00 0.  1.
         11    1    3    3    0    0 -0.54644185058E+00 -0.22581461975E+00 -0.16890945531E+02  0.16901290842E+02  0.51100000000E-03 0. -1.
        -11    1    3    3    0    0 -0.17814577119E+01 -0.52972078261E+01 -0.67465577909E+01  0.87607102805E+01  0.51100000000E-03 0.  1.
        -12    1    3    3    0    0  0.21767305792E+02 -0.18942517957E+02  0.17291999359E+02  0.33639973689E+02  0.00000000000E+00 0.  1.
</event>
<event>
 7    1  0.3528441E-013  0.5930195E+02  0.7816164E-02  0.1266605E+00
        -11   -1    0    0    0    0  0.00000000000E+00  0.00000000000E+00  0.45593999997E+02  0.45594000000E+02  0.51100000000E-03 0. -1.
         11   -1    0    0    0    0 -0.00000000000E+00 -0.00000000000E+00 -0.45593999997E+02  0.45594000000E+02  0.51100000000E-03 0.  1.
    9900012    2    1    2    0    0  0.21882029317E+02  0.12413586555E+02  0.19590813556E+02  0.59301947972E+02  0.50000007193E+02 0.  0.
        -12    1    1    2    0    0 -0.21882029317E+02 -0.12413586555E+02 -0.19590813556E+02  0.31886052028E+02  0.00000000000E+00 0.  1.
         11    1    3    3    0    0 -0.51167343012E+01  0.70309675709E+01 -0.45895480815E+01  0.98325696919E+01  0.51100000000E-03 0. -1.
        -11    1    3    3    0    0 -0.77844612660E+01  0.13917402779E+01  0.25216103528E+01  0.83001986262E+01  0.51100000000E-03 0.  1.
         12    1    3    3    0    0  0.34783224884E+02  0.39908787059E+01  0.21658751285E+02  0.41169179654E+02  0.00000000000E+00 0. -1.
</event>
<event>
 7    1  0.3528441E-013  0.5930193E+02  0.7816164E-02  0.1266605E+00
        -11   -1    0    0    0    0  0.00000000000E+00  0.00000000000E+00  0.45593999997E+02  0.45594000000E+02  0.51100000000E-03 0. -1.
         11   -1    0    0    0    0 -0.00000000000E+00 -0.00000000000E+00 -0.45593999997E+02  0.45594000000E+02  0.51100000000E-03 0.  1.
    9900012    2    1    2    0    0 -0.81122059485E+01 -0.30746251238E+02  0.23625152617E+01  0.59301932056E+02  0.49999978167E+02 0.  0.
        -12    1    1    2    0    0  0.81122059485E+01  0.30746251238E+02 -0.23625152617E+01  0.31886067944E+02  0.00000000000E+00 0.  1.
         11    1    3    3    0    0 -0.95296829452E+01 -0.14969938197E+02 -0.10505796323E+02  0.20622455316E+02  0.51100000000E-03 0. -1.
        -11    1    3    3    0    0 -0.14088134534E+02 -0.34261956719E+01  0.12028460622E+02  0.18838742438E+02  0.51100000000E-03 0.  1.
        -12    1    3    3    0    0  0.15505611531E+02 -0.12350117370E+02  0.83985096210E+00  0.19840734302E+02  0.00000000000E+00 0.  1.
</event>
<event>
 7    1  0.3528441E-013  0.5930197E+02  0.7816164E-02  0.1266605E+00
        -11   -1    0    0    0    0  0.00000000000E+00  0.00000000000E+00  0.45593999997E+02  0.45594000000E+02  0.51100000000E-03 0.  1.
         11   -1    0    0    0    0 -0.00000000000E+00 -0.00000000000E+00 -0.45593999997E+02  0.45594000000E+02  0.51100000000E-03 0. -1.
    9900012    2    1    2    0    0 -0.68215880144E+01  0.12073113974E+02 -0.28712796065E+02  0.59301971681E+02  0.50000050433E+02 0.  0.
        -12    1    1    2    0    0  0.68215880144E+01 -0.12073113974E+02  0.28712796065E+02  0.31886028319E+02  0.00000000000E+00 0.  1.
         11    1    3    3    0    0 -0.78779343045E+01  0.73706055934E+00 -0.21137636780E+02  0.22569997698E+02  0.51100000000E-03 0. -1.
        -11    1    3    3    0    0  0.11035737118E+01  0.16441233661E+02 -0.18438512243E+02  0.24728743866E+02  0.51100000000E-03 0.  1.
        -12    1    3    3    0    0 -0.47227421742E-01 -0.51051802458E+01  0.10863352957E+02  0.12003230117E+02  0.00000000000E+00 0.  1.
</event>
<event>
 7    1  0.3528441E-013  0.5930193E+02  0.7816164E-02  0.1266605E+00
        -11   -1    0    0    0    0  0.00000000000E+00  0.00000000000E+00  0.45593999997E+02  0.45594000000E+02  0.51100000000E-03 0.  1.
         11   -1    0    0    0    0 -0.00000000000E+00 -0.00000000000E+00 -0.45593999997E+02  0.45594000000E+02  0.51100000000E-03 0. -1.
    9900012    2    1    2    0    0  0.10794530684E+01  0.22312290553E+02 -0.22753408887E+02  0.59301934946E+02  0.49999983436E+02 0.  0.
        -12    1    1    2    0    0 -0.10794530684E+01 -0.22312290553E+02  0.22753408887E+02  0.31886065054E+02  0.00000000000E+00 0.  1.
         11    1    3    3    0    0  0.53680039248E+01  0.30095079004E+02 -0.23049619606E+02  0.38285953176E+02  0.51100000000E-03 0. -1.
        -11    1    3    3    0    0 -0.10744608049E+02 -0.29113562673E+01 -0.40359122130E+01  0.11841080403E+02  0.51100000000E-03 0.  1.
        -12    1    3    3    0    0  0.64560571930E+01 -0.48714321831E+01  0.43321229316E+01  0.91749013667E+01  0.00000000000E+00 0.  1.
</event>
<event>
 7    1  0.3528441E-013  0.5930194E+02  0.7816164E-02  0.1266605E+00
        -11   -1    0    0    0    0  0.00000000000E+00  0.00000000000E+00  0.45593999997E+02  0.45594000000E+02  0.51100000000E-03 0. -1.
         11   -1    0    0    0    0 -0.00000000000E+00 -0.00000000000E+00 -0.45593999997E+02  0.45594000000E+02  0.51100000000E-03 0.  1.
    9900012    2    1    2    0    0 -0.30286940642E+01 -0.14732144573E+02  0.28116040377E+02  0.59301940383E+02  0.49999993352E+02 0.  0.
        -12    1    1    2    0    0  0.30286940642E+01  0.14732144573E+02 -0.28116040377E+02  0.31886059617E+02  0.00000000000E+00 0.  1.
         11    1    3    3    0    0  0.44909813577E+01 -0.36292109205E+00 -0.87242381039E+01  0.98190099312E+01  0.51100000000E-03 0.  1.
        -11    1    3    3    0    0 -0.62063790400E+01  0.76733124275E+01  0.17677415692E+02  0.20245737581E+02  0.51100000000E-03 0. -1.
        -12    1    3    3    0    0 -0.13132963818E+01 -0.22042535909E+02  0.19162862789E+02  0.29237192871E+02  0.00000000000E+00 0.  1.
</event>
<event>
 7    1  0.3528441E-013  0.5930195E+02  0.7816164E-02  0.1266605E+00
        -11   -1    0    0    0    0  0.00000000000E+00  0.00000000000E+00  0.45593999997E+02  0.45594000000E+02  0.51100000000E-03 0.  1.
         11   -1    0    0    0    0 -0.00000000000E+00 -0.00000000000E+00 -0.45593999997E+02  0.45594000000E+02  0.51100000000E-03 0. -1.
    9900012    2    1    2    0    0  0.28395694851E+02  0.14396910872E+02 -0.17701297745E+01  0.59301954648E+02  0.50000019369E+02 0.  0.
        -12    1    1    2    0    0 -0.28395694851E+02 -0.14396910872E+02  0.17701297745E+01  0.31886045352E+02  0.00000000000E+00 0.  1.
         11    1    3    3    0    0  0.16995197128E+02  0.16815173449E+02  0.14891102149E+02  0.28166144696E+02  0.51100000000E-03 0. -1.
        -11    1    3    3    0    0  0.26883443790E+01  0.19962074971E+01  0.57696295085E+01  0.66708818606E+01  0.51100000000E-03 0.  1.
        -12    1    3    3    0    0  0.87121533439E+01 -0.44144700744E+01 -0.22430861432E+02  0.24464928091E+02  0.00000000000E+00 0.  1.
</event>
<event>
 7    1  0.3528441E-013  0.5930193E+02  0.7816164E-02  0.1266605E+00
        -11   -1    0    0    0    0  0.00000000000E+00  0.00000000000E+00  0.45593999997E+02  0.45594000000E+02  0.51100000000E-03 0.  1.
         11   -1    0    0    0    0 -0.00000000000E+00 -0.00000000000E+00 -0.45593999997E+02  0.45594000000E+02  0.51100000000E-03 0. -1.
    9900012    2    1    2    0    0 -0.22025941364E+02 -0.22485732371E+02 -0.50962098014E+01  0.59301927687E+02  0.49999970198E+02 0.  0.
        -12    1    1    2    0    0  0.22025941364E+02  0.22485732371E+02  0.50962098014E+01  0.31886072313E+02  0.00000000000E+00 0.  1.
         11    1    3    3    0    0 -0.15415646425E+02 -0.27539205609E+02 -0.52424392787E+01  0.31992704952E+02  0.51100000000E-03 0. -1.
        -11    1    3    3    0    0 -0.13159841268E+02 -0.11960254583E+01  0.78950472142E+01  0.15392974692E+02  0.51100000000E-03 0.  1.
         12    1    3    3    0    0  0.65495463296E+01  0.62494986965E+01 -0.77488177369E+01  0.11916248042E+02  0.00000000000E+00 0. -1.
</event>
<event>
 7    1  0.3528441E-013  0.5930197E+02  0.7816164E-02  0.1266605E+00
        -11   -1    0    0    0    0  0.00000000000E+00  0.00000000000E+00  0.45593999997E+02  0.45594000000E+02  0.51100000000E-03 0. -1.
         11   -1    0    0    0    0 -0.00000000000E+00 -0.00000000000E+00 -0.45593999997E+02  0.45594000000E+02  0.51100000000E-03 0.  1.
    9900012    2    1    2    0    0  0.10884477308E+02  0.27208933989E+02  0.12566650642E+02  0.59301974167E+02  0.50000054966E+02 0.  0.
        -12    1    1    2    0    0 -0.10884477308E+02 -0.27208933989E+02 -0.12566650642E+02  0.31886025833E+02  0.00000000000E+00 0.  1.
         11    1    3    3    0    0 -0.80198809929E+01  0.32039490854E+01  0.11044146662E+02  0.14019877197E+02  0.51100000000E-03 0. -1.
        -11    1    3    3    0    0  0.82098069556E+01  0.21994236324E+02  0.15076198018E+02  0.27900521655E+02  0.51100000000E-03 0.  1.
        -12    1    3    3    0    0  0.10694551346E+02  0.20107485802E+01 -0.13553694037E+02  0.17381575314E+02  0.00000000000E+00 0.  1.
</event>
<event>
 7    1  0.3528441E-013  0.5930194E+02  0.7816164E-02  0.1266605E+00
        -11   -1    0    0    0    0  0.00000000000E+00  0.00000000000E+00  0.45593999997E+02  0.45594000000E+02  0.51100000000E-03 0.  1.
         11   -1    0    0    0    0 -0.00000000000E+00 -0.00000000000E+00 -0.45593999997E+02  0.45594000000E+02  0.51100000000E-03 0. -1.
    9900012    2    1    2    0    0 -0.14378143834E+01  0.18678116837E+02 -0.25802744689E+02  0.59301937335E+02  0.49999987795E+02 0.  0.
        -12    1    1    2    0    0  0.14378143834E+01 -0.18678116837E+02  0.25802744689E+02  0.31886062665E+02  0.00000000000E+00 0.  1.
         11    1    3    3    0    0  0.15570367273E+02  0.38496658603E+01 -0.10677106624E+02  0.19268027153E+02  0.51100000000E-03 0. -1.
        -11    1    3    3    0    0 -0.24526527484E+01 -0.88543389518E+01 -0.49151266128E+01  0.10419850942E+02  0.51100000000E-03 0.  1.
         12    1    3    3    0    0 -0.14555528908E+02  0.23682789928E+02 -0.10210511453E+02  0.29614059240E+02  0.00000000000E+00 0. -1.
</event>
<event>
 7    1  0.3528441E-013  0.5930193E+02  0.7816164E-02  0.1266605E+00
        -11   -1    0    0    0    0  0.00000000000E+00  0.00000000000E+00  0.45593999997E+02  0.45594000000E+02  0.51100000000E-03 0.  1.
         11   -1    0    0    0    0 -0.00000000000E+00 -0.00000000000E+00 -0.45593999997E+02  0.45594000000E+02  0.51100000000E-03 0. -1.
    9900012    2    1    2    0    0  0.30347130634E+02  0.78717209740E+01 -0.58145796313E+01  0.59301926785E+02  0.49999968553E+02 0.  0.
        -12    1    1    2    0    0 -0.30347130634E+02 -0.78717209740E+01  0.58145796313E+01  0.31886073215E+02  0.00000000000E+00 0.  1.
         11    1    3    3    0    0  0.60772674527E+01  0.13762775850E+01 -0.84507517821E+00  0.62882010146E+01  0.51100000000E-03 0. -1.
        -11    1    3    3    0    0  0.34999217541E+02  0.13677375344E+02 -0.10426737333E+02  0.38996572625E+02  0.51100000000E-03 0.  1.
        -12    1    3    3    0    0 -0.10729354360E+02 -0.71819319551E+01  0.54572328799E+01  0.14017153145E+02  0.00000000000E+00 0.  1.
</event>
<event>
 7    1  0.3528441E-013  0.5930192E+02  0.7816164E-02  0.1266605E+00
        -11   -1    0    0    0    0  0.00000000000E+00  0.00000000000E+00  0.45593999997E+02  0.45594000000E+02  0.51100000000E-03 0. -1.
         11   -1    0    0    0    0 -0.00000000000E+00 -0.00000000000E+00 -0.45593999997E+02  0.45594000000E+02  0.51100000000E-03 0.  1.
    9900012    2    1    2    0    0  0.19829197606E+02 -0.16061660037E+02  0.19119304273E+02  0.59301924720E+02  0.49999964788E+02 0.  0.
        -12    1    1    2    0    0 -0.19829197606E+02  0.16061660037E+02 -0.19119304273E+02  0.31886075280E+02  0.00000000000E+00 0.  1.
         11    1    3    3    0    0 -0.51456326936E-01 -0.10200330428E+02  0.94650582764E+01  0.13915341068E+02  0.51100000000E-03 0. -1.
        -11    1    3    3    0    0  0.60436214668E+00 -0.12706141707E+02  0.19025807051E+02  0.22886516224E+02  0.51100000000E-03 0.  1.
        -12    1    3    3    0    0  0.19276291786E+02  0.68448120977E+01 -0.93715610545E+01  0.22500067428E+02  0.00000000000E+00 0.  1.
</event>
<event>
 7    1  0.3528441E-013  0.5930194E+02  0.7816164E-02  0.1266605E+00
        -11   -1    0    0    0    0  0.00000000000E+00  0.00000000000E+00  0.45593999997E+02  0.45594000000E+02  0.51100000000E-03 0. -1.
         11   -1    0    0    0    0 -0.00000000000E+00 -0.00000000000E+00 -0.45593999997E+02  0.45594000000E+02  0.51100000000E-03 0.  1.
    9900012    2    1    2    0    0  0.18353087127E+02 -0.17622149327E+02  0.19218339488E+02  0.59301944636E+02  0.50000001110E+02 0.  0.
        -12    1    1    2    0    0 -0.18353087127E+02  0.17622149327E+02 -0.19218339488E+02  0.31886055364E+02  0.00000000000E+00 0.  1.
         11    1    3    3    0    0  0.65267873550E+01 -0.10297857883E+01  0.12978720792E+02  0.14563880170E+02  0.51100000000E-03 0. -1.
        -11    1    3    3    0    0  0.39737941387E+01 -0.23063306705E+02  0.17751519379E+02  0.29373859068E+02  0.51100000000E-03 0.  1.
        -12    1    3    3    0    0  0.78525056332E+01  0.64709431657E+01 -0.11511900684E+02  0.15364205398E+02  0.00000000000E+00 0.  1.
</event>
<event>
 7    1  0.3528441E-013  0.5930195E+02  0.7816164E-02  0.1266605E+00
        -11   -1    0    0    0    0  0.00000000000E+00  0.00000000000E+00  0.45593999997E+02  0.45594000000E+02  0.51100000000E-03 0. -1.
         11   -1    0    0    0    0 -0.00000000000E+00 -0.00000000000E+00 -0.45593999997E+02  0.45594000000E+02  0.51100000000E-03 0.  1.
    9900012    2    1    2    0    0  0.42582372890E+01  0.30616552904E+02  0.78239670930E+01  0.59301947287E+02  0.50000005945E+02 0.  0.
        -12    1    1    2    0    0 -0.42582372890E+01 -0.30616552904E+02 -0.78239670930E+01  0.31886052713E+02  0.00000000000E+00 0.  1.
         11    1    3    3    0    0 -0.68491388195E+01  0.17490370505E+01  0.43828249795E+01  0.83173907107E+01  0.51100000000E-03 0. -1.
        -11    1    3    3    0    0 -0.58051160941E+01  0.48948624509E+01  0.17034558471E+02  0.18650341387E+02  0.51100000000E-03 0.  1.
        -12    1    3    3    0    0  0.16912492203E+02  0.23972653402E+02 -0.13593416358E+02  0.32334215190E+02  0.00000000000E+00 0.  1.
</event>
<event>
 7    1  0.3528441E-013  0.5930194E+02  0.7816164E-02  0.1266605E+00
        -11   -1    0    0    0    0  0.00000000000E+00  0.00000000000E+00  0.45593999997E+02  0.45594000000E+02  0.51100000000E-03 0.  1.
         11   -1    0    0    0    0 -0.00000000000E+00 -0.00000000000E+00 -0.45593999997E+02  0.45594000000E+02  0.51100000000E-03 0. -1.
    9900012    2    1    2    0    0 -0.49508509720E+01 -0.25750518180E+02 -0.18141688065E+02  0.59301937877E+02  0.49999988783E+02 0.  0.
        -12    1    1    2    0    0  0.49508509720E+01  0.25750518180E+02  0.18141688065E+02  0.31886062123E+02  0.00000000000E+00 0.  1.
         11    1    3    3    0    0 -0.61977647989E+01 -0.64215834045E+01 -0.82319948616E+01  0.12141448084E+02  0.51100000000E-03 0.  1.
        -11    1    3    3    0    0  0.18591423485E+01  0.20822655751E+01 -0.22260512803E+02  0.22434853927E+02  0.51100000000E-03 0. -1.
        -12    1    3    3    0    0 -0.61222852164E+00 -0.21411200350E+02  0.12350819600E+02  0.24725635866E+02  0.00000000000E+00 0.  1.
</event>
<event>
 7    1  0.3528441E-013  0.5930196E+02  0.7816164E-02  0.1266605E+00
        -11   -1    0    0    0    0  0.00000000000E+00  0.00000000000E+00  0.45593999997E+02  0.45594000000E+02  0.51100000000E-03 0. -1.
         11   -1    0    0    0    0 -0.00000000000E+00 -0.00000000000E+00 -0.45593999997E+02  0.45594000000E+02  0.51100000000E-03 0.  1.
    9900012    2    1    2    0    0 -0.16993369742E+02 -0.26315882198E+02 -0.59514089204E+01  0.59301960121E+02  0.50000029350E+02 0.  0.
        -12    1    1    2    0    0  0.16993369742E+02  0.26315882198E+02  0.59514089204E+01  0.31886039879E+02  0.00000000000E+00 0.  1.
         11    1    3    3    0    0 -0.43185280946E+01 -0.21485974162E+02 -0.36791749918E+01  0.22222355848E+02  0.51100000000E-03 0. -1.
        -11    1    3    3    0    0  0.33326015799E+01 -0.16650285320E+02  0.50480092242E+00  0.16988026924E+02  0.51100000000E-03 0.  1.
         12    1    3    3    0    0 -0.16007443227E+02  0.11820377283E+02 -0.27770348510E+01  0.20091577349E+02  0.00000000000E+00 0. -1.
</event>
<event>
 7    1  0.3528441E-013  0.5930194E+02  0.7816164E-02  0.1266605E+00
        -11   -1    0    0    0    0  0.00000000000E+00  0.00000000000E+00  0.45593999997E+02  0.45594000000E+02  0.51100000000E-03 0.  1.
         11   -1    0    0    0    0 -0.00000000000E+00 -0.00000000000E+00 -0.45593999997E+02  0.45594000000E+02  0.51100000000E-03 0. -1.
    9900012    2    1    2    0    0 -0.17373402290E+02  0.21339713774E+02 -0.16109081947E+02  0.59301937021E+02  0.49999987222E+02 0.  0.
        -12    1    1    2    0    0  0.17373402290E+02 -0.21339713774E+02  0.16109081947E+02  0.31886062979E+02  0.00000000000E+00 0.  1.
         11    1    3    3    0    0 -0.75626687422E+01  0.26373105410E+02 -0.23770850566E+02  0.36301349622E+02  0.51100000000E-03 0. -1.
        -11    1    3    3    0    0 -0.67840662484E+01  0.63632179037E+01  0.60584877927E+01  0.11100422134E+02  0.51100000000E-03 0.  1.
        -12    1    3    3    0    0 -0.30266672995E+01 -0.11396609540E+02  0.16032808254E+01  0.11900165266E+02  0.00000000000E+00 0.  1.
</event>
<event>
 7    1  0.3528441E-013  0.5930194E+02  0.7816164E-02  0.1266605E+00
        -11   -1    0    0    0    0  0.00000000000E+00  0.00000000000E+00  0.45593999997E+02  0.45594000000E+02  0.51100000000E-03 0.  1.
         11   -1    0    0    0    0 -0.00000000000E+00 -0.00000000000E+00 -0.45593999997E+02  0.45594000000E+02  0.51100000000E-03 0. -1.
    9900012    2    1    2    0    0  0.23257544248E+02  0.70750663516E+01 -0.20633739083E+02  0.59301935381E+02  0.49999984231E+02 0.  0.
        -12    1    1    2    0    0 -0.23257544248E+02 -0.70750663516E+01  0.20633739083E+02  0.31886064619E+02  0.00000000000E+00 0.  1.
         11    1    3    3    0    0  0.70201585112E+01  0.17532472128E+02 -0.43796925252E+01  0.19386900508E+02  0.51100000000E-03 0. -1.
        -11    1    3    3    0    0  0.21625512719E+02  0.12799312270E+01 -0.38397327103E+01  0.22001012974E+02  0.51100000000E-03 0.  1.
         12    1    3    3    0    0 -0.53881269825E+01 -0.11737337003E+02 -0.12414313847E+02  0.17914021899E+02  0.00000000000E+00 0. -1.
</event>
<event>
 7    1  0.3528441E-013  0.5930195E+02  0.7816164E-02  0.1266605E+00
        -11   -1    0    0    0    0  0.00000000000E+00  0.00000000000E+00  0.45593999997E+02  0.45594000000E+02  0.51100000000E-03 0. -1.
         11   -1    0    0    0    0 -0.00000000000E+00 -0.00000000000E+00 -0.45593999997E+02  0.45594000000E+02  0.51100000000E-03 0.  1.
    9900012    2    1    2    0    0 -0.21964032263E+02 -0.71824085289E+01  0.21970768093E+02  0.59301947311E+02  0.50000005987E+02 0.  0.
        -12    1    1    2    0    0  0.21964032263E+02  0.71824085289E+01 -0.21970768093E+02  0.31886052689E+02  0.00000000000E+00 0.  1.
         11    1    3    3    0    0 -0.30340540033E+02 -0.14283047074E+02  0.22199611333E+02  0.40216620281E+02  0.51100000000E-03 0. -1.
        -11    1    3    3    0    0 -0.21816037494E+01  0.81841382831E+01 -0.34656837449E-01  0.84699891213E+01  0.51100000000E-03 0.  1.
        -12    1    3    3    0    0  0.10558111520E+02 -0.10834997376E+01 -0.19418640309E+00  0.10615337908E+02  0.00000000000E+00 0.  1.
</event>
<event>
 7    1  0.3528441E-013  0.5930192E+02  0.7816164E-02  0.1266605E+00
        -11   -1    0    0    0    0  0.00000000000E+00  0.00000000000E+00  0.45593999997E+02  0.45594000000E+02  0.51100000000E-03 0.  1.
         11   -1    0    0    0    0 -0.00000000000E+00 -0.00000000000E+00 -0.45593999997E+02  0.45594000000E+02  0.51100000000E-03 0. -1.
    9900012    2    1    2    0    0  0.10352954169E+02  0.27958780508E+02 -0.11306861919E+02  0.59301918492E+02  0.49999953428E+02 0.  0.
        -12    1    1    2    0    0 -0.10352954169E+02 -0.27958780508E+02  0.11306861919E+02  0.31886081508E+02  0.00000000000E+00 0.  1.
         11    1    3    3    0    0  0.52236240021E+01 -0.74244699361E+01 -0.21826612736E+01  0.93366488658E+01  0.51100000000E-03 0. -1.
        -11    1    3    3    0    0  0.43477644787E+01 -0.61048581600E+01 -0.78189317937E-01  0.74952293458E+01  0.51100000000E-03 0.  1.
         12    1    3    3    0    0  0.78156568812E+00  0.41488108604E+02 -0.90460113275E+01  0.42470040280E+02  0.00000000000E+00 0. -1.
</event>
<event>
 7    1  0.3528441E-013  0.5930195E+02  0.7816164E-02  0.1266605E+00
        -11   -1    0    0    0    0  0.00000000000E+00  0.00000000000E+00  0.45593999997E+02  0.45594000000E+02  0.51100000000E-03 0.  1.
         11   -1    0    0    0    0 -0.00000000000E+00 -0.00000000000E+00 -0.45593999997E+02  0.45594000000E+02  0.51100000000E-03 0. -1.
    9900012    2    1    2    0    0 -0.20412989974E+00  0.30741052101E+02  0.84655909336E+01  0.59301950022E+02  0.50000010933E+02 0.  0.
        -12    1    1    2    0    0  0.20412989974E+00 -0.30741052101E+02 -0.84655909336E+01  0.31886049978E+02  0.00000000000E+00 0.  1.
         11    1    3    3    0    0 -0.46812673010E+01 -0.61589772032E+01 -0.28266421850E+01  0.82363323170E+01  0.51100000000E-03 0. -1.
        -11    1    3    3    0    0 -0.58200784708E+01  0.56924843697E+01 -0.92410747763E+01  0.12315646755E+02  0.51100000000E-03 0.  1.
        -12    1    3    3    0    0  0.10297215872E+02  0.31207544935E+02  0.20533307895E+02  0.38749970951E+02  0.00000000000E+00 0.  1.
</event>
<event>
 7    1  0.3528441E-013  0.5930184E+02  0.7816164E-02  0.1266605E+00
        -11   -1    0    0    0    0  0.00000000000E+00  0.00000000000E+00  0.45593999997E+02  0.45594000000E+02  0.51100000000E-03 0.  1.
         11   -1    0    0    0    0 -0.00000000000E+00 -0.00000000000E+00 -0.45593999997E+02  0.45594000000E+02  0.51100000000E-03 0. -1.
    9900012    2    1    2    0    0 -0.25211082147E+02  0.18530992708E+02 -0.61425402972E+01  0.59301840698E+02  0.49999811551E+02 0.  0.
        -12    1    1    2    0    0  0.25211082147E+02 -0.18530992708E+02  0.61425402972E+01  0.31886159302E+02  0.00000000000E+00 0.  1.
         11    1    3    3    0    0 -0.11131356093E+02  0.13636536529E+02 -0.10502466338E+02  0.20497902732E+02  0.51100000000E-03 0. -1.
        -11    1    3    3    0    0 -0.88436233500E+01  0.19099815766E+02  0.91126024597E+01  0.22935826998E+02  0.51100000000E-03 0.  1.
         12    1    3    3    0    0 -0.52361027033E+01 -0.14205359588E+02 -0.47526764192E+01  0.15868110967E+02  0.00000000000E+00 0. -1.
</event>
<event>
 7    1  0.3528441E-013  0.5930202E+02  0.7816164E-02  0.1266605E+00
        -11   -1    0    0    0    0  0.00000000000E+00  0.00000000000E+00  0.45593999997E+02  0.45594000000E+02  0.51100000000E-03 0. -1.
         11   -1    0    0    0    0 -0.00000000000E+00 -0.00000000000E+00 -0.45593999997E+02  0.45594000000E+02  0.51100000000E-03 0.  1.
    9900012    2    1    2    0    0  0.11174467093E+01  0.37486404880E+00  0.31864190173E+02  0.59302018353E+02  0.50000135551E+02 0.  0.
        -12    1    1    2    0    0 -0.11174467093E+01 -0.37486404880E+00 -0.31864190173E+02  0.31885981647E+02  0.00000000000E+00 0.  1.
         11    1    3    3    0    0  0.10726697569E+02  0.29834230503E+01  0.34609097734E+02  0.36355914238E+02  0.51100000000E-03 0. -1.
        -11    1    3    3    0    0  0.59118089563E+01  0.24315357862E+01  0.33362136507E-01  0.63924146227E+01  0.51100000000E-03 0.  1.
        -12    1    3    3    0    0 -0.15521059816E+02 -0.50400947877E+01 -0.27782696975E+01  0.16553689492E+02  0.00000000000E+00 0.  1.
</event>
<event>
 7    1  0.3528441E-013  0.5930196E+02  0.7816164E-02  0.1266605E+00
        -11   -1    0    0    0    0  0.00000000000E+00  0.00000000000E+00  0.45593999997E+02  0.45594000000E+02  0.51100000000E-03 0.  1.
         11   -1    0    0    0    0 -0.00000000000E+00 -0.00000000000E+00 -0.45593999997E+02  0.45594000000E+02  0.51100000000E-03 0. -1.
    9900012    2    1    2    0    0 -0.19449741241E+02 -0.33004597743E+01 -0.25050627533E+02  0.59301962164E+02  0.50000033077E+02 0.  0.
        -12    1    1    2    0    0  0.19449741241E+02  0.33004597743E+01  0.25050627533E+02  0.31886037836E+02  0.00000000000E+00 0.  1.
         11    1    3    3    0    0 -0.12947145152E+02 -0.12728139251E+02 -0.13281834163E+02  0.22495359863E+02  0.51100000000E-03 0. -1.
        -11    1    3    3    0    0 -0.93671416911E+01 -0.10616785734E+02 -0.78289277383E+01  0.16178738906E+02  0.51100000000E-03 0.  1.
        -12    1    3    3    0    0  0.28645456025E+01  0.20044465210E+02 -0.39398656321E+01  0.20627863396E+02  0.00000000000E+00 0.  1.
</event>
<event>
 7    1  0.3528441E-013  0.5930193E+02  0.7816164E-02  0.1266605E+00
        -11   -1    0    0    0    0  0.00000000000E+00  0.00000000000E+00  0.45593999997E+02  0.45594000000E+02  0.51100000000E-03 0. -1.
         11   -1    0    0    0    0 -0.00000000000E+00 -0.00000000000E+00 -0.45593999997E+02  0.45594000000E+02  0.51100000000E-03 0.  1.
    9900012    2    1    2    0    0 -0.17168493770E+02 -0.24597548720E+02  0.10813195348E+02  0.59301925061E+02  0.49999965409E+02 0.  0.
        -12    1    1    2    0    0  0.17168493770E+02  0.24597548720E+02 -0.10813195348E+02  0.31886074939E+02  0.00000000000E+00 0.  1.
         11    1    3    3    0    0 -0.98679847078E+01  0.59565200658E+01 -0.13708417827E+01  0.11607603583E+02  0.51100000000E-03 0. -1.
        -11    1    3    3    0    0 -0.12892057253E+01  0.76387645973E+00 -0.91853746930E+01  0.93068075708E+01  0.51100000000E-03 0.  1.
         12    1    3    3    0    0 -0.60113033374E+01 -0.31317945246E+02  0.21369411824E+02  0.38387513907E+02  0.00000000000E+00 0. -1.
</event>
<event>
 7    1  0.3528441E-013  0.5930206E+02  0.7816164E-02  0.1266604E+00
        -11   -1    0    0    0    0  0.00000000000E+00  0.00000000000E+00  0.45593999997E+02  0.45594000000E+02  0.51100000000E-03 0.  1.
         11   -1    0    0    0    0 -0.00000000000E+00 -0.00000000000E+00 -0.45593999997E+02  0.45594000000E+02  0.51100000000E-03 0. -1.
    9900012    2    1    2    0    0 -0.27156445907E+02 -0.16434179632E+02 -0.30262954835E+01  0.59302058288E+02  0.50000208384E+02 0.  0.
        -12    1    1    2    0    0  0.27156445907E+02  0.16434179632E+02  0.30262954835E+01  0.31885941712E+02  0.00000000000E+00 0.  1.
         11    1    3    3    0    0  0.78659357461E+01 -0.70956250085E+01 -0.12451281733E+02  0.16347943494E+02  0.51100000000E-03 0. -1.
        -11    1    3    3    0    0 -0.26581457370E+01 -0.10606003639E+01 -0.56274404837E+01  0.63133745770E+01  0.51100000000E-03 0.  1.
        -12    1    3    3    0    0 -0.32364235916E+02 -0.82779542594E+01  0.15052426733E+02  0.36640740218E+02  0.00000000000E+00 0.  1.
</event>
<event>
 7    1  0.3528441E-013  0.5930188E+02  0.7816164E-02  0.1266605E+00
        -11   -1    0    0    0    0  0.00000000000E+00  0.00000000000E+00  0.45593999997E+02  0.45594000000E+02  0.51100000000E-03 0.  1.
         11   -1    0    0    0    0 -0.00000000000E+00 -0.00000000000E+00 -0.45593999997E+02  0.45594000000E+02  0.51100000000E-03 0. -1.
    9900012    2    1    2    0    0 -0.28008767539E+02  0.77872084865E+00 -0.15219306865E+02  0.59301878150E+02  0.49999879854E+02 0.  0.
        -12    1    1    2    0    0  0.28008767539E+02 -0.77872084865E+00  0.15219306865E+02  0.31886121850E+02  0.00000000000E+00 0.  1.
         11    1    3    3    0    0 -0.90705357645E+01 -0.16300534564E+01 -0.19722662291E+02  0.21769591209E+02  0.51100000000E-03 0. -1.
        -11    1    3    3    0    0 -0.14280273729E+02 -0.10949838268E+02 -0.69896004415E+01  0.19304913635E+02  0.51100000000E-03 0.  1.
        -12    1    3    3    0    0 -0.46579580454E+01  0.13358612573E+02  0.11492955867E+02  0.18227373305E+02  0.00000000000E+00 0.  1.
</event>
<event>
 7    1  0.3528441E-013  0.5930194E+02  0.7816164E-02  0.1266605E+00
        -11   -1    0    0    0    0  0.00000000000E+00  0.00000000000E+00  0.45593999997E+02  0.45594000000E+02  0.51100000000E-03 0.  1.
         11   -1    0    0    0    0 -0.00000000000E+00 -0.00000000000E+00 -0.45593999997E+02  0.45594000000E+02  0.51100000000E-03 0. -1.
    9900012    2    1    2    0    0 -0.59267448812E+00 -0.58410409143E+01 -0.31340896687E+02  0.59301939924E+02  0.49999992516E+02 0.  0.
        -12    1    1    2    0    0  0.59267448812E+00  0.58410409143E+01  0.31340896687E+02  0.31886060076E+02  0.00000000000E+00 0.  1.
         11    1    3    3    0    0  0.45107042520E+01 -0.11720372351E+01 -0.32843172162E+02  0.33172188382E+02  0.51100000000E-03 0. -1.
        -11    1    3    3    0    0  0.89023228882E+01  0.38422795684E+01  0.68712685922E+00  0.97204222475E+01  0.51100000000E-03 0.  1.
        -12    1    3    3    0    0 -0.14005701628E+02 -0.85112832477E+01  0.81514861620E+00  0.16409329294E+02  0.00000000000E+00 0.  1.
</event>
<event>
 7    1  0.3528441E-013  0.5930194E+02  0.7816164E-02  0.1266605E+00
        -11   -1    0    0    0    0  0.00000000000E+00  0.00000000000E+00  0.45593999997E+02  0.45594000000E+02  0.51100000000E-03 0. -1.
         11   -1    0    0    0    0 -0.00000000000E+00 -0.00000000000E+00 -0.45593999997E+02  0.45594000000E+02  0.51100000000E-03 0.  1.
    9900012    2    1    2    0    0 -0.22058894225E+02  0.12108348687E+02  0.19583510479E+02  0.59301940271E+02  0.49999993148E+02 0.  0.
        -12    1    1    2    0    0  0.22058894225E+02 -0.12108348687E+02 -0.19583510479E+02  0.31886059729E+02  0.00000000000E+00 0.  1.
         11    1    3    3    0    0  0.66725671626E+01  0.14191012685E+02 -0.58552349519E+00  0.15692381323E+02  0.51100000000E-03 0.  1.
        -11    1    3    3    0    0 -0.11237604231E+02  0.96617092573E+01  0.16575823588E+02  0.22234889307E+02  0.51100000000E-03 0. -1.
        -12    1    3    3    0    0 -0.17493857157E+02 -0.11744373255E+02  0.35932103866E+01  0.21374669641E+02  0.00000000000E+00 0.  1.
</event>
<event>
 7    1  0.3528441E-013  0.5930196E+02  0.7816164E-02  0.1266605E+00
        -11   -1    0    0    0    0  0.00000000000E+00  0.00000000000E+00  0.45593999997E+02  0.45594000000E+02  0.51100000000E-03 0.  1.
         11   -1    0    0    0    0 -0.00000000000E+00 -0.00000000000E+00 -0.45593999997E+02  0.45594000000E+02  0.51100000000E-03 0. -1.
    9900012    2    1    2    0    0 -0.30395602244E+02  0.88075106089E+01 -0.39057005222E+01  0.59301962688E+02  0.50000034032E+02 0.  0.
        -12    1    1    2    0    0  0.30395602244E+02 -0.88075106089E+01  0.39057005222E+01  0.31886037312E+02  0.00000000000E+00 0.  1.
         11    1    3    3    0    0 -0.65017815530E+01 -0.11303421067E+02 -0.26708282087E+01  0.13310665452E+02  0.51100000000E-03 0.  1.
        -11    1    3    3    0    0 -0.26809936830E+01  0.20975646078E+02 -0.95342898069E+01  0.23196295780E+02  0.51100000000E-03 0. -1.
         12    1    3    3    0    0 -0.21212827008E+02 -0.86471440207E+00  0.82994174934E+01  0.22795001456E+02  0.00000000000E+00 0. -1.
</event>
<event>
 7    1  0.3528441E-013  0.5930195E+02  0.7816164E-02  0.1266605E+00
        -11   -1    0    0    0    0  0.00000000000E+00  0.00000000000E+00  0.45593999997E+02  0.45594000000E+02  0.51100000000E-03 0. -1.
         11   -1    0    0    0    0 -0.00000000000E+00 -0.00000000000E+00 -0.45593999997E+02  0.45594000000E+02  0.51100000000E-03 0.  1.
    9900012    2    1    2    0    0 -0.25728955263E+02 -0.12832844153E+02  0.13786198795E+02  0.59301948109E+02  0.50000007444E+02 0.  0.
        -12    1    1    2    0    0  0.25728955263E+02  0.12832844153E+02 -0.13786198795E+02  0.31886051891E+02  0.00000000000E+00 0.  1.
         11    1    3    3    0    0 -0.74436081927E+01 -0.17674839882E+01 -0.11287285009E+01  0.77333906447E+01  0.51100000000E-03 0. -1.
        -11    1    3    3    0    0 -0.18275216851E+02 -0.22446713230E+02 -0.42729654853E+01  0.29259130542E+02  0.51100000000E-03 0.  1.
         12    1    3    3    0    0 -0.10130218746E-01  0.11381353065E+02  0.19187892781E+02  0.22309426922E+02  0.00000000000E+00 0. -1.
</event>
<event>
 7    1  0.3528441E-013  0.5930193E+02  0.7816164E-02  0.1266605E+00
        -11   -1    0    0    0    0  0.00000000000E+00  0.00000000000E+00  0.45593999997E+02  0.45594000000E+02  0.51100000000E-03 0. -1.
         11   -1    0    0    0    0 -0.00000000000E+00 -0.00000000000E+00 -0.45593999997E+02  0.45594000000E+02  0.51100000000E-03 0.  1.
    9900012    2    1    2    0    0 -0.28877093490E+01  0.25924280173E+02 -0.18338880088E+02  0.59301926384E+02  0.49999967822E+02 0.  0.
        -12    1    1    2    0    0  0.28877093490E+01 -0.25924280173E+02  0.18338880088E+02  0.31886073616E+02  0.00000000000E+00 0.  1.
         11    1    3    3    0    0  0.74374018546E+01  0.29740521573E+02 -0.31250032916E+00  0.30657971664E+02  0.51100000000E-03 0. -1.
        -11    1    3    3    0    0  0.40288329470E+01 -0.51261222908E+01 -0.14531980788E+01  0.66798510142E+01  0.51100000000E-03 0.  1.
        -12    1    3    3    0    0 -0.14353944151E+02  0.13098808905E+01 -0.16573181680E+02  0.21964103706E+02  0.00000000000E+00 0.  1.
</event>
<event>
 7    1  0.3528441E-013  0.5930207E+02  0.7816164E-02  0.1266604E+00
        -11   -1    0    0    0    0  0.00000000000E+00  0.00000000000E+00  0.45593999997E+02  0.45594000000E+02  0.51100000000E-03 0. -1.
         11   -1    0    0    0    0 -0.00000000000E+00 -0.00000000000E+00 -0.45593999997E+02  0.45594000000E+02  0.51100000000E-03 0.  1.
    9900012    2    1    2    0    0 -0.16478638141E+02  0.22721988658E+01  0.27203019099E+02  0.59302068137E+02  0.50000226345E+02 0.  0.
        -12    1    1    2    0    0  0.16478638141E+02 -0.22721988658E+01 -0.27203019099E+02  0.31885931863E+02  0.00000000000E+00 0.  1.
         11    1    3    3    0    0 -0.11083321136E+02 -0.36365283724E+01  0.27620334687E+02  0.29982448774E+02  0.51100000000E-03 0. -1.
        -11    1    3    3    0    0 -0.40083145121E+01  0.14682796022E+02  0.79020617539E+01  0.17149159293E+02  0.51100000000E-03 0.  1.
        -12    1    3    3    0    0 -0.13870024925E+01 -0.87740687838E+01 -0.83193773418E+01  0.12170460069E+02  0.00000000000E+00 0.  1.
</event>
<event>
 7    1  0.3528441E-013  0.5930191E+02  0.7816164E-02  0.1266605E+00
        -11   -1    0    0    0    0  0.00000000000E+00  0.00000000000E+00  0.45593999997E+02  0.45594000000E+02  0.51100000000E-03 0. -1.
         11   -1    0    0    0    0 -0.00000000000E+00 -0.00000000000E+00 -0.45593999997E+02  0.45594000000E+02  0.51100000000E-03 0.  1.
    9900012    2    1    2    0    0 -0.56066964256E+01  0.16086418219E+02  0.26953944439E+02  0.59301905590E+02  0.49999929898E+02 0.  0.
        -12    1    1    2    0    0  0.56066964256E+01 -0.16086418219E+02 -0.26953944439E+02  0.31886094410E+02  0.00000000000E+00 0.  1.
         11    1    3    3    0    0  0.25597851766E+01  0.89555958624E+01  0.18032082172E+02  0.20295595215E+02  0.51100000000E-03 0. -1.
        -11    1    3    3    0    0  0.10729832544E+02 -0.38549054519E+01  0.12432186329E+02  0.16868576100E+02  0.51100000000E-03 0.  1.
        -12    1    3    3    0    0 -0.18896314146E+02  0.10985727809E+02 -0.35103240624E+01  0.22137734275E+02  0.00000000000E+00 0.  1.
</event>
<event>
 7    1  0.3528441E-013  0.5930199E+02  0.7816164E-02  0.1266605E+00
        -11   -1    0    0    0    0  0.00000000000E+00  0.00000000000E+00  0.45593999997E+02  0.45594000000E+02  0.51100000000E-03 0.  1.
         11   -1    0    0    0    0 -0.00000000000E+00 -0.00000000000E+00 -0.45593999997E+02  0.45594000000E+02  0.51100000000E-03 0. -1.
    9900012    2    1    2    0    0 -0.13795243707E+02  0.26263848954E+02 -0.11688428387E+02  0.59301986311E+02  0.50000077115E+02 0.  0.
        -12    1    1    2    0    0  0.13795243707E+02 -0.26263848954E+02  0.11688428387E+02  0.31886013689E+02  0.00000000000E+00 0.  1.
         11    1    3    3    0    0 -0.17967133968E+00  0.22683901565E+02 -0.20180732170E+02  0.30362042474E+02  0.51100000000E-03 0. -1.
        -11    1    3    3    0    0 -0.40388177670E+01  0.13036818584E+02  0.13813057718E+01  0.13717823940E+02  0.51100000000E-03 0.  1.
        -12    1    3    3    0    0 -0.95767546003E+01 -0.94568711951E+01  0.71109980106E+01  0.15222119898E+02  0.00000000000E+00 0.  1.
</event>
<event>
 7    1  0.3528441E-013  0.5930195E+02  0.7816164E-02  0.1266605E+00
        -11   -1    0    0    0    0  0.00000000000E+00  0.00000000000E+00  0.45593999997E+02  0.45594000000E+02  0.51100000000E-03 0.  1.
         11   -1    0    0    0    0 -0.00000000000E+00 -0.00000000000E+00 -0.45593999997E+02  0.45594000000E+02  0.51100000000E-03 0. -1.
    9900012    2    1    2    0    0 -0.61781355950E+01  0.23658159065E+02 -0.20465639816E+02  0.59301948773E+02  0.50000008655E+02 0.  0.
        -12    1    1    2    0    0  0.61781355950E+01 -0.23658159065E+02  0.20465639816E+02  0.31886051227E+02  0.00000000000E+00 0.  1.
         11    1    3    3    0    0 -0.14735105540E+01  0.13002166853E+01  0.52133029000E+01  0.55713844033E+01  0.51100000000E-03 0. -1.
        -11    1    3    3    0    0  0.16278544497E+02  0.12100809586E+01 -0.14742059016E+02  0.21995081522E+02  0.51100000000E-03 0.  1.
         12    1    3    3    0    0 -0.20983169538E+02  0.21147861421E+02 -0.10936883699E+02  0.31735482848E+02  0.00000000000E+00 0. -1.
</event>
<event>
 7    1  0.3528441E-013  0.5930195E+02  0.7816164E-02  0.1266605E+00
        -11   -1    0    0    0    0  0.00000000000E+00  0.00000000000E+00  0.45593999997E+02  0.45594000000E+02  0.51100000000E-03 0.  1.
         11   -1    0    0    0    0 -0.00000000000E+00 -0.00000000000E+00 -0.45593999997E+02  0.45594000000E+02  0.51100000000E-03 0. -1.
    9900012    2    1    2    0    0  0.99403094975E+00  0.26120919225E+02 -0.18260064049E+02  0.59301945717E+02  0.50000003080E+02 0.  0.
        -12    1    1    2    0    0 -0.99403094975E+00 -0.26120919225E+02  0.18260064049E+02  0.31886054283E+02  0.00000000000E+00 0.  1.
         11    1    3    3    0    0  0.44978402289E+01  0.15666196455E+02 -0.13388022271E+02  0.21092638969E+02  0.51100000000E-03 0.  1.
        -11    1    3    3    0    0 -0.16264928115E+02  0.15561841195E+02 -0.83866175757E+01  0.24021951265E+02  0.51100000000E-03 0. -1.
        -12    1    3    3    0    0  0.12761118835E+02 -0.51071184248E+01  0.35145757983E+01  0.14187355482E+02  0.00000000000E+00 0.  1.
</event>
<event>
 7    1  0.3528441E-013  0.5930194E+02  0.7816164E-02  0.1266605E+00
        -11   -1    0    0    0    0  0.00000000000E+00  0.00000000000E+00  0.45593999997E+02  0.45594000000E+02  0.51100000000E-03 0.  1.
         11   -1    0    0    0    0 -0.00000000000E+00 -0.00000000000E+00 -0.45593999997E+02  0.45594000000E+02  0.51100000000E-03 0. -1.
    9900012    2    1    2    0    0  0.24189528775E+02 -0.10548657251E+02 -0.17897302393E+02  0.59301938702E+02  0.49999990287E+02 0.  0.
        -12    1    1    2    0    0 -0.24189528775E+02  0.10548657251E+02  0.17897302393E+02  0.31886061298E+02  0.00000000000E+00 0.  1.
         11    1    3    3    0    0  0.11169492954E+02 -0.10932561451E+02 -0.28055803113E+02  0.32115519010E+02  0.51100000000E-03 0. -1.
        -11    1    3    3    0    0  0.20618083073E+01  0.23001555591E+00 -0.67362183283E+01  0.70484465154E+01  0.51100000000E-03 0.  1.
        -12    1    3    3    0    0  0.10958227514E+02  0.15388864397E+00  0.16894719048E+02  0.20137973177E+02  0.00000000000E+00 0.  1.
</event>
<event>
 7    1  0.3528441E-013  0.5930194E+02  0.7816164E-02  0.1266605E+00
        -11   -1    0    0    0    0  0.00000000000E+00  0.00000000000E+00  0.45593999997E+02  0.45594000000E+02  0.51100000000E-03 0.  1.
         11   -1    0    0    0    0 -0.00000000000E+00 -0.00000000000E+00 -0.45593999997E+02  0.45594000000E+02  0.51100000000E-03 0. -1.
    9900012    2    1    2    0    0  0.10587765336E+02 -0.33448684091E+01 -0.29890335186E+02  0.59301936320E+02  0.49999985943E+02 0.  0.
        -12    1    1    2    0    0 -0.10587765336E+02  0.33448684091E+01  0.29890335186E+02  0.31886063680E+02  0.00000000000E+00 0.  1.
         11    1    3    3    0    0  0.99615358589E+01 -0.58274396115E+01 -0.41826632073E+01  0.12275419376E+02  0.51100000000E-03 0. -1.
        -11    1    3    3    0    0  0.33489154615E+01  0.16124720289E+02  0.14302583400E+01  0.16530803923E+02  0.51100000000E-03 0.  1.
         12    1    3    3    0    0 -0.27226859847E+01 -0.13642149086E+02 -0.27137930319E+02  0.30495713021E+02  0.00000000000E+00 0. -1.
</event>
<event>
 7    1  0.3528441E-013  0.5930191E+02  0.7816164E-02  0.1266605E+00
        -11   -1    0    0    0    0  0.00000000000E+00  0.00000000000E+00  0.45593999997E+02  0.45594000000E+02  0.51100000000E-03 0.  1.
         11   -1    0    0    0    0 -0.00000000000E+00 -0.00000000000E+00 -0.45593999997E+02  0.45594000000E+02  0.51100000000E-03 0. -1.
    9900012    2    1    2    0    0  0.26484871826E+01 -0.11232821056E+02 -0.29724270974E+02  0.59301905254E+02  0.49999929286E+02 0.  0.
        -12    1    1    2    0    0 -0.26484871826E+01  0.11232821056E+02  0.29724270974E+02  0.31886094746E+02  0.00000000000E+00 0.  1.
         11    1    3    3    0    0  0.45343683685E+01 -0.22984419723E+02 -0.27636582303E+02  0.36230163237E+02  0.51100000000E-03 0. -1.
        -11    1    3    3    0    0 -0.76175490848E+01 -0.65548790196E-01 -0.56254579991E+01  0.94698008777E+01  0.51100000000E-03 0.  1.
        -12    1    3    3    0    0  0.57316678989E+01  0.11817147457E+02  0.35377693286E+01  0.13601941139E+02  0.00000000000E+00 0.  1.
</event>
<event>
 7    1  0.3528441E-013  0.5930196E+02  0.7816164E-02  0.1266605E+00
        -11   -1    0    0    0    0  0.00000000000E+00  0.00000000000E+00  0.45593999997E+02  0.45594000000E+02  0.51100000000E-03 0. -1.
         11   -1    0    0    0    0 -0.00000000000E+00 -0.00000000000E+00 -0.45593999997E+02  0.45594000000E+02  0.51100000000E-03 0.  1.
    9900012    2    1    2    0    0 -0.55689960923E+01  0.12456585465E+02  0.28819073863E+02  0.59301964542E+02  0.50000037412E+02 0.  0.
        -12    1    1    2    0    0  0.55689960923E+01 -0.12456585465E+02 -0.28819073863E+02  0.31886035458E+02  0.00000000000E+00 0.  1.
         11    1    3    3    0    0 -0.57950704383E+00 -0.61238837094E+01  0.41474238404E+01  0.74188209894E+01  0.51100000000E-03 0. -1.
        -11    1    3    3    0    0 -0.10702852138E+02  0.56573330922E+01 -0.91851633436E+01  0.15196173450E+02  0.51100000000E-03 0.  1.
         12    1    3    3    0    0  0.57133630893E+01  0.12923136083E+02  0.33856813366E+02  0.36686970103E+02  0.00000000000E+00 0. -1.
</event>
<event>
 7    1  0.3528441E-013  0.5930192E+02  0.7816164E-02  0.1266605E+00
        -11   -1    0    0    0    0  0.00000000000E+00  0.00000000000E+00  0.45593999997E+02  0.45594000000E+02  0.51100000000E-03 0. -1.
         11   -1    0    0    0    0 -0.00000000000E+00 -0.00000000000E+00 -0.45593999997E+02  0.45594000000E+02  0.51100000000E-03 0.  1.
    9900012    2    1    2    0    0  0.26827372322E+02 -0.12377010638E+02  0.11992650744E+02  0.59301922005E+02  0.49999959837E+02 0.  0.
        -12    1    1    2    0    0 -0.26827372322E+02  0.12377010638E+02 -0.11992650744E+02  0.31886077995E+02  0.00000000000E+00 0.  1.
         11    1    3    3    0    0  0.11105285250E+02  0.51532720937E+01  0.88247750004E+01  0.15091727132E+02  0.51100000000E-03 0. -1.
        -11    1    3    3    0    0  0.48235707210E+01  0.78444962202E+01  0.12081587443E+02  0.15191040480E+02  0.51100000000E-03 0.  1.
        -12    1    3    3    0    0  0.10898516351E+02 -0.25374778951E+02 -0.89137116993E+01  0.29019154394E+02  0.00000000000E+00 0.  1.
</event>
<event>
 7    1  0.3528441E-013  0.5930194E+02  0.7816164E-02  0.1266605E+00
        -11   -1    0    0    0    0  0.00000000000E+00  0.00000000000E+00  0.45593999997E+02  0.45594000000E+02  0.51100000000E-03 0.  1.
         11   -1    0    0    0    0 -0.00000000000E+00 -0.00000000000E+00 -0.45593999997E+02  0.45594000000E+02  0.51100000000E-03 0. -1.
    9900012    2    1    2    0    0  0.17583616420E+02  0.87159062346E+01 -0.25131057133E+02  0.59301943164E+02  0.49999998425E+02 0.  0.
        -12    1    1    2    0    0 -0.17583616420E+02 -0.87159062346E+01  0.25131057133E+02  0.31886056836E+02  0.00000000000E+00 0.  1.
         11    1    3    3    0    0  0.68699015551E+01  0.12113723098E+02 -0.10621310548E+02  0.17514281964E+02  0.51100000000E-03 0. -1.
        -11    1    3    3    0    0 -0.12354468412E+01 -0.14454534123E+02 -0.19910731897E+02  0.24635282230E+02  0.51100000000E-03 0.  1.
         12    1    3    3    0    0  0.11949161706E+02  0.11056717259E+02  0.54009853118E+01  0.17152378971E+02  0.00000000000E+00 0. -1.
</event>
<event>
 7    1  0.3528441E-013  0.5930203E+02  0.7816164E-02  0.1266604E+00
        -11   -1    0    0    0    0  0.00000000000E+00  0.00000000000E+00  0.45593999997E+02  0.45594000000E+02  0.51100000000E-03 0. -1.
         11   -1    0    0    0    0 -0.00000000000E+00 -0.00000000000E+00 -0.45593999997E+02  0.45594000000E+02  0.51100000000E-03 0.  1.
    9900012    2    1    2    0    0  0.21784305256E+02 -0.23199095810E+02 -0.19901755755E+01  0.59302034424E+02  0.50000164861E+02 0.  0.
        -12    1    1    2    0    0 -0.21784305256E+02  0.23199095810E+02  0.19901755755E+01  0.31885965576E+02  0.00000000000E+00 0.  1.
         11    1    3    3    0    0  0.34185325451E+02 -0.20332869046E+02 -0.97270957748E+01  0.40947264039E+02  0.51100000000E-03 0. -1.
        -11    1    3    3    0    0 -0.34311927325E+01  0.31200158870E+01 -0.66382749178E+00  0.46848959330E+01  0.51100000000E-03 0.  1.
        -12    1    3    3    0    0 -0.89698274618E+01 -0.59862426507E+01  0.84007476911E+01  0.13669874452E+02  0.00000000000E+00 0.  1.
</event>
<event>
 7    1  0.3528441E-013  0.5930194E+02  0.7816164E-02  0.1266605E+00
        -11   -1    0    0    0    0  0.00000000000E+00  0.00000000000E+00  0.45593999997E+02  0.45594000000E+02  0.51100000000E-03 0. -1.
         11   -1    0    0    0    0 -0.00000000000E+00 -0.00000000000E+00 -0.45593999997E+02  0.45594000000E+02  0.51100000000E-03 0.  1.
    9900012    2    1    2    0    0 -0.15740776783E+02  0.27353254244E+02  0.45550249169E+01  0.59301939982E+02  0.49999992621E+02 0.  0.
        -12    1    1    2    0    0  0.15740776783E+02 -0.27353254244E+02 -0.45550249169E+01  0.31886060018E+02  0.00000000000E+00 0.  1.
         11    1    3    3    0    0  0.17011909534E+01  0.32391361212E+01  0.16645710783E+02  0.17043055513E+02  0.51100000000E-03 0. -1.
        -11    1    3    3    0    0 -0.11413900355E+02 -0.36764162959E+01 -0.25075468493E+01  0.12250753020E+02  0.51100000000E-03 0.  1.
        -12    1    3    3    0    0 -0.60280673813E+01  0.27790534419E+02 -0.95831390170E+01  0.30008131449E+02  0.00000000000E+00 0.  1.
</event>
<event>
 7    1  0.3528441E-013  0.5930193E+02  0.7816164E-02  0.1266605E+00
        -11   -1    0    0    0    0  0.00000000000E+00  0.00000000000E+00  0.45593999997E+02  0.45594000000E+02  0.51100000000E-03 0. -1.
         11   -1    0    0    0    0 -0.00000000000E+00 -0.00000000000E+00 -0.45593999997E+02  0.45594000000E+02  0.51100000000E-03 0.  1.
    9900012    2    1    2    0    0 -0.27290793222E+02  0.13977472177E+02 -0.87501224340E+01  0.59301925207E+02  0.49999965675E+02 0.  0.
        -12    1    1    2    0    0  0.27290793222E+02 -0.13977472177E+02  0.87501224340E+01  0.31886074793E+02  0.00000000000E+00 0.  1.
         11    1    3    3    0    0 -0.34113782350E+01  0.86494868534E+01  0.12513961676E+02  0.15590072526E+02  0.51100000000E-03 0. -1.
        -11    1    3    3    0    0 -0.93988117411E+01  0.15062299994E+02 -0.22351415377E+01  0.17894311979E+02  0.51100000000E-03 0.  1.
        -12    1    3    3    0    0 -0.14480603245E+02 -0.97343146708E+01 -0.19028942572E+02  0.25817540701E+02  0.00000000000E+00 0.  1.
</event>
<event>
 7    1  0.3528441E-013  0.5930186E+02  0.7816164E-02  0.1266605E+00
        -11   -1    0    0    0    0  0.00000000000E+00  0.00000000000E+00  0.45593999997E+02  0.45594000000E+02  0.51100000000E-03 0.  1.
         11   -1    0    0    0    0 -0.00000000000E+00 -0.00000000000E+00 -0.45593999997E+02  0.45594000000E+02  0.51100000000E-03 0. -1.
    9900012    2    1    2    0    0  0.20096747675E+02 -0.24721871149E+02 -0.12945366300E+01  0.59301858727E+02  0.49999844432E+02 0.  0.
        -12    1    1    2    0    0 -0.20096747675E+02  0.24721871149E+02  0.12945366300E+01  0.31886141273E+02  0.00000000000E+00 0.  1.
         11    1    3    3    0    0 -0.20280158345E+01  0.47693532156E+01  0.34392879266E+01  0.62199903556E+01  0.51100000000E-03 0. -1.
        -11    1    3    3    0    0 -0.34756242677E+01 -0.23039200304E+00  0.10699103499E+02  0.11251838092E+02  0.51100000000E-03 0.  1.
         12    1    3    3    0    0  0.25600387777E+02 -0.29260832361E+02 -0.15432928055E+02  0.41830030279E+02  0.00000000000E+00 0. -1.
</event>
<event>
 7    1  0.3528441E-013  0.5930195E+02  0.7816164E-02  0.1266605E+00
        -11   -1    0    0    0    0  0.00000000000E+00  0.00000000000E+00  0.45593999997E+02  0.45594000000E+02  0.51100000000E-03 0. -1.
         11   -1    0    0    0    0 -0.00000000000E+00 -0.00000000000E+00 -0.45593999997E+02  0.45594000000E+02  0.51100000000E-03 0.  1.
    9900012    2    1    2    0    0  0.29697511642E+02 -0.98764202732E+01 -0.61020041017E+01  0.59301947733E+02  0.50000006757E+02 0.  0.
        -12    1    1    2    0    0 -0.29697511642E+02  0.98764202732E+01  0.61020041017E+01  0.31886052267E+02  0.00000000000E+00 0.  1.
         11    1    3    3    0    0  0.32802403445E+01  0.10239438476E+02 -0.86816141049E+01  0.13819424762E+02  0.51100000000E-03 0. -1.
        -11    1    3    3    0    0 -0.29948645500E+01  0.55350608767E+01  0.13525878220E+01  0.64370495306E+01  0.51100000000E-03 0.  1.
        -12    1    3    3    0    0  0.29412135848E+02 -0.25650919626E+02  0.12270221812E+01  0.39045473440E+02  0.00000000000E+00 0.  1.
</event>
<event>
 7    1  0.3528441E-013  0.5930193E+02  0.7816164E-02  0.1266605E+00
        -11   -1    0    0    0    0  0.00000000000E+00  0.00000000000E+00  0.45593999997E+02  0.45594000000E+02  0.51100000000E-03 0. -1.
         11   -1    0    0    0    0 -0.00000000000E+00 -0.00000000000E+00 -0.45593999997E+02  0.45594000000E+02  0.51100000000E-03 0.  1.
    9900012    2    1    2    0    0 -0.15629976105E+02  0.26803146217E+02 -0.73495893944E+01  0.59301933067E+02  0.49999980010E+02 0.  0.
        -12    1    1    2    0    0  0.15629976105E+02 -0.26803146217E+02  0.73495893944E+01  0.31886066933E+02  0.00000000000E+00 0.  1.
         11    1    3    3    0    0  0.62203930912E+00 -0.38602186714E+01  0.84778830001E+01  0.93360977671E+01  0.51100000000E-03 0. -1.
        -11    1    3    3    0    0 -0.68801315431E+01  0.36693485237E+01  0.91441435406E+01  0.12017307934E+02  0.51100000000E-03 0.  1.
        -12    1    3    3    0    0 -0.93718838715E+01  0.26994016365E+02 -0.24971615935E+02  0.37948527365E+02  0.00000000000E+00 0.  1.
</event>
<event>
 7    1  0.3528441E-013  0.5930195E+02  0.7816164E-02  0.1266605E+00
        -11   -1    0    0    0    0  0.00000000000E+00  0.00000000000E+00  0.45593999997E+02  0.45594000000E+02  0.51100000000E-03 0.  1.
         11   -1    0    0    0    0 -0.00000000000E+00 -0.00000000000E+00 -0.45593999997E+02  0.45594000000E+02  0.51100000000E-03 0. -1.
    9900012    2    1    2    0    0  0.24448951971E+02  0.15908119233E+02 -0.12880255048E+02  0.59301945366E+02  0.50000002441E+02 0.  0.
        -12    1    1    2    0    0 -0.24448951971E+02 -0.15908119233E+02  0.12880255048E+02  0.31886054634E+02  0.00000000000E+00 0.  1.
         11    1    3    3    0    0  0.12377657570E+02  0.93154866800E+01 -0.18668616213E+02  0.24259058732E+02  0.51100000000E-03 0. -1.
        -11    1    3    3    0    0  0.15559356019E+02  0.60700400122E+01 -0.95942828865E+01  0.19261080183E+02  0.51100000000E-03 0.  1.
        -12    1    3    3    0    0 -0.34880616180E+01  0.52259254126E+00  0.15382644051E+02  0.15781806450E+02  0.00000000000E+00 0.  1.
</event>
<event>
 7    1  0.3528441E-013  0.5930207E+02  0.7816164E-02  0.1266604E+00
        -11   -1    0    0    0    0  0.00000000000E+00  0.00000000000E+00  0.45593999997E+02  0.45594000000E+02  0.51100000000E-03 0. -1.
         11   -1    0    0    0    0 -0.00000000000E+00 -0.00000000000E+00 -0.45593999997E+02  0.45594000000E+02  0.51100000000E-03 0.  1.
    9900012    2    1    2    0    0  0.18885726256E+02 -0.22842350104E+02  0.11758781808E+02  0.59302069496E+02  0.50000228823E+02 0.  0.
        -12    1    1    2    0    0 -0.18885726256E+02  0.22842350104E+02 -0.11758781808E+02  0.31885930504E+02  0.00000000000E+00 0.  1.
         11    1    3    3    0    0  0.30545249281E+02 -0.18666206393E+02  0.94775732949E+00  0.35809743911E+02  0.51100000000E-03 0. -1.
        -11    1    3    3    0    0  0.38950431801E+01 -0.35724422184E+01  0.29743747293E+01  0.60647019770E+01  0.51100000000E-03 0.  1.
        -12    1    3    3    0    0 -0.15554566205E+02 -0.60370149296E+00  0.78366497488E+01  0.17427623608E+02  0.00000000000E+00 0.  1.
</event>
<event>
 7    1  0.3528441E-013  0.5930197E+02  0.7816164E-02  0.1266605E+00
        -11   -1    0    0    0    0  0.00000000000E+00  0.00000000000E+00  0.45593999997E+02  0.45594000000E+02  0.51100000000E-03 0.  1.
         11   -1    0    0    0    0 -0.00000000000E+00 -0.00000000000E+00 -0.45593999997E+02  0.45594000000E+02  0.51100000000E-03 0. -1.
    9900012    2    1    2    0    0  0.12744080749E+02 -0.83731413428E+01 -0.28003529236E+02  0.59301972656E+02  0.50000052212E+02 0.  0.
        -12    1    1    2    0    0 -0.12744080749E+02  0.83731413428E+01  0.28003529236E+02  0.31886027344E+02  0.00000000000E+00 0.  1.
         11    1    3    3    0    0 -0.45760369918E+01 -0.66934894929E+01 -0.81650364062E+01  0.11506986396E+02  0.51100000000E-03 0. -1.
        -11    1    3    3    0    0  0.16467277476E+02 -0.18634228077E+02 -0.52593296774E+01  0.25417832961E+02  0.51100000000E-03 0.  1.
        -12    1    3    3    0    0  0.85284026465E+00  0.16954576227E+02 -0.14579163152E+02  0.22377153300E+02  0.00000000000E+00 0.  1.
</event>
<event>
 7    1  0.3528441E-013  0.5930191E+02  0.7816164E-02  0.1266605E+00
        -11   -1    0    0    0    0  0.00000000000E+00  0.00000000000E+00  0.45593999997E+02  0.45594000000E+02  0.51100000000E-03 0.  1.
         11   -1    0    0    0    0 -0.00000000000E+00 -0.00000000000E+00 -0.45593999997E+02  0.45594000000E+02  0.51100000000E-03 0. -1.
    9900012    2    1    2    0    0  0.29228800542E+02 -0.12435558266E+02 -0.27851283407E+01  0.59301908512E+02  0.49999935228E+02 0.  0.
        -12    1    1    2    0    0 -0.29228800542E+02  0.12435558266E+02  0.27851283407E+01  0.31886091488E+02  0.00000000000E+00 0.  1.
         11    1    3    3    0    0 -0.10879826616E+02 -0.11283991737E+02 -0.40575729943E+01  0.16191448224E+02  0.51100000000E-03 0. -1.
        -11    1    3    3    0    0  0.13225742039E+02  0.59173689593E+01  0.43895676280E+01  0.15139478595E+02  0.51100000000E-03 0.  1.
        -12    1    3    3    0    0  0.26882885119E+02 -0.70689354874E+01 -0.31171229744E+01  0.27970981693E+02  0.00000000000E+00 0.  1.
</event>
<event>
 7    1  0.3528441E-013  0.5930182E+02  0.7816164E-02  0.1266605E+00
        -11   -1    0    0    0    0  0.00000000000E+00  0.00000000000E+00  0.45593999997E+02  0.45594000000E+02  0.51100000000E-03 0.  1.
         11   -1    0    0    0    0 -0.00000000000E+00 -0.00000000000E+00 -0.45593999997E+02  0.45594000000E+02  0.51100000000E-03 0. -1.
    9900012    2    1    2    0    0  0.20625246668E+01 -0.22813139915E+02  0.22181859323E+02  0.59301823625E+02  0.49999780414E+02 0.  0.
        -12    1    1    2    0    0 -0.20625246668E+01  0.22813139915E+02 -0.22181859323E+02  0.31886176375E+02  0.00000000000E+00 0.  1.
         11    1    3    3    0    0  0.45640014077E+01 -0.10819999457E+02  0.19502613830E+01  0.11904033637E+02  0.51100000000E-03 0. -1.
        -11    1    3    3    0    0  0.68412860000E+00 -0.24738064756E+02  0.23208743966E+02  0.33927653567E+02  0.51100000000E-03 0.  1.
        -12    1    3    3    0    0 -0.31856053408E+01  0.12744924298E+02 -0.29771460262E+01  0.13470136422E+02  0.00000000000E+00 0.  1.
</event>
<event>
 7    1  0.3528441E-013  0.5930195E+02  0.7816164E-02  0.1266605E+00
        -11   -1    0    0    0    0  0.00000000000E+00  0.00000000000E+00  0.45593999997E+02  0.45594000000E+02  0.51100000000E-03 0. -1.
         11   -1    0    0    0    0 -0.00000000000E+00 -0.00000000000E+00 -0.45593999997E+02  0.45594000000E+02  0.51100000000E-03 0.  1.
    9900012    2    1    2    0    0  0.21978499349E+02 -0.16987504238E+02  0.15655374926E+02  0.59301945086E+02  0.50000001930E+02 0.  0.
        -12    1    1    2    0    0 -0.21978499349E+02  0.16987504238E+02 -0.15655374926E+02  0.31886054914E+02  0.00000000000E+00 0.  1.
         11    1    3    3    0    0 -0.87731868833E+01 -0.83641507812E+01  0.12599504920E+02  0.17483573744E+02  0.51100000000E-03 0. -1.
        -11    1    3    3    0    0  0.69007839033E+01 -0.42639239935E+01 -0.11095627242E+02  0.13744628422E+02  0.51100000000E-03 0.  1.
         12    1    3    3    0    0  0.23850902329E+02 -0.43594294638E+01  0.14151497249E+02  0.28073742920E+02  0.00000000000E+00 0. -1.
</event>
<event>
 7    1  0.3528441E-013  0.5930196E+02  0.7816164E-02  0.1266605E+00
        -11   -1    0    0    0    0  0.00000000000E+00  0.00000000000E+00  0.45593999997E+02  0.45594000000E+02  0.51100000000E-03 0.  1.
         11   -1    0    0    0    0 -0.00000000000E+00 -0.00000000000E+00 -0.45593999997E+02  0.45594000000E+02  0.51100000000E-03 0. -1.
    9900012    2    1    2    0    0 -0.18344645598E+01 -0.22334004467E+02 -0.22683618101E+02  0.59301960015E+02  0.50000029157E+02 0.  0.
        -12    1    1    2    0    0  0.18344645598E+01  0.22334004467E+02  0.22683618101E+02  0.31886039985E+02  0.00000000000E+00 0.  1.
         11    1    3    3    0    0 -0.43338638297E+01 -0.16629549421E+00 -0.17286014924E+02  0.17821794020E+02  0.51100000000E-03 0. -1.
        -11    1    3    3    0    0  0.70060587776E+01 -0.12463969192E+02 -0.19248663019E+02  0.23978040285E+02  0.51100000000E-03 0.  1.
        -12    1    3    3    0    0 -0.45066595078E+01 -0.97037397803E+01  0.13851059841E+02  0.17502125710E+02  0.00000000000E+00 0.  1.
</event>
<event>
 7    1  0.3528441E-013  0.5930192E+02  0.7816164E-02  0.1266605E+00
        -11   -1    0    0    0    0  0.00000000000E+00  0.00000000000E+00  0.45593999997E+02  0.45594000000E+02  0.51100000000E-03 0.  1.
         11   -1    0    0    0    0 -0.00000000000E+00 -0.00000000000E+00 -0.45593999997E+02  0.45594000000E+02  0.51100000000E-03 0. -1.
    9900012    2    1    2    0    0  0.18137076531E+02 -0.16326279558E+02 -0.20523678471E+02  0.59301916401E+02  0.49999949616E+02 0.  0.
        -12    1    1    2    0    0 -0.18137076531E+02  0.16326279558E+02  0.20523678471E+02  0.31886083599E+02  0.00000000000E+00 0.  1.
         11    1    3    3    0    0  0.10469170771E+01  0.43453496784E+01 -0.48565345532E+01  0.66003050930E+01  0.51100000000E-03 0. -1.
        -11    1    3    3    0    0 -0.10271924529E+02 -0.15934511916E+02  0.30657258222E+01  0.19204681164E+02  0.51100000000E-03 0.  1.
         12    1    3    3    0    0  0.27362083983E+02 -0.47371173196E+01 -0.18732869740E+02  0.33496930144E+02  0.00000000000E+00 0. -1.
</event>
<event>
 7    1  0.3528441E-013  0.5930195E+02  0.7816164E-02  0.1266605E+00
        -11   -1    0    0    0    0  0.00000000000E+00  0.00000000000E+00  0.45593999997E+02  0.45594000000E+02  0.51100000000E-03 0.  1.
         11   -1    0    0    0    0 -0.00000000000E+00 -0.00000000000E+00 -0.45593999997E+02  0.45594000000E+02  0.51100000000E-03 0. -1.
    9900012    2    1    2    0    0 -0.30524585371E+02  0.89467045154E+01  0.22195741215E+01  0.59301947516E+02  0.50000006361E+02 0.  0.
        -12    1    1    2    0    0  0.30524585371E+02 -0.89467045154E+01 -0.22195741215E+01  0.31886052484E+02  0.00000000000E+00 0.  1.
         11    1    3    3    0    0  0.20449943054E+01  0.16565009294E+01 -0.33123328791E+01  0.42305491844E+01  0.51100000000E-03 0. -1.
        -11    1    3    3    0    0  0.90182537155E+01 -0.63415387085E+01  0.13514916268E+01  0.11107229319E+02  0.51100000000E-03 0.  1.
         12    1    3    3    0    0 -0.41587833392E+02  0.13631742294E+02  0.41804153738E+01  0.43964169012E+02  0.00000000000E+00 0. -1.
</event>
<event>
 7    1  0.3528441E-013  0.5930195E+02  0.7816164E-02  0.1266605E+00
        -11   -1    0    0    0    0  0.00000000000E+00  0.00000000000E+00  0.45593999997E+02  0.45594000000E+02  0.51100000000E-03 0. -1.
         11   -1    0    0    0    0 -0.00000000000E+00 -0.00000000000E+00 -0.45593999997E+02  0.45594000000E+02  0.51100000000E-03 0.  1.
    9900012    2    1    2    0    0  0.28143466007E+02  0.88555077948E+01  0.12093203495E+02  0.59301948693E+02  0.50000008508E+02 0.  0.
        -12    1    1    2    0    0 -0.28143466007E+02 -0.88555077948E+01 -0.12093203495E+02  0.31886051307E+02  0.00000000000E+00 0.  1.
         11    1    3    3    0    0  0.27158500179E+00  0.10081255533E+02  0.19075459200E+02  0.21577270807E+02  0.51100000000E-03 0. -1.
        -11    1    3    3    0    0 -0.26868548320E+01 -0.25065024034E+01 -0.61062502364E+01  0.71265724859E+01  0.51100000000E-03 0.  1.
         12    1    3    3    0    0  0.30558735837E+02  0.12807546655E+01 -0.87600546881E+00  0.30598105400E+02  0.00000000000E+00 0. -1.
</event>
<event>
 7    1  0.3528441E-013  0.5930190E+02  0.7816164E-02  0.1266605E+00
        -11   -1    0    0    0    0  0.00000000000E+00  0.00000000000E+00  0.45593999997E+02  0.45594000000E+02  0.51100000000E-03 0.  1.
         11   -1    0    0    0    0 -0.00000000000E+00 -0.00000000000E+00 -0.45593999997E+02  0.45594000000E+02  0.51100000000E-03 0. -1.
    9900012    2    1    2    0    0  0.29161859361E+02  0.88000329475E+01 -0.94270347826E+01  0.59301896348E+02  0.49999913044E+02 0.  0.
        -12    1    1    2    0    0 -0.29161859361E+02 -0.88000329475E+01  0.94270347826E+01  0.31886103652E+02  0.00000000000E+00 0.  1.
         11    1    3    3    0    0 -0.84494695967E+01  0.10675723117E+02 -0.62157319482E+01  0.14966627023E+02  0.51100000000E-03 0. -1.
        -11    1    3    3    0    0  0.60538586740E+01 -0.63440667301E+01 -0.82824066070E+01  0.12062116190E+02  0.51100000000E-03 0.  1.
        -12    1    3    3    0    0  0.31557470284E+02  0.44683765605E+01  0.50711037726E+01  0.32273153135E+02  0.00000000000E+00 0.  1.
</event>
<event>
 7    1  0.3528441E-013  0.5930194E+02  0.7816164E-02  0.1266605E+00
        -11   -1    0    0    0    0  0.00000000000E+00  0.00000000000E+00  0.45593999997E+02  0.45594000000E+02  0.51100000000E-03 0. -1.
         11   -1    0    0    0    0 -0.00000000000E+00 -0.00000000000E+00 -0.45593999997E+02  0.45594000000E+02  0.51100000000E-03 0.  1.
    9900012    2    1    2    0    0 -0.66491491576E+01  0.44552988283E+01  0.30865194083E+02  0.59301935991E+02  0.49999985344E+02 0.  0.
        -12    1    1    2    0    0  0.66491491576E+01 -0.44552988283E+01 -0.30865194083E+02  0.31886064009E+02  0.00000000000E+00 0.  1.
         11    1    3    3    0    0 -0.43140731907E+01 -0.72413333610E+01  0.38265628606E+01  0.92569282122E+01  0.51100000000E-03 0. -1.
        -11    1    3    3    0    0 -0.16874139091E+02  0.16581270891E+02  0.25253710298E+02  0.34603829246E+02  0.51100000000E-03 0.  1.
         12    1    3    3    0    0  0.14539063124E+02 -0.48846387021E+01  0.17849209247E+01  0.15441178533E+02  0.00000000000E+00 0. -1.
</event>
<event>
 7    1  0.3528441E-013  0.5930195E+02  0.7816164E-02  0.1266605E+00
        -11   -1    0    0    0    0  0.00000000000E+00  0.00000000000E+00  0.45593999997E+02  0.45594000000E+02  0.51100000000E-03 0.  1.
         11   -1    0    0    0    0 -0.00000000000E+00 -0.00000000000E+00 -0.45593999997E+02  0.45594000000E+02  0.51100000000E-03 0. -1.
    9900012    2    1    2    0    0  0.12219606012E+02  0.23621896976E+02 -0.17589988843E+02  0.59301945128E+02  0.50000002006E+02 0.  0.
        -12    1    1    2    0    0 -0.12219606012E+02 -0.23621896976E+02  0.17589988843E+02  0.31886054872E+02  0.00000000000E+00 0.  1.
         11    1    3    3    0    0  0.19172015611E+01  0.17977942117E+02  0.10326393176E+01  0.18109345897E+02  0.51100000000E-03 0. -1.
        -11    1    3    3    0    0  0.29307136806E+01 -0.11649846198E+02  0.31578697825E+01  0.12420955718E+02  0.51100000000E-03 0.  1.
         12    1    3    3    0    0  0.73716907705E+01  0.17293801057E+02 -0.21780497943E+02  0.28771643513E+02  0.00000000000E+00 0. -1.
</event>
<event>
 7    1  0.3528441E-013  0.5930191E+02  0.7816164E-02  0.1266605E+00
        -11   -1    0    0    0    0  0.00000000000E+00  0.00000000000E+00  0.45593999997E+02  0.45594000000E+02  0.51100000000E-03 0.  1.
         11   -1    0    0    0    0 -0.00000000000E+00 -0.00000000000E+00 -0.45593999997E+02  0.45594000000E+02  0.51100000000E-03 0. -1.
    9900012    2    1    2    0    0 -0.28229517234E+02  0.18945507779E+01 -0.14704695850E+02  0.59301905132E+02  0.49999929063E+02 0.  0.
        -12    1    1    2    0    0  0.28229517234E+02 -0.18945507779E+01  0.14704695850E+02  0.31886094868E+02  0.00000000000E+00 0.  1.
         11    1    3    3    0    0  0.16466188197E+01  0.10589742587E+02 -0.27606695821E+01  0.11066855850E+02  0.51100000000E-03 0. -1.
        -11    1    3    3    0    0 -0.44999849443E+01  0.32042308086E+01 -0.18620977963E+02  0.19423124881E+02  0.51100000000E-03 0.  1.
         12    1    3    3    0    0 -0.25376151109E+02 -0.11899422618E+02  0.66769516956E+01  0.28811924401E+02  0.00000000000E+00 0. -1.
</event>
<event>
 7    1  0.3528441E-013  0.5930195E+02  0.7816164E-02  0.1266605E+00
        -11   -1    0    0    0    0  0.00000000000E+00  0.00000000000E+00  0.45593999997E+02  0.45594000000E+02  0.51100000000E-03 0. -1.
         11   -1    0    0    0    0 -0.00000000000E+00 -0.00000000000E+00 -0.45593999997E+02  0.45594000000E+02  0.51100000000E-03 0.  1.
    9900012    2    1    2    0    0  0.29716610924E+02  0.94235049604E+01  0.66963383292E+01  0.59301947288E+02  0.50000005945E+02 0.  0.
        -12    1    1    2    0    0 -0.29716610924E+02 -0.94235049604E+01 -0.66963383292E+01  0.31886052712E+02  0.00000000000E+00 0.  1.
         11    1    3    3    0    0  0.18066063505E+02  0.12847229134E+02  0.20795217308E+02  0.30395312305E+02  0.51100000000E-03 0. -1.
        -11    1    3    3    0    0  0.16512701590E+02 -0.15938984810E+01 -0.32877762788E+01  0.16912105111E+02  0.51100000000E-03 0.  1.
        -12    1    3    3    0    0 -0.48621541701E+01 -0.18298256930E+01 -0.10811102700E+02  0.11994529871E+02  0.00000000000E+00 0.  1.
</event>
<event>
 7    1  0.3528441E-013  0.5930195E+02  0.7816164E-02  0.1266605E+00
        -11   -1    0    0    0    0  0.00000000000E+00  0.00000000000E+00  0.45593999997E+02  0.45594000000E+02  0.51100000000E-03 0.  1.
         11   -1    0    0    0    0 -0.00000000000E+00 -0.00000000000E+00 -0.45593999997E+02  0.45594000000E+02  0.51100000000E-03 0. -1.
    9900012    2    1    2    0    0 -0.28797847177E+02  0.99278109183E+01 -0.94256356988E+01  0.59301952268E+02  0.50000015028E+02 0.  0.
        -12    1    1    2    0    0  0.28797847177E+02 -0.99278109183E+01  0.94256356988E+01  0.31886047732E+02  0.00000000000E+00 0.  1.
         11    1    3    3    0    0 -0.44387325611E+01  0.21470642422E+02 -0.38063866706E+01  0.22252627092E+02  0.51100000000E-03 0. -1.
        -11    1    3    3    0    0  0.50713116631E+01 -0.32899487787E+00 -0.14165724311E+01  0.52757101254E+01  0.51100000000E-03 0.  1.
         12    1    3    3    0    0 -0.29430426279E+02 -0.11213836625E+02 -0.42026765970E+01  0.31773615051E+02  0.00000000000E+00 0. -1.
</event>
<event>
 7    1  0.3528441E-013  0.5930204E+02  0.7816164E-02  0.1266604E+00
        -11   -1    0    0    0    0  0.00000000000E+00  0.00000000000E+00  0.45593999997E+02  0.45594000000E+02  0.51100000000E-03 0.  1.
         11   -1    0    0    0    0 -0.00000000000E+00 -0.00000000000E+00 -0.45593999997E+02  0.45594000000E+02  0.51100000000E-03 0. -1.
    9900012    2    1    2    0    0 -0.11128019235E+01 -0.21830899036E+02 -0.23213957176E+02  0.59302042454E+02  0.50000179505E+02 0.  0.
        -12    1    1    2    0    0  0.11128019235E+01  0.21830899036E+02  0.23213957176E+02  0.31885957546E+02  0.00000000000E+00 0.  1.
         11    1    3    3    0    0 -0.84480528842E+01 -0.23062352155E+02 -0.10517797364E+02  0.26718266151E+02  0.51100000000E-03 0. -1.
        -11    1    3    3    0    0  0.73513224471E+01 -0.48692777826E+01  0.74441104186E+01  0.11539782842E+02  0.51100000000E-03 0.  1.
         12    1    3    3    0    0 -0.16071486406E-01  0.61007309011E+01 -0.20140270231E+02  0.21043993461E+02  0.00000000000E+00 0. -1.
</event>
<event>
 7    1  0.3528441E-013  0.5930198E+02  0.7816164E-02  0.1266605E+00
        -11   -1    0    0    0    0  0.00000000000E+00  0.00000000000E+00  0.45593999997E+02  0.45594000000E+02  0.51100000000E-03 0. -1.
         11   -1    0    0    0    0 -0.00000000000E+00 -0.00000000000E+00 -0.45593999997E+02  0.45594000000E+02  0.51100000000E-03 0.  1.
    9900012    2    1    2    0    0  0.26823435355E+02 -0.88831792585E+01  0.14775335513E+02  0.59301982727E+02  0.50000070578E+02 0.  0.
        -12    1    1    2    0    0 -0.26823435355E+02  0.88831792585E+01 -0.14775335513E+02  0.31886017273E+02  0.00000000000E+00 0.  1.
         11    1    3    3    0    0  0.13423286202E+02 -0.29875834799E+01  0.76697155237E+01  0.15745945636E+02  0.51100000000E-03 0. -1.
        -11    1    3    3    0    0  0.16978868668E+02  0.14308872182E+02  0.60323731199E+01  0.23009027144E+02  0.51100000000E-03 0.  1.
        -12    1    3    3    0    0 -0.35787195144E+01 -0.20204467961E+02  0.10732468696E+01  0.20547009947E+02  0.00000000000E+00 0.  1.
</event>
<event>
 7    1  0.3528441E-013  0.5930196E+02  0.7816164E-02  0.1266605E+00
        -11   -1    0    0    0    0  0.00000000000E+00  0.00000000000E+00  0.45593999997E+02  0.45594000000E+02  0.51100000000E-03 0.  1.
         11   -1    0    0    0    0 -0.00000000000E+00 -0.00000000000E+00 -0.45593999997E+02  0.45594000000E+02  0.51100000000E-03 0. -1.
    9900012    2    1    2    0    0  0.25949040189E+02  0.16743867375E+02 -0.79378728061E+01  0.59301959071E+02  0.50000027435E+02 0.  0.
        -12    1    1    2    0    0 -0.25949040189E+02 -0.16743867375E+02  0.79378728061E+01  0.31886040929E+02  0.00000000000E+00 0.  1.
         11    1    3    3    0    0 -0.81690783578E+01  0.90798670227E+01 -0.13114200011E+02  0.17920939388E+02  0.51100000000E-03 0. -1.
        -11    1    3    3    0    0  0.16959703076E+01 -0.53423556822E+01  0.30536221380E+01  0.63829215836E+01  0.51100000000E-03 0.  1.
        -12    1    3    3    0    0  0.32422148240E+02  0.13006356035E+02  0.21227050666E+01  0.34998098100E+02  0.00000000000E+00 0.  1.
</event>
<event>
 7    1  0.3528441E-013  0.5930194E+02  0.7816164E-02  0.1266605E+00
        -11   -1    0    0    0    0  0.00000000000E+00  0.00000000000E+00  0.45593999997E+02  0.45594000000E+02  0.51100000000E-03 0.  1.
         11   -1    0    0    0    0 -0.00000000000E+00 -0.00000000000E+00 -0.45593999997E+02  0.45594000000E+02  0.51100000000E-03 0. -1.
    9900012    2    1    2    0    0 -0.24659729183E+02  0.19067597812E+02 -0.67116003766E+01  0.59301935499E+02  0.49999984446E+02 0.  0.
        -12    1    1    2    0    0  0.24659729183E+02 -0.19067597812E+02  0.67116003766E+01  0.31886064501E+02  0.00000000000E+00 0.  1.
         11    1    3    3    0    0  0.46208079114E+00  0.66832364055E+00  0.18895422026E+01  0.20568289045E+01  0.51100000000E-03 0. -1.
        -11    1    3    3    0    0  0.90497477292E+01  0.20100681658E+02 -0.64291512692E+01  0.22962345773E+02  0.51100000000E-03 0.  1.
         12    1    3    3    0    0 -0.34171557704E+02 -0.17014074867E+01 -0.21719913101E+01  0.34282760822E+02  0.00000000000E+00 0. -1.
</event>
<event>
 7    1  0.3528441E-013  0.5930193E+02  0.7816164E-02  0.1266605E+00
        -11   -1    0    0    0    0  0.00000000000E+00  0.00000000000E+00  0.45593999997E+02  0.45594000000E+02  0.51100000000E-03 0.  1.
         11   -1    0    0    0    0 -0.00000000000E+00 -0.00000000000E+00 -0.45593999997E+02  0.45594000000E+02  0.51100000000E-03 0. -1.
    9900012    2    1    2    0    0 -0.23432412578E+02  0.13680649967E+02 -0.16747638389E+02  0.59301928835E+02  0.49999972292E+02 0.  0.
        -12    1    1    2    0    0  0.23432412578E+02 -0.13680649967E+02  0.16747638389E+02  0.31886071165E+02  0.00000000000E+00 0.  1.
         11    1    3    3    0    0 -0.17866651095E+02  0.11969921970E+02 -0.28968832173E+02  0.36078934173E+02  0.51100000000E-03 0. -1.
        -11    1    3    3    0    0 -0.98987315603E+00 -0.39174249692E+01 -0.38559945661E+01  0.55852270866E+01  0.51100000000E-03 0.  1.
         12    1    3    3    0    0 -0.45758883276E+01  0.56281529664E+01  0.16077188350E+02  0.17637767576E+02  0.00000000000E+00 0. -1.
</event>
<event>
 7    1  0.3528441E-013  0.5930202E+02  0.7816164E-02  0.1266605E+00
        -11   -1    0    0    0    0  0.00000000000E+00  0.00000000000E+00  0.45593999997E+02  0.45594000000E+02  0.51100000000E-03 0.  1.
         11   -1    0    0    0    0 -0.00000000000E+00 -0.00000000000E+00 -0.45593999997E+02  0.45594000000E+02  0.51100000000E-03 0. -1.
    9900012    2    1    2    0    0  0.68575800644E+01 -0.16436558263E+02 -0.26448613451E+02  0.59302015534E+02  0.50000130410E+02 0.  0.
        -12    1    1    2    0    0 -0.68575800644E+01  0.16436558263E+02  0.26448613451E+02  0.31885984466E+02  0.00000000000E+00 0.  1.
         11    1    3    3    0    0  0.12004866927E+01 -0.99135713590E+01  0.51909819502E+01  0.11254615020E+02  0.51100000000E-03 0. -1.
        -11    1    3    3    0    0  0.20245904918E+02 -0.16153347834E+01 -0.14173054842E+02  0.24766539044E+02  0.51100000000E-03 0.  1.
         12    1    3    3    0    0 -0.14588811546E+02 -0.49076521205E+01 -0.17466540560E+02  0.23280861470E+02  0.00000000000E+00 0. -1.
</event>
<event>
 7    1  0.3528441E-013  0.5930195E+02  0.7816164E-02  0.1266605E+00
        -11   -1    0    0    0    0  0.00000000000E+00  0.00000000000E+00  0.45593999997E+02  0.45594000000E+02  0.51100000000E-03 0.  1.
         11   -1    0    0    0    0 -0.00000000000E+00 -0.00000000000E+00 -0.45593999997E+02  0.45594000000E+02  0.51100000000E-03 0. -1.
    9900012    2    1    2    0    0  0.29984853504E+02 -0.83809482189E+00 -0.10813250989E+02  0.59301949138E+02  0.50000009320E+02 0.  0.
        -12    1    1    2    0    0 -0.29984853504E+02  0.83809482189E+00  0.10813250989E+02  0.31886050862E+02  0.00000000000E+00 0.  1.
         11    1    3    3    0    0  0.58402011326E+01 -0.80036288837E+01  0.55902161985E+01  0.11376139151E+02  0.51100000000E-03 0. -1.
        -11    1    3    3    0    0  0.11016987629E+02 -0.68344151821E+01  0.92221413630E+01  0.15910095502E+02  0.51100000000E-03 0.  1.
         12    1    3    3    0    0  0.13127664743E+02  0.13999949244E+02 -0.25625608550E+02  0.32015714485E+02  0.00000000000E+00 0. -1.
</event>
<event>
 7    1  0.3528441E-013  0.5930193E+02  0.7816164E-02  0.1266605E+00
        -11   -1    0    0    0    0  0.00000000000E+00  0.00000000000E+00  0.45593999997E+02  0.45594000000E+02  0.51100000000E-03 0. -1.
         11   -1    0    0    0    0 -0.00000000000E+00 -0.00000000000E+00 -0.45593999997E+02  0.45594000000E+02  0.51100000000E-03 0.  1.
    9900012    2    1    2    0    0  0.28791338561E+02 -0.12956564989E+02 -0.44618068142E+01  0.59301929805E+02  0.49999974061E+02 0.  0.
        -12    1    1    2    0    0 -0.28791338561E+02  0.12956564989E+02  0.44618068142E+01  0.31886070195E+02  0.00000000000E+00 0.  1.
         11    1    3    3    0    0 -0.27224764974E+01 -0.67972962813E+01  0.10074478637E+02  0.12454325959E+02  0.51100000000E-03 0.  1.
        -11    1    3    3    0    0 -0.35523357864E+01 -0.85845464914E+01 -0.18126581894E+01  0.94656884575E+01  0.51100000000E-03 0. -1.
        -12    1    3    3    0    0  0.35066150845E+02  0.24252777834E+01 -0.12723627262E+02  0.37381915388E+02  0.00000000000E+00 0.  1.
</event>
<event>
 7    1  0.3528441E-013  0.5930193E+02  0.7816164E-02  0.1266605E+00
        -11   -1    0    0    0    0  0.00000000000E+00  0.00000000000E+00  0.45593999997E+02  0.45594000000E+02  0.51100000000E-03 0.  1.
         11   -1    0    0    0    0 -0.00000000000E+00 -0.00000000000E+00 -0.45593999997E+02  0.45594000000E+02  0.51100000000E-03 0. -1.
    9900012    2    1    2    0    0  0.21971534102E+01  0.31728024419E+02 -0.22861342597E+01  0.59301930526E+02  0.49999975377E+02 0.  0.
        -12    1    1    2    0    0 -0.21971534102E+01 -0.31728024419E+02  0.22861342597E+01  0.31886069474E+02  0.00000000000E+00 0.  1.
         11    1    3    3    0    0  0.80033955866E+01  0.28630251663E+02 -0.27446346089E+00  0.29729126823E+02  0.51100000000E-03 0. -1.
        -11    1    3    3    0    0 -0.10489076762E+02  0.13960528878E+02  0.54563398583E+00  0.17470398237E+02  0.51100000000E-03 0.  1.
        -12    1    3    3    0    0  0.46828345851E+01 -0.10862756122E+02 -0.25573047846E+01  0.12102405466E+02  0.00000000000E+00 0.  1.
</event>
<event>
 7    1  0.3528441E-013  0.5930194E+02  0.7816164E-02  0.1266605E+00
        -11   -1    0    0    0    0  0.00000000000E+00  0.00000000000E+00  0.45593999997E+02  0.45594000000E+02  0.51100000000E-03 0.  1.
         11   -1    0    0    0    0 -0.00000000000E+00 -0.00000000000E+00 -0.45593999997E+02  0.45594000000E+02  0.51100000000E-03 0. -1.
    9900012    2    1    2    0    0 -0.10127608822E+02 -0.17814687822E+02 -0.24429269713E+02  0.59301940642E+02  0.49999993826E+02 0.  0.
        -12    1    1    2    0    0  0.10127608822E+02  0.17814687822E+02  0.24429269713E+02  0.31886059358E+02  0.00000000000E+00 0.  1.
         11    1    3    3    0    0  0.87488149741E+00  0.57983599457E+01 -0.18453795366E+01  0.61475053143E+01  0.51100000000E-03 0. -1.
        -11    1    3    3    0    0 -0.10343741100E+02  0.91298968775E+01 -0.13182639563E+02  0.19082190206E+02  0.51100000000E-03 0.  1.
         12    1    3    3    0    0 -0.65874921915E+00 -0.32742944645E+02 -0.94012506134E+01  0.34072245122E+02  0.00000000000E+00 0. -1.
</event>
<event>
 7    1  0.3528441E-013  0.5930198E+02  0.7816164E-02  0.1266605E+00
        -11   -1    0    0    0    0  0.00000000000E+00  0.00000000000E+00  0.45593999997E+02  0.45594000000E+02  0.51100000000E-03 0.  1.
         11   -1    0    0    0    0 -0.00000000000E+00 -0.00000000000E+00 -0.45593999997E+02  0.45594000000E+02  0.51100000000E-03 0. -1.
    9900012    2    1    2    0    0 -0.24321580065E+02  0.16409740301E+02 -0.12485979197E+02  0.59301976257E+02  0.50000058778E+02 0.  0.
        -12    1    1    2    0    0  0.24321580065E+02 -0.16409740301E+02  0.12485979197E+02  0.31886023743E+02  0.00000000000E+00 0.  1.
         11    1    3    3    0    0  0.26157350224E+01  0.78871440385E+01 -0.11208538876E+02  0.13952793798E+02  0.51100000000E-03 0. -1.
        -11    1    3    3    0    0 -0.82924682162E+01  0.15314312453E+02  0.12286347268E+02  0.21313083411E+02  0.51100000000E-03 0.  1.
        -12    1    3    3    0    0 -0.18644846872E+02 -0.67917161900E+01 -0.13563787589E+02  0.24036099048E+02  0.00000000000E+00 0.  1.
</event>
<event>
 7    1  0.3528441E-013  0.5930197E+02  0.7816164E-02  0.1266605E+00
        -11   -1    0    0    0    0  0.00000000000E+00  0.00000000000E+00  0.45593999997E+02  0.45594000000E+02  0.51100000000E-03 0. -1.
         11   -1    0    0    0    0 -0.00000000000E+00 -0.00000000000E+00 -0.45593999997E+02  0.45594000000E+02  0.51100000000E-03 0.  1.
    9900012    2    1    2    0    0 -0.32955382759E+01 -0.53925965619E+01  0.31253455024E+02  0.59301966676E+02  0.50000041305E+02 0.  0.
        -12    1    1    2    0    0  0.32955382759E+01  0.53925965619E+01 -0.31253455024E+02  0.31886033324E+02  0.00000000000E+00 0.  1.
         11    1    3    3    0    0 -0.13007819777E+02 -0.43640015481E+00 -0.26079690875E+01  0.13273858650E+02  0.51100000000E-03 0. -1.
        -11    1    3    3    0    0  0.64171075948E+01 -0.87426533236E+01 -0.92226775573E+00  0.10884109293E+02  0.51100000000E-03 0.  1.
         12    1    3    3    0    0  0.32951739062E+01  0.37864569166E+01  0.34783691867E+02  0.35143998733E+02  0.00000000000E+00 0. -1.
</event>
<event>
 7    1  0.3528441E-013  0.5930193E+02  0.7816164E-02  0.1266605E+00
        -11   -1    0    0    0    0  0.00000000000E+00  0.00000000000E+00  0.45593999997E+02  0.45594000000E+02  0.51100000000E-03 0. -1.
         11   -1    0    0    0    0 -0.00000000000E+00 -0.00000000000E+00 -0.45593999997E+02  0.45594000000E+02  0.51100000000E-03 0.  1.
    9900012    2    1    2    0    0 -0.60727121888E+01  0.10655792446E+02  0.29432939958E+02  0.59301926228E+02  0.49999967538E+02 0.  0.
        -12    1    1    2    0    0  0.60727121888E+01 -0.10655792446E+02 -0.29432939958E+02  0.31886073772E+02  0.00000000000E+00 0.  1.
         11    1    3    3    0    0 -0.15410852294E+02  0.12470691341E+02  0.28341117008E+02  0.34586578675E+02  0.51100000000E-03 0. -1.
        -11    1    3    3    0    0 -0.56125891297E+01  0.39079389876E+01  0.47086193055E+01  0.83032668206E+01  0.51100000000E-03 0.  1.
        -12    1    3    3    0    0  0.14950729235E+02 -0.57228378822E+01 -0.36167963551E+01  0.16412080732E+02  0.00000000000E+00 0.  1.
</event>
<event>
 7    1  0.3528441E-013  0.5930193E+02  0.7816164E-02  0.1266605E+00
        -11   -1    0    0    0    0  0.00000000000E+00  0.00000000000E+00  0.45593999997E+02  0.45594000000E+02  0.51100000000E-03 0.  1.
         11   -1    0    0    0    0 -0.00000000000E+00 -0.00000000000E+00 -0.45593999997E+02  0.45594000000E+02  0.51100000000E-03 0. -1.
    9900012    2    1    2    0    0  0.27451842904E+02  0.69239995758E+01 -0.14668883267E+02  0.59301928037E+02  0.49999970837E+02 0.  0.
        -12    1    1    2    0    0 -0.27451842904E+02 -0.69239995758E+01  0.14668883267E+02  0.31886071963E+02  0.00000000000E+00 0.  1.
         11    1    3    3    0    0  0.22947083454E+01  0.11442924691E+02 -0.52876416565E+01  0.12812703322E+02  0.51100000000E-03 0. -1.
        -11    1    3    3    0    0 -0.47957014337E+01  0.39195285701E+01 -0.13735408564E+02  0.15067279288E+02  0.51100000000E-03 0.  1.
         12    1    3    3    0    0  0.29952835992E+02 -0.84384536852E+01  0.43541669537E+01  0.31421945427E+02  0.00000000000E+00 0. -1.
</event>
<event>
 7    1  0.3528441E-013  0.5930194E+02  0.7816164E-02  0.1266605E+00
        -11   -1    0    0    0    0  0.00000000000E+00  0.00000000000E+00  0.45593999997E+02  0.45594000000E+02  0.51100000000E-03 0. -1.
         11   -1    0    0    0    0 -0.00000000000E+00 -0.00000000000E+00 -0.45593999997E+02  0.45594000000E+02  0.51100000000E-03 0.  1.
    9900012    2    1    2    0    0 -0.26682711935E+02  0.95679934798E+00  0.17430957537E+02  0.59301939380E+02  0.49999991524E+02 0.  0.
        -12    1    1    2    0    0  0.26682711935E+02 -0.95679934798E+00 -0.17430957537E+02  0.31886060620E+02  0.00000000000E+00 0.  1.
         11    1    3    3    0    0 -0.44164185733E+01 -0.14447852301E+02  0.67409639510E+01  0.16543451405E+02  0.51100000000E-03 0.  1.
        -11    1    3    3    0    0 -0.23427241693E+02  0.16991251136E+02 -0.28465637042E+01  0.29079910483E+02  0.51100000000E-03 0. -1.
         12    1    3    3    0    0  0.11609483316E+01 -0.15865994868E+01  0.13536557290E+02  0.13678577493E+02  0.00000000000E+00 0. -1.
</event>
<event>
 7    1  0.3528441E-013  0.5930189E+02  0.7816164E-02  0.1266605E+00
        -11   -1    0    0    0    0  0.00000000000E+00  0.00000000000E+00  0.45593999997E+02  0.45594000000E+02  0.51100000000E-03 0.  1.
         11   -1    0    0    0    0 -0.00000000000E+00 -0.00000000000E+00 -0.45593999997E+02  0.45594000000E+02  0.51100000000E-03 0. -1.
    9900012    2    1    2    0    0  0.20102475684E+02 -0.23538201766E+02 -0.76529600200E+01  0.59301885968E+02  0.49999894113E+02 0.  0.
        -12    1    1    2    0    0 -0.20102475684E+02  0.23538201766E+02  0.76529600200E+01  0.31886114032E+02  0.00000000000E+00 0.  1.
         11    1    3    3    0    0 -0.81180704439E+01 -0.28431561952E+02 -0.60806049921E+01  0.30186595371E+02  0.51100000000E-03 0. -1.
        -11    1    3    3    0    0  0.52375868161E+01  0.13911861852E+01 -0.22242271611E+01  0.58578922304E+01  0.51100000000E-03 0.  1.
        -12    1    3    3    0    0  0.22982959312E+02  0.35021740016E+01  0.65187213323E+00  0.23257398366E+02  0.00000000000E+00 0.  1.
</event>
<event>
 7    1  0.3528441E-013  0.5930183E+02  0.7816164E-02  0.1266605E+00
        -11   -1    0    0    0    0  0.00000000000E+00  0.00000000000E+00  0.45593999997E+02  0.45594000000E+02  0.51100000000E-03 0.  1.
         11   -1    0    0    0    0 -0.00000000000E+00 -0.00000000000E+00 -0.45593999997E+02  0.45594000000E+02  0.51100000000E-03 0. -1.
    9900012    2    1    2    0    0 -0.18123772991E+01 -0.27008007163E+01 -0.31719844656E+02  0.59301834019E+02  0.49999799369E+02 0.  0.
        -12    1    1    2    0    0  0.18123772991E+01  0.27008007163E+01  0.31719844656E+02  0.31886165981E+02  0.00000000000E+00 0.  1.
         11    1    3    3    0    0 -0.15305173456E+01 -0.10358379556E+02 -0.57512397039E+01  0.11946349600E+02  0.51100000000E-03 0. -1.
        -11    1    3    3    0    0  0.41567894389E+01 -0.68459140363E+00  0.96368502824E+01  0.10517435403E+02  0.51100000000E-03 0.  1.
         12    1    3    3    0    0 -0.44386493925E+01  0.83421702433E+01 -0.35605455235E+02  0.36838049016E+02  0.00000000000E+00 0. -1.
</event>
<event>
 7    1  0.3528441E-013  0.5930195E+02  0.7816164E-02  0.1266605E+00
        -11   -1    0    0    0    0  0.00000000000E+00  0.00000000000E+00  0.45593999997E+02  0.45594000000E+02  0.51100000000E-03 0.  1.
         11   -1    0    0    0    0 -0.00000000000E+00 -0.00000000000E+00 -0.45593999997E+02  0.45594000000E+02  0.51100000000E-03 0. -1.
    9900012    2    1    2    0    0 -0.67875494842E+01  0.22324642714E+02 -0.21731534325E+02  0.59301951571E+02  0.50000013757E+02 0.  0.
        -12    1    1    2    0    0  0.67875494842E+01 -0.22324642714E+02  0.21731534325E+02  0.31886048429E+02  0.00000000000E+00 0.  1.
         11    1    3    3    0    0 -0.69765889152E+01  0.70739435480E+01 -0.82538727452E+01  0.12916651492E+02  0.51100000000E-03 0. -1.
        -11    1    3    3    0    0 -0.64540494811E+00 -0.82263284165E+01  0.10140351590E+02  0.13073475337E+02  0.51100000000E-03 0.  1.
         12    1    3    3    0    0  0.83444437910E+00  0.23477027582E+02 -0.23618013170E+02  0.33311824742E+02  0.00000000000E+00 0. -1.
</event>
<event>
 7    1  0.3528441E-013  0.5930196E+02  0.7816164E-02  0.1266605E+00
        -11   -1    0    0    0    0  0.00000000000E+00  0.00000000000E+00  0.45593999997E+02  0.45594000000E+02  0.51100000000E-03 0. -1.
         11   -1    0    0    0    0 -0.00000000000E+00 -0.00000000000E+00 -0.45593999997E+02  0.45594000000E+02  0.51100000000E-03 0.  1.
    9900012    2    1    2    0    0  0.20389131499E+02  0.18957328155E+02  0.15544215521E+02  0.59301959006E+02  0.50000027317E+02 0.  0.
        -12    1    1    2    0    0 -0.20389131499E+02 -0.18957328155E+02 -0.15544215521E+02  0.31886040994E+02  0.00000000000E+00 0.  1.
         11    1    3    3    0    0  0.63870718392E+01  0.10181103943E+02  0.19924893401E+02  0.23269098424E+02  0.51100000000E-03 0. -1.
        -11    1    3    3    0    0  0.13590347613E+02  0.15372255408E+02 -0.13653494615E+02  0.24645926642E+02  0.51100000000E-03 0.  1.
         12    1    3    3    0    0  0.41171204699E+00 -0.65960311954E+01  0.92728167358E+01  0.11386933940E+02  0.00000000000E+00 0. -1.
</event>
<event>
 7    1  0.3528441E-013  0.5930195E+02  0.7816164E-02  0.1266605E+00
        -11   -1    0    0    0    0  0.00000000000E+00  0.00000000000E+00  0.45593999997E+02  0.45594000000E+02  0.51100000000E-03 0.  1.
         11   -1    0    0    0    0 -0.00000000000E+00 -0.00000000000E+00 -0.45593999997E+02  0.45594000000E+02  0.51100000000E-03 0. -1.
    9900012    2    1    2    0    0  0.16960860791E+02 -0.26796609548E+02 -0.33153300301E+01  0.59301945129E+02  0.50000002008E+02 0.  0.
        -12    1    1    2    0    0 -0.16960860791E+02  0.26796609548E+02  0.33153300301E+01  0.31886054871E+02  0.00000000000E+00 0.  1.
         11    1    3    3    0    0  0.15069668599E+02 -0.11855581985E+02 -0.14099891353E+02  0.23800350256E+02  0.51100000000E-03 0. -1.
        -11    1    3    3    0    0  0.11364677742E+02 -0.97605371503E+01 -0.55034940018E+01  0.15959712783E+02  0.51100000000E-03 0.  1.
        -12    1    3    3    0    0 -0.94734855489E+01 -0.51804904121E+01  0.16288055325E+02  0.19541882090E+02  0.00000000000E+00 0.  1.
</event>
<event>
 7    1  0.3528441E-013  0.5930196E+02  0.7816164E-02  0.1266605E+00
        -11   -1    0    0    0    0  0.00000000000E+00  0.00000000000E+00  0.45593999997E+02  0.45594000000E+02  0.51100000000E-03 0.  1.
         11   -1    0    0    0    0 -0.00000000000E+00 -0.00000000000E+00 -0.45593999997E+02  0.45594000000E+02  0.51100000000E-03 0. -1.
    9900012    2    1    2    0    0  0.30503770968E+02 -0.55433683978E+01  0.74505289729E+01  0.59301962955E+02  0.50000034518E+02 0.  0.
        -12    1    1    2    0    0 -0.30503770968E+02  0.55433683978E+01 -0.74505289729E+01  0.31886037045E+02  0.00000000000E+00 0.  1.
         11    1    3    3    0    0  0.10076359064E+02 -0.63160508518E+01 -0.12750010725E+02  0.17435259794E+02  0.51100000000E-03 0. -1.
        -11    1    3    3    0    0 -0.64962686329E+01  0.50653818122E+01  0.54364447959E+00  0.82556131593E+01  0.51100000000E-03 0.  1.
         12    1    3    3    0    0  0.26923680537E+02 -0.42926993582E+01  0.19656895218E+02  0.33611090001E+02  0.00000000000E+00 0. -1.
</event>
<event>
 7    1  0.3528441E-013  0.5930195E+02  0.7816164E-02  0.1266605E+00
        -11   -1    0    0    0    0  0.00000000000E+00  0.00000000000E+00  0.45593999997E+02  0.45594000000E+02  0.51100000000E-03 0. -1.
         11   -1    0    0    0    0 -0.00000000000E+00 -0.00000000000E+00 -0.45593999997E+02  0.45594000000E+02  0.51100000000E-03 0.  1.
    9900012    2    1    2    0    0 -0.15100416490E+02 -0.17509798721E+02  0.21956883040E+02  0.59301947529E+02  0.50000006385E+02 0.  0.
        -12    1    1    2    0    0  0.15100416490E+02  0.17509798721E+02 -0.21956883040E+02  0.31886052471E+02  0.00000000000E+00 0.  1.
         11    1    3    3    0    0 -0.14935289184E+01 -0.78638123805E+01  0.17868820222E+01  0.82014097207E+01  0.51100000000E-03 0.  1.
        -11    1    3    3    0    0  0.80023277926E+01 -0.67155446559E+01 -0.96068129134E+01  0.14192485502E+02  0.51100000000E-03 0. -1.
         12    1    3    3    0    0 -0.21609215364E+02 -0.29304416843E+01  0.29776813931E+02  0.36908052305E+02  0.00000000000E+00 0. -1.
</event>
<event>
 7    1  0.3528441E-013  0.5930183E+02  0.7816164E-02  0.1266605E+00
        -11   -1    0    0    0    0  0.00000000000E+00  0.00000000000E+00  0.45593999997E+02  0.45594000000E+02  0.51100000000E-03 0. -1.
         11   -1    0    0    0    0 -0.00000000000E+00 -0.00000000000E+00 -0.45593999997E+02  0.45594000000E+02  0.51100000000E-03 0.  1.
    9900012    2    1    2    0    0 -0.27077942663E+02 -0.16796894599E+02 -0.11735367428E+01  0.59301830027E+02  0.49999792090E+02 0.  0.
        -12    1    1    2    0    0  0.27077942663E+02  0.16796894599E+02  0.11735367428E+01  0.31886169973E+02  0.00000000000E+00 0.  1.
         11    1    3    3    0    0 -0.11963859424E+02 -0.11582345755E+01 -0.17397038394E+01  0.12145040525E+02  0.51100000000E-03 0. -1.
        -11    1    3    3    0    0 -0.82046034642E+01  0.11727231958E+02  0.99295440975E+01  0.17419510144E+02  0.51100000000E-03 0.  1.
         12    1    3    3    0    0 -0.69094797750E+01 -0.27365891982E+02 -0.93633770010E+01  0.29737279358E+02  0.00000000000E+00 0. -1.
</event>
<event>
 7    1  0.3528441E-013  0.5930193E+02  0.7816164E-02  0.1266605E+00
        -11   -1    0    0    0    0  0.00000000000E+00  0.00000000000E+00  0.45593999997E+02  0.45594000000E+02  0.51100000000E-03 0.  1.
         11   -1    0    0    0    0 -0.00000000000E+00 -0.00000000000E+00 -0.45593999997E+02  0.45594000000E+02  0.51100000000E-03 0. -1.
    9900012    2    1    2    0    0  0.17844619780E+02 -0.18212078948E+02 -0.19147093344E+02  0.59301930029E+02  0.49999974469E+02 0.  0.
        -12    1    1    2    0    0 -0.17844619780E+02  0.18212078948E+02  0.19147093344E+02  0.31886069971E+02  0.00000000000E+00 0.  1.
         11    1    3    3    0    0 -0.53361121353E+01  0.36732558994E+01 -0.13793078304E+02  0.15238632188E+02  0.51100000000E-03 0.  1.
        -11    1    3    3    0    0  0.11556512539E+02 -0.13795769118E+00 -0.13797758163E+02  0.17998615084E+02  0.51100000000E-03 0. -1.
        -12    1    3    3    0    0  0.11624219376E+02 -0.21747377156E+02  0.84437431220E+01  0.26064682756E+02  0.00000000000E+00 0.  1.
</event>
<event>
 7    1  0.3528441E-013  0.5930199E+02  0.7816164E-02  0.1266605E+00
        -11   -1    0    0    0    0  0.00000000000E+00  0.00000000000E+00  0.45593999997E+02  0.45594000000E+02  0.51100000000E-03 0.  1.
         11   -1    0    0    0    0 -0.00000000000E+00 -0.00000000000E+00 -0.45593999997E+02  0.45594000000E+02  0.51100000000E-03 0. -1.
    9900012    2    1    2    0    0  0.59508416062E+01 -0.14659511322E+01 -0.31291473575E+02  0.59301986655E+02  0.50000077742E+02 0.  0.
        -12    1    1    2    0    0 -0.59508416062E+01  0.14659511322E+01  0.31291473575E+02  0.31886013345E+02  0.00000000000E+00 0.  1.
         11    1    3    3    0    0 -0.17775290039E+01  0.12420135549E+01  0.76674287235E+01  0.79681660701E+01  0.51100000000E-03 0. -1.
        -11    1    3    3    0    0  0.64636867193E+01 -0.18861186281E+01  0.43386348521E+01  0.80100213561E+01  0.51100000000E-03 0.  1.
         12    1    3    3    0    0  0.12646838909E+01 -0.82184605904E+00 -0.43297537151E+02  0.43323799229E+02  0.00000000000E+00 0. -1.
</event>
<event>
 7    1  0.3528441E-013  0.5930194E+02  0.7816164E-02  0.1266605E+00
        -11   -1    0    0    0    0  0.00000000000E+00  0.00000000000E+00  0.45593999997E+02  0.45594000000E+02  0.51100000000E-03 0.  1.
         11   -1    0    0    0    0 -0.00000000000E+00 -0.00000000000E+00 -0.45593999997E+02  0.45594000000E+02  0.51100000000E-03 0. -1.
    9900012    2    1    2    0    0 -0.23978291413E+02 -0.18482644267E+02 -0.10007722952E+02  0.59301935382E+02  0.49999984231E+02 0.  0.
        -12    1    1    2    0    0  0.23978291413E+02  0.18482644267E+02  0.10007722952E+02  0.31886064618E+02  0.00000000000E+00 0.  1.
         11    1    3    3    0    0  0.11331527803E+01  0.48482200479E+01 -0.92309268843E+01  0.10488054360E+02  0.51100000000E-03 0. -1.
        -11    1    3    3    0    0  0.65824249300E-01  0.74456653045E+01  0.45034344083E+01  0.87019070547E+01  0.51100000000E-03 0.  1.
         12    1    3    3    0    0 -0.25177268442E+02 -0.30776529619E+02 -0.52802304761E+01  0.40111973967E+02  0.00000000000E+00 0. -1.
</event>
<event>
 7    1  0.3528441E-013  0.5930190E+02  0.7816164E-02  0.1266605E+00
        -11   -1    0    0    0    0  0.00000000000E+00  0.00000000000E+00  0.45593999997E+02  0.45594000000E+02  0.51100000000E-03 0.  1.
         11   -1    0    0    0    0 -0.00000000000E+00 -0.00000000000E+00 -0.45593999997E+02  0.45594000000E+02  0.51100000000E-03 0. -1.
    9900012    2    1    2    0    0  0.33185755194E+01  0.31642843485E+02  0.21073502683E+01  0.59301899385E+02  0.49999918582E+02 0.  0.
        -12    1    1    2    0    0 -0.33185755194E+01 -0.31642843485E+02 -0.21073502683E+01  0.31886100615E+02  0.00000000000E+00 0.  1.
         11    1    3    3    0    0  0.45492302669E+01 -0.38226818385E+01 -0.42301967049E+01  0.72940357062E+01  0.51100000000E-03 0. -1.
        -11    1    3    3    0    0  0.38911912541E+01  0.66906831636E+00  0.15226927100E+02  0.15730490487E+02  0.51100000000E-03 0.  1.
         12    1    3    3    0    0 -0.51218460016E+01  0.34796457007E+02 -0.88893801265E+01  0.36277373192E+02  0.00000000000E+00 0. -1.
</event>
<event>
 7    1  0.3528441E-013  0.5930196E+02  0.7816164E-02  0.1266605E+00
        -11   -1    0    0    0    0  0.00000000000E+00  0.00000000000E+00  0.45593999997E+02  0.45594000000E+02  0.51100000000E-03 0. -1.
         11   -1    0    0    0    0 -0.00000000000E+00 -0.00000000000E+00 -0.45593999997E+02  0.45594000000E+02  0.51100000000E-03 0.  1.
    9900012    2    1    2    0    0  0.27120246096E+02  0.54812185198E+01 -0.15848276339E+02  0.59301962809E+02  0.50000034253E+02 0.  0.
        -12    1    1    2    0    0 -0.27120246096E+02 -0.54812185198E+01  0.15848276339E+02  0.31886037191E+02  0.00000000000E+00 0.  1.
         11    1    3    3    0    0  0.52168901433E+01  0.15882135912E+02  0.56820634589E+01  0.17656274503E+02  0.51100000000E-03 0. -1.
        -11    1    3    3    0    0 -0.52861216450E+01 -0.39054494018E+01 -0.36501976647E+00  0.65824658576E+01  0.51100000000E-03 0.  1.
         12    1    3    3    0    0  0.27189477598E+02 -0.64954679907E+01 -0.21165320032E+02  0.35063222449E+02  0.00000000000E+00 0. -1.
</event>
<event>
 7    1  0.3528441E-013  0.5930195E+02  0.7816164E-02  0.1266605E+00
        -11   -1    0    0    0    0  0.00000000000E+00  0.00000000000E+00  0.45593999997E+02  0.45594000000E+02  0.51100000000E-03 0.  1.
         11   -1    0    0    0    0 -0.00000000000E+00 -0.00000000000E+00 -0.45593999997E+02  0.45594000000E+02  0.51100000000E-03 0. -1.
    9900012    2    1    2    0    0 -0.84316085123E+01 -0.29075225604E+02 -0.10012947914E+02  0.59301954589E+02  0.50000019261E+02 0.  0.
        -12    1    1    2    0    0  0.84316085123E+01  0.29075225604E+02  0.10012947914E+02  0.31886045411E+02  0.00000000000E+00 0.  1.
         11    1    3    3    0    0  0.14725416750E+02 -0.78147091491E+01  0.43225504090E+00  0.16676163295E+02  0.51100000000E-03 0. -1.
        -11    1    3    3    0    0  0.12316613573E+01  0.51945588652E+01 -0.15939872536E+01  0.55714654382E+01  0.51100000000E-03 0.  1.
        -12    1    3    3    0    0 -0.24388686620E+02 -0.26455075320E+02 -0.88512157009E+01  0.37054325856E+02  0.00000000000E+00 0.  1.
</event>
<event>
 7    1  0.3528441E-013  0.5930202E+02  0.7816164E-02  0.1266605E+00
        -11   -1    0    0    0    0  0.00000000000E+00  0.00000000000E+00  0.45593999997E+02  0.45594000000E+02  0.51100000000E-03 0. -1.
         11   -1    0    0    0    0 -0.00000000000E+00 -0.00000000000E+00 -0.45593999997E+02  0.45594000000E+02  0.51100000000E-03 0.  1.
    9900012    2    1    2    0    0 -0.14985846239E+02 -0.26846742091E+02  0.84494267464E+01  0.59302016233E+02  0.50000131686E+02 0.  0.
        -12    1    1    2    0    0  0.14985846239E+02  0.26846742091E+02 -0.84494267464E+01  0.31885983767E+02  0.00000000000E+00 0.  1.
         11    1    3    3    0    0  0.48244313250E+01 -0.12514173735E+01 -0.20733762475E+00  0.49884037731E+01  0.51100000000E-03 0. -1.
        -11    1    3    3    0    0  0.10446910841E+02  0.22559791246E+01 -0.38017838920E+01  0.11343762557E+02  0.51100000000E-03 0.  1.
        -12    1    3    3    0    0 -0.30257188405E+02 -0.27851303842E+02  0.12458548263E+02  0.42969849903E+02  0.00000000000E+00 0.  1.
</event>
<event>
 7    1  0.3528441E-013  0.5930194E+02  0.7816164E-02  0.1266605E+00
        -11   -1    0    0    0    0  0.00000000000E+00  0.00000000000E+00  0.45593999997E+02  0.45594000000E+02  0.51100000000E-03 0.  1.
         11   -1    0    0    0    0 -0.00000000000E+00 -0.00000000000E+00 -0.45593999997E+02  0.45594000000E+02  0.51100000000E-03 0. -1.
    9900012    2    1    2    0    0 -0.11784651663E+02 -0.25439213998E+02 -0.15188459863E+02  0.59301938207E+02  0.49999989384E+02 0.  0.
        -12    1    1    2    0    0  0.11784651663E+02  0.25439213998E+02  0.15188459863E+02  0.31886061793E+02  0.00000000000E+00 0.  1.
         11    1    3    3    0    0 -0.16305383895E+02  0.31283893042E+00 -0.11554931411E+02  0.19986992078E+02  0.51100000000E-03 0. -1.
        -11    1    3    3    0    0 -0.11815818530E+02 -0.55138538994E+01 -0.25323431509E+01  0.13282654646E+02  0.51100000000E-03 0.  1.
         12    1    3    3    0    0  0.16336550762E+02 -0.20238199029E+02 -0.11011853011E+01  0.26032291482E+02  0.00000000000E+00 0. -1.
</event>
<event>
 7    1  0.3528441E-013  0.5930197E+02  0.7816164E-02  0.1266605E+00
        -11   -1    0    0    0    0  0.00000000000E+00  0.00000000000E+00  0.45593999997E+02  0.45594000000E+02  0.51100000000E-03 0. -1.
         11   -1    0    0    0    0 -0.00000000000E+00 -0.00000000000E+00 -0.45593999997E+02  0.45594000000E+02  0.51100000000E-03 0.  1.
    9900012    2    1    2    0    0  0.60561518335E+00  0.28424195175E+02  0.14436663327E+02  0.59301970314E+02  0.50000047940E+02 0.  0.
        -12    1    1    2    0    0 -0.60561518335E+00 -0.28424195175E+02 -0.14436663327E+02  0.31886029686E+02  0.00000000000E+00 0.  1.
         11    1    3    3    0    0  0.14878188883E+02  0.19863627019E+01  0.13970043444E+02  0.20505322610E+02  0.51100000000E-03 0. -1.
        -11    1    3    3    0    0  0.48942973722E+00 -0.29659278117E+01 -0.46124966223E+01  0.55055784985E+01  0.51100000000E-03 0.  1.
         12    1    3    3    0    0 -0.14762003437E+02  0.29403760285E+02  0.50791165055E+01  0.33291069206E+02  0.00000000000E+00 0. -1.
</event>
<event>
 7    1  0.3528441E-013  0.5930195E+02  0.7816164E-02  0.1266605E+00
        -11   -1    0    0    0    0  0.00000000000E+00  0.00000000000E+00  0.45593999997E+02  0.45594000000E+02  0.51100000000E-03 0.  1.
         11   -1    0    0    0    0 -0.00000000000E+00 -0.00000000000E+00 -0.45593999997E+02  0.45594000000E+02  0.51100000000E-03 0. -1.
    9900012    2    1    2    0    0  0.98960414418E+01 -0.17219134894E+02 -0.24945735953E+02  0.59301953131E+02  0.50000016602E+02 0.  0.
        -12    1    1    2    0    0 -0.98960414418E+01  0.17219134894E+02  0.24945735953E+02  0.31886046869E+02  0.00000000000E+00 0.  1.
         11    1    3    3    0    0 -0.14432198970E+02 -0.13402887727E+01 -0.74163168555E+01  0.16281477115E+02  0.51100000000E-03 0. -1.
        -11    1    3    3    0    0  0.11008821128E+02  0.15055239894E+01  0.44717498658E+01  0.11977365831E+02  0.51100000000E-03 0.  1.
         12    1    3    3    0    0  0.13319419283E+02 -0.17384370111E+02 -0.22001168963E+02  0.31043110185E+02  0.00000000000E+00 0. -1.
</event>
<event>
 7    1  0.3528441E-013  0.5930195E+02  0.7816164E-02  0.1266605E+00
        -11   -1    0    0    0    0  0.00000000000E+00  0.00000000000E+00  0.45593999997E+02  0.45594000000E+02  0.51100000000E-03 0. -1.
         11   -1    0    0    0    0 -0.00000000000E+00 -0.00000000000E+00 -0.45593999997E+02  0.45594000000E+02  0.51100000000E-03 0.  1.
    9900012    2    1    2    0    0  0.20146793719E+01 -0.31206752203E+02  0.62289367669E+01  0.59301953377E+02  0.50000017050E+02 0.  0.
        -12    1    1    2    0    0 -0.20146793719E+01  0.31206752203E+02 -0.62289367669E+01  0.31886046623E+02  0.00000000000E+00 0.  1.
         11    1    3    3    0    0 -0.10711496975E+01 -0.22391373397E+02  0.60672548174E+01  0.23223534304E+02  0.51100000000E-03 0. -1.
        -11    1    3    3    0    0  0.97628817360E+00 -0.19953309468E+02 -0.86014766695E+01  0.21750243642E+02  0.51100000000E-03 0.  1.
        -12    1    3    3    0    0  0.21095408958E+01  0.11137930662E+02  0.87631586190E+01  0.14328175432E+02  0.00000000000E+00 0.  1.
</event>
<event>
 7    1  0.3528441E-013  0.5930195E+02  0.7816164E-02  0.1266605E+00
        -11   -1    0    0    0    0  0.00000000000E+00  0.00000000000E+00  0.45593999997E+02  0.45594000000E+02  0.51100000000E-03 0.  1.
         11   -1    0    0    0    0 -0.00000000000E+00 -0.00000000000E+00 -0.45593999997E+02  0.45594000000E+02  0.51100000000E-03 0. -1.
    9900012    2    1    2    0    0 -0.24855757838E+02 -0.20874999624E+01 -0.19863372705E+02  0.59301954008E+02  0.50000018201E+02 0.  0.
        -12    1    1    2    0    0  0.24855757838E+02  0.20874999624E+01  0.19863372705E+02  0.31886045992E+02  0.00000000000E+00 0.  1.
         11    1    3    3    0    0 -0.68501096451E+00 -0.34378567148E+00  0.10892153605E+02  0.10919085998E+02  0.51100000000E-03 0. -1.
        -11    1    3    3    0    0  0.33327331089E+01 -0.26480716084E+01 -0.17177401231E+02  0.17696963201E+02  0.51100000000E-03 0.  1.
         12    1    3    3    0    0 -0.27503479983E+02  0.90435731756E+00 -0.13578125079E+02  0.30685904810E+02  0.00000000000E+00 0. -1.
</event>
<event>
 7    1  0.3528441E-013  0.5930194E+02  0.7816164E-02  0.1266605E+00
        -11   -1    0    0    0    0  0.00000000000E+00  0.00000000000E+00  0.45593999997E+02  0.45594000000E+02  0.51100000000E-03 0.  1.
         11   -1    0    0    0    0 -0.00000000000E+00 -0.00000000000E+00 -0.45593999997E+02  0.45594000000E+02  0.51100000000E-03 0. -1.
    9900012    2    1    2    0    0  0.21811063413E+02 -0.22685215779E+02  0.51360850585E+01  0.59301939223E+02  0.49999991237E+02 0.  0.
        -12    1    1    2    0    0 -0.21811063413E+02  0.22685215779E+02 -0.51360850585E+01  0.31886060777E+02  0.00000000000E+00 0.  1.
         11    1    3    3    0    0 -0.31844506097E+01 -0.59565913503E+01 -0.76537214256E+01  0.10207896851E+02  0.51100000000E-03 0.  1.
        -11    1    3    3    0    0  0.76867203829E+01 -0.28076540740E+01  0.23172390222E+02  0.24574951892E+02  0.51100000000E-03 0. -1.
         12    1    3    3    0    0  0.17308793640E+02 -0.13920970354E+02 -0.10382583738E+02  0.24519090480E+02  0.00000000000E+00 0. -1.
</event>
<event>
 7    1  0.3528441E-013  0.5930207E+02  0.7816164E-02  0.1266604E+00
        -11   -1    0    0    0    0  0.00000000000E+00  0.00000000000E+00  0.45593999997E+02  0.45594000000E+02  0.51100000000E-03 0.  1.
         11   -1    0    0    0    0 -0.00000000000E+00 -0.00000000000E+00 -0.45593999997E+02  0.45594000000E+02  0.51100000000E-03 0. -1.
    9900012    2    1    2    0    0 -0.95651474624E+01  0.26509917010E+02 -0.14914585661E+02  0.59302068756E+02  0.50000227474E+02 0.  0.
        -12    1    1    2    0    0  0.95651474624E+01 -0.26509917010E+02  0.14914585661E+02  0.31885931244E+02  0.00000000000E+00 0.  1.
         11    1    3    3    0    0  0.31164637999E+01 -0.11693676717E+02 -0.51727848315E+01  0.13161007748E+02  0.51100000000E-03 0. -1.
        -11    1    3    3    0    0 -0.59344552071E+00 -0.25220307297E+01 -0.94643100449E+00  0.27583597472E+01  0.51100000000E-03 0.  1.
         12    1    3    3    0    0 -0.12088165742E+02  0.40725624456E+02 -0.87953698247E+01  0.43382701261E+02  0.00000000000E+00 0. -1.
</event>
<event>
 7    1  0.3528441E-013  0.5930196E+02  0.7816164E-02  0.1266605E+00
        -11   -1    0    0    0    0  0.00000000000E+00  0.00000000000E+00  0.45593999997E+02  0.45594000000E+02  0.51100000000E-03 0.  1.
         11   -1    0    0    0    0 -0.00000000000E+00 -0.00000000000E+00 -0.45593999997E+02  0.45594000000E+02  0.51100000000E-03 0. -1.
    9900012    2    1    2    0    0  0.11151619260E+01 -0.27981661756E+02 -0.15248034704E+02  0.59301960060E+02  0.50000029239E+02 0.  0.
        -12    1    1    2    0    0 -0.11151619260E+01  0.27981661756E+02  0.15248034704E+02  0.31886039940E+02  0.00000000000E+00 0.  1.
         11    1    3    3    0    0 -0.28673692524E+01 -0.13226218571E+00 -0.53865609546E+01  0.61036332536E+01  0.51100000000E-03 0. -1.
        -11    1    3    3    0    0 -0.13308237690E+02  0.17728834809E+01  0.68186534939E+01  0.15058098883E+02  0.51100000000E-03 0.  1.
         12    1    3    3    0    0  0.17290768868E+02 -0.29622283051E+02 -0.16680127243E+02  0.38140227923E+02  0.00000000000E+00 0. -1.
</event>
<event>
 7    1  0.3528441E-013  0.5930195E+02  0.7816164E-02  0.1266605E+00
        -11   -1    0    0    0    0  0.00000000000E+00  0.00000000000E+00  0.45593999997E+02  0.45594000000E+02  0.51100000000E-03 0.  1.
         11   -1    0    0    0    0 -0.00000000000E+00 -0.00000000000E+00 -0.45593999997E+02  0.45594000000E+02  0.51100000000E-03 0. -1.
    9900012    2    1    2    0    0 -0.17436291717E+02 -0.21083270857E+02 -0.16376548461E+02  0.59301954175E+02  0.50000018505E+02 0.  0.
        -12    1    1    2    0    0  0.17436291717E+02  0.21083270857E+02  0.16376548461E+02  0.31886045825E+02  0.00000000000E+00 0.  1.
         11    1    3    3    0    0  0.99875748781E+00 -0.83185404125E+01  0.65454386689E+01  0.10631951784E+02  0.51100000000E-03 0. -1.
        -11    1    3    3    0    0 -0.29460931491E+01 -0.10852112529E+02  0.81574675905E+01  0.13892159261E+02  0.51100000000E-03 0.  1.
         12    1    3    3    0    0 -0.15488956056E+02 -0.19126179156E+01 -0.31079454720E+02  0.34777843129E+02  0.00000000000E+00 0. -1.
</event>
<event>
 7    1  0.3528441E-013  0.5930191E+02  0.7816164E-02  0.1266605E+00
        -11   -1    0    0    0    0  0.00000000000E+00  0.00000000000E+00  0.45593999997E+02  0.45594000000E+02  0.51100000000E-03 0.  1.
         11   -1    0    0    0    0 -0.00000000000E+00 -0.00000000000E+00 -0.45593999997E+02  0.45594000000E+02  0.51100000000E-03 0. -1.
    9900012    2    1    2    0    0 -0.19586061049E+02  0.89633287856E+00 -0.25145682150E+02  0.59301913209E+02  0.49999943794E+02 0.  0.
        -12    1    1    2    0    0  0.19586061049E+02 -0.89633287856E+00  0.25145682150E+02  0.31886086791E+02  0.00000000000E+00 0.  1.
         11    1    3    3    0    0 -0.74868444138E+01  0.17415788508E+01 -0.29685397037E+01  0.82400342477E+01  0.51100000000E-03 0. -1.
        -11    1    3    3    0    0 -0.28850755491E+02  0.23273045912E+01 -0.14089197797E+02  0.32191426403E+02  0.51100000000E-03 0.  1.
         12    1    3    3    0    0  0.16751538855E+02 -0.31725505634E+01 -0.80879446499E+01  0.18870452558E+02  0.00000000000E+00 0. -1.
</event>
<event>
 7    1  0.3528441E-013  0.5930189E+02  0.7816164E-02  0.1266605E+00
        -11   -1    0    0    0    0  0.00000000000E+00  0.00000000000E+00  0.45593999997E+02  0.45594000000E+02  0.51100000000E-03 0. -1.
         11   -1    0    0    0    0 -0.00000000000E+00 -0.00000000000E+00 -0.45593999997E+02  0.45594000000E+02  0.51100000000E-03 0.  1.
    9900012    2    1    2    0    0  0.22416965619E+02  0.89700352926E+01  0.20826482802E+02  0.59301885991E+02  0.49999894155E+02 0.  0.
        -12    1    1    2    0    0 -0.22416965619E+02 -0.89700352926E+01 -0.20826482802E+02  0.31886114009E+02  0.00000000000E+00 0.  1.
         11    1    3    3    0    0 -0.47071706245E+01 -0.95035208949E-01 -0.56205438233E+00  0.47415601197E+01  0.51100000000E-03 0. -1.
        -11    1    3    3    0    0 -0.60744089869E+01 -0.10061821031E+02  0.66867083423E+01  0.13522231906E+02  0.51100000000E-03 0.  1.
         12    1    3    3    0    0  0.33198545230E+02  0.19126891532E+02  0.14701828842E+02  0.41038093966E+02  0.00000000000E+00 0. -1.
</event>
<event>
 7    1  0.3528441E-013  0.5930194E+02  0.7816164E-02  0.1266605E+00
        -11   -1    0    0    0    0  0.00000000000E+00  0.00000000000E+00  0.45593999997E+02  0.45594000000E+02  0.51100000000E-03 0. -1.
         11   -1    0    0    0    0 -0.00000000000E+00 -0.00000000000E+00 -0.45593999997E+02  0.45594000000E+02  0.51100000000E-03 0.  1.
    9900012    2    1    2    0    0  0.29002679365E+02 -0.63175585372E+01 -0.11647043187E+02  0.59301943937E+02  0.49999999835E+02 0.  0.
        -12    1    1    2    0    0 -0.29002679365E+02  0.63175585372E+01  0.11647043187E+02  0.31886056063E+02  0.00000000000E+00 0.  1.
         11    1    3    3    0    0  0.10074969594E+02  0.10440594034E+02 -0.13004210982E+02  0.19483852792E+02  0.51100000000E-03 0. -1.
        -11    1    3    3    0    0  0.21239419744E+00 -0.17455050524E+01 -0.12155503142E+02  0.12282025732E+02  0.51100000000E-03 0.  1.
         12    1    3    3    0    0  0.18715315574E+02 -0.15012647519E+02  0.13512670937E+02  0.27536065413E+02  0.00000000000E+00 0. -1.
</event>
<event>
 7    1  0.3528441E-013  0.5930193E+02  0.7816164E-02  0.1266605E+00
        -11   -1    0    0    0    0  0.00000000000E+00  0.00000000000E+00  0.45593999997E+02  0.45594000000E+02  0.51100000000E-03 0. -1.
         11   -1    0    0    0    0 -0.00000000000E+00 -0.00000000000E+00 -0.45593999997E+02  0.45594000000E+02  0.51100000000E-03 0.  1.
    9900012    2    1    2    0    0 -0.20254622541E+02  0.24535503360E+02 -0.21167851950E+01  0.59301930331E+02  0.49999975020E+02 0.  0.
        -12    1    1    2    0    0  0.20254622541E+02 -0.24535503360E+02  0.21167851950E+01  0.31886069669E+02  0.00000000000E+00 0.  1.
         11    1    3    3    0    0  0.40517550524E+01 -0.51734646974E+00 -0.17930010094E+00  0.40885835153E+01  0.51100000000E-03 0. -1.
        -11    1    3    3    0    0  0.11256498431E+02  0.10843235724E+02 -0.59134671368E+01  0.16710883033E+02  0.51100000000E-03 0.  1.
         12    1    3    3    0    0 -0.35562876024E+02  0.14209614106E+02  0.39759820427E+01  0.38502463783E+02  0.00000000000E+00 0. -1.
</event>
<event>
 7    1  0.3528441E-013  0.5930196E+02  0.7816164E-02  0.1266605E+00
        -11   -1    0    0    0    0  0.00000000000E+00  0.00000000000E+00  0.45593999997E+02  0.45594000000E+02  0.51100000000E-03 0.  1.
         11   -1    0    0    0    0 -0.00000000000E+00 -0.00000000000E+00 -0.45593999997E+02  0.45594000000E+02  0.51100000000E-03 0. -1.
    9900012    2    1    2    0    0  0.28737611313E+02  0.12557495252E+02 -0.57601048645E+01  0.59301956046E+02  0.50000021919E+02 0.  0.
        -12    1    1    2    0    0 -0.28737611313E+02 -0.12557495252E+02  0.57601048645E+01  0.31886043954E+02  0.00000000000E+00 0.  1.
         11    1    3    3    0    0  0.13194787195E+02  0.11474459631E+02  0.76185829006E+01  0.19073763095E+02  0.51100000000E-03 0. -1.
        -11    1    3    3    0    0  0.16809589717E+01 -0.84930838706E+01  0.88205244289E+01  0.12359601456E+02  0.51100000000E-03 0.  1.
         12    1    3    3    0    0  0.13861865146E+02  0.95761194923E+01 -0.22199212194E+02  0.27868591495E+02  0.00000000000E+00 0. -1.
</event>
<event>
 7    1  0.3528441E-013  0.5930191E+02  0.7816164E-02  0.1266605E+00
        -11   -1    0    0    0    0  0.00000000000E+00  0.00000000000E+00  0.45593999997E+02  0.45594000000E+02  0.51100000000E-03 0. -1.
         11   -1    0    0    0    0 -0.00000000000E+00 -0.00000000000E+00 -0.45593999997E+02  0.45594000000E+02  0.51100000000E-03 0.  1.
    9900012    2    1    2    0    0  0.87242013348E+01  0.13435865519E+02  0.27569708862E+02  0.59301905572E+02  0.49999929865E+02 0.  0.
        -12    1    1    2    0    0 -0.87242013348E+01 -0.13435865519E+02 -0.27569708862E+02  0.31886094428E+02  0.00000000000E+00 0.  1.
         11    1    3    3    0    0 -0.29534356433E+01 -0.11347643778E+02 -0.10868410950E+01  0.11775951140E+02  0.51100000000E-03 0. -1.
        -11    1    3    3    0    0 -0.46054561470E+00 -0.51611009200E+01  0.17206030711E+01  0.54598113666E+01  0.51100000000E-03 0.  1.
         12    1    3    3    0    0  0.12138182593E+02  0.29944610217E+02  0.26935946886E+02  0.42066143065E+02  0.00000000000E+00 0. -1.
</event>
<event>
 7    1  0.3528441E-013  0.5930165E+02  0.7816164E-02  0.1266606E+00
        -11   -1    0    0    0    0  0.00000000000E+00  0.00000000000E+00  0.45593999997E+02  0.45594000000E+02  0.51100000000E-03 0.  1.
         11   -1    0    0    0    0 -0.00000000000E+00 -0.00000000000E+00 -0.45593999997E+02  0.45594000000E+02  0.51100000000E-03 0. -1.
    9900012    2    1    2    0    0 -0.88023222956E+01  0.28530342585E+02  0.11192770622E+02  0.59301648060E+02  0.49999460223E+02 0.  0.
        -12    1    1    2    0    0  0.88023222956E+01 -0.28530342585E+02 -0.11192770622E+02  0.31886351940E+02  0.00000000000E+00 0.  1.
         11    1    3    3    0    0 -0.21338590993E+01 -0.13608917965E+02 -0.10751192052E+01  0.13817086683E+02  0.51100000000E-03 0. -1.
        -11    1    3    3    0    0 -0.42665896505E+01  0.54451846917E+01  0.79178404549E+00  0.69628116309E+01  0.51100000000E-03 0.  1.
        -12    1    3    3    0    0 -0.24018735457E+01  0.36694075858E+02  0.11476105782E+02  0.38521749747E+02  0.00000000000E+00 0.  1.
</event>
<event>
 7    1  0.3528441E-013  0.5930189E+02  0.7816164E-02  0.1266605E+00
        -11   -1    0    0    0    0  0.00000000000E+00  0.00000000000E+00  0.45593999997E+02  0.45594000000E+02  0.51100000000E-03 0.  1.
         11   -1    0    0    0    0 -0.00000000000E+00 -0.00000000000E+00 -0.45593999997E+02  0.45594000000E+02  0.51100000000E-03 0. -1.
    9900012    2    1    2    0    0  0.24526539245E+02 -0.20282689578E+02 -0.19456577447E+01  0.59301886911E+02  0.49999895833E+02 0.  0.
        -12    1    1    2    0    0 -0.24526539245E+02  0.20282689578E+02  0.19456577447E+01  0.31886113089E+02  0.00000000000E+00 0.  1.
         11    1    3    3    0    0 -0.93754667748E+01 -0.32569440079E+01 -0.70306596020E+01  0.12162945211E+02  0.51100000000E-03 0. -1.
        -11    1    3    3    0    0  0.35967297305E+00  0.54290253749E+01 -0.26306199655E+01  0.60434959115E+01  0.51100000000E-03 0.  1.
        -12    1    3    3    0    0  0.33542333047E+02 -0.22454770945E+02  0.77156218227E+01  0.41095445788E+02  0.00000000000E+00 0.  1.
</event>
<event>
 7    1  0.3528441E-013  0.5930196E+02  0.7816164E-02  0.1266605E+00
        -11   -1    0    0    0    0  0.00000000000E+00  0.00000000000E+00  0.45593999997E+02  0.45594000000E+02  0.51100000000E-03 0.  1.
         11   -1    0    0    0    0 -0.00000000000E+00 -0.00000000000E+00 -0.45593999997E+02  0.45594000000E+02  0.51100000000E-03 0. -1.
    9900012    2    1    2    0    0  0.21013795126E+02  0.75386808715E+01 -0.22766382501E+02  0.59301961252E+02  0.50000031413E+02 0.  0.
        -12    1    1    2    0    0 -0.21013795126E+02 -0.75386808715E+01  0.22766382501E+02  0.31886038748E+02  0.00000000000E+00 0.  1.
         11    1    3    3    0    0 -0.52533435786E+01 -0.49737708286E+01 -0.50350354635E+01  0.88140568066E+01  0.51100000000E-03 0. -1.
        -11    1    3    3    0    0 -0.41127603372E+01 -0.89962289740E+01 -0.54338304646E+01  0.11285984544E+02  0.51100000000E-03 0.  1.
         12    1    3    3    0    0  0.30379899042E+02  0.21508680674E+02 -0.12297516572E+02  0.39201919902E+02  0.00000000000E+00 0. -1.
</event>
<event>
 7    1  0.3528441E-013  0.5930193E+02  0.7816164E-02  0.1266605E+00
        -11   -1    0    0    0    0  0.00000000000E+00  0.00000000000E+00  0.45593999997E+02  0.45594000000E+02  0.51100000000E-03 0.  1.
         11   -1    0    0    0    0 -0.00000000000E+00 -0.00000000000E+00 -0.45593999997E+02  0.45594000000E+02  0.51100000000E-03 0. -1.
    9900012    2    1    2    0    0 -0.51503950257E+01 -0.14796363487E+02 -0.27771611968E+02  0.59301931370E+02  0.49999976915E+02 0.  0.
        -12    1    1    2    0    0  0.51503950257E+01  0.14796363487E+02  0.27771611968E+02  0.31886068630E+02  0.00000000000E+00 0.  1.
         11    1    3    3    0    0 -0.54035459627E+01 -0.96725760913E+01 -0.69567750000E+01  0.13082574513E+02  0.51100000000E-03 0. -1.
        -11    1    3    3    0    0 -0.74699484896E+01 -0.19254185407E+02 -0.98688343976E+00  0.20676018120E+02  0.51100000000E-03 0.  1.
         12    1    3    3    0    0  0.77230994267E+01  0.14130398011E+02 -0.19827953529E+02  0.25543338737E+02  0.00000000000E+00 0. -1.
</event>
<event>
 7    1  0.3528441E-013  0.5930193E+02  0.7816164E-02  0.1266605E+00
        -11   -1    0    0    0    0  0.00000000000E+00  0.00000000000E+00  0.45593999997E+02  0.45594000000E+02  0.51100000000E-03 0.  1.
         11   -1    0    0    0    0 -0.00000000000E+00 -0.00000000000E+00 -0.45593999997E+02  0.45594000000E+02  0.51100000000E-03 0. -1.
    9900012    2    1    2    0    0  0.88054335425E+01  0.29484596303E+02 -0.83573108291E+01  0.59301925872E+02  0.49999966888E+02 0.  0.
        -12    1    1    2    0    0 -0.88054335425E+01 -0.29484596303E+02  0.83573108291E+01  0.31886074128E+02  0.00000000000E+00 0.  1.
         11    1    3    3    0    0  0.89846379168E+01 -0.27199835417E+01 -0.56832493671E+01  0.10973666324E+02  0.51100000000E-03 0. -1.
        -11    1    3    3    0    0 -0.11318384067E+02 -0.67912537917E+00 -0.70234145662E+01  0.13337742748E+02  0.51100000000E-03 0.  1.
        -12    1    3    3    0    0  0.11139179693E+02  0.32883705224E+02  0.43493531042E+01  0.34990516800E+02  0.00000000000E+00 0.  1.
</event>
<event>
 7    1  0.3528441E-013  0.5930194E+02  0.7816164E-02  0.1266605E+00
        -11   -1    0    0    0    0  0.00000000000E+00  0.00000000000E+00  0.45593999997E+02  0.45594000000E+02  0.51100000000E-03 0. -1.
         11   -1    0    0    0    0 -0.00000000000E+00 -0.00000000000E+00 -0.45593999997E+02  0.45594000000E+02  0.51100000000E-03 0.  1.
    9900012    2    1    2    0    0  0.22141583484E+02 -0.75088183631E+01  0.21681530774E+02  0.59301939580E+02  0.49999991888E+02 0.  0.
        -12    1    1    2    0    0 -0.22141583484E+02  0.75088183631E+01 -0.21681530774E+02  0.31886060420E+02  0.00000000000E+00 0.  1.
         11    1    3    3    0    0  0.22741718550E+02 -0.47921643057E+01 -0.32977779631E+01  0.23473941746E+02  0.51100000000E-03 0. -1.
        -11    1    3    3    0    0  0.11670730803E-01  0.63814367647E+01 -0.25164022032E+01  0.68596757720E+01  0.51100000000E-03 0.  1.
        -12    1    3    3    0    0 -0.61180579633E+00 -0.90980908221E+01  0.27495710941E+02  0.28968322062E+02  0.00000000000E+00 0.  1.
</event>
<event>
 7    1  0.3528441E-013  0.5930195E+02  0.7816164E-02  0.1266605E+00
        -11   -1    0    0    0    0  0.00000000000E+00  0.00000000000E+00  0.45593999997E+02  0.45594000000E+02  0.51100000000E-03 0. -1.
         11   -1    0    0    0    0 -0.00000000000E+00 -0.00000000000E+00 -0.45593999997E+02  0.45594000000E+02  0.51100000000E-03 0.  1.
    9900012    2    1    2    0    0 -0.20409042257E+02 -0.41217344752E+01  0.24149587003E+02  0.59301948922E+02  0.50000008926E+02 0.  0.
        -12    1    1    2    0    0  0.20409042257E+02  0.41217344752E+01 -0.24149587003E+02  0.31886051078E+02  0.00000000000E+00 0.  1.
         11    1    3    3    0    0  0.54789947831E+00  0.67383424593E+01 -0.22736642662E+01  0.71326714766E+01  0.51100000000E-03 0. -1.
        -11    1    3    3    0    0  0.28746071781E+01  0.11741581874E+02  0.60353875659E+01  0.13511255110E+02  0.51100000000E-03 0.  1.
         12    1    3    3    0    0 -0.23831548913E+02 -0.22601658808E+02  0.20387863704E+02  0.38658022335E+02  0.00000000000E+00 0. -1.
</event>
<event>
 7    1  0.3528441E-013  0.5930191E+02  0.7816164E-02  0.1266605E+00
        -11   -1    0    0    0    0  0.00000000000E+00  0.00000000000E+00  0.45593999997E+02  0.45594000000E+02  0.51100000000E-03 0.  1.
         11   -1    0    0    0    0 -0.00000000000E+00 -0.00000000000E+00 -0.45593999997E+02  0.45594000000E+02  0.51100000000E-03 0. -1.
    9900012    2    1    2    0    0  0.90121838922E+01  0.12229042429E+02 -0.28034871478E+02  0.59301906542E+02  0.49999931634E+02 0.  0.
        -12    1    1    2    0    0 -0.90121838922E+01 -0.12229042429E+02  0.28034871478E+02  0.31886093458E+02  0.00000000000E+00 0.  1.
         11    1    3    3    0    0 -0.73321763014E+01  0.99379064581E+01 -0.25136615767E+02  0.28006646471E+02  0.51100000000E-03 0. -1.
        -11    1    3    3    0    0  0.49164912668E+01  0.11362983300E+02 -0.91765096256E+01  0.15410957304E+02  0.51100000000E-03 0.  1.
        -12    1    3    3    0    0  0.11427868927E+02 -0.90718473293E+01  0.62782539142E+01  0.15884302767E+02  0.00000000000E+00 0.  1.
</event>
<event>
 7    1  0.3528441E-013  0.5930195E+02  0.7816164E-02  0.1266605E+00
        -11   -1    0    0    0    0  0.00000000000E+00  0.00000000000E+00  0.45593999997E+02  0.45594000000E+02  0.51100000000E-03 0. -1.
         11   -1    0    0    0    0 -0.00000000000E+00 -0.00000000000E+00 -0.45593999997E+02  0.45594000000E+02  0.51100000000E-03 0.  1.
    9900012    2    1    2    0    0 -0.19009508548E+02 -0.16874460090E+02  0.19251269043E+02  0.59301950098E+02  0.50000011072E+02 0.  0.
        -12    1    1    2    0    0  0.19009508548E+02  0.16874460090E+02 -0.19251269043E+02  0.31886049902E+02  0.00000000000E+00 0.  1.
         11    1    3    3    0    0 -0.17988312812E+02 -0.14014917363E+01  0.20387071777E+02  0.27224552757E+02  0.51100000000E-03 0. -1.
        -11    1    3    3    0    0 -0.98762879189E+00 -0.65309485246E+01  0.13441065869E+02  0.14976346391E+02  0.51100000000E-03 0.  1.
        -12    1    3    3    0    0 -0.33566944401E-01 -0.89420198290E+01 -0.14576868603E+02  0.17101050951E+02  0.00000000000E+00 0.  1.
</event>
<event>
 7    1  0.3528441E-013  0.5930176E+02  0.7816164E-02  0.1266605E+00
        -11   -1    0    0    0    0  0.00000000000E+00  0.00000000000E+00  0.45593999997E+02  0.45594000000E+02  0.51100000000E-03 0.  1.
         11   -1    0    0    0    0 -0.00000000000E+00 -0.00000000000E+00 -0.45593999997E+02  0.45594000000E+02  0.51100000000E-03 0. -1.
    9900012    2    1    2    0    0  0.26938309333E+02 -0.69839725843E+00 -0.17046178270E+02  0.59301757479E+02  0.49999659779E+02 0.  0.
        -12    1    1    2    0    0 -0.26938309333E+02  0.69839725843E+00  0.17046178270E+02  0.31886242521E+02  0.00000000000E+00 0.  1.
         11    1    3    3    0    0 -0.54191633725E+01  0.56497601428E+01 -0.11587792202E+02  0.13984421679E+02  0.51100000000E-03 0. -1.
        -11    1    3    3    0    0  0.81638805944E+01 -0.12991919670E+02 -0.11896073714E+02  0.19415341696E+02  0.51100000000E-03 0.  1.
        -12    1    3    3    0    0  0.24193592112E+02  0.66437622690E+01  0.64376876457E+01  0.25901994104E+02  0.00000000000E+00 0.  1.
</event>
<event>
 7    1  0.3528441E-013  0.5930196E+02  0.7816164E-02  0.1266605E+00
        -11   -1    0    0    0    0  0.00000000000E+00  0.00000000000E+00  0.45593999997E+02  0.45594000000E+02  0.51100000000E-03 0. -1.
         11   -1    0    0    0    0 -0.00000000000E+00 -0.00000000000E+00 -0.45593999997E+02  0.45594000000E+02  0.51100000000E-03 0.  1.
    9900012    2    1    2    0    0  0.14852882989E+02  0.19508559385E+02  0.20384490386E+02  0.59301961195E+02  0.50000031309E+02 0.  0.
        -12    1    1    2    0    0 -0.14852882989E+02 -0.19508559385E+02 -0.20384490386E+02  0.31886038805E+02  0.00000000000E+00 0.  1.
         11    1    3    3    0    0 -0.71538092973E+01 -0.22936181921E+01  0.87729316497E+01  0.11549978436E+02  0.51100000000E-03 0. -1.
        -11    1    3    3    0    0 -0.64160314400E+01  0.12880257974E+02  0.10728059717E+02  0.17948754009E+02  0.51100000000E-03 0.  1.
        -12    1    3    3    0    0  0.28422723727E+02  0.89219196023E+01  0.88349901929E+00  0.29803228750E+02  0.00000000000E+00 0.  1.
</event>
<event>
 7    1  0.3528441E-013  0.5930194E+02  0.7816164E-02  0.1266605E+00
        -11   -1    0    0    0    0  0.00000000000E+00  0.00000000000E+00  0.45593999997E+02  0.45594000000E+02  0.51100000000E-03 0.  1.
         11   -1    0    0    0    0 -0.00000000000E+00 -0.00000000000E+00 -0.45593999997E+02  0.45594000000E+02  0.51100000000E-03 0. -1.
    9900012    2    1    2    0    0  0.11772170724E+02  0.20134885769E+02 -0.21742199290E+02  0.59301939434E+02  0.49999991621E+02 0.  0.
        -12    1    1    2    0    0 -0.11772170724E+02 -0.20134885769E+02  0.21742199290E+02  0.31886060566E+02  0.00000000000E+00 0.  1.
         11    1    3    3    0    0 -0.11206388313E+01  0.23521825755E+02 -0.20900441103E+01  0.23641074487E+02  0.51100000000E-03 0. -1.
        -11    1    3    3    0    0 -0.89109234188E+00  0.10071390475E+02 -0.95516227628E+01  0.13909006051E+02  0.51100000000E-03 0.  1.
         12    1    3    3    0    0  0.13783901897E+02 -0.13458330461E+02 -0.10100532417E+02  0.21751858896E+02  0.00000000000E+00 0. -1.
</event>
<event>
 7    1  0.3528441E-013  0.5930194E+02  0.7816164E-02  0.1266605E+00
        -11   -1    0    0    0    0  0.00000000000E+00  0.00000000000E+00  0.45593999997E+02  0.45594000000E+02  0.51100000000E-03 0.  1.
         11   -1    0    0    0    0 -0.00000000000E+00 -0.00000000000E+00 -0.45593999997E+02  0.45594000000E+02  0.51100000000E-03 0. -1.
    9900012    2    1    2    0    0  0.13608371246E+02  0.26957302429E+02  0.10238979270E+02  0.59301943193E+02  0.49999998478E+02 0.  0.
        -12    1    1    2    0    0 -0.13608371246E+02 -0.26957302429E+02 -0.10238979270E+02  0.31886056807E+02  0.00000000000E+00 0.  1.
         11    1    3    3    0    0 -0.11532105382E+02  0.30695651070E+00 -0.53741991447E+01  0.12726574306E+02  0.51100000000E-03 0. -1.
        -11    1    3    3    0    0  0.18676728013E+02  0.56444280339E+01 -0.17941249006E+00  0.19511840666E+02  0.51100000000E-03 0.  1.
        -12    1    3    3    0    0  0.64637486154E+01  0.21005917884E+02  0.15792590905E+02  0.27063528221E+02  0.00000000000E+00 0.  1.
</event>
<event>
 7    1  0.3528441E-013  0.5930191E+02  0.7816164E-02  0.1266605E+00
        -11   -1    0    0    0    0  0.00000000000E+00  0.00000000000E+00  0.45593999997E+02  0.45594000000E+02  0.51100000000E-03 0. -1.
         11   -1    0    0    0    0 -0.00000000000E+00 -0.00000000000E+00 -0.45593999997E+02  0.45594000000E+02  0.51100000000E-03 0.  1.
    9900012    2    1    2    0    0  0.17180613681E+02 -0.24029024846E+02 -0.12006456687E+02  0.59301913321E+02  0.49999943998E+02 0.  0.
        -12    1    1    2    0    0 -0.17180613681E+02  0.24029024846E+02  0.12006456687E+02  0.31886086679E+02  0.00000000000E+00 0.  1.
         11    1    3    3    0    0 -0.54771540015E+00 -0.15111419933E+02  0.66136113193E+01  0.16504389098E+02  0.51100000000E-03 0. -1.
        -11    1    3    3    0    0  0.13104791428E+02  0.69907532796E+01  0.34043672536E+01  0.15237975799E+02  0.51100000000E-03 0.  1.
         12    1    3    3    0    0  0.46235376527E+01 -0.15908358193E+02 -0.22024435260E+02  0.27559548424E+02  0.00000000000E+00 0. -1.
</event>
<event>
 7    1  0.3528441E-013  0.5930191E+02  0.7816164E-02  0.1266605E+00
        -11   -1    0    0    0    0  0.00000000000E+00  0.00000000000E+00  0.45593999997E+02  0.45594000000E+02  0.51100000000E-03 0.  1.
         11   -1    0    0    0    0 -0.00000000000E+00 -0.00000000000E+00 -0.45593999997E+02  0.45594000000E+02  0.51100000000E-03 0. -1.
    9900012    2    1    2    0    0  0.31352619096E+02  0.54608886616E+01 -0.19784959095E+01  0.59301914081E+02  0.49999945384E+02 0.  0.
        -12    1    1    2    0    0 -0.31352619096E+02 -0.54608886616E+01  0.19784959095E+01  0.31886085919E+02  0.00000000000E+00 0.  1.
         11    1    3    3    0    0  0.36737187774E+02  0.22164890793E+01  0.12985500555E+02  0.39027644232E+02  0.51100000000E-03 0.  1.
        -11    1    3    3    0    0  0.15956404328E+00 -0.41217336014E+01 -0.68334659681E+01  0.79818798514E+01  0.51100000000E-03 0. -1.
        -12    1    3    3    0    0 -0.55441327206E+01  0.73661331837E+01 -0.81305304967E+01  0.12292389998E+02  0.00000000000E+00 0.  1.
</event>
<event>
 7    1  0.3528441E-013  0.5930196E+02  0.7816164E-02  0.1266605E+00
        -11   -1    0    0    0    0  0.00000000000E+00  0.00000000000E+00  0.45593999997E+02  0.45594000000E+02  0.51100000000E-03 0. -1.
         11   -1    0    0    0    0 -0.00000000000E+00 -0.00000000000E+00 -0.45593999997E+02  0.45594000000E+02  0.51100000000E-03 0.  1.
    9900012    2    1    2    0    0 -0.20768147267E+02 -0.19747074423E+02  0.13980570842E+02  0.59301964652E+02  0.50000037613E+02 0.  0.
        -12    1    1    2    0    0  0.20768147267E+02  0.19747074423E+02 -0.13980570842E+02  0.31886035348E+02  0.00000000000E+00 0.  1.
         11    1    3    3    0    0  0.10347008335E+01  0.33858923252E+01 -0.46890415989E+01  0.58755411692E+01  0.51100000000E-03 0. -1.
        -11    1    3    3    0    0  0.24326035305E+01  0.75459407216E+01 -0.32909865445E+01  0.85842515113E+01  0.51100000000E-03 0.  1.
         12    1    3    3    0    0 -0.24235451631E+02 -0.30678907470E+02  0.21960598985E+02  0.44842171971E+02  0.00000000000E+00 0. -1.
</event>
<event>
 7    1  0.3528441E-013  0.5930195E+02  0.7816164E-02  0.1266605E+00
        -11   -1    0    0    0    0  0.00000000000E+00  0.00000000000E+00  0.45593999997E+02  0.45594000000E+02  0.51100000000E-03 0. -1.
         11   -1    0    0    0    0 -0.00000000000E+00 -0.00000000000E+00 -0.45593999997E+02  0.45594000000E+02  0.51100000000E-03 0.  1.
    9900012    2    1    2    0    0  0.96243956202E+01 -0.74236298448E+01  0.29478481087E+02  0.59301951039E+02  0.50000012788E+02 0.  0.
        -12    1    1    2    0    0 -0.96243956202E+01  0.74236298448E+01 -0.29478481087E+02  0.31886048961E+02  0.00000000000E+00 0.  1.
         11    1    3    3    0    0 -0.41860259554E+01 -0.17087997050E+00  0.93824223103E+01  0.10275303496E+02  0.51100000000E-03 0. -1.
        -11    1    3    3    0    0 -0.14280672209E+02 -0.14867316097E+00  0.12725456660E+02  0.19128433023E+02  0.51100000000E-03 0.  1.
         12    1    3    3    0    0  0.28091093784E+02 -0.71040767134E+01  0.73706021162E+01  0.29898214520E+02  0.00000000000E+00 0. -1.
</event>
<event>
 7    1  0.3528441E-013  0.5930194E+02  0.7816164E-02  0.1266605E+00
        -11   -1    0    0    0    0  0.00000000000E+00  0.00000000000E+00  0.45593999997E+02  0.45594000000E+02  0.51100000000E-03 0.  1.
         11   -1    0    0    0    0 -0.00000000000E+00 -0.00000000000E+00 -0.45593999997E+02  0.45594000000E+02  0.51100000000E-03 0. -1.
    9900012    2    1    2    0    0  0.65927664039E+01  0.30543578253E+02  0.63518678503E+01  0.59301937738E+02  0.49999988529E+02 0.  0.
        -12    1    1    2    0    0 -0.65927664039E+01 -0.30543578253E+02 -0.63518678503E+01  0.31886062262E+02  0.00000000000E+00 0.  1.
         11    1    3    3    0    0  0.86246014547E+01  0.37415368617E+01 -0.21625287011E+01  0.96467289266E+01  0.51100000000E-03 0. -1.
        -11    1    3    3    0    0  0.60712625609E+01 -0.96748777333E+01  0.46257164701E+00  0.11431424278E+02  0.51100000000E-03 0.  1.
        -12    1    3    3    0    0 -0.81030976117E+01  0.36476919125E+02  0.80518249044E+01  0.38223784533E+02  0.00000000000E+00 0.  1.
</event>
<event>
 7    1  0.3528441E-013  0.5930188E+02  0.7816164E-02  0.1266605E+00
        -11   -1    0    0    0    0  0.00000000000E+00  0.00000000000E+00  0.45593999997E+02  0.45594000000E+02  0.51100000000E-03 0. -1.
         11   -1    0    0    0    0 -0.00000000000E+00 -0.00000000000E+00 -0.45593999997E+02  0.45594000000E+02  0.51100000000E-03 0.  1.
    9900012    2    1    2    0    0 -0.73936434360E+01  0.12593473966E+02  0.28345422562E+02  0.59301881861E+02  0.49999886622E+02 0.  0.
        -12    1    1    2    0    0  0.73936434360E+01 -0.12593473966E+02 -0.28345422562E+02  0.31886118139E+02  0.00000000000E+00 0.  1.
         11    1    3    3    0    0 -0.41258359163E+01  0.73706287731E+01  0.11384255874E+02  0.14175682438E+02  0.51100000000E-03 0. -1.
        -11    1    3    3    0    0 -0.41741724403E+01  0.99938572381E+01  0.29635913619E+02  0.31552943989E+02  0.51100000000E-03 0.  1.
        -12    1    3    3    0    0  0.90636492057E+00 -0.47710120453E+01 -0.12674746931E+02  0.13573255434E+02  0.00000000000E+00 0.  1.
</event>
<event>
 7    1  0.3528441E-013  0.5930190E+02  0.7816164E-02  0.1266605E+00
        -11   -1    0    0    0    0  0.00000000000E+00  0.00000000000E+00  0.45593999997E+02  0.45594000000E+02  0.51100000000E-03 0. -1.
         11   -1    0    0    0    0 -0.00000000000E+00 -0.00000000000E+00 -0.45593999997E+02  0.45594000000E+02  0.51100000000E-03 0.  1.
    9900012    2    1    2    0    0 -0.24533669896E+02 -0.17303533802E+02  0.10742925633E+02  0.59301895005E+02  0.49999910595E+02 0.  0.
        -12    1    1    2    0    0  0.24533669896E+02  0.17303533802E+02 -0.10742925633E+02  0.31886104995E+02  0.00000000000E+00 0.  1.
         11    1    3    3    0    0 -0.13105313607E+02 -0.31918737830E+01  0.94407712537E+01  0.16464065874E+02  0.51100000000E-03 0. -1.
        -11    1    3    3    0    0 -0.16503503675E+02 -0.14880042609E+02  0.15926222509E+02  0.27339090425E+02  0.51100000000E-03 0.  1.
        -12    1    3    3    0    0  0.50751473864E+01  0.76838259043E+00 -0.14624068130E+02  0.15498738706E+02  0.00000000000E+00 0.  1.
</event>
<event>
 7    1  0.3528441E-013  0.5930195E+02  0.7816164E-02  0.1266605E+00
        -11   -1    0    0    0    0  0.00000000000E+00  0.00000000000E+00  0.45593999997E+02  0.45594000000E+02  0.51100000000E-03 0.  1.
         11   -1    0    0    0    0 -0.00000000000E+00 -0.00000000000E+00 -0.45593999997E+02  0.45594000000E+02  0.51100000000E-03 0. -1.
    9900012    2    1    2    0    0 -0.78203945801E+01  0.15308085644E+02 -0.26855616697E+02  0.59301949670E+02  0.50000010290E+02 0.  0.
        -12    1    1    2    0    0  0.78203945801E+01 -0.15308085644E+02  0.26855616697E+02  0.31886050330E+02  0.00000000000E+00 0.  1.
         11    1    3    3    0    0  0.97925445021E+01  0.25556674872E+01 -0.23791072566E+02  0.25854216257E+02  0.51100000000E-03 0. -1.
        -11    1    3    3    0    0  0.51574916844E+01 -0.62372986715E+00 -0.46766499446E+01  0.69899795699E+01  0.51100000000E-03 0.  1.
         12    1    3    3    0    0 -0.22770430767E+02  0.13376148024E+02  0.16121058138E+01  0.26457753843E+02  0.00000000000E+00 0. -1.
</event>
<event>
 7    1  0.3528441E-013  0.5930194E+02  0.7816164E-02  0.1266605E+00
        -11   -1    0    0    0    0  0.00000000000E+00  0.00000000000E+00  0.45593999997E+02  0.45594000000E+02  0.51100000000E-03 0.  1.
         11   -1    0    0    0    0 -0.00000000000E+00 -0.00000000000E+00 -0.45593999997E+02  0.45594000000E+02  0.51100000000E-03 0. -1.
    9900012    2    1    2    0    0  0.20499820396E+02 -0.10326541642E+02 -0.22132351695E+02  0.59301935801E+02  0.49999984996E+02 0.  0.
        -12    1    1    2    0    0 -0.20499820396E+02  0.10326541642E+02  0.22132351695E+02  0.31886064199E+02  0.00000000000E+00 0.  1.
         11    1    3    3    0    0 -0.94329903273E+00 -0.87993161970E+01 -0.49828443248E+01  0.10156107346E+02  0.51100000000E-03 0.  1.
        -11    1    3    3    0    0 -0.53927493045E+01  0.13991643459E+02 -0.67907158125E+01  0.16460912893E+02  0.51100000000E-03 0. -1.
         12    1    3    3    0    0  0.26835868734E+02 -0.15518868904E+02 -0.10358791558E+02  0.32684915562E+02  0.00000000000E+00 0. -1.
</event>
<event>
 7    1  0.3528441E-013  0.5930195E+02  0.7816164E-02  0.1266605E+00
        -11   -1    0    0    0    0  0.00000000000E+00  0.00000000000E+00  0.45593999997E+02  0.45594000000E+02  0.51100000000E-03 0.  1.
         11   -1    0    0    0    0 -0.00000000000E+00 -0.00000000000E+00 -0.45593999997E+02  0.45594000000E+02  0.51100000000E-03 0. -1.
    9900012    2    1    2    0    0 -0.78380961360E+01  0.28035071510E+02 -0.13012278724E+02  0.59301946885E+02  0.50000005212E+02 0.  0.
        -12    1    1    2    0    0  0.78380961360E+01 -0.28035071510E+02  0.13012278724E+02  0.31886053115E+02  0.00000000000E+00 0.  1.
         11    1    3    3    0    0  0.15905430712E+02 -0.32275327879E+01 -0.78037415829E+01  0.18008278012E+02  0.51100000000E-03 0. -1.
        -11    1    3    3    0    0 -0.60674382788E+01  0.19449820653E+01 -0.28458634588E+01  0.69782305485E+01  0.51100000000E-03 0.  1.
         12    1    3    3    0    0 -0.17676088569E+02  0.29317622233E+02 -0.23626736826E+01  0.34315438325E+02  0.00000000000E+00 0. -1.
</event>
<event>
 7    1  0.3528441E-013  0.5930191E+02  0.7816164E-02  0.1266605E+00
        -11   -1    0    0    0    0  0.00000000000E+00  0.00000000000E+00  0.45593999997E+02  0.45594000000E+02  0.51100000000E-03 0. -1.
         11   -1    0    0    0    0 -0.00000000000E+00 -0.00000000000E+00 -0.45593999997E+02  0.45594000000E+02  0.51100000000E-03 0.  1.
    9900012    2    1    2    0    0  0.23046746158E+02 -0.22035652046E+02  0.23786309881E-02  0.59301914081E+02  0.49999945385E+02 0.  0.
        -12    1    1    2    0    0 -0.23046746158E+02  0.22035652046E+02 -0.23786309881E-02  0.31886085919E+02  0.00000000000E+00 0.  1.
         11    1    3    3    0    0  0.27933047399E+02 -0.12453886802E+02  0.43607929131E+01  0.30892894791E+02  0.51100000000E-03 0.  1.
        -11    1    3    3    0    0  0.47499591558E+01 -0.12598779764E+02  0.52677995531E+01  0.14458252865E+02  0.51100000000E-03 0. -1.
        -12    1    3    3    0    0 -0.96362603972E+01  0.30170145196E+01 -0.96262138352E+01  0.13950766425E+02  0.00000000000E+00 0.  1.
</event>
<event>
 7    1  0.3528441E-013  0.5930194E+02  0.7816164E-02  0.1266605E+00
        -11   -1    0    0    0    0  0.00000000000E+00  0.00000000000E+00  0.45593999997E+02  0.45594000000E+02  0.51100000000E-03 0. -1.
         11   -1    0    0    0    0 -0.00000000000E+00 -0.00000000000E+00 -0.45593999997E+02  0.45594000000E+02  0.51100000000E-03 0.  1.
    9900012    2    1    2    0    0  0.89148981542E+00  0.24091168248E+02  0.20869631727E+02  0.59301942388E+02  0.49999997009E+02 0.  0.
        -12    1    1    2    0    0 -0.89148981542E+00 -0.24091168248E+02 -0.20869631727E+02  0.31886057612E+02  0.00000000000E+00 0.  1.
         11    1    3    3    0    0 -0.86690355375E+01 -0.18076470186E+01 -0.70014962267E+01  0.11288964282E+02  0.51100000000E-03 0. -1.
        -11    1    3    3    0    0  0.53610025616E+01  0.15766991632E+02 -0.14414451975E+01  0.16715745216E+02  0.51100000000E-03 0.  1.
         12    1    3    3    0    0  0.41995227913E+01  0.10131823634E+02  0.29312573151E+02  0.31297232890E+02  0.00000000000E+00 0. -1.
</event>
<event>
 7    1  0.3528441E-013  0.5930193E+02  0.7816164E-02  0.1266605E+00
        -11   -1    0    0    0    0  0.00000000000E+00  0.00000000000E+00  0.45593999997E+02  0.45594000000E+02  0.51100000000E-03 0.  1.
         11   -1    0    0    0    0 -0.00000000000E+00 -0.00000000000E+00 -0.45593999997E+02  0.45594000000E+02  0.51100000000E-03 0. -1.
    9900012    2    1    2    0    0 -0.23552144571E+02 -0.70592071193E+01  0.20302348490E+02  0.59301932929E+02  0.49999979758E+02 0.  0.
        -12    1    1    2    0    0  0.23552144571E+02  0.70592071193E+01 -0.20302348490E+02  0.31886067071E+02  0.00000000000E+00 0.  1.
         11    1    3    3    0    0 -0.62928658054E+01 -0.11014454724E+02 -0.36879904541E+01  0.13210588434E+02  0.51100000000E-03 0. -1.
        -11    1    3    3    0    0 -0.57165116146E+01 -0.14530313884E+02  0.17276963544E+02  0.23287378474E+02  0.51100000000E-03 0.  1.
        -12    1    3    3    0    0 -0.11542767151E+02  0.18485561488E+02  0.67133754001E+01  0.22803966021E+02  0.00000000000E+00 0.  1.
</event>
<event>
 7    1  0.3528441E-013  0.5930194E+02  0.7816164E-02  0.1266605E+00
        -11   -1    0    0    0    0  0.00000000000E+00  0.00000000000E+00  0.45593999997E+02  0.45594000000E+02  0.51100000000E-03 0. -1.
         11   -1    0    0    0    0 -0.00000000000E+00 -0.00000000000E+00 -0.45593999997E+02  0.45594000000E+02  0.51100000000E-03 0.  1.
    9900012    2    1    2    0    0  0.65030687937E+01 -0.11225713378E+02  0.29127552127E+02  0.59301939762E+02  0.49999992221E+02 0.  0.
        -12    1    1    2    0    0 -0.65030687937E+01  0.11225713378E+02 -0.29127552127E+02  0.31886060238E+02  0.00000000000E+00 0.  1.
         11    1    3    3    0    0 -0.36502651780E+01  0.65318918413E+01  0.20946549903E+02  0.22242931461E+02  0.51100000000E-03 0. -1.
        -11    1    3    3    0    0 -0.46514221345E+01  0.49474186412E+01  0.72559733787E+01  0.99378986218E+01  0.51100000000E-03 0.  1.
         12    1    3    3    0    0  0.14804756106E+02 -0.22705023860E+02  0.92502884511E+00  0.27121109679E+02  0.00000000000E+00 0. -1.
</event>
<event>
 7    1  0.3528441E-013  0.5930193E+02  0.7816164E-02  0.1266605E+00
        -11   -1    0    0    0    0  0.00000000000E+00  0.00000000000E+00  0.45593999997E+02  0.45594000000E+02  0.51100000000E-03 0. -1.
         11   -1    0    0    0    0 -0.00000000000E+00 -0.00000000000E+00 -0.45593999997E+02  0.45594000000E+02  0.51100000000E-03 0.  1.
    9900012    2    1    2    0    0  0.10314690129E+02 -0.19853279151E+02  0.22719499063E+02  0.59301934655E+02  0.49999982907E+02 0.  0.
        -12    1    1    2    0    0 -0.10314690129E+02  0.19853279151E+02 -0.22719499063E+02  0.31886065345E+02  0.00000000000E+00 0.  1.
         11    1    3    3    0    0 -0.89468966426E+01 -0.16185457154E+02  0.16413966217E+02  0.24727196972E+02  0.51100000000E-03 0.  1.
        -11    1    3    3    0    0  0.86118525447E+01 -0.83446008298E+01  0.15606810947E+02  0.19681689853E+02  0.51100000000E-03 0. -1.
         12    1    3    3    0    0  0.10649734227E+02  0.46767788336E+01 -0.93012781015E+01  0.14893047831E+02  0.00000000000E+00 0. -1.
</event>
<event>
 7    1  0.3528441E-013  0.5930193E+02  0.7816164E-02  0.1266605E+00
        -11   -1    0    0    0    0  0.00000000000E+00  0.00000000000E+00  0.45593999997E+02  0.45594000000E+02  0.51100000000E-03 0. -1.
         11   -1    0    0    0    0 -0.00000000000E+00 -0.00000000000E+00 -0.45593999997E+02  0.45594000000E+02  0.51100000000E-03 0.  1.
    9900012    2    1    2    0    0 -0.13330776440E+01 -0.27698450192E+02  0.15739756607E+02  0.59301934437E+02  0.49999982509E+02 0.  0.
        -12    1    1    2    0    0  0.13330776440E+01  0.27698450192E+02 -0.15739756607E+02  0.31886065563E+02  0.00000000000E+00 0.  1.
         11    1    3    3    0    0 -0.19767609057E+02 -0.81182750779E+01  0.12624176305E+02  0.24820044031E+02  0.51100000000E-03 0. -1.
        -11    1    3    3    0    0  0.70542348516E+01 -0.19513873818E+02  0.78103832081E+01  0.22171052903E+02  0.51100000000E-03 0.  1.
        -12    1    3    3    0    0  0.11380296561E+02 -0.66301295629E-01 -0.46948029066E+01  0.12310837503E+02  0.00000000000E+00 0.  1.
</event>
<event>
 7    1  0.3528441E-013  0.5930194E+02  0.7816164E-02  0.1266605E+00
        -11   -1    0    0    0    0  0.00000000000E+00  0.00000000000E+00  0.45593999997E+02  0.45594000000E+02  0.51100000000E-03 0. -1.
         11   -1    0    0    0    0 -0.00000000000E+00 -0.00000000000E+00 -0.45593999997E+02  0.45594000000E+02  0.51100000000E-03 0.  1.
    9900012    2    1    2    0    0  0.14157050912E+01  0.27462955456E+02 -0.16140100347E+02  0.59301937489E+02  0.49999988074E+02 0.  0.
        -12    1    1    2    0    0 -0.14157050912E+01 -0.27462955456E+02  0.16140100347E+02  0.31886062511E+02  0.00000000000E+00 0.  1.
         11    1    3    3    0    0  0.88045851571E+01 -0.85706054008E+01 -0.39732583109E+01  0.12913666350E+02  0.51100000000E-03 0. -1.
        -11    1    3    3    0    0  0.32223317657E+01  0.44374054370E+01 -0.11848825652E+02  0.13056364679E+02  0.51100000000E-03 0.  1.
         12    1    3    3    0    0 -0.10611211832E+02  0.31596155420E+02 -0.31801638337E+00  0.33331906460E+02  0.00000000000E+00 0. -1.
</event>
<event>
 7    1  0.3528441E-013  0.5930194E+02  0.7816164E-02  0.1266605E+00
        -11   -1    0    0    0    0  0.00000000000E+00  0.00000000000E+00  0.45593999997E+02  0.45594000000E+02  0.51100000000E-03 0. -1.
         11   -1    0    0    0    0 -0.00000000000E+00 -0.00000000000E+00 -0.45593999997E+02  0.45594000000E+02  0.51100000000E-03 0.  1.
    9900012    2    1    2    0    0 -0.72626183493E+00  0.25778892161E+02  0.18752125300E+02  0.59301938146E+02  0.49999989273E+02 0.  0.
        -12    1    1    2    0    0  0.72626183493E+00 -0.25778892161E+02 -0.18752125300E+02  0.31886061854E+02  0.00000000000E+00 0.  1.
         11    1    3    3    0    0  0.37339266410E+01 -0.64041443507E+01  0.85706261702E+01  0.11331853610E+02  0.51100000000E-03 0. -1.
        -11    1    3    3    0    0  0.11853572655E+02  0.58061277043E+01 -0.41061057880E+01  0.13823111394E+02  0.51100000000E-03 0.  1.
        -12    1    3    3    0    0 -0.16313761131E+02  0.26376908808E+02  0.14287604918E+02  0.34146973142E+02  0.00000000000E+00 0.  1.
</event>
<event>
 7    1  0.3528441E-013  0.5930196E+02  0.7816164E-02  0.1266605E+00
        -11   -1    0    0    0    0  0.00000000000E+00  0.00000000000E+00  0.45593999997E+02  0.45594000000E+02  0.51100000000E-03 0.  1.
         11   -1    0    0    0    0 -0.00000000000E+00 -0.00000000000E+00 -0.45593999997E+02  0.45594000000E+02  0.51100000000E-03 0. -1.
    9900012    2    1    2    0    0  0.18879535570E+02  0.15890070150E+02 -0.20193771875E+02  0.59301958928E+02  0.50000027175E+02 0.  0.
        -12    1    1    2    0    0 -0.18879535570E+02 -0.15890070150E+02  0.20193771875E+02  0.31886041072E+02  0.00000000000E+00 0.  1.
         11    1    3    3    0    0  0.55742986039E+01  0.64839477698E+00 -0.18782696000E+00  0.56150244826E+01  0.51100000000E-03 0.  1.
        -11    1    3    3    0    0  0.24922563914E+02 -0.19693983694E+01 -0.21480237931E+00  0.25001177219E+02  0.51100000000E-03 0. -1.
        -12    1    3    3    0    0 -0.11617326949E+02  0.17211073742E+02 -0.19791142536E+02  0.28685757227E+02  0.00000000000E+00 0.  1.
</event>
<event>
 7    1  0.3528441E-013  0.5930178E+02  0.7816164E-02  0.1266605E+00
        -11   -1    0    0    0    0  0.00000000000E+00  0.00000000000E+00  0.45593999997E+02  0.45594000000E+02  0.51100000000E-03 0.  1.
         11   -1    0    0    0    0 -0.00000000000E+00 -0.00000000000E+00 -0.45593999997E+02  0.45594000000E+02  0.51100000000E-03 0. -1.
    9900012    2    1    2    0    0  0.31494188940E+02  0.46366055303E+01 -0.18300945233E+01  0.59301775799E+02  0.49999693190E+02 0.  0.
        -12    1    1    2    0    0 -0.31494188940E+02 -0.46366055303E+01  0.18300945233E+01  0.31886224201E+02  0.00000000000E+00 0.  1.
         11    1    3    3    0    0  0.72805070270E+01  0.42011190750E+01  0.57614320918E+01  0.10190646891E+02  0.51100000000E-03 0. -1.
        -11    1    3    3    0    0  0.30896405513E+01 -0.14303464152E+02  0.10172540591E+02  0.17821771736E+02  0.51100000000E-03 0.  1.
         12    1    3    3    0    0  0.21124041362E+02  0.14738950607E+02 -0.17764067206E+02  0.31289357171E+02  0.00000000000E+00 0. -1.
</event>
<event>
 7    1  0.3528441E-013  0.5930199E+02  0.7816164E-02  0.1266605E+00
        -11   -1    0    0    0    0  0.00000000000E+00  0.00000000000E+00  0.45593999997E+02  0.45594000000E+02  0.51100000000E-03 0. -1.
         11   -1    0    0    0    0 -0.00000000000E+00 -0.00000000000E+00 -0.45593999997E+02  0.45594000000E+02  0.51100000000E-03 0.  1.
    9900012    2    1    2    0    0  0.17666406737E+02  0.19775927895E+02  0.17706729453E+02  0.59301991799E+02  0.50000087123E+02 0.  0.
        -12    1    1    2    0    0 -0.17666406737E+02 -0.19775927895E+02 -0.17706729453E+02  0.31886008201E+02  0.00000000000E+00 0.  1.
         11    1    3    3    0    0 -0.26583827599E+01 -0.98332830407E+01  0.31795206815E+01  0.10670979631E+02  0.51100000000E-03 0. -1.
        -11    1    3    3    0    0 -0.10766355261E+01  0.12901558479E+02 -0.63134976491E+01  0.14403805333E+02  0.51100000000E-03 0.  1.
         12    1    3    3    0    0  0.21401425023E+02  0.16707652457E+02  0.20840706420E+02  0.34227206835E+02  0.00000000000E+00 0. -1.
</event>
<event>
 7    1  0.3528441E-013  0.5930195E+02  0.7816164E-02  0.1266605E+00
        -11   -1    0    0    0    0  0.00000000000E+00  0.00000000000E+00  0.45593999997E+02  0.45594000000E+02  0.51100000000E-03 0. -1.
         11   -1    0    0    0    0 -0.00000000000E+00 -0.00000000000E+00 -0.45593999997E+02  0.45594000000E+02  0.51100000000E-03 0.  1.
    9900012    2    1    2    0    0 -0.25393475500E+02  0.62395946594E+01  0.18247160370E+02  0.59301952879E+02  0.50000016142E+02 0.  0.
        -12    1    1    2    0    0  0.25393475500E+02 -0.62395946594E+01 -0.18247160370E+02  0.31886047121E+02  0.00000000000E+00 0.  1.
         11    1    3    3    0    0 -0.23921038396E+02 -0.12962377570E+02  0.52944972345E+01  0.27717702131E+02  0.51100000000E-03 0. -1.
        -11    1    3    3    0    0  0.60525672399E+01  0.16595479717E+01  0.10644533238E+02  0.12356931568E+02  0.51100000000E-03 0.  1.
        -12    1    3    3    0    0 -0.75250043433E+01  0.17542424258E+02  0.23081298974E+01  0.19227319179E+02  0.00000000000E+00 0.  1.
</event>
<event>
 7    1  0.3528441E-013  0.5930203E+02  0.7816164E-02  0.1266604E+00
        -11   -1    0    0    0    0  0.00000000000E+00  0.00000000000E+00  0.45593999997E+02  0.45594000000E+02  0.51100000000E-03 0.  1.
         11   -1    0    0    0    0 -0.00000000000E+00 -0.00000000000E+00 -0.45593999997E+02  0.45594000000E+02  0.51100000000E-03 0. -1.
    9900012    2    1    2    0    0  0.28105097290E+02 -0.13157320502E+02 -0.73282823187E+01  0.59302026623E+02  0.50000150634E+02 0.  0.
        -12    1    1    2    0    0 -0.28105097290E+02  0.13157320502E+02  0.73282823187E+01  0.31885973377E+02  0.00000000000E+00 0.  1.
         11    1    3    3    0    0  0.43129032784E+01  0.26723781227E+00  0.36735183156E+01  0.56716212685E+01  0.51100000000E-03 0. -1.
        -11    1    3    3    0    0  0.45783639257E+01  0.16156501876E+02 -0.39697733954E+00  0.16797367662E+02  0.51100000000E-03 0.  1.
         12    1    3    3    0    0  0.19213830085E+02 -0.29581060190E+02 -0.10604823295E+02  0.36833037692E+02  0.00000000000E+00 0. -1.
</event>
<event>
 7    1  0.3528441E-013  0.5930194E+02  0.7816164E-02  0.1266605E+00
        -11   -1    0    0    0    0  0.00000000000E+00  0.00000000000E+00  0.45593999997E+02  0.45594000000E+02  0.51100000000E-03 0.  1.
         11   -1    0    0    0    0 -0.00000000000E+00 -0.00000000000E+00 -0.45593999997E+02  0.45594000000E+02  0.51100000000E-03 0. -1.
    9900012    2    1    2    0    0 -0.54221788247E+00 -0.29976187567E+02 -0.10856098317E+02  0.59301942045E+02  0.49999996383E+02 0.  0.
        -12    1    1    2    0    0  0.54221788247E+00  0.29976187567E+02  0.10856098317E+02  0.31886057955E+02  0.00000000000E+00 0.  1.
         11    1    3    3    0    0 -0.90859039742E+01 -0.59959263924E+01  0.52250264295E+01  0.12075002517E+02  0.51100000000E-03 0. -1.
        -11    1    3    3    0    0 -0.12838816087E+02 -0.15376573264E+01 -0.16539121350E+01  0.13035912479E+02  0.51100000000E-03 0.  1.
         12    1    3    3    0    0  0.21382502178E+02 -0.22442603848E+02 -0.14427212611E+02  0.34191027048E+02  0.00000000000E+00 0. -1.
</event>
<event>
 7    1  0.3528441E-013  0.5930194E+02  0.7816164E-02  0.1266605E+00
        -11   -1    0    0    0    0  0.00000000000E+00  0.00000000000E+00  0.45593999997E+02  0.45594000000E+02  0.51100000000E-03 0.  1.
         11   -1    0    0    0    0 -0.00000000000E+00 -0.00000000000E+00 -0.45593999997E+02  0.45594000000E+02  0.51100000000E-03 0. -1.
    9900012    2    1    2    0    0  0.23837902313E+02 -0.65117068232E+01  0.20151244994E+02  0.59301943686E+02  0.49999999378E+02 0.  0.
        -12    1    1    2    0    0 -0.23837902313E+02  0.65117068232E+01 -0.20151244994E+02  0.31886056314E+02  0.00000000000E+00 0.  1.
         11    1    3    3    0    0 -0.70077374690E+01 -0.26474959573E+00 -0.73795315492E+01  0.10180174995E+02  0.51100000000E-03 0. -1.
        -11    1    3    3    0    0  0.91620041579E+01 -0.10210159409E+01  0.25034629117E+02  0.26678033081E+02  0.51100000000E-03 0.  1.
         12    1    3    3    0    0  0.21683635624E+02 -0.52259412866E+01  0.24961474259E+01  0.22443735611E+02  0.00000000000E+00 0. -1.
</event>
<event>
 7    1  0.3528441E-013  0.5930193E+02  0.7816164E-02  0.1266605E+00
        -11   -1    0    0    0    0  0.00000000000E+00  0.00000000000E+00  0.45593999997E+02  0.45594000000E+02  0.51100000000E-03 0.  1.
         11   -1    0    0    0    0 -0.00000000000E+00 -0.00000000000E+00 -0.45593999997E+02  0.45594000000E+02  0.51100000000E-03 0. -1.
    9900012    2    1    2    0    0 -0.18752058196E+02  0.24633720295E+02 -0.76329233149E+01  0.59301931247E+02  0.49999976691E+02 0.  0.
        -12    1    1    2    0    0  0.18752058196E+02 -0.24633720295E+02  0.76329233149E+01  0.31886068753E+02  0.00000000000E+00 0.  1.
         11    1    3    3    0    0 -0.21519495986E+02  0.77212917680E+01 -0.32783513336E+01  0.23096637023E+02  0.51100000000E-03 0. -1.
        -11    1    3    3    0    0 -0.40102613065E+01 -0.17043986780E+01  0.10548892405E+02  0.11413426385E+02  0.51100000000E-03 0.  1.
         12    1    3    3    0    0  0.67776990963E+01  0.18616827205E+02 -0.14903464387E+02  0.24791867839E+02  0.00000000000E+00 0. -1.
</event>
<event>
 7    1  0.3528441E-013  0.5930197E+02  0.7816164E-02  0.1266605E+00
        -11   -1    0    0    0    0  0.00000000000E+00  0.00000000000E+00  0.45593999997E+02  0.45594000000E+02  0.51100000000E-03 0.  1.
         11   -1    0    0    0    0 -0.00000000000E+00 -0.00000000000E+00 -0.45593999997E+02  0.45594000000E+02  0.51100000000E-03 0. -1.
    9900012    2    1    2    0    0 -0.16566112361E+02  0.20080283937E+02 -0.18413722687E+02  0.59301967557E+02  0.50000042912E+02 0.  0.
        -12    1    1    2    0    0  0.16566112361E+02 -0.20080283937E+02  0.18413722687E+02  0.31886032443E+02  0.00000000000E+00 0.  1.
         11    1    3    3    0    0  0.22003303812E+01  0.19997210782E+02 -0.20692961337E+01  0.20224042118E+02  0.51100000000E-03 0. -1.
        -11    1    3    3    0    0  0.82751444177E+01 -0.14713272525E+01 -0.41373457385E+01  0.93680547094E+01  0.51100000000E-03 0.  1.
        -12    1    3    3    0    0 -0.27041587160E+02  0.15544004077E+01 -0.12207080815E+02  0.29709870729E+02  0.00000000000E+00 0.  1.
</event>
<event>
 7    1  0.3528441E-013  0.5930215E+02  0.7816164E-02  0.1266604E+00
        -11   -1    0    0    0    0  0.00000000000E+00  0.00000000000E+00  0.45593999997E+02  0.45594000000E+02  0.51100000000E-03 0. -1.
         11   -1    0    0    0    0 -0.00000000000E+00 -0.00000000000E+00 -0.45593999997E+02  0.45594000000E+02  0.51100000000E-03 0.  1.
    9900012    2    1    2    0    0  0.19867035938E+02 -0.20830997844E+02  0.13714149848E+02  0.59302148997E+02  0.50000373814E+02 0.  0.
        -12    1    1    2    0    0 -0.19867035938E+02  0.20830997844E+02 -0.13714149848E+02  0.31885851003E+02  0.00000000000E+00 0.  1.
         11    1    3    3    0    0  0.92823350948E+01  0.85412517962E+01 -0.34398625367E+01  0.13074684761E+02  0.51100000000E-03 0. -1.
        -11    1    3    3    0    0  0.55049520768E+01 -0.16609964762E+01 -0.70412864148E+01  0.90908262165E+01  0.51100000000E-03 0.  1.
         12    1    3    3    0    0  0.50797487660E+01 -0.27711253164E+02  0.24195298799E+02  0.37136638020E+02  0.00000000000E+00 0. -1.
</event>
<event>
 7    1  0.3528441E-013  0.5930195E+02  0.7816164E-02  0.1266605E+00
        -11   -1    0    0    0    0  0.00000000000E+00  0.00000000000E+00  0.45593999997E+02  0.45594000000E+02  0.51100000000E-03 0.  1.
         11   -1    0    0    0    0 -0.00000000000E+00 -0.00000000000E+00 -0.45593999997E+02  0.45594000000E+02  0.51100000000E-03 0. -1.
    9900012    2    1    2    0    0  0.62165554533E+01 -0.20819966173E+02 -0.23336747845E+02  0.59301947358E+02  0.50000006073E+02 0.  0.
        -12    1    1    2    0    0 -0.62165554533E+01  0.20819966173E+02  0.23336747845E+02  0.31886052642E+02  0.00000000000E+00 0.  1.
         11    1    3    3    0    0  0.62987781237E+01  0.60094303625E+01 -0.31010458879E+01  0.92414471266E+01  0.51100000000E-03 0. -1.
        -11    1    3    3    0    0 -0.42934388123E+01 -0.11107530668E+02  0.10112754866E+02  0.15623017174E+02  0.51100000000E-03 0.  1.
        -12    1    3    3    0    0  0.42112161418E+01 -0.15721865867E+02 -0.30348456823E+02  0.34437483057E+02  0.00000000000E+00 0.  1.
</event>
<event>
 7    1  0.3528441E-013  0.5930200E+02  0.7816164E-02  0.1266605E+00
        -11   -1    0    0    0    0  0.00000000000E+00  0.00000000000E+00  0.45593999997E+02  0.45594000000E+02  0.51100000000E-03 0.  1.
         11   -1    0    0    0    0 -0.00000000000E+00 -0.00000000000E+00 -0.45593999997E+02  0.45594000000E+02  0.51100000000E-03 0. -1.
    9900012    2    1    2    0    0 -0.26585947186E+02 -0.16881046620E+02 -0.49934489975E+01  0.59302002201E+02  0.50000106093E+02 0.  0.
        -12    1    1    2    0    0  0.26585947186E+02  0.16881046620E+02  0.49934489975E+01  0.31885997799E+02  0.00000000000E+00 0.  1.
         11    1    3    3    0    0 -0.26818844252E+01  0.38654108897E+01 -0.47369652310E+00  0.47284557811E+01  0.51100000000E-03 0. -1.
        -11    1    3    3    0    0 -0.33790637408E+02 -0.30196079848E+01 -0.48702841852E+01  0.34273092611E+02  0.51100000000E-03 0.  1.
        -12    1    3    3    0    0  0.98865746474E+01 -0.17726849525E+02  0.35053171082E+00  0.20300453808E+02  0.00000000000E+00 0.  1.
</event>
<event>
 7    1  0.3528441E-013  0.5930194E+02  0.7816164E-02  0.1266605E+00
        -11   -1    0    0    0    0  0.00000000000E+00  0.00000000000E+00  0.45593999997E+02  0.45594000000E+02  0.51100000000E-03 0. -1.
         11   -1    0    0    0    0 -0.00000000000E+00 -0.00000000000E+00 -0.45593999997E+02  0.45594000000E+02  0.51100000000E-03 0.  1.
    9900012    2    1    2    0    0 -0.47335340794E+01  0.31290756720E+02 -0.38990818384E+01  0.59301942857E+02  0.49999997864E+02 0.  0.
        -12    1    1    2    0    0  0.47335340794E+01 -0.31290756720E+02  0.38990818384E+01  0.31886057143E+02  0.00000000000E+00 0.  1.
         11    1    3    3    0    0  0.21914651208E+01  0.12674922423E+02  0.79840713612E+00  0.12887731841E+02  0.51100000000E-03 0. -1.
        -11    1    3    3    0    0  0.36707865223E+01  0.29034984049E+02  0.34469184526E+01  0.29468393568E+02  0.51100000000E-03 0.  1.
        -12    1    3    3    0    0 -0.10595785722E+02 -0.10419149752E+02 -0.81444074271E+01  0.16945817448E+02  0.00000000000E+00 0.  1.
</event>
<event>
 7    1  0.3528441E-013  0.5930196E+02  0.7816164E-02  0.1266605E+00
        -11   -1    0    0    0    0  0.00000000000E+00  0.00000000000E+00  0.45593999997E+02  0.45594000000E+02  0.51100000000E-03 0.  1.
         11   -1    0    0    0    0 -0.00000000000E+00 -0.00000000000E+00 -0.45593999997E+02  0.45594000000E+02  0.51100000000E-03 0. -1.
    9900012    2    1    2    0    0 -0.15294752301E+01 -0.31088218238E+02 -0.69211905440E+01  0.59301960951E+02  0.50000030864E+02 0.  0.
        -12    1    1    2    0    0  0.15294752301E+01  0.31088218238E+02  0.69211905440E+01  0.31886039049E+02  0.00000000000E+00 0.  1.
         11    1    3    3    0    0  0.73571205280E+01  0.21462833683E+01 -0.10257344390E+02  0.12804173888E+02  0.51100000000E-03 0. -1.
        -11    1    3    3    0    0  0.14642230308E+01  0.28794354307E+01 -0.68498684819E+01  0.75733609424E+01  0.51100000000E-03 0.  1.
        -12    1    3    3    0    0 -0.10350818789E+02 -0.36113937037E+02  0.10186022328E+02  0.38924426120E+02  0.00000000000E+00 0.  1.
</event>
<event>
 7    1  0.3528441E-013  0.5930192E+02  0.7816164E-02  0.1266605E+00
        -11   -1    0    0    0    0  0.00000000000E+00  0.00000000000E+00  0.45593999997E+02  0.45594000000E+02  0.51100000000E-03 0.  1.
         11   -1    0    0    0    0 -0.00000000000E+00 -0.00000000000E+00 -0.45593999997E+02  0.45594000000E+02  0.51100000000E-03 0. -1.
    9900012    2    1    2    0    0 -0.22379307033E+02 -0.18405802193E+02 -0.13308468481E+02  0.59301917285E+02  0.49999951227E+02 0.  0.
        -12    1    1    2    0    0  0.22379307033E+02  0.18405802193E+02  0.13308468481E+02  0.31886082715E+02  0.00000000000E+00 0.  1.
         11    1    3    3    0    0 -0.59080495434E+01 -0.13810828424E+02 -0.55355888809E+01  0.16008959231E+02  0.51100000000E-03 0. -1.
        -11    1    3    3    0    0  0.57200429560E+01 -0.51855924125E+01  0.11529305434E+02  0.13875667340E+02  0.51100000000E-03 0.  1.
         12    1    3    3    0    0 -0.22191300446E+02  0.59061864353E+00 -0.19302185033E+02  0.29417290713E+02  0.00000000000E+00 0. -1.
</event>
<event>
 7    1  0.3528441E-013  0.5930193E+02  0.7816164E-02  0.1266605E+00
        -11   -1    0    0    0    0  0.00000000000E+00  0.00000000000E+00  0.45593999997E+02  0.45594000000E+02  0.51100000000E-03 0. -1.
         11   -1    0    0    0    0 -0.00000000000E+00 -0.00000000000E+00 -0.45593999997E+02  0.45594000000E+02  0.51100000000E-03 0.  1.
    9900012    2    1    2    0    0  0.23885927263E+02  0.20389534091E+02  0.55182198899E+01  0.59301931375E+02  0.49999976924E+02 0.  0.
        -12    1    1    2    0    0 -0.23885927263E+02 -0.20389534091E+02 -0.55182198899E+01  0.31886068625E+02  0.00000000000E+00 0.  1.
         11    1    3    3    0    0  0.26178662719E+01  0.19278298070E+02  0.49016073181E+01  0.20063194034E+02  0.51100000000E-03 0. -1.
        -11    1    3    3    0    0 -0.74057373417E+01 -0.53633611582E+01  0.32992437078E+01  0.97208846199E+01  0.51100000000E-03 0.  1.
         12    1    3    3    0    0  0.28673798332E+02  0.64745971792E+01 -0.26826311360E+01  0.29517852721E+02  0.00000000000E+00 0. -1.
</event>
<event>
 7    1  0.3528441E-013  0.5930194E+02  0.7816164E-02  0.1266605E+00
        -11   -1    0    0    0    0  0.00000000000E+00  0.00000000000E+00  0.45593999997E+02  0.45594000000E+02  0.51100000000E-03 0.  1.
         11   -1    0    0    0    0 -0.00000000000E+00 -0.00000000000E+00 -0.45593999997E+02  0.45594000000E+02  0.51100000000E-03 0. -1.
    9900012    2    1    2    0    0  0.23171281676E+02  0.21163590462E+02 -0.56493095795E+01  0.59301944200E+02  0.50000000315E+02 0.  0.
        -12    1    1    2    0    0 -0.23171281676E+02 -0.21163590462E+02  0.56493095795E+01  0.31886055800E+02  0.00000000000E+00 0.  1.
         11    1    3    3    0    0  0.30734935947E+01 -0.14591112855E+01 -0.62816110528E+01  0.71438089490E+01  0.51100000000E-03 0. -1.
        -11    1    3    3    0    0  0.13235928712E+02  0.12344179331E+02 -0.20704950847E+02  0.27500246581E+02  0.51100000000E-03 0.  1.
        -12    1    3    3    0    0  0.68618593699E+01  0.10278522416E+02  0.21337252320E+02  0.24657888670E+02  0.00000000000E+00 0.  1.
</event>
<event>
 7    1  0.3528441E-013  0.5930195E+02  0.7816164E-02  0.1266605E+00
        -11   -1    0    0    0    0  0.00000000000E+00  0.00000000000E+00  0.45593999997E+02  0.45594000000E+02  0.51100000000E-03 0.  1.
         11   -1    0    0    0    0 -0.00000000000E+00 -0.00000000000E+00 -0.45593999997E+02  0.45594000000E+02  0.51100000000E-03 0. -1.
    9900012    2    1    2    0    0  0.28923637751E+02 -0.13236093004E+02 -0.22246459452E+01  0.59301952450E+02  0.50000015361E+02 0.  0.
        -12    1    1    2    0    0 -0.28923637751E+02  0.13236093004E+02  0.22246459452E+01  0.31886047550E+02  0.00000000000E+00 0.  1.
         11    1    3    3    0    0  0.16357309029E+02 -0.12314942743E+02 -0.25413777121E+01  0.20631964869E+02  0.51100000000E-03 0. -1.
        -11    1    3    3    0    0 -0.54964642163E+01 -0.13989180898E+02  0.50931272026E+01  0.15869727346E+02  0.51100000000E-03 0.  1.
         12    1    3    3    0    0  0.18062792938E+02  0.13068030636E+02 -0.47763954357E+01  0.22800260235E+02  0.00000000000E+00 0. -1.
</event>
<event>
 7    1  0.3528441E-013  0.5930194E+02  0.7816164E-02  0.1266605E+00
        -11   -1    0    0    0    0  0.00000000000E+00  0.00000000000E+00  0.45593999997E+02  0.45594000000E+02  0.51100000000E-03 0. -1.
         11   -1    0    0    0    0 -0.00000000000E+00 -0.00000000000E+00 -0.45593999997E+02  0.45594000000E+02  0.51100000000E-03 0.  1.
    9900012    2    1    2    0    0  0.27536792481E+00  0.16844404168E+02  0.27072327401E+02  0.59301942072E+02  0.49999996433E+02 0.  0.
        -12    1    1    2    0    0 -0.27536792481E+00 -0.16844404168E+02 -0.27072327401E+02  0.31886057928E+02  0.00000000000E+00 0.  1.
         11    1    3    3    0    0 -0.10796575380E+02  0.90661759413E+01  0.18308162554E+02  0.23107366845E+02  0.51100000000E-03 0. -1.
        -11    1    3    3    0    0 -0.60507457402E+01  0.10090110891E+02 -0.62341292953E+01  0.13314887537E+02  0.51100000000E-03 0.  1.
         12    1    3    3    0    0  0.17122689046E+02 -0.23118826638E+01  0.14998294142E+02  0.22879687690E+02  0.00000000000E+00 0. -1.
</event>
<event>
 7    1  0.3528441E-013  0.5930195E+02  0.7816164E-02  0.1266605E+00
        -11   -1    0    0    0    0  0.00000000000E+00  0.00000000000E+00  0.45593999997E+02  0.45594000000E+02  0.51100000000E-03 0.  1.
         11   -1    0    0    0    0 -0.00000000000E+00 -0.00000000000E+00 -0.45593999997E+02  0.45594000000E+02  0.51100000000E-03 0. -1.
    9900012    2    1    2    0    0  0.26033434115E+02 -0.61234570726E+01 -0.17363297000E+02  0.59301945037E+02  0.50000001841E+02 0.  0.
        -12    1    1    2    0    0 -0.26033434115E+02  0.61234570726E+01  0.17363297000E+02  0.31886054963E+02  0.00000000000E+00 0.  1.
         11    1    3    3    0    0 -0.69342322566E+01 -0.13567684343E+02 -0.97324730929E+01  0.18080007417E+02  0.51100000000E-03 0.  1.
        -11    1    3    3    0    0  0.16056545606E+01  0.52323610043E+01 -0.81032615047E+01  0.97784751123E+01  0.51100000000E-03 0. -1.
        -12    1    3    3    0    0  0.31362011811E+02  0.22118662662E+01  0.47243759723E+00  0.31443462508E+02  0.00000000000E+00 0.  1.
</event>
<event>
 7    1  0.3528441E-013  0.5930193E+02  0.7816164E-02  0.1266605E+00
        -11   -1    0    0    0    0  0.00000000000E+00  0.00000000000E+00  0.45593999997E+02  0.45594000000E+02  0.51100000000E-03 0.  1.
         11   -1    0    0    0    0 -0.00000000000E+00 -0.00000000000E+00 -0.45593999997E+02  0.45594000000E+02  0.51100000000E-03 0. -1.
    9900012    2    1    2    0    0  0.30795530916E+02 -0.19045683171E+01 -0.80454551726E+01  0.59301930098E+02  0.49999974595E+02 0.  0.
        -12    1    1    2    0    0 -0.30795530916E+02  0.19045683171E+01  0.80454551726E+01  0.31886069902E+02  0.00000000000E+00 0.  1.
         11    1    3    3    0    0  0.11196318177E+02 -0.10922014871E+02 -0.46727557996E+00  0.15648204251E+02  0.51100000000E-03 0. -1.
        -11    1    3    3    0    0 -0.77462304651E+01 -0.43384218924E+01 -0.96967056528E+01  0.13147322606E+02  0.51100000000E-03 0.  1.
        -12    1    3    3    0    0  0.27345443205E+02  0.13355868446E+02  0.21185260602E+01  0.30506403241E+02  0.00000000000E+00 0.  1.
</event>
<event>
 7    1  0.3528441E-013  0.5930197E+02  0.7816164E-02  0.1266605E+00
        -11   -1    0    0    0    0  0.00000000000E+00  0.00000000000E+00  0.45593999997E+02  0.45594000000E+02  0.51100000000E-03 0. -1.
         11   -1    0    0    0    0 -0.00000000000E+00 -0.00000000000E+00 -0.45593999997E+02  0.45594000000E+02  0.51100000000E-03 0.  1.
    9900012    2    1    2    0    0  0.29756510199E+02  0.11021033746E+02  0.31314155727E+01  0.59301970966E+02  0.50000049129E+02 0.  0.
        -12    1    1    2    0    0 -0.29756510199E+02 -0.11021033746E+02 -0.31314155727E+01  0.31886029034E+02  0.00000000000E+00 0.  1.
         11    1    3    3    0    0 -0.54664899808E+01 -0.21763134065E+01 -0.12167752746E+01  0.60082772142E+01  0.51100000000E-03 0. -1.
        -11    1    3    3    0    0  0.10438554066E+02  0.18933373827E+02 -0.10289100341E+02  0.23943718207E+02  0.51100000000E-03 0.  1.
         12    1    3    3    0    0  0.24784446114E+02 -0.57360266742E+01  0.14637291188E+02  0.29349975545E+02  0.00000000000E+00 0. -1.
</event>
<event>
 7    1  0.3528441E-013  0.5930197E+02  0.7816164E-02  0.1266605E+00
        -11   -1    0    0    0    0  0.00000000000E+00  0.00000000000E+00  0.45593999997E+02  0.45594000000E+02  0.51100000000E-03 0.  1.
         11   -1    0    0    0    0 -0.00000000000E+00 -0.00000000000E+00 -0.45593999997E+02  0.45594000000E+02  0.51100000000E-03 0. -1.
    9900012    2    1    2    0    0  0.27756140714E+02  0.12395692000E+02  0.96261334753E+01  0.59301968996E+02  0.50000045535E+02 0.  0.
        -12    1    1    2    0    0 -0.27756140714E+02 -0.12395692000E+02 -0.96261334753E+01  0.31886031004E+02  0.00000000000E+00 0.  1.
         11    1    3    3    0    0  0.31598483714E+02  0.95804623712E+01  0.47516491320E+01  0.33359070761E+02  0.51100000000E-03 0. -1.
        -11    1    3    3    0    0  0.34460514897E+01 -0.74710792140E+01 -0.52621229288E+01  0.97663828243E+01  0.51100000000E-03 0.  1.
         12    1    3    3    0    0 -0.72883944893E+01  0.10286308843E+02  0.10136607272E+02  0.16176515411E+02  0.00000000000E+00 0. -1.
</event>
<event>
 7    1  0.3528441E-013  0.5930190E+02  0.7816164E-02  0.1266605E+00
        -11   -1    0    0    0    0  0.00000000000E+00  0.00000000000E+00  0.45593999997E+02  0.45594000000E+02  0.51100000000E-03 0. -1.
         11   -1    0    0    0    0 -0.00000000000E+00 -0.00000000000E+00 -0.45593999997E+02  0.45594000000E+02  0.51100000000E-03 0.  1.
    9900012    2    1    2    0    0  0.16369900286E+02 -0.24302003069E+02  0.12576268065E+02  0.59301897902E+02  0.49999915878E+02 0.  0.
        -12    1    1    2    0    0 -0.16369900286E+02  0.24302003069E+02 -0.12576268065E+02  0.31886102098E+02  0.00000000000E+00 0.  1.
         11    1    3    3    0    0  0.20028056140E+02 -0.37482403163E+02  0.11554823378E+02  0.44040521377E+02  0.51100000000E-03 0. -1.
        -11    1    3    3    0    0 -0.30004609237E+01  0.16965396853E+01  0.14762499969E+01  0.37497102519E+01  0.51100000000E-03 0.  1.
        -12    1    3    3    0    0 -0.65769493041E+00  0.11483860409E+02 -0.45480530958E+00  0.11511666273E+02  0.00000000000E+00 0.  1.
</event>
<event>
 7    1  0.3528441E-013  0.5930195E+02  0.7816164E-02  0.1266605E+00
        -11   -1    0    0    0    0  0.00000000000E+00  0.00000000000E+00  0.45593999997E+02  0.45594000000E+02  0.51100000000E-03 0.  1.
         11   -1    0    0    0    0 -0.00000000000E+00 -0.00000000000E+00 -0.45593999997E+02  0.45594000000E+02  0.51100000000E-03 0. -1.
    9900012    2    1    2    0    0 -0.54809973056E+01  0.19128340160E+01 -0.31353149705E+02  0.59301948789E+02  0.50000008683E+02 0.  0.
        -12    1    1    2    0    0  0.54809973056E+01 -0.19128340160E+01  0.31353149705E+02  0.31886051211E+02  0.00000000000E+00 0.  1.
         11    1    3    3    0    0  0.47387854652E+01  0.16277329812E+02 -0.12166661334E+01  0.16996700569E+02  0.51100000000E-03 0. -1.
        -11    1    3    3    0    0 -0.75212686998E+01  0.21437358437E+01 -0.22681246337E+02  0.23991749038E+02  0.51100000000E-03 0.  1.
        -12    1    3    3    0    0 -0.26985140710E+01 -0.16508231640E+02 -0.74552372342E+01  0.18313499182E+02  0.00000000000E+00 0.  1.
</event>
<event>
 7    1  0.3528441E-013  0.5930195E+02  0.7816164E-02  0.1266605E+00
        -11   -1    0    0    0    0  0.00000000000E+00  0.00000000000E+00  0.45593999997E+02  0.45594000000E+02  0.51100000000E-03 0. -1.
         11   -1    0    0    0    0 -0.00000000000E+00 -0.00000000000E+00 -0.45593999997E+02  0.45594000000E+02  0.51100000000E-03 0.  1.
    9900012    2    1    2    0    0  0.14359321671E+02  0.26188195015E+02 -0.11167282219E+02  0.59301954947E+02  0.50000019913E+02 0.  0.
        -12    1    1    2    0    0 -0.14359321671E+02 -0.26188195015E+02  0.11167282219E+02  0.31886045053E+02  0.00000000000E+00 0.  1.
         11    1    3    3    0    0  0.22107723617E+01  0.15708094443E+02 -0.19383936710E+01  0.15980898465E+02  0.51100000000E-03 0. -1.
        -11    1    3    3    0    0  0.20153396398E+02  0.17609246932E+02  0.31484026594E+01  0.26947307907E+02  0.51100000000E-03 0.  1.
        -12    1    3    3    0    0 -0.80048470889E+01 -0.71291463598E+01 -0.12377291208E+02  0.16373748574E+02  0.00000000000E+00 0.  1.
</event>
<event>
 7    1  0.3528441E-013  0.5930196E+02  0.7816164E-02  0.1266605E+00
        -11   -1    0    0    0    0  0.00000000000E+00  0.00000000000E+00  0.45593999997E+02  0.45594000000E+02  0.51100000000E-03 0. -1.
         11   -1    0    0    0    0 -0.00000000000E+00 -0.00000000000E+00 -0.45593999997E+02  0.45594000000E+02  0.51100000000E-03 0.  1.
    9900012    2    1    2    0    0 -0.19296547260E+02  0.24774200495E+02  0.55318759725E+01  0.59301962333E+02  0.50000033384E+02 0.  0.
        -12    1    1    2    0    0  0.19296547260E+02 -0.24774200495E+02 -0.55318759725E+01  0.31886037667E+02  0.00000000000E+00 0.  1.
         11    1    3    3    0    0 -0.19514484388E+02  0.50909473935E+01 -0.13348714931E+02  0.24185140828E+02  0.51100000000E-03 0. -1.
        -11    1    3    3    0    0 -0.63569141894E+01  0.17385759824E+01 -0.19251720108E+01  0.68658059971E+01  0.51100000000E-03 0.  1.
         12    1    3    3    0    0  0.65748513174E+01  0.17944677120E+02  0.20805762914E+02  0.28251015508E+02  0.00000000000E+00 0. -1.
</event>
<event>
 7    1  0.3528441E-013  0.5930168E+02  0.7816164E-02  0.1266606E+00
        -11   -1    0    0    0    0  0.00000000000E+00  0.00000000000E+00  0.45593999997E+02  0.45594000000E+02  0.51100000000E-03 0.  1.
         11   -1    0    0    0    0 -0.00000000000E+00 -0.00000000000E+00 -0.45593999997E+02  0.45594000000E+02  0.51100000000E-03 0. -1.
    9900012    2    1    2    0    0  0.26376179367E+02  0.17915236134E+02 -0.28079123411E+00  0.59301680560E+02  0.49999519496E+02 0.  0.
        -12    1    1    2    0    0 -0.26376179367E+02 -0.17915236134E+02  0.28079123411E+00  0.31886319440E+02  0.00000000000E+00 0.  1.
         11    1    3    3    0    0 -0.13468008400E+01  0.16449507564E+02 -0.18755655964E+00  0.16505615691E+02  0.51100000000E-03 0. -1.
        -11    1    3    3    0    0  0.40310228307E+01 -0.39838660391E+01  0.13713422313E+02  0.14838405760E+02  0.51100000000E-03 0.  1.
         12    1    3    3    0    0  0.23691957376E+02  0.54495946087E+01 -0.13806656988E+02  0.27957659110E+02  0.00000000000E+00 0. -1.
</event>
<event>
 7    1  0.3528441E-013  0.5930193E+02  0.7816164E-02  0.1266605E+00
        -11   -1    0    0    0    0  0.00000000000E+00  0.00000000000E+00  0.45593999997E+02  0.45594000000E+02  0.51100000000E-03 0. -1.
         11   -1    0    0    0    0 -0.00000000000E+00 -0.00000000000E+00 -0.45593999997E+02  0.45594000000E+02  0.51100000000E-03 0.  1.
    9900012    2    1    2    0    0 -0.62154130656E+01  0.20336318963E+02  0.23759724490E+02  0.59301925666E+02  0.49999966513E+02 0.  0.
        -12    1    1    2    0    0  0.62154130656E+01 -0.20336318963E+02 -0.23759724490E+02  0.31886074334E+02  0.00000000000E+00 0.  1.
         11    1    3    3    0    0  0.88193849317E+01 -0.20483268269E+01  0.53210726599E+00  0.90697481645E+01  0.51100000000E-03 0. -1.
        -11    1    3    3    0    0  0.40195392478E+01 -0.78296311364E+01  0.51572184765E+01  0.10200819681E+02  0.51100000000E-03 0.  1.
        -12    1    3    3    0    0 -0.19054337245E+02  0.30214276926E+02  0.18070398748E+02  0.40031357820E+02  0.00000000000E+00 0.  1.
</event>
<event>
 7    1  0.3528441E-013  0.5930196E+02  0.7816164E-02  0.1266605E+00
        -11   -1    0    0    0    0  0.00000000000E+00  0.00000000000E+00  0.45593999997E+02  0.45594000000E+02  0.51100000000E-03 0.  1.
         11   -1    0    0    0    0 -0.00000000000E+00 -0.00000000000E+00 -0.45593999997E+02  0.45594000000E+02  0.51100000000E-03 0. -1.
    9900012    2    1    2    0    0 -0.98601485781E+01 -0.24320100087E+02 -0.18111595471E+02  0.59301957776E+02  0.50000025073E+02 0.  0.
        -12    1    1    2    0    0  0.98601485781E+01  0.24320100087E+02  0.18111595471E+02  0.31886042224E+02  0.00000000000E+00 0.  1.
         11    1    3    3    0    0 -0.17243927153E+01  0.21563656802E+00  0.32235541107E+01  0.36621483765E+01  0.51100000000E-03 0. -1.
        -11    1    3    3    0    0 -0.41404719719E+01  0.12311141251E+02 -0.23351801103E+00  0.12990852088E+02  0.51100000000E-03 0.  1.
         12    1    3    3    0    0 -0.39952838909E+01 -0.36846877906E+02 -0.21101631571E+02  0.42648957311E+02  0.00000000000E+00 0. -1.
</event>
<event>
 7    1  0.3528441E-013  0.5930193E+02  0.7816164E-02  0.1266605E+00
        -11   -1    0    0    0    0  0.00000000000E+00  0.00000000000E+00  0.45593999997E+02  0.45594000000E+02  0.51100000000E-03 0.  1.
         11   -1    0    0    0    0 -0.00000000000E+00 -0.00000000000E+00 -0.45593999997E+02  0.45594000000E+02  0.51100000000E-03 0. -1.
    9900012    2    1    2    0    0 -0.22154550304E+02 -0.19548726387E+02 -0.11989363401E+02  0.59301927220E+02  0.49999969348E+02 0.  0.
        -12    1    1    2    0    0  0.22154550304E+02  0.19548726387E+02  0.11989363401E+02  0.31886072780E+02  0.00000000000E+00 0.  1.
         11    1    3    3    0    0  0.13720505545E+02 -0.30612524879E+01  0.38305860839E+01  0.14570412802E+02  0.51100000000E-03 0.  1.
        -11    1    3    3    0    0 -0.11048775482E+02  0.15221777204E+01 -0.36613325173E+01  0.11738731649E+02  0.51100000000E-03 0. -1.
        -12    1    3    3    0    0 -0.24826280367E+02 -0.18009651619E+02 -0.12158616968E+02  0.32992782770E+02  0.00000000000E+00 0.  1.
</event>
<event>
 7    1  0.3528441E-013  0.5930195E+02  0.7816164E-02  0.1266605E+00
        -11   -1    0    0    0    0  0.00000000000E+00  0.00000000000E+00  0.45593999997E+02  0.45594000000E+02  0.51100000000E-03 0.  1.
         11   -1    0    0    0    0 -0.00000000000E+00 -0.00000000000E+00 -0.45593999997E+02  0.45594000000E+02  0.51100000000E-03 0. -1.
    9900012    2    1    2    0    0  0.59158681028E+01 -0.14419196044E+02 -0.27817430462E+02  0.59301950582E+02  0.50000011954E+02 0.  0.
        -12    1    1    2    0    0 -0.59158681028E+01  0.14419196044E+02  0.27817430462E+02  0.31886049418E+02  0.00000000000E+00 0.  1.
         11    1    3    3    0    0  0.12417789325E+02 -0.72419147504E+01  0.85690862614E+01  0.16735473121E+02  0.51100000000E-03 0. -1.
        -11    1    3    3    0    0 -0.11310923748E+02 -0.59023148308E+00 -0.10569678440E+02  0.15492045437E+02  0.51100000000E-03 0.  1.
        -12    1    3    3    0    0  0.48090025252E+01 -0.65870498103E+01 -0.25816838283E+02  0.27074432024E+02  0.00000000000E+00 0.  1.
</event>
<event>
 7    1  0.3528441E-013  0.5930194E+02  0.7816164E-02  0.1266605E+00
        -11   -1    0    0    0    0  0.00000000000E+00  0.00000000000E+00  0.45593999997E+02  0.45594000000E+02  0.51100000000E-03 0.  1.
         11   -1    0    0    0    0 -0.00000000000E+00 -0.00000000000E+00 -0.45593999997E+02  0.45594000000E+02  0.51100000000E-03 0. -1.
    9900012    2    1    2    0    0  0.23655406700E+02 -0.15428312296E+02 -0.14802356359E+02  0.59301939720E+02  0.49999992144E+02 0.  0.
        -12    1    1    2    0    0 -0.23655406700E+02  0.15428312296E+02  0.14802356359E+02  0.31886060280E+02  0.00000000000E+00 0.  1.
         11    1    3    3    0    0  0.14889694619E+02  0.34169872848E+01  0.53253691378E+01  0.16178330095E+02  0.51100000000E-03 0. -1.
        -11    1    3    3    0    0  0.18519315547E+01  0.77473358498E+01 -0.12120965370E+02  0.14504091320E+02  0.51100000000E-03 0.  1.
         12    1    3    3    0    0  0.69137805259E+01 -0.26592635430E+02 -0.80067601266E+01  0.28619518305E+02  0.00000000000E+00 0. -1.
</event>
<event>
 7    1  0.3528441E-013  0.5930200E+02  0.7816164E-02  0.1266605E+00
        -11   -1    0    0    0    0  0.00000000000E+00  0.00000000000E+00  0.45593999997E+02  0.45594000000E+02  0.51100000000E-03 0.  1.
         11   -1    0    0    0    0 -0.00000000000E+00 -0.00000000000E+00 -0.45593999997E+02  0.45594000000E+02  0.51100000000E-03 0. -1.
    9900012    2    1    2    0    0  0.20975282988E+02 -0.65369835986E+00 -0.24006813463E+02  0.59302001339E+02  0.50000104521E+02 0.  0.
        -12    1    1    2    0    0 -0.20975282988E+02  0.65369835986E+00  0.24006813463E+02  0.31885998661E+02  0.00000000000E+00 0.  1.
         11    1    3    3    0    0  0.24851627338E+01  0.10655042464E+02  0.23312783845E+01  0.11186635906E+02  0.51100000000E-03 0. -1.
        -11    1    3    3    0    0 -0.44493642127E+01 -0.15075305644E+02 -0.48259687724E+01  0.16442373825E+02  0.51100000000E-03 0.  1.
         12    1    3    3    0    0  0.22939484467E+02  0.37665648202E+01 -0.21512123075E+02  0.31672991607E+02  0.00000000000E+00 0. -1.
</event>
<event>
 7    1  0.3528441E-013  0.5930186E+02  0.7816164E-02  0.1266605E+00
        -11   -1    0    0    0    0  0.00000000000E+00  0.00000000000E+00  0.45593999997E+02  0.45594000000E+02  0.51100000000E-03 0.  1.
         11   -1    0    0    0    0 -0.00000000000E+00 -0.00000000000E+00 -0.45593999997E+02  0.45594000000E+02  0.51100000000E-03 0. -1.
    9900012    2    1    2    0    0 -0.10245360530E+02  0.16851206129E+01 -0.30148282689E+02  0.59301858920E+02  0.49999844784E+02 0.  0.
        -12    1    1    2    0    0  0.10245360530E+02 -0.16851206129E+01  0.30148282689E+02  0.31886141080E+02  0.00000000000E+00 0.  1.
         11    1    3    3    0    0 -0.13417750320E+02 -0.25168956988E+01 -0.12375020906E+02  0.18425849513E+02  0.51100000000E-03 0. -1.
        -11    1    3    3    0    0 -0.33730624190E+01  0.19669906221E+02 -0.85162937094E+01  0.21698157056E+02  0.51100000000E-03 0.  1.
         12    1    3    3    0    0  0.65454522094E+01 -0.15467889909E+02 -0.92569680739E+01  0.19177852351E+02  0.00000000000E+00 0. -1.
</event>
<event>
 7    1  0.3528441E-013  0.5930192E+02  0.7816164E-02  0.1266605E+00
        -11   -1    0    0    0    0  0.00000000000E+00  0.00000000000E+00  0.45593999997E+02  0.45594000000E+02  0.51100000000E-03 0.  1.
         11   -1    0    0    0    0 -0.00000000000E+00 -0.00000000000E+00 -0.45593999997E+02  0.45594000000E+02  0.51100000000E-03 0. -1.
    9900012    2    1    2    0    0  0.25997154970E+02 -0.15098154730E+02 -0.10626189787E+02  0.59301917579E+02  0.49999951763E+02 0.  0.
        -12    1    1    2    0    0 -0.25997154970E+02  0.15098154730E+02  0.10626189787E+02  0.31886082421E+02  0.00000000000E+00 0.  1.
         11    1    3    3    0    0  0.10512505715E+02  0.38782329542E+01 -0.70180068949E+01  0.13221417786E+02  0.51100000000E-03 0. -1.
        -11    1    3    3    0    0  0.24479828502E+02 -0.20022010776E+02  0.67339254547E+01  0.32334017246E+02  0.51100000000E-03 0.  1.
        -12    1    3    3    0    0 -0.89951792464E+01  0.10456230917E+01 -0.10342108347E+02  0.13746482546E+02  0.00000000000E+00 0.  1.
</event>
<event>
 7    1  0.3528441E-013  0.5930213E+02  0.7816164E-02  0.1266604E+00
        -11   -1    0    0    0    0  0.00000000000E+00  0.00000000000E+00  0.45593999997E+02  0.45594000000E+02  0.51100000000E-03 0.  1.
         11   -1    0    0    0    0 -0.00000000000E+00 -0.00000000000E+00 -0.45593999997E+02  0.45594000000E+02  0.51100000000E-03 0. -1.
    9900012    2    1    2    0    0  0.10669563730E+02 -0.86515168626E+00 -0.30035321632E+02  0.59302131293E+02  0.50000341526E+02 0.  0.
        -12    1    1    2    0    0 -0.10669563730E+02  0.86515168626E+00  0.30035321632E+02  0.31885868707E+02  0.00000000000E+00 0.  1.
         11    1    3    3    0    0  0.57903436652E+01 -0.45987405708E+00 -0.31106821216E+02  0.31644492259E+02  0.51100000000E-03 0. -1.
        -11    1    3    3    0    0 -0.45801065158E+00  0.53478330346E+01 -0.11583674746E+02  0.12766777698E+02  0.51100000000E-03 0.  1.
        -12    1    3    3    0    0  0.53372307163E+01 -0.57531106638E+01  0.12655174329E+02  0.14890861336E+02  0.00000000000E+00 0.  1.
</event>
<event>
 7    1  0.3528441E-013  0.5930203E+02  0.7816164E-02  0.1266604E+00
        -11   -1    0    0    0    0  0.00000000000E+00  0.00000000000E+00  0.45593999997E+02  0.45594000000E+02  0.51100000000E-03 0.  1.
         11   -1    0    0    0    0 -0.00000000000E+00 -0.00000000000E+00 -0.45593999997E+02  0.45594000000E+02  0.51100000000E-03 0. -1.
    9900012    2    1    2    0    0  0.13673866183E+02  0.27732642846E+02 -0.77872360829E+01  0.59302029081E+02  0.50000155117E+02 0.  0.
        -12    1    1    2    0    0 -0.13673866183E+02 -0.27732642846E+02  0.77872360829E+01  0.31885970919E+02  0.00000000000E+00 0.  1.
         11    1    3    3    0    0 -0.17687983430E+01  0.23620659797E+02  0.19263925708E+01  0.23764999588E+02  0.51100000000E-03 0. -1.
        -11    1    3    3    0    0 -0.27020382773E+01  0.13382114844E+02 -0.55679364734E+01  0.14743945380E+02  0.51100000000E-03 0.  1.
        -12    1    3    3    0    0  0.18144702803E+02 -0.92701317943E+01 -0.41456921803E+01  0.20793084113E+02  0.00000000000E+00 0.  1.
</event>
<event>
 7    1  0.3528441E-013  0.5930193E+02  0.7816164E-02  0.1266605E+00
        -11   -1    0    0    0    0  0.00000000000E+00  0.00000000000E+00  0.45593999997E+02  0.45594000000E+02  0.51100000000E-03 0. -1.
         11   -1    0    0    0    0 -0.00000000000E+00 -0.00000000000E+00 -0.45593999997E+02  0.45594000000E+02  0.51100000000E-03 0.  1.
    9900012    2    1    2    0    0  0.19849671428E+01  0.30544455085E+02  0.89340605817E+01  0.59301932988E+02  0.49999979866E+02 0.  0.
        -12    1    1    2    0    0 -0.19849671428E+01 -0.30544455085E+02 -0.89340605817E+01  0.31886067012E+02  0.00000000000E+00 0.  1.
         11    1    3    3    0    0  0.63383464548E+00 -0.80902204858E+00  0.19780669759E+02  0.19807351146E+02  0.51100000000E-03 0. -1.
        -11    1    3    3    0    0  0.43798082279E+01 -0.15375758085E+01 -0.30576797650E+01  0.55584409043E+01  0.51100000000E-03 0.  1.
        -12    1    3    3    0    0 -0.30286757306E+01  0.32891052942E+02 -0.77889294126E+01  0.33936140938E+02  0.00000000000E+00 0.  1.
</event>
<event>
 7    1  0.3528441E-013  0.5930194E+02  0.7816164E-02  0.1266605E+00
        -11   -1    0    0    0    0  0.00000000000E+00  0.00000000000E+00  0.45593999997E+02  0.45594000000E+02  0.51100000000E-03 0.  1.
         11   -1    0    0    0    0 -0.00000000000E+00 -0.00000000000E+00 -0.45593999997E+02  0.45594000000E+02  0.51100000000E-03 0. -1.
    9900012    2    1    2    0    0 -0.80768401976E+01  0.12852860267E+02 -0.28040852633E+02  0.59301940648E+02  0.49999993837E+02 0.  0.
        -12    1    1    2    0    0  0.80768401976E+01 -0.12852860267E+02  0.28040852633E+02  0.31886059352E+02  0.00000000000E+00 0.  1.
         11    1    3    3    0    0 -0.11279218466E+02  0.52725858845E+01 -0.30370283773E+02  0.32823392083E+02  0.51100000000E-03 0. -1.
        -11    1    3    3    0    0 -0.19614095091E+01 -0.87466159011E+01 -0.10471622779E+01  0.90247972876E+01  0.51100000000E-03 0.  1.
         12    1    3    3    0    0  0.51637877780E+01  0.16326890283E+02  0.33765934187E+01  0.17453751277E+02  0.00000000000E+00 0. -1.
</event>
<event>
 7    1  0.3528441E-013  0.5930195E+02  0.7816164E-02  0.1266605E+00
        -11   -1    0    0    0    0  0.00000000000E+00  0.00000000000E+00  0.45593999997E+02  0.45594000000E+02  0.51100000000E-03 0.  1.
         11   -1    0    0    0    0 -0.00000000000E+00 -0.00000000000E+00 -0.45593999997E+02  0.45594000000E+02  0.51100000000E-03 0. -1.
    9900012    2    1    2    0    0 -0.91050241049E+01 -0.25122589608E+02 -0.17397526453E+02  0.59301954475E+02  0.50000019053E+02 0.  0.
        -12    1    1    2    0    0  0.91050241049E+01  0.25122589608E+02  0.17397526453E+02  0.31886045525E+02  0.00000000000E+00 0.  1.
         11    1    3    3    0    0 -0.29400947814E+01 -0.25659132946E+01 -0.22671639231E+02  0.23005027581E+02  0.51100000000E-03 0. -1.
        -11    1    3    3    0    0  0.99958970194E+00 -0.78656950696E+00 -0.91362147422E+01  0.92243314792E+01  0.51100000000E-03 0.  1.
        -12    1    3    3    0    0 -0.71645190254E+01 -0.21770106806E+02  0.14410327520E+02  0.27072595414E+02  0.00000000000E+00 0.  1.
</event>
<event>
 7    1  0.3528441E-013  0.5930196E+02  0.7816164E-02  0.1266605E+00
        -11   -1    0    0    0    0  0.00000000000E+00  0.00000000000E+00  0.45593999997E+02  0.45594000000E+02  0.51100000000E-03 0. -1.
         11   -1    0    0    0    0 -0.00000000000E+00 -0.00000000000E+00 -0.45593999997E+02  0.45594000000E+02  0.51100000000E-03 0.  1.
    9900012    2    1    2    0    0  0.20319361329E+02  0.24537352441E+02  0.13272968850E+01  0.59301955613E+02  0.50000021129E+02 0.  0.
        -12    1    1    2    0    0 -0.20319361329E+02 -0.24537352441E+02 -0.13272968850E+01  0.31886044387E+02  0.00000000000E+00 0.  1.
         11    1    3    3    0    0  0.15177710089E+02  0.17953559007E+02  0.76414318304E+01  0.24720126319E+02  0.51100000000E-03 0. -1.
        -11    1    3    3    0    0 -0.11973172155E+02  0.72689219522E+01  0.40262050382E+01  0.14574100489E+02  0.51100000000E-03 0.  1.
         12    1    3    3    0    0  0.17114823395E+02 -0.68512851789E+00 -0.10340339984E+02  0.20007728804E+02  0.00000000000E+00 0. -1.
</event>
<event>
 7    1  0.3528441E-013  0.5930190E+02  0.7816164E-02  0.1266605E+00
        -11   -1    0    0    0    0  0.00000000000E+00  0.00000000000E+00  0.45593999997E+02  0.45594000000E+02  0.51100000000E-03 0. -1.
         11   -1    0    0    0    0 -0.00000000000E+00 -0.00000000000E+00 -0.45593999997E+02  0.45594000000E+02  0.51100000000E-03 0.  1.
    9900012    2    1    2    0    0 -0.53460226951E+01  0.27356540205E+02 -0.15484284117E+02  0.59301901065E+02  0.49999921647E+02 0.  0.
        -12    1    1    2    0    0  0.53460226951E+01 -0.27356540205E+02  0.15484284117E+02  0.31886098935E+02  0.00000000000E+00 0.  1.
         11    1    3    3    0    0 -0.42076400509E+01  0.13067842058E+02 -0.47511810058E+01  0.14527437905E+02  0.51100000000E-03 0. -1.
        -11    1    3    3    0    0  0.19682282214E+02  0.10299996075E+02 -0.43637265594E+01  0.22638998698E+02  0.51100000000E-03 0.  1.
        -12    1    3    3    0    0 -0.20820664858E+02  0.39887020719E+01 -0.63693765517E+01  0.22135464463E+02  0.00000000000E+00 0.  1.
</event>
<event>
 7    1  0.3528441E-013  0.5930197E+02  0.7816164E-02  0.1266605E+00
        -11   -1    0    0    0    0  0.00000000000E+00  0.00000000000E+00  0.45593999997E+02  0.45594000000E+02  0.51100000000E-03 0. -1.
         11   -1    0    0    0    0 -0.00000000000E+00 -0.00000000000E+00 -0.45593999997E+02  0.45594000000E+02  0.51100000000E-03 0.  1.
    9900012    2    1    2    0    0 -0.94300813791E+01  0.17621299669E+02  0.24845171094E+02  0.59301966011E+02  0.50000040093E+02 0.  0.
        -12    1    1    2    0    0  0.94300813791E+01 -0.17621299669E+02 -0.24845171094E+02  0.31886033989E+02  0.00000000000E+00 0.  1.
         11    1    3    3    0    0 -0.28134886099E+01  0.17193601661E+02  0.10181237316E+02  0.20179029952E+02  0.51100000000E-03 0. -1.
        -11    1    3    3    0    0 -0.15791643914E+02  0.12220806470E+02  0.13566749897E+02  0.24140853989E+02  0.51100000000E-03 0.  1.
        -12    1    3    3    0    0  0.91750511447E+01 -0.11793108462E+02  0.10971838813E+01  0.14982082071E+02  0.00000000000E+00 0.  1.
</event>
<event>
 7    1  0.3528441E-013  0.5930195E+02  0.7816164E-02  0.1266605E+00
        -11   -1    0    0    0    0  0.00000000000E+00  0.00000000000E+00  0.45593999997E+02  0.45594000000E+02  0.51100000000E-03 0. -1.
         11   -1    0    0    0    0 -0.00000000000E+00 -0.00000000000E+00 -0.45593999997E+02  0.45594000000E+02  0.51100000000E-03 0.  1.
    9900012    2    1    2    0    0  0.39979464210E+01  0.31243010714E+02  0.49609555128E+01  0.59301947035E+02  0.50000005484E+02 0.  0.
        -12    1    1    2    0    0 -0.39979464210E+01 -0.31243010714E+02 -0.49609555128E+01  0.31886052965E+02  0.00000000000E+00 0.  1.
         11    1    3    3    0    0 -0.16087422705E+02  0.27203929154E+02  0.85915684246E+01  0.32751701924E+02  0.51100000000E-03 0. -1.
        -11    1    3    3    0    0  0.13433946651E+02  0.69299690877E+01  0.43863223872E+01  0.15739606683E+02  0.51100000000E-03 0.  1.
        -12    1    3    3    0    0  0.66514224749E+01 -0.28908875268E+01 -0.80169352990E+01  0.10810638428E+02  0.00000000000E+00 0.  1.
</event>
<event>
 7    1  0.3528441E-013  0.5930193E+02  0.7816164E-02  0.1266605E+00
        -11   -1    0    0    0    0  0.00000000000E+00  0.00000000000E+00  0.45593999997E+02  0.45594000000E+02  0.51100000000E-03 0.  1.
         11   -1    0    0    0    0 -0.00000000000E+00 -0.00000000000E+00 -0.45593999997E+02  0.45594000000E+02  0.51100000000E-03 0. -1.
    9900012    2    1    2    0    0  0.26471744807E+02 -0.15536098049E+02 -0.86369902142E+01  0.59301933832E+02  0.49999981406E+02 0.  0.
        -12    1    1    2    0    0 -0.26471744807E+02  0.15536098049E+02  0.86369902142E+01  0.31886066168E+02  0.00000000000E+00 0.  1.
         11    1    3    3    0    0  0.15002424301E+02  0.12008674924E+02  0.81315963134E+00  0.19233882530E+02  0.51100000000E-03 0.  1.
        -11    1    3    3    0    0 -0.47594103012E+01 -0.18823139326E+02 -0.11884363103E+00  0.19415887427E+02  0.51100000000E-03 0. -1.
         12    1    3    3    0    0  0.16228730807E+02 -0.87216336462E+01 -0.93313062145E+01  0.20652163875E+02  0.00000000000E+00 0. -1.
</event>
<event>
 7    1  0.3528441E-013  0.5930193E+02  0.7816164E-02  0.1266605E+00
        -11   -1    0    0    0    0  0.00000000000E+00  0.00000000000E+00  0.45593999997E+02  0.45594000000E+02  0.51100000000E-03 0.  1.
         11   -1    0    0    0    0 -0.00000000000E+00 -0.00000000000E+00 -0.45593999997E+02  0.45594000000E+02  0.51100000000E-03 0. -1.
    9900012    2    1    2    0    0 -0.11493846982E+01  0.12405701104E+02 -0.29351298428E+02  0.59301933694E+02  0.49999981155E+02 0.  0.
        -12    1    1    2    0    0  0.11493846982E+01 -0.12405701104E+02  0.29351298428E+02  0.31886066306E+02  0.00000000000E+00 0.  1.
         11    1    3    3    0    0  0.54376821025E+01 -0.31761093879E+01 -0.13125403442E+02  0.14557893847E+02  0.51100000000E-03 0. -1.
        -11    1    3    3    0    0  0.19387137825E+01  0.38541580812E+01 -0.26579679191E+02  0.26927541511E+02  0.51100000000E-03 0.  1.
        -12    1    3    3    0    0 -0.85257805832E+01  0.11727652410E+02  0.10353784205E+02  0.17816498337E+02  0.00000000000E+00 0.  1.
</event>
<event>
 7    1  0.3528441E-013  0.5930197E+02  0.7816164E-02  0.1266605E+00
        -11   -1    0    0    0    0  0.00000000000E+00  0.00000000000E+00  0.45593999997E+02  0.45594000000E+02  0.51100000000E-03 0. -1.
         11   -1    0    0    0    0 -0.00000000000E+00 -0.00000000000E+00 -0.45593999997E+02  0.45594000000E+02  0.51100000000E-03 0.  1.
    9900012    2    1    2    0    0  0.17096364193E+02 -0.16518172760E+02  0.21250490361E+02  0.59301967940E+02  0.50000043610E+02 0.  0.
        -12    1    1    2    0    0 -0.17096364193E+02  0.16518172760E+02 -0.21250490361E+02  0.31886032060E+02  0.00000000000E+00 0.  1.
         11    1    3    3    0    0 -0.35639699172E+01  0.81944818663E+01  0.12942702720E+02  0.15727840557E+02  0.51100000000E-03 0. -1.
        -11    1    3    3    0    0  0.60389286721E+01  0.38776758396E+01  0.89293461260E+01  0.11455926498E+02  0.51100000000E-03 0.  1.
         12    1    3    3    0    0  0.14621405438E+02 -0.28590330466E+02 -0.62155848455E+00  0.32118200885E+02  0.00000000000E+00 0. -1.
</event>
<event>
 7    1  0.3528441E-013  0.5930194E+02  0.7816164E-02  0.1266605E+00
        -11   -1    0    0    0    0  0.00000000000E+00  0.00000000000E+00  0.45593999997E+02  0.45594000000E+02  0.51100000000E-03 0.  1.
         11   -1    0    0    0    0 -0.00000000000E+00 -0.00000000000E+00 -0.45593999997E+02  0.45594000000E+02  0.51100000000E-03 0. -1.
    9900012    2    1    2    0    0 -0.28908027009E+02 -0.13134413263E+02 -0.29212679830E+01  0.59301942797E+02  0.49999997755E+02 0.  0.
        -12    1    1    2    0    0  0.28908027009E+02  0.13134413263E+02  0.29212679830E+01  0.31886057203E+02  0.00000000000E+00 0.  1.
         11    1    3    3    0    0 -0.17100752748E+02  0.56955110599E+01 -0.20794284339E+01  0.18143831283E+02  0.51100000000E-03 0. -1.
        -11    1    3    3    0    0 -0.85084155060E+01 -0.20935771496E+01 -0.16062135273E+02  0.18296677007E+02  0.51100000000E-03 0.  1.
        -12    1    3    3    0    0 -0.32988587554E+01 -0.16736347174E+02  0.15220295724E+02  0.22861434507E+02  0.00000000000E+00 0.  1.
</event>
<event>
 7    1  0.3528441E-013  0.5930194E+02  0.7816164E-02  0.1266605E+00
        -11   -1    0    0    0    0  0.00000000000E+00  0.00000000000E+00  0.45593999997E+02  0.45594000000E+02  0.51100000000E-03 0.  1.
         11   -1    0    0    0    0 -0.00000000000E+00 -0.00000000000E+00 -0.45593999997E+02  0.45594000000E+02  0.51100000000E-03 0. -1.
    9900012    2    1    2    0    0 -0.75003076752E+01 -0.30991330220E+02 -0.58594451240E-01  0.59301943528E+02  0.49999999088E+02 0.  0.
        -12    1    1    2    0    0  0.75003076752E+01  0.30991330220E+02  0.58594451240E-01  0.31886056472E+02  0.00000000000E+00 0.  1.
         11    1    3    3    0    0  0.13314689471E+01 -0.42108298540E+01 -0.51839283455E+01  0.68100668844E+01  0.51100000000E-03 0. -1.
        -11    1    3    3    0    0  0.17363720057E+02 -0.11794653566E+02  0.73263640406E+01  0.22232594029E+02  0.51100000000E-03 0.  1.
         12    1    3    3    0    0 -0.26195496679E+02 -0.14985846801E+02 -0.22010301463E+01  0.30259282614E+02  0.00000000000E+00 0. -1.
</event>
<event>
 7    1  0.3528441E-013  0.5930190E+02  0.7816164E-02  0.1266605E+00
        -11   -1    0    0    0    0  0.00000000000E+00  0.00000000000E+00  0.45593999997E+02  0.45594000000E+02  0.51100000000E-03 0.  1.
         11   -1    0    0    0    0 -0.00000000000E+00 -0.00000000000E+00 -0.45593999997E+02  0.45594000000E+02  0.51100000000E-03 0. -1.
    9900012    2    1    2    0    0 -0.18915018818E+02  0.11535507068E+02 -0.22932013391E+02  0.59301904309E+02  0.49999927563E+02 0.  0.
        -12    1    1    2    0    0  0.18915018818E+02 -0.11535507068E+02  0.22932013391E+02  0.31886095691E+02  0.00000000000E+00 0.  1.
         11    1    3    3    0    0 -0.63427108028E+01  0.91180609462E+01 -0.76170627486E+01  0.13468060771E+02  0.51100000000E-03 0. -1.
        -11    1    3    3    0    0 -0.84889776536E+01  0.20033221542E+02 -0.17085984549E+02  0.27664482197E+02  0.51100000000E-03 0.  1.
        -12    1    3    3    0    0 -0.40833303620E+01 -0.17615775420E+02  0.17710339059E+01  0.18169361342E+02  0.00000000000E+00 0.  1.
</event>
<event>
 7    1  0.3528441E-013  0.5930199E+02  0.7816164E-02  0.1266605E+00
        -11   -1    0    0    0    0  0.00000000000E+00  0.00000000000E+00  0.45593999997E+02  0.45594000000E+02  0.51100000000E-03 0.  1.
         11   -1    0    0    0    0 -0.00000000000E+00 -0.00000000000E+00 -0.45593999997E+02  0.45594000000E+02  0.51100000000E-03 0. -1.
    9900012    2    1    2    0    0  0.22668053576E+02  0.22296372709E+02 -0.23976534044E+01  0.59301990046E+02  0.50000083927E+02 0.  0.
        -12    1    1    2    0    0 -0.22668053576E+02 -0.22296372709E+02  0.23976534044E+01  0.31886009954E+02  0.00000000000E+00 0.  1.
         11    1    3    3    0    0  0.16112888267E+01 -0.51892727523E+01  0.65202122582E+00  0.54726534077E+01  0.51100000000E-03 0. -1.
        -11    1    3    3    0    0 -0.23761160816E+01 -0.28073215923E+01  0.12097615119E+02  0.12644337626E+02  0.51100000000E-03 0.  1.
         12    1    3    3    0    0  0.23432880831E+02  0.30292967054E+02 -0.15147289749E+02  0.41184999013E+02  0.00000000000E+00 0. -1.
</event>
<event>
 7    1  0.3528441E-013  0.5930194E+02  0.7816164E-02  0.1266605E+00
        -11   -1    0    0    0    0  0.00000000000E+00  0.00000000000E+00  0.45593999997E+02  0.45594000000E+02  0.51100000000E-03 0.  1.
         11   -1    0    0    0    0 -0.00000000000E+00 -0.00000000000E+00 -0.45593999997E+02  0.45594000000E+02  0.51100000000E-03 0. -1.
    9900012    2    1    2    0    0 -0.23958260386E+02  0.79054702921E+01 -0.19499381714E+02  0.59301943667E+02  0.49999999342E+02 0.  0.
        -12    1    1    2    0    0  0.23958260386E+02 -0.79054702921E+01  0.19499381714E+02  0.31886056333E+02  0.00000000000E+00 0.  1.
         11    1    3    3    0    0 -0.15561703161E+02  0.92769130337E+01 -0.14328347969E+02  0.23098252672E+02  0.51100000000E-03 0. -1.
        -11    1    3    3    0    0 -0.97689494669E+01  0.81009185874E+01 -0.16855873799E+02  0.21099235470E+02  0.51100000000E-03 0.  1.
        -12    1    3    3    0    0  0.13723922419E+01 -0.94723613290E+01  0.11684840054E+02  0.15104455525E+02  0.00000000000E+00 0.  1.
</event>
<event>
 7    1  0.3528441E-013  0.5930192E+02  0.7816164E-02  0.1266605E+00
        -11   -1    0    0    0    0  0.00000000000E+00  0.00000000000E+00  0.45593999997E+02  0.45594000000E+02  0.51100000000E-03 0.  1.
         11   -1    0    0    0    0 -0.00000000000E+00 -0.00000000000E+00 -0.45593999997E+02  0.45594000000E+02  0.51100000000E-03 0. -1.
    9900012    2    1    2    0    0  0.16971282131E+02 -0.24386001088E+02 -0.11576732378E+02  0.59301918417E+02  0.49999953292E+02 0.  0.
        -12    1    1    2    0    0 -0.16971282131E+02  0.24386001088E+02  0.11576732378E+02  0.31886081583E+02  0.00000000000E+00 0.  1.
         11    1    3    3    0    0 -0.82068895311E+01 -0.24904098194E+01  0.30438229404E+01  0.91005513678E+01  0.51100000000E-03 0. -1.
        -11    1    3    3    0    0 -0.83381866751E+01 -0.46011493440E+01  0.57313284310E+00  0.95406715608E+01  0.51100000000E-03 0.  1.
         12    1    3    3    0    0  0.33516358337E+02 -0.17294441924E+02 -0.15193688161E+02  0.40660695488E+02  0.00000000000E+00 0. -1.
</event>
<event>
 7    1  0.3528441E-013  0.5930195E+02  0.7816164E-02  0.1266605E+00
        -11   -1    0    0    0    0  0.00000000000E+00  0.00000000000E+00  0.45593999997E+02  0.45594000000E+02  0.51100000000E-03 0. -1.
         11   -1    0    0    0    0 -0.00000000000E+00 -0.00000000000E+00 -0.45593999997E+02  0.45594000000E+02  0.51100000000E-03 0.  1.
    9900012    2    1    2    0    0 -0.36378213660E+01  0.23234786335E+01  0.31592528469E+02  0.59301950507E+02  0.50000011816E+02 0.  0.
        -12    1    1    2    0    0  0.36378213660E+01 -0.23234786335E+01 -0.31592528469E+02  0.31886049493E+02  0.00000000000E+00 0.  1.
         11    1    3    3    0    0  0.36619247136E+01  0.91960193185E+01  0.27007942934E+02  0.28764656190E+02  0.51100000000E-03 0. -1.
        -11    1    3    3    0    0 -0.26093786649E+01 -0.14971572388E+02  0.11367789542E+02  0.18978500365E+02  0.51100000000E-03 0.  1.
        -12    1    3    3    0    0 -0.46903674147E+01  0.80990317025E+01 -0.67832040078E+01  0.11558793952E+02  0.00000000000E+00 0.  1.
</event>
<event>
 7    1  0.3528441E-013  0.5930198E+02  0.7816164E-02  0.1266605E+00
        -11   -1    0    0    0    0  0.00000000000E+00  0.00000000000E+00  0.45593999997E+02  0.45594000000E+02  0.51100000000E-03 0.  1.
         11   -1    0    0    0    0 -0.00000000000E+00 -0.00000000000E+00 -0.45593999997E+02  0.45594000000E+02  0.51100000000E-03 0. -1.
    9900012    2    1    2    0    0  0.72895520388E-01 -0.18579794276E+02 -0.25913395586E+02  0.59301982063E+02  0.50000069366E+02 0.  0.
        -12    1    1    2    0    0 -0.72895520388E-01  0.18579794276E+02  0.25913395586E+02  0.31886017937E+02  0.00000000000E+00 0.  1.
         11    1    3    3    0    0  0.15560262840E+02 -0.96846671420E+01 -0.22649570307E+02  0.29136190428E+02  0.51100000000E-03 0. -1.
        -11    1    3    3    0    0  0.49544069416E+01 -0.47431452850E+01 -0.60191287615E+01  0.91254307650E+01  0.51100000000E-03 0.  1.
        -12    1    3    3    0    0 -0.20441774262E+02 -0.41519818492E+01  0.27553034823E+01  0.21040360869E+02  0.00000000000E+00 0.  1.
</event>
<event>
 7    1  0.3528441E-013  0.5930196E+02  0.7816164E-02  0.1266605E+00
        -11   -1    0    0    0    0  0.00000000000E+00  0.00000000000E+00  0.45593999997E+02  0.45594000000E+02  0.51100000000E-03 0.  1.
         11   -1    0    0    0    0 -0.00000000000E+00 -0.00000000000E+00 -0.45593999997E+02  0.45594000000E+02  0.51100000000E-03 0. -1.
    9900012    2    1    2    0    0 -0.10393046863E+02  0.11673566008E+02 -0.27792657840E+02  0.59301962362E+02  0.50000033437E+02 0.  0.
        -12    1    1    2    0    0  0.10393046863E+02 -0.11673566008E+02  0.27792657840E+02  0.31886037638E+02  0.00000000000E+00 0.  1.
         11    1    3    3    0    0 -0.12248173340E+02  0.18298082299E+02 -0.35741281728E+01  0.22307217631E+02  0.51100000000E-03 0. -1.
        -11    1    3    3    0    0 -0.45943931938E+01  0.80769940085E+01 -0.18713980405E+01  0.94788402202E+01  0.51100000000E-03 0.  1.
        -12    1    3    3    0    0  0.64495196713E+01 -0.14701510299E+02 -0.22347131627E+02  0.27515904510E+02  0.00000000000E+00 0.  1.
</event>
<event>
 7    1  0.3528441E-013  0.5930195E+02  0.7816164E-02  0.1266605E+00
        -11   -1    0    0    0    0  0.00000000000E+00  0.00000000000E+00  0.45593999997E+02  0.45594000000E+02  0.51100000000E-03 0.  1.
         11   -1    0    0    0    0 -0.00000000000E+00 -0.00000000000E+00 -0.45593999997E+02  0.45594000000E+02  0.51100000000E-03 0. -1.
    9900012    2    1    2    0    0  0.31479112889E+01 -0.21530146713E+02 -0.23308011831E+02  0.59301953232E+02  0.50000016786E+02 0.  0.
        -12    1    1    2    0    0 -0.31479112889E+01  0.21530146713E+02  0.23308011831E+02  0.31886046768E+02  0.00000000000E+00 0.  1.
         11    1    3    3    0    0 -0.58381435376E+01 -0.15598980299E+02 -0.31315977417E+02  0.35469741304E+02  0.51100000000E-03 0. -1.
        -11    1    3    3    0    0 -0.39131033044E+01  0.24973543128E+01 -0.24116992783E+01  0.52311996429E+01  0.51100000000E-03 0.  1.
        -12    1    3    3    0    0  0.12899158131E+02 -0.84285207273E+01  0.10419664865E+02  0.18601012285E+02  0.00000000000E+00 0.  1.
</event>
<event>
 7    1  0.3528441E-013  0.5930196E+02  0.7816164E-02  0.1266605E+00
        -11   -1    0    0    0    0  0.00000000000E+00  0.00000000000E+00  0.45593999997E+02  0.45594000000E+02  0.51100000000E-03 0.  1.
         11   -1    0    0    0    0 -0.00000000000E+00 -0.00000000000E+00 -0.45593999997E+02  0.45594000000E+02  0.51100000000E-03 0. -1.
    9900012    2    1    2    0    0 -0.65306156661E+01  0.24069636169E+02 -0.19867647746E+02  0.59301956764E+02  0.50000023228E+02 0.  0.
        -12    1    1    2    0    0  0.65306156661E+01 -0.24069636169E+02  0.19867647746E+02  0.31886043236E+02  0.00000000000E+00 0.  1.
         11    1    3    3    0    0  0.13581082100E+02  0.18215806499E+01 -0.15390300715E+02  0.20606438397E+02  0.51100000000E-03 0. -1.
        -11    1    3    3    0    0  0.23902055038E+01  0.10784871933E+02  0.44518242001E+01  0.11909881777E+02  0.51100000000E-03 0.  1.
         12    1    3    3    0    0 -0.22501903269E+02  0.11463183586E+02 -0.89291712305E+01  0.26785636590E+02  0.00000000000E+00 0. -1.
</event>
<event>
 7    1  0.3528441E-013  0.5930196E+02  0.7816164E-02  0.1266605E+00
        -11   -1    0    0    0    0  0.00000000000E+00  0.00000000000E+00  0.45593999997E+02  0.45594000000E+02  0.51100000000E-03 0. -1.
         11   -1    0    0    0    0 -0.00000000000E+00 -0.00000000000E+00 -0.45593999997E+02  0.45594000000E+02  0.51100000000E-03 0.  1.
    9900012    2    1    2    0    0 -0.11782165186E+02  0.29566336044E+02  0.19318943844E+01  0.59301955099E+02  0.50000020191E+02 0.  0.
        -12    1    1    2    0    0  0.11782165186E+02 -0.29566336044E+02 -0.19318943844E+01  0.31886044901E+02  0.00000000000E+00 0.  1.
         11    1    3    3    0    0  0.61529864864E+01  0.11451051466E+02  0.24277192117E+01  0.13224206714E+02  0.51100000000E-03 0. -1.
        -11    1    3    3    0    0  0.69868908960E+01  0.19684049881E+02  0.19956361641E+01  0.20982398054E+02  0.51100000000E-03 0.  1.
        -12    1    3    3    0    0 -0.24922042569E+02 -0.15687653035E+01 -0.24914609914E+01  0.25095350331E+02  0.00000000000E+00 0.  1.
</event>
<event>
 7    1  0.3528441E-013  0.5930195E+02  0.7816164E-02  0.1266605E+00
        -11   -1    0    0    0    0  0.00000000000E+00  0.00000000000E+00  0.45593999997E+02  0.45594000000E+02  0.51100000000E-03 0.  1.
         11   -1    0    0    0    0 -0.00000000000E+00 -0.00000000000E+00 -0.45593999997E+02  0.45594000000E+02  0.51100000000E-03 0. -1.
    9900012    2    1    2    0    0 -0.19539935096E+02 -0.18771779513E+02 -0.16808677133E+02  0.59301946675E+02  0.50000004829E+02 0.  0.
        -12    1    1    2    0    0  0.19539935096E+02  0.18771779513E+02  0.16808677133E+02  0.31886053325E+02  0.00000000000E+00 0.  1.
         11    1    3    3    0    0 -0.41757775632E+01 -0.15485951502E+02  0.50660773155E+00  0.16047070257E+02  0.51100000000E-03 0. -1.
        -11    1    3    3    0    0  0.81977651569E+01 -0.11807928282E+02 -0.42084339962E+01  0.14978031942E+02  0.51100000000E-03 0.  1.
         12    1    3    3    0    0 -0.23561922690E+02  0.85221002711E+01 -0.13106850868E+02  0.28276844477E+02  0.00000000000E+00 0. -1.
</event>
<event>
 7    1  0.3528441E-013  0.5930195E+02  0.7816164E-02  0.1266605E+00
        -11   -1    0    0    0    0  0.00000000000E+00  0.00000000000E+00  0.45593999997E+02  0.45594000000E+02  0.51100000000E-03 0.  1.
         11   -1    0    0    0    0 -0.00000000000E+00 -0.00000000000E+00 -0.45593999997E+02  0.45594000000E+02  0.51100000000E-03 0. -1.
    9900012    2    1    2    0    0 -0.58861051491E+00 -0.24851170591E+02 -0.19969798172E+02  0.59301953191E+02  0.50000016711E+02 0.  0.
        -12    1    1    2    0    0  0.58861051491E+00  0.24851170591E+02  0.19969798172E+02  0.31886046809E+02  0.00000000000E+00 0.  1.
         11    1    3    3    0    0  0.69718783194E+01 -0.88110649834E+00  0.94915144325E+01  0.11809838375E+02  0.51100000000E-03 0. -1.
        -11    1    3    3    0    0  0.83680864820E+01 -0.10032382398E+01 -0.11540845339E+02  0.14290642734E+02  0.51100000000E-03 0.  1.
         12    1    3    3    0    0 -0.15928575316E+02 -0.22966825853E+02 -0.17920467265E+02  0.33201472082E+02  0.00000000000E+00 0. -1.
</event>
<event>
 7    1  0.3528441E-013  0.5930193E+02  0.7816164E-02  0.1266605E+00
        -11   -1    0    0    0    0  0.00000000000E+00  0.00000000000E+00  0.45593999997E+02  0.45594000000E+02  0.51100000000E-03 0.  1.
         11   -1    0    0    0    0 -0.00000000000E+00 -0.00000000000E+00 -0.45593999997E+02  0.45594000000E+02  0.51100000000E-03 0. -1.
    9900012    2    1    2    0    0 -0.15143945182E+02 -0.15872588302E+02 -0.23139652034E+02  0.59301927313E+02  0.49999969517E+02 0.  0.
        -12    1    1    2    0    0  0.15143945182E+02  0.15872588302E+02  0.23139652034E+02  0.31886072687E+02  0.00000000000E+00 0.  1.
         11    1    3    3    0    0  0.74570695843E-01  0.95868193594E+01 -0.17429313915E+02  0.19892049920E+02  0.51100000000E-03 0. -1.
        -11    1    3    3    0    0  0.60576887120E+01 -0.10743095860E+02 -0.55871247888E+01  0.13539780827E+02  0.51100000000E-03 0.  1.
        -12    1    3    3    0    0 -0.21276204590E+02 -0.14716311802E+02 -0.12321333061E+00  0.25870096566E+02  0.00000000000E+00 0.  1.
</event>
<event>
 7    1  0.3528441E-013  0.5930193E+02  0.7816164E-02  0.1266605E+00
        -11   -1    0    0    0    0  0.00000000000E+00  0.00000000000E+00  0.45593999997E+02  0.45594000000E+02  0.51100000000E-03 0. -1.
         11   -1    0    0    0    0 -0.00000000000E+00 -0.00000000000E+00 -0.45593999997E+02  0.45594000000E+02  0.51100000000E-03 0.  1.
    9900012    2    1    2    0    0 -0.22549561933E+02  0.86982305844E+01  0.20798551672E+02  0.59301926076E+02  0.49999967260E+02 0.  0.
        -12    1    1    2    0    0  0.22549561933E+02 -0.86982305844E+01 -0.20798551672E+02  0.31886073924E+02  0.00000000000E+00 0.  1.
         11    1    3    3    0    0  0.65756728271E+01  0.13914480022E+02 -0.29131638758E+00  0.15392761055E+02  0.51100000000E-03 0. -1.
        -11    1    3    3    0    0  0.29540248916E-01  0.66209262688E+01  0.13304133577E+01  0.67533352683E+01  0.51100000000E-03 0.  1.
         12    1    3    3    0    0 -0.29154775009E+02 -0.11837175706E+02  0.19759454701E+02  0.37155829753E+02  0.00000000000E+00 0. -1.
</event>
<event>
 7    1  0.3528441E-013  0.5930194E+02  0.7816164E-02  0.1266605E+00
        -11   -1    0    0    0    0  0.00000000000E+00  0.00000000000E+00  0.45593999997E+02  0.45594000000E+02  0.51100000000E-03 0. -1.
         11   -1    0    0    0    0 -0.00000000000E+00 -0.00000000000E+00 -0.45593999997E+02  0.45594000000E+02  0.51100000000E-03 0.  1.
    9900012    2    1    2    0    0 -0.18966574098E+02 -0.21334790120E+02  0.14206222410E+02  0.59301937878E+02  0.49999988784E+02 0.  0.
        -12    1    1    2    0    0  0.18966574098E+02  0.21334790120E+02 -0.14206222410E+02  0.31886062122E+02  0.00000000000E+00 0.  1.
         11    1    3    3    0    0 -0.90219645759E+01  0.12310747450E+00  0.17251763430E+02  0.19468804328E+02  0.51100000000E-03 0. -1.
        -11    1    3    3    0    0 -0.92857331077E+01  0.50685556260E+01  0.55429700049E+01  0.11943182667E+02  0.51100000000E-03 0.  1.
        -12    1    3    3    0    0 -0.65887641476E+00 -0.26526453221E+02 -0.85885110248E+01  0.27889950882E+02  0.00000000000E+00 0.  1.
</event>
<event>
 7    1  0.3528441E-013  0.5930193E+02  0.7816164E-02  0.1266605E+00
        -11   -1    0    0    0    0  0.00000000000E+00  0.00000000000E+00  0.45593999997E+02  0.45594000000E+02  0.51100000000E-03 0.  1.
         11   -1    0    0    0    0 -0.00000000000E+00 -0.00000000000E+00 -0.45593999997E+02  0.45594000000E+02  0.51100000000E-03 0. -1.
    9900012    2    1    2    0    0  0.45713782503E+01  0.45581391843E+01 -0.31225747300E+02  0.59301930528E+02  0.49999975380E+02 0.  0.
        -12    1    1    2    0    0 -0.45713782503E+01 -0.45581391843E+01  0.31225747300E+02  0.31886069472E+02  0.00000000000E+00 0.  1.
         11    1    3    3    0    0  0.17894222694E+02 -0.10026387081E+01 -0.14548798858E+02  0.23084107925E+02  0.51100000000E-03 0. -1.
        -11    1    3    3    0    0 -0.60399034200E+01 -0.10655234646E+02 -0.13377916679E+02  0.18137891653E+02  0.51100000000E-03 0.  1.
        -12    1    3    3    0    0 -0.72829410238E+01  0.16216012538E+02 -0.32990317631E+01  0.18079930950E+02  0.00000000000E+00 0.  1.
</event>
<event>
 7    1  0.3528441E-013  0.5930197E+02  0.7816164E-02  0.1266605E+00
        -11   -1    0    0    0    0  0.00000000000E+00  0.00000000000E+00  0.45593999997E+02  0.45594000000E+02  0.51100000000E-03 0.  1.
         11   -1    0    0    0    0 -0.00000000000E+00 -0.00000000000E+00 -0.45593999997E+02  0.45594000000E+02  0.51100000000E-03 0. -1.
    9900012    2    1    2    0    0  0.17625300417E+02  0.19991693481E+02 -0.17504289368E+02  0.59301965921E+02  0.50000039928E+02 0.  0.
        -12    1    1    2    0    0 -0.17625300417E+02 -0.19991693481E+02  0.17504289368E+02  0.31886034079E+02  0.00000000000E+00 0.  1.
         11    1    3    3    0    0 -0.63402677965E+01 -0.85921236560E+01 -0.93538891267E+01  0.14195732694E+02  0.51100000000E-03 0. -1.
        -11    1    3    3    0    0 -0.30309464238E+00 -0.30950694445E+01  0.22837046533E+01  0.38583193794E+01  0.51100000000E-03 0.  1.
        -12    1    3    3    0    0  0.24268662856E+02  0.31678886581E+02 -0.10434104894E+02  0.41247913848E+02  0.00000000000E+00 0.  1.
</event>
<event>
 7    1  0.3528441E-013  0.5930195E+02  0.7816164E-02  0.1266605E+00
        -11   -1    0    0    0    0  0.00000000000E+00  0.00000000000E+00  0.45593999997E+02  0.45594000000E+02  0.51100000000E-03 0. -1.
         11   -1    0    0    0    0 -0.00000000000E+00 -0.00000000000E+00 -0.45593999997E+02  0.45594000000E+02  0.51100000000E-03 0.  1.
    9900012    2    1    2    0    0 -0.29732774852E+02 -0.45916956856E+01 -0.10564037590E+02  0.59301945683E+02  0.50000003019E+02 0.  0.
        -12    1    1    2    0    0  0.29732774852E+02  0.45916956856E+01  0.10564037590E+02  0.31886054317E+02  0.00000000000E+00 0.  1.
         11    1    3    3    0    0  0.21196937834E+01 -0.16955048293E+01 -0.12509697354E+01  0.29887729759E+01  0.51100000000E-03 0. -1.
        -11    1    3    3    0    0  0.57397866008E+01  0.28749402817E+01  0.11342715521E+02  0.13033327568E+02  0.51100000000E-03 0.  1.
         12    1    3    3    0    0 -0.37592255237E+02 -0.57711311380E+01 -0.20655783376E+02  0.43279845139E+02  0.00000000000E+00 0. -1.
</event>
<event>
 7    1  0.3528441E-013  0.5930195E+02  0.7816164E-02  0.1266605E+00
        -11   -1    0    0    0    0  0.00000000000E+00  0.00000000000E+00  0.45593999997E+02  0.45594000000E+02  0.51100000000E-03 0. -1.
         11   -1    0    0    0    0 -0.00000000000E+00 -0.00000000000E+00 -0.45593999997E+02  0.45594000000E+02  0.51100000000E-03 0.  1.
    9900012    2    1    2    0    0  0.18414139306E+02 -0.25340575953E+02 -0.59577697675E+01  0.59301947617E+02  0.50000006545E+02 0.  0.
        -12    1    1    2    0    0 -0.18414139306E+02  0.25340575953E+02  0.59577697675E+01  0.31886052383E+02  0.00000000000E+00 0.  1.
         11    1    3    3    0    0 -0.32867375523E+01 -0.23443841429E+02  0.90786776530E+01  0.25354264589E+02  0.51100000000E-03 0. -1.
        -11    1    3    3    0    0  0.15282686081E+01  0.71554084066E+01 -0.19776431142E+00  0.73194661956E+01  0.51100000000E-03 0.  1.
        -12    1    3    3    0    0  0.20172608250E+02 -0.90521429310E+01 -0.14838683109E+02  0.26628216832E+02  0.00000000000E+00 0.  1.
</event>
<event>
 7    1  0.3528441E-013  0.5930196E+02  0.7816164E-02  0.1266605E+00
        -11   -1    0    0    0    0  0.00000000000E+00  0.00000000000E+00  0.45593999997E+02  0.45594000000E+02  0.51100000000E-03 0.  1.
         11   -1    0    0    0    0 -0.00000000000E+00 -0.00000000000E+00 -0.45593999997E+02  0.45594000000E+02  0.51100000000E-03 0. -1.
    9900012    2    1    2    0    0 -0.14090755265E+02 -0.97705350462E+01 -0.26883211107E+02  0.59301956369E+02  0.50000022507E+02 0.  0.
        -12    1    1    2    0    0  0.14090755265E+02  0.97705350462E+01  0.26883211107E+02  0.31886043631E+02  0.00000000000E+00 0.  1.
         11    1    3    3    0    0 -0.34597470534E+01 -0.23371271312E+02 -0.22430363996E+02  0.32577713266E+02  0.51100000000E-03 0. -1.
        -11    1    3    3    0    0  0.24517403096E+01  0.13940721693E+01 -0.80003461736E+01  0.84829244319E+01  0.51100000000E-03 0.  1.
         12    1    3    3    0    0 -0.13082748521E+02  0.12206664097E+02  0.35474990622E+01  0.18241318671E+02  0.00000000000E+00 0. -1.
</event>
<event>
 7    1  0.3528441E-013  0.5930191E+02  0.7816164E-02  0.1266605E+00
        -11   -1    0    0    0    0  0.00000000000E+00  0.00000000000E+00  0.45593999997E+02  0.45594000000E+02  0.51100000000E-03 0. -1.
         11   -1    0    0    0    0 -0.00000000000E+00 -0.00000000000E+00 -0.45593999997E+02  0.45594000000E+02  0.51100000000E-03 0.  1.
    9900012    2    1    2    0    0 -0.27563259582E+02 -0.12401050223E+02  0.10158901268E+02  0.59301912118E+02  0.49999941805E+02 0.  0.
        -12    1    1    2    0    0  0.27563259582E+02  0.12401050223E+02 -0.10158901268E+02  0.31886087882E+02  0.00000000000E+00 0.  1.
         11    1    3    3    0    0  0.31680671024E+01  0.11981475491E+02  0.46155725340E+01  0.13224821896E+02  0.51100000000E-03 0. -1.
        -11    1    3    3    0    0 -0.12166314718E+02 -0.21517216445E+01 -0.73473868886E+01  0.14374742231E+02  0.51100000000E-03 0.  1.
        -12    1    3    3    0    0 -0.18565011966E+02 -0.22230804069E+02  0.12890715622E+02  0.31702347991E+02  0.00000000000E+00 0.  1.
</event>
<event>
 7    1  0.3528441E-013  0.5930196E+02  0.7816164E-02  0.1266605E+00
        -11   -1    0    0    0    0  0.00000000000E+00  0.00000000000E+00  0.45593999997E+02  0.45594000000E+02  0.51100000000E-03 0. -1.
         11   -1    0    0    0    0 -0.00000000000E+00 -0.00000000000E+00 -0.45593999997E+02  0.45594000000E+02  0.51100000000E-03 0.  1.
    9900012    2    1    2    0    0  0.31716116356E+02 -0.27574652136E+01  0.17898670640E+01  0.59301964260E+02  0.50000036899E+02 0.  0.
        -12    1    1    2    0    0 -0.31716116356E+02  0.27574652136E+01 -0.17898670640E+01  0.31886035740E+02  0.00000000000E+00 0.  1.
         11    1    3    3    0    0  0.32756706345E+01  0.72412676532E+01  0.90103221915E+01  0.12014652787E+02  0.51100000000E-03 0.  1.
        -11    1    3    3    0    0  0.40853870747E+01 -0.18371045633E+02 -0.10124226824E+02  0.21370205292E+02  0.51100000000E-03 0. -1.
         12    1    3    3    0    0  0.24355058647E+02  0.83723127659E+01  0.29037716967E+01  0.25917106181E+02  0.00000000000E+00 0. -1.
</event>
<event>
 7    1  0.3528441E-013  0.5930195E+02  0.7816164E-02  0.1266605E+00
        -11   -1    0    0    0    0  0.00000000000E+00  0.00000000000E+00  0.45593999997E+02  0.45594000000E+02  0.51100000000E-03 0.  1.
         11   -1    0    0    0    0 -0.00000000000E+00 -0.00000000000E+00 -0.45593999997E+02  0.45594000000E+02  0.51100000000E-03 0. -1.
    9900012    2    1    2    0    0  0.21892779480E+01  0.31687144412E+02 -0.28021858138E+01  0.59301948124E+02  0.50000007471E+02 0.  0.
        -12    1    1    2    0    0 -0.21892779480E+01 -0.31687144412E+02  0.28021858138E+01  0.31886051876E+02  0.00000000000E+00 0.  1.
         11    1    3    3    0    0  0.57761599058E+00  0.32827525940E+01 -0.57073613885E+01  0.66093932480E+01  0.51100000000E-03 0. -1.
        -11    1    3    3    0    0  0.10330006468E+02 -0.39175825809E+01 -0.11767647921E+02  0.16141066407E+02  0.51100000000E-03 0.  1.
        -12    1    3    3    0    0 -0.87183445103E+01  0.32321974398E+02  0.14672823495E+02  0.36551488469E+02  0.00000000000E+00 0.  1.
</event>
<event>
 7    1  0.3528441E-013  0.5930192E+02  0.7816164E-02  0.1266605E+00
        -11   -1    0    0    0    0  0.00000000000E+00  0.00000000000E+00  0.45593999997E+02  0.45594000000E+02  0.51100000000E-03 0.  1.
         11   -1    0    0    0    0 -0.00000000000E+00 -0.00000000000E+00 -0.45593999997E+02  0.45594000000E+02  0.51100000000E-03 0. -1.
    9900012    2    1    2    0    0 -0.21132694449E+01 -0.20240411089E+02 -0.24547539919E+02  0.59301923652E+02  0.49999962840E+02 0.  0.
        -12    1    1    2    0    0  0.21132694449E+01  0.20240411089E+02  0.24547539919E+02  0.31886076348E+02  0.00000000000E+00 0.  1.
         11    1    3    3    0    0 -0.51753101522E+01 -0.10826511970E+02 -0.34872729326E+01  0.12496330236E+02  0.51100000000E-03 0. -1.
        -11    1    3    3    0    0  0.15121116927E+02 -0.18202425776E+02 -0.21363624878E+02  0.31880730064E+02  0.51100000000E-03 0.  1.
        -12    1    3    3    0    0 -0.12059076219E+02  0.87885266570E+01  0.30335789215E+00  0.14924863352E+02  0.00000000000E+00 0.  1.
</event>
<event>
 7    1  0.3528441E-013  0.5930194E+02  0.7816164E-02  0.1266605E+00
        -11   -1    0    0    0    0  0.00000000000E+00  0.00000000000E+00  0.45593999997E+02  0.45594000000E+02  0.51100000000E-03 0. -1.
         11   -1    0    0    0    0 -0.00000000000E+00 -0.00000000000E+00 -0.45593999997E+02  0.45594000000E+02  0.51100000000E-03 0.  1.
    9900012    2    1    2    0    0  0.19685434737E+02 -0.22070266620E+02  0.11920891428E+02  0.59301942516E+02  0.49999997243E+02 0.  0.
        -12    1    1    2    0    0 -0.19685434737E+02  0.22070266620E+02 -0.11920891428E+02  0.31886057484E+02  0.00000000000E+00 0.  1.
         11    1    3    3    0    0  0.19388199083E+02  0.26514822800E+01  0.16414509929E+02  0.25541510497E+02  0.51100000000E-03 0. -1.
        -11    1    3    3    0    0  0.29967136244E+01  0.37416170426E+01  0.14271013460E+00  0.47958687517E+01  0.51100000000E-03 0.  1.
        -12    1    3    3    0    0 -0.26994779708E+01 -0.28463365942E+02 -0.46363286355E+01  0.28964563268E+02  0.00000000000E+00 0.  1.
</event>
<event>
 7    1  0.3528441E-013  0.5930194E+02  0.7816164E-02  0.1266605E+00
        -11   -1    0    0    0    0  0.00000000000E+00  0.00000000000E+00  0.45593999997E+02  0.45594000000E+02  0.51100000000E-03 0.  1.
         11   -1    0    0    0    0 -0.00000000000E+00 -0.00000000000E+00 -0.45593999997E+02  0.45594000000E+02  0.51100000000E-03 0. -1.
    9900012    2    1    2    0    0 -0.31172563513E+02  0.66939309822E+01 -0.42801443845E+00  0.59301943105E+02  0.49999998316E+02 0.  0.
        -12    1    1    2    0    0  0.31172563513E+02 -0.66939309822E+01  0.42801443845E+00  0.31886056895E+02  0.00000000000E+00 0.  1.
         11    1    3    3    0    0 -0.21176530465E+02  0.20107578723E+02 -0.11477671557E+02  0.31376696914E+02  0.51100000000E-03 0. -1.
        -11    1    3    3    0    0  0.12987251764E+01  0.42416778278E+01  0.34906518589E+01  0.56447469864E+01  0.51100000000E-03 0.  1.
         12    1    3    3    0    0 -0.11294758225E+02 -0.17655325568E+02  0.75590052594E+01  0.22280499204E+02  0.00000000000E+00 0. -1.
</event>
<event>
 7    1  0.3528441E-013  0.5930194E+02  0.7816164E-02  0.1266605E+00
        -11   -1    0    0    0    0  0.00000000000E+00  0.00000000000E+00  0.45593999997E+02  0.45594000000E+02  0.51100000000E-03 0.  1.
         11   -1    0    0    0    0 -0.00000000000E+00 -0.00000000000E+00 -0.45593999997E+02  0.45594000000E+02  0.51100000000E-03 0. -1.
    9900012    2    1    2    0    0  0.30251899199E+02 -0.98625578000E+01  0.20671831174E+01  0.59301941957E+02  0.49999996224E+02 0.  0.
        -12    1    1    2    0    0 -0.30251899199E+02  0.98625578000E+01 -0.20671831174E+01  0.31886058043E+02  0.00000000000E+00 0.  1.
         11    1    3    3    0    0  0.94876344847E+01  0.49805023732E+01 -0.19126873120E+01  0.10884805236E+02  0.51100000000E-03 0. -1.
        -11    1    3    3    0    0  0.20545631358E+02  0.10200359072E+02  0.44609235036E+01  0.23368143526E+02  0.51100000000E-03 0.  1.
        -12    1    3    3    0    0  0.21863335597E+00 -0.25043419245E+02 -0.48105307414E+00  0.25048993195E+02  0.00000000000E+00 0.  1.
</event>
<event>
 7    1  0.3528441E-013  0.5930196E+02  0.7816164E-02  0.1266605E+00
        -11   -1    0    0    0    0  0.00000000000E+00  0.00000000000E+00  0.45593999997E+02  0.45594000000E+02  0.51100000000E-03 0.  1.
         11   -1    0    0    0    0 -0.00000000000E+00 -0.00000000000E+00 -0.45593999997E+02  0.45594000000E+02  0.51100000000E-03 0. -1.
    9900012    2    1    2    0    0  0.93003678255E+00  0.22967419096E+02 -0.22098686146E+02  0.59301964848E+02  0.50000037971E+02 0.  0.
        -12    1    1    2    0    0 -0.93003678255E+00 -0.22967419096E+02  0.22098686146E+02  0.31886035152E+02  0.00000000000E+00 0.  1.
         11    1    3    3    0    0 -0.69844370545E+01  0.19569915778E+02  0.98818152593E+01  0.23009003403E+02  0.51100000000E-03 0. -1.
        -11    1    3    3    0    0  0.37771730974E+01 -0.84853545716E+00 -0.10697810921E+00  0.38727888668E+01  0.51100000000E-03 0.  1.
        -12    1    3    3    0    0  0.41373007397E+01  0.42460387749E+01 -0.31873523296E+02  0.32420172578E+02  0.00000000000E+00 0.  1.
</event>
<event>
 7    1  0.3528441E-013  0.5930195E+02  0.7816164E-02  0.1266605E+00
        -11   -1    0    0    0    0  0.00000000000E+00  0.00000000000E+00  0.45593999997E+02  0.45594000000E+02  0.51100000000E-03 0. -1.
         11   -1    0    0    0    0 -0.00000000000E+00 -0.00000000000E+00 -0.45593999997E+02  0.45594000000E+02  0.51100000000E-03 0.  1.
    9900012    2    1    2    0    0  0.12269156575E+02 -0.24456168713E+02  0.16373272836E+02  0.59301945767E+02  0.50000003173E+02 0.  0.
        -12    1    1    2    0    0 -0.12269156575E+02  0.24456168713E+02 -0.16373272836E+02  0.31886054233E+02  0.00000000000E+00 0.  1.
         11    1    3    3    0    0 -0.66691229522E+01 -0.62364967801E+01  0.87145473346E+01  0.12621981958E+02  0.51100000000E-03 0. -1.
        -11    1    3    3    0    0  0.47587149999E+01 -0.25445411744E+02  0.14139560554E+02  0.29496466232E+02  0.51100000000E-03 0.  1.
        -12    1    3    3    0    0  0.14179564528E+02  0.72257398113E+01 -0.64808350527E+01  0.17183497577E+02  0.00000000000E+00 0.  1.
</event>
<event>
 7    1  0.3528441E-013  0.5930191E+02  0.7816164E-02  0.1266605E+00
        -11   -1    0    0    0    0  0.00000000000E+00  0.00000000000E+00  0.45593999997E+02  0.45594000000E+02  0.51100000000E-03 0.  1.
         11   -1    0    0    0    0 -0.00000000000E+00 -0.00000000000E+00 -0.45593999997E+02  0.45594000000E+02  0.51100000000E-03 0. -1.
    9900012    2    1    2    0    0  0.26073840360E+02  0.69871870743E+01 -0.16972234880E+02  0.59301910695E+02  0.49999939210E+02 0.  0.
        -12    1    1    2    0    0 -0.26073840360E+02 -0.69871870743E+01  0.16972234880E+02  0.31886089305E+02  0.00000000000E+00 0.  1.
         11    1    3    3    0    0  0.17235209507E+01  0.12481338306E+02  0.17881545461E+01  0.12726029519E+02  0.51100000000E-03 0. -1.
        -11    1    3    3    0    0  0.38577344922E+01  0.92006815282E+01  0.56618527768E+01  0.11471322205E+02  0.51100000000E-03 0.  1.
        -12    1    3    3    0    0  0.20492584917E+02 -0.14694832760E+02 -0.24422242203E+02  0.35104558972E+02  0.00000000000E+00 0.  1.
</event>
<event>
 7    1  0.3528441E-013  0.5930194E+02  0.7816164E-02  0.1266605E+00
        -11   -1    0    0    0    0  0.00000000000E+00  0.00000000000E+00  0.45593999997E+02  0.45594000000E+02  0.51100000000E-03 0.  1.
         11   -1    0    0    0    0 -0.00000000000E+00 -0.00000000000E+00 -0.45593999997E+02  0.45594000000E+02  0.51100000000E-03 0. -1.
    9900012    2    1    2    0    0  0.11681641865E+02 -0.26866994353E+02 -0.12586682617E+02  0.59301941581E+02  0.49999995537E+02 0.  0.
        -12    1    1    2    0    0 -0.11681641865E+02  0.26866994353E+02  0.12586682617E+02  0.31886058419E+02  0.00000000000E+00 0.  1.
         11    1    3    3    0    0  0.22721713227E+02 -0.16521213831E+02 -0.19913712667E+02  0.34435195816E+02  0.51100000000E-03 0. -1.
        -11    1    3    3    0    0  0.12676952802E+01 -0.11033753016E+02  0.55384396002E+01  0.12410683720E+02  0.51100000000E-03 0.  1.
        -12    1    3    3    0    0 -0.12307766642E+02  0.68797249418E+00  0.17885904499E+01  0.12456062045E+02  0.00000000000E+00 0.  1.
</event>
<event>
 7    1  0.3528441E-013  0.5930193E+02  0.7816164E-02  0.1266605E+00
        -11   -1    0    0    0    0  0.00000000000E+00  0.00000000000E+00  0.45593999997E+02  0.45594000000E+02  0.51100000000E-03 0.  1.
         11   -1    0    0    0    0 -0.00000000000E+00 -0.00000000000E+00 -0.45593999997E+02  0.45594000000E+02  0.51100000000E-03 0. -1.
    9900012    2    1    2    0    0  0.12012228280E+01 -0.22507941810E+02 -0.22553742364E+02  0.59301926622E+02  0.49999968257E+02 0.  0.
        -12    1    1    2    0    0 -0.12012228280E+01  0.22507941810E+02  0.22553742364E+02  0.31886073378E+02  0.00000000000E+00 0.  1.
         11    1    3    3    0    0  0.77120107832E+01 -0.12297021532E+02 -0.12703535124E+02  0.19289158971E+02  0.51100000000E-03 0. -1.
        -11    1    3    3    0    0  0.43868831523E+01 -0.17788349884E+02  0.60557766780E+01  0.19296180110E+02  0.51100000000E-03 0.  1.
        -12    1    3    3    0    0 -0.10897671108E+02  0.75774296057E+01 -0.15905983918E+02  0.20716587542E+02  0.00000000000E+00 0.  1.
</event>
<event>
 7    1  0.3528441E-013  0.5930195E+02  0.7816164E-02  0.1266605E+00
        -11   -1    0    0    0    0  0.00000000000E+00  0.00000000000E+00  0.45593999997E+02  0.45594000000E+02  0.51100000000E-03 0.  1.
         11   -1    0    0    0    0 -0.00000000000E+00 -0.00000000000E+00 -0.45593999997E+02  0.45594000000E+02  0.51100000000E-03 0. -1.
    9900012    2    1    2    0    0 -0.15177607015E+02 -0.12904743655E+01 -0.28012408273E+02  0.59301951389E+02  0.50000013425E+02 0.  0.
        -12    1    1    2    0    0  0.15177607015E+02  0.12904743655E+01  0.28012408273E+02  0.31886048611E+02  0.00000000000E+00 0.  1.
         11    1    3    3    0    0 -0.12836553586E+02 -0.13594888836E+02 -0.16253338413E+02  0.24774364175E+02  0.51100000000E-03 0. -1.
        -11    1    3    3    0    0 -0.12532361004E+02  0.74410837934E+00 -0.14167199506E+02  0.18929429778E+02  0.51100000000E-03 0.  1.
         12    1    3    3    0    0  0.10191307575E+02  0.11560306091E+02  0.24081296463E+01  0.15598157437E+02  0.00000000000E+00 0. -1.
</event>
<event>
 7    1  0.3528441E-013  0.5930194E+02  0.7816164E-02  0.1266605E+00
        -11   -1    0    0    0    0  0.00000000000E+00  0.00000000000E+00  0.45593999997E+02  0.45594000000E+02  0.51100000000E-03 0.  1.
         11   -1    0    0    0    0 -0.00000000000E+00 -0.00000000000E+00 -0.45593999997E+02  0.45594000000E+02  0.51100000000E-03 0. -1.
    9900012    2    1    2    0    0 -0.28878382622E+02  0.12671125253E+02 -0.47119456018E+01  0.59301939889E+02  0.49999992452E+02 0.  0.
        -12    1    1    2    0    0  0.28878382622E+02 -0.12671125253E+02  0.47119456018E+01  0.31886060111E+02  0.00000000000E+00 0.  1.
         11    1    3    3    0    0 -0.24521530197E+02 -0.80696223587E+00 -0.15528576431E+02  0.29036069250E+02  0.51100000000E-03 0. -1.
        -11    1    3    3    0    0 -0.10795872618E+02  0.89335689555E+00 -0.21949589938E+01  0.11052909001E+02  0.51100000000E-03 0.  1.
        -12    1    3    3    0    0  0.64390201934E+01  0.12584730594E+02  0.13011589823E+02  0.19212961638E+02  0.00000000000E+00 0.  1.
</event>
<event>
 7    1  0.3528441E-013  0.5930195E+02  0.7816164E-02  0.1266605E+00
        -11   -1    0    0    0    0  0.00000000000E+00  0.00000000000E+00  0.45593999997E+02  0.45594000000E+02  0.51100000000E-03 0.  1.
         11   -1    0    0    0    0 -0.00000000000E+00 -0.00000000000E+00 -0.45593999997E+02  0.45594000000E+02  0.51100000000E-03 0. -1.
    9900012    2    1    2    0    0 -0.21065041979E+02  0.21673343398E+02 -0.10161230945E+02  0.59301946278E+02  0.50000004104E+02 0.  0.
        -12    1    1    2    0    0  0.21065041979E+02 -0.21673343398E+02  0.10161230945E+02  0.31886053722E+02  0.00000000000E+00 0.  1.
         11    1    3    3    0    0 -0.25302427811E+02  0.25339843309E+02 -0.16319533301E+02  0.39352861134E+02  0.51100000000E-03 0. -1.
        -11    1    3    3    0    0 -0.39605694766E+01  0.60911597323E+00 -0.43754617565E+01  0.59331103724E+01  0.51100000000E-03 0.  1.
        -12    1    3    3    0    0  0.81979553083E+01 -0.42756158843E+01  0.10533764112E+02  0.14015974771E+02  0.00000000000E+00 0.  1.
</event>
<event>
 7    1  0.3528441E-013  0.5930193E+02  0.7816164E-02  0.1266605E+00
        -11   -1    0    0    0    0  0.00000000000E+00  0.00000000000E+00  0.45593999997E+02  0.45594000000E+02  0.51100000000E-03 0.  1.
         11   -1    0    0    0    0 -0.00000000000E+00 -0.00000000000E+00 -0.45593999997E+02  0.45594000000E+02  0.51100000000E-03 0. -1.
    9900012    2    1    2    0    0 -0.57752597843E+01 -0.12694868835E+01 -0.31332985250E+02  0.59301934278E+02  0.49999982219E+02 0.  0.
        -12    1    1    2    0    0  0.57752597843E+01  0.12694868835E+01  0.31332985250E+02  0.31886065722E+02  0.00000000000E+00 0.  1.
         11    1    3    3    0    0  0.40454970564E+01 -0.66864902034E+00 -0.13405020962E+02  0.14018121315E+02  0.51100000000E-03 0. -1.
        -11    1    3    3    0    0 -0.86142943831E+01  0.11920647809E+02  0.77981124177E+01  0.16646875666E+02  0.51100000000E-03 0.  1.
         12    1    3    3    0    0 -0.12064624576E+01 -0.12521485672E+02 -0.25726076706E+02  0.28636937297E+02  0.00000000000E+00 0. -1.
</event>
<event>
 7    1  0.3528441E-013  0.5930194E+02  0.7816164E-02  0.1266605E+00
        -11   -1    0    0    0    0  0.00000000000E+00  0.00000000000E+00  0.45593999997E+02  0.45594000000E+02  0.51100000000E-03 0.  1.
         11   -1    0    0    0    0 -0.00000000000E+00 -0.00000000000E+00 -0.45593999997E+02  0.45594000000E+02  0.51100000000E-03 0. -1.
    9900012    2    1    2    0    0 -0.46671392328E+01 -0.27784217881E+02 -0.14932378236E+02  0.59301939226E+02  0.49999991243E+02 0.  0.
        -12    1    1    2    0    0  0.46671392328E+01  0.27784217881E+02  0.14932378236E+02  0.31886060774E+02  0.00000000000E+00 0.  1.
         11    1    3    3    0    0 -0.23148578092E+01  0.88558338468E+01 -0.15661181578E+02  0.18139927467E+02  0.51100000000E-03 0. -1.
        -11    1    3    3    0    0 -0.10174970557E+02 -0.16886872475E+02 -0.16457665125E+01  0.19783959045E+02  0.51100000000E-03 0.  1.
        -12    1    3    3    0    0  0.78226891336E+01 -0.19753179253E+02  0.23745698546E+01  0.21378052715E+02  0.00000000000E+00 0.  1.
</event>
<event>
 7    1  0.3528441E-013  0.5930195E+02  0.7816164E-02  0.1266605E+00
        -11   -1    0    0    0    0  0.00000000000E+00  0.00000000000E+00  0.45593999997E+02  0.45594000000E+02  0.51100000000E-03 0.  1.
         11   -1    0    0    0    0 -0.00000000000E+00 -0.00000000000E+00 -0.45593999997E+02  0.45594000000E+02  0.51100000000E-03 0. -1.
    9900012    2    1    2    0    0  0.20845344757E+02 -0.23948776688E+02 -0.29407744626E+01  0.59301945723E+02  0.50000003093E+02 0.  0.
        -12    1    1    2    0    0 -0.20845344757E+02  0.23948776688E+02  0.29407744626E+01  0.31886054277E+02  0.00000000000E+00 0.  1.
         11    1    3    3    0    0  0.75504435698E+01  0.21106372444E+01 -0.10372101814E+02  0.13001710810E+02  0.51100000000E-03 0. -1.
        -11    1    3    3    0    0  0.18045869543E+02 -0.99789195198E+01 -0.92924727066E+01  0.22618184976E+02  0.51100000000E-03 0.  1.
        -12    1    3    3    0    0 -0.47509683564E+01 -0.16080494413E+02  0.16723800058E+02  0.23682049938E+02  0.00000000000E+00 0.  1.
</event>
<event>
 7    1  0.3528441E-013  0.5930196E+02  0.7816164E-02  0.1266605E+00
        -11   -1    0    0    0    0  0.00000000000E+00  0.00000000000E+00  0.45593999997E+02  0.45594000000E+02  0.51100000000E-03 0.  1.
         11   -1    0    0    0    0 -0.00000000000E+00 -0.00000000000E+00 -0.45593999997E+02  0.45594000000E+02  0.51100000000E-03 0. -1.
    9900012    2    1    2    0    0  0.19035212642E+02  0.20983218370E+02  0.14631633791E+02  0.59301961035E+02  0.50000031018E+02 0.  0.
        -12    1    1    2    0    0 -0.19035212642E+02 -0.20983218370E+02 -0.14631633791E+02  0.31886038965E+02  0.00000000000E+00 0.  1.
         11    1    3    3    0    0  0.51543551927E+01  0.10754439440E+02  0.93899320321E+01  0.15178806572E+02  0.51100000000E-03 0. -1.
        -11    1    3    3    0    0 -0.69306134068E+00  0.21621898498E+02  0.11619275214E+02  0.24555943994E+02  0.51100000000E-03 0.  1.
         12    1    3    3    0    0  0.14573918790E+02 -0.11393119568E+02 -0.63775734548E+01  0.19567210470E+02  0.00000000000E+00 0. -1.
</event>
<event>
 7    1  0.3528441E-013  0.5930209E+02  0.7816164E-02  0.1266604E+00
        -11   -1    0    0    0    0  0.00000000000E+00  0.00000000000E+00  0.45593999997E+02  0.45594000000E+02  0.51100000000E-03 0. -1.
         11   -1    0    0    0    0 -0.00000000000E+00 -0.00000000000E+00 -0.45593999997E+02  0.45594000000E+02  0.51100000000E-03 0.  1.
    9900012    2    1    2    0    0  0.31683520832E+02 -0.31544443364E+01 -0.17074488768E+01  0.59302087859E+02  0.50000262313E+02 0.  0.
        -12    1    1    2    0    0 -0.31683520832E+02  0.31544443364E+01  0.17074488768E+01  0.31885912141E+02  0.00000000000E+00 0.  1.
         11    1    3    3    0    0  0.20475342746E+02  0.82695723516E+01 -0.11247724480E+02  0.24781783505E+02  0.51100000000E-03 0. -1.
        -11    1    3    3    0    0  0.17591144722E+02 -0.73261081312E+00  0.12657701985E+02  0.21684153455E+02  0.51100000000E-03 0.  1.
        -12    1    3    3    0    0 -0.63829666360E+01 -0.10691405875E+02 -0.31174263825E+01  0.12836150899E+02  0.00000000000E+00 0.  1.
</event>
<event>
 7    1  0.3528441E-013  0.5930194E+02  0.7816164E-02  0.1266605E+00
        -11   -1    0    0    0    0  0.00000000000E+00  0.00000000000E+00  0.45593999997E+02  0.45594000000E+02  0.51100000000E-03 0.  1.
         11   -1    0    0    0    0 -0.00000000000E+00 -0.00000000000E+00 -0.45593999997E+02  0.45594000000E+02  0.51100000000E-03 0. -1.
    9900012    2    1    2    0    0 -0.29198247854E+02 -0.12545478266E+02  0.26065242774E+01  0.59301942365E+02  0.49999996967E+02 0.  0.
        -12    1    1    2    0    0  0.29198247854E+02  0.12545478266E+02 -0.26065242774E+01  0.31886057635E+02  0.00000000000E+00 0.  1.
         11    1    3    3    0    0 -0.24874020925E+02 -0.29014144005E+02 -0.28585315447E+01  0.38323735102E+02  0.51100000000E-03 0. -1.
        -11    1    3    3    0    0 -0.12402700119E+01 -0.12984329517E+01 -0.69046774686E+00  0.19237837204E+01  0.51100000000E-03 0.  1.
        -12    1    3    3    0    0 -0.30839569174E+01  0.17767098690E+02  0.61555235690E+01  0.19054423543E+02  0.00000000000E+00 0.  1.
</event>
<event>
 7    1  0.3528441E-013  0.5930194E+02  0.7816164E-02  0.1266605E+00
        -11   -1    0    0    0    0  0.00000000000E+00  0.00000000000E+00  0.45593999997E+02  0.45594000000E+02  0.51100000000E-03 0.  1.
         11   -1    0    0    0    0 -0.00000000000E+00 -0.00000000000E+00 -0.45593999997E+02  0.45594000000E+02  0.51100000000E-03 0. -1.
    9900012    2    1    2    0    0 -0.25795483755E+02  0.10751780514E+02  0.15352949813E+02  0.59301939812E+02  0.49999992311E+02 0.  0.
        -12    1    1    2    0    0  0.25795483755E+02 -0.10751780514E+02 -0.15352949813E+02  0.31886060188E+02  0.00000000000E+00 0.  1.
         11    1    3    3    0    0 -0.19963112562E+02  0.16426841719E+02 -0.35066537313E+01  0.26089530710E+02  0.51100000000E-03 0. -1.
        -11    1    3    3    0    0 -0.14610270174E+02  0.29961177580E+01  0.11620725706E+02  0.18907088152E+02  0.51100000000E-03 0.  1.
        -12    1    3    3    0    0  0.87778989816E+01 -0.86711789626E+01  0.72388778383E+01  0.14305320950E+02  0.00000000000E+00 0.  1.
</event>
<event>
 7    1  0.3528441E-013  0.5930202E+02  0.7816164E-02  0.1266604E+00
        -11   -1    0    0    0    0  0.00000000000E+00  0.00000000000E+00  0.45593999997E+02  0.45594000000E+02  0.51100000000E-03 0. -1.
         11   -1    0    0    0    0 -0.00000000000E+00 -0.00000000000E+00 -0.45593999997E+02  0.45594000000E+02  0.51100000000E-03 0.  1.
    9900012    2    1    2    0    0  0.26145308296E-02  0.31358548634E+02  0.57755417881E+01  0.59302024052E+02  0.50000145944E+02 0.  0.
        -12    1    1    2    0    0 -0.26145308296E-02 -0.31358548634E+02 -0.57755417881E+01  0.31885975948E+02  0.00000000000E+00 0.  1.
         11    1    3    3    0    0 -0.71254789079E+01 -0.90737267156E+00 -0.39398630047E+01  0.81925756383E+01  0.51100000000E-03 0. -1.
        -11    1    3    3    0    0 -0.12067497843E+02 -0.47497762685E+00  0.68177578999E+00  0.12096070702E+02  0.51100000000E-03 0.  1.
        -12    1    3    3    0    0  0.19195591281E+02  0.32740898932E+02  0.90336290028E+01  0.39013377712E+02  0.00000000000E+00 0.  1.
</event>
<event>
 7    1  0.3528441E-013  0.5930197E+02  0.7816164E-02  0.1266605E+00
        -11   -1    0    0    0    0  0.00000000000E+00  0.00000000000E+00  0.45593999997E+02  0.45594000000E+02  0.51100000000E-03 0.  1.
         11   -1    0    0    0    0 -0.00000000000E+00 -0.00000000000E+00 -0.45593999997E+02  0.45594000000E+02  0.51100000000E-03 0. -1.
    9900012    2    1    2    0    0 -0.92290677981E+01 -0.30213307816E+02  0.43242524477E+01  0.59301971385E+02  0.50000049894E+02 0.  0.
        -12    1    1    2    0    0  0.92290677981E+01  0.30213307816E+02 -0.43242524477E+01  0.31886028615E+02  0.00000000000E+00 0.  1.
         11    1    3    3    0    0  0.85212670604E+01  0.15308722975E+01  0.23124067735E+01  0.89611822688E+01  0.51100000000E-03 0. -1.
        -11    1    3    3    0    0  0.92495727334E+01 -0.13965907556E+01 -0.18575806637E+01  0.95370680857E+01  0.51100000000E-03 0.  1.
         12    1    3    3    0    0 -0.26999907592E+02 -0.30347589357E+02  0.38694263379E+01  0.40803721031E+02  0.00000000000E+00 0. -1.
</event>
<event>
 7    1  0.3528441E-013  0.5930196E+02  0.7816164E-02  0.1266605E+00
        -11   -1    0    0    0    0  0.00000000000E+00  0.00000000000E+00  0.45593999997E+02  0.45594000000E+02  0.51100000000E-03 0.  1.
         11   -1    0    0    0    0 -0.00000000000E+00 -0.00000000000E+00 -0.45593999997E+02  0.45594000000E+02  0.51100000000E-03 0. -1.
    9900012    2    1    2    0    0 -0.31507412331E+02  0.39698032443E+01 -0.28711446627E+01  0.59301955384E+02  0.50000020710E+02 0.  0.
        -12    1    1    2    0    0  0.31507412331E+02 -0.39698032443E+01  0.28711446627E+01  0.31886044616E+02  0.00000000000E+00 0.  1.
         11    1    3    3    0    0 -0.22588538824E+02 -0.17104539631E+02 -0.14050034075E+02  0.31626109782E+02  0.51100000000E-03 0. -1.
        -11    1    3    3    0    0 -0.52900630159E+01  0.13666287489E+02  0.11633360249E+01  0.14700528270E+02  0.51100000000E-03 0.  1.
        -12    1    3    3    0    0 -0.36288104913E+01  0.74080553863E+01  0.10015553387E+02  0.12975317331E+02  0.00000000000E+00 0.  1.
</event>
<event>
 7    1  0.3528441E-013  0.5930195E+02  0.7816164E-02  0.1266605E+00
        -11   -1    0    0    0    0  0.00000000000E+00  0.00000000000E+00  0.45593999997E+02  0.45594000000E+02  0.51100000000E-03 0.  1.
         11   -1    0    0    0    0 -0.00000000000E+00 -0.00000000000E+00 -0.45593999997E+02  0.45594000000E+02  0.51100000000E-03 0. -1.
    9900012    2    1    2    0    0  0.25571816629E+01  0.21631990335E+02 -0.23286003465E+02  0.59301950679E+02  0.50000012131E+02 0.  0.
        -12    1    1    2    0    0 -0.25571816629E+01 -0.21631990335E+02  0.23286003465E+02  0.31886049321E+02  0.00000000000E+00 0.  1.
         11    1    3    3    0    0  0.11662236018E+02  0.19474002063E+02 -0.92733966881E+01  0.24520203745E+02  0.51100000000E-03 0. -1.
        -11    1    3    3    0    0 -0.12020462850E+02 -0.62248402439E+01  0.44889671924E+01  0.14261521304E+02  0.51100000000E-03 0.  1.
         12    1    3    3    0    0  0.29154084947E+01  0.83828285163E+01 -0.18501573969E+02  0.20520225631E+02  0.00000000000E+00 0. -1.
</event>
<event>
 7    1  0.3528441E-013  0.5930198E+02  0.7816164E-02  0.1266605E+00
        -11   -1    0    0    0    0  0.00000000000E+00  0.00000000000E+00  0.45593999997E+02  0.45594000000E+02  0.51100000000E-03 0. -1.
         11   -1    0    0    0    0 -0.00000000000E+00 -0.00000000000E+00 -0.45593999997E+02  0.45594000000E+02  0.51100000000E-03 0.  1.
    9900012    2    1    2    0    0  0.63833909125E+01  0.29967447504E+02  0.88273885648E+01  0.59301978324E+02  0.50000062548E+02 0.  0.
        -12    1    1    2    0    0 -0.63833909125E+01 -0.29967447504E+02 -0.88273885648E+01  0.31886021676E+02  0.00000000000E+00 0.  1.
         11    1    3    3    0    0  0.10489153465E+02 -0.30301098884E+01  0.59046830939E+01  0.12412461039E+02  0.51100000000E-03 0. -1.
        -11    1    3    3    0    0 -0.12061959535E+02  0.17574261607E+02  0.14720657761E+02  0.25904503547E+02  0.51100000000E-03 0.  1.
        -12    1    3    3    0    0  0.79561969828E+01  0.15423295785E+02 -0.11797952290E+02  0.20985013737E+02  0.00000000000E+00 0.  1.
</event>
<event>
 7    1  0.3528441E-013  0.5930192E+02  0.7816164E-02  0.1266605E+00
        -11   -1    0    0    0    0  0.00000000000E+00  0.00000000000E+00  0.45593999997E+02  0.45594000000E+02  0.51100000000E-03 0.  1.
         11   -1    0    0    0    0 -0.00000000000E+00 -0.00000000000E+00 -0.45593999997E+02  0.45594000000E+02  0.51100000000E-03 0. -1.
    9900012    2    1    2    0    0  0.12162346106E+02 -0.27842170526E+02 -0.96753651480E+01  0.59301924463E+02  0.49999964318E+02 0.  0.
        -12    1    1    2    0    0 -0.12162346106E+02  0.27842170526E+02  0.96753651480E+01  0.31886075537E+02  0.00000000000E+00 0.  1.
         11    1    3    3    0    0 -0.11030165932E+02 -0.20646470245E+01 -0.32195358071E+01  0.11674448119E+02  0.51100000000E-03 0. -1.
        -11    1    3    3    0    0  0.11201907325E+01  0.73182919124E+01 -0.12235792644E+01  0.75039569742E+01  0.51100000000E-03 0.  1.
         12    1    3    3    0    0  0.22072321305E+02 -0.33095815414E+02 -0.52322500764E+01  0.40123519369E+02  0.00000000000E+00 0. -1.
</event>
<event>
 7    1  0.3528441E-013  0.5930195E+02  0.7816164E-02  0.1266605E+00
        -11   -1    0    0    0    0  0.00000000000E+00  0.00000000000E+00  0.45593999997E+02  0.45594000000E+02  0.51100000000E-03 0.  1.
         11   -1    0    0    0    0 -0.00000000000E+00 -0.00000000000E+00 -0.45593999997E+02  0.45594000000E+02  0.51100000000E-03 0. -1.
    9900012    2    1    2    0    0 -0.59790939602E+01  0.14330695643E+02 -0.27849632795E+02  0.59301945854E+02  0.50000003331E+02 0.  0.
        -12    1    1    2    0    0  0.59790939602E+01 -0.14330695643E+02  0.27849632795E+02  0.31886054146E+02  0.00000000000E+00 0.  1.
         11    1    3    3    0    0  0.46703250849E+01 -0.18222466460E+01 -0.14840498734E+02  0.15664383875E+02  0.51100000000E-03 0. -1.
        -11    1    3    3    0    0 -0.55162333925E+00 -0.59501163703E+01 -0.17881443499E+02  0.18853492913E+02  0.51100000000E-03 0.  1.
        -12    1    3    3    0    0 -0.10097795706E+02  0.22103058660E+02  0.48723094387E+01  0.24784069067E+02  0.00000000000E+00 0.  1.
</event>
<event>
 7    1  0.3528441E-013  0.5930192E+02  0.7816164E-02  0.1266605E+00
        -11   -1    0    0    0    0  0.00000000000E+00  0.00000000000E+00  0.45593999997E+02  0.45594000000E+02  0.51100000000E-03 0. -1.
         11   -1    0    0    0    0 -0.00000000000E+00 -0.00000000000E+00 -0.45593999997E+02  0.45594000000E+02  0.51100000000E-03 0.  1.
    9900012    2    1    2    0    0  0.87649374636E+01  0.21279011817E+02  0.22070384186E+02  0.59301916347E+02  0.49999949516E+02 0.  0.
        -12    1    1    2    0    0 -0.87649374636E+01 -0.21279011817E+02 -0.22070384186E+02  0.31886083653E+02  0.00000000000E+00 0.  1.
         11    1    3    3    0    0 -0.19131915726E+01 -0.23339292972E+01  0.20266649001E+01  0.36352302316E+01  0.51100000000E-03 0. -1.
        -11    1    3    3    0    0 -0.43796090675E+00 -0.81676253489E+01 -0.83022459916E+01  0.11654578601E+02  0.51100000000E-03 0.  1.
         12    1    3    3    0    0  0.11116089943E+02  0.31780566463E+02  0.28345965277E+02  0.44012107514E+02  0.00000000000E+00 0. -1.
</event>
<event>
 7    1  0.3528441E-013  0.5930198E+02  0.7816164E-02  0.1266605E+00
        -11   -1    0    0    0    0  0.00000000000E+00  0.00000000000E+00  0.45593999997E+02  0.45594000000E+02  0.51100000000E-03 0. -1.
         11   -1    0    0    0    0 -0.00000000000E+00 -0.00000000000E+00 -0.45593999997E+02  0.45594000000E+02  0.51100000000E-03 0.  1.
    9900012    2    1    2    0    0 -0.16309497522E+01 -0.21028101701E+02  0.23913959731E+02  0.59301975973E+02  0.50000058260E+02 0.  0.
        -12    1    1    2    0    0  0.16309497522E+01  0.21028101701E+02 -0.23913959731E+02  0.31886024027E+02  0.00000000000E+00 0.  1.
         11    1    3    3    0    0 -0.74529097884E+01 -0.86427532664E+01 -0.25218995819E+01  0.11687729724E+02  0.51100000000E-03 0. -1.
        -11    1    3    3    0    0 -0.94742615504E+01 -0.15508733825E+02  0.26341077210E+02  0.32002106268E+02  0.51100000000E-03 0.  1.
        -12    1    3    3    0    0  0.15296221587E+02  0.31233853903E+01  0.94782102829E-01  0.15612139980E+02  0.00000000000E+00 0.  1.
</event>
<event>
 7    1  0.3528441E-013  0.5930196E+02  0.7816164E-02  0.1266605E+00
        -11   -1    0    0    0    0  0.00000000000E+00  0.00000000000E+00  0.45593999997E+02  0.45594000000E+02  0.51100000000E-03 0.  1.
         11   -1    0    0    0    0 -0.00000000000E+00 -0.00000000000E+00 -0.45593999997E+02  0.45594000000E+02  0.51100000000E-03 0. -1.
    9900012    2    1    2    0    0  0.74301735968E+01 -0.27187541788E+02 -0.14911402377E+02  0.59301955576E+02  0.50000021062E+02 0.  0.
        -12    1    1    2    0    0 -0.74301735968E+01  0.27187541788E+02  0.14911402377E+02  0.31886044424E+02  0.00000000000E+00 0.  1.
         11    1    3    3    0    0 -0.82630840921E+01 -0.55423028152E+01  0.66707705936E+01  0.11978934000E+02  0.51100000000E-03 0. -1.
        -11    1    3    3    0    0 -0.95905351352E+01 -0.58007566082E+01 -0.13889398919E+01  0.11294082331E+02  0.51100000000E-03 0.  1.
         12    1    3    3    0    0  0.25283792824E+02 -0.15844482364E+02 -0.20193233079E+02  0.36028939245E+02  0.00000000000E+00 0. -1.
</event>
<event>
 7    1  0.3528441E-013  0.5930194E+02  0.7816164E-02  0.1266605E+00
        -11   -1    0    0    0    0  0.00000000000E+00  0.00000000000E+00  0.45593999997E+02  0.45594000000E+02  0.51100000000E-03 0. -1.
         11   -1    0    0    0    0 -0.00000000000E+00 -0.00000000000E+00 -0.45593999997E+02  0.45594000000E+02  0.51100000000E-03 0.  1.
    9900012    2    1    2    0    0  0.22585802587E+02 -0.22023548690E+02 -0.46438863445E+01  0.59301939475E+02  0.49999991698E+02 0.  0.
        -12    1    1    2    0    0 -0.22585802587E+02  0.22023548690E+02  0.46438863445E+01  0.31886060525E+02  0.00000000000E+00 0.  1.
         11    1    3    3    0    0  0.29564741811E+01 -0.44252029797E+01  0.15345782986E+02  0.16242420285E+02  0.51100000000E-03 0. -1.
        -11    1    3    3    0    0  0.14119136320E+01 -0.15417904225E+02  0.58365203551E+00  0.15493415400E+02  0.51100000000E-03 0.  1.
        -12    1    3    3    0    0  0.18217414774E+02 -0.21804414851E+01 -0.20573321366E+02  0.27566103790E+02  0.00000000000E+00 0.  1.
</event>
<event>
 7    1  0.3528441E-013  0.5930194E+02  0.7816164E-02  0.1266605E+00
        -11   -1    0    0    0    0  0.00000000000E+00  0.00000000000E+00  0.45593999997E+02  0.45594000000E+02  0.51100000000E-03 0. -1.
         11   -1    0    0    0    0 -0.00000000000E+00 -0.00000000000E+00 -0.45593999997E+02  0.45594000000E+02  0.51100000000E-03 0.  1.
    9900012    2    1    2    0    0  0.23934140065E+01 -0.31790308923E+02  0.60725288175E+00  0.59301938342E+02  0.49999989630E+02 0.  0.
        -12    1    1    2    0    0 -0.23934140065E+01  0.31790308923E+02 -0.60725288175E+00  0.31886061658E+02  0.00000000000E+00 0.  1.
         11    1    3    3    0    0  0.14973241593E+02 -0.25689964630E+02  0.36368765914E+00  0.29737258036E+02  0.51100000000E-03 0. -1.
        -11    1    3    3    0    0 -0.98131743612E+01 -0.14293854221E+02  0.68906449605E+01  0.18657267961E+02  0.51100000000E-03 0.  1.
        -12    1    3    3    0    0 -0.27666532256E+01  0.81935099287E+01 -0.66470797379E+01  0.10907412345E+02  0.00000000000E+00 0.  1.
</event>
<event>
 7    1  0.3528441E-013  0.5930195E+02  0.7816164E-02  0.1266605E+00
        -11   -1    0    0    0    0  0.00000000000E+00  0.00000000000E+00  0.45593999997E+02  0.45594000000E+02  0.51100000000E-03 0.  1.
         11   -1    0    0    0    0 -0.00000000000E+00 -0.00000000000E+00 -0.45593999997E+02  0.45594000000E+02  0.51100000000E-03 0. -1.
    9900012    2    1    2    0    0 -0.56751975420E+01 -0.22278774050E+02 -0.22094530791E+02  0.59301953974E+02  0.50000018140E+02 0.  0.
        -12    1    1    2    0    0  0.56751975420E+01  0.22278774050E+02  0.22094530791E+02  0.31886046026E+02  0.00000000000E+00 0.  1.
         11    1    3    3    0    0 -0.13629757860E+02 -0.84851189267E+01 -0.54419609738E+01  0.16952359188E+02  0.51100000000E-03 0. -1.
        -11    1    3    3    0    0 -0.13672342204E+02 -0.41473201798E+01 -0.10925825632E+02  0.17986296785E+02  0.51100000000E-03 0.  1.
         12    1    3    3    0    0  0.21626902522E+02 -0.96463349436E+01 -0.57267441845E+01  0.24363298001E+02  0.00000000000E+00 0. -1.
</event>
<event>
 7    1  0.3528441E-013  0.5930194E+02  0.7816164E-02  0.1266605E+00
        -11   -1    0    0    0    0  0.00000000000E+00  0.00000000000E+00  0.45593999997E+02  0.45594000000E+02  0.51100000000E-03 0.  1.
         11   -1    0    0    0    0 -0.00000000000E+00 -0.00000000000E+00 -0.45593999997E+02  0.45594000000E+02  0.51100000000E-03 0. -1.
    9900012    2    1    2    0    0  0.31863206555E+02  0.76354913595E+00 -0.93497247661E+00  0.59301935445E+02  0.49999984348E+02 0.  0.
        -12    1    1    2    0    0 -0.31863206555E+02 -0.76354913595E+00  0.93497247661E+00  0.31886064555E+02  0.00000000000E+00 0.  1.
         11    1    3    3    0    0  0.27947681948E+02 -0.13626574483E+02  0.50220897076E+01  0.31495679762E+02  0.51100000000E-03 0. -1.
        -11    1    3    3    0    0  0.47290998886E+01 -0.22368284956E+01  0.55055434765E+01  0.75946557991E+01  0.51100000000E-03 0.  1.
         12    1    3    3    0    0 -0.81357528110E+00  0.16626952114E+02 -0.11462605661E+02  0.20211599884E+02  0.00000000000E+00 0. -1.
</event>
<event>
 7    1  0.3528441E-013  0.5930193E+02  0.7816164E-02  0.1266605E+00
        -11   -1    0    0    0    0  0.00000000000E+00  0.00000000000E+00  0.45593999997E+02  0.45594000000E+02  0.51100000000E-03 0.  1.
         11   -1    0    0    0    0 -0.00000000000E+00 -0.00000000000E+00 -0.45593999997E+02  0.45594000000E+02  0.51100000000E-03 0. -1.
    9900012    2    1    2    0    0  0.31302819423E+02 -0.40342775113E+01  0.45364475739E+01  0.59301933208E+02  0.49999980267E+02 0.  0.
        -12    1    1    2    0    0 -0.31302819423E+02  0.40342775113E+01 -0.45364475739E+01  0.31886066792E+02  0.00000000000E+00 0.  1.
         11    1    3    3    0    0  0.13252940848E+02  0.33031254131E+01  0.84088040670E+01  0.16039297513E+02  0.51100000000E-03 0. -1.
        -11    1    3    3    0    0  0.11095408913E+02  0.90625070881E+01  0.12541401874E+02  0.19040060265E+02  0.51100000000E-03 0.  1.
         12    1    3    3    0    0  0.69544696629E+01 -0.16399910013E+02 -0.16413758368E+02  0.24222575430E+02  0.00000000000E+00 0. -1.
</event>
<event>
 7    1  0.3528441E-013  0.5930194E+02  0.7816164E-02  0.1266605E+00
        -11   -1    0    0    0    0  0.00000000000E+00  0.00000000000E+00  0.45593999997E+02  0.45594000000E+02  0.51100000000E-03 0.  1.
         11   -1    0    0    0    0 -0.00000000000E+00 -0.00000000000E+00 -0.45593999997E+02  0.45594000000E+02  0.51100000000E-03 0. -1.
    9900012    2    1    2    0    0  0.23186913173E+02  0.77108333533E+01 -0.20484889957E+02  0.59301943329E+02  0.49999998725E+02 0.  0.
        -12    1    1    2    0    0 -0.23186913173E+02 -0.77108333533E+01  0.20484889957E+02  0.31886056671E+02  0.00000000000E+00 0.  1.
         11    1    3    3    0    0 -0.53085068922E+01 -0.36725317133E+01  0.90878635045E-02  0.64550613831E+01  0.51100000000E-03 0. -1.
        -11    1    3    3    0    0 -0.76888537032E+01  0.98482863524E+01 -0.53197546818E+01  0.13579654100E+02  0.51100000000E-03 0.  1.
         12    1    3    3    0    0  0.36184273768E+02  0.15350787141E+01 -0.15174223139E+02  0.39267227845E+02  0.00000000000E+00 0. -1.
</event>
<event>
 7    1  0.3528441E-013  0.5930195E+02  0.7816164E-02  0.1266605E+00
        -11   -1    0    0    0    0  0.00000000000E+00  0.00000000000E+00  0.45593999997E+02  0.45594000000E+02  0.51100000000E-03 0.  1.
         11   -1    0    0    0    0 -0.00000000000E+00 -0.00000000000E+00 -0.45593999997E+02  0.45594000000E+02  0.51100000000E-03 0. -1.
    9900012    2    1    2    0    0  0.10734011874E+02  0.22810043793E+02 -0.19524430240E+02  0.59301945290E+02  0.50000002303E+02 0.  0.
        -12    1    1    2    0    0 -0.10734011874E+02 -0.22810043793E+02  0.19524430240E+02  0.31886054710E+02  0.00000000000E+00 0.  1.
         11    1    3    3    0    0 -0.35983683216E+01  0.51330448134E+01 -0.68442922713E+01  0.92812036175E+01  0.51100000000E-03 0. -1.
        -11    1    3    3    0    0 -0.14342957539E+02  0.47600849830E+01 -0.10683371324E+02  0.18507113852E+02  0.51100000000E-03 0.  1.
        -12    1    3    3    0    0  0.28675337735E+02  0.12916913997E+02 -0.19967666447E+01  0.31513627821E+02  0.00000000000E+00 0.  1.
</event>
<event>
 7    1  0.3528441E-013  0.5930181E+02  0.7816164E-02  0.1266605E+00
        -11   -1    0    0    0    0  0.00000000000E+00  0.00000000000E+00  0.45593999997E+02  0.45594000000E+02  0.51100000000E-03 0.  1.
         11   -1    0    0    0    0 -0.00000000000E+00 -0.00000000000E+00 -0.45593999997E+02  0.45594000000E+02  0.51100000000E-03 0. -1.
    9900012    2    1    2    0    0 -0.54726087481E+01 -0.19026777375E+01 -0.31355370354E+02  0.59301813663E+02  0.49999762245E+02 0.  0.
        -12    1    1    2    0    0  0.54726087481E+01  0.19026777375E+01  0.31355370354E+02  0.31886186337E+02  0.00000000000E+00 0.  1.
         11    1    3    3    0    0 -0.23199917959E+01  0.11452300830E+02 -0.16574607973E+02  0.20279427654E+02  0.51100000000E-03 0. -1.
        -11    1    3    3    0    0  0.60237644884E+01  0.70087158784E+01 -0.13871507211E+02  0.16668129752E+02  0.51100000000E-03 0.  1.
         12    1    3    3    0    0 -0.91763814407E+01 -0.20363694446E+02 -0.90925516950E+00  0.22354256257E+02  0.00000000000E+00 0. -1.
</event>
<event>
 7    1  0.3528441E-013  0.5930194E+02  0.7816164E-02  0.1266605E+00
        -11   -1    0    0    0    0  0.00000000000E+00  0.00000000000E+00  0.45593999997E+02  0.45594000000E+02  0.51100000000E-03 0.  1.
         11   -1    0    0    0    0 -0.00000000000E+00 -0.00000000000E+00 -0.45593999997E+02  0.45594000000E+02  0.51100000000E-03 0. -1.
    9900012    2    1    2    0    0 -0.31442648829E+02  0.15146177818E+01  0.50780243621E+01  0.59301944053E+02  0.50000000046E+02 0.  0.
        -12    1    1    2    0    0  0.31442648829E+02 -0.15146177818E+01 -0.50780243621E+01  0.31886055947E+02  0.00000000000E+00 0.  1.
         11    1    3    3    0    0 -0.81680754098E+01 -0.13542079646E+02  0.14023849200E+02  0.21137022583E+02  0.51100000000E-03 0. -1.
        -11    1    3    3    0    0 -0.56309351021E+01  0.89946133825E+01  0.77408378182E+01  0.13135108314E+02  0.51100000000E-03 0.  1.
         12    1    3    3    0    0 -0.17643638317E+02  0.60620840448E+01 -0.16686662656E+02  0.25029813156E+02  0.00000000000E+00 0. -1.
</event>
<event>
 7    1  0.3528441E-013  0.5930194E+02  0.7816164E-02  0.1266605E+00
        -11   -1    0    0    0    0  0.00000000000E+00  0.00000000000E+00  0.45593999997E+02  0.45594000000E+02  0.51100000000E-03 0. -1.
         11   -1    0    0    0    0 -0.00000000000E+00 -0.00000000000E+00 -0.45593999997E+02  0.45594000000E+02  0.51100000000E-03 0.  1.
    9900012    2    1    2    0    0  0.26036134575E+02  0.17637824116E+02  0.52676190858E+01  0.59301937935E+02  0.49999988888E+02 0.  0.
        -12    1    1    2    0    0 -0.26036134575E+02 -0.17637824116E+02 -0.52676190858E+01  0.31886062065E+02  0.00000000000E+00 0.  1.
         11    1    3    3    0    0  0.54972434785E+01  0.11498036225E+02  0.60554809138E+01  0.14110045083E+02  0.51100000000E-03 0. -1.
        -11    1    3    3    0    0 -0.10252980262E+02  0.84183996142E+01 -0.46886151552E+01  0.14070400444E+02  0.51100000000E-03 0.  1.
        -12    1    3    3    0    0  0.30791871359E+02 -0.22786117232E+01  0.39007533272E+01  0.31121492408E+02  0.00000000000E+00 0.  1.
</event>
<event>
 7    1  0.3528441E-013  0.5930196E+02  0.7816164E-02  0.1266605E+00
        -11   -1    0    0    0    0  0.00000000000E+00  0.00000000000E+00  0.45593999997E+02  0.45594000000E+02  0.51100000000E-03 0.  1.
         11   -1    0    0    0    0 -0.00000000000E+00 -0.00000000000E+00 -0.45593999997E+02  0.45594000000E+02  0.51100000000E-03 0. -1.
    9900012    2    1    2    0    0  0.46524735912E+01 -0.22238610070E+01 -0.31466308925E+02  0.59301958138E+02  0.50000025733E+02 0.  0.
        -12    1    1    2    0    0 -0.46524735912E+01  0.22238610070E+01  0.31466308925E+02  0.31886041862E+02  0.00000000000E+00 0.  1.
         11    1    3    3    0    0  0.16735880012E+02  0.63133332638E+00 -0.20034677453E+02  0.26112766273E+02  0.51100000000E-03 0. -1.
        -11    1    3    3    0    0  0.80926850908E+01  0.24786022521E+01 -0.87071693905E+01  0.12142891754E+02  0.51100000000E-03 0.  1.
        -12    1    3    3    0    0 -0.20176091511E+02 -0.53337965854E+01 -0.27244620812E+01  0.21046300110E+02  0.00000000000E+00 0.  1.
</event>
<event>
 7    1  0.3528441E-013  0.5930197E+02  0.7816164E-02  0.1266605E+00
        -11   -1    0    0    0    0  0.00000000000E+00  0.00000000000E+00  0.45593999997E+02  0.45594000000E+02  0.51100000000E-03 0.  1.
         11   -1    0    0    0    0 -0.00000000000E+00 -0.00000000000E+00 -0.45593999997E+02  0.45594000000E+02  0.51100000000E-03 0. -1.
    9900012    2    1    2    0    0 -0.10972683665E+02  0.17247802182E+02 -0.24471054707E+02  0.59301968805E+02  0.50000045187E+02 0.  0.
        -12    1    1    2    0    0  0.10972683665E+02 -0.17247802182E+02  0.24471054707E+02  0.31886031195E+02  0.00000000000E+00 0.  1.
         11    1    3    3    0    0 -0.55322736472E+01  0.24961566111E+02  0.43729057590E+01  0.25938545438E+02  0.51100000000E-03 0. -1.
        -11    1    3    3    0    0 -0.15020743811E+01 -0.52168204454E+01 -0.15104238523E+01  0.56349643726E+01  0.51100000000E-03 0.  1.
        -12    1    3    3    0    0 -0.39383356371E+01 -0.24969434841E+01 -0.27333536614E+02  0.27728458994E+02  0.00000000000E+00 0.  1.
</event>
<event>
 7    1  0.3528441E-013  0.5930196E+02  0.7816164E-02  0.1266605E+00
        -11   -1    0    0    0    0  0.00000000000E+00  0.00000000000E+00  0.45593999997E+02  0.45594000000E+02  0.51100000000E-03 0. -1.
         11   -1    0    0    0    0 -0.00000000000E+00 -0.00000000000E+00 -0.45593999997E+02  0.45594000000E+02  0.51100000000E-03 0.  1.
    9900012    2    1    2    0    0  0.28728008983E+02  0.16794708081E+01  0.13733183672E+02  0.59301961424E+02  0.50000031726E+02 0.  0.
        -12    1    1    2    0    0 -0.28728008983E+02 -0.16794708081E+01 -0.13733183672E+02  0.31886038576E+02  0.00000000000E+00 0.  1.
         11    1    3    3    0    0  0.57904880985E+01  0.56701612416E+01  0.22149829887E+01  0.84015850187E+01  0.51100000000E-03 0. -1.
        -11    1    3    3    0    0  0.14802636902E+02  0.19109753546E+02  0.85135839695E+00  0.24187301445E+02  0.51100000000E-03 0.  1.
         12    1    3    3    0    0  0.81348839828E+01 -0.23100443979E+02  0.10666842287E+02  0.26713074960E+02  0.00000000000E+00 0. -1.
</event>
<event>
 7    1  0.3528441E-013  0.5930196E+02  0.7816164E-02  0.1266605E+00
        -11   -1    0    0    0    0  0.00000000000E+00  0.00000000000E+00  0.45593999997E+02  0.45594000000E+02  0.51100000000E-03 0.  1.
         11   -1    0    0    0    0 -0.00000000000E+00 -0.00000000000E+00 -0.45593999997E+02  0.45594000000E+02  0.51100000000E-03 0. -1.
    9900012    2    1    2    0    0 -0.27765704376E+00  0.14870489492E+02 -0.28204800995E+02  0.59301963082E+02  0.50000034751E+02 0.  0.
        -12    1    1    2    0    0  0.27765704376E+00 -0.14870489492E+02  0.28204800995E+02  0.31886036918E+02  0.00000000000E+00 0.  1.
         11    1    3    3    0    0 -0.56714522511E+01  0.22290022555E+02 -0.20323027118E+02  0.30692603468E+02  0.51100000000E-03 0. -1.
        -11    1    3    3    0    0 -0.46936067135E+01  0.78800838562E+01 -0.23864890426E+01  0.94773939336E+01  0.51100000000E-03 0.  1.
         12    1    3    3    0    0  0.10087401921E+02 -0.15299616920E+02 -0.54952848345E+01  0.19131965681E+02  0.00000000000E+00 0. -1.
</event>
<event>
 7    1  0.3528441E-013  0.5930196E+02  0.7816164E-02  0.1266605E+00
        -11   -1    0    0    0    0  0.00000000000E+00  0.00000000000E+00  0.45593999997E+02  0.45594000000E+02  0.51100000000E-03 0. -1.
         11   -1    0    0    0    0 -0.00000000000E+00 -0.00000000000E+00 -0.45593999997E+02  0.45594000000E+02  0.51100000000E-03 0.  1.
    9900012    2    1    2    0    0  0.25826495491E+02  0.14341865681E+02  0.12000952986E+02  0.59301955198E+02  0.50000020371E+02 0.  0.
        -12    1    1    2    0    0 -0.25826495491E+02 -0.14341865681E+02 -0.12000952986E+02  0.31886044802E+02  0.00000000000E+00 0.  1.
         11    1    3    3    0    0  0.10141511750E+02 -0.11204877390E+02  0.85823816377E+01  0.17379781723E+02  0.51100000000E-03 0. -1.
        -11    1    3    3    0    0  0.10190081541E+02 -0.26338143017E+00  0.10464998533E+02  0.14609015235E+02  0.51100000000E-03 0.  1.
        -12    1    3    3    0    0  0.54949022002E+01  0.25810124501E+02 -0.70464271848E+01  0.27313158240E+02  0.00000000000E+00 0.  1.
</event>
<event>
 7    1  0.3528441E-013  0.5930194E+02  0.7816164E-02  0.1266605E+00
        -11   -1    0    0    0    0  0.00000000000E+00  0.00000000000E+00  0.45593999997E+02  0.45594000000E+02  0.51100000000E-03 0.  1.
         11   -1    0    0    0    0 -0.00000000000E+00 -0.00000000000E+00 -0.45593999997E+02  0.45594000000E+02  0.51100000000E-03 0. -1.
    9900012    2    1    2    0    0 -0.12842130051E+02 -0.22290325187E+01 -0.29100379866E+02  0.59301937236E+02  0.49999987614E+02 0.  0.
        -12    1    1    2    0    0  0.12842130051E+02  0.22290325187E+01  0.29100379866E+02  0.31886062764E+02  0.00000000000E+00 0.  1.
         11    1    3    3    0    0 -0.20614347526E+02 -0.66287152887E+01 -0.20423070246E+02  0.29765634359E+02  0.51100000000E-03 0. -1.
        -11    1    3    3    0    0 -0.63855932612E+01  0.60544083707E+01  0.47103780553E+01  0.99809480362E+01  0.51100000000E-03 0.  1.
         12    1    3    3    0    0  0.14157810736E+02 -0.16547256007E+01 -0.13387687676E+02  0.19555354841E+02  0.00000000000E+00 0. -1.
</event>
<event>
 7    1  0.3528441E-013  0.5930198E+02  0.7816164E-02  0.1266605E+00
        -11   -1    0    0    0    0  0.00000000000E+00  0.00000000000E+00  0.45593999997E+02  0.45594000000E+02  0.51100000000E-03 0.  1.
         11   -1    0    0    0    0 -0.00000000000E+00 -0.00000000000E+00 -0.45593999997E+02  0.45594000000E+02  0.51100000000E-03 0. -1.
    9900012    2    1    2    0    0  0.54521019034E+01  0.22130867585E+01 -0.31338401452E+02  0.59301975260E+02  0.50000056960E+02 0.  0.
        -12    1    1    2    0    0 -0.54521019034E+01 -0.22130867585E+01  0.31338401452E+02  0.31886024740E+02  0.00000000000E+00 0.  1.
         11    1    3    3    0    0  0.61134627621E+01 -0.24373133883E+01 -0.35106428725E+02  0.35718010325E+02  0.51100000000E-03 0. -1.
        -11    1    3    3    0    0  0.97422418798E+01 -0.30776054193E+01  0.55537286287E+00  0.10231880142E+02  0.51100000000E-03 0.  1.
        -12    1    3    3    0    0 -0.10403602739E+02  0.77280055661E+01  0.32126544099E+01  0.13352084793E+02  0.00000000000E+00 0.  1.
</event>
<event>
 7    1  0.3528441E-013  0.5930187E+02  0.7816164E-02  0.1266605E+00
        -11   -1    0    0    0    0  0.00000000000E+00  0.00000000000E+00  0.45593999997E+02  0.45594000000E+02  0.51100000000E-03 0.  1.
         11   -1    0    0    0    0 -0.00000000000E+00 -0.00000000000E+00 -0.45593999997E+02  0.45594000000E+02  0.51100000000E-03 0. -1.
    9900012    2    1    2    0    0 -0.24583725325E+02  0.76273670132E+01 -0.18819912296E+02  0.59301868575E+02  0.49999862393E+02 0.  0.
        -12    1    1    2    0    0  0.24583725325E+02 -0.76273670132E+01  0.18819912296E+02  0.31886131425E+02  0.00000000000E+00 0.  1.
         11    1    3    3    0    0  0.63926776511E+01  0.92170934330E+01  0.40689792423E+01  0.11932214012E+02  0.51100000000E-03 0.  1.
        -11    1    3    3    0    0 -0.22629596777E+01 -0.57607652817E+01 -0.16551407696E+02  0.17670780970E+02  0.51100000000E-03 0. -1.
        -12    1    3    3    0    0 -0.28713443298E+02  0.41710388620E+01 -0.63374838429E+01  0.29698873593E+02  0.00000000000E+00 0.  1.
</event>
<event>
 7    1  0.3528441E-013  0.5930205E+02  0.7816164E-02  0.1266604E+00
        -11   -1    0    0    0    0  0.00000000000E+00  0.00000000000E+00  0.45593999997E+02  0.45594000000E+02  0.51100000000E-03 0.  1.
         11   -1    0    0    0    0 -0.00000000000E+00 -0.00000000000E+00 -0.45593999997E+02  0.45594000000E+02  0.51100000000E-03 0. -1.
    9900012    2    1    2    0    0  0.13472918639E+02 -0.15828836606E+02 -0.24179379498E+02  0.59302047014E+02  0.50000187822E+02 0.  0.
        -12    1    1    2    0    0 -0.13472918639E+02  0.15828836606E+02  0.24179379498E+02  0.31885952986E+02  0.00000000000E+00 0.  1.
         11    1    3    3    0    0  0.96606993326E+01 -0.13463773463E+02 -0.47394615515E+01  0.17235567978E+02  0.51100000000E-03 0. -1.
        -11    1    3    3    0    0 -0.97831243542E+01 -0.49960826781E+01  0.64264048242E+01  0.12726705916E+02  0.51100000000E-03 0.  1.
         12    1    3    3    0    0  0.13595343660E+02  0.26310195354E+01 -0.25866322771E+02  0.29339773120E+02  0.00000000000E+00 0. -1.
</event>
<event>
 7    1  0.3528441E-013  0.5930196E+02  0.7816164E-02  0.1266605E+00
        -11   -1    0    0    0    0  0.00000000000E+00  0.00000000000E+00  0.45593999997E+02  0.45594000000E+02  0.51100000000E-03 0.  1.
         11   -1    0    0    0    0 -0.00000000000E+00 -0.00000000000E+00 -0.45593999997E+02  0.45594000000E+02  0.51100000000E-03 0. -1.
    9900012    2    1    2    0    0  0.13984139800E+02 -0.26630424995E+02 -0.10582232619E+02  0.59301963110E+02  0.50000034801E+02 0.  0.
        -12    1    1    2    0    0 -0.13984139800E+02  0.26630424995E+02  0.10582232619E+02  0.31886036890E+02  0.00000000000E+00 0.  1.
         11    1    3    3    0    0  0.73569498249E+01 -0.14987538274E+02 -0.16901729792E+02  0.23757514273E+02  0.51100000000E-03 0. -1.
        -11    1    3    3    0    0  0.13958083141E+02  0.11838068023E+01 -0.69937845713E+01  0.15657027381E+02  0.51100000000E-03 0.  1.
        -12    1    3    3    0    0 -0.73308931652E+01 -0.12826693524E+02  0.13313281745E+02  0.19887421456E+02  0.00000000000E+00 0.  1.
</event>
<event>
 7    1  0.3528441E-013  0.5930194E+02  0.7816164E-02  0.1266605E+00
        -11   -1    0    0    0    0  0.00000000000E+00  0.00000000000E+00  0.45593999997E+02  0.45594000000E+02  0.51100000000E-03 0.  1.
         11   -1    0    0    0    0 -0.00000000000E+00 -0.00000000000E+00 -0.45593999997E+02  0.45594000000E+02  0.51100000000E-03 0. -1.
    9900012    2    1    2    0    0 -0.25420844804E+02 -0.61967430384E+01 -0.18223655208E+02  0.59301943738E+02  0.49999999471E+02 0.  0.
        -12    1    1    2    0    0  0.25420844804E+02  0.61967430384E+01  0.18223655208E+02  0.31886056262E+02  0.00000000000E+00 0.  1.
         11    1    3    3    0    0  0.16060657518E+01 -0.10899931166E+02  0.13296098620E+01  0.11097558707E+02  0.51100000000E-03 0. -1.
        -11    1    3    3    0    0  0.51384853389E+01 -0.62023558775E+01  0.15723675312E+01  0.82064358843E+01  0.51100000000E-03 0.  1.
        -12    1    3    3    0    0 -0.32165395894E+02  0.10905544005E+02 -0.21125632601E+02  0.39997949146E+02  0.00000000000E+00 0.  1.
</event>
<event>
 7    1  0.3528441E-013  0.5930194E+02  0.7816164E-02  0.1266605E+00
        -11   -1    0    0    0    0  0.00000000000E+00  0.00000000000E+00  0.45593999997E+02  0.45594000000E+02  0.51100000000E-03 0. -1.
         11   -1    0    0    0    0 -0.00000000000E+00 -0.00000000000E+00 -0.45593999997E+02  0.45594000000E+02  0.51100000000E-03 0.  1.
    9900012    2    1    2    0    0  0.73945808559E+01 -0.26737458330E+01  0.30901329430E+02  0.59301938729E+02  0.49999990336E+02 0.  0.
        -12    1    1    2    0    0 -0.73945808559E+01  0.26737458330E+01 -0.30901329430E+02  0.31886061271E+02  0.00000000000E+00 0.  1.
         11    1    3    3    0    0  0.81601104329E+01  0.18278251544E+02  0.22430692969E+02  0.30063563812E+02  0.51100000000E-03 0. -1.
        -11    1    3    3    0    0  0.24595105237E+01  0.14142320624E+01  0.58343189400E+01  0.64875667317E+01  0.51100000000E-03 0.  1.
        -12    1    3    3    0    0 -0.32250401007E+01 -0.22366229439E+02  0.26363175218E+01  0.22750808185E+02  0.00000000000E+00 0.  1.
</event>
<event>
 7    1  0.3528441E-013  0.5930195E+02  0.7816164E-02  0.1266605E+00
        -11   -1    0    0    0    0  0.00000000000E+00  0.00000000000E+00  0.45593999997E+02  0.45594000000E+02  0.51100000000E-03 0.  1.
         11   -1    0    0    0    0 -0.00000000000E+00 -0.00000000000E+00 -0.45593999997E+02  0.45594000000E+02  0.51100000000E-03 0. -1.
    9900012    2    1    2    0    0  0.24278961920E+02 -0.19221599173E+02 -0.76014809118E+01  0.59301946956E+02  0.50000005341E+02 0.  0.
        -12    1    1    2    0    0 -0.24278961920E+02  0.19221599173E+02  0.76014809118E+01  0.31886053044E+02  0.00000000000E+00 0.  1.
         11    1    3    3    0    0  0.17875498190E+02 -0.17446603281E+02 -0.13245296732E+02  0.28272871934E+02  0.51100000000E-03 0. -1.
        -11    1    3    3    0    0  0.75382405973E+01  0.88873107030E+01 -0.76572388910E+01  0.13944270168E+02  0.51100000000E-03 0.  1.
        -12    1    3    3    0    0 -0.11347768680E+01 -0.10662306595E+02  0.13301054712E+02  0.17084804854E+02  0.00000000000E+00 0.  1.
</event>
<event>
 7    1  0.3528441E-013  0.5930195E+02  0.7816164E-02  0.1266605E+00
        -11   -1    0    0    0    0  0.00000000000E+00  0.00000000000E+00  0.45593999997E+02  0.45594000000E+02  0.51100000000E-03 0. -1.
         11   -1    0    0    0    0 -0.00000000000E+00 -0.00000000000E+00 -0.45593999997E+02  0.45594000000E+02  0.51100000000E-03 0.  1.
    9900012    2    1    2    0    0 -0.13347289724E+02 -0.28029627452E+02  0.72739468687E+01  0.59301945664E+02  0.50000002985E+02 0.  0.
        -12    1    1    2    0    0  0.13347289724E+02  0.28029627452E+02 -0.72739468687E+01  0.31886054336E+02  0.00000000000E+00 0.  1.
         11    1    3    3    0    0  0.28754426132E+01  0.48147433183E+01  0.32602478846E+01  0.64868436064E+01  0.51100000000E-03 0. -1.
        -11    1    3    3    0    0 -0.27942922124E+02 -0.29024909840E+02  0.40057947147E+01  0.40488253600E+02  0.51100000000E-03 0.  1.
         12    1    3    3    0    0  0.11720189786E+02 -0.38194609299E+01  0.79042694590E-02  0.12326848458E+02  0.00000000000E+00 0. -1.
</event>
<event>
 7    1  0.3528441E-013  0.5930194E+02  0.7816164E-02  0.1266605E+00
        -11   -1    0    0    0    0  0.00000000000E+00  0.00000000000E+00  0.45593999997E+02  0.45594000000E+02  0.51100000000E-03 0. -1.
         11   -1    0    0    0    0 -0.00000000000E+00 -0.00000000000E+00 -0.45593999997E+02  0.45594000000E+02  0.51100000000E-03 0.  1.
    9900012    2    1    2    0    0 -0.31404100715E+01  0.17203700933E+02  0.26662546498E+02  0.59301938987E+02  0.49999990806E+02 0.  0.
        -12    1    1    2    0    0  0.31404100715E+01 -0.17203700933E+02 -0.26662546498E+02  0.31886061013E+02  0.00000000000E+00 0.  1.
         11    1    3    3    0    0  0.11468654552E+02 -0.51458670560E+00  0.78355422373E+01  0.13899300670E+02  0.51100000000E-03 0. -1.
        -11    1    3    3    0    0  0.71743517919E+01 -0.57352013778E+01  0.27807154448E+01  0.95966784423E+01  0.51100000000E-03 0.  1.
        -12    1    3    3    0    0 -0.21783416415E+02  0.23453489017E+02  0.16046288816E+02  0.35805959874E+02  0.00000000000E+00 0.  1.
</event>
<event>
 7    1  0.3528441E-013  0.5930195E+02  0.7816164E-02  0.1266605E+00
        -11   -1    0    0    0    0  0.00000000000E+00  0.00000000000E+00  0.45593999997E+02  0.45594000000E+02  0.51100000000E-03 0.  1.
         11   -1    0    0    0    0 -0.00000000000E+00 -0.00000000000E+00 -0.45593999997E+02  0.45594000000E+02  0.51100000000E-03 0. -1.
    9900012    2    1    2    0    0  0.91629096171E+01  0.98691914504E+01 -0.28902600356E+02  0.59301950388E+02  0.50000011600E+02 0.  0.
        -12    1    1    2    0    0 -0.91629096171E+01 -0.98691914504E+01  0.28902600356E+02  0.31886049612E+02  0.00000000000E+00 0.  1.
         11    1    3    3    0    0  0.55067381405E+01 -0.11221233873E+01  0.58752065128E+01  0.81302753750E+01  0.51100000000E-03 0. -1.
        -11    1    3    3    0    0  0.67666183341E+01  0.85634061244E+01  0.44204091806E+01  0.11775358411E+02  0.51100000000E-03 0.  1.
         12    1    3    3    0    0 -0.31104468575E+01  0.24279087133E+01 -0.39198216049E+02  0.39396316602E+02  0.00000000000E+00 0. -1.
</event>
<event>
 7    1  0.3528441E-013  0.5930187E+02  0.7816164E-02  0.1266605E+00
        -11   -1    0    0    0    0  0.00000000000E+00  0.00000000000E+00  0.45593999997E+02  0.45594000000E+02  0.51100000000E-03 0. -1.
         11   -1    0    0    0    0 -0.00000000000E+00 -0.00000000000E+00 -0.45593999997E+02  0.45594000000E+02  0.51100000000E-03 0.  1.
    9900012    2    1    2    0    0 -0.12645490595E+02 -0.80739021080E+01  0.28135895950E+02  0.59301874984E+02  0.49999874080E+02 0.  0.
        -12    1    1    2    0    0  0.12645490595E+02  0.80739021080E+01 -0.28135895950E+02  0.31886125016E+02  0.00000000000E+00 0.  1.
         11    1    3    3    0    0  0.31931060361E+01 -0.84045511588E+00 -0.86707983023E+01  0.92782021114E+01  0.51100000000E-03 0. -1.
        -11    1    3    3    0    0  0.14096880420E+01 -0.11840607600E+02  0.27315079359E+02  0.29804375004E+02  0.51100000000E-03 0.  1.
         12    1    3    3    0    0 -0.17248284673E+02  0.46071606076E+01  0.94916148933E+01  0.20219297869E+02  0.00000000000E+00 0. -1.
</event>
<event>
 7    1  0.3528441E-013  0.5930194E+02  0.7816164E-02  0.1266605E+00
        -11   -1    0    0    0    0  0.00000000000E+00  0.00000000000E+00  0.45593999997E+02  0.45594000000E+02  0.51100000000E-03 0.  1.
         11   -1    0    0    0    0 -0.00000000000E+00 -0.00000000000E+00 -0.45593999997E+02  0.45594000000E+02  0.51100000000E-03 0. -1.
    9900012    2    1    2    0    0 -0.15405436744E+02 -0.26013188309E+02 -0.10134472872E+02  0.59301937408E+02  0.49999987927E+02 0.  0.
        -12    1    1    2    0    0  0.15405436744E+02  0.26013188309E+02  0.10134472872E+02  0.31886062592E+02  0.00000000000E+00 0.  1.
         11    1    3    3    0    0 -0.29721804231E+01 -0.15985471511E+02 -0.11460335534E+02  0.19892421841E+02  0.51100000000E-03 0. -1.
        -11    1    3    3    0    0 -0.18610188631E+02  0.59293359480E+01 -0.65120697321E+01  0.20588909590E+02  0.51100000000E-03 0.  1.
         12    1    3    3    0    0  0.61769323100E+01 -0.15957052746E+02  0.78379323946E+01  0.18820605977E+02  0.00000000000E+00 0. -1.
</event>
<event>
 7    1  0.3528441E-013  0.5930196E+02  0.7816164E-02  0.1266605E+00
        -11   -1    0    0    0    0  0.00000000000E+00  0.00000000000E+00  0.45593999997E+02  0.45594000000E+02  0.51100000000E-03 0.  1.
         11   -1    0    0    0    0 -0.00000000000E+00 -0.00000000000E+00 -0.45593999997E+02  0.45594000000E+02  0.51100000000E-03 0. -1.
    9900012    2    1    2    0    0 -0.12316955662E+02  0.24571307762E+02 -0.16163628723E+02  0.59301961435E+02  0.50000031746E+02 0.  0.
        -12    1    1    2    0    0  0.12316955662E+02 -0.24571307762E+02  0.16163628723E+02  0.31886038565E+02  0.00000000000E+00 0.  1.
         11    1    3    3    0    0 -0.71195789944E+01  0.14617441663E+02 -0.79217121216E+01  0.18086224842E+02  0.51100000000E-03 0.  1.
        -11    1    3    3    0    0 -0.67495596883E+01  0.17913593617E+02 -0.19509854349E+02  0.27332907076E+02  0.51100000000E-03 0. -1.
        -12    1    3    3    0    0  0.15521830208E+01 -0.79597275182E+01  0.11267937748E+02  0.13882829516E+02  0.00000000000E+00 0.  1.
</event>
<event>
 7    1  0.3528441E-013  0.5930206E+02  0.7816164E-02  0.1266604E+00
        -11   -1    0    0    0    0  0.00000000000E+00  0.00000000000E+00  0.45593999997E+02  0.45594000000E+02  0.51100000000E-03 0.  1.
         11   -1    0    0    0    0 -0.00000000000E+00 -0.00000000000E+00 -0.45593999997E+02  0.45594000000E+02  0.51100000000E-03 0. -1.
    9900012    2    1    2    0    0  0.10500328569E+02  0.18510791549E+02 -0.23744621761E+02  0.59302056916E+02  0.50000205880E+02 0.  0.
        -12    1    1    2    0    0 -0.10500328569E+02 -0.18510791549E+02  0.23744621761E+02  0.31885943084E+02  0.00000000000E+00 0.  1.
         11    1    3    3    0    0  0.21380535973E+01  0.14411455252E+02  0.25598757998E+01  0.14792372360E+02  0.51100000000E-03 0. -1.
        -11    1    3    3    0    0  0.19981727559E+02  0.90079241895E+01 -0.10542584228E+02  0.24321969840E+02  0.51100000000E-03 0.  1.
         12    1    3    3    0    0 -0.11619452587E+02 -0.49085878927E+01 -0.15761913332E+02  0.20187714715E+02  0.00000000000E+00 0. -1.
</event>
<event>
 7    1  0.3528441E-013  0.5930194E+02  0.7816164E-02  0.1266605E+00
        -11   -1    0    0    0    0  0.00000000000E+00  0.00000000000E+00  0.45593999997E+02  0.45594000000E+02  0.51100000000E-03 0. -1.
         11   -1    0    0    0    0 -0.00000000000E+00 -0.00000000000E+00 -0.45593999997E+02  0.45594000000E+02  0.51100000000E-03 0.  1.
    9900012    2    1    2    0    0  0.66599127271E+01 -0.14100681306E+02  0.27812533467E+02  0.59301942409E+02  0.49999997048E+02 0.  0.
        -12    1    1    2    0    0 -0.66599127271E+01  0.14100681306E+02 -0.27812533467E+02  0.31886057591E+02  0.00000000000E+00 0.  1.
         11    1    3    3    0    0  0.19131748651E+01 -0.14267614220E+02  0.21095905920E+01  0.14549069603E+02  0.51100000000E-03 0. -1.
        -11    1    3    3    0    0 -0.32541936347E+01 -0.91081372328E+01 -0.55737500743E+01  0.11163092323E+02  0.51100000000E-03 0.  1.
         12    1    3    3    0    0  0.80009314967E+01  0.92750701465E+01  0.31276692949E+02  0.33589780483E+02  0.00000000000E+00 0. -1.
</event>
<event>
 7    1  0.3528441E-013  0.5930195E+02  0.7816164E-02  0.1266605E+00
        -11   -1    0    0    0    0  0.00000000000E+00  0.00000000000E+00  0.45593999997E+02  0.45594000000E+02  0.51100000000E-03 0.  1.
         11   -1    0    0    0    0 -0.00000000000E+00 -0.00000000000E+00 -0.45593999997E+02  0.45594000000E+02  0.51100000000E-03 0. -1.
    9900012    2    1    2    0    0 -0.36842071648E+01  0.31625275926E+02  0.17288544882E+01  0.59301946658E+02  0.50000004798E+02 0.  0.
        -12    1    1    2    0    0  0.36842071648E+01 -0.31625275926E+02 -0.17288544882E+01  0.31886053342E+02  0.00000000000E+00 0.  1.
         11    1    3    3    0    0 -0.68167841527E+01  0.13886225845E+02 -0.12648042672E+02  0.19981711590E+02  0.51100000000E-03 0. -1.
        -11    1    3    3    0    0 -0.46571331693E+01  0.68052720547E+01 -0.90971918383E+01  0.12278416702E+02  0.51100000000E-03 0.  1.
        -12    1    3    3    0    0  0.77897101572E+01  0.10933778027E+02  0.23474088998E+02  0.27041818367E+02  0.00000000000E+00 0.  1.
</event>
<event>
 7    1  0.3528441E-013  0.5930195E+02  0.7816164E-02  0.1266605E+00
        -11   -1    0    0    0    0  0.00000000000E+00  0.00000000000E+00  0.45593999997E+02  0.45594000000E+02  0.51100000000E-03 0.  1.
         11   -1    0    0    0    0 -0.00000000000E+00 -0.00000000000E+00 -0.45593999997E+02  0.45594000000E+02  0.51100000000E-03 0. -1.
    9900012    2    1    2    0    0 -0.54783874238E+01 -0.49472031772E+01 -0.31019877542E+02  0.59301947394E+02  0.50000006139E+02 0.  0.
        -12    1    1    2    0    0  0.54783874238E+01  0.49472031772E+01  0.31019877542E+02  0.31886052606E+02  0.00000000000E+00 0.  1.
         11    1    3    3    0    0  0.44011337564E+01 -0.17419402580E+02 -0.10846912093E+02  0.20987164335E+02  0.51100000000E-03 0. -1.
        -11    1    3    3    0    0  0.23370974880E+01  0.83844376097E+01 -0.23457490376E+02  0.25020285244E+02  0.51100000000E-03 0.  1.
        -12    1    3    3    0    0 -0.12216618668E+02  0.40877617931E+01  0.32845249270E+01  0.13294497815E+02  0.00000000000E+00 0.  1.
</event>
<event>
 7    1  0.3528441E-013  0.5930192E+02  0.7816164E-02  0.1266605E+00
        -11   -1    0    0    0    0  0.00000000000E+00  0.00000000000E+00  0.45593999997E+02  0.45594000000E+02  0.51100000000E-03 0. -1.
         11   -1    0    0    0    0 -0.00000000000E+00 -0.00000000000E+00 -0.45593999997E+02  0.45594000000E+02  0.51100000000E-03 0.  1.
    9900012    2    1    2    0    0 -0.30713749365E+02  0.53273450456E+01 -0.67087376666E+01  0.59301918924E+02  0.49999954217E+02 0.  0.
        -12    1    1    2    0    0  0.30713749365E+02 -0.53273450456E+01  0.67087376666E+01  0.31886081076E+02  0.00000000000E+00 0.  1.
         11    1    3    3    0    0  0.59239110551E+01  0.46190820072E+01 -0.20678916598E+01  0.77913296013E+01  0.51100000000E-03 0. -1.
        -11    1    3    3    0    0 -0.36321355757E+02 -0.10496268157E+02  0.30289556055E+01  0.37928710781E+02  0.51100000000E-03 0.  1.
         12    1    3    3    0    0 -0.31630466389E+00  0.11204531195E+02 -0.76698016122E+01  0.13581878541E+02  0.00000000000E+00 0. -1.
</event>
<event>
 7    1  0.3528441E-013  0.5930195E+02  0.7816164E-02  0.1266605E+00
        -11   -1    0    0    0    0  0.00000000000E+00  0.00000000000E+00  0.45593999997E+02  0.45594000000E+02  0.51100000000E-03 0. -1.
         11   -1    0    0    0    0 -0.00000000000E+00 -0.00000000000E+00 -0.45593999997E+02  0.45594000000E+02  0.51100000000E-03 0.  1.
    9900012    2    1    2    0    0 -0.27194731883E+02 -0.16080414245E+02  0.43112811746E+01  0.59301948036E+02  0.50000007310E+02 0.  0.
        -12    1    1    2    0    0  0.27194731883E+02  0.16080414245E+02 -0.43112811746E+01  0.31886051964E+02  0.00000000000E+00 0.  1.
         11    1    3    3    0    0 -0.12972140503E+02 -0.20396412308E+02  0.17442527893E+02  0.29808251271E+02  0.51100000000E-03 0. -1.
        -11    1    3    3    0    0 -0.46595280583E+00 -0.36144531853E+01 -0.13118046058E+02  0.13614863807E+02  0.51100000000E-03 0.  1.
        -12    1    3    3    0    0 -0.13756638574E+02  0.79304512484E+01 -0.13200660854E-01  0.15878832958E+02  0.00000000000E+00 0.  1.
</event>
<event>
 7    1  0.3528441E-013  0.5930195E+02  0.7816164E-02  0.1266605E+00
        -11   -1    0    0    0    0  0.00000000000E+00  0.00000000000E+00  0.45593999997E+02  0.45594000000E+02  0.51100000000E-03 0.  1.
         11   -1    0    0    0    0 -0.00000000000E+00 -0.00000000000E+00 -0.45593999997E+02  0.45594000000E+02  0.51100000000E-03 0. -1.
    9900012    2    1    2    0    0 -0.15473264875E+02  0.25153670184E+02 -0.12024597584E+02  0.59301952947E+02  0.50000016266E+02 0.  0.
        -12    1    1    2    0    0  0.15473264875E+02 -0.25153670184E+02  0.12024597584E+02  0.31886047053E+02  0.00000000000E+00 0.  1.
         11    1    3    3    0    0  0.56111420180E+01  0.19739400265E+01 -0.14339353976E+02  0.15524124023E+02  0.51100000000E-03 0. -1.
        -11    1    3    3    0    0  0.63500373176E+01  0.41397709656E+00 -0.40794514780E+01  0.75588541191E+01  0.51100000000E-03 0.  1.
         12    1    3    3    0    0 -0.27434444211E+02  0.22765753061E+02  0.63942078700E+01  0.36218974804E+02  0.00000000000E+00 0. -1.
</event>
<event>
 7    1  0.3528441E-013  0.5930198E+02  0.7816164E-02  0.1266605E+00
        -11   -1    0    0    0    0  0.00000000000E+00  0.00000000000E+00  0.45593999997E+02  0.45594000000E+02  0.51100000000E-03 0. -1.
         11   -1    0    0    0    0 -0.00000000000E+00 -0.00000000000E+00 -0.45593999997E+02  0.45594000000E+02  0.51100000000E-03 0.  1.
    9900012    2    1    2    0    0 -0.15683737822E+02  0.27445947334E+02  0.41783721906E+01  0.59301977180E+02  0.50000060461E+02 0.  0.
        -12    1    1    2    0    0  0.15683737822E+02 -0.27445947334E+02 -0.41783721906E+01  0.31886022820E+02  0.00000000000E+00 0.  1.
         11    1    3    3    0    0 -0.14288249473E+02  0.53945457022E+01  0.10491316290E+02  0.18528974988E+02  0.51100000000E-03 0. -1.
        -11    1    3    3    0    0  0.81115967933E+01 -0.40430157702E+00  0.88863798083E+01  0.12038654770E+02  0.51100000000E-03 0.  1.
        -12    1    3    3    0    0 -0.95070851418E+01  0.22455703209E+02 -0.15199323908E+02  0.28734347422E+02  0.00000000000E+00 0.  1.
</event>
<event>
 7    1  0.3528441E-013  0.5930194E+02  0.7816164E-02  0.1266605E+00
        -11   -1    0    0    0    0  0.00000000000E+00  0.00000000000E+00  0.45593999997E+02  0.45594000000E+02  0.51100000000E-03 0.  1.
         11   -1    0    0    0    0 -0.00000000000E+00 -0.00000000000E+00 -0.45593999997E+02  0.45594000000E+02  0.51100000000E-03 0. -1.
    9900012    2    1    2    0    0 -0.95988323317E+01 -0.62773784502E+01 -0.29751939591E+02  0.59301937656E+02  0.49999988380E+02 0.  0.
        -12    1    1    2    0    0  0.95988323317E+01  0.62773784502E+01  0.29751939591E+02  0.31886062344E+02  0.00000000000E+00 0.  1.
         11    1    3    3    0    0  0.12343481659E+01  0.76830679921E+01 -0.10120174737E+02  0.12766012930E+02  0.51100000000E-03 0. -1.
        -11    1    3    3    0    0  0.10714383682E+02  0.57052483111E+01 -0.10263253676E+02  0.15895982267E+02  0.51100000000E-03 0.  1.
        -12    1    3    3    0    0 -0.21547564179E+02 -0.19665694753E+02 -0.93685111788E+01  0.30639942459E+02  0.00000000000E+00 0.  1.
</event>
<event>
 7    1  0.3528441E-013  0.5930193E+02  0.7816164E-02  0.1266605E+00
        -11   -1    0    0    0    0  0.00000000000E+00  0.00000000000E+00  0.45593999997E+02  0.45594000000E+02  0.51100000000E-03 0.  1.
         11   -1    0    0    0    0 -0.00000000000E+00 -0.00000000000E+00 -0.45593999997E+02  0.45594000000E+02  0.51100000000E-03 0. -1.
    9900012    2    1    2    0    0  0.11227322852E+02  0.18401805092E+02 -0.23495584270E+02  0.59301926406E+02  0.49999967862E+02 0.  0.
        -12    1    1    2    0    0 -0.11227322852E+02 -0.18401805092E+02  0.23495584270E+02  0.31886073594E+02  0.00000000000E+00 0.  1.
         11    1    3    3    0    0 -0.64790776356E+01 -0.22769453826E+01  0.24110659839E+00  0.68717581401E+01  0.51100000000E-03 0.  1.
        -11    1    3    3    0    0  0.15422257104E+02 -0.42488820374E+01  0.24733880816E+01  0.16186928727E+02  0.51100000000E-03 0. -1.
        -12    1    3    3    0    0  0.22841433832E+01  0.24927632512E+02 -0.26210078950E+02  0.36243239538E+02  0.00000000000E+00 0.  1.
</event>
<event>
 7    1  0.4523962E-013  0.5930194E+02  0.7816164E-02  0.1266605E+00
        -11   -1    0    0    0    0  0.00000000000E+00  0.00000000000E+00  0.45593999997E+02  0.45594000000E+02  0.51100000000E-03 0. -1.
         11   -1    0    0    0    0 -0.00000000000E+00 -0.00000000000E+00 -0.45593999997E+02  0.45594000000E+02  0.51100000000E-03 0.  1.
    9900012    2    1    2    0    0 -0.16892561068E+02 -0.10034762069E+00  0.27043517201E+02  0.59301944872E+02  0.50000001539E+02 0.  0.
        -12    1    1    2    0    0  0.16892561068E+02  0.10034762069E+00 -0.27043517201E+02  0.31886055128E+02  0.00000000000E+00 0.  1.
         11    1    3    3    0    0 -0.60541785447E+00 -0.81502558860E+01  0.34568443134E+02  0.35521408513E+02  0.51100000000E-03 0. -1.
        -11    1    3    3    0    0 -0.14621853438E+02  0.23629653856E+01 -0.82276076505E+00  0.14834390412E+02  0.51100000000E-03 0.  1.
        -12    1    3    3    0    0 -0.16652897752E+01  0.56869428797E+01 -0.67021651680E+01  0.89461459462E+01  0.00000000000E+00 0.  1.
</event>
<event>
 7    1  0.3528441E-013  0.5930194E+02  0.7816164E-02  0.1266605E+00
        -11   -1    0    0    0    0  0.00000000000E+00  0.00000000000E+00  0.45593999997E+02  0.45594000000E+02  0.51100000000E-03 0.  1.
         11   -1    0    0    0    0 -0.00000000000E+00 -0.00000000000E+00 -0.45593999997E+02  0.45594000000E+02  0.51100000000E-03 0. -1.
    9900012    2    1    2    0    0  0.31498065061E+02 -0.45040943707E+01  0.20750565261E+01  0.59301939906E+02  0.49999992484E+02 0.  0.
        -12    1    1    2    0    0 -0.31498065061E+02  0.45040943707E+01 -0.20750565261E+01  0.31886060094E+02  0.00000000000E+00 0.  1.
         11    1    3    3    0    0  0.11834420197E+02  0.15325292111E+02 -0.14514844716E+02  0.24199148685E+02  0.51100000000E-03 0.  1.
        -11    1    3    3    0    0  0.26724057376E+01 -0.14590398601E+01 -0.22451099721E+01  0.37829973285E+01  0.51100000000E-03 0. -1.
        -12    1    3    3    0    0  0.16991239127E+02 -0.18370346622E+02  0.18835011214E+02  0.31319793893E+02  0.00000000000E+00 0.  1.
</event>
<event>
 7    1  0.3528441E-013  0.5930198E+02  0.7816164E-02  0.1266605E+00
        -11   -1    0    0    0    0  0.00000000000E+00  0.00000000000E+00  0.45593999997E+02  0.45594000000E+02  0.51100000000E-03 0. -1.
         11   -1    0    0    0    0 -0.00000000000E+00 -0.00000000000E+00 -0.45593999997E+02  0.45594000000E+02  0.51100000000E-03 0.  1.
    9900012    2    1    2    0    0  0.23984222375E+02  0.10725188546E+02  0.18067807731E+02  0.59301980046E+02  0.50000065689E+02 0.  0.
        -12    1    1    2    0    0 -0.23984222375E+02 -0.10725188546E+02 -0.18067807731E+02  0.31886019954E+02  0.00000000000E+00 0.  1.
         11    1    3    3    0    0  0.13818516836E+01  0.14910872081E+02  0.20782402582E+02  0.25615461690E+02  0.51100000000E-03 0. -1.
        -11    1    3    3    0    0  0.45621953338E+01  0.74465853876E+01 -0.77079905796E+01  0.11648106251E+02  0.51100000000E-03 0.  1.
         12    1    3    3    0    0  0.18040175357E+02 -0.11632268922E+02  0.49933957289E+01  0.22038412105E+02  0.00000000000E+00 0. -1.
</event>
<event>
 7    1  0.3528441E-013  0.5930191E+02  0.7816164E-02  0.1266605E+00
        -11   -1    0    0    0    0  0.00000000000E+00  0.00000000000E+00  0.45593999997E+02  0.45594000000E+02  0.51100000000E-03 0. -1.
         11   -1    0    0    0    0 -0.00000000000E+00 -0.00000000000E+00 -0.45593999997E+02  0.45594000000E+02  0.51100000000E-03 0.  1.
    9900012    2    1    2    0    0  0.27369555690E+02 -0.16304204659E+02  0.13427633482E+01  0.59301910844E+02  0.49999939481E+02 0.  0.
        -12    1    1    2    0    0 -0.27369555690E+02  0.16304204659E+02 -0.13427633482E+01  0.31886089156E+02  0.00000000000E+00 0.  1.
         11    1    3    3    0    0  0.41630150199E+02 -0.14751651099E+02 -0.27912415989E+00  0.44167392116E+02  0.51100000000E-03 0.  1.
        -11    1    3    3    0    0 -0.23946198589E+01 -0.12121790115E+01  0.18529029589E+01  0.32614156222E+01  0.51100000000E-03 0. -1.
        -12    1    3    3    0    0 -0.11865974650E+02 -0.34037454842E+00 -0.23101545079E+00  0.11873103106E+02  0.00000000000E+00 0.  1.
</event>
<event>
 7    1  0.3528441E-013  0.5930196E+02  0.7816164E-02  0.1266605E+00
        -11   -1    0    0    0    0  0.00000000000E+00  0.00000000000E+00  0.45593999997E+02  0.45594000000E+02  0.51100000000E-03 0.  1.
         11   -1    0    0    0    0 -0.00000000000E+00 -0.00000000000E+00 -0.45593999997E+02  0.45594000000E+02  0.51100000000E-03 0. -1.
    9900012    2    1    2    0    0  0.30660784449E+02 -0.24412767894E+01 -0.84069145742E+01  0.59301956846E+02  0.50000023377E+02 0.  0.
        -12    1    1    2    0    0 -0.30660784449E+02  0.24412767894E+01  0.84069145742E+01  0.31886043154E+02  0.00000000000E+00 0.  1.
         11    1    3    3    0    0  0.21846433546E+01 -0.17993478950E+02  0.18948656854E+01  0.18224392103E+02  0.51100000000E-03 0. -1.
        -11    1    3    3    0    0 -0.65398109143E-02 -0.44039541946E+01  0.98711701585E+00  0.45132311686E+01  0.51100000000E-03 0.  1.
         12    1    3    3    0    0  0.28482680905E+02  0.19956156355E+02 -0.11288897275E+02  0.36564333574E+02  0.00000000000E+00 0. -1.
</event>
<event>
 7    1  0.3528441E-013  0.5930199E+02  0.7816164E-02  0.1266605E+00
        -11   -1    0    0    0    0  0.00000000000E+00  0.00000000000E+00  0.45593999997E+02  0.45594000000E+02  0.51100000000E-03 0.  1.
         11   -1    0    0    0    0 -0.00000000000E+00 -0.00000000000E+00 -0.45593999997E+02  0.45594000000E+02  0.51100000000E-03 0. -1.
    9900012    2    1    2    0    0  0.57829697373E+01  0.69854391279E+01 -0.30569240729E+02  0.59301990881E+02  0.50000085449E+02 0.  0.
        -12    1    1    2    0    0 -0.57829697373E+01 -0.69854391279E+01  0.30569240729E+02  0.31886009119E+02  0.00000000000E+00 0.  1.
         11    1    3    3    0    0  0.10834118806E+02  0.12975815533E+01  0.14699314940E+01  0.11010111128E+02  0.51100000000E-03 0. -1.
        -11    1    3    3    0    0  0.62091961652E+01  0.47250002351E+01  0.51993560495E+01  0.93761958080E+01  0.51100000000E-03 0.  1.
         12    1    3    3    0    0 -0.11260345234E+02  0.96285733954E+00 -0.37238528273E+02  0.38915683945E+02  0.00000000000E+00 0. -1.
</event>
<event>
 7    1  0.3528441E-013  0.5930224E+02  0.7816164E-02  0.1266604E+00
        -11   -1    0    0    0    0  0.00000000000E+00  0.00000000000E+00  0.45593999997E+02  0.45594000000E+02  0.51100000000E-03 0.  1.
         11   -1    0    0    0    0 -0.00000000000E+00 -0.00000000000E+00 -0.45593999997E+02  0.45594000000E+02  0.51100000000E-03 0. -1.
    9900012    2    1    2    0    0  0.17028631012E+02 -0.90747916724E+00 -0.26942607478E+02  0.59302236871E+02  0.50000534074E+02 0.  0.
        -12    1    1    2    0    0 -0.17028631012E+02  0.90747916724E+00  0.26942607478E+02  0.31885763129E+02  0.00000000000E+00 0.  1.
         11    1    3    3    0    0  0.72980507847E+01 -0.38544576857E+01 -0.21465002406E+02  0.22997058896E+02  0.51100000000E-03 0. -1.
        -11    1    3    3    0    0  0.82712421306E+01  0.17599295488E+02 -0.85838127683E+01  0.21256304711E+02  0.51100000000E-03 0.  1.
        -12    1    3    3    0    0  0.14593380966E+01 -0.14652316970E+02  0.31062076966E+01  0.15048873264E+02  0.00000000000E+00 0.  1.
</event>
<event>
 7    1  0.3528441E-013  0.5930195E+02  0.7816164E-02  0.1266605E+00
        -11   -1    0    0    0    0  0.00000000000E+00  0.00000000000E+00  0.45593999997E+02  0.45594000000E+02  0.51100000000E-03 0.  1.
         11   -1    0    0    0    0 -0.00000000000E+00 -0.00000000000E+00 -0.45593999997E+02  0.45594000000E+02  0.51100000000E-03 0. -1.
    9900012    2    1    2    0    0 -0.60785256378E+01 -0.19932127370E+02 -0.24134666746E+02  0.59301947965E+02  0.50000007181E+02 0.  0.
        -12    1    1    2    0    0  0.60785256378E+01  0.19932127370E+02  0.24134666746E+02  0.31886052035E+02  0.00000000000E+00 0.  1.
         11    1    3    3    0    0  0.12963347577E+02 -0.89082592082E+01 -0.14790075670E+02  0.21590548884E+02  0.51100000000E-03 0. -1.
        -11    1    3    3    0    0  0.61846375723E+00  0.45604181349E+01 -0.11641975529E+02  0.12518606371E+02  0.51100000000E-03 0.  1.
        -12    1    3    3    0    0 -0.19660336972E+02 -0.15584286297E+02  0.22973844528E+01  0.25192792710E+02  0.00000000000E+00 0.  1.
</event>
<event>
 7    1  0.3528441E-013  0.5930193E+02  0.7816164E-02  0.1266605E+00
        -11   -1    0    0    0    0  0.00000000000E+00  0.00000000000E+00  0.45593999997E+02  0.45594000000E+02  0.51100000000E-03 0.  1.
         11   -1    0    0    0    0 -0.00000000000E+00 -0.00000000000E+00 -0.45593999997E+02  0.45594000000E+02  0.51100000000E-03 0. -1.
    9900012    2    1    2    0    0 -0.32492582612E+01 -0.19776454241E+02 -0.24800311767E+02  0.59301932739E+02  0.49999979412E+02 0.  0.
        -12    1    1    2    0    0  0.32492582612E+01  0.19776454241E+02  0.24800311767E+02  0.31886067261E+02  0.00000000000E+00 0.  1.
         11    1    3    3    0    0 -0.77750899905E+00  0.47484695208E+01 -0.12821321848E+02  0.13694479808E+02  0.51100000000E-03 0. -1.
        -11    1    3    3    0    0  0.76514966070E+01 -0.25308022313E+02 -0.19600024495E+02  0.32912039654E+02  0.51100000000E-03 0.  1.
         12    1    3    3    0    0 -0.10123245869E+02  0.78309855104E+00  0.76210345751E+01  0.12695413277E+02  0.00000000000E+00 0. -1.
</event>
<event>
 7    1  0.3528441E-013  0.5930192E+02  0.7816164E-02  0.1266605E+00
        -11   -1    0    0    0    0  0.00000000000E+00  0.00000000000E+00  0.45593999997E+02  0.45594000000E+02  0.51100000000E-03 0.  1.
         11   -1    0    0    0    0 -0.00000000000E+00 -0.00000000000E+00 -0.45593999997E+02  0.45594000000E+02  0.51100000000E-03 0. -1.
    9900012    2    1    2    0    0 -0.67257939724E+01  0.28451566195E+02 -0.12727685918E+02  0.59301922908E+02  0.49999961483E+02 0.  0.
        -12    1    1    2    0    0  0.67257939724E+01 -0.28451566195E+02  0.12727685918E+02  0.31886077092E+02  0.00000000000E+00 0.  1.
         11    1    3    3    0    0 -0.10606271545E+02  0.13946647535E+02 -0.29719718268E+01  0.17771735716E+02  0.51100000000E-03 0. -1.
        -11    1    3    3    0    0 -0.18177988549E+01  0.90847470322E+01  0.13842012343E+02  0.16656480039E+02  0.51100000000E-03 0.  1.
        -12    1    3    3    0    0  0.56982764273E+01  0.54201716276E+01 -0.23597726434E+02  0.24873707154E+02  0.00000000000E+00 0.  1.
</event>
<event>
 7    1  0.3528441E-013  0.5930194E+02  0.7816164E-02  0.1266605E+00
        -11   -1    0    0    0    0  0.00000000000E+00  0.00000000000E+00  0.45593999997E+02  0.45594000000E+02  0.51100000000E-03 0.  1.
         11   -1    0    0    0    0 -0.00000000000E+00 -0.00000000000E+00 -0.45593999997E+02  0.45594000000E+02  0.51100000000E-03 0. -1.
    9900012    2    1    2    0    0 -0.29492717628E+02  0.12110533127E+02 -0.48547795207E+00  0.59301935731E+02  0.49999984869E+02 0.  0.
        -12    1    1    2    0    0  0.29492717628E+02 -0.12110533127E+02  0.48547795207E+00  0.31886064269E+02  0.00000000000E+00 0.  1.
         11    1    3    3    0    0 -0.19296205543E+02  0.11489731872E+02 -0.16921798475E+00  0.22458542291E+02  0.51100000000E-03 0. -1.
        -11    1    3    3    0    0 -0.66728262245E+00  0.14059909457E+02  0.10124644033E+02  0.17338821675E+02  0.51100000000E-03 0.  1.
         12    1    3    3    0    0 -0.95292294625E+01 -0.13439108202E+02 -0.10440904000E+02  0.19504571765E+02  0.00000000000E+00 0. -1.
</event>
<event>
 7    1  0.3528441E-013  0.5930194E+02  0.7816164E-02  0.1266605E+00
        -11   -1    0    0    0    0  0.00000000000E+00  0.00000000000E+00  0.45593999997E+02  0.45594000000E+02  0.51100000000E-03 0.  1.
         11   -1    0    0    0    0 -0.00000000000E+00 -0.00000000000E+00 -0.45593999997E+02  0.45594000000E+02  0.51100000000E-03 0. -1.
    9900012    2    1    2    0    0 -0.15778299322E+02  0.21141817402E+02 -0.17910602464E+02  0.59301939516E+02  0.49999991772E+02 0.  0.
        -12    1    1    2    0    0  0.15778299322E+02 -0.21141817402E+02  0.17910602464E+02  0.31886060484E+02  0.00000000000E+00 0.  1.
         11    1    3    3    0    0 -0.52495857428E+01  0.26094115902E+02 -0.10849518221E+02  0.28743226699E+02  0.51100000000E-03 0. -1.
        -11    1    3    3    0    0  0.39104436826E+01  0.86188405758E+01 -0.48067270036E+01  0.10615112219E+02  0.51100000000E-03 0.  1.
        -12    1    3    3    0    0 -0.14439157262E+02 -0.13571139076E+02 -0.22543572396E+01  0.19943600598E+02  0.00000000000E+00 0.  1.
</event>
<event>
 7    1  0.3528441E-013  0.5930193E+02  0.7816164E-02  0.1266605E+00
        -11   -1    0    0    0    0  0.00000000000E+00  0.00000000000E+00  0.45593999997E+02  0.45594000000E+02  0.51100000000E-03 0.  1.
         11   -1    0    0    0    0 -0.00000000000E+00 -0.00000000000E+00 -0.45593999997E+02  0.45594000000E+02  0.51100000000E-03 0. -1.
    9900012    2    1    2    0    0 -0.24597422543E+02  0.17999686919E+02 -0.93648083947E+01  0.59301928414E+02  0.49999971524E+02 0.  0.
        -12    1    1    2    0    0  0.24597422543E+02 -0.17999686919E+02  0.93648083947E+01  0.31886071586E+02  0.00000000000E+00 0.  1.
         11    1    3    3    0    0  0.10771091046E+01  0.19530752162E+02  0.15185277619E+01  0.19619285687E+02  0.51100000000E-03 0. -1.
        -11    1    3    3    0    0 -0.11639641212E+02 -0.23902906323E+01  0.92965006300E+01  0.15087069334E+02  0.51100000000E-03 0.  1.
         12    1    3    3    0    0 -0.14034890435E+02  0.85922538862E+00 -0.20179836787E+02  0.24595573393E+02  0.00000000000E+00 0. -1.
</event>
<event>
 7    1  0.3528441E-013  0.5930187E+02  0.7816164E-02  0.1266605E+00
        -11   -1    0    0    0    0  0.00000000000E+00  0.00000000000E+00  0.45593999997E+02  0.45594000000E+02  0.51100000000E-03 0. -1.
         11   -1    0    0    0    0 -0.00000000000E+00 -0.00000000000E+00 -0.45593999997E+02  0.45594000000E+02  0.51100000000E-03 0.  1.
    9900012    2    1    2    0    0 -0.22670459019E+02  0.16112717020E+02  0.15593452470E+02  0.59301872580E+02  0.49999869697E+02 0.  0.
        -12    1    1    2    0    0  0.22670459019E+02 -0.16112717020E+02 -0.15593452470E+02  0.31886127420E+02  0.00000000000E+00 0.  1.
         11    1    3    3    0    0  0.68437264988E+01 -0.12107765144E+01  0.86308755520E+01  0.11081271823E+02  0.51100000000E-03 0.  1.
        -11    1    3    3    0    0 -0.21156159242E+02  0.13710365586E+02 -0.11443083765E+02  0.27685761046E+02  0.51100000000E-03 0. -1.
         12    1    3    3    0    0 -0.83580262756E+01  0.36131279481E+01  0.18405660683E+02  0.20534839711E+02  0.00000000000E+00 0. -1.
</event>
<event>
 7    1  0.3528441E-013  0.5930197E+02  0.7816164E-02  0.1266605E+00
        -11   -1    0    0    0    0  0.00000000000E+00  0.00000000000E+00  0.45593999997E+02  0.45594000000E+02  0.51100000000E-03 0.  1.
         11   -1    0    0    0    0 -0.00000000000E+00 -0.00000000000E+00 -0.45593999997E+02  0.45594000000E+02  0.51100000000E-03 0. -1.
    9900012    2    1    2    0    0 -0.84557914241E+01  0.12060451296E+02 -0.28280100683E+02  0.59301968752E+02  0.50000045092E+02 0.  0.
        -12    1    1    2    0    0  0.84557914241E+01 -0.12060451296E+02  0.28280100683E+02  0.31886031248E+02  0.00000000000E+00 0.  1.
         11    1    3    3    0    0 -0.62833179631E+01  0.73095264476E+01 -0.31944671156E+02  0.33367218599E+02  0.51100000000E-03 0. -1.
        -11    1    3    3    0    0 -0.11751859940E+02  0.26852202375E+01 -0.48101150329E+01  0.12978976334E+02  0.51100000000E-03 0.  1.
        -12    1    3    3    0    0  0.95793864793E+01  0.20657046114E+01  0.84746855053E+01  0.12955773820E+02  0.00000000000E+00 0.  1.
</event>
<event>
 7    1  0.3528441E-013  0.5930195E+02  0.7816164E-02  0.1266605E+00
        -11   -1    0    0    0    0  0.00000000000E+00  0.00000000000E+00  0.45593999997E+02  0.45594000000E+02  0.51100000000E-03 0.  1.
         11   -1    0    0    0    0 -0.00000000000E+00 -0.00000000000E+00 -0.45593999997E+02  0.45594000000E+02  0.51100000000E-03 0. -1.
    9900012    2    1    2    0    0  0.38599578329E+01  0.19848492508E+02 -0.24654779664E+02  0.59301951490E+02  0.50000013609E+02 0.  0.
        -12    1    1    2    0    0 -0.38599578329E+01 -0.19848492508E+02  0.24654779664E+02  0.31886048510E+02  0.00000000000E+00 0.  1.
         11    1    3    3    0    0  0.71074838574E+01  0.96886852681E+01  0.13501395279E+01  0.12091725518E+02  0.51100000000E-03 0. -1.
        -11    1    3    3    0    0 -0.78678047952E+01  0.62400785563E+01  0.78945133899E+01  0.12773577205E+02  0.51100000000E-03 0.  1.
         12    1    3    3    0    0  0.46202787707E+01  0.39197286838E+01 -0.33899432582E+02  0.34436648766E+02  0.00000000000E+00 0. -1.
</event>
<event>
 7    1  0.3528441E-013  0.5930195E+02  0.7816164E-02  0.1266605E+00
        -11   -1    0    0    0    0  0.00000000000E+00  0.00000000000E+00  0.45593999997E+02  0.45594000000E+02  0.51100000000E-03 0.  1.
         11   -1    0    0    0    0 -0.00000000000E+00 -0.00000000000E+00 -0.45593999997E+02  0.45594000000E+02  0.51100000000E-03 0. -1.
    9900012    2    1    2    0    0  0.28157180173E+02  0.14473667206E+02 -0.37955586881E+01  0.59301951272E+02  0.50000013212E+02 0.  0.
        -12    1    1    2    0    0 -0.28157180173E+02 -0.14473667206E+02  0.37955586881E+01  0.31886048728E+02  0.00000000000E+00 0.  1.
         11    1    3    3    0    0  0.56336431330E+01  0.19073404535E+01 -0.30552700569E+00  0.59556048868E+01  0.51100000000E-03 0. -1.
        -11    1    3    3    0    0  0.11735584114E+02  0.14277440910E+01  0.21151919261E+02  0.24231509990E+02  0.51100000000E-03 0.  1.
         12    1    3    3    0    0  0.10787952926E+02  0.11138582661E+02 -0.24641950944E+02  0.29114836396E+02  0.00000000000E+00 0. -1.
</event>
<event>
 7    1  0.3528441E-013  0.5930194E+02  0.7816164E-02  0.1266605E+00
        -11   -1    0    0    0    0  0.00000000000E+00  0.00000000000E+00  0.45593999997E+02  0.45594000000E+02  0.51100000000E-03 0.  1.
         11   -1    0    0    0    0 -0.00000000000E+00 -0.00000000000E+00 -0.45593999997E+02  0.45594000000E+02  0.51100000000E-03 0. -1.
    9900012    2    1    2    0    0  0.18446875135E+02 -0.25687821835E+02  0.40705839625E+01  0.59301936483E+02  0.49999986240E+02 0.  0.
        -12    1    1    2    0    0 -0.18446875135E+02  0.25687821835E+02 -0.40705839625E+01  0.31886063517E+02  0.00000000000E+00 0.  1.
         11    1    3    3    0    0  0.12000486653E+02 -0.12941225486E+02 -0.50211954229E+01  0.18349370581E+02  0.51100000000E-03 0. -1.
        -11    1    3    3    0    0 -0.12352923077E+01 -0.24052830554E+02 -0.77104729376E+00  0.24096869484E+02  0.51100000000E-03 0.  1.
        -12    1    3    3    0    0  0.76816807895E+01  0.11306234204E+02  0.98628266792E+01  0.16855696418E+02  0.00000000000E+00 0.  1.
</event>
<event>
 7    1  0.3528441E-013  0.5930193E+02  0.7816164E-02  0.1266605E+00
        -11   -1    0    0    0    0  0.00000000000E+00  0.00000000000E+00  0.45593999997E+02  0.45594000000E+02  0.51100000000E-03 0. -1.
         11   -1    0    0    0    0 -0.00000000000E+00 -0.00000000000E+00 -0.45593999997E+02  0.45594000000E+02  0.51100000000E-03 0.  1.
    9900012    2    1    2    0    0  0.21483650212E+02  0.12112635622E+01  0.23530975408E+02  0.59301934242E+02  0.49999982154E+02 0.  0.
        -12    1    1    2    0    0 -0.21483650212E+02 -0.12112635622E+01 -0.23530975408E+02  0.31886065758E+02  0.00000000000E+00 0.  1.
         11    1    3    3    0    0  0.18531111188E+02  0.14672455156E+01  0.26799331966E+02  0.32615319795E+02  0.51100000000E-03 0. -1.
        -11    1    3    3    0    0  0.71748149637E+01  0.11302067339E+02 -0.49378648758E+01  0.14268749269E+02  0.51100000000E-03 0.  1.
         12    1    3    3    0    0 -0.42222759396E+01 -0.11558049292E+02  0.16695083177E+01  0.12417865178E+02  0.00000000000E+00 0. -1.
</event>
<event>
 7    1  0.3528441E-013  0.5930199E+02  0.7816164E-02  0.1266605E+00
        -11   -1    0    0    0    0  0.00000000000E+00  0.00000000000E+00  0.45593999997E+02  0.45594000000E+02  0.51100000000E-03 0. -1.
         11   -1    0    0    0    0 -0.00000000000E+00 -0.00000000000E+00 -0.45593999997E+02  0.45594000000E+02  0.51100000000E-03 0.  1.
    9900012    2    1    2    0    0  0.23155145065E+02 -0.21366259478E+02  0.49030635321E+01  0.59301987094E+02  0.50000078542E+02 0.  0.
        -12    1    1    2    0    0 -0.23155145065E+02  0.21366259478E+02 -0.49030635321E+01  0.31886012906E+02  0.00000000000E+00 0.  1.
         11    1    3    3    0    0  0.15082201113E+02  0.76767959498E+01 -0.80140828605E+01  0.18725157165E+02  0.51100000000E-03 0. -1.
        -11    1    3    3    0    0  0.73415333605E+01 -0.66658987976E+01 -0.57183222997E+01  0.11446900412E+02  0.51100000000E-03 0.  1.
         12    1    3    3    0    0  0.73141059135E+00 -0.22377156630E+02  0.18635468692E+02  0.29129929517E+02  0.00000000000E+00 0. -1.
</event>
<event>
 7    1  0.3528441E-013  0.5930194E+02  0.7816164E-02  0.1266605E+00
        -11   -1    0    0    0    0  0.00000000000E+00  0.00000000000E+00  0.45593999997E+02  0.45594000000E+02  0.51100000000E-03 0.  1.
         11   -1    0    0    0    0 -0.00000000000E+00 -0.00000000000E+00 -0.45593999997E+02  0.45594000000E+02  0.51100000000E-03 0. -1.
    9900012    2    1    2    0    0  0.30836719291E+02 -0.12185037334E+01 -0.80207903947E+01  0.59301935857E+02  0.49999985099E+02 0.  0.
        -12    1    1    2    0    0 -0.30836719291E+02  0.12185037334E+01  0.80207903947E+01  0.31886064143E+02  0.00000000000E+00 0.  1.
         11    1    3    3    0    0  0.55719227688E+01  0.55585146478E+01  0.18045736438E+00  0.78724820452E+01  0.51100000000E-03 0. -1.
        -11    1    3    3    0    0  0.22865713897E+02 -0.47713953179E+01  0.15168636134E+02  0.27851294543E+02  0.51100000000E-03 0.  1.
         12    1    3    3    0    0  0.23990826252E+01 -0.20056230633E+01 -0.23369883893E+02  0.23578159269E+02  0.00000000000E+00 0. -1.
</event>
<event>
 7    1  0.3528441E-013  0.5930192E+02  0.7816164E-02  0.1266605E+00
        -11   -1    0    0    0    0  0.00000000000E+00  0.00000000000E+00  0.45593999997E+02  0.45594000000E+02  0.51100000000E-03 0. -1.
         11   -1    0    0    0    0 -0.00000000000E+00 -0.00000000000E+00 -0.45593999997E+02  0.45594000000E+02  0.51100000000E-03 0.  1.
    9900012    2    1    2    0    0 -0.28104464457E+02 -0.35273853320E+01  0.14643044796E+02  0.59301919485E+02  0.49999955240E+02 0.  0.
        -12    1    1    2    0    0  0.28104464457E+02  0.35273853320E+01 -0.14643044796E+02  0.31886080515E+02  0.00000000000E+00 0.  1.
         11    1    3    3    0    0 -0.10072066434E+02  0.82902603935E+00  0.32066501254E+01  0.10602660596E+02  0.51100000000E-03 0.  1.
        -11    1    3    3    0    0 -0.32009296189E+02 -0.77839320910E+01  0.82575302874E+01  0.33961322825E+02  0.51100000000E-03 0. -1.
        -12    1    3    3    0    0  0.13976898167E+02  0.34275207197E+01  0.31788643828E+01  0.14737936063E+02  0.00000000000E+00 0.  1.
</event>
<event>
 7    1  0.3528441E-013  0.5930200E+02  0.7816164E-02  0.1266605E+00
        -11   -1    0    0    0    0  0.00000000000E+00  0.00000000000E+00  0.45593999997E+02  0.45594000000E+02  0.51100000000E-03 0.  1.
         11   -1    0    0    0    0 -0.00000000000E+00 -0.00000000000E+00 -0.45593999997E+02  0.45594000000E+02  0.51100000000E-03 0. -1.
    9900012    2    1    2    0    0 -0.22279671282E+02  0.12054844947E+02 -0.19365275630E+02  0.59302000889E+02  0.50000103700E+02 0.  0.
        -12    1    1    2    0    0  0.22279671282E+02 -0.12054844947E+02  0.19365275630E+02  0.31885999111E+02  0.00000000000E+00 0.  1.
         11    1    3    3    0    0  0.99326315535E+01  0.18736772279E+01 -0.10633933699E+02  0.14671345613E+02  0.51100000000E-03 0. -1.
        -11    1    3    3    0    0 -0.15142824339E+02  0.15763806097E+02 -0.13947319387E+02  0.25929335316E+02  0.51100000000E-03 0.  1.
        -12    1    3    3    0    0 -0.17069478496E+02 -0.55826383778E+01  0.52159774554E+01  0.18701319959E+02  0.00000000000E+00 0.  1.
</event>
<event>
 7    1  0.3528441E-013  0.5930194E+02  0.7816164E-02  0.1266605E+00
        -11   -1    0    0    0    0  0.00000000000E+00  0.00000000000E+00  0.45593999997E+02  0.45594000000E+02  0.51100000000E-03 0. -1.
         11   -1    0    0    0    0 -0.00000000000E+00 -0.00000000000E+00 -0.45593999997E+02  0.45594000000E+02  0.51100000000E-03 0.  1.
    9900012    2    1    2    0    0  0.28370007062E+02 -0.14008848213E+02  0.39516589620E+01  0.59301941329E+02  0.49999995079E+02 0.  0.
        -12    1    1    2    0    0 -0.28370007062E+02  0.14008848213E+02 -0.39516589620E+01  0.31886058671E+02  0.00000000000E+00 0.  1.
         11    1    3    3    0    0  0.23247301941E+01 -0.15244357543E+02 -0.50808778614E+01  0.16236074879E+02  0.51100000000E-03 0. -1.
        -11    1    3    3    0    0 -0.75056767007E+01 -0.13393749510E+01  0.51328381406E+01  0.91910356126E+01  0.51100000000E-03 0.  1.
         12    1    3    3    0    0  0.33550953569E+02  0.25748842810E+01  0.38996986828E+01  0.33874830837E+02  0.00000000000E+00 0. -1.
</event>
<event>
 7    1  0.3528441E-013  0.5930195E+02  0.7816164E-02  0.1266605E+00
        -11   -1    0    0    0    0  0.00000000000E+00  0.00000000000E+00  0.45593999997E+02  0.45594000000E+02  0.51100000000E-03 0.  1.
         11   -1    0    0    0    0 -0.00000000000E+00 -0.00000000000E+00 -0.45593999997E+02  0.45594000000E+02  0.51100000000E-03 0. -1.
    9900012    2    1    2    0    0  0.21753205017E+02 -0.23895547797E+01 -0.23190695532E+02  0.59301948821E+02  0.50000008741E+02 0.  0.
        -12    1    1    2    0    0 -0.21753205017E+02  0.23895547797E+01  0.23190695532E+02  0.31886051179E+02  0.00000000000E+00 0.  1.
         11    1    3    3    0    0 -0.50340769481E+00  0.13208788456E+02 -0.42417516007E+01  0.13882289749E+02  0.51100000000E-03 0. -1.
        -11    1    3    3    0    0  0.10732128959E+01 -0.27430826055E+01 -0.20387352129E+02  0.20599039181E+02  0.51100000000E-03 0.  1.
        -12    1    3    3    0    0  0.21183399816E+02 -0.12855260630E+02  0.14384081972E+01  0.24820619891E+02  0.00000000000E+00 0.  1.
</event>
<event>
 7    1  0.3528441E-013  0.5930194E+02  0.7816164E-02  0.1266605E+00
        -11   -1    0    0    0    0  0.00000000000E+00  0.00000000000E+00  0.45593999997E+02  0.45594000000E+02  0.51100000000E-03 0.  1.
         11   -1    0    0    0    0 -0.00000000000E+00 -0.00000000000E+00 -0.45593999997E+02  0.45594000000E+02  0.51100000000E-03 0. -1.
    9900012    2    1    2    0    0 -0.28538423839E+02  0.20000416710E+01 -0.14081154810E+02  0.59301941563E+02  0.49999995504E+02 0.  0.
        -12    1    1    2    0    0  0.28538423839E+02 -0.20000416710E+01  0.14081154810E+02  0.31886058437E+02  0.00000000000E+00 0.  1.
         11    1    3    3    0    0  0.10070293383E+02  0.17138163338E+00 -0.13716621340E+01  0.10164725169E+02  0.51100000000E-03 0. -1.
        -11    1    3    3    0    0 -0.29984068164E+01  0.10002319648E+02  0.34407390464E-01  0.10442127460E+02  0.51100000000E-03 0.  1.
         12    1    3    3    0    0 -0.35610310406E+02 -0.81736596100E+01 -0.12743900067E+02  0.38695088933E+02  0.00000000000E+00 0. -1.
</event>
<event>
 7    1  0.3528441E-013  0.5930190E+02  0.7816164E-02  0.1266605E+00
        -11   -1    0    0    0    0  0.00000000000E+00  0.00000000000E+00  0.45593999997E+02  0.45594000000E+02  0.51100000000E-03 0.  1.
         11   -1    0    0    0    0 -0.00000000000E+00 -0.00000000000E+00 -0.45593999997E+02  0.45594000000E+02  0.51100000000E-03 0. -1.
    9900012    2    1    2    0    0 -0.15463948107E+02 -0.67432765820E+01 -0.27057673509E+02  0.59301903252E+02  0.49999925635E+02 0.  0.
        -12    1    1    2    0    0  0.15463948107E+02  0.67432765820E+01  0.27057673509E+02  0.31886096748E+02  0.00000000000E+00 0.  1.
         11    1    3    3    0    0  0.71202495818E+01 -0.10989951859E+02 -0.25751589130E+01  0.13345727393E+02  0.51100000000E-03 0. -1.
        -11    1    3    3    0    0 -0.13748937008E+02 -0.67887355451E+01 -0.27513977595E+02  0.31498240626E+02  0.51100000000E-03 0.  1.
        -12    1    3    3    0    0 -0.88352606802E+01  0.11035410822E+02  0.30314629992E+01  0.14457935233E+02  0.00000000000E+00 0.  1.
</event>
<event>
 7    1  0.3528441E-013  0.5930194E+02  0.7816164E-02  0.1266605E+00
        -11   -1    0    0    0    0  0.00000000000E+00  0.00000000000E+00  0.45593999997E+02  0.45594000000E+02  0.51100000000E-03 0. -1.
         11   -1    0    0    0    0 -0.00000000000E+00 -0.00000000000E+00 -0.45593999997E+02  0.45594000000E+02  0.51100000000E-03 0.  1.
    9900012    2    1    2    0    0 -0.22042185709E+02 -0.18689104551E+02 -0.13475172831E+02  0.59301939369E+02  0.49999991503E+02 0.  0.
        -12    1    1    2    0    0  0.22042185709E+02  0.18689104551E+02  0.13475172831E+02  0.31886060631E+02  0.00000000000E+00 0.  1.
         11    1    3    3    0    0  0.97242202907E+01 -0.10544318366E+02  0.24967467172E+01  0.14559424937E+02  0.51100000000E-03 0. -1.
        -11    1    3    3    0    0  0.43294448841E+01 -0.95818018968E-01  0.29527390981E+00  0.43405599916E+01  0.51100000000E-03 0.  1.
         12    1    3    3    0    0 -0.36095850884E+02 -0.80489681665E+01 -0.16267193458E+02  0.40401954440E+02  0.00000000000E+00 0. -1.
</event>
<event>
 7    1  0.3528441E-013  0.5930193E+02  0.7816164E-02  0.1266605E+00
        -11   -1    0    0    0    0  0.00000000000E+00  0.00000000000E+00  0.45593999997E+02  0.45594000000E+02  0.51100000000E-03 0. -1.
         11   -1    0    0    0    0 -0.00000000000E+00 -0.00000000000E+00 -0.45593999997E+02  0.45594000000E+02  0.51100000000E-03 0.  1.
    9900012    2    1    2    0    0  0.24352006971E+01 -0.16626337234E+02  0.27099004082E+02  0.59301932282E+02  0.49999978579E+02 0.  0.
        -12    1    1    2    0    0 -0.24352006971E+01  0.16626337234E+02 -0.27099004082E+02  0.31886067718E+02  0.00000000000E+00 0.  1.
         11    1    3    3    0    0 -0.19193627102E+02 -0.32476393069E+01  0.13736482997E+02  0.23825059240E+02  0.51100000000E-03 0. -1.
        -11    1    3    3    0    0 -0.38688938813E+01 -0.37604706221E+01  0.74637703843E+00  0.54467015807E+01  0.51100000000E-03 0.  1.
        -12    1    3    3    0    0  0.25497721681E+02 -0.96182273053E+01  0.12616144047E+02  0.30030171461E+02  0.00000000000E+00 0.  1.
</event>
<event>
 7    1  0.3528441E-013  0.5930195E+02  0.7816164E-02  0.1266605E+00
        -11   -1    0    0    0    0  0.00000000000E+00  0.00000000000E+00  0.45593999997E+02  0.45594000000E+02  0.51100000000E-03 0.  1.
         11   -1    0    0    0    0 -0.00000000000E+00 -0.00000000000E+00 -0.45593999997E+02  0.45594000000E+02  0.51100000000E-03 0. -1.
    9900012    2    1    2    0    0  0.27747941367E+02  0.13901073483E+02 -0.73165535840E+01  0.59301952104E+02  0.50000014729E+02 0.  0.
        -12    1    1    2    0    0 -0.27747941367E+02 -0.13901073483E+02  0.73165535840E+01  0.31886047896E+02  0.00000000000E+00 0.  1.
         11    1    3    3    0    0  0.19912323782E+02  0.24710866380E+01 -0.95559182767E+01  0.22224366851E+02  0.51100000000E-03 0. -1.
        -11    1    3    3    0    0  0.19952335477E+02  0.51277192610E+01  0.82040353985E+01  0.22174205575E+02  0.51100000000E-03 0.  1.
        -12    1    3    3    0    0 -0.12116717892E+02  0.63022675840E+01 -0.59646707058E+01  0.14903379677E+02  0.00000000000E+00 0.  1.
</event>
<event>
 7    1  0.3528441E-013  0.5930200E+02  0.7816164E-02  0.1266605E+00
        -11   -1    0    0    0    0  0.00000000000E+00  0.00000000000E+00  0.45593999997E+02  0.45594000000E+02  0.51100000000E-03 0. -1.
         11   -1    0    0    0    0 -0.00000000000E+00 -0.00000000000E+00 -0.45593999997E+02  0.45594000000E+02  0.51100000000E-03 0.  1.
    9900012    2    1    2    0    0 -0.26897251552E+02  0.15016991302E+02  0.82307352533E+01  0.59301997246E+02  0.50000097057E+02 0.  0.
        -12    1    1    2    0    0  0.26897251552E+02 -0.15016991302E+02 -0.82307352533E+01  0.31886002754E+02  0.00000000000E+00 0.  1.
         11    1    3    3    0    0 -0.50791327051E+01  0.83462468777E+01  0.69207909214E+01  0.11973085367E+02  0.51100000000E-03 0. -1.
        -11    1    3    3    0    0  0.12058471281E+02  0.57541566485E+00 -0.35109317671E+01  0.12572369505E+02  0.51100000000E-03 0.  1.
        -12    1    3    3    0    0 -0.33876590128E+02  0.60953287595E+01  0.48208760990E+01  0.34756542374E+02  0.00000000000E+00 0.  1.
</event>
<event>
 7    1  0.3528441E-013  0.5930194E+02  0.7816164E-02  0.1266605E+00
        -11   -1    0    0    0    0  0.00000000000E+00  0.00000000000E+00  0.45593999997E+02  0.45594000000E+02  0.51100000000E-03 0.  1.
         11   -1    0    0    0    0 -0.00000000000E+00 -0.00000000000E+00 -0.45593999997E+02  0.45594000000E+02  0.51100000000E-03 0. -1.
    9900012    2    1    2    0    0 -0.11837193201E+02 -0.74603843563E+01 -0.28652128466E+02  0.59301938104E+02  0.49999989196E+02 0.  0.
        -12    1    1    2    0    0  0.11837193201E+02  0.74603843563E+01  0.28652128466E+02  0.31886061896E+02  0.00000000000E+00 0.  1.
         11    1    3    3    0    0  0.58133156538E+01 -0.68490794259E+01  0.73212262492E+00  0.90133529650E+01  0.51100000000E-03 0. -1.
        -11    1    3    3    0    0  0.69213415407E+01 -0.11894396795E+02 -0.93751197223E+01  0.16651561906E+02  0.51100000000E-03 0.  1.
         12    1    3    3    0    0 -0.24571850395E+02  0.11283091864E+02 -0.20009131369E+02  0.33637023233E+02  0.00000000000E+00 0. -1.
</event>
<event>
 7    1  0.3528441E-013  0.5930193E+02  0.7816164E-02  0.1266605E+00
        -11   -1    0    0    0    0  0.00000000000E+00  0.00000000000E+00  0.45593999997E+02  0.45594000000E+02  0.51100000000E-03 0.  1.
         11   -1    0    0    0    0 -0.00000000000E+00 -0.00000000000E+00 -0.45593999997E+02  0.45594000000E+02  0.51100000000E-03 0. -1.
    9900012    2    1    2    0    0  0.89329751879E+01  0.24570057530E+02 -0.18254742414E+02  0.59301931046E+02  0.49999976324E+02 0.  0.
        -12    1    1    2    0    0 -0.89329751879E+01 -0.24570057530E+02  0.18254742414E+02  0.31886068954E+02  0.00000000000E+00 0.  1.
         11    1    3    3    0    0  0.10055312261E+02  0.31527767139E+02 -0.10661591866E+02  0.34767498426E+02  0.51100000000E-03 0. -1.
        -11    1    3    3    0    0 -0.90784006004E+01  0.20260669774E+01  0.15731505586E+01  0.94338278444E+01  0.51100000000E-03 0.  1.
        -12    1    3    3    0    0  0.79560635275E+01 -0.89837765862E+01 -0.91663011063E+01  0.15100604775E+02  0.00000000000E+00 0.  1.
</event>
<event>
 7    1  0.3528441E-013  0.5930195E+02  0.7816164E-02  0.1266605E+00
        -11   -1    0    0    0    0  0.00000000000E+00  0.00000000000E+00  0.45593999997E+02  0.45594000000E+02  0.51100000000E-03 0.  1.
         11   -1    0    0    0    0 -0.00000000000E+00 -0.00000000000E+00 -0.45593999997E+02  0.45594000000E+02  0.51100000000E-03 0. -1.
    9900012    2    1    2    0    0 -0.16445548681E+02  0.33290355507E+01 -0.27114236287E+02  0.59301947273E+02  0.50000005918E+02 0.  0.
        -12    1    1    2    0    0  0.16445548681E+02 -0.33290355507E+01  0.27114236287E+02  0.31886052727E+02  0.00000000000E+00 0.  1.
         11    1    3    3    0    0 -0.41255637057E+01  0.95034681766E+01 -0.18239306953E+02  0.20976379613E+02  0.51100000000E-03 0. -1.
        -11    1    3    3    0    0  0.10414160338E+02  0.20878360755E+01  0.34630800570E+01  0.11171692744E+02  0.51100000000E-03 0.  1.
        -12    1    3    3    0    0 -0.22734145313E+02 -0.82622687014E+01 -0.12338009391E+02  0.27153874916E+02  0.00000000000E+00 0.  1.
</event>
<event>
 7    1  0.3528441E-013  0.5930195E+02  0.7816164E-02  0.1266605E+00
        -11   -1    0    0    0    0  0.00000000000E+00  0.00000000000E+00  0.45593999997E+02  0.45594000000E+02  0.51100000000E-03 0. -1.
         11   -1    0    0    0    0 -0.00000000000E+00 -0.00000000000E+00 -0.45593999997E+02  0.45594000000E+02  0.51100000000E-03 0.  1.
    9900012    2    1    2    0    0 -0.12415444935E+02  0.28512156808E+02 -0.70451380453E+01  0.59301947738E+02  0.50000006767E+02 0.  0.
        -12    1    1    2    0    0  0.12415444935E+02 -0.28512156808E+02  0.70451380453E+01  0.31886052262E+02  0.00000000000E+00 0.  1.
         11    1    3    3    0    0 -0.27628181227E+00 -0.54121756419E+01  0.65273092596E+00  0.54583912228E+01  0.51100000000E-03 0. -1.
        -11    1    3    3    0    0  0.10124972582E+02  0.14301842823E+02  0.90969941650E+01  0.19743684586E+02  0.51100000000E-03 0.  1.
         12    1    3    3    0    0 -0.22264135705E+02  0.19622489627E+02 -0.16794863136E+02  0.34099871930E+02  0.00000000000E+00 0. -1.
</event>
<event>
 7    1  0.3528441E-013  0.5930195E+02  0.7816164E-02  0.1266605E+00
        -11   -1    0    0    0    0  0.00000000000E+00  0.00000000000E+00  0.45593999997E+02  0.45594000000E+02  0.51100000000E-03 0. -1.
         11   -1    0    0    0    0 -0.00000000000E+00 -0.00000000000E+00 -0.45593999997E+02  0.45594000000E+02  0.51100000000E-03 0.  1.
    9900012    2    1    2    0    0 -0.22078361608E+02 -0.19317728511E+02 -0.12493670630E+02  0.59301945181E+02  0.50000002103E+02 0.  0.
        -12    1    1    2    0    0  0.22078361608E+02  0.19317728511E+02  0.12493670630E+02  0.31886054819E+02  0.00000000000E+00 0.  1.
         11    1    3    3    0    0 -0.11836992206E+02 -0.27910995648E+01 -0.19212022286E+01  0.12312418102E+02  0.51100000000E-03 0. -1.
        -11    1    3    3    0    0 -0.36953775208E+01  0.62621018930E+01 -0.20147097884E+02  0.21419040327E+02  0.51100000000E-03 0.  1.
         12    1    3    3    0    0 -0.65459918816E+01 -0.22788730839E+02  0.95746294823E+01  0.25570486751E+02  0.00000000000E+00 0. -1.
</event>
<event>
 7    1  0.3528441E-013  0.5930196E+02  0.7816164E-02  0.1266605E+00
        -11   -1    0    0    0    0  0.00000000000E+00  0.00000000000E+00  0.45593999997E+02  0.45594000000E+02  0.51100000000E-03 0. -1.
         11   -1    0    0    0    0 -0.00000000000E+00 -0.00000000000E+00 -0.45593999997E+02  0.45594000000E+02  0.51100000000E-03 0.  1.
    9900012    2    1    2    0    0  0.13350781613E+02 -0.11654739919E+02  0.26507413213E+02  0.59301964067E+02  0.50000036547E+02 0.  0.
        -12    1    1    2    0    0 -0.13350781613E+02  0.11654739919E+02 -0.26507413213E+02  0.31886035933E+02  0.00000000000E+00 0.  1.
         11    1    3    3    0    0 -0.39244670824E+01  0.45990535185E+01  0.16003809884E+01  0.62541150226E+01  0.51100000000E-03 0. -1.
        -11    1    3    3    0    0  0.69113189679E+01 -0.23856263466E+02 -0.20438741567E+00  0.24838063751E+02  0.51100000000E-03 0.  1.
         12    1    3    3    0    0  0.10363929727E+02  0.76024700291E+01  0.25111419640E+02  0.28209785293E+02  0.00000000000E+00 0. -1.
</event>
<event>
 7    1  0.3528441E-013  0.5930194E+02  0.7816164E-02  0.1266605E+00
        -11   -1    0    0    0    0  0.00000000000E+00  0.00000000000E+00  0.45593999997E+02  0.45594000000E+02  0.51100000000E-03 0.  1.
         11   -1    0    0    0    0 -0.00000000000E+00 -0.00000000000E+00 -0.45593999997E+02  0.45594000000E+02  0.51100000000E-03 0. -1.
    9900012    2    1    2    0    0 -0.35193264045E+01 -0.27343959087E+02 -0.16020085742E+02  0.59301938718E+02  0.49999990317E+02 0.  0.
        -12    1    1    2    0    0  0.35193264045E+01  0.27343959087E+02  0.16020085742E+02  0.31886061282E+02  0.00000000000E+00 0.  1.
         11    1    3    3    0    0  0.37911038020E+01  0.67980869871E+01 -0.12452529813E+02  0.14685092908E+02  0.51100000000E-03 0.  1.
        -11    1    3    3    0    0 -0.16048354462E+02 -0.15396214787E+02 -0.76828134782E+01  0.23529103976E+02  0.51100000000E-03 0. -1.
         12    1    3    3    0    0  0.87379242560E+01 -0.18745831287E+02  0.41152575496E+01  0.21087741834E+02  0.00000000000E+00 0. -1.
</event>
<event>
 7    1  0.3528441E-013  0.5930208E+02  0.7816164E-02  0.1266604E+00
        -11   -1    0    0    0    0  0.00000000000E+00  0.00000000000E+00  0.45593999997E+02  0.45594000000E+02  0.51100000000E-03 0. -1.
         11   -1    0    0    0    0 -0.00000000000E+00 -0.00000000000E+00 -0.45593999997E+02  0.45594000000E+02  0.51100000000E-03 0.  1.
    9900012    2    1    2    0    0 -0.10701739648E+02  0.26578511509E+02 -0.13991683437E+02  0.59302082874E+02  0.50000253222E+02 0.  0.
        -12    1    1    2    0    0  0.10701739648E+02 -0.26578511509E+02  0.13991683437E+02  0.31885917126E+02  0.00000000000E+00 0.  1.
         11    1    3    3    0    0 -0.13376212886E+02  0.51742087546E+01  0.79657891743E+01  0.16405770474E+02  0.51100000000E-03 0. -1.
        -11    1    3    3    0    0  0.12756968131E+01 -0.75397093319E+01 -0.65961912458E+01  0.10098730533E+02  0.51100000000E-03 0.  1.
         12    1    3    3    0    0  0.13987764246E+01  0.28944012086E+02 -0.15361281366E+02  0.32797581867E+02  0.00000000000E+00 0. -1.
</event>
<event>
 7    1  0.3528441E-013  0.5930196E+02  0.7816164E-02  0.1266605E+00
        -11   -1    0    0    0    0  0.00000000000E+00  0.00000000000E+00  0.45593999997E+02  0.45594000000E+02  0.51100000000E-03 0. -1.
         11   -1    0    0    0    0 -0.00000000000E+00 -0.00000000000E+00 -0.45593999997E+02  0.45594000000E+02  0.51100000000E-03 0.  1.
    9900012    2    1    2    0    0 -0.79246512142E+01  0.19199408847E+02  0.24193019079E+02  0.59301959652E+02  0.50000028494E+02 0.  0.
        -12    1    1    2    0    0  0.79246512142E+01 -0.19199408847E+02 -0.24193019079E+02  0.31886040348E+02  0.00000000000E+00 0.  1.
         11    1    3    3    0    0 -0.58916270214E+01 -0.64321212848E+01  0.27745291233E+01  0.91532215803E+01  0.51100000000E-03 0. -1.
        -11    1    3    3    0    0 -0.48006637880E+01 -0.53936437030E+01 -0.54233629781E+01  0.90305388241E+01  0.51100000000E-03 0.  1.
         12    1    3    3    0    0  0.27676395952E+01  0.31025173835E+02  0.26841852934E+02  0.41118199247E+02  0.00000000000E+00 0. -1.
</event>
<event>
 7    1  0.3528441E-013  0.5930196E+02  0.7816164E-02  0.1266605E+00
        -11   -1    0    0    0    0  0.00000000000E+00  0.00000000000E+00  0.45593999997E+02  0.45594000000E+02  0.51100000000E-03 0.  1.
         11   -1    0    0    0    0 -0.00000000000E+00 -0.00000000000E+00 -0.45593999997E+02  0.45594000000E+02  0.51100000000E-03 0. -1.
    9900012    2    1    2    0    0  0.26730303464E+02 -0.13367081041E+02 -0.11114488535E+02  0.59301955494E+02  0.50000020911E+02 0.  0.
        -12    1    1    2    0    0 -0.26730303464E+02  0.13367081041E+02  0.11114488535E+02  0.31886044506E+02  0.00000000000E+00 0.  1.
         11    1    3    3    0    0  0.54111766278E+01  0.97226807314E+00  0.88433356922E+01  0.10413007449E+02  0.51100000000E-03 0. -1.
        -11    1    3    3    0    0 -0.10384129105E+01 -0.21213786457E+02 -0.95211331736E+01  0.23275631343E+02  0.51100000000E-03 0.  1.
         12    1    3    3    0    0  0.22357539747E+02  0.68744373430E+01 -0.10436691054E+02  0.25613316702E+02  0.00000000000E+00 0. -1.
</event>
<event>
 7    1  0.3528441E-013  0.5930186E+02  0.7816164E-02  0.1266605E+00
        -11   -1    0    0    0    0  0.00000000000E+00  0.00000000000E+00  0.45593999997E+02  0.45594000000E+02  0.51100000000E-03 0. -1.
         11   -1    0    0    0    0 -0.00000000000E+00 -0.00000000000E+00 -0.45593999997E+02  0.45594000000E+02  0.51100000000E-03 0.  1.
    9900012    2    1    2    0    0 -0.28867901891E+02  0.85979011784E+01  0.10461642139E+02  0.59301864761E+02  0.49999855435E+02 0.  0.
        -12    1    1    2    0    0  0.28867901891E+02 -0.85979011784E+01 -0.10461642139E+02  0.31886135239E+02  0.00000000000E+00 0.  1.
         11    1    3    3    0    0 -0.84520275673E+01  0.80289774239E+01  0.12756218806E+02  0.17280693475E+02  0.51100000000E-03 0. -1.
        -11    1    3    3    0    0 -0.19123619958E+02  0.37181767062E+01  0.14878847223E+02  0.24513624238E+02  0.51100000000E-03 0.  1.
        -12    1    3    3    0    0 -0.12922543662E+01 -0.31492529517E+01 -0.17173423891E+02  0.17507547048E+02  0.00000000000E+00 0.  1.
</event>
<event>
 7    1  0.3528441E-013  0.5930193E+02  0.7816164E-02  0.1266605E+00
        -11   -1    0    0    0    0  0.00000000000E+00  0.00000000000E+00  0.45593999997E+02  0.45594000000E+02  0.51100000000E-03 0.  1.
         11   -1    0    0    0    0 -0.00000000000E+00 -0.00000000000E+00 -0.45593999997E+02  0.45594000000E+02  0.51100000000E-03 0. -1.
    9900012    2    1    2    0    0  0.31116253234E+02 -0.67474659738E+01  0.17239532982E+01  0.59301928944E+02  0.49999972491E+02 0.  0.
        -12    1    1    2    0    0 -0.31116253234E+02  0.67474659738E+01 -0.17239532982E+01  0.31886071056E+02  0.00000000000E+00 0.  1.
         11    1    3    3    0    0  0.24357407691E+02  0.38733908289E+00 -0.58304598968E+01  0.25048505022E+02  0.51100000000E-03 0. -1.
        -11    1    3    3    0    0  0.14171059039E+02 -0.29525959639E+01 -0.79882053100E+01  0.16533244132E+02  0.51100000000E-03 0.  1.
        -12    1    3    3    0    0 -0.74122134947E+01 -0.41822090928E+01  0.15542618505E+02  0.17720179790E+02  0.00000000000E+00 0.  1.
</event>
<event>
 7    1  0.3528441E-013  0.5930196E+02  0.7816164E-02  0.1266605E+00
        -11   -1    0    0    0    0  0.00000000000E+00  0.00000000000E+00  0.45593999997E+02  0.45594000000E+02  0.51100000000E-03 0.  1.
         11   -1    0    0    0    0 -0.00000000000E+00 -0.00000000000E+00 -0.45593999997E+02  0.45594000000E+02  0.51100000000E-03 0. -1.
    9900012    2    1    2    0    0 -0.13523381152E+02  0.13980471332E+02 -0.25266270520E+02  0.59301955365E+02  0.50000020677E+02 0.  0.
        -12    1    1    2    0    0  0.13523381152E+02 -0.13980471332E+02  0.25266270520E+02  0.31886044635E+02  0.00000000000E+00 0.  1.
         11    1    3    3    0    0 -0.32232591361E+01 -0.37307654006E+01 -0.74631124839E-01  0.49308802458E+01  0.51100000000E-03 0. -1.
        -11    1    3    3    0    0 -0.17021634860E+02  0.20256356871E+02  0.17217504889E+01  0.26514533222E+02  0.51100000000E-03 0.  1.
         12    1    3    3    0    0  0.67215128435E+01 -0.25451201385E+01 -0.26913389884E+02  0.27856541897E+02  0.00000000000E+00 0. -1.
</event>
<event>
 7    1  0.3528441E-013  0.5930194E+02  0.7816164E-02  0.1266605E+00
        -11   -1    0    0    0    0  0.00000000000E+00  0.00000000000E+00  0.45593999997E+02  0.45594000000E+02  0.51100000000E-03 0. -1.
         11   -1    0    0    0    0 -0.00000000000E+00 -0.00000000000E+00 -0.45593999997E+02  0.45594000000E+02  0.51100000000E-03 0.  1.
    9900012    2    1    2    0    0  0.16879229566E+02  0.25611146076E+02  0.87110028219E+01  0.59301940911E+02  0.49999994315E+02 0.  0.
        -12    1    1    2    0    0 -0.16879229566E+02 -0.25611146076E+02 -0.87110028219E+01  0.31886059089E+02  0.00000000000E+00 0.  1.
         11    1    3    3    0    0  0.66094442347E+01  0.13269923748E+02 -0.31311207498E+01  0.15151882615E+02  0.51100000000E-03 0.  1.
        -11    1    3    3    0    0  0.17889458268E+02  0.20853954147E+02 -0.30076136728E+00  0.27477455820E+02  0.51100000000E-03 0. -1.
        -12    1    3    3    0    0 -0.76196729370E+01 -0.85127318182E+01  0.12142884939E+02  0.16672602476E+02  0.00000000000E+00 0.  1.
</event>
<event>
 7    1  0.3528441E-013  0.5930193E+02  0.7816164E-02  0.1266605E+00
        -11   -1    0    0    0    0  0.00000000000E+00  0.00000000000E+00  0.45593999997E+02  0.45594000000E+02  0.51100000000E-03 0. -1.
         11   -1    0    0    0    0 -0.00000000000E+00 -0.00000000000E+00 -0.45593999997E+02  0.45594000000E+02  0.51100000000E-03 0.  1.
    9900012    2    1    2    0    0 -0.21241284900E+02 -0.76590439053E+01  0.22513735959E+02  0.59301930243E+02  0.49999974859E+02 0.  0.
        -12    1    1    2    0    0  0.21241284900E+02  0.76590439053E+01 -0.22513735959E+02  0.31886069757E+02  0.00000000000E+00 0.  1.
         11    1    3    3    0    0 -0.84415531831E+01 -0.43411699603E+01  0.27391248285E+02  0.28989412889E+02  0.51100000000E-03 0. -1.
        -11    1    3    3    0    0  0.69010220057E+00 -0.11650806401E+02  0.37530603245E+01  0.12259812107E+02  0.51100000000E-03 0.  1.
         12    1    3    3    0    0 -0.13489833918E+02  0.83329324560E+01 -0.86305726508E+01  0.18052705247E+02  0.00000000000E+00 0. -1.
</event>
<event>
 7    1  0.3528441E-013  0.5930194E+02  0.7816164E-02  0.1266605E+00
        -11   -1    0    0    0    0  0.00000000000E+00  0.00000000000E+00  0.45593999997E+02  0.45594000000E+02  0.51100000000E-03 0.  1.
         11   -1    0    0    0    0 -0.00000000000E+00 -0.00000000000E+00 -0.45593999997E+02  0.45594000000E+02  0.51100000000E-03 0. -1.
    9900012    2    1    2    0    0  0.16685765943E+02  0.24945626558E+02 -0.10771352383E+02  0.59301935620E+02  0.49999984667E+02 0.  0.
        -12    1    1    2    0    0 -0.16685765943E+02 -0.24945626558E+02  0.10771352383E+02  0.31886064380E+02  0.00000000000E+00 0.  1.
         11    1    3    3    0    0  0.95879981394E+01 -0.21107792987E+01  0.22093634985E+01  0.10063120038E+02  0.51100000000E-03 0. -1.
        -11    1    3    3    0    0  0.64633997776E+01 -0.80137592495E+01  0.29572219988E+01  0.10711724241E+02  0.51100000000E-03 0.  1.
         12    1    3    3    0    0  0.63436802555E+00  0.35070165106E+02 -0.15937937880E+02  0.38527091342E+02  0.00000000000E+00 0. -1.
</event>
<event>
 7    1  0.3528441E-013  0.5930193E+02  0.7816164E-02  0.1266605E+00
        -11   -1    0    0    0    0  0.00000000000E+00  0.00000000000E+00  0.45593999997E+02  0.45594000000E+02  0.51100000000E-03 0.  1.
         11   -1    0    0    0    0 -0.00000000000E+00 -0.00000000000E+00 -0.45593999997E+02  0.45594000000E+02  0.51100000000E-03 0. -1.
    9900012    2    1    2    0    0 -0.29379369650E+02 -0.12101506449E+02 -0.26698216182E+01  0.59301925189E+02  0.49999965643E+02 0.  0.
        -12    1    1    2    0    0  0.29379369650E+02  0.12101506449E+02  0.26698216182E+01  0.31886074811E+02  0.00000000000E+00 0.  1.
         11    1    3    3    0    0 -0.26551583918E+02 -0.33732262969E+01 -0.14846666200E+02  0.30607005108E+02  0.51100000000E-03 0. -1.
        -11    1    3    3    0    0 -0.99069094053E+01  0.25452948380E+01 -0.59634175906E+00  0.10246023791E+02  0.51100000000E-03 0.  1.
        -12    1    3    3    0    0  0.70791236728E+01 -0.11273574990E+02  0.12773186340E+02  0.18448896290E+02  0.00000000000E+00 0.  1.
</event>
<event>
 7    1  0.3528441E-013  0.5930192E+02  0.7816164E-02  0.1266605E+00
        -11   -1    0    0    0    0  0.00000000000E+00  0.00000000000E+00  0.45593999997E+02  0.45594000000E+02  0.51100000000E-03 0. -1.
         11   -1    0    0    0    0 -0.00000000000E+00 -0.00000000000E+00 -0.45593999997E+02  0.45594000000E+02  0.51100000000E-03 0.  1.
    9900012    2    1    2    0    0 -0.28031029860E+02 -0.11104424080E+01  0.15157526475E+02  0.59301916418E+02  0.49999949646E+02 0.  0.
        -12    1    1    2    0    0  0.28031029860E+02  0.11104424080E+01 -0.15157526475E+02  0.31886083582E+02  0.00000000000E+00 0.  1.
         11    1    3    3    0    0  0.62436847746E+01  0.59205754589E+01  0.23577346822E+01  0.89216437062E+01  0.51100000000E-03 0. -1.
        -11    1    3    3    0    0  0.52131923018E+01  0.51900437936E+01  0.26257873698E+01  0.78108058565E+01  0.51100000000E-03 0.  1.
        -12    1    3    3    0    0 -0.39487906937E+02 -0.12221061660E+02  0.10174004423E+02  0.42569466855E+02  0.00000000000E+00 0.  1.
</event>
<event>
 7    1  0.3528441E-013  0.5930199E+02  0.7816164E-02  0.1266605E+00
        -11   -1    0    0    0    0  0.00000000000E+00  0.00000000000E+00  0.45593999997E+02  0.45594000000E+02  0.51100000000E-03 0.  1.
         11   -1    0    0    0    0 -0.00000000000E+00 -0.00000000000E+00 -0.45593999997E+02  0.45594000000E+02  0.51100000000E-03 0. -1.
    9900012    2    1    2    0    0 -0.81983464529E+01 -0.21227772138E+01 -0.30740833270E+02  0.59301985859E+02  0.50000076290E+02 0.  0.
        -12    1    1    2    0    0  0.81983464529E+01  0.21227772138E+01  0.30740833270E+02  0.31886014141E+02  0.00000000000E+00 0.  1.
         11    1    3    3    0    0  0.50040864505E+00 -0.10889180221E+02 -0.69204776348E+01  0.12911919518E+02  0.51100000000E-03 0. -1.
        -11    1    3    3    0    0  0.74982963318E+00 -0.76540499858E+01 -0.26191625728E+02  0.27297398854E+02  0.51100000000E-03 0.  1.
         12    1    3    3    0    0 -0.94485847312E+01  0.16420452993E+02  0.23712700926E+01  0.19092667487E+02  0.00000000000E+00 0. -1.
</event>
<event>
 7    1  0.3528441E-013  0.5930190E+02  0.7816164E-02  0.1266605E+00
        -11   -1    0    0    0    0  0.00000000000E+00  0.00000000000E+00  0.45593999997E+02  0.45594000000E+02  0.51100000000E-03 0. -1.
         11   -1    0    0    0    0 -0.00000000000E+00 -0.00000000000E+00 -0.45593999997E+02  0.45594000000E+02  0.51100000000E-03 0.  1.
    9900012    2    1    2    0    0 -0.18333359657E+02  0.25917278988E+02  0.29842868971E+01  0.59301899662E+02  0.49999919088E+02 0.  0.
        -12    1    1    2    0    0  0.18333359657E+02 -0.25917278988E+02 -0.29842868971E+01  0.31886100338E+02  0.00000000000E+00 0.  1.
         11    1    3    3    0    0 -0.12361704248E+01 -0.40264345669E+01  0.14096336745E+01  0.44415492790E+01  0.51100000000E-03 0. -1.
        -11    1    3    3    0    0 -0.52315967426E+01 -0.95342546285E+01 -0.67580330130E+01  0.12804008211E+02  0.51100000000E-03 0.  1.
        -12    1    3    3    0    0 -0.11865592489E+02  0.39477968184E+02  0.83326862356E+01  0.42056342173E+02  0.00000000000E+00 0.  1.
</event>
<event>
 7    1  0.3528441E-013  0.5930186E+02  0.7816164E-02  0.1266605E+00
        -11   -1    0    0    0    0  0.00000000000E+00  0.00000000000E+00  0.45593999997E+02  0.45594000000E+02  0.51100000000E-03 0.  1.
         11   -1    0    0    0    0 -0.00000000000E+00 -0.00000000000E+00 -0.45593999997E+02  0.45594000000E+02  0.51100000000E-03 0. -1.
    9900012    2    1    2    0    0 -0.44532848765E+01  0.11450878003E+02 -0.29423998410E+02  0.59301858251E+02  0.49999843563E+02 0.  0.
        -12    1    1    2    0    0  0.44532848765E+01 -0.11450878003E+02  0.29423998410E+02  0.31886141749E+02  0.00000000000E+00 0.  1.
         11    1    3    3    0    0  0.10182958538E+02  0.98087725532E+01 -0.12153872970E+02  0.18644604904E+02  0.51100000000E-03 0. -1.
        -11    1    3    3    0    0 -0.26244266957E+01 -0.27501779614E+01  0.99123151469E+01  0.10616265169E+02  0.51100000000E-03 0.  1.
         12    1    3    3    0    0 -0.12011816719E+02  0.43922834111E+01 -0.27182440587E+02  0.30040988178E+02  0.00000000000E+00 0. -1.
</event>
<event>
 7    1  0.3528441E-013  0.5930200E+02  0.7816164E-02  0.1266605E+00
        -11   -1    0    0    0    0  0.00000000000E+00  0.00000000000E+00  0.45593999997E+02  0.45594000000E+02  0.51100000000E-03 0.  1.
         11   -1    0    0    0    0 -0.00000000000E+00 -0.00000000000E+00 -0.45593999997E+02  0.45594000000E+02  0.51100000000E-03 0. -1.
    9900012    2    1    2    0    0  0.22379645906E+02  0.19596916956E+02 -0.11481686344E+02  0.59302002660E+02  0.50000106930E+02 0.  0.
        -12    1    1    2    0    0 -0.22379645906E+02 -0.19596916956E+02  0.11481686344E+02  0.31885997340E+02  0.00000000000E+00 0.  1.
         11    1    3    3    0    0 -0.39575702855E+01 -0.27691011722E+01  0.29872969717E+01  0.56792805289E+01  0.51100000000E-03 0. -1.
        -11    1    3    3    0    0 -0.50946977992E+01  0.19306961915E+02 -0.71128574763E+01  0.21196873963E+02  0.51100000000E-03 0.  1.
         12    1    3    3    0    0  0.31431913991E+02  0.30590562136E+01 -0.73561258394E+01  0.32425848168E+02  0.00000000000E+00 0. -1.
</event>
<event>
 7    1  0.3528441E-013  0.5930194E+02  0.7816164E-02  0.1266605E+00
        -11   -1    0    0    0    0  0.00000000000E+00  0.00000000000E+00  0.45593999997E+02  0.45594000000E+02  0.51100000000E-03 0.  1.
         11   -1    0    0    0    0 -0.00000000000E+00 -0.00000000000E+00 -0.45593999997E+02  0.45594000000E+02  0.51100000000E-03 0. -1.
    9900012    2    1    2    0    0  0.22902168248E+02 -0.13819408128E+02 -0.17356142955E+02  0.59301936434E+02  0.49999986150E+02 0.  0.
        -12    1    1    2    0    0 -0.22902168248E+02  0.13819408128E+02  0.17356142955E+02  0.31886063566E+02  0.00000000000E+00 0.  1.
         11    1    3    3    0    0  0.23267837304E+02 -0.69500870718E+01  0.22712912919E+01  0.24389643858E+02  0.51100000000E-03 0. -1.
        -11    1    3    3    0    0 -0.24465876865E+01 -0.15580966513E+02 -0.30415190842E+01  0.16062476378E+02  0.51100000000E-03 0.  1.
         12    1    3    3    0    0  0.20809186306E+01  0.87116454567E+01 -0.16585915163E+02  0.18849816198E+02  0.00000000000E+00 0. -1.
</event>
<event>
 7    1  0.3528441E-013  0.5930195E+02  0.7816164E-02  0.1266605E+00
        -11   -1    0    0    0    0  0.00000000000E+00  0.00000000000E+00  0.45593999997E+02  0.45594000000E+02  0.51100000000E-03 0.  1.
         11   -1    0    0    0    0 -0.00000000000E+00 -0.00000000000E+00 -0.45593999997E+02  0.45594000000E+02  0.51100000000E-03 0. -1.
    9900012    2    1    2    0    0 -0.32005420309E+01  0.31586425926E+02 -0.29621342423E+01  0.59301952717E+02  0.50000015847E+02 0.  0.
        -12    1    1    2    0    0  0.32005420309E+01 -0.31586425926E+02  0.29621342423E+01  0.31886047283E+02  0.00000000000E+00 0.  1.
         11    1    3    3    0    0 -0.79494817085E+00  0.14652180439E+02 -0.64085912101E+01  0.16012132143E+02  0.51100000000E-03 0. -1.
        -11    1    3    3    0    0 -0.17415106994E+02  0.21244226618E+02  0.10425696444E+01  0.27489817532E+02  0.51100000000E-03 0.  1.
         12    1    3    3    0    0  0.15009513134E+02 -0.43099811314E+01  0.24038873233E+01  0.15800003042E+02  0.00000000000E+00 0. -1.
</event>
<event>
 7    1  0.3528441E-013  0.5930196E+02  0.7816164E-02  0.1266605E+00
        -11   -1    0    0    0    0  0.00000000000E+00  0.00000000000E+00  0.45593999997E+02  0.45594000000E+02  0.51100000000E-03 0.  1.
         11   -1    0    0    0    0 -0.00000000000E+00 -0.00000000000E+00 -0.45593999997E+02  0.45594000000E+02  0.51100000000E-03 0. -1.
    9900012    2    1    2    0    0 -0.12953733003E+02  0.24876241310E+02 -0.15168825857E+02  0.59301955117E+02  0.50000020223E+02 0.  0.
        -12    1    1    2    0    0  0.12953733003E+02 -0.24876241310E+02  0.15168825857E+02  0.31886044883E+02  0.00000000000E+00 0.  1.
         11    1    3    3    0    0 -0.13208793596E+02  0.12886340708E+00 -0.10137893342E+02  0.16651297719E+02  0.51100000000E-03 0. -1.
        -11    1    3    3    0    0 -0.95715366495E+01  0.15686662768E+02  0.11280406199E+02  0.21562311261E+02  0.51100000000E-03 0.  1.
        -12    1    3    3    0    0  0.98265972423E+01  0.90607151344E+01 -0.16311338714E+02  0.21088346136E+02  0.00000000000E+00 0.  1.
</event>
<event>
 7    1  0.3528441E-013  0.5930195E+02  0.7816164E-02  0.1266605E+00
        -11   -1    0    0    0    0  0.00000000000E+00  0.00000000000E+00  0.45593999997E+02  0.45594000000E+02  0.51100000000E-03 0.  1.
         11   -1    0    0    0    0 -0.00000000000E+00 -0.00000000000E+00 -0.45593999997E+02  0.45594000000E+02  0.51100000000E-03 0. -1.
    9900012    2    1    2    0    0 -0.30199971710E+02  0.80307222630E+01 -0.63394988542E+01  0.59301952314E+02  0.50000015111E+02 0.  0.
        -12    1    1    2    0    0  0.30199971710E+02 -0.80307222630E+01  0.63394988542E+01  0.31886047686E+02  0.00000000000E+00 0.  1.
         11    1    3    3    0    0 -0.36781594761E+02  0.10301785382E+02 -0.74559070165E-01  0.38197094844E+02  0.51100000000E-03 0. -1.
        -11    1    3    3    0    0  0.21458840290E+01 -0.36260669351E+01  0.63745777531E+01  0.76412316727E+01  0.51100000000E-03 0.  1.
        -12    1    3    3    0    0  0.44357390225E+01  0.13550038162E+01 -0.12639517537E+02  0.13463625797E+02  0.00000000000E+00 0.  1.
</event>
<event>
 7    1  0.3528441E-013  0.5930189E+02  0.7816164E-02  0.1266605E+00
        -11   -1    0    0    0    0  0.00000000000E+00  0.00000000000E+00  0.45593999997E+02  0.45594000000E+02  0.51100000000E-03 0.  1.
         11   -1    0    0    0    0 -0.00000000000E+00 -0.00000000000E+00 -0.45593999997E+02  0.45594000000E+02  0.51100000000E-03 0. -1.
    9900012    2    1    2    0    0 -0.81833742282E+01 -0.21373996535E+02 -0.22201545238E+02  0.59301890915E+02  0.49999903134E+02 0.  0.
        -12    1    1    2    0    0  0.81833742282E+01  0.21373996535E+02  0.22201545238E+02  0.31886109085E+02  0.00000000000E+00 0.  1.
         11    1    3    3    0    0 -0.16730879397E+02 -0.12253290261E+02 -0.14044205723E+02  0.25046060814E+02  0.51100000000E-03 0. -1.
        -11    1    3    3    0    0  0.38500975162E+01 -0.86417753819E+01 -0.19662131616E+02  0.21819783513E+02  0.51100000000E-03 0.  1.
        -12    1    3    3    0    0  0.46974076529E+01 -0.47893089174E+00  0.11504792100E+02  0.12436046588E+02  0.00000000000E+00 0.  1.
</event>
<event>
 7    1  0.3528441E-013  0.5930194E+02  0.7816164E-02  0.1266605E+00
        -11   -1    0    0    0    0  0.00000000000E+00  0.00000000000E+00  0.45593999997E+02  0.45594000000E+02  0.51100000000E-03 0. -1.
         11   -1    0    0    0    0 -0.00000000000E+00 -0.00000000000E+00 -0.45593999997E+02  0.45594000000E+02  0.51100000000E-03 0.  1.
    9900012    2    1    2    0    0  0.12256634416E+02  0.18119479664E+02 -0.23198710394E+02  0.59301940437E+02  0.49999993451E+02 0.  0.
        -12    1    1    2    0    0 -0.12256634416E+02 -0.18119479664E+02  0.23198710394E+02  0.31886059563E+02  0.00000000000E+00 0.  1.
         11    1    3    3    0    0  0.40954644934E+01 -0.25642561147E+01  0.50371532085E-01  0.48322641061E+01  0.51100000000E-03 0. -1.
        -11    1    3    3    0    0 -0.80099631376E+01 -0.10552613649E+02 -0.20629932675E+01  0.13407949350E+02  0.51100000000E-03 0.  1.
        -12    1    3    3    0    0  0.16171133060E+02  0.31236349427E+02 -0.21186088659E+02  0.41061726981E+02  0.00000000000E+00 0.  1.
</event>
<event>
 7    1  0.3528441E-013  0.5930194E+02  0.7816164E-02  0.1266605E+00
        -11   -1    0    0    0    0  0.00000000000E+00  0.00000000000E+00  0.45593999997E+02  0.45594000000E+02  0.51100000000E-03 0.  1.
         11   -1    0    0    0    0 -0.00000000000E+00 -0.00000000000E+00 -0.45593999997E+02  0.45594000000E+02  0.51100000000E-03 0. -1.
    9900012    2    1    2    0    0  0.15926044267E+02  0.26677824984E+02  0.71676553888E+01  0.59301944809E+02  0.50000001425E+02 0.  0.
        -12    1    1    2    0    0 -0.15926044267E+02 -0.26677824984E+02 -0.71676553888E+01  0.31886055191E+02  0.00000000000E+00 0.  1.
         11    1    3    3    0    0  0.16445492382E+02  0.17744047048E+01 -0.38157186710E+01  0.16975348037E+02  0.51100000000E-03 0. -1.
        -11    1    3    3    0    0  0.70615642540E+01  0.25363816327E+02 -0.29140285905E+01  0.26489251240E+02  0.51100000000E-03 0.  1.
        -12    1    3    3    0    0 -0.75810123695E+01 -0.46039604733E+00  0.13897402650E+02  0.15837345532E+02  0.00000000000E+00 0.  1.
</event>
<event>
 7    1  0.3528441E-013  0.5930196E+02  0.7816164E-02  0.1266605E+00
        -11   -1    0    0    0    0  0.00000000000E+00  0.00000000000E+00  0.45593999997E+02  0.45594000000E+02  0.51100000000E-03 0.  1.
         11   -1    0    0    0    0 -0.00000000000E+00 -0.00000000000E+00 -0.45593999997E+02  0.45594000000E+02  0.51100000000E-03 0. -1.
    9900012    2    1    2    0    0 -0.23743883909E+02 -0.14253548350E+02  0.15804555399E+02  0.59301958618E+02  0.50000026609E+02 0.  0.
        -12    1    1    2    0    0  0.23743883909E+02  0.14253548350E+02 -0.15804555399E+02  0.31886041382E+02  0.00000000000E+00 0.  1.
         11    1    3    3    0    0  0.29933438964E+01  0.33225332582E+01 -0.60922778939E+01  0.75574589070E+01  0.51100000000E-03 0. -1.
        -11    1    3    3    0    0  0.47896829219E+01  0.20150170524E+01  0.12379156011E+02  0.13425530158E+02  0.51100000000E-03 0.  1.
        -12    1    3    3    0    0 -0.31526910728E+02 -0.19591098661E+02  0.95176772821E+01  0.38318969553E+02  0.00000000000E+00 0.  1.
</event>
<event>
 7    1  0.3528441E-013  0.5930194E+02  0.7816164E-02  0.1266605E+00
        -11   -1    0    0    0    0  0.00000000000E+00  0.00000000000E+00  0.45593999997E+02  0.45594000000E+02  0.51100000000E-03 0.  1.
         11   -1    0    0    0    0 -0.00000000000E+00 -0.00000000000E+00 -0.45593999997E+02  0.45594000000E+02  0.51100000000E-03 0. -1.
    9900012    2    1    2    0    0  0.10544989258E+02 -0.15249502917E+02 -0.25941797510E+02  0.59301937281E+02  0.49999987696E+02 0.  0.
        -12    1    1    2    0    0 -0.10544989258E+02  0.15249502917E+02  0.25941797510E+02  0.31886062719E+02  0.00000000000E+00 0.  1.
         11    1    3    3    0    0  0.22037683804E+01 -0.10130127603E+02 -0.29620072740E+01  0.10781909278E+02  0.51100000000E-03 0. -1.
        -11    1    3    3    0    0 -0.59571519814E+01 -0.20727043918E+02 -0.11601469239E+02  0.24488611599E+02  0.51100000000E-03 0.  1.
         12    1    3    3    0    0  0.14298372859E+02  0.15607668604E+02 -0.11378320997E+02  0.24031416404E+02  0.00000000000E+00 0. -1.
</event>
<event>
 7    1  0.3528441E-013  0.5930194E+02  0.7816164E-02  0.1266605E+00
        -11   -1    0    0    0    0  0.00000000000E+00  0.00000000000E+00  0.45593999997E+02  0.45594000000E+02  0.51100000000E-03 0.  1.
         11   -1    0    0    0    0 -0.00000000000E+00 -0.00000000000E+00 -0.45593999997E+02  0.45594000000E+02  0.51100000000E-03 0. -1.
    9900012    2    1    2    0    0  0.21406016518E+02 -0.21909190983E+02 -0.88595050710E+01  0.59301936856E+02  0.49999986921E+02 0.  0.
        -12    1    1    2    0    0 -0.21406016518E+02  0.21909190983E+02  0.88595050710E+01  0.31886063144E+02  0.00000000000E+00 0.  1.
         11    1    3    3    0    0  0.14829486128E+02 -0.11873484807E+02  0.36938691178E+00  0.19000782806E+02  0.51100000000E-03 0.  1.
        -11    1    3    3    0    0 -0.14885397449E+02 -0.93032429421E+01 -0.21220954865E+01  0.17681308661E+02  0.51100000000E-03 0. -1.
         12    1    3    3    0    0  0.21461927840E+02 -0.73246323339E+00 -0.71067964962E+01  0.22619845389E+02  0.00000000000E+00 0. -1.
</event>
<event>
 7    1  0.3528441E-013  0.5930195E+02  0.7816164E-02  0.1266605E+00
        -11   -1    0    0    0    0  0.00000000000E+00  0.00000000000E+00  0.45593999997E+02  0.45594000000E+02  0.51100000000E-03 0.  1.
         11   -1    0    0    0    0 -0.00000000000E+00 -0.00000000000E+00 -0.45593999997E+02  0.45594000000E+02  0.51100000000E-03 0. -1.
    9900012    2    1    2    0    0  0.12536924478E+02 -0.11472664997E+01 -0.29295558615E+02  0.59301945833E+02  0.50000003292E+02 0.  0.
        -12    1    1    2    0    0 -0.12536924478E+02  0.11472664997E+01  0.29295558615E+02  0.31886054167E+02  0.00000000000E+00 0.  1.
         11    1    3    3    0    0  0.10122551062E+02 -0.40566887859E-01 -0.32091354812E+02  0.33650003560E+02  0.51100000000E-03 0.  1.
        -11    1    3    3    0    0  0.98900460741E+01 -0.56528880079E+01 -0.63111490404E+01  0.13023008740E+02  0.51100000000E-03 0. -1.
        -12    1    3    3    0    0 -0.74756726577E+01  0.45461883961E+01  0.91069452374E+01  0.12628933533E+02  0.00000000000E+00 0.  1.
</event>
<event>
 7    1  0.3528441E-013  0.5930202E+02  0.7816164E-02  0.1266604E+00
        -11   -1    0    0    0    0  0.00000000000E+00  0.00000000000E+00  0.45593999997E+02  0.45594000000E+02  0.51100000000E-03 0.  1.
         11   -1    0    0    0    0 -0.00000000000E+00 -0.00000000000E+00 -0.45593999997E+02  0.45594000000E+02  0.51100000000E-03 0. -1.
    9900012    2    1    2    0    0  0.62709319452E+01 -0.23526663482E+02 -0.20588523001E+02  0.59302019359E+02  0.50000137386E+02 0.  0.
        -12    1    1    2    0    0 -0.62709319452E+01  0.23526663482E+02  0.20588523001E+02  0.31885980641E+02  0.00000000000E+00 0.  1.
         11    1    3    3    0    0 -0.10872443178E+02 -0.70873135159E+01  0.69614302106E+01  0.14727577682E+02  0.51100000000E-03 0. -1.
        -11    1    3    3    0    0 -0.53968191010E+01 -0.26981854365E+01  0.50181076926E+00  0.60545582306E+01  0.51100000000E-03 0.  1.
         12    1    3    3    0    0  0.22540194224E+02 -0.13741164530E+02 -0.28051763981E+02  0.38519883447E+02  0.00000000000E+00 0. -1.
</event>
<event>
 7    1  0.3528441E-013  0.5930194E+02  0.7816164E-02  0.1266605E+00
        -11   -1    0    0    0    0  0.00000000000E+00  0.00000000000E+00  0.45593999997E+02  0.45594000000E+02  0.51100000000E-03 0.  1.
         11   -1    0    0    0    0 -0.00000000000E+00 -0.00000000000E+00 -0.45593999997E+02  0.45594000000E+02  0.51100000000E-03 0. -1.
    9900012    2    1    2    0    0  0.24001832842E+02  0.18774104269E+02  0.93896626975E+01  0.59301941346E+02  0.49999995110E+02 0.  0.
        -12    1    1    2    0    0 -0.24001832842E+02 -0.18774104269E+02 -0.93896626975E+01  0.31886058654E+02  0.00000000000E+00 0.  1.
         11    1    3    3    0    0  0.73986212518E+01  0.68639978081E+01 -0.18933457178E+02  0.21455299190E+02  0.51100000000E-03 0. -1.
        -11    1    3    3    0    0  0.31229804036E+01 -0.32024190868E+01  0.28470364866E+01  0.53022741938E+01  0.51100000000E-03 0.  1.
         12    1    3    3    0    0  0.13480231187E+02  0.15112525547E+02  0.25476083389E+02  0.32544367963E+02  0.00000000000E+00 0. -1.
</event>
<event>
 7    1  0.3528441E-013  0.5930194E+02  0.7816164E-02  0.1266605E+00
        -11   -1    0    0    0    0  0.00000000000E+00  0.00000000000E+00  0.45593999997E+02  0.45594000000E+02  0.51100000000E-03 0. -1.
         11   -1    0    0    0    0 -0.00000000000E+00 -0.00000000000E+00 -0.45593999997E+02  0.45594000000E+02  0.51100000000E-03 0.  1.
    9900012    2    1    2    0    0 -0.48488909745E+00 -0.12362358549E+02  0.29388052987E+02  0.59301942158E+02  0.49999996590E+02 0.  0.
        -12    1    1    2    0    0  0.48488909745E+00  0.12362358549E+02 -0.29388052987E+02  0.31886057842E+02  0.00000000000E+00 0.  1.
         11    1    3    3    0    0 -0.11547519726E+02 -0.10140518608E+02  0.31467159131E+02  0.35019386538E+02  0.51100000000E-03 0. -1.
        -11    1    3    3    0    0 -0.54309021261E+01 -0.14049006731E+01  0.37753115613E+01  0.67617617121E+01  0.51100000000E-03 0.  1.
        -12    1    3    3    0    0  0.16493532755E+02 -0.81693926716E+00 -0.58544177050E+01  0.17520793908E+02  0.00000000000E+00 0.  1.
</event>
<event>
 7    1  0.3528441E-013  0.5930197E+02  0.7816164E-02  0.1266605E+00
        -11   -1    0    0    0    0  0.00000000000E+00  0.00000000000E+00  0.45593999997E+02  0.45594000000E+02  0.51100000000E-03 0.  1.
         11   -1    0    0    0    0 -0.00000000000E+00 -0.00000000000E+00 -0.45593999997E+02  0.45594000000E+02  0.51100000000E-03 0. -1.
    9900012    2    1    2    0    0 -0.31454073648E+02  0.17995849110E+01  0.49113716055E+01  0.59301971305E+02  0.50000049747E+02 0.  0.
        -12    1    1    2    0    0  0.31454073648E+02 -0.17995849110E+01 -0.49113716055E+01  0.31886028695E+02  0.00000000000E+00 0.  1.
         11    1    3    3    0    0 -0.36883473197E+02 -0.14230875695E+02 -0.22993630472E+01  0.39600448088E+02  0.51100000000E-03 0. -1.
        -11    1    3    3    0    0  0.43289692111E+00  0.99091196463E+01  0.16880365306E+01  0.10061188772E+02  0.51100000000E-03 0.  1.
        -12    1    3    3    0    0  0.49965026281E+01  0.61213409600E+01  0.55226981221E+01  0.96403344449E+01  0.00000000000E+00 0.  1.
</event>
<event>
 7    1  0.3528441E-013  0.5930194E+02  0.7816164E-02  0.1266605E+00
        -11   -1    0    0    0    0  0.00000000000E+00  0.00000000000E+00  0.45593999997E+02  0.45594000000E+02  0.51100000000E-03 0.  1.
         11   -1    0    0    0    0 -0.00000000000E+00 -0.00000000000E+00 -0.45593999997E+02  0.45594000000E+02  0.51100000000E-03 0. -1.
    9900012    2    1    2    0    0 -0.18922216945E+02  0.12192531655E+02 -0.22583458919E+02  0.59301941307E+02  0.49999995037E+02 0.  0.
        -12    1    1    2    0    0  0.18922216945E+02 -0.12192531655E+02  0.22583458919E+02  0.31886058693E+02  0.00000000000E+00 0.  1.
         11    1    3    3    0    0 -0.66614327535E+01  0.10487205655E+02  0.46867336008E+01  0.13278615925E+02  0.51100000000E-03 0. -1.
        -11    1    3    3    0    0 -0.46557490289E+01  0.95001983847E+01  0.51906454900E+01  0.11784420615E+02  0.51100000000E-03 0.  1.
         12    1    3    3    0    0 -0.76050351623E+01 -0.77948723847E+01 -0.32460838009E+02  0.34238904766E+02  0.00000000000E+00 0. -1.
</event>
<event>
 7    1  0.3528441E-013  0.5930192E+02  0.7816164E-02  0.1266605E+00
        -11   -1    0    0    0    0  0.00000000000E+00  0.00000000000E+00  0.45593999997E+02  0.45594000000E+02  0.51100000000E-03 0. -1.
         11   -1    0    0    0    0 -0.00000000000E+00 -0.00000000000E+00 -0.45593999997E+02  0.45594000000E+02  0.51100000000E-03 0.  1.
    9900012    2    1    2    0    0 -0.21402038396E+02 -0.39685331059E+01  0.23300761792E+02  0.59301921492E+02  0.49999958900E+02 0.  0.
        -12    1    1    2    0    0  0.21402038396E+02  0.39685331059E+01 -0.23300761792E+02  0.31886078508E+02  0.00000000000E+00 0.  1.
         11    1    3    3    0    0  0.10181509114E+02 -0.19685158055E+01 -0.29972443275E+01  0.10794519727E+02  0.51100000000E-03 0. -1.
        -11    1    3    3    0    0 -0.11708213972E+02 -0.12435308338E+02  0.56030243540E+01  0.17975345617E+02  0.51100000000E-03 0.  1.
        -12    1    3    3    0    0 -0.19875333538E+02  0.10435291038E+02  0.20694981766E+02  0.30532056147E+02  0.00000000000E+00 0.  1.
</event>
<event>
 7    1  0.3528441E-013  0.5930188E+02  0.7816164E-02  0.1266605E+00
        -11   -1    0    0    0    0  0.00000000000E+00  0.00000000000E+00  0.45593999997E+02  0.45594000000E+02  0.51100000000E-03 0.  1.
         11   -1    0    0    0    0 -0.00000000000E+00 -0.00000000000E+00 -0.45593999997E+02  0.45594000000E+02  0.51100000000E-03 0. -1.
    9900012    2    1    2    0    0  0.11612312561E+02  0.62096751911E+01 -0.29039956260E+02  0.59301875611E+02  0.49999875224E+02 0.  0.
        -12    1    1    2    0    0 -0.11612312561E+02 -0.62096751911E+01  0.29039956260E+02  0.31886124389E+02  0.00000000000E+00 0.  1.
         11    1    3    3    0    0  0.14727072276E+02  0.18877922295E+02 -0.26715383892E+02  0.35874424661E+02  0.51100000000E-03 0. -1.
        -11    1    3    3    0    0  0.20263513311E+01 -0.56398673136E+01 -0.10106001567E+02  0.11749275337E+02  0.51100000000E-03 0.  1.
        -12    1    3    3    0    0 -0.51411110463E+01 -0.70283797906E+01  0.77814291980E+01  0.11678175612E+02  0.00000000000E+00 0.  1.
</event>
<event>
 7    1  0.3528441E-013  0.5930189E+02  0.7816164E-02  0.1266605E+00
        -11   -1    0    0    0    0  0.00000000000E+00  0.00000000000E+00  0.45593999997E+02  0.45594000000E+02  0.51100000000E-03 0. -1.
         11   -1    0    0    0    0 -0.00000000000E+00 -0.00000000000E+00 -0.45593999997E+02  0.45594000000E+02  0.51100000000E-03 0.  1.
    9900012    2    1    2    0    0  0.44159250785E+01 -0.29652372899E+02  0.10860950677E+02  0.59301892328E+02  0.49999905713E+02 0.  0.
        -12    1    1    2    0    0 -0.44159250785E+01  0.29652372899E+02 -0.10860950677E+02  0.31886107672E+02  0.00000000000E+00 0.  1.
         11    1    3    3    0    0  0.13559700058E+02 -0.32232192325E+00  0.37672190937E+01  0.14076977554E+02  0.51100000000E-03 0. -1.
        -11    1    3    3    0    0  0.81443888946E+01 -0.50128000564E+01  0.11617608159E+02  0.15047526523E+02  0.51100000000E-03 0.  1.
        -12    1    3    3    0    0 -0.17288163874E+02 -0.24317250919E+02 -0.45238765758E+01  0.30177388251E+02  0.00000000000E+00 0.  1.
</event>
<event>
 7    1  0.3528441E-013  0.5930202E+02  0.7816164E-02  0.1266604E+00
        -11   -1    0    0    0    0  0.00000000000E+00  0.00000000000E+00  0.45593999997E+02  0.45594000000E+02  0.51100000000E-03 0.  1.
         11   -1    0    0    0    0 -0.00000000000E+00 -0.00000000000E+00 -0.45593999997E+02  0.45594000000E+02  0.51100000000E-03 0. -1.
    9900012    2    1    2    0    0  0.27501293623E+00 -0.18726776148E+02 -0.25805966407E+02  0.59302020649E+02  0.50000139738E+02 0.  0.
        -12    1    1    2    0    0 -0.27501293623E+00  0.18726776148E+02  0.25805966407E+02  0.31885979351E+02  0.00000000000E+00 0.  1.
         11    1    3    3    0    0 -0.66432339315E+01 -0.74554144458E+00 -0.16978743562E+02  0.18247359325E+02  0.51100000000E-03 0. -1.
        -11    1    3    3    0    0 -0.12741778602E+02 -0.27843053992E+01  0.32280135522E+01  0.13435972248E+02  0.51100000000E-03 0.  1.
         12    1    3    3    0    0  0.19660025469E+02 -0.15196929304E+02 -0.12055236397E+02  0.27618689076E+02  0.00000000000E+00 0. -1.
</event>
<event>
 7    1  0.3528441E-013  0.5930195E+02  0.7816164E-02  0.1266605E+00
        -11   -1    0    0    0    0  0.00000000000E+00  0.00000000000E+00  0.45593999997E+02  0.45594000000E+02  0.51100000000E-03 0. -1.
         11   -1    0    0    0    0 -0.00000000000E+00 -0.00000000000E+00 -0.45593999997E+02  0.45594000000E+02  0.51100000000E-03 0.  1.
    9900012    2    1    2    0    0  0.19698869839E+02 -0.21682352738E+02 -0.12591673516E+02  0.59301950776E+02  0.50000012308E+02 0.  0.
        -12    1    1    2    0    0 -0.19698869839E+02  0.21682352738E+02  0.12591673516E+02  0.31886049224E+02  0.00000000000E+00 0.  1.
         11    1    3    3    0    0  0.20904402209E+02 -0.53169230047E+00  0.10181601361E+02  0.23258154160E+02  0.51100000000E-03 0. -1.
        -11    1    3    3    0    0  0.80896647568E+01 -0.60252293833E+01 -0.97218679180E+01  0.14009310514E+02  0.51100000000E-03 0.  1.
        -12    1    3    3    0    0 -0.92951971267E+01 -0.15125431054E+02 -0.13051406958E+02  0.22034486102E+02  0.00000000000E+00 0.  1.
</event>
<event>
 7    1  0.3528441E-013  0.5930201E+02  0.7816164E-02  0.1266605E+00
        -11   -1    0    0    0    0  0.00000000000E+00  0.00000000000E+00  0.45593999997E+02  0.45594000000E+02  0.51100000000E-03 0.  1.
         11   -1    0    0    0    0 -0.00000000000E+00 -0.00000000000E+00 -0.45593999997E+02  0.45594000000E+02  0.51100000000E-03 0. -1.
    9900012    2    1    2    0    0  0.18171129342E+01  0.77582710515E+01 -0.30874319275E+02  0.59302011544E+02  0.50000123133E+02 0.  0.
        -12    1    1    2    0    0 -0.18171129342E+01 -0.77582710515E+01  0.30874319275E+02  0.31885988456E+02  0.00000000000E+00 0.  1.
         11    1    3    3    0    0  0.12775159195E+02  0.59493431917E+01 -0.20367658991E+02  0.24767739297E+02  0.51100000000E-03 0. -1.
        -11    1    3    3    0    0  0.47674227425E+01  0.12721751232E+02 -0.61010219397E+01  0.14892741285E+02  0.51100000000E-03 0.  1.
        -12    1    3    3    0    0 -0.15725469003E+02 -0.10912823372E+02 -0.44056383441E+01  0.19641530962E+02  0.00000000000E+00 0.  1.
</event>
<event>
 7    1  0.3528441E-013  0.5930195E+02  0.7816164E-02  0.1266605E+00
        -11   -1    0    0    0    0  0.00000000000E+00  0.00000000000E+00  0.45593999997E+02  0.45594000000E+02  0.51100000000E-03 0. -1.
         11   -1    0    0    0    0 -0.00000000000E+00 -0.00000000000E+00 -0.45593999997E+02  0.45594000000E+02  0.51100000000E-03 0.  1.
    9900012    2    1    2    0    0  0.88584469996E+01  0.30608550763E+02 -0.11681734865E+01  0.59301951447E+02  0.50000013531E+02 0.  0.
        -12    1    1    2    0    0 -0.88584469996E+01 -0.30608550763E+02  0.11681734865E+01  0.31886048553E+02  0.00000000000E+00 0.  1.
         11    1    3    3    0    0 -0.68462579036E+01  0.76027607803E+01  0.15806356007E+02  0.18828545064E+02  0.51100000000E-03 0. -1.
        -11    1    3    3    0    0 -0.22823870339E+01  0.82308392858E+01  0.37300119974E+01  0.93203538389E+01  0.51100000000E-03 0.  1.
        -12    1    3    3    0    0  0.17987091937E+02  0.14774950697E+02 -0.20704541491E+02  0.31153052544E+02  0.00000000000E+00 0.  1.
</event>
<event>
 7    1  0.3528441E-013  0.5930196E+02  0.7816164E-02  0.1266605E+00
        -11   -1    0    0    0    0  0.00000000000E+00  0.00000000000E+00  0.45593999997E+02  0.45594000000E+02  0.51100000000E-03 0.  1.
         11   -1    0    0    0    0 -0.00000000000E+00 -0.00000000000E+00 -0.45593999997E+02  0.45594000000E+02  0.51100000000E-03 0. -1.
    9900012    2    1    2    0    0 -0.46653127384E+01  0.30780271222E+02 -0.68941625122E+01  0.59301957345E+02  0.50000024288E+02 0.  0.
        -12    1    1    2    0    0  0.46653127384E+01 -0.30780271222E+02  0.68941625122E+01  0.31886042655E+02  0.00000000000E+00 0.  1.
         11    1    3    3    0    0  0.54971852666E+01  0.23887749273E+02 -0.15477829896E+02  0.28989771122E+02  0.51100000000E-03 0. -1.
        -11    1    3    3    0    0 -0.15099355214E+01  0.11309726266E+02 -0.59208553372E+01  0.12854817840E+02  0.51100000000E-03 0.  1.
        -12    1    3    3    0    0 -0.86525624836E+01 -0.44172043170E+01  0.14504522721E+02  0.17457368383E+02  0.00000000000E+00 0.  1.
</event>
<event>
 7    1  0.3528441E-013  0.5930203E+02  0.7816164E-02  0.1266604E+00
        -11   -1    0    0    0    0  0.00000000000E+00  0.00000000000E+00  0.45593999997E+02  0.45594000000E+02  0.51100000000E-03 0.  1.
         11   -1    0    0    0    0 -0.00000000000E+00 -0.00000000000E+00 -0.45593999997E+02  0.45594000000E+02  0.51100000000E-03 0. -1.
    9900012    2    1    2    0    0 -0.11389464737E+02  0.27870478322E+02 -0.10499116412E+02  0.59302032643E+02  0.50000161612E+02 0.  0.
        -12    1    1    2    0    0  0.11389464737E+02 -0.27870478322E+02  0.10499116412E+02  0.31885967357E+02  0.00000000000E+00 0.  1.
         11    1    3    3    0    0 -0.31697872558E+01  0.11010207440E+01  0.15850676316E+01  0.37110965473E+01  0.51100000000E-03 0. -1.
        -11    1    3    3    0    0  0.43200448378E+01  0.20741913757E+01  0.15666938144E+02  0.16383467530E+02  0.51100000000E-03 0.  1.
         12    1    3    3    0    0 -0.12539722319E+02  0.24695266202E+02 -0.27751122187E+02  0.39207468565E+02  0.00000000000E+00 0. -1.
</event>
<event>
 7    1  0.3528441E-013  0.5930189E+02  0.7816164E-02  0.1266605E+00
        -11   -1    0    0    0    0  0.00000000000E+00  0.00000000000E+00  0.45593999997E+02  0.45594000000E+02  0.51100000000E-03 0.  1.
         11   -1    0    0    0    0 -0.00000000000E+00 -0.00000000000E+00 -0.45593999997E+02  0.45594000000E+02  0.51100000000E-03 0. -1.
    9900012    2    1    2    0    0 -0.14286791460E+02  0.19194230801E+02 -0.21075892384E+02  0.59301887882E+02  0.49999897603E+02 0.  0.
        -12    1    1    2    0    0  0.14286791460E+02 -0.19194230801E+02  0.21075892384E+02  0.31886112118E+02  0.00000000000E+00 0.  1.
         11    1    3    3    0    0  0.29774654449E+01  0.32222274500E+01  0.21098120652E+01  0.48681985812E+01  0.51100000000E-03 0. -1.
        -11    1    3    3    0    0 -0.24510961956E+02  0.14718860586E+02  0.15451790206E+01  0.28632493629E+02  0.51100000000E-03 0.  1.
         12    1    3    3    0    0  0.72467050512E+01  0.12531427648E+01 -0.24730883470E+02  0.25801195672E+02  0.00000000000E+00 0. -1.
</event>
<event>
 7    1  0.3528441E-013  0.5930194E+02  0.7816164E-02  0.1266605E+00
        -11   -1    0    0    0    0  0.00000000000E+00  0.00000000000E+00  0.45593999997E+02  0.45594000000E+02  0.51100000000E-03 0. -1.
         11   -1    0    0    0    0 -0.00000000000E+00 -0.00000000000E+00 -0.45593999997E+02  0.45594000000E+02  0.51100000000E-03 0.  1.
    9900012    2    1    2    0    0  0.11591297755E+02  0.18891912554E+02  0.22922882590E+02  0.59301935806E+02  0.49999985005E+02 0.  0.
        -12    1    1    2    0    0 -0.11591297755E+02 -0.18891912554E+02 -0.22922882590E+02  0.31886064194E+02  0.00000000000E+00 0.  1.
         11    1    3    3    0    0 -0.69125976485E+01  0.14421218720E+02  0.21631377673E+02  0.26901153431E+02  0.51100000000E-03 0. -1.
        -11    1    3    3    0    0  0.77306841023E+01  0.37000645061E+01  0.13568743527E+02  0.16048824107E+02  0.51100000000E-03 0.  1.
        -12    1    3    3    0    0  0.10773211301E+02  0.77062932759E+00 -0.12277238610E+02  0.16351958268E+02  0.00000000000E+00 0.  1.
</event>
<event>
 7    1  0.3528441E-013  0.5930194E+02  0.7816164E-02  0.1266605E+00
        -11   -1    0    0    0    0  0.00000000000E+00  0.00000000000E+00  0.45593999997E+02  0.45594000000E+02  0.51100000000E-03 0. -1.
         11   -1    0    0    0    0 -0.00000000000E+00 -0.00000000000E+00 -0.45593999997E+02  0.45594000000E+02  0.51100000000E-03 0.  1.
    9900012    2    1    2    0    0 -0.10025014779E+02  0.26104346636E+02  0.15322625268E+02  0.59301942236E+02  0.49999996733E+02 0.  0.
        -12    1    1    2    0    0  0.10025014779E+02 -0.26104346636E+02 -0.15322625268E+02  0.31886057764E+02  0.00000000000E+00 0.  1.
         11    1    3    3    0    0  0.45814909032E+01 -0.53487997806E+01 -0.18478533378E+01  0.72810905919E+01  0.51100000000E-03 0. -1.
        -11    1    3    3    0    0  0.22893934459E+01  0.21835387739E+02 -0.50167204475E+01  0.22520945015E+02  0.51100000000E-03 0.  1.
        -12    1    3    3    0    0 -0.16895899128E+02  0.96177586780E+01  0.22187199053E+02  0.29499906629E+02  0.00000000000E+00 0.  1.
</event>
<event>
 7    1  0.3528441E-013  0.5930194E+02  0.7816164E-02  0.1266605E+00
        -11   -1    0    0    0    0  0.00000000000E+00  0.00000000000E+00  0.45593999997E+02  0.45594000000E+02  0.51100000000E-03 0.  1.
         11   -1    0    0    0    0 -0.00000000000E+00 -0.00000000000E+00 -0.45593999997E+02  0.45594000000E+02  0.51100000000E-03 0. -1.
    9900012    2    1    2    0    0  0.16324307750E+01 -0.21098665162E+02 -0.23851678911E+02  0.59301935823E+02  0.49999985036E+02 0.  0.
        -12    1    1    2    0    0 -0.16324307750E+01  0.21098665162E+02  0.23851678911E+02  0.31886064177E+02  0.00000000000E+00 0.  1.
         11    1    3    3    0    0 -0.14552846606E+02 -0.30799346768E+01 -0.20473401461E+02  0.25306748301E+02  0.51100000000E-03 0. -1.
        -11    1    3    3    0    0 -0.53585172532E+01 -0.48763088980E+00  0.19314003559E+01  0.57167996846E+01  0.51100000000E-03 0.  1.
        -12    1    3    3    0    0  0.21543794634E+02 -0.17531099595E+02 -0.53096778057E+01  0.28278387837E+02  0.00000000000E+00 0.  1.
</event>
<event>
 7    1  0.3528441E-013  0.5930194E+02  0.7816164E-02  0.1266605E+00
        -11   -1    0    0    0    0  0.00000000000E+00  0.00000000000E+00  0.45593999997E+02  0.45594000000E+02  0.51100000000E-03 0.  1.
         11   -1    0    0    0    0 -0.00000000000E+00 -0.00000000000E+00 -0.45593999997E+02  0.45594000000E+02  0.51100000000E-03 0. -1.
    9900012    2    1    2    0    0  0.31448592340E+02  0.29602267268E+01  0.43524585388E+01  0.59301940385E+02  0.49999993356E+02 0.  0.
        -12    1    1    2    0    0 -0.31448592340E+02 -0.29602267268E+01 -0.43524585388E+01  0.31886059615E+02  0.00000000000E+00 0.  1.
         11    1    3    3    0    0  0.20268773265E+01 -0.45903091005E+01  0.50447255276E+01  0.71153654330E+01  0.51100000000E-03 0. -1.
        -11    1    3    3    0    0 -0.50032856425E+01 -0.59662296120E+00 -0.13620256557E+02  0.14522403903E+02  0.51100000000E-03 0.  1.
         12    1    3    3    0    0  0.34425000656E+02  0.81471587885E+01  0.12927989569E+02  0.37664171049E+02  0.00000000000E+00 0. -1.
</event>
<event>
 7    1  0.3528441E-013  0.5930194E+02  0.7816164E-02  0.1266605E+00
        -11   -1    0    0    0    0  0.00000000000E+00  0.00000000000E+00  0.45593999997E+02  0.45594000000E+02  0.51100000000E-03 0.  1.
         11   -1    0    0    0    0 -0.00000000000E+00 -0.00000000000E+00 -0.45593999997E+02  0.45594000000E+02  0.51100000000E-03 0. -1.
    9900012    2    1    2    0    0 -0.17345471715E+02 -0.62578246762E+00 -0.26748150009E+02  0.59301944715E+02  0.50000001254E+02 0.  0.
        -12    1    1    2    0    0  0.17345471715E+02  0.62578246762E+00  0.26748150009E+02  0.31886055285E+02  0.00000000000E+00 0.  1.
         11    1    3    3    0    0 -0.32578109602E+01  0.14544129822E+02 -0.60817635788E+01  0.16097605195E+02  0.51100000000E-03 0. -1.
        -11    1    3    3    0    0  0.10200804950E+02 -0.24047841929E+01 -0.63736860524E+01  0.12266347574E+02  0.51100000000E-03 0.  1.
        -12    1    3    3    0    0 -0.24288465704E+02 -0.12765128097E+02 -0.14292700378E+02  0.30937991947E+02  0.00000000000E+00 0.  1.
</event>
<event>
 7    1  0.3528441E-013  0.5930192E+02  0.7816164E-02  0.1266605E+00
        -11   -1    0    0    0    0  0.00000000000E+00  0.00000000000E+00  0.45593999997E+02  0.45594000000E+02  0.51100000000E-03 0.  1.
         11   -1    0    0    0    0 -0.00000000000E+00 -0.00000000000E+00 -0.45593999997E+02  0.45594000000E+02  0.51100000000E-03 0. -1.
    9900012    2    1    2    0    0 -0.77336507381E+01  0.25849086562E+02 -0.16992282225E+02  0.59301917064E+02  0.49999950824E+02 0.  0.
        -12    1    1    2    0    0  0.77336507381E+01 -0.25849086562E+02  0.16992282225E+02  0.31886082936E+02  0.00000000000E+00 0.  1.
         11    1    3    3    0    0 -0.10507379631E+02  0.11333212402E+02 -0.23121439023E+01  0.15626667582E+02  0.51100000000E-03 0. -1.
        -11    1    3    3    0    0  0.16330949727E+02  0.69078568645E+01  0.51623356491E+01  0.18468029539E+02  0.51100000000E-03 0.  1.
         12    1    3    3    0    0 -0.13557220834E+02  0.76080172955E+01 -0.19842473972E+02  0.25207219942E+02  0.00000000000E+00 0. -1.
</event>
<event>
 7    1  0.3528441E-013  0.5930193E+02  0.7816164E-02  0.1266605E+00
        -11   -1    0    0    0    0  0.00000000000E+00  0.00000000000E+00  0.45593999997E+02  0.45594000000E+02  0.51100000000E-03 0.  1.
         11   -1    0    0    0    0 -0.00000000000E+00 -0.00000000000E+00 -0.45593999997E+02  0.45594000000E+02  0.51100000000E-03 0. -1.
    9900012    2    1    2    0    0 -0.41478316748E+01  0.30233658235E+02 -0.92435288234E+01  0.59301930581E+02  0.49999975477E+02 0.  0.
        -12    1    1    2    0    0  0.41478316748E+01 -0.30233658235E+02  0.92435288234E+01  0.31886069419E+02  0.00000000000E+00 0.  1.
         11    1    3    3    0    0  0.64440197171E+01  0.26315283822E+02 -0.62844569428E+01  0.27812118799E+02  0.51100000000E-03 0. -1.
        -11    1    3    3    0    0 -0.10928157709E+02  0.13336775055E+02 -0.98107727394E+01  0.19837980285E+02  0.51100000000E-03 0.  1.
        -12    1    3    3    0    0  0.33630631718E+00 -0.94184006421E+01  0.68517008587E+01  0.11651831498E+02  0.00000000000E+00 0.  1.
</event>
<event>
 7    1  0.3528441E-013  0.5930188E+02  0.7816164E-02  0.1266605E+00
        -11   -1    0    0    0    0  0.00000000000E+00  0.00000000000E+00  0.45593999997E+02  0.45594000000E+02  0.51100000000E-03 0.  1.
         11   -1    0    0    0    0 -0.00000000000E+00 -0.00000000000E+00 -0.45593999997E+02  0.45594000000E+02  0.51100000000E-03 0. -1.
    9900012    2    1    2    0    0 -0.29482065994E+02  0.49595027735E+01  0.11087638699E+02  0.59301880528E+02  0.49999884192E+02 0.  0.
        -12    1    1    2    0    0  0.29482065994E+02 -0.49595027735E+01 -0.11087638699E+02  0.31886119472E+02  0.00000000000E+00 0.  1.
         11    1    3    3    0    0  0.25880213954E+01  0.89014363687E+00 -0.32189945027E+01  0.42251788491E+01  0.51100000000E-03 0. -1.
        -11    1    3    3    0    0 -0.21434271210E+01  0.16788856088E+02  0.14906576499E+02  0.22553624803E+02  0.51100000000E-03 0.  1.
         12    1    3    3    0    0 -0.29926660269E+02 -0.12719496951E+02 -0.59994329810E+00  0.32523076876E+02  0.00000000000E+00 0. -1.
</event>
<event>
 7    1  0.3528441E-013  0.5930194E+02  0.7816164E-02  0.1266605E+00
        -11   -1    0    0    0    0  0.00000000000E+00  0.00000000000E+00  0.45593999997E+02  0.45594000000E+02  0.51100000000E-03 0. -1.
         11   -1    0    0    0    0 -0.00000000000E+00 -0.00000000000E+00 -0.45593999997E+02  0.45594000000E+02  0.51100000000E-03 0.  1.
    9900012    2    1    2    0    0 -0.13209461174E+02  0.28967772733E+02  0.17605156009E+01  0.59301935069E+02  0.49999983662E+02 0.  0.
        -12    1    1    2    0    0  0.13209461174E+02 -0.28967772733E+02 -0.17605156009E+01  0.31886064931E+02  0.00000000000E+00 0.  1.
         11    1    3    3    0    0  0.93093264491E+00  0.17129020709E+01  0.74716240644E+01  0.77217767071E+01  0.51100000000E-03 0. -1.
        -11    1    3    3    0    0  0.12407434716E+01 -0.49841173113E+00  0.14106312495E+02  0.14169541668E+02  0.51100000000E-03 0.  1.
        -12    1    3    3    0    0 -0.15381137291E+02  0.27753282393E+02 -0.19817420959E+02  0.37410616694E+02  0.00000000000E+00 0.  1.
</event>
<event>
 7    1  0.3528441E-013  0.5930194E+02  0.7816164E-02  0.1266605E+00
        -11   -1    0    0    0    0  0.00000000000E+00  0.00000000000E+00  0.45593999997E+02  0.45594000000E+02  0.51100000000E-03 0. -1.
         11   -1    0    0    0    0 -0.00000000000E+00 -0.00000000000E+00 -0.45593999997E+02  0.45594000000E+02  0.51100000000E-03 0.  1.
    9900012    2    1    2    0    0 -0.37517810088E+01  0.28848227900E+02  0.13054692752E+02  0.59301935386E+02  0.49999984240E+02 0.  0.
        -12    1    1    2    0    0  0.37517810088E+01 -0.28848227900E+02 -0.13054692752E+02  0.31886064614E+02  0.00000000000E+00 0.  1.
         11    1    3    3    0    0  0.26561816272E+01 -0.44054402551E+01  0.13099495956E+02  0.14073379098E+02  0.51100000000E-03 0. -1.
        -11    1    3    3    0    0  0.11827332248E+02  0.17230945997E+02 -0.11268172220E+01  0.20929906960E+02  0.51100000000E-03 0.  1.
        -12    1    3    3    0    0 -0.18235294884E+02  0.16022722159E+02  0.10820140184E+01  0.24298649329E+02  0.00000000000E+00 0.  1.
</event>
<event>
 7    1  0.3528441E-013  0.5930194E+02  0.7816164E-02  0.1266605E+00
        -11   -1    0    0    0    0  0.00000000000E+00  0.00000000000E+00  0.45593999997E+02  0.45594000000E+02  0.51100000000E-03 0. -1.
         11   -1    0    0    0    0 -0.00000000000E+00 -0.00000000000E+00 -0.45593999997E+02  0.45594000000E+02  0.51100000000E-03 0.  1.
    9900012    2    1    2    0    0 -0.21449739881E+02 -0.23442528299E+02  0.26602990045E+01  0.59301942470E+02  0.49999997159E+02 0.  0.
        -12    1    1    2    0    0  0.21449739881E+02  0.23442528299E+02 -0.26602990045E+01  0.31886057530E+02  0.00000000000E+00 0.  1.
         11    1    3    3    0    0 -0.93864004483E+01 -0.17578246756E+02  0.13147658040E+02  0.23873838916E+02  0.51100000000E-03 0. -1.
        -11    1    3    3    0    0 -0.12680724408E+02 -0.13602175078E+02  0.39730585849E+01  0.19015917889E+02  0.51100000000E-03 0.  1.
        -12    1    3    3    0    0  0.61738497618E+00  0.77378935348E+01 -0.14460417620E+02  0.16412185665E+02  0.00000000000E+00 0.  1.
</event>
<event>
 7    1  0.3528441E-013  0.5930194E+02  0.7816164E-02  0.1266605E+00
        -11   -1    0    0    0    0  0.00000000000E+00  0.00000000000E+00  0.45593999997E+02  0.45594000000E+02  0.51100000000E-03 0.  1.
         11   -1    0    0    0    0 -0.00000000000E+00 -0.00000000000E+00 -0.45593999997E+02  0.45594000000E+02  0.51100000000E-03 0. -1.
    9900012    2    1    2    0    0 -0.61978283531E+01  0.29936218720E+02 -0.90625768547E+01  0.59301944006E+02  0.49999999961E+02 0.  0.
        -12    1    1    2    0    0  0.61978283531E+01 -0.29936218720E+02  0.90625768547E+01  0.31886055994E+02  0.00000000000E+00 0.  1.
         11    1    3    3    0    0  0.62850036173E+01  0.34892370520E+01  0.36479926039E+01  0.80612589572E+01  0.51100000000E-03 0. -1.
        -11    1    3    3    0    0 -0.10866510122E+02 -0.82672525946E+01  0.14164931483E+01  0.13727161425E+02  0.51100000000E-03 0.  1.
         12    1    3    3    0    0 -0.16163218484E+01  0.34714234263E+02 -0.14127062607E+02  0.37513523624E+02  0.00000000000E+00 0. -1.
</event>
<event>
 7    1  0.3528441E-013  0.5930198E+02  0.7816164E-02  0.1266605E+00
        -11   -1    0    0    0    0  0.00000000000E+00  0.00000000000E+00  0.45593999997E+02  0.45594000000E+02  0.51100000000E-03 0.  1.
         11   -1    0    0    0    0 -0.00000000000E+00 -0.00000000000E+00 -0.45593999997E+02  0.45594000000E+02  0.51100000000E-03 0. -1.
    9900012    2    1    2    0    0  0.10079972566E+02  0.15715405627E+02 -0.25848373438E+02  0.59301980644E+02  0.50000066780E+02 0.  0.
        -12    1    1    2    0    0 -0.10079972566E+02 -0.15715405627E+02  0.25848373438E+02  0.31886019356E+02  0.00000000000E+00 0.  1.
         11    1    3    3    0    0  0.92796901683E+00  0.10420190219E+02 -0.16484291251E+02  0.19523661260E+02  0.51100000000E-03 0. -1.
        -11    1    3    3    0    0 -0.13597376370E+02 -0.27531420115E+01 -0.69784969974E+01  0.15529580023E+02  0.51100000000E-03 0.  1.
         12    1    3    3    0    0  0.22749379920E+02  0.80483574194E+01 -0.23855851893E+01  0.24248739361E+02  0.00000000000E+00 0. -1.
</event>
<event>
 7    1  0.3528441E-013  0.5930194E+02  0.7816164E-02  0.1266605E+00
        -11   -1    0    0    0    0  0.00000000000E+00  0.00000000000E+00  0.45593999997E+02  0.45594000000E+02  0.51100000000E-03 0.  1.
         11   -1    0    0    0    0 -0.00000000000E+00 -0.00000000000E+00 -0.45593999997E+02  0.45594000000E+02  0.51100000000E-03 0. -1.
    9900012    2    1    2    0    0 -0.94582804516E+01 -0.17640959271E+02 -0.24820518988E+02  0.59301942296E+02  0.49999996841E+02 0.  0.
        -12    1    1    2    0    0  0.94582804516E+01  0.17640959271E+02  0.24820518988E+02  0.31886057704E+02  0.00000000000E+00 0.  1.
         11    1    3    3    0    0 -0.17628596078E+02 -0.92032349642E+01 -0.60091182727E+01  0.20774417830E+02  0.51100000000E-03 0. -1.
        -11    1    3    3    0    0  0.24983196485E+01 -0.95562437822E+01 -0.26859557572E+02  0.28618162581E+02  0.51100000000E-03 0.  1.
        -12    1    3    3    0    0  0.56719959779E+01  0.11185194757E+01  0.80481568565E+01  0.99093618855E+01  0.00000000000E+00 0.  1.
</event>
<event>
 7    1  0.3528441E-013  0.5930196E+02  0.7816164E-02  0.1266605E+00
        -11   -1    0    0    0    0  0.00000000000E+00  0.00000000000E+00  0.45593999997E+02  0.45594000000E+02  0.51100000000E-03 0. -1.
         11   -1    0    0    0    0 -0.00000000000E+00 -0.00000000000E+00 -0.45593999997E+02  0.45594000000E+02  0.51100000000E-03 0.  1.
    9900012    2    1    2    0    0 -0.10701001074E+02 -0.76240309003E+01  0.29053093989E+02  0.59301960084E+02  0.50000029284E+02 0.  0.
        -12    1    1    2    0    0  0.10701001074E+02  0.76240309003E+01 -0.29053093989E+02  0.31886039916E+02  0.00000000000E+00 0.  1.
         11    1    3    3    0    0  0.84798072528E+01 -0.18627783991E+01  0.59914898404E+01  0.10548697795E+02  0.51100000000E-03 0. -1.
        -11    1    3    3    0    0 -0.11790735069E+02 -0.18512763209E+02  0.68529932639E+00  0.21959359520E+02  0.51100000000E-03 0.  1.
        -12    1    3    3    0    0 -0.73900732579E+01  0.12751510708E+02  0.22376304822E+02  0.26793902769E+02  0.00000000000E+00 0.  1.
</event>
<event>
 7    1  0.3528441E-013  0.5930207E+02  0.7816164E-02  0.1266604E+00
        -11   -1    0    0    0    0  0.00000000000E+00  0.00000000000E+00  0.45593999997E+02  0.45594000000E+02  0.51100000000E-03 0.  1.
         11   -1    0    0    0    0 -0.00000000000E+00 -0.00000000000E+00 -0.45593999997E+02  0.45594000000E+02  0.51100000000E-03 0. -1.
    9900012    2    1    2    0    0  0.16901354934E+02 -0.12907522257E+02 -0.23758210503E+02  0.59302070569E+02  0.50000230780E+02 0.  0.
        -12    1    1    2    0    0 -0.16901354934E+02  0.12907522257E+02  0.23758210503E+02  0.31885929431E+02  0.00000000000E+00 0.  1.
         11    1    3    3    0    0 -0.53449011022E+01 -0.91942140081E+01 -0.21600530815E+02  0.24076637447E+02  0.51100000000E-03 0. -1.
        -11    1    3    3    0    0  0.12762443613E+02 -0.21757164407E+01 -0.14594813505E+02  0.19509543575E+02  0.51100000000E-03 0.  1.
        -12    1    3    3    0    0  0.94838124229E+01 -0.15375918078E+01  0.12437133817E+02  0.15715889546E+02  0.00000000000E+00 0.  1.
</event>
<event>
 7    1  0.3528441E-013  0.5930201E+02  0.7816164E-02  0.1266605E+00
        -11   -1    0    0    0    0  0.00000000000E+00  0.00000000000E+00  0.45593999997E+02  0.45594000000E+02  0.51100000000E-03 0.  1.
         11   -1    0    0    0    0 -0.00000000000E+00 -0.00000000000E+00 -0.45593999997E+02  0.45594000000E+02  0.51100000000E-03 0. -1.
    9900012    2    1    2    0    0  0.58858257341E+01 -0.19701853273E+02 -0.24370275733E+02  0.59302010816E+02  0.50000121805E+02 0.  0.
        -12    1    1    2    0    0 -0.58858257341E+01  0.19701853273E+02  0.24370275733E+02  0.31885989184E+02  0.00000000000E+00 0.  1.
         11    1    3    3    0    0  0.14588963528E+02  0.54126068935E+01 -0.17384365084E+02  0.23331316290E+02  0.51100000000E-03 0. -1.
        -11    1    3    3    0    0  0.44638804566E+01  0.21897339785E+01 -0.91290634490E+00  0.50551520138E+01  0.51100000000E-03 0.  1.
        -12    1    3    3    0    0 -0.13167018251E+02 -0.27304194145E+02 -0.60730043039E+01  0.30915542512E+02  0.00000000000E+00 0.  1.
</event>
<event>
 7    1  0.3528441E-013  0.5930194E+02  0.7816164E-02  0.1266605E+00
        -11   -1    0    0    0    0  0.00000000000E+00  0.00000000000E+00  0.45593999997E+02  0.45594000000E+02  0.51100000000E-03 0.  1.
         11   -1    0    0    0    0 -0.00000000000E+00 -0.00000000000E+00 -0.45593999997E+02  0.45594000000E+02  0.51100000000E-03 0. -1.
    9900012    2    1    2    0    0 -0.51946744737E+01  0.13538242462E+02 -0.28398105031E+02  0.59301936881E+02  0.49999986967E+02 0.  0.
        -12    1    1    2    0    0  0.51946744737E+01 -0.13538242462E+02  0.28398105031E+02  0.31886063119E+02  0.00000000000E+00 0.  1.
         11    1    3    3    0    0  0.25261065417E+01  0.94230753328E+01 -0.14680996065E+02  0.17626888799E+02  0.51100000000E-03 0. -1.
        -11    1    3    3    0    0  0.99736468084E+01 -0.11823955744E+02 -0.66149627130E+01  0.16823712196E+02  0.51100000000E-03 0.  1.
         12    1    3    3    0    0 -0.17694427824E+02  0.15939122873E+02 -0.71021462526E+01  0.24851335887E+02  0.00000000000E+00 0. -1.
</event>
<event>
 7    1  0.3528441E-013  0.5930195E+02  0.7816164E-02  0.1266605E+00
        -11   -1    0    0    0    0  0.00000000000E+00  0.00000000000E+00  0.45593999997E+02  0.45594000000E+02  0.51100000000E-03 0. -1.
         11   -1    0    0    0    0 -0.00000000000E+00 -0.00000000000E+00 -0.45593999997E+02  0.45594000000E+02  0.51100000000E-03 0.  1.
    9900012    2    1    2    0    0 -0.29497318712E+02  0.60416216575E+01  0.10494163681E+02  0.59301945449E+02  0.50000002593E+02 0.  0.
        -12    1    1    2    0    0  0.29497318712E+02 -0.60416216575E+01 -0.10494163681E+02  0.31886054551E+02  0.00000000000E+00 0.  1.
         11    1    3    3    0    0 -0.16210151435E+02 -0.18702781084E+02  0.53524453845E+01  0.25322158314E+02  0.51100000000E-03 0. -1.
        -11    1    3    3    0    0 -0.16933117395E+01  0.14148407694E+02  0.10149315629E+02  0.17494380610E+02  0.51100000000E-03 0.  1.
        -12    1    3    3    0    0 -0.11593855537E+02  0.10595995047E+02 -0.50075973318E+01  0.16485406525E+02  0.00000000000E+00 0.  1.
</event>
<event>
 7    1  0.3528441E-013  0.5930195E+02  0.7816164E-02  0.1266605E+00
        -11   -1    0    0    0    0  0.00000000000E+00  0.00000000000E+00  0.45593999997E+02  0.45594000000E+02  0.51100000000E-03 0.  1.
         11   -1    0    0    0    0 -0.00000000000E+00 -0.00000000000E+00 -0.45593999997E+02  0.45594000000E+02  0.51100000000E-03 0. -1.
    9900012    2    1    2    0    0  0.11819062562E+02 -0.15199277270E+02 -0.25416765751E+02  0.59301948965E+02  0.50000009004E+02 0.  0.
        -12    1    1    2    0    0 -0.11819062562E+02  0.15199277270E+02  0.25416765751E+02  0.31886051035E+02  0.00000000000E+00 0.  1.
         11    1    3    3    0    0  0.92696086554E+01  0.75047989450E+01  0.49634692610E+01  0.12918346612E+02  0.51100000000E-03 0.  1.
        -11    1    3    3    0    0  0.97172980336E+01 -0.17267818715E+02 -0.64809301294E+01  0.20847203646E+02  0.51100000000E-03 0. -1.
        -12    1    3    3    0    0 -0.71678441271E+01 -0.54362575002E+01 -0.23899304883E+02  0.25536398707E+02  0.00000000000E+00 0.  1.
</event>
<event>
 7    1  0.3528441E-013  0.5930196E+02  0.7816164E-02  0.1266605E+00
        -11   -1    0    0    0    0  0.00000000000E+00  0.00000000000E+00  0.45593999997E+02  0.45594000000E+02  0.51100000000E-03 0. -1.
         11   -1    0    0    0    0 -0.00000000000E+00 -0.00000000000E+00 -0.45593999997E+02  0.45594000000E+02  0.51100000000E-03 0.  1.
    9900012    2    1    2    0    0  0.50635929913E+01  0.26382189266E+02 -0.17177296423E+02  0.59301962352E+02  0.50000033419E+02 0.  0.
        -12    1    1    2    0    0 -0.50635929913E+01 -0.26382189266E+02  0.17177296423E+02  0.31886037648E+02  0.00000000000E+00 0.  1.
         11    1    3    3    0    0  0.14043934844E+02  0.13052525252E+01  0.91836291102E+01  0.16830770450E+02  0.51100000000E-03 0. -1.
        -11    1    3    3    0    0  0.61205372870E+01  0.74247176259E+01 -0.11034882057E+02  0.14640902663E+02  0.51100000000E-03 0.  1.
        -12    1    3    3    0    0 -0.15100879140E+02  0.17652219115E+02 -0.15326043476E+02  0.27830289239E+02  0.00000000000E+00 0.  1.
</event>
<event>
 7    1  0.3528441E-013  0.5930194E+02  0.7816164E-02  0.1266605E+00
        -11   -1    0    0    0    0  0.00000000000E+00  0.00000000000E+00  0.45593999997E+02  0.45594000000E+02  0.51100000000E-03 0. -1.
         11   -1    0    0    0    0 -0.00000000000E+00 -0.00000000000E+00 -0.45593999997E+02  0.45594000000E+02  0.51100000000E-03 0.  1.
    9900012    2    1    2    0    0  0.39153918009E+01  0.31567051298E+02  0.22162109744E+01  0.59301943303E+02  0.49999998678E+02 0.  0.
        -12    1    1    2    0    0 -0.39153918009E+01 -0.31567051298E+02 -0.22162109744E+01  0.31886056697E+02  0.00000000000E+00 0.  1.
         11    1    3    3    0    0 -0.68205439902E+01  0.32260288442E+01  0.62197584976E+01  0.97781633477E+01  0.51100000000E-03 0. -1.
        -11    1    3    3    0    0  0.13571446666E+01  0.32527777185E+02 -0.13772174785E+02  0.35349270556E+02  0.51100000000E-03 0.  1.
         12    1    3    3    0    0  0.93787911245E+01 -0.41867547308E+01  0.97686272619E+01  0.14174509399E+02  0.00000000000E+00 0. -1.
</event>
<event>
 7    1  0.3528441E-013  0.5930194E+02  0.7816164E-02  0.1266605E+00
        -11   -1    0    0    0    0  0.00000000000E+00  0.00000000000E+00  0.45593999997E+02  0.45594000000E+02  0.51100000000E-03 0.  1.
         11   -1    0    0    0    0 -0.00000000000E+00 -0.00000000000E+00 -0.45593999997E+02  0.45594000000E+02  0.51100000000E-03 0. -1.
    9900012    2    1    2    0    0  0.42003877924E+01 -0.29759552518E+02 -0.10651124163E+02  0.59301942394E+02  0.49999997021E+02 0.  0.
        -12    1    1    2    0    0 -0.42003877924E+01  0.29759552518E+02  0.10651124163E+02  0.31886057606E+02  0.00000000000E+00 0.  1.
         11    1    3    3    0    0 -0.15158300600E+02 -0.23887201890E+02 -0.17525260335E+02  0.33279231381E+02  0.51100000000E-03 0.  1.
        -11    1    3    3    0    0  0.94231837471E+01 -0.47718917468E+01 -0.39609362743E+01  0.11280796036E+02  0.51100000000E-03 0. -1.
        -12    1    3    3    0    0  0.99355046451E+01 -0.11004588814E+01  0.10835072446E+02  0.14741914978E+02  0.00000000000E+00 0.  1.
</event>
<event>
 7    1  0.3528441E-013  0.5930195E+02  0.7816164E-02  0.1266605E+00
        -11   -1    0    0    0    0  0.00000000000E+00  0.00000000000E+00  0.45593999997E+02  0.45594000000E+02  0.51100000000E-03 0.  1.
         11   -1    0    0    0    0 -0.00000000000E+00 -0.00000000000E+00 -0.45593999997E+02  0.45594000000E+02  0.51100000000E-03 0. -1.
    9900012    2    1    2    0    0  0.15622064194E+01  0.12249309816E+01 -0.31824195790E+02  0.59301946897E+02  0.50000005234E+02 0.  0.
        -12    1    1    2    0    0 -0.15622064194E+01 -0.12249309816E+01  0.31824195790E+02  0.31886053103E+02  0.00000000000E+00 0.  1.
         11    1    3    3    0    0  0.14774162723E+02  0.86449149691E+01 -0.24816819727E+02  0.30147719327E+02  0.51100000000E-03 0.  1.
        -11    1    3    3    0    0 -0.60071720651E+01 -0.89933191260E+01 -0.14861774166E+02  0.18380376404E+02  0.51100000000E-03 0. -1.
        -12    1    3    3    0    0 -0.72047842387E+01  0.15733351385E+01  0.78543981038E+01  0.10773851166E+02  0.00000000000E+00 0.  1.
</event>
<event>
 7    1  0.3528441E-013  0.5930195E+02  0.7816164E-02  0.1266605E+00
        -11   -1    0    0    0    0  0.00000000000E+00  0.00000000000E+00  0.45593999997E+02  0.45594000000E+02  0.51100000000E-03 0. -1.
         11   -1    0    0    0    0 -0.00000000000E+00 -0.00000000000E+00 -0.45593999997E+02  0.45594000000E+02  0.51100000000E-03 0.  1.
    9900012    2    1    2    0    0 -0.10362573325E+01 -0.29158362298E+02  0.12862198718E+02  0.59301951687E+02  0.50000013969E+02 0.  0.
        -12    1    1    2    0    0  0.10362573325E+01  0.29158362298E+02 -0.12862198718E+02  0.31886048313E+02  0.00000000000E+00 0.  1.
         11    1    3    3    0    0  0.11115223218E+02  0.81574876541E+00 -0.24225530498E+01  0.11405367016E+02  0.51100000000E-03 0. -1.
        -11    1    3    3    0    0  0.89542080932E+01 -0.11687985874E+02  0.13398532889E+02  0.19907474481E+02  0.51100000000E-03 0.  1.
        -12    1    3    3    0    0 -0.21105688644E+02 -0.18286125189E+02  0.18862188793E+01  0.27989110190E+02  0.00000000000E+00 0.  1.
</event>
<event>
 7    1  0.3528441E-013  0.5930200E+02  0.7816164E-02  0.1266605E+00
        -11   -1    0    0    0    0  0.00000000000E+00  0.00000000000E+00  0.45593999997E+02  0.45594000000E+02  0.51100000000E-03 0.  1.
         11   -1    0    0    0    0 -0.00000000000E+00 -0.00000000000E+00 -0.45593999997E+02  0.45594000000E+02  0.51100000000E-03 0. -1.
    9900012    2    1    2    0    0  0.21284057351E+01  0.61310197956E+01 -0.31218540392E+02  0.59302003404E+02  0.50000108288E+02 0.  0.
        -12    1    1    2    0    0 -0.21284057351E+01 -0.61310197956E+01  0.31218540392E+02  0.31885996596E+02  0.00000000000E+00 0.  1.
         11    1    3    3    0    0  0.22918783826E+01  0.38684435944E+01 -0.23366958055E+02  0.23795635973E+02  0.51100000000E-03 0. -1.
        -11    1    3    3    0    0  0.54006955104E+01 -0.46729518354E+01 -0.19549265405E+02  0.20812923125E+02  0.51100000000E-03 0.  1.
        -12    1    3    3    0    0 -0.55641681580E+01  0.69355280365E+01  0.11697683068E+02  0.14693444307E+02  0.00000000000E+00 0.  1.
</event>
<event>
 7    1  0.3528441E-013  0.5930198E+02  0.7816164E-02  0.1266605E+00
        -11   -1    0    0    0    0  0.00000000000E+00  0.00000000000E+00  0.45593999997E+02  0.45594000000E+02  0.51100000000E-03 0.  1.
         11   -1    0    0    0    0 -0.00000000000E+00 -0.00000000000E+00 -0.45593999997E+02  0.45594000000E+02  0.51100000000E-03 0. -1.
    9900012    2    1    2    0    0  0.15561690363E+02  0.11298980160E+02 -0.25433936249E+02  0.59301979980E+02  0.50000065568E+02 0.  0.
        -12    1    1    2    0    0 -0.15561690363E+02 -0.11298980160E+02  0.25433936249E+02  0.31886020020E+02  0.00000000000E+00 0.  1.
         11    1    3    3    0    0  0.88328515147E+00  0.14818125661E+02 -0.21243475761E+02  0.25916062653E+02  0.51100000000E-03 0. -1.
        -11    1    3    3    0    0  0.63249169314E+01 -0.38088853392E+01  0.12614880414E+02  0.14616681902E+02  0.51100000000E-03 0.  1.
         12    1    3    3    0    0  0.83534882798E+01  0.28973983837E+00 -0.16805340902E+02  0.18769235425E+02  0.00000000000E+00 0. -1.
</event>
<event>
 7    1  0.3528441E-013  0.5930215E+02  0.7816164E-02  0.1266604E+00
        -11   -1    0    0    0    0  0.00000000000E+00  0.00000000000E+00  0.45593999997E+02  0.45594000000E+02  0.51100000000E-03 0.  1.
         11   -1    0    0    0    0 -0.00000000000E+00 -0.00000000000E+00 -0.45593999997E+02  0.45594000000E+02  0.51100000000E-03 0. -1.
    9900012    2    1    2    0    0  0.12000049190E+02 -0.28468746614E+02 -0.78890231490E+01  0.59302150465E+02  0.50000376490E+02 0.  0.
        -12    1    1    2    0    0 -0.12000049190E+02  0.28468746614E+02  0.78890231490E+01  0.31885849535E+02  0.00000000000E+00 0.  1.
         11    1    3    3    0    0 -0.12379103946E+02 -0.82410126773E+01 -0.15732266728E+02  0.21648573189E+02  0.51100000000E-03 0. -1.
        -11    1    3    3    0    0 -0.31734579542E+01 -0.21917804821E+01  0.13674489719E+01  0.40920232185E+01  0.51100000000E-03 0.  1.
         12    1    3    3    0    0  0.27552611091E+02 -0.18035953455E+02  0.64757946072E+01  0.33561554057E+02  0.00000000000E+00 0. -1.
</event>
<event>
 7    1  0.3528441E-013  0.5930192E+02  0.7816164E-02  0.1266605E+00
        -11   -1    0    0    0    0  0.00000000000E+00  0.00000000000E+00  0.45593999997E+02  0.45594000000E+02  0.51100000000E-03 0.  1.
         11   -1    0    0    0    0 -0.00000000000E+00 -0.00000000000E+00 -0.45593999997E+02  0.45594000000E+02  0.51100000000E-03 0. -1.
    9900012    2    1    2    0    0  0.25538888297E+02  0.11640917042E+02 -0.15131965490E+02  0.59301919265E+02  0.49999954839E+02 0.  0.
        -12    1    1    2    0    0 -0.25538888297E+02 -0.11640917042E+02  0.15131965490E+02  0.31886080735E+02  0.00000000000E+00 0.  1.
         11    1    3    3    0    0  0.17867425239E+02 -0.14520748009E+01 -0.81709345039E+01  0.19700699907E+02  0.51100000000E-03 0.  1.
        -11    1    3    3    0    0  0.12424894534E+02  0.14042239785E+02  0.10493136114E+02  0.21486470351E+02  0.51100000000E-03 0. -1.
        -12    1    3    3    0    0 -0.47534314756E+01 -0.94924794243E+00 -0.17454167100E+02  0.18114749008E+02  0.00000000000E+00 0.  1.
</event>
<event>
 7    1  0.3528441E-013  0.5930195E+02  0.7816164E-02  0.1266605E+00
        -11   -1    0    0    0    0  0.00000000000E+00  0.00000000000E+00  0.45593999997E+02  0.45594000000E+02  0.51100000000E-03 0.  1.
         11   -1    0    0    0    0 -0.00000000000E+00 -0.00000000000E+00 -0.45593999997E+02  0.45594000000E+02  0.51100000000E-03 0. -1.
    9900012    2    1    2    0    0 -0.31211159939E+02 -0.98490647604E+00 -0.64508570674E+01  0.59301951289E+02  0.50000013242E+02 0.  0.
        -12    1    1    2    0    0  0.31211159939E+02  0.98490647604E+00  0.64508570674E+01  0.31886048711E+02  0.00000000000E+00 0.  1.
         11    1    3    3    0    0 -0.31132340990E+01  0.81030673303E+01  0.47665321055E+01  0.99031184628E+01  0.51100000000E-03 0. -1.
        -11    1    3    3    0    0 -0.35056178185E+02  0.18035944059E+01 -0.69163050150E+01  0.35777421051E+02  0.51100000000E-03 0.  1.
         12    1    3    3    0    0  0.69582523447E+01 -0.10891568212E+02 -0.43010841579E+01  0.13621411775E+02  0.00000000000E+00 0. -1.
</event>
<event>
 7    1  0.3528441E-013  0.5930195E+02  0.7816164E-02  0.1266605E+00
        -11   -1    0    0    0    0  0.00000000000E+00  0.00000000000E+00  0.45593999997E+02  0.45594000000E+02  0.51100000000E-03 0.  1.
         11   -1    0    0    0    0 -0.00000000000E+00 -0.00000000000E+00 -0.45593999997E+02  0.45594000000E+02  0.51100000000E-03 0. -1.
    9900012    2    1    2    0    0  0.13807493174E+02 -0.56274910883E+01 -0.28185179508E+02  0.59301954971E+02  0.50000019958E+02 0.  0.
        -12    1    1    2    0    0 -0.13807493174E+02  0.56274910883E+01  0.28185179508E+02  0.31886045029E+02  0.00000000000E+00 0.  1.
         11    1    3    3    0    0  0.48660792517E+01 -0.10590820339E+02 -0.22117566196E+01  0.11863223438E+02  0.51100000000E-03 0. -1.
        -11    1    3    3    0    0 -0.26698014484E+01  0.43244406161E+00  0.94799829901E+01  0.98582414961E+01  0.51100000000E-03 0.  1.
         12    1    3    3    0    0  0.11611215371E+02  0.45308851894E+01 -0.35453405879E+02  0.37580490036E+02  0.00000000000E+00 0. -1.
</event>
<event>
 7    1  0.3528441E-013  0.5930196E+02  0.7816164E-02  0.1266605E+00
        -11   -1    0    0    0    0  0.00000000000E+00  0.00000000000E+00  0.45593999997E+02  0.45594000000E+02  0.51100000000E-03 0.  1.
         11   -1    0    0    0    0 -0.00000000000E+00 -0.00000000000E+00 -0.45593999997E+02  0.45594000000E+02  0.51100000000E-03 0. -1.
    9900012    2    1    2    0    0 -0.28505153839E+02  0.84714452954E+01  0.11506967346E+02  0.59301961075E+02  0.50000031091E+02 0.  0.
        -12    1    1    2    0    0  0.28505153839E+02 -0.84714452954E+01 -0.11506967346E+02  0.31886038925E+02  0.00000000000E+00 0.  1.
         11    1    3    3    0    0 -0.36102229983E+01  0.12122212664E+01 -0.69684598418E+01  0.79411978520E+01  0.51100000000E-03 0. -1.
        -11    1    3    3    0    0  0.10265906210E+02 -0.39019173232E+01  0.32573737760E+01  0.11455316376E+02  0.51100000000E-03 0.  1.
        -12    1    3    3    0    0 -0.35160837051E+02  0.11161141352E+02  0.15218053412E+02  0.39905446847E+02  0.00000000000E+00 0.  1.
</event>
<event>
 7    1  0.3528441E-013  0.5930192E+02  0.7816164E-02  0.1266605E+00
        -11   -1    0    0    0    0  0.00000000000E+00  0.00000000000E+00  0.45593999997E+02  0.45594000000E+02  0.51100000000E-03 0.  1.
         11   -1    0    0    0    0 -0.00000000000E+00 -0.00000000000E+00 -0.45593999997E+02  0.45594000000E+02  0.51100000000E-03 0. -1.
    9900012    2    1    2    0    0 -0.23105837569E+01 -0.26666662363E+02 -0.17328374678E+02  0.59301917646E+02  0.49999951886E+02 0.  0.
        -12    1    1    2    0    0  0.23105837569E+01  0.26666662363E+02  0.17328374678E+02  0.31886082354E+02  0.00000000000E+00 0.  1.
         11    1    3    3    0    0  0.41393328568E+01  0.37536906911E+01 -0.14018519502E+02  0.15091161639E+02  0.51100000000E-03 0. -1.
        -11    1    3    3    0    0 -0.57150344601E+01 -0.30172793696E+01 -0.13498371643E+02  0.14965681773E+02  0.51100000000E-03 0.  1.
        -12    1    3    3    0    0 -0.73488215356E+00 -0.27403073685E+02  0.10188516467E+02  0.29245074234E+02  0.00000000000E+00 0.  1.
</event>
<event>
 7    1  0.3528441E-013  0.5930195E+02  0.7816164E-02  0.1266605E+00
        -11   -1    0    0    0    0  0.00000000000E+00  0.00000000000E+00  0.45593999997E+02  0.45594000000E+02  0.51100000000E-03 0. -1.
         11   -1    0    0    0    0 -0.00000000000E+00 -0.00000000000E+00 -0.45593999997E+02  0.45594000000E+02  0.51100000000E-03 0.  1.
    9900012    2    1    2    0    0  0.31394622564E+02 -0.48235958999E+01  0.27983184633E+01  0.59301953059E+02  0.50000016470E+02 0.  0.
        -12    1    1    2    0    0 -0.31394622564E+02  0.48235958999E+01 -0.27983184633E+01  0.31886046941E+02  0.00000000000E+00 0.  1.
         11    1    3    3    0    0  0.11044410243E+02  0.25676369623E+01  0.15593723269E+01  0.11445671649E+02  0.51100000000E-03 0.  1.
        -11    1    3    3    0    0 -0.36195002523E+01  0.87704174459E+01 -0.12626438193E+02  0.15793921171E+02  0.51100000000E-03 0. -1.
         12    1    3    3    0    0  0.23969712573E+02 -0.16161650308E+02  0.13865384329E+02  0.32062360239E+02  0.00000000000E+00 0. -1.
</event>
<event>
 7    1  0.3528441E-013  0.5930194E+02  0.7816164E-02  0.1266605E+00
        -11   -1    0    0    0    0  0.00000000000E+00  0.00000000000E+00  0.45593999997E+02  0.45594000000E+02  0.51100000000E-03 0.  1.
         11   -1    0    0    0    0 -0.00000000000E+00 -0.00000000000E+00 -0.45593999997E+02  0.45594000000E+02  0.51100000000E-03 0. -1.
    9900012    2    1    2    0    0  0.27368475717E+02 -0.79340902860E+01 -0.14308644089E+02  0.59301944311E+02  0.50000000517E+02 0.  0.
        -12    1    1    2    0    0 -0.27368475717E+02  0.79340902860E+01  0.14308644089E+02  0.31886055689E+02  0.00000000000E+00 0.  1.
         11    1    3    3    0    0  0.76597083279E+01 -0.18367932555E+02 -0.39035053269E+01  0.20280271993E+02  0.51100000000E-03 0. -1.
        -11    1    3    3    0    0  0.13417415951E+02  0.10377583540E+01  0.92611225473E+01  0.16336229194E+02  0.51100000000E-03 0.  1.
        -12    1    3    3    0    0  0.62913514381E+01  0.93960839146E+01 -0.19666261310E+02  0.22685443124E+02  0.00000000000E+00 0.  1.
</event>
<event>
 7    1  0.3528441E-013  0.5930195E+02  0.7816164E-02  0.1266605E+00
        -11   -1    0    0    0    0  0.00000000000E+00  0.00000000000E+00  0.45593999997E+02  0.45594000000E+02  0.51100000000E-03 0.  1.
         11   -1    0    0    0    0 -0.00000000000E+00 -0.00000000000E+00 -0.45593999997E+02  0.45594000000E+02  0.51100000000E-03 0. -1.
    9900012    2    1    2    0    0 -0.34653371459E+01  0.13805268743E+02 -0.28532901823E+02  0.59301945163E+02  0.50000002071E+02 0.  0.
        -12    1    1    2    0    0  0.34653371459E+01 -0.13805268743E+02  0.28532901823E+02  0.31886054837E+02  0.00000000000E+00 0.  1.
         11    1    3    3    0    0 -0.65008619696E+01 -0.63690101982E+01 -0.73546548220E+01  0.11701130076E+02  0.51100000000E-03 0. -1.
        -11    1    3    3    0    0 -0.11965524655E+02  0.24029054527E+02 -0.10681266985E+02  0.28890460474E+02  0.51100000000E-03 0.  1.
        -12    1    3    3    0    0  0.15001049478E+02 -0.38547755865E+01 -0.10496980016E+02  0.18710354613E+02  0.00000000000E+00 0.  1.
</event>
<event>
 7    1  0.3528441E-013  0.5930194E+02  0.7816164E-02  0.1266605E+00
        -11   -1    0    0    0    0  0.00000000000E+00  0.00000000000E+00  0.45593999997E+02  0.45594000000E+02  0.51100000000E-03 0.  1.
         11   -1    0    0    0    0 -0.00000000000E+00 -0.00000000000E+00 -0.45593999997E+02  0.45594000000E+02  0.51100000000E-03 0. -1.
    9900012    2    1    2    0    0  0.31599645554E+01  0.83767911607E+00 -0.31718039475E+02  0.59301935483E+02  0.49999984416E+02 0.  0.
        -12    1    1    2    0    0 -0.31599645554E+01 -0.83767911607E+00  0.31718039475E+02  0.31886064517E+02  0.00000000000E+00 0.  1.
         11    1    3    3    0    0  0.16017006770E+01  0.21355027536E+01 -0.21401995285E+02  0.21567828345E+02  0.51100000000E-03 0. -1.
        -11    1    3    3    0    0 -0.56369191033E+01 -0.17357553560E+02 -0.82067753741E+01  0.20010264488E+02  0.51100000000E-03 0.  1.
        -12    1    3    3    0    0  0.71951829817E+01  0.16059729923E+02 -0.21092688155E+01  0.17723842650E+02  0.00000000000E+00 0.  1.
</event>
<event>
 7    1  0.3528441E-013  0.5930189E+02  0.7816164E-02  0.1266605E+00
        -11   -1    0    0    0    0  0.00000000000E+00  0.00000000000E+00  0.45593999997E+02  0.45594000000E+02  0.51100000000E-03 0. -1.
         11   -1    0    0    0    0 -0.00000000000E+00 -0.00000000000E+00 -0.45593999997E+02  0.45594000000E+02  0.51100000000E-03 0.  1.
    9900012    2    1    2    0    0 -0.73712204402E+01 -0.67322803101E+01  0.30283092486E+02  0.59301887357E+02  0.49999896647E+02 0.  0.
        -12    1    1    2    0    0  0.73712204402E+01  0.67322803101E+01 -0.30283092486E+02  0.31886112643E+02  0.00000000000E+00 0.  1.
         11    1    3    3    0    0 -0.36234703737E+01 -0.77899830300E+01  0.70855865261E+01  0.11136377770E+02  0.51100000000E-03 0. -1.
        -11    1    3    3    0    0  0.60003514360E+01 -0.18397747993E+02  0.16404081685E+02  0.25368784850E+02  0.51100000000E-03 0.  1.
         12    1    3    3    0    0 -0.97481015025E+01  0.19455450713E+02  0.67934242744E+01  0.22796724737E+02  0.00000000000E+00 0. -1.
</event>
<event>
 7    1  0.3528441E-013  0.5930194E+02  0.7816164E-02  0.1266605E+00
        -11   -1    0    0    0    0  0.00000000000E+00  0.00000000000E+00  0.45593999997E+02  0.45594000000E+02  0.51100000000E-03 0. -1.
         11   -1    0    0    0    0 -0.00000000000E+00 -0.00000000000E+00 -0.45593999997E+02  0.45594000000E+02  0.51100000000E-03 0.  1.
    9900012    2    1    2    0    0 -0.14073175672E+02 -0.28355054610E+02 -0.38284700928E+01  0.59301943821E+02  0.49999999622E+02 0.  0.
        -12    1    1    2    0    0  0.14073175672E+02  0.28355054610E+02  0.38284700928E+01  0.31886056179E+02  0.00000000000E+00 0.  1.
         11    1    3    3    0    0 -0.19784912307E+02 -0.22394253964E+02  0.13499883089E+02  0.32790123655E+02  0.51100000000E-03 0. -1.
        -11    1    3    3    0    0 -0.39967656936E+01 -0.89334984442E+01 -0.70309949340E+01  0.12050577600E+02  0.51100000000E-03 0.  1.
         12    1    3    3    0    0  0.97085023290E+01  0.29726977982E+01 -0.10297358248E+02  0.14461242566E+02  0.00000000000E+00 0. -1.
</event>
<event>
 7    1  0.3528441E-013  0.5930195E+02  0.7816164E-02  0.1266605E+00
        -11   -1    0    0    0    0  0.00000000000E+00  0.00000000000E+00  0.45593999997E+02  0.45594000000E+02  0.51100000000E-03 0.  1.
         11   -1    0    0    0    0 -0.00000000000E+00 -0.00000000000E+00 -0.45593999997E+02  0.45594000000E+02  0.51100000000E-03 0. -1.
    9900012    2    1    2    0    0  0.19351526812E+02 -0.10768369883E+00 -0.25342195852E+02  0.59301951698E+02  0.50000013989E+02 0.  0.
        -12    1    1    2    0    0 -0.19351526812E+02  0.10768369883E+00  0.25342195852E+02  0.31886048302E+02  0.00000000000E+00 0.  1.
         11    1    3    3    0    0  0.12590597444E+02  0.16684931692E+02 -0.22620300626E+02  0.30799157298E+02  0.51100000000E-03 0. -1.
        -11    1    3    3    0    0  0.83242299517E+01  0.25694606013E+01  0.84604075505E+00  0.87527548401E+01  0.51100000000E-03 0.  1.
        -12    1    3    3    0    0 -0.15633005843E+01 -0.19362075992E+02 -0.35679359806E+01  0.19750039560E+02  0.00000000000E+00 0.  1.
</event>
<event>
 7    1  0.3528441E-013  0.5930203E+02  0.7816164E-02  0.1266604E+00
        -11   -1    0    0    0    0  0.00000000000E+00  0.00000000000E+00  0.45593999997E+02  0.45594000000E+02  0.51100000000E-03 0.  1.
         11   -1    0    0    0    0 -0.00000000000E+00 -0.00000000000E+00 -0.45593999997E+02  0.45594000000E+02  0.51100000000E-03 0. -1.
    9900012    2    1    2    0    0 -0.91726470927E+00 -0.11521755345E+02 -0.29717382910E+02  0.59302030236E+02  0.50000157223E+02 0.  0.
        -12    1    1    2    0    0  0.91726470927E+00  0.11521755345E+02  0.29717382910E+02  0.31885969764E+02  0.00000000000E+00 0.  1.
         11    1    3    3    0    0  0.76427968788E+00  0.75241263097E+01 -0.78094637520E+01  0.10871261404E+02  0.51100000000E-03 0. -1.
        -11    1    3    3    0    0  0.90596753855E+01 -0.41377556934E+01  0.83724929354E+01  0.13011432607E+02  0.51100000000E-03 0.  1.
         12    1    3    3    0    0 -0.10741219783E+02 -0.14908125961E+02 -0.30280412093E+02  0.35419336225E+02  0.00000000000E+00 0. -1.
</event>
<event>
 7    1  0.3528441E-013  0.5930188E+02  0.7816164E-02  0.1266605E+00
        -11   -1    0    0    0    0  0.00000000000E+00  0.00000000000E+00  0.45593999997E+02  0.45594000000E+02  0.51100000000E-03 0.  1.
         11   -1    0    0    0    0 -0.00000000000E+00 -0.00000000000E+00 -0.45593999997E+02  0.45594000000E+02  0.51100000000E-03 0. -1.
    9900012    2    1    2    0    0 -0.29944584721E+02  0.59824825651E+01 -0.91791373310E+01  0.59301877409E+02  0.49999878503E+02 0.  0.
        -12    1    1    2    0    0  0.29944584721E+02 -0.59824825651E+01  0.91791373310E+01  0.31886122591E+02  0.00000000000E+00 0.  1.
         11    1    3    3    0    0 -0.95134749055E+01 -0.14809563320E+02 -0.11988301325E+02  0.21296683766E+02  0.51100000000E-03 0. -1.
        -11    1    3    3    0    0  0.49142845642E+01  0.70583667041E+01  0.31966349852E+01  0.91754677700E+01  0.51100000000E-03 0.  1.
        -12    1    3    3    0    0 -0.25345394380E+02  0.13733679181E+02 -0.38747099163E+00  0.28829725873E+02  0.00000000000E+00 0.  1.
</event>
<event>
 7    1  0.3528441E-013  0.5930196E+02  0.7816164E-02  0.1266605E+00
        -11   -1    0    0    0    0  0.00000000000E+00  0.00000000000E+00  0.45593999997E+02  0.45594000000E+02  0.51100000000E-03 0.  1.
         11   -1    0    0    0    0 -0.00000000000E+00 -0.00000000000E+00 -0.45593999997E+02  0.45594000000E+02  0.51100000000E-03 0. -1.
    9900012    2    1    2    0    0 -0.13498340962E+02  0.28624843380E+02  0.38901139118E+01  0.59301955192E+02  0.50000020360E+02 0.  0.
        -12    1    1    2    0    0  0.13498340962E+02 -0.28624843380E+02 -0.38901139118E+01  0.31886044808E+02  0.00000000000E+00 0.  1.
         11    1    3    3    0    0  0.13405496864E+01 -0.23411052254E+01 -0.18786736352E+01  0.32874400416E+01  0.51100000000E-03 0. -1.
        -11    1    3    3    0    0  0.14488334610E+02  0.63431077976E+01 -0.43569157679E+01  0.16405169051E+02  0.51100000000E-03 0.  1.
        -12    1    3    3    0    0 -0.29327225258E+02  0.24622840808E+02  0.10125703315E+02  0.39609346100E+02  0.00000000000E+00 0.  1.
</event>
<event>
 7    1  0.3768879E-013  0.5930195E+02  0.7816164E-02  0.1266605E+00
        -11   -1    0    0    0    0  0.00000000000E+00  0.00000000000E+00  0.45593999997E+02  0.45594000000E+02  0.51100000000E-03 0. -1.
         11   -1    0    0    0    0 -0.00000000000E+00 -0.00000000000E+00 -0.45593999997E+02  0.45594000000E+02  0.51100000000E-03 0.  1.
    9900012    2    1    2    0    0 -0.19000919883E+02 -0.25593722059E+00  0.25605070922E+02  0.59301951057E+02  0.50000012820E+02 0.  0.
        -12    1    1    2    0    0  0.19000919883E+02  0.25593722059E+00 -0.25605070922E+02  0.31886048943E+02  0.00000000000E+00 0.  1.
         11    1    3    3    0    0 -0.99157622817E+01 -0.86037336337E+01  0.31856684788E+02  0.34455695321E+02  0.51100000000E-03 0. -1.
        -11    1    3    3    0    0 -0.21018696843E+01 -0.38730418191E+01 -0.94368471613E+01  0.10415008099E+02  0.51100000000E-03 0.  1.
        -12    1    3    3    0    0 -0.69832879166E+01  0.12220838232E+02  0.31852332953E+01  0.14431247637E+02  0.00000000000E+00 0.  1.
</event>
<event>
 7    1  0.3528441E-013  0.5930193E+02  0.7816164E-02  0.1266605E+00
        -11   -1    0    0    0    0  0.00000000000E+00  0.00000000000E+00  0.45593999997E+02  0.45594000000E+02  0.51100000000E-03 0. -1.
         11   -1    0    0    0    0 -0.00000000000E+00 -0.00000000000E+00 -0.45593999997E+02  0.45594000000E+02  0.51100000000E-03 0.  1.
    9900012    2    1    2    0    0  0.72473186358E+01  0.24008296204E+02 -0.19692619606E+02  0.59301934377E+02  0.49999982399E+02 0.  0.
        -12    1    1    2    0    0 -0.72473186358E+01 -0.24008296204E+02  0.19692619606E+02  0.31886065623E+02  0.00000000000E+00 0.  1.
         11    1    3    3    0    0 -0.27879151753E+01  0.12180681415E+01  0.14300105156E+02  0.14620163089E+02  0.51100000000E-03 0. -1.
        -11    1    3    3    0    0  0.74444954219E-01  0.17846674485E+02 -0.21960321790E+02  0.28297792592E+02  0.51100000000E-03 0.  1.
        -12    1    3    3    0    0  0.99607888569E+01  0.49435535771E+01 -0.12032402972E+02  0.16383978695E+02  0.00000000000E+00 0.  1.
</event>
<event>
 7    1  0.3528441E-013  0.5930187E+02  0.7816164E-02  0.1266605E+00
        -11   -1    0    0    0    0  0.00000000000E+00  0.00000000000E+00  0.45593999997E+02  0.45594000000E+02  0.51100000000E-03 0. -1.
         11   -1    0    0    0    0 -0.00000000000E+00 -0.00000000000E+00 -0.45593999997E+02  0.45594000000E+02  0.51100000000E-03 0.  1.
    9900012    2    1    2    0    0  0.17599561989E+02 -0.80348386855E+01  0.25346050864E+02  0.59301866504E+02  0.49999858615E+02 0.  0.
        -12    1    1    2    0    0 -0.17599561989E+02  0.80348386855E+01 -0.25346050864E+02  0.31886133496E+02  0.00000000000E+00 0.  1.
         11    1    3    3    0    0  0.31762565136E+01 -0.11691276469E+02  0.27160314401E+02  0.29739825647E+02  0.51100000000E-03 0. -1.
        -11    1    3    3    0    0 -0.69060682429E+01  0.42864766306E+01  0.18158275036E+00  0.81302295808E+01  0.51100000000E-03 0.  1.
        -12    1    3    3    0    0  0.21329373718E+02 -0.63003884697E+00 -0.19958462869E+01  0.21431811276E+02  0.00000000000E+00 0.  1.
</event>
<event>
 7    1  0.3528441E-013  0.5930197E+02  0.7816164E-02  0.1266605E+00
        -11   -1    0    0    0    0  0.00000000000E+00  0.00000000000E+00  0.45593999997E+02  0.45594000000E+02  0.51100000000E-03 0. -1.
         11   -1    0    0    0    0 -0.00000000000E+00 -0.00000000000E+00 -0.45593999997E+02  0.45594000000E+02  0.51100000000E-03 0.  1.
    9900012    2    1    2    0    0 -0.10741286299E+02  0.96790158363E+01  0.28419367203E+02  0.59301968401E+02  0.50000044451E+02 0.  0.
        -12    1    1    2    0    0  0.10741286299E+02 -0.96790158363E+01 -0.28419367203E+02  0.31886031599E+02  0.00000000000E+00 0.  1.
         11    1    3    3    0    0 -0.12762507792E+02  0.12988928787E+02  0.37395491697E+02  0.41593469147E+02  0.51100000000E-03 0. -1.
        -11    1    3    3    0    0 -0.16661747860E+01 -0.19602329918E+01  0.36614696940E+01  0.44749315504E+01  0.51100000000E-03 0.  1.
        -12    1    3    3    0    0  0.36873962793E+01 -0.13496799584E+01 -0.12637594188E+02  0.13233567704E+02  0.00000000000E+00 0.  1.
</event>
<event>
 7    1  0.3528441E-013  0.5930194E+02  0.7816164E-02  0.1266605E+00
        -11   -1    0    0    0    0  0.00000000000E+00  0.00000000000E+00  0.45593999997E+02  0.45594000000E+02  0.51100000000E-03 0.  1.
         11   -1    0    0    0    0 -0.00000000000E+00 -0.00000000000E+00 -0.45593999997E+02  0.45594000000E+02  0.51100000000E-03 0. -1.
    9900012    2    1    2    0    0  0.23286255556E+02 -0.21677751577E+02  0.21321532921E+01  0.59301942092E+02  0.49999996469E+02 0.  0.
        -12    1    1    2    0    0 -0.23286255556E+02  0.21677751577E+02 -0.21321532921E+01  0.31886057908E+02  0.00000000000E+00 0.  1.
         11    1    3    3    0    0  0.85779553713E+01 -0.12715704602E+02  0.90747417829E+01  0.17821935938E+02  0.51100000000E-03 0. -1.
        -11    1    3    3    0    0  0.13485446195E+02 -0.55102330506E+01  0.14009060778E+02  0.20210732581E+02  0.51100000000E-03 0.  1.
         12    1    3    3    0    0  0.12228539903E+01 -0.34518139242E+01 -0.20951649268E+02  0.21269273573E+02  0.00000000000E+00 0. -1.
</event>
<event>
 7    1  0.3528441E-013  0.5930193E+02  0.7816164E-02  0.1266605E+00
        -11   -1    0    0    0    0  0.00000000000E+00  0.00000000000E+00  0.45593999997E+02  0.45594000000E+02  0.51100000000E-03 0.  1.
         11   -1    0    0    0    0 -0.00000000000E+00 -0.00000000000E+00 -0.45593999997E+02  0.45594000000E+02  0.51100000000E-03 0. -1.
    9900012    2    1    2    0    0 -0.13987492467E+02 -0.39745899141E+01 -0.28377348482E+02  0.59301933805E+02  0.49999981357E+02 0.  0.
        -12    1    1    2    0    0  0.13987492467E+02  0.39745899141E+01  0.28377348482E+02  0.31886066195E+02  0.00000000000E+00 0.  1.
         11    1    3    3    0    0  0.86311698503E+01 -0.45783204541E+01 -0.60351885827E+01  0.11483971990E+02  0.51100000000E-03 0. -1.
        -11    1    3    3    0    0  0.40766812877E+01 -0.73458361987E+01 -0.17682819123E+02  0.19577097134E+02  0.51100000000E-03 0.  1.
         12    1    3    3    0    0 -0.26695343605E+02  0.79495667387E+01 -0.46593407761E+01  0.28240864682E+02  0.00000000000E+00 0. -1.
</event>
<event>
 7    1  0.3528441E-013  0.5930195E+02  0.7816164E-02  0.1266605E+00
        -11   -1    0    0    0    0  0.00000000000E+00  0.00000000000E+00  0.45593999997E+02  0.45594000000E+02  0.51100000000E-03 0.  1.
         11   -1    0    0    0    0 -0.00000000000E+00 -0.00000000000E+00 -0.45593999997E+02  0.45594000000E+02  0.51100000000E-03 0. -1.
    9900012    2    1    2    0    0 -0.48756845952E+01  0.12443344799E+02 -0.28950152224E+02  0.59301945935E+02  0.50000003479E+02 0.  0.
        -12    1    1    2    0    0  0.48756845952E+01 -0.12443344799E+02  0.28950152224E+02  0.31886054065E+02  0.00000000000E+00 0.  1.
         11    1    3    3    0    0 -0.30068912484E+01 -0.15437270097E+02 -0.14597534525E+02  0.21457835806E+02  0.51100000000E-03 0. -1.
        -11    1    3    3    0    0 -0.25988959139E+01 -0.18489969060E+01 -0.62574243850E+01  0.70234186636E+01  0.51100000000E-03 0.  1.
        -12    1    3    3    0    0  0.73010256708E+00  0.29729611801E+02 -0.80951933135E+01  0.30820691465E+02  0.00000000000E+00 0.  1.
</event>
<event>
 7    1  0.3528441E-013  0.5930195E+02  0.7816164E-02  0.1266605E+00
        -11   -1    0    0    0    0  0.00000000000E+00  0.00000000000E+00  0.45593999997E+02  0.45594000000E+02  0.51100000000E-03 0.  1.
         11   -1    0    0    0    0 -0.00000000000E+00 -0.00000000000E+00 -0.45593999997E+02  0.45594000000E+02  0.51100000000E-03 0. -1.
    9900012    2    1    2    0    0 -0.29824912252E+02  0.85516972006E+01  0.73527795060E+01  0.59301948468E+02  0.50000008097E+02 0.  0.
        -12    1    1    2    0    0  0.29824912252E+02 -0.85516972006E+01 -0.73527795060E+01  0.31886051532E+02  0.00000000000E+00 0.  1.
         11    1    3    3    0    0  0.21642567210E+01  0.88820736578E+01 -0.10302672327E+02  0.13773899119E+02  0.51100000000E-03 0. -1.
        -11    1    3    3    0    0 -0.47140715351E+00 -0.91644364063E+01  0.29030672104E+01  0.96248074702E+01  0.51100000000E-03 0.  1.
         12    1    3    3    0    0 -0.31517761820E+02  0.88340599491E+01  0.14752384623E+02  0.35903241878E+02  0.00000000000E+00 0. -1.
</event>
<event>
 7    1  0.3528441E-013  0.5930194E+02  0.7816164E-02  0.1266605E+00
        -11   -1    0    0    0    0  0.00000000000E+00  0.00000000000E+00  0.45593999997E+02  0.45594000000E+02  0.51100000000E-03 0.  1.
         11   -1    0    0    0    0 -0.00000000000E+00 -0.00000000000E+00 -0.45593999997E+02  0.45594000000E+02  0.51100000000E-03 0. -1.
    9900012    2    1    2    0    0  0.14709837394E+02  0.24503858774E+02  0.14138679330E+02  0.59301942481E+02  0.49999997178E+02 0.  0.
        -12    1    1    2    0    0 -0.14709837394E+02 -0.24503858774E+02 -0.14138679330E+02  0.31886057519E+02  0.00000000000E+00 0.  1.
         11    1    3    3    0    0  0.35910486151E+00  0.21457973443E+02  0.62395713221E-02  0.21460979003E+02  0.51100000000E-03 0. -1.
        -11    1    3    3    0    0 -0.69229071518E+01  0.78517219942E+01  0.12004826399E+02  0.15927712919E+02  0.51100000000E-03 0.  1.
         12    1    3    3    0    0  0.21273639684E+02 -0.48058366633E+01  0.21276133597E+01  0.21913250559E+02  0.00000000000E+00 0. -1.
</event>
<event>
 7    1  0.3528441E-013  0.5930194E+02  0.7816164E-02  0.1266605E+00
        -11   -1    0    0    0    0  0.00000000000E+00  0.00000000000E+00  0.45593999997E+02  0.45594000000E+02  0.51100000000E-03 0. -1.
         11   -1    0    0    0    0 -0.00000000000E+00 -0.00000000000E+00 -0.45593999997E+02  0.45594000000E+02  0.51100000000E-03 0.  1.
    9900012    2    1    2    0    0 -0.24951578166E+02 -0.33331578997E+01  0.19571145996E+02  0.59301937995E+02  0.49999988998E+02 0.  0.
        -12    1    1    2    0    0  0.24951578166E+02  0.33331578997E+01 -0.19571145996E+02  0.31886062005E+02  0.00000000000E+00 0.  1.
         11    1    3    3    0    0  0.25723177400E+01  0.11404307335E+02  0.14571286644E+02  0.18681473151E+02  0.51100000000E-03 0. -1.
        -11    1    3    3    0    0 -0.14922090523E+01  0.64713799562E+01  0.18572214256E+01  0.68959929001E+01  0.51100000000E-03 0.  1.
         12    1    3    3    0    0 -0.26031686854E+02 -0.21208845191E+02  0.31426379257E+01  0.33724471945E+02  0.00000000000E+00 0. -1.
</event>
<event>
 7    1  0.3528441E-013  0.5930194E+02  0.7816164E-02  0.1266605E+00
        -11   -1    0    0    0    0  0.00000000000E+00  0.00000000000E+00  0.45593999997E+02  0.45594000000E+02  0.51100000000E-03 0.  1.
         11   -1    0    0    0    0 -0.00000000000E+00 -0.00000000000E+00 -0.45593999997E+02  0.45594000000E+02  0.51100000000E-03 0. -1.
    9900012    2    1    2    0    0 -0.61028696121E+01  0.16648573404E+01 -0.31252268738E+02  0.59301936136E+02  0.49999985608E+02 0.  0.
        -12    1    1    2    0    0  0.61028696121E+01 -0.16648573404E+01  0.31252268738E+02  0.31886063864E+02  0.00000000000E+00 0.  1.
         11    1    3    3    0    0 -0.52303269173E+01 -0.14546034451E+02 -0.32825048286E+02  0.36282602348E+02  0.51100000000E-03 0. -1.
        -11    1    3    3    0    0  0.50929312848E+00  0.60871113692E+01 -0.72777589294E+01  0.95014777592E+01  0.51100000000E-03 0.  1.
         12    1    3    3    0    0 -0.13818358233E+01  0.10123780422E+02  0.88505384779E+01  0.13517856029E+02  0.00000000000E+00 0. -1.
</event>
<event>
 7    1  0.3528441E-013  0.5930196E+02  0.7816164E-02  0.1266605E+00
        -11   -1    0    0    0    0  0.00000000000E+00  0.00000000000E+00  0.45593999997E+02  0.45594000000E+02  0.51100000000E-03 0.  1.
         11   -1    0    0    0    0 -0.00000000000E+00 -0.00000000000E+00 -0.45593999997E+02  0.45594000000E+02  0.51100000000E-03 0. -1.
    9900012    2    1    2    0    0 -0.23082768495E+02 -0.13352620568E+02 -0.17481786991E+02  0.59301959891E+02  0.50000028930E+02 0.  0.
        -12    1    1    2    0    0  0.23082768495E+02  0.13352620568E+02  0.17481786991E+02  0.31886040109E+02  0.00000000000E+00 0.  1.
         11    1    3    3    0    0 -0.71989190201E+01  0.14283624429E+02 -0.17720057161E+02  0.23871463883E+02  0.51100000000E-03 0. -1.
        -11    1    3    3    0    0 -0.69682785178E+01 -0.81507734454E+00  0.13499748953E+01  0.71444866197E+01  0.51100000000E-03 0.  1.
        -12    1    3    3    0    0 -0.89155709575E+01 -0.26821167652E+02 -0.11117047258E+01  0.28286009388E+02  0.00000000000E+00 0.  1.
</event>
<event>
 7    1  0.3528441E-013  0.5930197E+02  0.7816164E-02  0.1266605E+00
        -11   -1    0    0    0    0  0.00000000000E+00  0.00000000000E+00  0.45593999997E+02  0.45594000000E+02  0.51100000000E-03 0.  1.
         11   -1    0    0    0    0 -0.00000000000E+00 -0.00000000000E+00 -0.45593999997E+02  0.45594000000E+02  0.51100000000E-03 0. -1.
    9900012    2    1    2    0    0  0.58890419424E+01  0.29158365189E+02 -0.11481641453E+02  0.59301965973E+02  0.50000040023E+02 0.  0.
        -12    1    1    2    0    0 -0.58890419424E+01 -0.29158365189E+02  0.11481641453E+02  0.31886034027E+02  0.00000000000E+00 0.  1.
         11    1    3    3    0    0 -0.30539486530E+01  0.46916192120E+01  0.62999585588E+01  0.84277738051E+01  0.51100000000E-03 0. -1.
        -11    1    3    3    0    0  0.15972027499E+02  0.24414770594E+01  0.64364359472E+01  0.17392359834E+02  0.51100000000E-03 0.  1.
        -12    1    3    3    0    0 -0.70290369031E+01  0.22025268918E+02 -0.24218035959E+02  0.33481832333E+02  0.00000000000E+00 0.  1.
</event>
<event>
 7    1  0.3528441E-013  0.5930195E+02  0.7816164E-02  0.1266605E+00
        -11   -1    0    0    0    0  0.00000000000E+00  0.00000000000E+00  0.45593999997E+02  0.45594000000E+02  0.51100000000E-03 0. -1.
         11   -1    0    0    0    0 -0.00000000000E+00 -0.00000000000E+00 -0.45593999997E+02  0.45594000000E+02  0.51100000000E-03 0.  1.
    9900012    2    1    2    0    0 -0.17836323371E+02  0.12899691064E+02  0.23069101839E+02  0.59301954140E+02  0.50000018442E+02 0.  0.
        -12    1    1    2    0    0  0.17836323371E+02 -0.12899691064E+02 -0.23069101839E+02  0.31886045860E+02  0.00000000000E+00 0.  1.
         11    1    3    3    0    0 -0.92434213120E+01 -0.27910151353E+01 -0.15303563576E+01  0.97761236632E+01  0.51100000000E-03 0. -1.
        -11    1    3    3    0    0 -0.15235949869E+02  0.44031608020E+01 -0.54309704432E+01  0.16763574609E+02  0.51100000000E-03 0.  1.
         12    1    3    3    0    0  0.66430478097E+01  0.11287545397E+02  0.30030428640E+02  0.32762255868E+02  0.00000000000E+00 0. -1.
</event>
<event>
 7    1  0.3528441E-013  0.5930195E+02  0.7816164E-02  0.1266605E+00
        -11   -1    0    0    0    0  0.00000000000E+00  0.00000000000E+00  0.45593999997E+02  0.45594000000E+02  0.51100000000E-03 0.  1.
         11   -1    0    0    0    0 -0.00000000000E+00 -0.00000000000E+00 -0.45593999997E+02  0.45594000000E+02  0.51100000000E-03 0. -1.
    9900012    2    1    2    0    0  0.40683316208E+01 -0.11486429160E+02 -0.29465756387E+02  0.59301950127E+02  0.50000011124E+02 0.  0.
        -12    1    1    2    0    0 -0.40683316208E+01  0.11486429160E+02  0.29465756387E+02  0.31886049873E+02  0.00000000000E+00 0.  1.
         11    1    3    3    0    0  0.91008529056E+01 -0.58614385748E+01  0.28026901538E+01  0.11181997055E+02  0.51100000000E-03 0.  1.
        -11    1    3    3    0    0  0.83823315116E+01 -0.15766229997E+02 -0.10870744159E+02  0.20904797744E+02  0.51100000000E-03 0. -1.
        -12    1    3    3    0    0 -0.13414852796E+02  0.10141239411E+02 -0.21397702382E+02  0.27215155329E+02  0.00000000000E+00 0.  1.
</event>
<event>
 7    1  0.3528441E-013  0.5930195E+02  0.7816164E-02  0.1266605E+00
        -11   -1    0    0    0    0  0.00000000000E+00  0.00000000000E+00  0.45593999997E+02  0.45594000000E+02  0.51100000000E-03 0.  1.
         11   -1    0    0    0    0 -0.00000000000E+00 -0.00000000000E+00 -0.45593999997E+02  0.45594000000E+02  0.51100000000E-03 0. -1.
    9900012    2    1    2    0    0  0.26842874070E+02  0.17047364008E+02 -0.23596106862E+01  0.59301948652E+02  0.50000008434E+02 0.  0.
        -12    1    1    2    0    0 -0.26842874070E+02 -0.17047364008E+02  0.23596106862E+01  0.31886051348E+02  0.00000000000E+00 0.  1.
         11    1    3    3    0    0  0.98955985479E+01 -0.20228373029E+01  0.26061169762E+01  0.10431039609E+02  0.51100000000E-03 0. -1.
        -11    1    3    3    0    0  0.11037117765E+02 -0.59349233511E+00  0.16051304387E+02  0.19488832046E+02  0.51100000000E-03 0.  1.
         12    1    3    3    0    0  0.59101577577E+01  0.19663693646E+02 -0.21017032050E+02  0.29382076997E+02  0.00000000000E+00 0. -1.
</event>
<event>
 7    1  0.3528441E-013  0.5930194E+02  0.7816164E-02  0.1266605E+00
        -11   -1    0    0    0    0  0.00000000000E+00  0.00000000000E+00  0.45593999997E+02  0.45594000000E+02  0.51100000000E-03 0.  1.
         11   -1    0    0    0    0 -0.00000000000E+00 -0.00000000000E+00 -0.45593999997E+02  0.45594000000E+02  0.51100000000E-03 0. -1.
    9900012    2    1    2    0    0 -0.23991739550E+01  0.22574270576E+02 -0.22391227635E+02  0.59301940308E+02  0.49999993216E+02 0.  0.
        -12    1    1    2    0    0  0.23991739550E+01 -0.22574270576E+02  0.22391227635E+02  0.31886059692E+02  0.00000000000E+00 0.  1.
         11    1    3    3    0    0 -0.12445378850E+02  0.10176688318E+02  0.62651112401E+01  0.17254102670E+02  0.51100000000E-03 0.  1.
        -11    1    3    3    0    0  0.14547928269E+02  0.33019690677E+01 -0.40910688589E+01  0.15468744658E+02  0.51100000000E-03 0. -1.
         12    1    3    3    0    0 -0.45017233741E+01  0.90956131906E+01 -0.24565270016E+02  0.26579092979E+02  0.00000000000E+00 0. -1.
</event>
<event>
 7    1  0.3528441E-013  0.5930197E+02  0.7816164E-02  0.1266605E+00
        -11   -1    0    0    0    0  0.00000000000E+00  0.00000000000E+00  0.45593999997E+02  0.45594000000E+02  0.51100000000E-03 0.  1.
         11   -1    0    0    0    0 -0.00000000000E+00 -0.00000000000E+00 -0.45593999997E+02  0.45594000000E+02  0.51100000000E-03 0. -1.
    9900012    2    1    2    0    0  0.14612266355E+02 -0.28035537913E+02 -0.41483806750E+01  0.59301972083E+02  0.50000051167E+02 0.  0.
        -12    1    1    2    0    0 -0.14612266355E+02  0.28035537913E+02  0.41483806750E+01  0.31886027917E+02  0.00000000000E+00 0.  1.
         11    1    3    3    0    0 -0.14845510711E+02 -0.20077008932E+00  0.24021760273E+01  0.15039945040E+02  0.51100000000E-03 0.  1.
        -11    1    3    3    0    0  0.14761131082E+02 -0.33758025876E+01 -0.86901644908E+00  0.15167142901E+02  0.51100000000E-03 0. -1.
        -12    1    3    3    0    0  0.14696645984E+02 -0.24458965236E+02 -0.56815402533E+01  0.29094884142E+02  0.00000000000E+00 0.  1.
</event>
<event>
 7    1  0.3528441E-013  0.5930195E+02  0.7816164E-02  0.1266605E+00
        -11   -1    0    0    0    0  0.00000000000E+00  0.00000000000E+00  0.45593999997E+02  0.45594000000E+02  0.51100000000E-03 0.  1.
         11   -1    0    0    0    0 -0.00000000000E+00 -0.00000000000E+00 -0.45593999997E+02  0.45594000000E+02  0.51100000000E-03 0. -1.
    9900012    2    1    2    0    0 -0.29285854044E+02 -0.20656873210E+01  0.12441532373E+02  0.59301952283E+02  0.50000015056E+02 0.  0.
        -12    1    1    2    0    0  0.29285854044E+02  0.20656873210E+01 -0.12441532373E+02  0.31886047717E+02  0.00000000000E+00 0.  1.
         11    1    3    3    0    0 -0.18694989831E+02 -0.13409086941E+02  0.22220544240E+02  0.31985291056E+02  0.51100000000E-03 0. -1.
        -11    1    3    3    0    0 -0.19954152023E+01 -0.46350661747E+01  0.22733118152E+01  0.55347508656E+01  0.51100000000E-03 0.  1.
        -12    1    3    3    0    0 -0.85954490109E+01  0.15978465795E+02 -0.12052323682E+02  0.21781910362E+02  0.00000000000E+00 0.  1.
</event>
<event>
 7    1  0.3528441E-013  0.5930194E+02  0.7816164E-02  0.1266605E+00
        -11   -1    0    0    0    0  0.00000000000E+00  0.00000000000E+00  0.45593999997E+02  0.45594000000E+02  0.51100000000E-03 0.  1.
         11   -1    0    0    0    0 -0.00000000000E+00 -0.00000000000E+00 -0.45593999997E+02  0.45594000000E+02  0.51100000000E-03 0. -1.
    9900012    2    1    2    0    0 -0.22374889062E+02 -0.22428952418E+02  0.36093257946E+01  0.59301940353E+02  0.49999993298E+02 0.  0.
        -12    1    1    2    0    0  0.22374889062E+02  0.22428952418E+02 -0.36093257946E+01  0.31886059647E+02  0.00000000000E+00 0.  1.
         11    1    3    3    0    0 -0.79429010553E+01 -0.25038097394E+02 -0.29506977099E+01  0.26432983477E+02  0.51100000000E-03 0. -1.
        -11    1    3    3    0    0 -0.45053476059E+01 -0.94650167114E+01  0.12351094039E+02  0.16199821685E+02  0.51100000000E-03 0.  1.
        -12    1    3    3    0    0 -0.99266404006E+01  0.12074161687E+02 -0.57910705347E+01  0.16669135191E+02  0.00000000000E+00 0.  1.
</event>
<event>
 7    1  0.3528441E-013  0.5930194E+02  0.7816164E-02  0.1266605E+00
        -11   -1    0    0    0    0  0.00000000000E+00  0.00000000000E+00  0.45593999997E+02  0.45594000000E+02  0.51100000000E-03 0.  1.
         11   -1    0    0    0    0 -0.00000000000E+00 -0.00000000000E+00 -0.45593999997E+02  0.45594000000E+02  0.51100000000E-03 0. -1.
    9900012    2    1    2    0    0  0.29070110288E+02 -0.83065783520E+00 -0.13075142561E+02  0.59301942583E+02  0.49999997365E+02 0.  0.
        -12    1    1    2    0    0 -0.29070110288E+02  0.83065783520E+00  0.13075142561E+02  0.31886057417E+02  0.00000000000E+00 0.  1.
         11    1    3    3    0    0  0.15816405778E+01  0.32031484970E+01  0.62969966487E+01  0.72397454559E+01  0.51100000000E-03 0. -1.
        -11    1    3    3    0    0  0.36004591661E+01  0.76264807165E+00  0.11878667500E+02  0.12435742042E+02  0.51100000000E-03 0.  1.
         12    1    3    3    0    0  0.23888010545E+02 -0.47964544039E+01 -0.31250806710E+02  0.39626455085E+02  0.00000000000E+00 0. -1.
</event>
<event>
 7    1  0.3528441E-013  0.5930185E+02  0.7816164E-02  0.1266605E+00
        -11   -1    0    0    0    0  0.00000000000E+00  0.00000000000E+00  0.45593999997E+02  0.45594000000E+02  0.51100000000E-03 0. -1.
         11   -1    0    0    0    0 -0.00000000000E+00 -0.00000000000E+00 -0.45593999997E+02  0.45594000000E+02  0.51100000000E-03 0.  1.
    9900012    2    1    2    0    0  0.86763372893E+01 -0.37877518786E+01  0.30448333000E+02  0.59301845081E+02  0.49999819544E+02 0.  0.
        -12    1    1    2    0    0 -0.86763372893E+01  0.37877518786E+01 -0.30448333000E+02  0.31886154919E+02  0.00000000000E+00 0.  1.
         11    1    3    3    0    0 -0.68007964038E+01  0.72360070312E+01  0.27467046165E+02  0.29207006947E+02  0.51100000000E-03 0. -1.
        -11    1    3    3    0    0 -0.21938820979E+01 -0.38744672523E+01 -0.72138658821E+01  0.84772918066E+01  0.51100000000E-03 0.  1.
        -12    1    3    3    0    0  0.17671015791E+02 -0.71492916575E+01  0.10195152717E+02  0.21617546327E+02  0.00000000000E+00 0.  1.
</event>
<event>
 7    1  0.3528441E-013  0.5930194E+02  0.7816164E-02  0.1266605E+00
        -11   -1    0    0    0    0  0.00000000000E+00  0.00000000000E+00  0.45593999997E+02  0.45594000000E+02  0.51100000000E-03 0. -1.
         11   -1    0    0    0    0 -0.00000000000E+00 -0.00000000000E+00 -0.45593999997E+02  0.45594000000E+02  0.51100000000E-03 0.  1.
    9900012    2    1    2    0    0 -0.10307808596E+02 -0.30121551514E+02 -0.17782703311E+01  0.59301936759E+02  0.49999986743E+02 0.  0.
        -12    1    1    2    0    0  0.10307808596E+02  0.30121551514E+02  0.17782703311E+01  0.31886063241E+02  0.00000000000E+00 0.  1.
         11    1    3    3    0    0  0.12265321360E+02 -0.18833209241E+02 -0.19652152498E+01  0.22560805606E+02  0.51100000000E-03 0. -1.
        -11    1    3    3    0    0 -0.18619920411E+02 -0.70150721511E+01 -0.11999417299E+02  0.23235720113E+02  0.51100000000E-03 0.  1.
         12    1    3    3    0    0 -0.39532095445E+01 -0.42732701217E+01  0.12186362218E+02  0.13505411039E+02  0.00000000000E+00 0. -1.
</event>
<event>
 7    1  0.3528441E-013  0.5930203E+02  0.7816164E-02  0.1266604E+00
        -11   -1    0    0    0    0  0.00000000000E+00  0.00000000000E+00  0.45593999997E+02  0.45594000000E+02  0.51100000000E-03 0.  1.
         11   -1    0    0    0    0 -0.00000000000E+00 -0.00000000000E+00 -0.45593999997E+02  0.45594000000E+02  0.51100000000E-03 0. -1.
    9900012    2    1    2    0    0 -0.28477516474E+02 -0.83767862366E+01 -0.11643689017E+02  0.59302031517E+02  0.50000159559E+02 0.  0.
        -12    1    1    2    0    0  0.28477516474E+02  0.83767862366E+01  0.11643689017E+02  0.31885968483E+02  0.00000000000E+00 0.  1.
         11    1    3    3    0    0 -0.64382456011E+01 -0.19213000439E+02 -0.17292601826E+02  0.26638777570E+02  0.51100000000E-03 0. -1.
        -11    1    3    3    0    0 -0.48722479374E+01 -0.40651854894E+01  0.75372381362E+01  0.98526388348E+01  0.51100000000E-03 0.  1.
         12    1    3    3    0    0 -0.17167022935E+02  0.14901399692E+02 -0.18883253274E+01  0.22810615112E+02  0.00000000000E+00 0. -1.
</event>
<event>
 7    1  0.3528441E-013  0.5930196E+02  0.7816164E-02  0.1266605E+00
        -11   -1    0    0    0    0  0.00000000000E+00  0.00000000000E+00  0.45593999997E+02  0.45594000000E+02  0.51100000000E-03 0.  1.
         11   -1    0    0    0    0 -0.00000000000E+00 -0.00000000000E+00 -0.45593999997E+02  0.45594000000E+02  0.51100000000E-03 0. -1.
    9900012    2    1    2    0    0 -0.15563839103E+00 -0.10185710144E+02 -0.30215007548E+02  0.59301959237E+02  0.50000027737E+02 0.  0.
        -12    1    1    2    0    0  0.15563839103E+00  0.10185710144E+02  0.30215007548E+02  0.31886040763E+02  0.00000000000E+00 0.  1.
         11    1    3    3    0    0  0.99620782130E+01  0.71102612120E+00  0.65870468908E+00  0.10009118472E+02  0.51100000000E-03 0. -1.
        -11    1    3    3    0    0 -0.12712361495E+02  0.97662663996E+01 -0.66698069892E+01  0.17362903550E+02  0.51100000000E-03 0.  1.
         12    1    3    3    0    0  0.25946448908E+01 -0.20663002665E+02 -0.24203905248E+02  0.31929937214E+02  0.00000000000E+00 0. -1.
</event>
<event>
 7    1  0.3528441E-013  0.5930194E+02  0.7816164E-02  0.1266605E+00
        -11   -1    0    0    0    0  0.00000000000E+00  0.00000000000E+00  0.45593999997E+02  0.45594000000E+02  0.51100000000E-03 0. -1.
         11   -1    0    0    0    0 -0.00000000000E+00 -0.00000000000E+00 -0.45593999997E+02  0.45594000000E+02  0.51100000000E-03 0.  1.
    9900012    2    1    2    0    0  0.23935684022E+02  0.14886117836E+02  0.14906612737E+02  0.59301943844E+02  0.49999999666E+02 0.  0.
        -12    1    1    2    0    0 -0.23935684022E+02 -0.14886117836E+02 -0.14906612737E+02  0.31886056156E+02  0.00000000000E+00 0.  1.
         11    1    3    3    0    0 -0.75153736253E+00  0.93280975882E-01 -0.45805739869E+00  0.88505739326E+00  0.51100000000E-03 0. -1.
        -11    1    3    3    0    0  0.16150163354E+02 -0.15675007851E+02  0.14482430934E+02  0.26763304234E+02  0.51100000000E-03 0.  1.
         12    1    3    3    0    0  0.85370580305E+01  0.30467844711E+02  0.88223920194E+00  0.31653582217E+02  0.00000000000E+00 0. -1.
</event>
<event>
 7    1  0.3528441E-013  0.5930193E+02  0.7816164E-02  0.1266605E+00
        -11   -1    0    0    0    0  0.00000000000E+00  0.00000000000E+00  0.45593999997E+02  0.45594000000E+02  0.51100000000E-03 0. -1.
         11   -1    0    0    0    0 -0.00000000000E+00 -0.00000000000E+00 -0.45593999997E+02  0.45594000000E+02  0.51100000000E-03 0.  1.
    9900012    2    1    2    0    0 -0.23428924720E+02 -0.19541708168E+02  0.92697767022E+01  0.59301927307E+02  0.49999969506E+02 0.  0.
        -12    1    1    2    0    0  0.23428924720E+02  0.19541708168E+02 -0.92697767022E+01  0.31886072693E+02  0.00000000000E+00 0.  1.
         11    1    3    3    0    0  0.12174847476E+02 -0.52946714109E+01  0.56646007453E+01  0.14434270272E+02  0.51100000000E-03 0. -1.
        -11    1    3    3    0    0 -0.12046640945E+02  0.61622210906E+01  0.43348624948E+00  0.13538184421E+02  0.51100000000E-03 0.  1.
        -12    1    3    3    0    0 -0.23557131251E+02 -0.20409257848E+02  0.31716897074E+01  0.31329472614E+02  0.00000000000E+00 0.  1.
</event>
<event>
 7    1  0.3528441E-013  0.5930194E+02  0.7816164E-02  0.1266605E+00
        -11   -1    0    0    0    0  0.00000000000E+00  0.00000000000E+00  0.45593999997E+02  0.45594000000E+02  0.51100000000E-03 0.  1.
         11   -1    0    0    0    0 -0.00000000000E+00 -0.00000000000E+00 -0.45593999997E+02  0.45594000000E+02  0.51100000000E-03 0. -1.
    9900012    2    1    2    0    0 -0.11083674877E+02 -0.17772719184E+02 -0.24041699250E+02  0.59301941937E+02  0.49999996187E+02 0.  0.
        -12    1    1    2    0    0  0.11083674877E+02  0.17772719184E+02  0.24041699250E+02  0.31886058063E+02  0.00000000000E+00 0.  1.
         11    1    3    3    0    0 -0.63677232384E+01 -0.16621046350E+02 -0.16759071298E+02  0.24447362885E+02  0.51100000000E-03 0. -1.
        -11    1    3    3    0    0  0.10685420654E+02  0.40716025613E+01 -0.13276651669E+02  0.17522147179E+02  0.51100000000E-03 0.  1.
        -12    1    3    3    0    0 -0.15401372292E+02 -0.52232753949E+01  0.59940237165E+01  0.17332431873E+02  0.00000000000E+00 0.  1.
</event>
<event>
 7    1  0.3528441E-013  0.5930200E+02  0.7816164E-02  0.1266605E+00
        -11   -1    0    0    0    0  0.00000000000E+00  0.00000000000E+00  0.45593999997E+02  0.45594000000E+02  0.51100000000E-03 0.  1.
         11   -1    0    0    0    0 -0.00000000000E+00 -0.00000000000E+00 -0.45593999997E+02  0.45594000000E+02  0.51100000000E-03 0. -1.
    9900012    2    1    2    0    0  0.16668500706E+02 -0.24591261234E+02 -0.11582215769E+02  0.59302003591E+02  0.50000108629E+02 0.  0.
        -12    1    1    2    0    0 -0.16668500706E+02  0.24591261234E+02  0.11582215769E+02  0.31885996409E+02  0.00000000000E+00 0.  1.
         11    1    3    3    0    0  0.25189984757E+00 -0.26707566709E+02  0.24880556444E+01  0.26824391777E+02  0.51100000000E-03 0. -1.
        -11    1    3    3    0    0  0.15172629677E+01 -0.70405325678E+01  0.32163070062E+01  0.78877003474E+01  0.51100000000E-03 0.  1.
        -12    1    3    3    0    0  0.14899337890E+02  0.91568380421E+01 -0.17286578420E+02  0.24589911467E+02  0.00000000000E+00 0.  1.
</event>
<event>
 7    1  0.3528441E-013  0.5930192E+02  0.7816164E-02  0.1266605E+00
        -11   -1    0    0    0    0  0.00000000000E+00  0.00000000000E+00  0.45593999997E+02  0.45594000000E+02  0.51100000000E-03 0.  1.
         11   -1    0    0    0    0 -0.00000000000E+00 -0.00000000000E+00 -0.45593999997E+02  0.45594000000E+02  0.51100000000E-03 0. -1.
    9900012    2    1    2    0    0 -0.12239882370E+02  0.18873081570E+02 -0.22598979031E+02  0.59301924957E+02  0.49999965220E+02 0.  0.
        -12    1    1    2    0    0  0.12239882370E+02 -0.18873081570E+02  0.22598979031E+02  0.31886075043E+02  0.00000000000E+00 0.  1.
         11    1    3    3    0    0  0.77769605152E+00 -0.28614267541E+01 -0.82993644617E+01  0.88131733755E+01  0.51100000000E-03 0. -1.
        -11    1    3    3    0    0  0.12749295710E+02  0.18011329709E+02 -0.94553676466E+01  0.24007426280E+02  0.51100000000E-03 0.  1.
        -12    1    3    3    0    0 -0.25766874131E+02  0.37231786154E+01 -0.48442469227E+01  0.26481325302E+02  0.00000000000E+00 0.  1.
</event>
<event>
 7    1  0.3528441E-013  0.5930195E+02  0.7816164E-02  0.1266605E+00
        -11   -1    0    0    0    0  0.00000000000E+00  0.00000000000E+00  0.45593999997E+02  0.45594000000E+02  0.51100000000E-03 0. -1.
         11   -1    0    0    0    0 -0.00000000000E+00 -0.00000000000E+00 -0.45593999997E+02  0.45594000000E+02  0.51100000000E-03 0.  1.
    9900012    2    1    2    0    0  0.21309633229E+02 -0.48635809121E+01  0.23215628432E+02  0.59301948329E+02  0.50000007845E+02 0.  0.
        -12    1    1    2    0    0 -0.21309633229E+02  0.48635809121E+01 -0.23215628432E+02  0.31886051671E+02  0.00000000000E+00 0.  1.
         11    1    3    3    0    0  0.10933566712E+02  0.24560233511E+01  0.15988762286E+02  0.19524739472E+02  0.51100000000E-03 0. -1.
        -11    1    3    3    0    0  0.15340174116E+02 -0.34447800083E+01  0.20057133265E+02  0.25484819919E+02  0.51100000000E-03 0.  1.
        -12    1    3    3    0    0 -0.49641075994E+01 -0.38748242549E+01 -0.12830267118E+02  0.14292388939E+02  0.00000000000E+00 0.  1.
</event>
<event>
 7    1  0.3528441E-013  0.5930194E+02  0.7816164E-02  0.1266605E+00
        -11   -1    0    0    0    0  0.00000000000E+00  0.00000000000E+00  0.45593999997E+02  0.45594000000E+02  0.51100000000E-03 0.  1.
         11   -1    0    0    0    0 -0.00000000000E+00 -0.00000000000E+00 -0.45593999997E+02  0.45594000000E+02  0.51100000000E-03 0. -1.
    9900012    2    1    2    0    0  0.18440494202E+02 -0.17912311364E+02 -0.18863149336E+02  0.59301935212E+02  0.49999983921E+02 0.  0.
        -12    1    1    2    0    0 -0.18440494202E+02  0.17912311364E+02  0.18863149336E+02  0.31886064788E+02  0.00000000000E+00 0.  1.
         11    1    3    3    0    0  0.50746124915E+01  0.22223503642E+01 -0.10142166298E+02  0.11556559633E+02  0.51100000000E-03 0. -1.
        -11    1    3    3    0    0  0.16676724862E+02  0.59596437373E+01  0.45483864307E+01  0.18284373793E+02  0.51100000000E-03 0.  1.
        -12    1    3    3    0    0 -0.33108431518E+01 -0.26094305465E+02 -0.13269369469E+02  0.29461001785E+02  0.00000000000E+00 0.  1.
</event>
<event>
 7    1  0.3528441E-013  0.5930193E+02  0.7816164E-02  0.1266605E+00
        -11   -1    0    0    0    0  0.00000000000E+00  0.00000000000E+00  0.45593999997E+02  0.45594000000E+02  0.51100000000E-03 0.  1.
         11   -1    0    0    0    0 -0.00000000000E+00 -0.00000000000E+00 -0.45593999997E+02  0.45594000000E+02  0.51100000000E-03 0. -1.
    9900012    2    1    2    0    0  0.20071315919E+02  0.17395978131E+02 -0.17642093906E+02  0.59301933212E+02  0.49999980274E+02 0.  0.
        -12    1    1    2    0    0 -0.20071315919E+02 -0.17395978131E+02  0.17642093906E+02  0.31886066788E+02  0.00000000000E+00 0.  1.
         11    1    3    3    0    0  0.19987208402E+02  0.71673111196E+01  0.11990632750E+02  0.24385120922E+02  0.51100000000E-03 0. -1.
        -11    1    3    3    0    0 -0.26981611008E+00  0.94689390089E+01 -0.58800985777E+01  0.11149402057E+02  0.51100000000E-03 0.  1.
        -12    1    3    3    0    0  0.35392362705E+00  0.75972800261E+00 -0.23752628078E+02  0.23767410233E+02  0.00000000000E+00 0.  1.
</event>
<event>
 7    1  0.3528441E-013  0.5930195E+02  0.7816164E-02  0.1266605E+00
        -11   -1    0    0    0    0  0.00000000000E+00  0.00000000000E+00  0.45593999997E+02  0.45594000000E+02  0.51100000000E-03 0.  1.
         11   -1    0    0    0    0 -0.00000000000E+00 -0.00000000000E+00 -0.45593999997E+02  0.45594000000E+02  0.51100000000E-03 0. -1.
    9900012    2    1    2    0    0 -0.27870616411E+02  0.99261781327E+01 -0.11892023536E+02  0.59301945129E+02  0.50000002009E+02 0.  0.
        -12    1    1    2    0    0  0.27870616411E+02 -0.99261781327E+01  0.11892023536E+02  0.31886054871E+02  0.00000000000E+00 0.  1.
         11    1    3    3    0    0 -0.72595927797E+01 -0.80007987928E+01  0.34615002993E+01  0.11344445920E+02  0.51100000000E-03 0. -1.
        -11    1    3    3    0    0  0.84903034477E+01  0.80499840538E+01  0.31095147698E+01  0.12106055438E+02  0.51100000000E-03 0.  1.
         12    1    3    3    0    0 -0.29101327079E+02  0.98769928717E+01 -0.18463038605E+02  0.35851443771E+02  0.00000000000E+00 0. -1.
</event>
<event>
 7    1  0.3528441E-013  0.5930195E+02  0.7816164E-02  0.1266605E+00
        -11   -1    0    0    0    0  0.00000000000E+00  0.00000000000E+00  0.45593999997E+02  0.45594000000E+02  0.51100000000E-03 0.  1.
         11   -1    0    0    0    0 -0.00000000000E+00 -0.00000000000E+00 -0.45593999997E+02  0.45594000000E+02  0.51100000000E-03 0. -1.
    9900012    2    1    2    0    0  0.14287040912E+02 -0.16974743177E+02 -0.22901068055E+02  0.59301947218E+02  0.50000005818E+02 0.  0.
        -12    1    1    2    0    0 -0.14287040912E+02  0.16974743177E+02  0.22901068055E+02  0.31886052782E+02  0.00000000000E+00 0.  1.
         11    1    3    3    0    0 -0.43577667955E+01 -0.10538671768E+02 -0.49697528231E+01  0.12439942824E+02  0.51100000000E-03 0. -1.
        -11    1    3    3    0    0  0.77105073302E+00 -0.20375305967E+02 -0.60405501732E+01  0.21265837842E+02  0.51100000000E-03 0.  1.
        -12    1    3    3    0    0  0.17873756975E+02  0.13939234558E+02 -0.11890765059E+02  0.25596166552E+02  0.00000000000E+00 0.  1.
</event>
<event>
 7    1  0.3528441E-013  0.5930194E+02  0.7816164E-02  0.1266605E+00
        -11   -1    0    0    0    0  0.00000000000E+00  0.00000000000E+00  0.45593999997E+02  0.45594000000E+02  0.51100000000E-03 0.  1.
         11   -1    0    0    0    0 -0.00000000000E+00 -0.00000000000E+00 -0.45593999997E+02  0.45594000000E+02  0.51100000000E-03 0. -1.
    9900012    2    1    2    0    0  0.19906688155E+02  0.10294963886E+02 -0.22681677270E+02  0.59301937238E+02  0.49999987617E+02 0.  0.
        -12    1    1    2    0    0 -0.19906688155E+02 -0.10294963886E+02  0.22681677270E+02  0.31886062762E+02  0.00000000000E+00 0.  1.
         11    1    3    3    0    0  0.12373482791E+01  0.17143899346E+02 -0.17805139508E+02  0.24748076869E+02  0.51100000000E-03 0. -1.
        -11    1    3    3    0    0  0.35535722054E+01  0.99645166011E+01  0.23128423473E+01  0.10829067665E+02  0.51100000000E-03 0.  1.
         12    1    3    3    0    0  0.15115767670E+02 -0.16813452061E+02 -0.71893801088E+01  0.23724792704E+02  0.00000000000E+00 0. -1.
</event>
<event>
 7    1  0.3528441E-013  0.5930196E+02  0.7816164E-02  0.1266605E+00
        -11   -1    0    0    0    0  0.00000000000E+00  0.00000000000E+00  0.45593999997E+02  0.45594000000E+02  0.51100000000E-03 0. -1.
         11   -1    0    0    0    0 -0.00000000000E+00 -0.00000000000E+00 -0.45593999997E+02  0.45594000000E+02  0.51100000000E-03 0.  1.
    9900012    2    1    2    0    0 -0.98081852563E+01 -0.19441784232E+02  0.23292410580E+02  0.59301955047E+02  0.50000020096E+02 0.  0.
        -12    1    1    2    0    0  0.98081852563E+01  0.19441784232E+02 -0.23292410580E+02  0.31886044953E+02  0.00000000000E+00 0.  1.
         11    1    3    3    0    0 -0.17730532375E+02  0.59668342504E+01  0.17404893360E+02  0.25552009753E+02  0.51100000000E-03 0. -1.
        -11    1    3    3    0    0  0.62847362386E+01 -0.44960233928E+01  0.97290907104E+01  0.12424465471E+02  0.51100000000E-03 0.  1.
         12    1    3    3    0    0  0.16376108800E+01 -0.20912595089E+02 -0.38415734908E+01  0.21325479822E+02  0.00000000000E+00 0. -1.
</event>
<event>
 7    1  0.3528441E-013  0.5930196E+02  0.7816164E-02  0.1266605E+00
        -11   -1    0    0    0    0  0.00000000000E+00  0.00000000000E+00  0.45593999997E+02  0.45594000000E+02  0.51100000000E-03 0.  1.
         11   -1    0    0    0    0 -0.00000000000E+00 -0.00000000000E+00 -0.45593999997E+02  0.45594000000E+02  0.51100000000E-03 0. -1.
    9900012    2    1    2    0    0 -0.52090413498E+01 -0.20983795632E+01 -0.31387610868E+02  0.59301961918E+02  0.50000032628E+02 0.  0.
        -12    1    1    2    0    0  0.52090413498E+01  0.20983795632E+01  0.31387610868E+02  0.31886038082E+02  0.00000000000E+00 0.  1.
         11    1    3    3    0    0  0.12256194030E+02 -0.56142297542E+01 -0.31317272085E+01  0.13839854891E+02  0.51100000000E-03 0. -1.
        -11    1    3    3    0    0  0.55002048720E+01  0.48357849390E+01  0.18693114503E+01  0.75585312839E+01  0.51100000000E-03 0.  1.
         12    1    3    3    0    0 -0.22965440252E+02 -0.13199347481E+01 -0.30125195109E+02  0.37903575743E+02  0.00000000000E+00 0. -1.
</event>
<event>
 7    1  0.3528441E-013  0.5930197E+02  0.7816164E-02  0.1266605E+00
        -11   -1    0    0    0    0  0.00000000000E+00  0.00000000000E+00  0.45593999997E+02  0.45594000000E+02  0.51100000000E-03 0.  1.
         11   -1    0    0    0    0 -0.00000000000E+00 -0.00000000000E+00 -0.45593999997E+02  0.45594000000E+02  0.51100000000E-03 0. -1.
    9900012    2    1    2    0    0 -0.30589045559E+02 -0.43228418264E+01 -0.78957243454E+01  0.59301966496E+02  0.50000040977E+02 0.  0.
        -12    1    1    2    0    0  0.30589045559E+02  0.43228418264E+01  0.78957243454E+01  0.31886033504E+02  0.00000000000E+00 0.  1.
         11    1    3    3    0    0 -0.63966036938E+01  0.18662522619E+01 -0.96738509251E+01  0.11746609226E+02  0.51100000000E-03 0. -1.
        -11    1    3    3    0    0  0.97806736625E+01 -0.69014239011E+01  0.58647683494E+01  0.13329918875E+02  0.51100000000E-03 0.  1.
        -12    1    3    3    0    0 -0.33973115528E+02  0.71232981286E+00 -0.40866417697E+01  0.34225438396E+02  0.00000000000E+00 0.  1.
</event>
<event>
 7    1  0.3528441E-013  0.5930194E+02  0.7816164E-02  0.1266605E+00
        -11   -1    0    0    0    0  0.00000000000E+00  0.00000000000E+00  0.45593999997E+02  0.45594000000E+02  0.51100000000E-03 0. -1.
         11   -1    0    0    0    0 -0.00000000000E+00 -0.00000000000E+00 -0.45593999997E+02  0.45594000000E+02  0.51100000000E-03 0.  1.
    9900012    2    1    2    0    0 -0.85126325755E+01  0.29004860687E+02 -0.10147612127E+02  0.59301938959E+02  0.49999990756E+02 0.  0.
        -12    1    1    2    0    0  0.85126325755E+01 -0.29004860687E+02  0.10147612127E+02  0.31886061041E+02  0.00000000000E+00 0.  1.
         11    1    3    3    0    0 -0.59160865235E+01  0.19841489750E+02  0.11121325950E+02  0.23502525107E+02  0.51100000000E-03 0. -1.
        -11    1    3    3    0    0  0.76778384068E+01 -0.54322706982E+01 -0.21585089457E+01  0.96497631406E+01  0.51100000000E-03 0.  1.
         12    1    3    3    0    0 -0.10274384459E+02  0.14595641635E+02 -0.19110429132E+02  0.26149650712E+02  0.00000000000E+00 0. -1.
</event>
<event>
 7    1  0.3528441E-013  0.5930196E+02  0.7816164E-02  0.1266605E+00
        -11   -1    0    0    0    0  0.00000000000E+00  0.00000000000E+00  0.45593999997E+02  0.45594000000E+02  0.51100000000E-03 0.  1.
         11   -1    0    0    0    0 -0.00000000000E+00 -0.00000000000E+00 -0.45593999997E+02  0.45594000000E+02  0.51100000000E-03 0. -1.
    9900012    2    1    2    0    0 -0.82924994077E+01  0.30127361656E+02  0.63479142592E+01  0.59301961014E+02  0.50000030978E+02 0.  0.
        -12    1    1    2    0    0  0.82924994077E+01 -0.30127361656E+02 -0.63479142592E+01  0.31886038986E+02  0.00000000000E+00 0.  1.
         11    1    3    3    0    0 -0.30945718652E+01  0.22677442274E+01 -0.11433924496E+01  0.40032968244E+01  0.51100000000E-03 0. -1.
        -11    1    3    3    0    0 -0.24209450892E+02  0.68929330143E+01  0.95474231406E+01  0.26921428768E+02  0.51100000000E-03 0.  1.
         12    1    3    3    0    0  0.19011523349E+02  0.20966684415E+02 -0.20561164318E+01  0.28377235422E+02  0.00000000000E+00 0. -1.
</event>
<event>
 7    1  0.3528441E-013  0.5930195E+02  0.7816164E-02  0.1266605E+00
        -11   -1    0    0    0    0  0.00000000000E+00  0.00000000000E+00  0.45593999997E+02  0.45594000000E+02  0.51100000000E-03 0.  1.
         11   -1    0    0    0    0 -0.00000000000E+00 -0.00000000000E+00 -0.45593999997E+02  0.45594000000E+02  0.51100000000E-03 0. -1.
    9900012    2    1    2    0    0  0.31030564398E+02  0.85768270639E+00 -0.72861926966E+01  0.59301950535E+02  0.50000011868E+02 0.  0.
        -12    1    1    2    0    0 -0.31030564398E+02 -0.85768270639E+00  0.72861926966E+01  0.31886049465E+02  0.00000000000E+00 0.  1.
         11    1    3    3    0    0  0.87130285297E+01  0.26485177748E+01 -0.21605279405E+02  0.23446100124E+02  0.51100000000E-03 0. -1.
        -11    1    3    3    0    0 -0.24246022688E+01 -0.87158766883E+00 -0.42066805297E+01  0.49330034022E+01  0.51100000000E-03 0.  1.
         12    1    3    3    0    0  0.24742138137E+02 -0.91924739955E+00  0.18525767239E+02  0.30922847009E+02  0.00000000000E+00 0. -1.
</event>
<event>
 7    1  0.3528441E-013  0.5930202E+02  0.7816164E-02  0.1266605E+00
        -11   -1    0    0    0    0  0.00000000000E+00  0.00000000000E+00  0.45593999997E+02  0.45594000000E+02  0.51100000000E-03 0.  1.
         11   -1    0    0    0    0 -0.00000000000E+00 -0.00000000000E+00 -0.45593999997E+02  0.45594000000E+02  0.51100000000E-03 0. -1.
    9900012    2    1    2    0    0 -0.58313309080E+01  0.20058444405E+02 -0.24090874959E+02  0.59302017682E+02  0.50000134328E+02 0.  0.
        -12    1    1    2    0    0  0.58313309080E+01 -0.20058444405E+02  0.24090874959E+02  0.31885982318E+02  0.00000000000E+00 0.  1.
         11    1    3    3    0    0  0.14193214148E+01 -0.92633626518E+00  0.94235772070E+01  0.95747783155E+01  0.51100000000E-03 0. -1.
        -11    1    3    3    0    0 -0.17292547722E+02  0.98284461135E+01 -0.11178854960E+02  0.22816602687E+02  0.51100000000E-03 0.  1.
         12    1    3    3    0    0  0.10041895399E+02  0.11156334556E+02 -0.22335597206E+02  0.26910636679E+02  0.00000000000E+00 0. -1.
</event>
<event>
 7    1  0.3528441E-013  0.5930195E+02  0.7816164E-02  0.1266605E+00
        -11   -1    0    0    0    0  0.00000000000E+00  0.00000000000E+00  0.45593999997E+02  0.45594000000E+02  0.51100000000E-03 0. -1.
         11   -1    0    0    0    0 -0.00000000000E+00 -0.00000000000E+00 -0.45593999997E+02  0.45594000000E+02  0.51100000000E-03 0.  1.
    9900012    2    1    2    0    0  0.14356280976E+02  0.32974750459E+01  0.28279742881E+02  0.59301952855E+02  0.50000016099E+02 0.  0.
        -12    1    1    2    0    0 -0.14356280976E+02 -0.32974750459E+01 -0.28279742881E+02  0.31886047145E+02  0.00000000000E+00 0.  1.
         11    1    3    3    0    0  0.11898187927E+02  0.65476859301E+01  0.12468847116E+02  0.18436681254E+02  0.51100000000E-03 0.  1.
        -11    1    3    3    0    0  0.74369891734E+01  0.82287197816E+01  0.23635040092E+02  0.26108155002E+02  0.51100000000E-03 0. -1.
        -12    1    3    3    0    0 -0.49788961250E+01 -0.11478930666E+02 -0.78241443275E+01  0.14757116599E+02  0.00000000000E+00 0.  1.
</event>
<event>
 7    1  0.3528441E-013  0.5930196E+02  0.7816164E-02  0.1266605E+00
        -11   -1    0    0    0    0  0.00000000000E+00  0.00000000000E+00  0.45593999997E+02  0.45594000000E+02  0.51100000000E-03 0.  1.
         11   -1    0    0    0    0 -0.00000000000E+00 -0.00000000000E+00 -0.45593999997E+02  0.45594000000E+02  0.51100000000E-03 0. -1.
    9900012    2    1    2    0    0 -0.26469914250E+02  0.14303421332E+02 -0.10558194591E+02  0.59301957674E+02  0.50000024887E+02 0.  0.
        -12    1    1    2    0    0  0.26469914250E+02 -0.14303421332E+02  0.10558194591E+02  0.31886042326E+02  0.00000000000E+00 0.  1.
         11    1    3    3    0    0  0.11278084613E+02 -0.80158661033E+00  0.14417739003E+00  0.11307454223E+02  0.51100000000E-03 0. -1.
        -11    1    3    3    0    0 -0.81659884441E+01  0.78278101003E+01  0.64623421061E+01  0.13027656888E+02  0.51100000000E-03 0.  1.
         12    1    3    3    0    0 -0.29582010419E+02  0.72771978419E+01 -0.17164714087E+02  0.34966846563E+02  0.00000000000E+00 0. -1.
</event>
<event>
 7    1  0.3528441E-013  0.5930197E+02  0.7816164E-02  0.1266605E+00
        -11   -1    0    0    0    0  0.00000000000E+00  0.00000000000E+00  0.45593999997E+02  0.45594000000E+02  0.51100000000E-03 0.  1.
         11   -1    0    0    0    0 -0.00000000000E+00 -0.00000000000E+00 -0.45593999997E+02  0.45594000000E+02  0.51100000000E-03 0. -1.
    9900012    2    1    2    0    0  0.31498480187E+02  0.16207889093E+00  0.49536184448E+01  0.59301970781E+02  0.50000048791E+02 0.  0.
        -12    1    1    2    0    0 -0.31498480187E+02 -0.16207889093E+00 -0.49536184448E+01  0.31886029219E+02  0.00000000000E+00 0.  1.
         11    1    3    3    0    0  0.27806749810E+02  0.14997195637E+02  0.39187446117E+01  0.31835322703E+02  0.51100000000E-03 0. -1.
        -11    1    3    3    0    0 -0.12517920146E+01  0.56616211272E+01 -0.20659028411E+01  0.61553953444E+01  0.51100000000E-03 0.  1.
        -12    1    3    3    0    0  0.49435223915E+01 -0.20496737874E+02  0.31007766742E+01  0.21311252734E+02  0.00000000000E+00 0.  1.
</event>
<event>
 7    1  0.3528441E-013  0.5930193E+02  0.7816164E-02  0.1266605E+00
        -11   -1    0    0    0    0  0.00000000000E+00  0.00000000000E+00  0.45593999997E+02  0.45594000000E+02  0.51100000000E-03 0.  1.
         11   -1    0    0    0    0 -0.00000000000E+00 -0.00000000000E+00 -0.45593999997E+02  0.45594000000E+02  0.51100000000E-03 0. -1.
    9900012    2    1    2    0    0  0.15843842026E+02 -0.21828404170E+01 -0.27584950905E+02  0.59301927196E+02  0.49999969304E+02 0.  0.
        -12    1    1    2    0    0 -0.15843842026E+02  0.21828404170E+01  0.27584950905E+02  0.31886072804E+02  0.00000000000E+00 0.  1.
         11    1    3    3    0    0 -0.67214668252E+01  0.65498974256E-01 -0.22416960228E+02  0.23403044941E+02  0.51100000000E-03 0. -1.
        -11    1    3    3    0    0  0.42899845067E+00 -0.38094311498E+01 -0.12065899378E+02  0.12660242233E+02  0.51100000000E-03 0.  1.
        -12    1    3    3    0    0  0.22136310400E+02  0.15610917585E+01  0.68979087010E+01  0.23238640022E+02  0.00000000000E+00 0.  1.
</event>
<event>
 7    1  0.3528441E-013  0.5930195E+02  0.7816164E-02  0.1266605E+00
        -11   -1    0    0    0    0  0.00000000000E+00  0.00000000000E+00  0.45593999997E+02  0.45594000000E+02  0.51100000000E-03 0.  1.
         11   -1    0    0    0    0 -0.00000000000E+00 -0.00000000000E+00 -0.45593999997E+02  0.45594000000E+02  0.51100000000E-03 0. -1.
    9900012    2    1    2    0    0 -0.37750643062E+01  0.63355651799E-01 -0.31661724939E+02  0.59301953670E+02  0.50000017586E+02 0.  0.
        -12    1    1    2    0    0  0.37750643062E+01 -0.63355651799E-01  0.31661724939E+02  0.31886046330E+02  0.00000000000E+00 0.  1.
         11    1    3    3    0    0 -0.96005611816E+01 -0.18618523404E+02 -0.18158757823E+02  0.27722926878E+02  0.51100000000E-03 0. -1.
        -11    1    3    3    0    0 -0.72350804411E+01  0.34537424137E+01 -0.13690628949E+01  0.81332071854E+01  0.51100000000E-03 0.  1.
        -12    1    3    3    0    0  0.13060577317E+02  0.15228136642E+02 -0.12133904220E+02  0.23445819607E+02  0.00000000000E+00 0.  1.
</event>
<event>
 7    1  0.3528441E-013  0.5930192E+02  0.7816164E-02  0.1266605E+00
        -11   -1    0    0    0    0  0.00000000000E+00  0.00000000000E+00  0.45593999997E+02  0.45594000000E+02  0.51100000000E-03 0. -1.
         11   -1    0    0    0    0 -0.00000000000E+00 -0.00000000000E+00 -0.45593999997E+02  0.45594000000E+02  0.51100000000E-03 0.  1.
    9900012    2    1    2    0    0 -0.15177044453E+01 -0.27365229824E+00  0.31848763498E+02  0.59301920769E+02  0.49999957582E+02 0.  0.
        -12    1    1    2    0    0  0.15177044453E+01  0.27365229824E+00 -0.31848763498E+02  0.31886079231E+02  0.00000000000E+00 0.  1.
         11    1    3    3    0    0  0.69924157236E+01 -0.39195442113E+01  0.91220105396E+01  0.12143631295E+02  0.51100000000E-03 0. -1.
        -11    1    3    3    0    0 -0.15879893420E+02  0.12526391192E+02  0.27942268193E+02  0.34494229131E+02  0.51100000000E-03 0.  1.
         12    1    3    3    0    0  0.73697732512E+01 -0.88804992791E+01 -0.52155152344E+01  0.12664060343E+02  0.00000000000E+00 0. -1.
</event>
<event>
 7    1  0.3528441E-013  0.5930193E+02  0.7816164E-02  0.1266605E+00
        -11   -1    0    0    0    0  0.00000000000E+00  0.00000000000E+00  0.45593999997E+02  0.45594000000E+02  0.51100000000E-03 0.  1.
         11   -1    0    0    0    0 -0.00000000000E+00 -0.00000000000E+00 -0.45593999997E+02  0.45594000000E+02  0.51100000000E-03 0. -1.
    9900012    2    1    2    0    0  0.10901587150E+02  0.16957878880E+02 -0.24704398429E+02  0.59301928429E+02  0.49999971551E+02 0.  0.
        -12    1    1    2    0    0 -0.10901587150E+02 -0.16957878880E+02  0.24704398429E+02  0.31886071571E+02  0.00000000000E+00 0.  1.
         11    1    3    3    0    0 -0.33518464415E+01  0.16120234860E+02 -0.23889444993E+02  0.29013831682E+02  0.51100000000E-03 0. -1.
        -11    1    3    3    0    0 -0.15402553038E+01 -0.29248928647E+01 -0.10754790993E+02  0.11251351663E+02  0.51100000000E-03 0.  1.
         12    1    3    3    0    0  0.15793688896E+02  0.37625368846E+01  0.99398375569E+01  0.19036745084E+02  0.00000000000E+00 0. -1.
</event>
<event>
 7    1  0.3528441E-013  0.5930191E+02  0.7816164E-02  0.1266605E+00
        -11   -1    0    0    0    0  0.00000000000E+00  0.00000000000E+00  0.45593999997E+02  0.45594000000E+02  0.51100000000E-03 0. -1.
         11   -1    0    0    0    0 -0.00000000000E+00 -0.00000000000E+00 -0.45593999997E+02  0.45594000000E+02  0.51100000000E-03 0.  1.
    9900012    2    1    2    0    0 -0.16994426850E+02  0.16857005299E+02  0.21065462824E+02  0.59301907489E+02  0.49999933363E+02 0.  0.
        -12    1    1    2    0    0  0.16994426850E+02 -0.16857005299E+02 -0.21065462824E+02  0.31886092511E+02  0.00000000000E+00 0.  1.
         11    1    3    3    0    0 -0.23468731631E+02 -0.25499517541E+00  0.45204242112E+01  0.23901477406E+02  0.51100000000E-03 0. -1.
        -11    1    3    3    0    0  0.80465028042E+00  0.19739394542E+02  0.23552995774E+01  0.19895692883E+02  0.51100000000E-03 0.  1.
         12    1    3    3    0    0  0.56696545003E+01 -0.26273940676E+01  0.14189739036E+02  0.15504737200E+02  0.00000000000E+00 0. -1.
</event>
<event>
 7    1  0.3528441E-013  0.5930190E+02  0.7816164E-02  0.1266605E+00
        -11   -1    0    0    0    0  0.00000000000E+00  0.00000000000E+00  0.45593999997E+02  0.45594000000E+02  0.51100000000E-03 0. -1.
         11   -1    0    0    0    0 -0.00000000000E+00 -0.00000000000E+00 -0.45593999997E+02  0.45594000000E+02  0.51100000000E-03 0.  1.
    9900012    2    1    2    0    0 -0.31456758487E+01 -0.25710649466E+02  0.18595441659E+02  0.59301902355E+02  0.49999923999E+02 0.  0.
        -12    1    1    2    0    0  0.31456758487E+01  0.25710649466E+02 -0.18595441659E+02  0.31886097645E+02  0.00000000000E+00 0.  1.
         11    1    3    3    0    0  0.41612015047E+01 -0.56080103801E+01 -0.11260731423E+02  0.13250262292E+02  0.51100000000E-03 0. -1.
        -11    1    3    3    0    0  0.73351063050E+01 -0.17758654460E+02  0.11270821157E+02  0.22275659419E+02  0.51100000000E-03 0.  1.
         12    1    3    3    0    0 -0.14641983658E+02 -0.23439846263E+01  0.18585351925E+02  0.23775980643E+02  0.00000000000E+00 0. -1.
</event>
<event>
 7    1  0.3528441E-013  0.5930193E+02  0.7816164E-02  0.1266605E+00
        -11   -1    0    0    0    0  0.00000000000E+00  0.00000000000E+00  0.45593999997E+02  0.45594000000E+02  0.51100000000E-03 0.  1.
         11   -1    0    0    0    0 -0.00000000000E+00 -0.00000000000E+00 -0.45593999997E+02  0.45594000000E+02  0.51100000000E-03 0. -1.
    9900012    2    1    2    0    0  0.13820871231E+01 -0.31668240570E+02  0.34545147908E+01  0.59301932540E+02  0.49999979050E+02 0.  0.
        -12    1    1    2    0    0 -0.13820871231E+01  0.31668240570E+02 -0.34545147908E+01  0.31886067460E+02  0.00000000000E+00 0.  1.
         11    1    3    3    0    0 -0.17350722545E+02 -0.89411786646E+01  0.13059367006E+02  0.23484874188E+02  0.51100000000E-03 0. -1.
        -11    1    3    3    0    0  0.19987042521E+01 -0.31948774596E+01  0.49831527188E+01  0.62477093362E+01  0.51100000000E-03 0.  1.
        -12    1    3    3    0    0  0.16734105416E+02 -0.19532184446E+02 -0.14588004934E+02  0.29569349016E+02  0.00000000000E+00 0.  1.
</event>
<event>
 7    1  0.3528441E-013  0.5930197E+02  0.7816164E-02  0.1266605E+00
        -11   -1    0    0    0    0  0.00000000000E+00  0.00000000000E+00  0.45593999997E+02  0.45594000000E+02  0.51100000000E-03 0.  1.
         11   -1    0    0    0    0 -0.00000000000E+00 -0.00000000000E+00 -0.45593999997E+02  0.45594000000E+02  0.51100000000E-03 0. -1.
    9900012    2    1    2    0    0 -0.24758581949E+02 -0.48782254437E+01  0.19491908314E+02  0.59301969307E+02  0.50000046104E+02 0.  0.
        -12    1    1    2    0    0  0.24758581949E+02  0.48782254437E+01 -0.19491908314E+02  0.31886030693E+02  0.00000000000E+00 0.  1.
         11    1    3    3    0    0 -0.18004264245E+02  0.92133413058E+01  0.16153122746E+02  0.25883635057E+02  0.51100000000E-03 0. -1.
        -11    1    3    3    0    0 -0.63286254228E+00 -0.32043883432E+00  0.14592521206E+02  0.14609752614E+02  0.51100000000E-03 0.  1.
        -12    1    3    3    0    0 -0.61214551615E+01 -0.13771127915E+02 -0.11253735638E+02  0.18808581636E+02  0.00000000000E+00 0.  1.
</event>
<event>
 7    1  0.3528441E-013  0.5930195E+02  0.7816164E-02  0.1266605E+00
        -11   -1    0    0    0    0  0.00000000000E+00  0.00000000000E+00  0.45593999997E+02  0.45594000000E+02  0.51100000000E-03 0. -1.
         11   -1    0    0    0    0 -0.00000000000E+00 -0.00000000000E+00 -0.45593999997E+02  0.45594000000E+02  0.51100000000E-03 0.  1.
    9900012    2    1    2    0    0  0.28019056243E+02 -0.62230879546E+01 -0.13889777838E+02  0.59301948742E+02  0.50000008598E+02 0.  0.
        -12    1    1    2    0    0 -0.28019056243E+02  0.62230879546E+01  0.13889777838E+02  0.31886051258E+02  0.00000000000E+00 0.  1.
         11    1    3    3    0    0 -0.61060249258E+00  0.73603072440E+01 -0.29746847704E+01  0.79621421662E+01  0.51100000000E-03 0. -1.
        -11    1    3    3    0    0  0.19945277095E+01 -0.10028828236E+02 -0.20419962454E+02  0.22837040164E+02  0.51100000000E-03 0.  1.
         12    1    3    3    0    0  0.26635131026E+02 -0.35545669625E+01  0.95048693865E+01  0.28502766412E+02  0.00000000000E+00 0. -1.
</event>
<event>
 7    1  0.3528441E-013  0.5930193E+02  0.7816164E-02  0.1266605E+00
        -11   -1    0    0    0    0  0.00000000000E+00  0.00000000000E+00  0.45593999997E+02  0.45594000000E+02  0.51100000000E-03 0.  1.
         11   -1    0    0    0    0 -0.00000000000E+00 -0.00000000000E+00 -0.45593999997E+02  0.45594000000E+02  0.51100000000E-03 0. -1.
    9900012    2    1    2    0    0 -0.12303038741E+02 -0.15597947302E+02 -0.24941147637E+02  0.59301928311E+02  0.49999971336E+02 0.  0.
        -12    1    1    2    0    0  0.12303038741E+02  0.15597947302E+02  0.24941147637E+02  0.31886071689E+02  0.00000000000E+00 0.  1.
         11    1    3    3    0    0 -0.70057414563E+01 -0.11554842412E+02 -0.26073034888E+01  0.13762006694E+02  0.51100000000E-03 0. -1.
        -11    1    3    3    0    0 -0.14083479208E+02 -0.10059901391E+02  0.34461451790E+01  0.17647150463E+02  0.51100000000E-03 0.  1.
         12    1    3    3    0    0  0.87861819230E+01  0.60167965005E+01 -0.25779989328E+02  0.27892771154E+02  0.00000000000E+00 0. -1.
</event>
<event>
 7    1  0.3528441E-013  0.5930195E+02  0.7816164E-02  0.1266605E+00
        -11   -1    0    0    0    0  0.00000000000E+00  0.00000000000E+00  0.45593999997E+02  0.45594000000E+02  0.51100000000E-03 0.  1.
         11   -1    0    0    0    0 -0.00000000000E+00 -0.00000000000E+00 -0.45593999997E+02  0.45594000000E+02  0.51100000000E-03 0. -1.
    9900012    2    1    2    0    0 -0.64093273267E+01 -0.22634503663E+02 -0.21524867196E+02  0.59301950689E+02  0.50000012149E+02 0.  0.
        -12    1    1    2    0    0  0.64093273267E+01  0.22634503663E+02  0.21524867196E+02  0.31886049311E+02  0.00000000000E+00 0.  1.
         11    1    3    3    0    0  0.11172843385E+02  0.72940194049E+01 -0.13546628025E+01  0.13411571867E+02  0.51100000000E-03 0. -1.
        -11    1    3    3    0    0  0.14421311543E+01 -0.71437872947E+00  0.34314849312E+01  0.37901409379E+01  0.51100000000E-03 0.  1.
         12    1    3    3    0    0 -0.19024301866E+02 -0.29214144339E+02 -0.23601689325E+02  0.42100237884E+02  0.00000000000E+00 0. -1.
</event>
<event>
 7    1  0.3528441E-013  0.5930194E+02  0.7816164E-02  0.1266605E+00
        -11   -1    0    0    0    0  0.00000000000E+00  0.00000000000E+00  0.45593999997E+02  0.45594000000E+02  0.51100000000E-03 0.  1.
         11   -1    0    0    0    0 -0.00000000000E+00 -0.00000000000E+00 -0.45593999997E+02  0.45594000000E+02  0.51100000000E-03 0. -1.
    9900012    2    1    2    0    0  0.19696370650E+02 -0.24966658093E+02  0.23323790157E+01  0.59301936822E+02  0.49999986859E+02 0.  0.
        -12    1    1    2    0    0 -0.19696370650E+02  0.24966658093E+02 -0.23323790157E+01  0.31886063178E+02  0.00000000000E+00 0.  1.
         11    1    3    3    0    0 -0.12487246899E+02 -0.17038870796E+02  0.25643260009E+01  0.21279807829E+02  0.51100000000E-03 0. -1.
        -11    1    3    3    0    0 -0.14848538568E-02 -0.44048516681E+01 -0.32940476554E+01  0.55003155037E+01  0.51100000000E-03 0.  1.
        -12    1    3    3    0    0  0.32185102403E+02 -0.35229356285E+01  0.30621006702E+01  0.32521813490E+02  0.00000000000E+00 0.  1.
</event>
<event>
 7    1  0.3528441E-013  0.5930195E+02  0.7816164E-02  0.1266605E+00
        -11   -1    0    0    0    0  0.00000000000E+00  0.00000000000E+00  0.45593999997E+02  0.45594000000E+02  0.51100000000E-03 0. -1.
         11   -1    0    0    0    0 -0.00000000000E+00 -0.00000000000E+00 -0.45593999997E+02  0.45594000000E+02  0.51100000000E-03 0.  1.
    9900012    2    1    2    0    0 -0.11815845919E+01  0.30325853395E+02  0.97809421209E+01  0.59301947327E+02  0.50000006017E+02 0.  0.
        -12    1    1    2    0    0  0.11815845919E+01 -0.30325853395E+02 -0.97809421209E+01  0.31886052673E+02  0.00000000000E+00 0.  1.
         11    1    3    3    0    0  0.33164937898E+01  0.16978732489E+02  0.14625990316E+02  0.22653831485E+02  0.51100000000E-03 0. -1.
        -11    1    3    3    0    0  0.48788928467E+00 -0.83843937975E+01  0.74150222834E+01  0.11203510657E+02  0.51100000000E-03 0.  1.
         12    1    3    3    0    0 -0.49859676664E+01  0.21731514704E+02 -0.12260070478E+02  0.25444605185E+02  0.00000000000E+00 0. -1.
</event>
<event>
 7    1  0.3528441E-013  0.5930195E+02  0.7816164E-02  0.1266605E+00
        -11   -1    0    0    0    0  0.00000000000E+00  0.00000000000E+00  0.45593999997E+02  0.45594000000E+02  0.51100000000E-03 0.  1.
         11   -1    0    0    0    0 -0.00000000000E+00 -0.00000000000E+00 -0.45593999997E+02  0.45594000000E+02  0.51100000000E-03 0. -1.
    9900012    2    1    2    0    0 -0.25465110931E+02 -0.13830919808E+02 -0.13302413703E+02  0.59301946187E+02  0.50000003937E+02 0.  0.
        -12    1    1    2    0    0  0.25465110931E+02  0.13830919808E+02  0.13302413703E+02  0.31886053813E+02  0.00000000000E+00 0.  1.
         11    1    3    3    0    0 -0.12829482937E+02  0.49762127752E+01  0.10671098336E+02  0.17413519632E+02  0.51100000000E-03 0.  1.
        -11    1    3    3    0    0  0.47674651547E+01 -0.47336565672E+01  0.25478200958E+01  0.71852359738E+01  0.51100000000E-03 0. -1.
         12    1    3    3    0    0 -0.17403093149E+02 -0.14073476016E+02 -0.26521332134E+02  0.34703190581E+02  0.00000000000E+00 0. -1.
</event>
<event>
 7    1  0.3528441E-013  0.5930194E+02  0.7816164E-02  0.1266605E+00
        -11   -1    0    0    0    0  0.00000000000E+00  0.00000000000E+00  0.45593999997E+02  0.45594000000E+02  0.51100000000E-03 0.  1.
         11   -1    0    0    0    0 -0.00000000000E+00 -0.00000000000E+00 -0.45593999997E+02  0.45594000000E+02  0.51100000000E-03 0. -1.
    9900012    2    1    2    0    0 -0.74352158574E+01  0.18443278328E+02 -0.24925562997E+02  0.59301942843E+02  0.49999997839E+02 0.  0.
        -12    1    1    2    0    0  0.74352158574E+01 -0.18443278328E+02  0.24925562997E+02  0.31886057157E+02  0.00000000000E+00 0.  1.
         11    1    3    3    0    0  0.23118691007E+01  0.81375640083E+00  0.42583464176E+01  0.49132934669E+01  0.51100000000E-03 0. -1.
        -11    1    3    3    0    0  0.15833828530E+02  0.11558783099E+02 -0.12347144218E+02  0.23168244716E+02  0.51100000000E-03 0.  1.
         12    1    3    3    0    0 -0.25580913488E+02  0.60707388277E+01 -0.16836765197E+02  0.31220404659E+02  0.00000000000E+00 0. -1.
</event>
<event>
 7    1  0.3528441E-013  0.5930195E+02  0.7816164E-02  0.1266605E+00
        -11   -1    0    0    0    0  0.00000000000E+00  0.00000000000E+00  0.45593999997E+02  0.45594000000E+02  0.51100000000E-03 0.  1.
         11   -1    0    0    0    0 -0.00000000000E+00 -0.00000000000E+00 -0.45593999997E+02  0.45594000000E+02  0.51100000000E-03 0. -1.
    9900012    2    1    2    0    0  0.87966099357E+01 -0.32235400170E+01 -0.30478659602E+02  0.59301949010E+02  0.50000009087E+02 0.  0.
        -12    1    1    2    0    0 -0.87966099357E+01  0.32235400170E+01  0.30478659602E+02  0.31886050990E+02  0.00000000000E+00 0.  1.
         11    1    3    3    0    0  0.12104714356E+01 -0.15063760238E+01 -0.35104541650E+01  0.40072058254E+01  0.51100000000E-03 0. -1.
        -11    1    3    3    0    0  0.11306550284E+02  0.14505491599E+02 -0.32845229392E+02  0.37643810380E+02  0.51100000000E-03 0.  1.
        -12    1    3    3    0    0 -0.37204117834E+01 -0.16222655592E+02  0.58770239557E+01  0.17650932805E+02  0.00000000000E+00 0.  1.
</event>
<event>
 7    1  0.3528441E-013  0.5930195E+02  0.7816164E-02  0.1266605E+00
        -11   -1    0    0    0    0  0.00000000000E+00  0.00000000000E+00  0.45593999997E+02  0.45594000000E+02  0.51100000000E-03 0. -1.
         11   -1    0    0    0    0 -0.00000000000E+00 -0.00000000000E+00 -0.45593999997E+02  0.45594000000E+02  0.51100000000E-03 0.  1.
    9900012    2    1    2    0    0 -0.22962113799E+02  0.21751775422E+02  0.40400557390E+01  0.59301945768E+02  0.50000003174E+02 0.  0.
        -12    1    1    2    0    0  0.22962113799E+02 -0.21751775422E+02 -0.40400557390E+01  0.31886054232E+02  0.00000000000E+00 0.  1.
         11    1    3    3    0    0  0.63786302586E+01  0.11118165554E+02 -0.75672212180E+01  0.14885004752E+02  0.51100000000E-03 0. -1.
        -11    1    3    3    0    0 -0.20499184175E+02 -0.30217084567E+01 -0.48454216328E+01  0.21279694192E+02  0.51100000000E-03 0.  1.
        -12    1    3    3    0    0 -0.88415598819E+01  0.13655318325E+02  0.16452698590E+02  0.23137246824E+02  0.00000000000E+00 0.  1.
</event>
<event>
 7    1  0.3528441E-013  0.5930196E+02  0.7816164E-02  0.1266605E+00
        -11   -1    0    0    0    0  0.00000000000E+00  0.00000000000E+00  0.45593999997E+02  0.45594000000E+02  0.51100000000E-03 0.  1.
         11   -1    0    0    0    0 -0.00000000000E+00 -0.00000000000E+00 -0.45593999997E+02  0.45594000000E+02  0.51100000000E-03 0. -1.
    9900012    2    1    2    0    0  0.17245029196E+02  0.26278087473E+02 -0.53656870345E+01  0.59301960570E+02  0.50000030169E+02 0.  0.
        -12    1    1    2    0    0 -0.17245029196E+02 -0.26278087473E+02  0.53656870345E+01  0.31886039430E+02  0.00000000000E+00 0.  1.
         11    1    3    3    0    0 -0.44762271908E+01 -0.43697617447E+01  0.56978938677E+01  0.84615260064E+01  0.51100000000E-03 0. -1.
        -11    1    3    3    0    0  0.19614039723E+02  0.80992393822E+01 -0.17268532075E+02  0.27358918713E+02  0.51100000000E-03 0.  1.
         12    1    3    3    0    0  0.21072166634E+01  0.22548609835E+02  0.62049511731E+01  0.23481515850E+02  0.00000000000E+00 0. -1.
</event>
<event>
 7    1  0.3528441E-013  0.5930194E+02  0.7816164E-02  0.1266605E+00
        -11   -1    0    0    0    0  0.00000000000E+00  0.00000000000E+00  0.45593999997E+02  0.45594000000E+02  0.51100000000E-03 0.  1.
         11   -1    0    0    0    0 -0.00000000000E+00 -0.00000000000E+00 -0.45593999997E+02  0.45594000000E+02  0.51100000000E-03 0. -1.
    9900012    2    1    2    0    0 -0.15767939013E+02  0.87123047213E+01 -0.26309480466E+02  0.59301938521E+02  0.49999989957E+02 0.  0.
        -12    1    1    2    0    0  0.15767939013E+02 -0.87123047213E+01  0.26309480466E+02  0.31886061479E+02  0.00000000000E+00 0.  1.
         11    1    3    3    0    0 -0.10835998927E+02 -0.58252004293E+00 -0.29682276114E+01  0.11250270119E+02  0.51100000000E-03 0. -1.
        -11    1    3    3    0    0 -0.20330821780E+01  0.14685996261E+02  0.74956266249E+01  0.16613137214E+02  0.51100000000E-03 0.  1.
         12    1    3    3    0    0 -0.28988579082E+01 -0.53911714966E+01 -0.30836879479E+02  0.31438531188E+02  0.00000000000E+00 0. -1.
</event>
<event>
 7    1  0.3528441E-013  0.5930197E+02  0.7816164E-02  0.1266605E+00
        -11   -1    0    0    0    0  0.00000000000E+00  0.00000000000E+00  0.45593999997E+02  0.45594000000E+02  0.51100000000E-03 0. -1.
         11   -1    0    0    0    0 -0.00000000000E+00 -0.00000000000E+00 -0.45593999997E+02  0.45594000000E+02  0.51100000000E-03 0.  1.
    9900012    2    1    2    0    0 -0.30324488260E+02 -0.85330478381E+01 -0.49326774301E+01  0.59301971708E+02  0.50000050482E+02 0.  0.
        -12    1    1    2    0    0  0.30324488260E+02  0.85330478381E+01  0.49326774301E+01  0.31886028292E+02  0.00000000000E+00 0.  1.
         11    1    3    3    0    0 -0.99090920934E+01  0.10605751265E+02 -0.80077643225E+01  0.16576982709E+02  0.51100000000E-03 0. -1.
        -11    1    3    3    0    0 -0.12876983004E+02  0.58607807006E+01 -0.55915609291E+01  0.15212856260E+02  0.51100000000E-03 0.  1.
        -12    1    3    3    0    0 -0.75384131620E+01 -0.24999579804E+02  0.86666478215E+01  0.27512132739E+02  0.00000000000E+00 0.  1.
</event>
<event>
 7    1  0.3528441E-013  0.5930199E+02  0.7816164E-02  0.1266605E+00
        -11   -1    0    0    0    0  0.00000000000E+00  0.00000000000E+00  0.45593999997E+02  0.45594000000E+02  0.51100000000E-03 0. -1.
         11   -1    0    0    0    0 -0.00000000000E+00 -0.00000000000E+00 -0.45593999997E+02  0.45594000000E+02  0.51100000000E-03 0.  1.
    9900012    2    1    2    0    0 -0.23586737179E+02  0.15183797107E+02  0.15160340995E+02  0.59301987323E+02  0.50000078960E+02 0.  0.
        -12    1    1    2    0    0  0.23586737179E+02 -0.15183797107E+02 -0.15160340995E+02  0.31886012677E+02  0.00000000000E+00 0.  1.
         11    1    3    3    0    0  0.74682467047E+01 -0.60803957284E+01 -0.48124779808E+01  0.10765958649E+02  0.51100000000E-03 0. -1.
        -11    1    3    3    0    0 -0.13009956938E+02 -0.35157274101E+01  0.76613086892E+01  0.15502095660E+02  0.51100000000E-03 0.  1.
         12    1    3    3    0    0 -0.18045026946E+02  0.24779920245E+02  0.12311510287E+02  0.33033933014E+02  0.00000000000E+00 0. -1.
</event>
<event>
 7    1  0.3528441E-013  0.5930191E+02  0.7816164E-02  0.1266605E+00
        -11   -1    0    0    0    0  0.00000000000E+00  0.00000000000E+00  0.45593999997E+02  0.45594000000E+02  0.51100000000E-03 0. -1.
         11   -1    0    0    0    0 -0.00000000000E+00 -0.00000000000E+00 -0.45593999997E+02  0.45594000000E+02  0.51100000000E-03 0.  1.
    9900012    2    1    2    0    0 -0.17596826832E+00  0.14298457083E+02  0.28499926312E+02  0.59301911504E+02  0.49999940684E+02 0.  0.
        -12    1    1    2    0    0  0.17596826832E+00 -0.14298457083E+02 -0.28499926312E+02  0.31886088496E+02  0.00000000000E+00 0.  1.
         11    1    3    3    0    0 -0.44707245787E+01  0.26419581382E+01  0.13572464453E+02  0.14532003050E+02  0.51100000000E-03 0. -1.
        -11    1    3    3    0    0 -0.11911104348E+02  0.20345220000E+02  0.10762908489E+02  0.25916068048E+02  0.51100000000E-03 0.  1.
         12    1    3    3    0    0  0.16205860659E+02 -0.86887210556E+01  0.41645533709E+01  0.18853840406E+02  0.00000000000E+00 0. -1.
</event>
<event>
 7    1  0.3528441E-013  0.5930194E+02  0.7816164E-02  0.1266605E+00
        -11   -1    0    0    0    0  0.00000000000E+00  0.00000000000E+00  0.45593999997E+02  0.45594000000E+02  0.51100000000E-03 0.  1.
         11   -1    0    0    0    0 -0.00000000000E+00 -0.00000000000E+00 -0.45593999997E+02  0.45594000000E+02  0.51100000000E-03 0. -1.
    9900012    2    1    2    0    0  0.15897150550E+02 -0.57812096761E+01 -0.27029219922E+02  0.59301944889E+02  0.50000001571E+02 0.  0.
        -12    1    1    2    0    0 -0.15897150550E+02  0.57812096761E+01  0.27029219922E+02  0.31886055111E+02  0.00000000000E+00 0.  1.
         11    1    3    3    0    0 -0.13880269245E+01 -0.72682361885E+01 -0.10697478498E+02  0.13007302661E+02  0.51100000000E-03 0. -1.
        -11    1    3    3    0    0 -0.43206291769E+01 -0.11815649425E+02  0.46069577311E+01  0.13397815778E+02  0.51100000000E-03 0.  1.
         12    1    3    3    0    0  0.21605806651E+02  0.13302675938E+02 -0.20938699155E+02  0.32896826450E+02  0.00000000000E+00 0. -1.
</event>
<event>
 7    1  0.3528441E-013  0.5930195E+02  0.7816164E-02  0.1266605E+00
        -11   -1    0    0    0    0  0.00000000000E+00  0.00000000000E+00  0.45593999997E+02  0.45594000000E+02  0.51100000000E-03 0.  1.
         11   -1    0    0    0    0 -0.00000000000E+00 -0.00000000000E+00 -0.45593999997E+02  0.45594000000E+02  0.51100000000E-03 0. -1.
    9900012    2    1    2    0    0 -0.27301534516E+02  0.15069027826E+02 -0.66536353450E+01  0.59301948977E+02  0.50000009026E+02 0.  0.
        -12    1    1    2    0    0  0.27301534516E+02 -0.15069027826E+02  0.66536353450E+01  0.31886051023E+02  0.00000000000E+00 0.  1.
         11    1    3    3    0    0 -0.17927638456E+02  0.14004963593E+02  0.42150761851E+01  0.23136682851E+02  0.51100000000E-03 0. -1.
        -11    1    3    3    0    0 -0.82398475616E+01  0.16169475223E+02 -0.11850103683E+01  0.18186568304E+02  0.51100000000E-03 0.  1.
        -12    1    3    3    0    0 -0.11340484982E+01 -0.15105410990E+02 -0.96837011618E+01  0.17978697822E+02  0.00000000000E+00 0.  1.
</event>
<event>
 7    1  0.3528441E-013  0.5930197E+02  0.7816164E-02  0.1266605E+00
        -11   -1    0    0    0    0  0.00000000000E+00  0.00000000000E+00  0.45593999997E+02  0.45594000000E+02  0.51100000000E-03 0.  1.
         11   -1    0    0    0    0 -0.00000000000E+00 -0.00000000000E+00 -0.45593999997E+02  0.45594000000E+02  0.51100000000E-03 0. -1.
    9900012    2    1    2    0    0 -0.96169738967E+01 -0.98390573591E+01 -0.28765011571E+02  0.59301966579E+02  0.50000041129E+02 0.  0.
        -12    1    1    2    0    0  0.96169738967E+01  0.98390573591E+01  0.28765011571E+02  0.31886033421E+02  0.00000000000E+00 0.  1.
         11    1    3    3    0    0 -0.38605877785E+01 -0.14578228962E+02 -0.29981830102E+02  0.33560974869E+02  0.51100000000E-03 0. -1.
        -11    1    3    3    0    0  0.41905825361E+00 -0.94986095250E+00 -0.10927470537E+02  0.10976677924E+02  0.51100000000E-03 0.  1.
        -12    1    3    3    0    0 -0.61754443718E+01  0.56890325551E+01  0.12144289068E+02  0.14764313786E+02  0.00000000000E+00 0.  1.
</event>
<event>
 7    1  0.3528441E-013  0.5930195E+02  0.7816164E-02  0.1266605E+00
        -11   -1    0    0    0    0  0.00000000000E+00  0.00000000000E+00  0.45593999997E+02  0.45594000000E+02  0.51100000000E-03 0. -1.
         11   -1    0    0    0    0 -0.00000000000E+00 -0.00000000000E+00 -0.45593999997E+02  0.45594000000E+02  0.51100000000E-03 0.  1.
    9900012    2    1    2    0    0  0.83521496533E+01 -0.11294235483E+02  0.28625194655E+02  0.59301954024E+02  0.50000018230E+02 0.  0.
        -12    1    1    2    0    0 -0.83521496533E+01  0.11294235483E+02 -0.28625194655E+02  0.31886045976E+02  0.00000000000E+00 0.  1.
         11    1    3    3    0    0 -0.56567210022E+01  0.23825982261E+01  0.26785766854E+02  0.27480039538E+02  0.51100000000E-03 0. -1.
        -11    1    3    3    0    0 -0.94866518356E+00  0.25546865214E+01  0.83709996388E+01  0.88034097977E+01  0.51100000000E-03 0.  1.
        -12    1    3    3    0    0  0.14957535839E+02 -0.16231520231E+02 -0.65315718380E+01  0.23018504688E+02  0.00000000000E+00 0.  1.
</event>
<event>
 7    1  0.3528441E-013  0.5930194E+02  0.7816164E-02  0.1266605E+00
        -11   -1    0    0    0    0  0.00000000000E+00  0.00000000000E+00  0.45593999997E+02  0.45594000000E+02  0.51100000000E-03 0.  1.
         11   -1    0    0    0    0 -0.00000000000E+00 -0.00000000000E+00 -0.45593999997E+02  0.45594000000E+02  0.51100000000E-03 0. -1.
    9900012    2    1    2    0    0  0.15781157142E+02  0.19060647854E+02 -0.20108897931E+02  0.59301937318E+02  0.49999987764E+02 0.  0.
        -12    1    1    2    0    0 -0.15781157142E+02 -0.19060647854E+02  0.20108897931E+02  0.31886062682E+02  0.00000000000E+00 0.  1.
         11    1    3    3    0    0 -0.15744556080E+01  0.96564299437E+01  0.55711694112E+01  0.11258928838E+02  0.51100000000E-03 0. -1.
        -11    1    3    3    0    0  0.95165820483E+00  0.62726494688E+01  0.81423525469E+01  0.10322290926E+02  0.51100000000E-03 0.  1.
         12    1    3    3    0    0  0.16403954545E+02  0.31315684410E+01 -0.33822419890E+02  0.37720717554E+02  0.00000000000E+00 0. -1.
</event>
<event>
 7    1  0.3528441E-013  0.5930194E+02  0.7816164E-02  0.1266605E+00
        -11   -1    0    0    0    0  0.00000000000E+00  0.00000000000E+00  0.45593999997E+02  0.45594000000E+02  0.51100000000E-03 0.  1.
         11   -1    0    0    0    0 -0.00000000000E+00 -0.00000000000E+00 -0.45593999997E+02  0.45594000000E+02  0.51100000000E-03 0. -1.
    9900012    2    1    2    0    0 -0.16708144912E+02  0.26154132209E+02  0.73157267976E+01  0.59301943540E+02  0.49999999110E+02 0.  0.
        -12    1    1    2    0    0  0.16708144912E+02 -0.26154132209E+02 -0.73157267976E+01  0.31886056460E+02  0.00000000000E+00 0.  1.
         11    1    3    3    0    0 -0.15900370416E+02  0.31323592569E+02  0.11080444174E+02  0.36834297525E+02  0.51100000000E-03 0. -1.
        -11    1    3    3    0    0 -0.52333238525E+01  0.70259601170E+01 -0.36574698656E+01  0.94936231329E+01  0.51100000000E-03 0.  1.
        -12    1    3    3    0    0  0.44255493564E+01 -0.12195420477E+02 -0.10724751094E+00  0.12974022882E+02  0.00000000000E+00 0.  1.
</event>
<event>
 7    1  0.3528441E-013  0.5930193E+02  0.7816164E-02  0.1266605E+00
        -11   -1    0    0    0    0  0.00000000000E+00  0.00000000000E+00  0.45593999997E+02  0.45594000000E+02  0.51100000000E-03 0. -1.
         11   -1    0    0    0    0 -0.00000000000E+00 -0.00000000000E+00 -0.45593999997E+02  0.45594000000E+02  0.51100000000E-03 0.  1.
    9900012    2    1    2    0    0 -0.12989990532E+02 -0.92873356361E+01  0.27599401013E+02  0.59301931044E+02  0.49999976320E+02 0.  0.
        -12    1    1    2    0    0  0.12989990532E+02  0.92873356361E+01 -0.27599401013E+02  0.31886068956E+02  0.00000000000E+00 0.  1.
         11    1    3    3    0    0 -0.22685324740E+02 -0.15440846559E+02  0.24366209556E+02  0.36698172562E+02  0.51100000000E-03 0. -1.
        -11    1    3    3    0    0  0.61759106524E+01 -0.56820696288E+01 -0.28184570955E+01  0.88527672687E+01  0.51100000000E-03 0.  1.
        -12    1    3    3    0    0  0.35194235557E+01  0.11835580551E+02  0.60516485525E+01  0.13750991213E+02  0.00000000000E+00 0.  1.
</event>
<event>
 7    1  0.3528441E-013  0.5930191E+02  0.7816164E-02  0.1266605E+00
        -11   -1    0    0    0    0  0.00000000000E+00  0.00000000000E+00  0.45593999997E+02  0.45594000000E+02  0.51100000000E-03 0. -1.
         11   -1    0    0    0    0 -0.00000000000E+00 -0.00000000000E+00 -0.45593999997E+02  0.45594000000E+02  0.51100000000E-03 0.  1.
    9900012    2    1    2    0    0  0.13258867222E+02 -0.27291317927E+02  0.98035247893E+01  0.59301910674E+02  0.49999939171E+02 0.  0.
        -12    1    1    2    0    0 -0.13258867222E+02  0.27291317927E+02 -0.98035247893E+01  0.31886089326E+02  0.00000000000E+00 0.  1.
         11    1    3    3    0    0 -0.83527799183E+00 -0.15482367389E+02  0.11818221057E+02  0.19495428657E+02  0.51100000000E-03 0. -1.
        -11    1    3    3    0    0 -0.43689045814E+01  0.61941042221E+01  0.89986749347E+01  0.11765645125E+02  0.51100000000E-03 0.  1.
        -12    1    3    3    0    0  0.18463049795E+02 -0.18003054760E+02 -0.11013371202E+02  0.28040836893E+02  0.00000000000E+00 0.  1.
</event>
<event>
 7    1  0.3528441E-013  0.5930196E+02  0.7816164E-02  0.1266605E+00
        -11   -1    0    0    0    0  0.00000000000E+00  0.00000000000E+00  0.45593999997E+02  0.45594000000E+02  0.51100000000E-03 0. -1.
         11   -1    0    0    0    0 -0.00000000000E+00 -0.00000000000E+00 -0.45593999997E+02  0.45594000000E+02  0.51100000000E-03 0.  1.
    9900012    2    1    2    0    0 -0.26967485152E+01  0.31378434332E+02 -0.49840689316E+01  0.59301960158E+02  0.50000029418E+02 0.  0.
        -12    1    1    2    0    0  0.26967485152E+01 -0.31378434332E+02  0.49840689316E+01  0.31886039842E+02  0.00000000000E+00 0.  1.
         11    1    3    3    0    0 -0.24799289838E+01  0.34459417791E+02 -0.40243959643E+01  0.34782140323E+02  0.51100000000E-03 0. -1.
        -11    1    3    3    0    0  0.11009895791E+02 -0.45488706801E+00 -0.52649462331E+01  0.12212468492E+02  0.51100000000E-03 0.  1.
        -12    1    3    3    0    0 -0.11226715323E+02 -0.26260963915E+01  0.43052732658E+01  0.12307351343E+02  0.00000000000E+00 0.  1.
</event>
<event>
 7    1  0.3528441E-013  0.5930193E+02  0.7816164E-02  0.1266605E+00
        -11   -1    0    0    0    0  0.00000000000E+00  0.00000000000E+00  0.45593999997E+02  0.45594000000E+02  0.51100000000E-03 0.  1.
         11   -1    0    0    0    0 -0.00000000000E+00 -0.00000000000E+00 -0.45593999997E+02  0.45594000000E+02  0.51100000000E-03 0. -1.
    9900012    2    1    2    0    0 -0.18201964647E+02  0.15764902657E+02 -0.20901615311E+02  0.59301934150E+02  0.49999981985E+02 0.  0.
        -12    1    1    2    0    0  0.18201964647E+02 -0.15764902657E+02  0.20901615311E+02  0.31886065850E+02  0.00000000000E+00 0.  1.
         11    1    3    3    0    0  0.12051403853E+02  0.56098652017E+01 -0.13646950717E+02  0.19051146594E+02  0.51100000000E-03 0. -1.
        -11    1    3    3    0    0 -0.66426228195E+01  0.61925501368E+01  0.77987702277E+01  0.11970502598E+02  0.51100000000E-03 0.  1.
        -12    1    3    3    0    0 -0.23610745681E+02  0.39624873180E+01 -0.15053434821E+02  0.28280284958E+02  0.00000000000E+00 0.  1.
</event>
<event>
 7    1  0.3528441E-013  0.5930196E+02  0.7816164E-02  0.1266605E+00
        -11   -1    0    0    0    0  0.00000000000E+00  0.00000000000E+00  0.45593999997E+02  0.45594000000E+02  0.51100000000E-03 0. -1.
         11   -1    0    0    0    0 -0.00000000000E+00 -0.00000000000E+00 -0.45593999997E+02  0.45594000000E+02  0.51100000000E-03 0.  1.
    9900012    2    1    2    0    0 -0.21114500320E+02  0.22971734443E+02 -0.65724514032E+01  0.59301955646E+02  0.50000021190E+02 0.  0.
        -12    1    1    2    0    0  0.21114500320E+02 -0.22971734443E+02  0.65724514032E+01  0.31886044354E+02  0.00000000000E+00 0.  1.
         11    1    3    3    0    0 -0.12288613079E+02  0.14728427344E+02  0.31885649741E+01  0.19444884425E+02  0.51100000000E-03 0. -1.
        -11    1    3    3    0    0 -0.16800865067E+02 -0.88250345054E+01 -0.79880574901E+00  0.18994430549E+02  0.51100000000E-03 0.  1.
        -12    1    3    3    0    0  0.79749778266E+01  0.17068341605E+02 -0.89622106284E+01  0.20862640672E+02  0.00000000000E+00 0.  1.
</event>
<event>
 7    1  0.3528441E-013  0.5930194E+02  0.7816164E-02  0.1266605E+00
        -11   -1    0    0    0    0  0.00000000000E+00  0.00000000000E+00  0.45593999997E+02  0.45594000000E+02  0.51100000000E-03 0.  1.
         11   -1    0    0    0    0 -0.00000000000E+00 -0.00000000000E+00 -0.45593999997E+02  0.45594000000E+02  0.51100000000E-03 0. -1.
    9900012    2    1    2    0    0 -0.18132191649E+02 -0.13118051642E+02 -0.22712575763E+02  0.59301941124E+02  0.49999994704E+02 0.  0.
        -12    1    1    2    0    0  0.18132191649E+02  0.13118051642E+02  0.22712575763E+02  0.31886058876E+02  0.00000000000E+00 0.  1.
         11    1    3    3    0    0 -0.78183296764E+01  0.83401832845E+01 -0.94927919134E+01  0.14859274367E+02  0.51100000000E-03 0. -1.
        -11    1    3    3    0    0  0.10407404765E+02  0.10285867736E+01  0.13961212008E+01  0.10550887136E+02  0.51100000000E-03 0.  1.
        -12    1    3    3    0    0 -0.20721266738E+02 -0.22486821700E+02 -0.14615905050E+02  0.33891779620E+02  0.00000000000E+00 0.  1.
</event>
<event>
 7    1  0.3528441E-013  0.5930191E+02  0.7816164E-02  0.1266605E+00
        -11   -1    0    0    0    0  0.00000000000E+00  0.00000000000E+00  0.45593999997E+02  0.45594000000E+02  0.51100000000E-03 0.  1.
         11   -1    0    0    0    0 -0.00000000000E+00 -0.00000000000E+00 -0.45593999997E+02  0.45594000000E+02  0.51100000000E-03 0. -1.
    9900012    2    1    2    0    0 -0.58028791003E+01 -0.25335035436E+02 -0.18471202171E+02  0.59301909992E+02  0.49999937926E+02 0.  0.
        -12    1    1    2    0    0  0.58028791003E+01  0.25335035436E+02  0.18471202171E+02  0.31886090008E+02  0.00000000000E+00 0.  1.
         11    1    3    3    0    0  0.13022443315E+01 -0.20709742185E+02 -0.10172136300E+02  0.23109773232E+02  0.51100000000E-03 0. -1.
        -11    1    3    3    0    0  0.34655173491E+01 -0.16634484921E+02  0.20847359319E+01  0.17119054392E+02  0.51100000000E-03 0.  1.
        -12    1    3    3    0    0 -0.10570640781E+02  0.12009191671E+02 -0.10383801803E+02  0.19073082368E+02  0.00000000000E+00 0.  1.
</event>
<event>
 7    1  0.3528441E-013  0.5930171E+02  0.7816164E-02  0.1266606E+00
        -11   -1    0    0    0    0  0.00000000000E+00  0.00000000000E+00  0.45593999997E+02  0.45594000000E+02  0.51100000000E-03 0. -1.
         11   -1    0    0    0    0 -0.00000000000E+00 -0.00000000000E+00 -0.45593999997E+02  0.45594000000E+02  0.51100000000E-03 0.  1.
    9900012    2    1    2    0    0  0.16264810122E+02  0.15115723123E+02  0.22884637021E+02  0.59301705994E+02  0.49999565882E+02 0.  0.
        -12    1    1    2    0    0 -0.16264810122E+02 -0.15115723123E+02 -0.22884637021E+02  0.31886294006E+02  0.00000000000E+00 0.  1.
         11    1    3    3    0    0  0.71998044944E+01  0.20275758984E+02  0.11005303047E+02  0.24167339169E+02  0.51100000000E-03 0. -1.
        -11    1    3    3    0    0  0.18721699363E+02  0.36370867249E+01  0.29194074627E+01  0.19293868639E+02  0.51100000000E-03 0.  1.
        -12    1    3    3    0    0 -0.96566937346E+01 -0.87971225858E+01  0.89599265120E+01  0.15840498186E+02  0.00000000000E+00 0.  1.
</event>
<event>
 7    1  0.3528441E-013  0.5930197E+02  0.7816164E-02  0.1266605E+00
        -11   -1    0    0    0    0  0.00000000000E+00  0.00000000000E+00  0.45593999997E+02  0.45594000000E+02  0.51100000000E-03 0. -1.
         11   -1    0    0    0    0 -0.00000000000E+00 -0.00000000000E+00 -0.45593999997E+02  0.45594000000E+02  0.51100000000E-03 0.  1.
    9900012    2    1    2    0    0  0.71093999320E+01  0.96849703659E+01  0.29536020951E+02  0.59301972465E+02  0.50000051862E+02 0.  0.
        -12    1    1    2    0    0 -0.71093999320E+01 -0.96849703659E+01 -0.29536020951E+02  0.31886027535E+02  0.00000000000E+00 0.  1.
         11    1    3    3    0    0  0.15367959310E+02  0.40239519607E+00  0.13336735507E+02  0.20352017332E+02  0.51100000000E-03 0.  1.
        -11    1    3    3    0    0  0.16919829584E+01 -0.49457036600E+01  0.20422800959E+02  0.21081119285E+02  0.51100000000E-03 0. -1.
        -12    1    3    3    0    0 -0.99505423361E+01  0.14228278830E+02 -0.42235155155E+01  0.17868835848E+02  0.00000000000E+00 0.  1.
</event>
<event>
 7    1  0.3528441E-013  0.5930200E+02  0.7816164E-02  0.1266605E+00
        -11   -1    0    0    0    0  0.00000000000E+00  0.00000000000E+00  0.45593999997E+02  0.45594000000E+02  0.51100000000E-03 0. -1.
         11   -1    0    0    0    0 -0.00000000000E+00 -0.00000000000E+00 -0.45593999997E+02  0.45594000000E+02  0.51100000000E-03 0.  1.
    9900012    2    1    2    0    0  0.29407071228E+02  0.72481207445E+01  0.99702507366E+01  0.59302000058E+02  0.50000102186E+02 0.  0.
        -12    1    1    2    0    0 -0.29407071228E+02 -0.72481207445E+01 -0.99702507366E+01  0.31885999942E+02  0.00000000000E+00 0.  1.
         11    1    3    3    0    0 -0.25382871240E+01 -0.92587116378E+01  0.11470747306E+01  0.96686308966E+01  0.51100000000E-03 0. -1.
        -11    1    3    3    0    0 -0.21354714766E+01 -0.23526635533E+01 -0.69250842523E+01  0.76191900085E+01  0.51100000000E-03 0.  1.
         12    1    3    3    0    0  0.34080829829E+02  0.18859495936E+02  0.15748260258E+02  0.42014179153E+02  0.00000000000E+00 0. -1.
</event>
<event>
 7    1  0.3528441E-013  0.5930198E+02  0.7816164E-02  0.1266605E+00
        -11   -1    0    0    0    0  0.00000000000E+00  0.00000000000E+00  0.45593999997E+02  0.45594000000E+02  0.51100000000E-03 0. -1.
         11   -1    0    0    0    0 -0.00000000000E+00 -0.00000000000E+00 -0.45593999997E+02  0.45594000000E+02  0.51100000000E-03 0.  1.
    9900012    2    1    2    0    0  0.15328378099E+02 -0.15006927520E+02  0.23591332846E+02  0.59301983720E+02  0.50000072389E+02 0.  0.
        -12    1    1    2    0    0 -0.15328378099E+02  0.15006927520E+02 -0.23591332846E+02  0.31886016280E+02  0.00000000000E+00 0.  1.
         11    1    3    3    0    0  0.19212494719E+02 -0.21732382206E+02 -0.32389250146E+00  0.29008986474E+02  0.51100000000E-03 0. -1.
        -11    1    3    3    0    0 -0.44007941483E+01 -0.15069064258E+01 -0.34933498358E+00  0.46647391464E+01  0.51100000000E-03 0.  1.
        -12    1    3    3    0    0  0.51667752822E+00  0.82323611113E+01  0.24264560331E+02  0.25628258099E+02  0.00000000000E+00 0.  1.
</event>
<event>
 7    1  0.3528441E-013  0.5930194E+02  0.7816164E-02  0.1266605E+00
        -11   -1    0    0    0    0  0.00000000000E+00  0.00000000000E+00  0.45593999997E+02  0.45594000000E+02  0.51100000000E-03 0. -1.
         11   -1    0    0    0    0 -0.00000000000E+00 -0.00000000000E+00 -0.45593999997E+02  0.45594000000E+02  0.51100000000E-03 0.  1.
    9900012    2    1    2    0    0 -0.78435792154E+00 -0.72872825423E+01  0.31032260699E+02  0.59301938652E+02  0.49999990195E+02 0.  0.
        -12    1    1    2    0    0  0.78435792154E+00  0.72872825423E+01 -0.31032260699E+02  0.31886061348E+02  0.00000000000E+00 0.  1.
         11    1    3    3    0    0 -0.18238055263E+01  0.31055566038E+01  0.22549208715E+02  0.22835007386E+02  0.51100000000E-03 0. -1.
        -11    1    3    3    0    0  0.12245547011E+01 -0.19315192632E+01  0.21127801841E+02  0.21251219066E+02  0.51100000000E-03 0.  1.
        -12    1    3    3    0    0 -0.18510709640E+00 -0.84613198829E+01 -0.12644749857E+02  0.15215712199E+02  0.00000000000E+00 0.  1.
</event>
<event>
 7    1  0.3528441E-013  0.5930209E+02  0.7816164E-02  0.1266604E+00
        -11   -1    0    0    0    0  0.00000000000E+00  0.00000000000E+00  0.45593999997E+02  0.45594000000E+02  0.51100000000E-03 0. -1.
         11   -1    0    0    0    0 -0.00000000000E+00 -0.00000000000E+00 -0.45593999997E+02  0.45594000000E+02  0.51100000000E-03 0.  1.
    9900012    2    1    2    0    0  0.26930684078E+02 -0.10504434055E+02  0.13457568003E+02  0.59302093767E+02  0.50000273088E+02 0.  0.
        -12    1    1    2    0    0 -0.26930684078E+02  0.10504434055E+02 -0.13457568003E+02  0.31885906233E+02  0.00000000000E+00 0.  1.
         11    1    3    3    0    0 -0.32871725326E+01  0.86789391863E+01  0.45549476744E+01  0.10338135095E+02  0.51100000000E-03 0. -1.
        -11    1    3    3    0    0  0.18544456854E+02  0.22929119762E+01  0.14778928901E+02  0.23823750021E+02  0.51100000000E-03 0.  1.
        -12    1    3    3    0    0  0.11673399757E+02 -0.21476285217E+02 -0.58763085720E+01  0.25140208652E+02  0.00000000000E+00 0.  1.
</event>
<event>
 7    1  0.3528441E-013  0.5930188E+02  0.7816164E-02  0.1266605E+00
        -11   -1    0    0    0    0  0.00000000000E+00  0.00000000000E+00  0.45593999997E+02  0.45594000000E+02  0.51100000000E-03 0.  1.
         11   -1    0    0    0    0 -0.00000000000E+00 -0.00000000000E+00 -0.45593999997E+02  0.45594000000E+02  0.51100000000E-03 0. -1.
    9900012    2    1    2    0    0  0.28714380955E+02 -0.82765458905E+00 -0.13839222890E+02  0.59301878004E+02  0.49999879588E+02 0.  0.
        -12    1    1    2    0    0 -0.28714380955E+02  0.82765458905E+00  0.13839222890E+02  0.31886121996E+02  0.00000000000E+00 0.  1.
         11    1    3    3    0    0  0.15841964373E+02 -0.21138757236E+01 -0.12509384490E+02  0.20295837168E+02  0.51100000000E-03 0. -1.
        -11    1    3    3    0    0  0.63659573363E+00 -0.12444080053E+02 -0.12368168905E+02  0.17556536812E+02  0.51100000000E-03 0.  1.
         12    1    3    3    0    0  0.12235820849E+02  0.13730301188E+02  0.11038330505E+02  0.21449504024E+02  0.00000000000E+00 0. -1.
</event>
<event>
 7    1  0.3528441E-013  0.5930198E+02  0.7816164E-02  0.1266605E+00
        -11   -1    0    0    0    0  0.00000000000E+00  0.00000000000E+00  0.45593999997E+02  0.45594000000E+02  0.51100000000E-03 0.  1.
         11   -1    0    0    0    0 -0.00000000000E+00 -0.00000000000E+00 -0.45593999997E+02  0.45594000000E+02  0.51100000000E-03 0. -1.
    9900012    2    1    2    0    0  0.30458943513E+02  0.78594672466E+01  0.52153387784E+01  0.59301980746E+02  0.50000066965E+02 0.  0.
        -12    1    1    2    0    0 -0.30458943513E+02 -0.78594672466E+01 -0.52153387784E+01  0.31886019254E+02  0.00000000000E+00 0.  1.
         11    1    3    3    0    0  0.16709452350E+02  0.25608640580E+02  0.47119077017E+01  0.30938816148E+02  0.51100000000E-03 0. -1.
        -11    1    3    3    0    0 -0.21843565224E+01  0.18158416060E+01 -0.11771443600E+01  0.30747948322E+01  0.51100000000E-03 0.  1.
        -12    1    3    3    0    0  0.15933847685E+02 -0.19565014939E+02  0.16805754366E+01  0.25288369766E+02  0.00000000000E+00 0.  1.
</event>
<event>
 7    1  0.3528441E-013  0.5930200E+02  0.7816164E-02  0.1266605E+00
        -11   -1    0    0    0    0  0.00000000000E+00  0.00000000000E+00  0.45593999997E+02  0.45594000000E+02  0.51100000000E-03 0.  1.
         11   -1    0    0    0    0 -0.00000000000E+00 -0.00000000000E+00 -0.45593999997E+02  0.45594000000E+02  0.51100000000E-03 0. -1.
    9900012    2    1    2    0    0 -0.14948570982E+01  0.29426970547E+02 -0.12187519661E+02  0.59302002621E+02  0.50000106861E+02 0.  0.
        -12    1    1    2    0    0  0.14948570982E+01 -0.29426970547E+02  0.12187519661E+02  0.31885997379E+02  0.00000000000E+00 0.  1.
         11    1    3    3    0    0  0.17488696914E+01  0.23571164557E+02  0.68176332421E+01  0.24599562335E+02  0.51100000000E-03 0. -1.
        -11    1    3    3    0    0 -0.12207824079E+02  0.39153099826E+01  0.83233923249E+00  0.12847311387E+02  0.51100000000E-03 0.  1.
        -12    1    3    3    0    0  0.89640972897E+01  0.19404960074E+01 -0.19837492136E+02  0.21855128900E+02  0.00000000000E+00 0.  1.
</event>
<event>
 7    1  0.3528441E-013  0.5930194E+02  0.7816164E-02  0.1266605E+00
        -11   -1    0    0    0    0  0.00000000000E+00  0.00000000000E+00  0.45593999997E+02  0.45594000000E+02  0.51100000000E-03 0.  1.
         11   -1    0    0    0    0 -0.00000000000E+00 -0.00000000000E+00 -0.45593999997E+02  0.45594000000E+02  0.51100000000E-03 0. -1.
    9900012    2    1    2    0    0 -0.85667561248E+01 -0.99251697665E+01 -0.29065829131E+02  0.59301941472E+02  0.49999995339E+02 0.  0.
        -12    1    1    2    0    0  0.85667561248E+01  0.99251697665E+01  0.29065829131E+02  0.31886058528E+02  0.00000000000E+00 0.  1.
         11    1    3    3    0    0  0.99528767569E+01 -0.93606210658E+01 -0.10239659882E+02  0.17074296976E+02  0.51100000000E-03 0. -1.
        -11    1    3    3    0    0 -0.15538221015E+02  0.14305984881E+02 -0.16673518244E+02  0.26909175509E+02  0.51100000000E-03 0.  1.
         12    1    3    3    0    0 -0.29814118670E+01 -0.14870533582E+02 -0.21526510060E+01  0.15318468986E+02  0.00000000000E+00 0. -1.
</event>
<event>
 7    1  0.3528441E-013  0.5930194E+02  0.7816164E-02  0.1266605E+00
        -11   -1    0    0    0    0  0.00000000000E+00  0.00000000000E+00  0.45593999997E+02  0.45594000000E+02  0.51100000000E-03 0.  1.
         11   -1    0    0    0    0 -0.00000000000E+00 -0.00000000000E+00 -0.45593999997E+02  0.45594000000E+02  0.51100000000E-03 0. -1.
    9900012    2    1    2    0    0  0.27944922959E+02  0.95388143056E+01 -0.12033832406E+02  0.59301940037E+02  0.49999992723E+02 0.  0.
        -12    1    1    2    0    0 -0.27944922959E+02 -0.95388143056E+01  0.12033832406E+02  0.31886059963E+02  0.00000000000E+00 0.  1.
         11    1    3    3    0    0  0.13088138770E+02  0.37714065397E+01  0.13953510879E+02  0.19499316651E+02  0.51100000000E-03 0. -1.
        -11    1    3    3    0    0  0.55070038293E+01 -0.28353914837E+01  0.39049466399E+01  0.73222363089E+01  0.51100000000E-03 0.  1.
         12    1    3    3    0    0  0.93497803605E+01  0.86027992497E+01 -0.29892289925E+02  0.32480387077E+02  0.00000000000E+00 0. -1.
</event>
<event>
 7    1  0.3528441E-013  0.5930196E+02  0.7816164E-02  0.1266605E+00
        -11   -1    0    0    0    0  0.00000000000E+00  0.00000000000E+00  0.45593999997E+02  0.45594000000E+02  0.51100000000E-03 0.  1.
         11   -1    0    0    0    0 -0.00000000000E+00 -0.00000000000E+00 -0.45593999997E+02  0.45594000000E+02  0.51100000000E-03 0. -1.
    9900012    2    1    2    0    0  0.14990235773E+02  0.17668291200E+02 -0.21905339268E+02  0.59301959623E+02  0.50000028442E+02 0.  0.
        -12    1    1    2    0    0 -0.14990235773E+02 -0.17668291200E+02  0.21905339268E+02  0.31886040377E+02  0.00000000000E+00 0.  1.
         11    1    3    3    0    0  0.15567254203E+02  0.14432984952E+02 -0.95972397544E+01  0.23297155818E+02  0.51100000000E-03 0. -1.
        -11    1    3    3    0    0  0.70912136248E+01  0.16808803335E+02 -0.64163013128E+01  0.19338823724E+02  0.51100000000E-03 0.  1.
         12    1    3    3    0    0 -0.76682320546E+01 -0.13573497087E+02 -0.58917982011E+01  0.16665980081E+02  0.00000000000E+00 0. -1.
</event>
<event>
 7    1  0.3528441E-013  0.5930196E+02  0.7816164E-02  0.1266605E+00
        -11   -1    0    0    0    0  0.00000000000E+00  0.00000000000E+00  0.45593999997E+02  0.45594000000E+02  0.51100000000E-03 0. -1.
         11   -1    0    0    0    0 -0.00000000000E+00 -0.00000000000E+00 -0.45593999997E+02  0.45594000000E+02  0.51100000000E-03 0.  1.
    9900012    2    1    2    0    0 -0.95425890245E+01 -0.99435748438E+00  0.30408386961E+02  0.59301956820E+02  0.50000023330E+02 0.  0.
        -12    1    1    2    0    0  0.95425890245E+01  0.99435748438E+00 -0.30408386961E+02  0.31886043180E+02  0.00000000000E+00 0.  1.
         11    1    3    3    0    0  0.71844620983E+01 -0.13524738409E+01 -0.31059799094E+01  0.79430971662E+01  0.51100000000E-03 0. -1.
        -11    1    3    3    0    0  0.38911359465E+00 -0.45679835781E+01 -0.62713311235E+01  0.77683638999E+01  0.51100000000E-03 0.  1.
         12    1    3    3    0    0 -0.17116164717E+02  0.49260999346E+01  0.39785697994E+02  0.43590495754E+02  0.00000000000E+00 0. -1.
</event>
<event>
 7    1  0.3528441E-013  0.5930194E+02  0.7816164E-02  0.1266605E+00
        -11   -1    0    0    0    0  0.00000000000E+00  0.00000000000E+00  0.45593999997E+02  0.45594000000E+02  0.51100000000E-03 0. -1.
         11   -1    0    0    0    0 -0.00000000000E+00 -0.00000000000E+00 -0.45593999997E+02  0.45594000000E+02  0.51100000000E-03 0.  1.
    9900012    2    1    2    0    0 -0.76256427128E+01  0.55419552788E+01  0.30460750856E+02  0.59301936621E+02  0.49999986493E+02 0.  0.
        -12    1    1    2    0    0  0.76256427128E+01 -0.55419552788E+01 -0.30460750856E+02  0.31886063379E+02  0.00000000000E+00 0.  1.
         11    1    3    3    0    0 -0.50592202957E+01 -0.74471752440E+01  0.88694922524E+01  0.12638196952E+02  0.51100000000E-03 0. -1.
        -11    1    3    3    0    0  0.16113641789E+02  0.52203003593E+01 -0.18603047664E+00  0.16939173390E+02  0.51100000000E-03 0.  1.
         12    1    3    3    0    0 -0.18680064206E+02  0.77688301636E+01  0.21777289080E+02  0.29724566280E+02  0.00000000000E+00 0. -1.
</event>
<event>
 7    1  0.3528441E-013  0.5930190E+02  0.7816164E-02  0.1266605E+00
        -11   -1    0    0    0    0  0.00000000000E+00  0.00000000000E+00  0.45593999997E+02  0.45594000000E+02  0.51100000000E-03 0. -1.
         11   -1    0    0    0    0 -0.00000000000E+00 -0.00000000000E+00 -0.45593999997E+02  0.45594000000E+02  0.51100000000E-03 0.  1.
    9900012    2    1    2    0    0 -0.21955856382E+02  0.19051383388E+02 -0.13103766591E+02  0.59301897427E+02  0.49999915011E+02 0.  0.
        -12    1    1    2    0    0  0.21955856382E+02 -0.19051383388E+02  0.13103766591E+02  0.31886102573E+02  0.00000000000E+00 0.  1.
         11    1    3    3    0    0 -0.19139400955E+02  0.33803289760E+01 -0.16645648292E+02  0.25589468541E+02  0.51100000000E-03 0. -1.
        -11    1    3    3    0    0  0.10512768390E+02  0.54002806281E+01 -0.71143834091E+01  0.13794773708E+02  0.51100000000E-03 0.  1.
         12    1    3    3    0    0 -0.13329223817E+02  0.10270773783E+02  0.10656265110E+02  0.19917655178E+02  0.00000000000E+00 0. -1.
</event>
<event>
 7    1  0.3528441E-013  0.5930193E+02  0.7816164E-02  0.1266605E+00
        -11   -1    0    0    0    0  0.00000000000E+00  0.00000000000E+00  0.45593999997E+02  0.45594000000E+02  0.51100000000E-03 0.  1.
         11   -1    0    0    0    0 -0.00000000000E+00 -0.00000000000E+00 -0.45593999997E+02  0.45594000000E+02  0.51100000000E-03 0. -1.
    9900012    2    1    2    0    0 -0.31323561389E+02 -0.11457726056E+01 -0.58517567160E+01  0.59301931731E+02  0.49999977574E+02 0.  0.
        -12    1    1    2    0    0  0.31323561389E+02  0.11457726056E+01  0.58517567160E+01  0.31886068269E+02  0.00000000000E+00 0.  1.
         11    1    3    3    0    0 -0.10279046871E+02 -0.18417824954E+02 -0.15092193827E+02  0.25935485254E+02  0.51100000000E-03 0. -1.
        -11    1    3    3    0    0 -0.29305652105E+01 -0.32430336989E+01 -0.30592797286E+00  0.43816745898E+01  0.51100000000E-03 0.  1.
        -12    1    3    3    0    0 -0.18113949308E+02  0.20515086047E+02  0.95463650835E+01  0.28984771887E+02  0.00000000000E+00 0.  1.
</event>
<event>
 7    1  0.3528441E-013  0.5930197E+02  0.7816164E-02  0.1266605E+00
        -11   -1    0    0    0    0  0.00000000000E+00  0.00000000000E+00  0.45593999997E+02  0.45594000000E+02  0.51100000000E-03 0. -1.
         11   -1    0    0    0    0 -0.00000000000E+00 -0.00000000000E+00 -0.45593999997E+02  0.45594000000E+02  0.51100000000E-03 0.  1.
    9900012    2    1    2    0    0 -0.20558009218E+02 -0.22927545019E+02  0.82713310861E+01  0.59301968865E+02  0.50000045297E+02 0.  0.
        -12    1    1    2    0    0  0.20558009218E+02  0.22927545019E+02 -0.82713310861E+01  0.31886031135E+02  0.00000000000E+00 0.  1.
         11    1    3    3    0    0 -0.25111195523E+02 -0.56848860659E+01  0.24928727447E+01  0.25867054045E+02  0.51100000000E-03 0. -1.
        -11    1    3    3    0    0 -0.10577361305E+02 -0.29817063544E+01 -0.21218190239E+01  0.11192553828E+02  0.51100000000E-03 0.  1.
         12    1    3    3    0    0  0.15130547611E+02 -0.14260952599E+02  0.79002773654E+01  0.22242360992E+02  0.00000000000E+00 0. -1.
</event>
<event>
 7    1  0.3528441E-013  0.5930198E+02  0.7816164E-02  0.1266605E+00
        -11   -1    0    0    0    0  0.00000000000E+00  0.00000000000E+00  0.45593999997E+02  0.45594000000E+02  0.51100000000E-03 0.  1.
         11   -1    0    0    0    0 -0.00000000000E+00 -0.00000000000E+00 -0.45593999997E+02  0.45594000000E+02  0.51100000000E-03 0. -1.
    9900012    2    1    2    0    0 -0.24945052924E+02  0.11670667618E+02  0.16070417201E+02  0.59301977090E+02  0.50000060297E+02 0.  0.
        -12    1    1    2    0    0  0.24945052924E+02 -0.11670667618E+02 -0.16070417201E+02  0.31886022910E+02  0.00000000000E+00 0.  1.
         11    1    3    3    0    0  0.69988912197E+01 -0.15495392397E+01  0.60855607307E+01  0.94031696693E+01  0.51100000000E-03 0. -1.
        -11    1    3    3    0    0 -0.35294033667E+01 -0.99997827777E+01  0.77517050265E+01  0.13135496748E+02  0.51100000000E-03 0.  1.
         12    1    3    3    0    0 -0.28414540777E+02  0.23219989636E+02  0.22331514434E+01  0.36763310673E+02  0.00000000000E+00 0. -1.
</event>
<event>
 7    1  0.3528441E-013  0.5930200E+02  0.7816164E-02  0.1266605E+00
        -11   -1    0    0    0    0  0.00000000000E+00  0.00000000000E+00  0.45593999997E+02  0.45594000000E+02  0.51100000000E-03 0.  1.
         11   -1    0    0    0    0 -0.00000000000E+00 -0.00000000000E+00 -0.45593999997E+02  0.45594000000E+02  0.51100000000E-03 0. -1.
    9900012    2    1    2    0    0 -0.11698641548E+02 -0.24464565445E+02 -0.16773315675E+02  0.59301995308E+02  0.50000093522E+02 0.  0.
        -12    1    1    2    0    0  0.11698641548E+02  0.24464565445E+02  0.16773315675E+02  0.31886004692E+02  0.00000000000E+00 0.  1.
         11    1    3    3    0    0 -0.61669100074E+01 -0.56550361900E+01  0.62860676915E+01  0.10465412588E+02  0.51100000000E-03 0. -1.
        -11    1    3    3    0    0 -0.18908192682E+02  0.11770153606E+00 -0.15525908888E+02  0.24466046906E+02  0.51100000000E-03 0.  1.
         12    1    3    3    0    0  0.13376461142E+02 -0.18927230791E+02 -0.75334744793E+01  0.24370535814E+02  0.00000000000E+00 0. -1.
</event>
<event>
 7    1  0.3528441E-013  0.5930207E+02  0.7816164E-02  0.1266604E+00
        -11   -1    0    0    0    0  0.00000000000E+00  0.00000000000E+00  0.45593999997E+02  0.45594000000E+02  0.51100000000E-03 0.  1.
         11   -1    0    0    0    0 -0.00000000000E+00 -0.00000000000E+00 -0.45593999997E+02  0.45594000000E+02  0.51100000000E-03 0. -1.
    9900012    2    1    2    0    0 -0.16367774247E+02 -0.24162715503E+02 -0.12844123720E+02  0.59302072565E+02  0.50000234420E+02 0.  0.
        -12    1    1    2    0    0  0.16367774247E+02  0.24162715503E+02  0.12844123720E+02  0.31885927435E+02  0.00000000000E+00 0.  1.
         11    1    3    3    0    0 -0.21697399427E+01 -0.16762411706E+02 -0.55978588575E+01  0.17805118412E+02  0.51100000000E-03 0. -1.
        -11    1    3    3    0    0 -0.22284542706E+00 -0.17756166168E+02 -0.14227607722E+02  0.22754250566E+02  0.51100000000E-03 0.  1.
         12    1    3    3    0    0 -0.13975188877E+02  0.10355862372E+02  0.69813428593E+01  0.18742703586E+02  0.00000000000E+00 0. -1.
</event>
<event>
 7    1  0.3528441E-013  0.5930189E+02  0.7816164E-02  0.1266605E+00
        -11   -1    0    0    0    0  0.00000000000E+00  0.00000000000E+00  0.45593999997E+02  0.45594000000E+02  0.51100000000E-03 0.  1.
         11   -1    0    0    0    0 -0.00000000000E+00 -0.00000000000E+00 -0.45593999997E+02  0.45594000000E+02  0.51100000000E-03 0. -1.
    9900012    2    1    2    0    0 -0.50052668279E+01 -0.17188518742E+02 -0.26386097112E+02  0.59301890276E+02  0.49999901969E+02 0.  0.
        -12    1    1    2    0    0  0.50052668279E+01  0.17188518742E+02  0.26386097112E+02  0.31886109724E+02  0.00000000000E+00 0.  1.
         11    1    3    3    0    0  0.41144049353E+01 -0.25926798563E+02 -0.78056555100E+01  0.27387140594E+02  0.51100000000E-03 0. -1.
        -11    1    3    3    0    0 -0.97865283238E+01  0.21839998232E+01  0.20701455811E+01  0.10238725255E+02  0.51100000000E-03 0.  1.
        -12    1    3    3    0    0  0.66685656061E+00  0.65542799974E+01 -0.20650587183E+02  0.21676024427E+02  0.00000000000E+00 0.  1.
</event>
<event>
 7    1  0.3528441E-013  0.5930195E+02  0.7816164E-02  0.1266605E+00
        -11   -1    0    0    0    0  0.00000000000E+00  0.00000000000E+00  0.45593999997E+02  0.45594000000E+02  0.51100000000E-03 0. -1.
         11   -1    0    0    0    0 -0.00000000000E+00 -0.00000000000E+00 -0.45593999997E+02  0.45594000000E+02  0.51100000000E-03 0.  1.
    9900012    2    1    2    0    0  0.20194328084E+02 -0.98741776877E+01 -0.22614376443E+02  0.59301948289E+02  0.50000007772E+02 0.  0.
        -12    1    1    2    0    0 -0.20194328084E+02  0.98741776877E+01  0.22614376443E+02  0.31886051711E+02  0.00000000000E+00 0.  1.
         11    1    3    3    0    0  0.13742950922E+02 -0.10171451500E+02 -0.19244076681E+02  0.25742214614E+02  0.51100000000E-03 0. -1.
        -11    1    3    3    0    0  0.98839843456E+01 -0.13036924149E+01 -0.16838796715E+02  0.19568797498E+02  0.51100000000E-03 0.  1.
         12    1    3    3    0    0 -0.34326071831E+01  0.16009662269E+01  0.13468496953E+02  0.13990936177E+02  0.00000000000E+00 0. -1.
</event>
<event>
 7    1  0.3528441E-013  0.5930193E+02  0.7816164E-02  0.1266605E+00
        -11   -1    0    0    0    0  0.00000000000E+00  0.00000000000E+00  0.45593999997E+02  0.45594000000E+02  0.51100000000E-03 0. -1.
         11   -1    0    0    0    0 -0.00000000000E+00 -0.00000000000E+00 -0.45593999997E+02  0.45594000000E+02  0.51100000000E-03 0.  1.
    9900012    2    1    2    0    0 -0.31149588111E+02  0.60865305175E+01 -0.30624741847E+01  0.59301930293E+02  0.49999974952E+02 0.  0.
        -12    1    1    2    0    0  0.31149588111E+02 -0.60865305175E+01  0.30624741847E+01  0.31886069707E+02  0.00000000000E+00 0.  1.
         11    1    3    3    0    0 -0.10551003634E+02  0.34324126903E+01 -0.38180766166E+01  0.11733833298E+02  0.51100000000E-03 0. -1.
        -11    1    3    3    0    0 -0.13428265654E+01  0.57341775591E+01 -0.18950441927E+02  0.19844475930E+02  0.51100000000E-03 0.  1.
         12    1    3    3    0    0 -0.19255757912E+02 -0.30800597319E+01  0.19706044358E+02  0.27723621065E+02  0.00000000000E+00 0. -1.
</event>
<event>
 7    1  0.3528441E-013  0.5930203E+02  0.7816164E-02  0.1266604E+00
        -11   -1    0    0    0    0  0.00000000000E+00  0.00000000000E+00  0.45593999997E+02  0.45594000000E+02  0.51100000000E-03 0. -1.
         11   -1    0    0    0    0 -0.00000000000E+00 -0.00000000000E+00 -0.45593999997E+02  0.45594000000E+02  0.51100000000E-03 0.  1.
    9900012    2    1    2    0    0  0.29934335859E+02  0.30156226029E+01  0.10562052260E+02  0.59302025169E+02  0.50000147981E+02 0.  0.
        -12    1    1    2    0    0 -0.29934335859E+02 -0.30156226029E+01 -0.10562052260E+02  0.31885974831E+02  0.00000000000E+00 0.  1.
         11    1    3    3    0    0  0.72340326430E+01 -0.11961878640E+02  0.81048789395E+01  0.16158800443E+02  0.51100000000E-03 0. -1.
        -11    1    3    3    0    0 -0.26949017894E+01 -0.70369139799E+01 -0.45628587331E+01  0.88091051813E+01  0.51100000000E-03 0.  1.
        -12    1    3    3    0    0  0.25395205006E+02  0.22014415222E+02  0.70200320534E+01  0.34334119544E+02  0.00000000000E+00 0.  1.
</event>
<event>
 7    1  0.3528441E-013  0.5930194E+02  0.7816164E-02  0.1266605E+00
        -11   -1    0    0    0    0  0.00000000000E+00  0.00000000000E+00  0.45593999997E+02  0.45594000000E+02  0.51100000000E-03 0. -1.
         11   -1    0    0    0    0 -0.00000000000E+00 -0.00000000000E+00 -0.45593999997E+02  0.45594000000E+02  0.51100000000E-03 0.  1.
    9900012    2    1    2    0    0 -0.14463413668E+02  0.27907658583E+02  0.53565756198E+01  0.59301942782E+02  0.49999997728E+02 0.  0.
        -12    1    1    2    0    0  0.14463413668E+02 -0.27907658583E+02 -0.53565756198E+01  0.31886057218E+02  0.00000000000E+00 0.  1.
         11    1    3    3    0    0  0.67653185204E+01  0.13551212064E+02 -0.40594989111E+01  0.15680701986E+02  0.51100000000E-03 0. -1.
        -11    1    3    3    0    0 -0.83500193181E+01  0.45363991871E+01 -0.12915757693E+02  0.16034916191E+02  0.51100000000E-03 0.  1.
         12    1    3    3    0    0 -0.12878712870E+02  0.98200473321E+01  0.22331832224E+02  0.27586324606E+02  0.00000000000E+00 0. -1.
</event>
<event>
 7    1  0.3528441E-013  0.5930195E+02  0.7816164E-02  0.1266605E+00
        -11   -1    0    0    0    0  0.00000000000E+00  0.00000000000E+00  0.45593999997E+02  0.45594000000E+02  0.51100000000E-03 0. -1.
         11   -1    0    0    0    0 -0.00000000000E+00 -0.00000000000E+00 -0.45593999997E+02  0.45594000000E+02  0.51100000000E-03 0.  1.
    9900012    2    1    2    0    0 -0.22151163905E+02  0.68046402980E+01  0.21903038602E+02  0.59301948317E+02  0.50000007822E+02 0.  0.
        -12    1    1    2    0    0  0.22151163905E+02 -0.68046402980E+01 -0.21903038602E+02  0.31886051683E+02  0.00000000000E+00 0.  1.
         11    1    3    3    0    0 -0.25230977177E+02  0.10130732280E+02  0.85758544786E+01  0.28509283157E+02  0.51100000000E-03 0. -1.
        -11    1    3    3    0    0  0.14754430195E+01  0.11881606067E+02  0.30092970422E+01  0.12345256732E+02  0.51100000000E-03 0.  1.
         12    1    3    3    0    0  0.16043702524E+01 -0.15207698049E+02  0.10317887081E+02  0.18447408427E+02  0.00000000000E+00 0. -1.
</event>
<event>
 7    1  0.3528441E-013  0.5930181E+02  0.7816164E-02  0.1266605E+00
        -11   -1    0    0    0    0  0.00000000000E+00  0.00000000000E+00  0.45593999997E+02  0.45594000000E+02  0.51100000000E-03 0.  1.
         11   -1    0    0    0    0 -0.00000000000E+00 -0.00000000000E+00 -0.45593999997E+02  0.45594000000E+02  0.51100000000E-03 0. -1.
    9900012    2    1    2    0    0 -0.29021063349E+01  0.21250837532E+02 -0.23594670875E+02  0.59301814736E+02  0.49999764203E+02 0.  0.
        -12    1    1    2    0    0  0.29021063349E+01 -0.21250837532E+02  0.23594670875E+02  0.31886185264E+02  0.00000000000E+00 0.  1.
         11    1    3    3    0    0  0.51702037937E+01 -0.27490343102E+01  0.45165802030E+00  0.58730053751E+01  0.51100000000E-03 0. -1.
        -11    1    3    3    0    0  0.55860824397E+00 -0.98480712869E+01  0.17331607840E+01  0.10015008627E+02  0.51100000000E-03 0.  1.
         12    1    3    3    0    0 -0.86309183727E+01  0.33847943129E+02 -0.25779489679E+02  0.43413800734E+02  0.00000000000E+00 0. -1.
</event>
<event>
 7    1  0.3528441E-013  0.5930194E+02  0.7816164E-02  0.1266605E+00
        -11   -1    0    0    0    0  0.00000000000E+00  0.00000000000E+00  0.45593999997E+02  0.45594000000E+02  0.51100000000E-03 0.  1.
         11   -1    0    0    0    0 -0.00000000000E+00 -0.00000000000E+00 -0.45593999997E+02  0.45594000000E+02  0.51100000000E-03 0. -1.
    9900012    2    1    2    0    0 -0.14267673718E+02 -0.20749753270E+02 -0.19560212570E+02  0.59301942076E+02  0.49999996441E+02 0.  0.
        -12    1    1    2    0    0  0.14267673718E+02  0.20749753270E+02  0.19560212570E+02  0.31886057924E+02  0.00000000000E+00 0.  1.
         11    1    3    3    0    0  0.88002017135E+01  0.55937225637E+01 -0.37914289887E+00  0.10434415744E+02  0.51100000000E-03 0. -1.
        -11    1    3    3    0    0 -0.90076168909E+01 -0.26435272102E+02 -0.20646300870E+02  0.34730829432E+02  0.51100000000E-03 0.  1.
         12    1    3    3    0    0 -0.14060258541E+02  0.91796268164E-01  0.14652311983E+01  0.14136696901E+02  0.00000000000E+00 0. -1.
</event>
<event>
 7    1  0.3528441E-013  0.5930216E+02  0.7816164E-02  0.1266604E+00
        -11   -1    0    0    0    0  0.00000000000E+00  0.00000000000E+00  0.45593999997E+02  0.45594000000E+02  0.51100000000E-03 0.  1.
         11   -1    0    0    0    0 -0.00000000000E+00 -0.00000000000E+00 -0.45593999997E+02  0.45594000000E+02  0.51100000000E-03 0. -1.
    9900012    2    1    2    0    0  0.13146101484E+02 -0.21675272654E+01 -0.28968755812E+02  0.59302157186E+02  0.50000388748E+02 0.  0.
        -12    1    1    2    0    0 -0.13146101484E+02  0.21675272654E+01  0.28968755812E+02  0.31885842814E+02  0.00000000000E+00 0.  1.
         11    1    3    3    0    0  0.10153979899E+02 -0.66601594026E+01  0.23182966037E+00  0.12145566118E+02  0.51100000000E-03 0. -1.
        -11    1    3    3    0    0 -0.81758351063E+01  0.94963078708E+01  0.28484577450E+01  0.12850597443E+02  0.51100000000E-03 0.  1.
         12    1    3    3    0    0  0.11167956691E+02 -0.50036757336E+01 -0.32049043217E+02  0.34305993625E+02  0.00000000000E+00 0. -1.
</event>
<event>
 7    1  0.3528441E-013  0.5930197E+02  0.7816164E-02  0.1266605E+00
        -11   -1    0    0    0    0  0.00000000000E+00  0.00000000000E+00  0.45593999997E+02  0.45594000000E+02  0.51100000000E-03 0.  1.
         11   -1    0    0    0    0 -0.00000000000E+00 -0.00000000000E+00 -0.45593999997E+02  0.45594000000E+02  0.51100000000E-03 0. -1.
    9900012    2    1    2    0    0 -0.91648930640E+01  0.30235908407E+02  0.43027219276E+01  0.59301971115E+02  0.50000049400E+02 0.  0.
        -12    1    1    2    0    0  0.91648930640E+01 -0.30235908407E+02 -0.43027219276E+01  0.31886028885E+02  0.00000000000E+00 0.  1.
         11    1    3    3    0    0  0.24010631542E+01  0.97634992789E+01 -0.55145628994E+01  0.11467407147E+02  0.51100000000E-03 0. -1.
        -11    1    3    3    0    0 -0.73255193856E+01  0.19016592160E+02  0.24855810256E+02  0.32141955687E+02  0.51100000000E-03 0.  1.
         12    1    3    3    0    0 -0.42404368326E+01  0.14558169683E+01 -0.15038525429E+02  0.15692608281E+02  0.00000000000E+00 0. -1.
</event>
<event>
 7    1  0.3528441E-013  0.5930196E+02  0.7816164E-02  0.1266605E+00
        -11   -1    0    0    0    0  0.00000000000E+00  0.00000000000E+00  0.45593999997E+02  0.45594000000E+02  0.51100000000E-03 0. -1.
         11   -1    0    0    0    0 -0.00000000000E+00 -0.00000000000E+00 -0.45593999997E+02  0.45594000000E+02  0.51100000000E-03 0.  1.
    9900012    2    1    2    0    0  0.28067379900E+02 -0.14030645842E+02  0.56641813497E+01  0.59301956226E+02  0.50000022246E+02 0.  0.
        -12    1    1    2    0    0 -0.28067379900E+02  0.14030645842E+02 -0.56641813497E+01  0.31886043774E+02  0.00000000000E+00 0.  1.
         11    1    3    3    0    0 -0.87756551026E+01 -0.49869649925E+01  0.89646947616E+00  0.10133390356E+02  0.51100000000E-03 0. -1.
        -11    1    3    3    0    0  0.12371504438E+02  0.16356695056E+01  0.15924020433E+02  0.20231262042E+02  0.51100000000E-03 0.  1.
        -12    1    3    3    0    0  0.24471530565E+02 -0.10679350355E+02 -0.11156308559E+02  0.28937303828E+02  0.00000000000E+00 0.  1.
</event>
<event>
 7    1  0.3528441E-013  0.5930194E+02  0.7816164E-02  0.1266605E+00
        -11   -1    0    0    0    0  0.00000000000E+00  0.00000000000E+00  0.45593999997E+02  0.45594000000E+02  0.51100000000E-03 0.  1.
         11   -1    0    0    0    0 -0.00000000000E+00 -0.00000000000E+00 -0.45593999997E+02  0.45594000000E+02  0.51100000000E-03 0. -1.
    9900012    2    1    2    0    0  0.51847945198E+01  0.17889723849E+02 -0.25880432874E+02  0.59301935342E+02  0.49999984160E+02 0.  0.
        -12    1    1    2    0    0 -0.51847945198E+01 -0.17889723849E+02  0.25880432874E+02  0.31886064658E+02  0.00000000000E+00 0.  1.
         11    1    3    3    0    0 -0.82466485852E+01  0.95820147803E+01 -0.32240445680E+02  0.34630457086E+02  0.51100000000E-03 0. -1.
        -11    1    3    3    0    0  0.14392774326E+02  0.57813209801E+01 -0.22265400253E+01  0.15669496030E+02  0.51100000000E-03 0.  1.
        -12    1    3    3    0    0 -0.96133122105E+00  0.25263880882E+01  0.85865528307E+01  0.90019822264E+01  0.00000000000E+00 0.  1.
</event>
<event>
 7    1  0.3528441E-013  0.5930199E+02  0.7816164E-02  0.1266605E+00
        -11   -1    0    0    0    0  0.00000000000E+00  0.00000000000E+00  0.45593999997E+02  0.45594000000E+02  0.51100000000E-03 0.  1.
         11   -1    0    0    0    0 -0.00000000000E+00 -0.00000000000E+00 -0.45593999997E+02  0.45594000000E+02  0.51100000000E-03 0. -1.
    9900012    2    1    2    0    0 -0.99115860555E+01  0.24899947239E+02 -0.17276298911E+02  0.59301993434E+02  0.50000090105E+02 0.  0.
        -12    1    1    2    0    0  0.99115860555E+01 -0.24899947239E+02  0.17276298911E+02  0.31886006566E+02  0.00000000000E+00 0.  1.
         11    1    3    3    0    0  0.88885122029E+01  0.12722336815E+02 -0.35680396884E+01  0.15924647898E+02  0.51100000000E-03 0. -1.
        -11    1    3    3    0    0 -0.90360833718E+00 -0.22792353973E+01 -0.19499832961E+02  0.19653368867E+02  0.51100000000E-03 0.  1.
        -12    1    3    3    0    0 -0.17896489921E+02  0.14456845822E+02  0.57915737385E+01  0.23723976669E+02  0.00000000000E+00 0.  1.
</event>
<event>
 7    1  0.3528441E-013  0.5930189E+02  0.7816164E-02  0.1266605E+00
        -11   -1    0    0    0    0  0.00000000000E+00  0.00000000000E+00  0.45593999997E+02  0.45594000000E+02  0.51100000000E-03 0.  1.
         11   -1    0    0    0    0 -0.00000000000E+00 -0.00000000000E+00 -0.45593999997E+02  0.45594000000E+02  0.51100000000E-03 0. -1.
    9900012    2    1    2    0    0  0.29843418668E+02 -0.50360632474E+01 -0.10036564869E+02  0.59301886954E+02  0.49999895911E+02 0.  0.
        -12    1    1    2    0    0 -0.29843418668E+02  0.50360632474E+01  0.10036564869E+02  0.31886113046E+02  0.00000000000E+00 0.  1.
         11    1    3    3    0    0  0.15544878884E+02  0.48889253271E+01  0.15385643263E+02  0.22411221949E+02  0.51100000000E-03 0. -1.
        -11    1    3    3    0    0 -0.16307108285E+00  0.29398645661E+01  0.18281418942E+01  0.34657609398E+01  0.51100000000E-03 0.  1.
         12    1    3    3    0    0  0.14461610866E+02 -0.12864853141E+02 -0.27250350026E+02  0.33424904065E+02  0.00000000000E+00 0. -1.
</event>
<event>
 7    1  0.3528441E-013  0.5930194E+02  0.7816164E-02  0.1266605E+00
        -11   -1    0    0    0    0  0.00000000000E+00  0.00000000000E+00  0.45593999997E+02  0.45594000000E+02  0.51100000000E-03 0.  1.
         11   -1    0    0    0    0 -0.00000000000E+00 -0.00000000000E+00 -0.45593999997E+02  0.45594000000E+02  0.51100000000E-03 0. -1.
    9900012    2    1    2    0    0  0.79060821881E+01 -0.68357528601E+01 -0.30124523222E+02  0.59301944237E+02  0.50000000382E+02 0.  0.
        -12    1    1    2    0    0 -0.79060821881E+01  0.68357528601E+01  0.30124523222E+02  0.31886055763E+02  0.00000000000E+00 0.  1.
         11    1    3    3    0    0  0.16679505215E+02 -0.13136179092E+02 -0.13220088528E+02  0.25010714430E+02  0.51100000000E-03 0. -1.
        -11    1    3    3    0    0 -0.43742247009E+01 -0.11062153262E+02 -0.60195885800E+01  0.13331936224E+02  0.51100000000E-03 0.  1.
        -12    1    3    3    0    0 -0.43991983262E+01  0.17362579494E+02 -0.10884846115E+02  0.20959293584E+02  0.00000000000E+00 0.  1.
</event>
<event>
 7    1  0.3528441E-013  0.5930194E+02  0.7816164E-02  0.1266605E+00
        -11   -1    0    0    0    0  0.00000000000E+00  0.00000000000E+00  0.45593999997E+02  0.45594000000E+02  0.51100000000E-03 0.  1.
         11   -1    0    0    0    0 -0.00000000000E+00 -0.00000000000E+00 -0.45593999997E+02  0.45594000000E+02  0.51100000000E-03 0. -1.
    9900012    2    1    2    0    0  0.23253080455E+02 -0.13101445150E+01 -0.21778397581E+02  0.59301939872E+02  0.49999992421E+02 0.  0.
        -12    1    1    2    0    0 -0.23253080455E+02  0.13101445150E+01  0.21778397581E+02  0.31886060128E+02  0.00000000000E+00 0.  1.
         11    1    3    3    0    0  0.77912732986E+01 -0.10337394188E+01  0.34268995873E+01  0.85741587250E+01  0.51100000000E-03 0. -1.
        -11    1    3    3    0    0  0.22590674481E+01 -0.19994661222E+02 -0.13797390071E+02  0.24397906389E+02  0.51100000000E-03 0.  1.
         12    1    3    3    0    0  0.13202739708E+02  0.19718256126E+02 -0.11407907097E+02  0.26329874758E+02  0.00000000000E+00 0. -1.
</event>
<event>
 7    1  0.3528441E-013  0.5930195E+02  0.7816164E-02  0.1266605E+00
        -11   -1    0    0    0    0  0.00000000000E+00  0.00000000000E+00  0.45593999997E+02  0.45594000000E+02  0.51100000000E-03 0.  1.
         11   -1    0    0    0    0 -0.00000000000E+00 -0.00000000000E+00 -0.45593999997E+02  0.45594000000E+02  0.51100000000E-03 0. -1.
    9900012    2    1    2    0    0 -0.82140880817E+01  0.14250039466E+02 -0.27316392164E+02  0.59301950564E+02  0.50000011921E+02 0.  0.
        -12    1    1    2    0    0  0.82140880817E+01 -0.14250039466E+02  0.27316392164E+02  0.31886049436E+02  0.00000000000E+00 0.  1.
         11    1    3    3    0    0 -0.10009692622E+02  0.74062597411E+01 -0.23599409685E+02  0.26682930264E+02  0.51100000000E-03 0. -1.
        -11    1    3    3    0    0 -0.64962080886E+01  0.17636524920E+02 -0.20026652220E+01  0.18901280355E+02  0.51100000000E-03 0.  1.
        -12    1    3    3    0    0  0.82918126292E+01 -0.10792745196E+02 -0.17143172565E+01  0.13717739945E+02  0.00000000000E+00 0.  1.
</event>
<event>
 7    1  0.3528441E-013  0.5930194E+02  0.7816164E-02  0.1266605E+00
        -11   -1    0    0    0    0  0.00000000000E+00  0.00000000000E+00  0.45593999997E+02  0.45594000000E+02  0.51100000000E-03 0.  1.
         11   -1    0    0    0    0 -0.00000000000E+00 -0.00000000000E+00 -0.45593999997E+02  0.45594000000E+02  0.51100000000E-03 0. -1.
    9900012    2    1    2    0    0 -0.20789219115E+02 -0.13779286734E+02 -0.19866069061E+02  0.59301936050E+02  0.49999985450E+02 0.  0.
        -12    1    1    2    0    0  0.20789219115E+02  0.13779286734E+02  0.19866069061E+02  0.31886063950E+02  0.00000000000E+00 0.  1.
         11    1    3    3    0    0 -0.14819665419E+02 -0.98765580291E+00 -0.13829595454E+02  0.20294227204E+02  0.51100000000E-03 0. -1.
        -11    1    3    3    0    0 -0.77915384589E+01 -0.21716563213E+02 -0.13932827276E+02  0.26952566956E+02  0.51100000000E-03 0.  1.
        -12    1    3    3    0    0  0.18219847629E+01  0.89249322820E+01  0.78963536694E+01  0.12055141890E+02  0.00000000000E+00 0.  1.
</event>
<event>
 7    1  0.3528441E-013  0.5930194E+02  0.7816164E-02  0.1266605E+00
        -11   -1    0    0    0    0  0.00000000000E+00  0.00000000000E+00  0.45593999997E+02  0.45594000000E+02  0.51100000000E-03 0. -1.
         11   -1    0    0    0    0 -0.00000000000E+00 -0.00000000000E+00 -0.45593999997E+02  0.45594000000E+02  0.51100000000E-03 0.  1.
    9900012    2    1    2    0    0 -0.29965787224E+02 -0.52658682020E+01  0.95416337420E+01  0.59301944328E+02  0.50000000547E+02 0.  0.
        -12    1    1    2    0    0  0.29965787224E+02  0.52658682020E+01 -0.95416337420E+01  0.31886055672E+02  0.00000000000E+00 0.  1.
         11    1    3    3    0    0  0.26603453751E+01 -0.50405816289E+01  0.70214173578E-01  0.56999851722E+01  0.51100000000E-03 0. -1.
        -11    1    3    3    0    0  0.97429658223E+01  0.26167468642E+01  0.37089507873E+01  0.10748444695E+02  0.51100000000E-03 0.  1.
         12    1    3    3    0    0 -0.42369098422E+02 -0.28420334373E+01  0.57624687811E+01  0.42853514460E+02  0.00000000000E+00 0. -1.
</event>
<event>
 7    1  0.3528441E-013  0.5930195E+02  0.7816164E-02  0.1266605E+00
        -11   -1    0    0    0    0  0.00000000000E+00  0.00000000000E+00  0.45593999997E+02  0.45594000000E+02  0.51100000000E-03 0.  1.
         11   -1    0    0    0    0 -0.00000000000E+00 -0.00000000000E+00 -0.45593999997E+02  0.45594000000E+02  0.51100000000E-03 0. -1.
    9900012    2    1    2    0    0  0.19535011456E+02  0.62089183619E+01 -0.24424426970E+02  0.59301953324E+02  0.50000016955E+02 0.  0.
        -12    1    1    2    0    0 -0.19535011456E+02 -0.62089183619E+01  0.24424426970E+02  0.31886046676E+02  0.00000000000E+00 0.  1.
         11    1    3    3    0    0 -0.44796439180E+01 -0.49655084969E+01 -0.10935750175E+02  0.12818506794E+02  0.51100000000E-03 0. -1.
        -11    1    3    3    0    0  0.14804829443E+02 -0.11852913355E+02 -0.17523603590E+01  0.19045873488E+02  0.51100000000E-03 0.  1.
        -12    1    3    3    0    0  0.92098259311E+01  0.23027340214E+02 -0.11736316435E+02  0.27437573043E+02  0.00000000000E+00 0.  1.
</event>
<event>
 7    1  0.3528441E-013  0.5930192E+02  0.7816164E-02  0.1266605E+00
        -11   -1    0    0    0    0  0.00000000000E+00  0.00000000000E+00  0.45593999997E+02  0.45594000000E+02  0.51100000000E-03 0.  1.
         11   -1    0    0    0    0 -0.00000000000E+00 -0.00000000000E+00 -0.45593999997E+02  0.45594000000E+02  0.51100000000E-03 0. -1.
    9900012    2    1    2    0    0 -0.42502224408E+01 -0.24914341531E+02 -0.19440508439E+02  0.59301918818E+02  0.49999954024E+02 0.  0.
        -12    1    1    2    0    0  0.42502224408E+01  0.24914341531E+02  0.19440508439E+02  0.31886081182E+02  0.00000000000E+00 0.  1.
         11    1    3    3    0    0  0.76763531572E+01  0.50002192192E+01 -0.94350713951E+00  0.92097120486E+01  0.51100000000E-03 0. -1.
        -11    1    3    3    0    0 -0.20548105897E+02 -0.73453164011E+01 -0.48851388966E+01  0.22361639280E+02  0.51100000000E-03 0.  1.
         12    1    3    3    0    0  0.86215302992E+01 -0.22569244349E+02 -0.13611862403E+02  0.27730567490E+02  0.00000000000E+00 0. -1.
</event>
<event>
 7    1  0.3528441E-013  0.5930195E+02  0.7816164E-02  0.1266605E+00
        -11   -1    0    0    0    0  0.00000000000E+00  0.00000000000E+00  0.45593999997E+02  0.45594000000E+02  0.51100000000E-03 0. -1.
         11   -1    0    0    0    0 -0.00000000000E+00 -0.00000000000E+00 -0.45593999997E+02  0.45594000000E+02  0.51100000000E-03 0.  1.
    9900012    2    1    2    0    0  0.87063858853E+01  0.24351620847E+02  0.18652556442E+02  0.59301945762E+02  0.50000003162E+02 0.  0.
        -12    1    1    2    0    0 -0.87063858853E+01 -0.24351620847E+02 -0.18652556442E+02  0.31886054238E+02  0.00000000000E+00 0.  1.
         11    1    3    3    0    0  0.15485641105E+02  0.12349663820E+02  0.96240128110E+01  0.22021373702E+02  0.51100000000E-03 0. -1.
        -11    1    3    3    0    0 -0.37323559831E+01  0.11553890195E+02  0.21360340063E+02  0.24570042484E+02  0.51100000000E-03 0.  1.
        -12    1    3    3    0    0 -0.30468992361E+01  0.44806683251E+00 -0.12331796432E+02  0.12710529575E+02  0.00000000000E+00 0.  1.
</event>
<event>
 7    1  0.3528441E-013  0.5930195E+02  0.7816164E-02  0.1266605E+00
        -11   -1    0    0    0    0  0.00000000000E+00  0.00000000000E+00  0.45593999997E+02  0.45594000000E+02  0.51100000000E-03 0.  1.
         11   -1    0    0    0    0 -0.00000000000E+00 -0.00000000000E+00 -0.45593999997E+02  0.45594000000E+02  0.51100000000E-03 0. -1.
    9900012    2    1    2    0    0  0.74564545952E+01  0.65247159667E+01 -0.30307581642E+02  0.59301950722E+02  0.50000012209E+02 0.  0.
        -12    1    1    2    0    0 -0.74564545952E+01 -0.65247159667E+01  0.30307581642E+02  0.31886049278E+02  0.00000000000E+00 0.  1.
         11    1    3    3    0    0  0.13878734534E+02 -0.42547092673E+01 -0.11497129410E+02  0.18517716062E+02  0.51100000000E-03 0. -1.
        -11    1    3    3    0    0  0.65638266423E+01  0.31551314152E+01  0.75094323672E+01  0.10460891414E+02  0.51100000000E-03 0.  1.
        -12    1    3    3    0    0 -0.12986106581E+02  0.76242938188E+01 -0.26319884598E+02  0.30323343246E+02  0.00000000000E+00 0.  1.
</event>
<event>
 7    1  0.3528441E-013  0.5930206E+02  0.7816164E-02  0.1266604E+00
        -11   -1    0    0    0    0  0.00000000000E+00  0.00000000000E+00  0.45593999997E+02  0.45594000000E+02  0.51100000000E-03 0.  1.
         11   -1    0    0    0    0 -0.00000000000E+00 -0.00000000000E+00 -0.45593999997E+02  0.45594000000E+02  0.51100000000E-03 0. -1.
    9900012    2    1    2    0    0 -0.21353138423E+02  0.18734121950E+02 -0.14484104757E+02  0.59302060522E+02  0.50000212458E+02 0.  0.
        -12    1    1    2    0    0  0.21353138423E+02 -0.18734121950E+02  0.14484104757E+02  0.31885939478E+02  0.00000000000E+00 0.  1.
         11    1    3    3    0    0  0.10551841692E+02  0.86600983990E+01  0.16794197729E+01  0.13753512948E+02  0.51100000000E-03 0.  1.
        -11    1    3    3    0    0 -0.84672488269E+01  0.16175847814E+02 -0.85525736858E+01  0.20161817182E+02  0.51100000000E-03 0. -1.
         12    1    3    3    0    0 -0.23437731288E+02 -0.61018242628E+01 -0.76109508443E+01  0.25386730392E+02  0.00000000000E+00 0. -1.
</event>
<event>
 7    1  0.3528441E-013  0.5930189E+02  0.7816164E-02  0.1266605E+00
        -11   -1    0    0    0    0  0.00000000000E+00  0.00000000000E+00  0.45593999997E+02  0.45594000000E+02  0.51100000000E-03 0.  1.
         11   -1    0    0    0    0 -0.00000000000E+00 -0.00000000000E+00 -0.45593999997E+02  0.45594000000E+02  0.51100000000E-03 0. -1.
    9900012    2    1    2    0    0 -0.30058255127E+02 -0.71695786633E+01 -0.78627302465E+01  0.59301888816E+02  0.49999899307E+02 0.  0.
        -12    1    1    2    0    0  0.30058255127E+02  0.71695786633E+01  0.78627302465E+01  0.31886111184E+02  0.00000000000E+00 0.  1.
         11    1    3    3    0    0 -0.22761636548E+02 -0.16080685192E+02 -0.14319590754E+02  0.31332590288E+02  0.51100000000E-03 0. -1.
        -11    1    3    3    0    0 -0.12596227059E+02  0.93350140945E+01 -0.40508904861E+01  0.16193120090E+02  0.51100000000E-03 0.  1.
         12    1    3    3    0    0  0.52996084797E+01 -0.42390756626E+00  0.10507750993E+02  0.11776178438E+02  0.00000000000E+00 0. -1.
</event>
<event>
 7    1  0.3528441E-013  0.5930195E+02  0.7816164E-02  0.1266605E+00
        -11   -1    0    0    0    0  0.00000000000E+00  0.00000000000E+00  0.45593999997E+02  0.45594000000E+02  0.51100000000E-03 0. -1.
         11   -1    0    0    0    0 -0.00000000000E+00 -0.00000000000E+00 -0.45593999997E+02  0.45594000000E+02  0.51100000000E-03 0.  1.
    9900012    2    1    2    0    0  0.28862654981E+01 -0.30585390043E+02  0.85395246488E+01  0.59301951423E+02  0.50000013487E+02 0.  0.
        -12    1    1    2    0    0 -0.28862654981E+01  0.30585390043E+02 -0.85395246488E+01  0.31886048577E+02  0.00000000000E+00 0.  1.
         11    1    3    3    0    0 -0.14843725414E+01 -0.22383588739E+02 -0.12902728727E+02  0.25878732881E+02  0.51100000000E-03 0. -1.
        -11    1    3    3    0    0  0.53374696002E+00 -0.87028486978E+01 -0.25787530260E+01  0.90925479765E+01  0.51100000000E-03 0.  1.
        -12    1    3    3    0    0  0.38368910795E+01  0.50104739299E+00  0.24021006401E+02  0.24330670566E+02  0.00000000000E+00 0.  1.
</event>
<event>
 7    1  0.3528441E-013  0.5930194E+02  0.7816164E-02  0.1266605E+00
        -11   -1    0    0    0    0  0.00000000000E+00  0.00000000000E+00  0.45593999997E+02  0.45594000000E+02  0.51100000000E-03 0.  1.
         11   -1    0    0    0    0 -0.00000000000E+00 -0.00000000000E+00 -0.45593999997E+02  0.45594000000E+02  0.51100000000E-03 0. -1.
    9900012    2    1    2    0    0  0.15845292425E+02  0.20996390850E+02 -0.18022179156E+02  0.59301942509E+02  0.49999997231E+02 0.  0.
        -12    1    1    2    0    0 -0.15845292425E+02 -0.20996390850E+02  0.18022179156E+02  0.31886057491E+02  0.00000000000E+00 0.  1.
         11    1    3    3    0    0  0.13740606086E+02  0.97881456760E+01 -0.18425161493E+02  0.24981966049E+02  0.51100000000E-03 0. -1.
        -11    1    3    3    0    0  0.13137288627E+02  0.10136277712E+02  0.10241217331E+02  0.19499102826E+02  0.51100000000E-03 0.  1.
         12    1    3    3    0    0 -0.11032602287E+02  0.10719674616E+01 -0.98382349951E+01  0.14820873634E+02  0.00000000000E+00 0. -1.
</event>
<event>
 7    1  0.3528441E-013  0.5930202E+02  0.7816164E-02  0.1266605E+00
        -11   -1    0    0    0    0  0.00000000000E+00  0.00000000000E+00  0.45593999997E+02  0.45594000000E+02  0.51100000000E-03 0.  1.
         11   -1    0    0    0    0 -0.00000000000E+00 -0.00000000000E+00 -0.45593999997E+02  0.45594000000E+02  0.51100000000E-03 0. -1.
    9900012    2    1    2    0    0 -0.96840547409E+01 -0.35567962668E+00 -0.30377764746E+02  0.59302015380E+02  0.50000130129E+02 0.  0.
        -12    1    1    2    0    0  0.96840547409E+01  0.35567962668E+00  0.30377764746E+02  0.31885984620E+02  0.00000000000E+00 0.  1.
         11    1    3    3    0    0 -0.27142316949E+01 -0.14777724809E+02 -0.15553145268E+02  0.21625182825E+02  0.51100000000E-03 0. -1.
        -11    1    3    3    0    0  0.57246647622E+01  0.25179433986E+01  0.72452133003E+01  0.95710470497E+01  0.51100000000E-03 0.  1.
         12    1    3    3    0    0 -0.12694487808E+02  0.11904101784E+02 -0.22069832778E+02  0.28105785505E+02  0.00000000000E+00 0. -1.
</event>
<event>
 7    1  0.3528441E-013  0.5930178E+02  0.7816164E-02  0.1266605E+00
        -11   -1    0    0    0    0  0.00000000000E+00  0.00000000000E+00  0.45593999997E+02  0.45594000000E+02  0.51100000000E-03 0.  1.
         11   -1    0    0    0    0 -0.00000000000E+00 -0.00000000000E+00 -0.45593999997E+02  0.45594000000E+02  0.51100000000E-03 0. -1.
    9900012    2    1    2    0    0  0.19720251928E+02  0.13743500951E+01 -0.25019068239E+02  0.59301781192E+02  0.49999703027E+02 0.  0.
        -12    1    1    2    0    0 -0.19720251928E+02 -0.13743500951E+01  0.25019068239E+02  0.31886218808E+02  0.00000000000E+00 0.  1.
         11    1    3    3    0    0 -0.85113156868E+01  0.60301187398E+01 -0.64484688877E+01  0.12263261312E+02  0.51100000000E-03 0. -1.
        -11    1    3    3    0    0  0.23995160450E+02  0.10888064327E+02 -0.15704128724E+02  0.30674701776E+02  0.51100000000E-03 0.  1.
        -12    1    3    3    0    0  0.42364071641E+01 -0.15543832971E+02 -0.28664706273E+01  0.16363818104E+02  0.00000000000E+00 0.  1.
</event>
<event>
 7    1  0.3528441E-013  0.5930183E+02  0.7816164E-02  0.1266605E+00
        -11   -1    0    0    0    0  0.00000000000E+00  0.00000000000E+00  0.45593999997E+02  0.45594000000E+02  0.51100000000E-03 0.  1.
         11   -1    0    0    0    0 -0.00000000000E+00 -0.00000000000E+00 -0.45593999997E+02  0.45594000000E+02  0.51100000000E-03 0. -1.
    9900012    2    1    2    0    0  0.12038890518E+02 -0.95145255545E+01 -0.27951151899E+02  0.59301827857E+02  0.49999788132E+02 0.  0.
        -12    1    1    2    0    0 -0.12038890518E+02  0.95145255545E+01  0.27951151899E+02  0.31886172143E+02  0.00000000000E+00 0.  1.
         11    1    3    3    0    0  0.79218641456E+00 -0.16750925547E+02 -0.63557738337E+01  0.17933681365E+02  0.51100000000E-03 0. -1.
        -11    1    3    3    0    0  0.10385617818E+02 -0.67952977807E+01 -0.24081778337E+02  0.27091865523E+02  0.51100000000E-03 0.  1.
        -12    1    3    3    0    0  0.86108628556E+00  0.14031697774E+02  0.24864002713E+01  0.14276280969E+02  0.00000000000E+00 0.  1.
</event>
<event>
 7    1  0.3528441E-013  0.5930194E+02  0.7816164E-02  0.1266605E+00
        -11   -1    0    0    0    0  0.00000000000E+00  0.00000000000E+00  0.45593999997E+02  0.45594000000E+02  0.51100000000E-03 0. -1.
         11   -1    0    0    0    0 -0.00000000000E+00 -0.00000000000E+00 -0.45593999997E+02  0.45594000000E+02  0.51100000000E-03 0.  1.
    9900012    2    1    2    0    0 -0.29530479056E+02  0.96214556513E+01 -0.72179739579E+01  0.59301941132E+02  0.49999994718E+02 0.  0.
        -12    1    1    2    0    0  0.29530479056E+02 -0.96214556513E+01  0.72179739579E+01  0.31886058868E+02  0.00000000000E+00 0.  1.
         11    1    3    3    0    0 -0.18220807782E+02 -0.12520188635E+02  0.47660272305E+01  0.22615657751E+02  0.51100000000E-03 0. -1.
        -11    1    3    3    0    0 -0.11549548612E+02  0.10712975292E+01 -0.10359886967E+02  0.15552074131E+02  0.51100000000E-03 0.  1.
        -12    1    3    3    0    0  0.23987733848E+00  0.21070346757E+02 -0.16241142213E+01  0.21134209250E+02  0.00000000000E+00 0.  1.
</event>
<event>
 7    1  0.3528441E-013  0.5930193E+02  0.7816164E-02  0.1266605E+00
        -11   -1    0    0    0    0  0.00000000000E+00  0.00000000000E+00  0.45593999997E+02  0.45594000000E+02  0.51100000000E-03 0.  1.
         11   -1    0    0    0    0 -0.00000000000E+00 -0.00000000000E+00 -0.45593999997E+02  0.45594000000E+02  0.51100000000E-03 0. -1.
    9900012    2    1    2    0    0  0.31367166574E+02  0.19122858195E+00 -0.57258919643E+01  0.59301928652E+02  0.49999971958E+02 0.  0.
        -12    1    1    2    0    0 -0.31367166574E+02 -0.19122858195E+00  0.57258919643E+01  0.31886071348E+02  0.00000000000E+00 0.  1.
         11    1    3    3    0    0  0.24607422859E+01  0.73493300370E+00 -0.95017737856E+01  0.98427173306E+01  0.51100000000E-03 0. -1.
        -11    1    3    3    0    0 -0.57331267478E+01  0.59944757549E+01 -0.87424468475E+01  0.12051259645E+02  0.51100000000E-03 0.  1.
        -12    1    3    3    0    0  0.34639551036E+02 -0.65381801766E+01  0.12518328669E+02  0.37407951676E+02  0.00000000000E+00 0.  1.
</event>
<event>
 7    1  0.3528441E-013  0.5930196E+02  0.7816164E-02  0.1266605E+00
        -11   -1    0    0    0    0  0.00000000000E+00  0.00000000000E+00  0.45593999997E+02  0.45594000000E+02  0.51100000000E-03 0. -1.
         11   -1    0    0    0    0 -0.00000000000E+00 -0.00000000000E+00 -0.45593999997E+02  0.45594000000E+02  0.51100000000E-03 0.  1.
    9900012    2    1    2    0    0  0.52516053584E+01 -0.29957533195E+02  0.95752868527E+01  0.59301964306E+02  0.50000036983E+02 0.  0.
        -12    1    1    2    0    0 -0.52516053584E+01  0.29957533195E+02 -0.95752868527E+01  0.31886035694E+02  0.00000000000E+00 0.  1.
         11    1    3    3    0    0 -0.85443609519E+00 -0.14700215514E+02 -0.37776335831E+00  0.14729871099E+02  0.51100000000E-03 0. -1.
        -11    1    3    3    0    0 -0.46515922081E+01  0.26339159011E+01 -0.12692378241E+02  0.13772119979E+02  0.51100000000E-03 0.  1.
        -12    1    3    3    0    0  0.10757633662E+02 -0.17891233582E+02  0.22645428452E+02  0.30799973228E+02  0.00000000000E+00 0.  1.
</event>
<event>
 7    1  0.3528441E-013  0.5930195E+02  0.7816164E-02  0.1266605E+00
        -11   -1    0    0    0    0  0.00000000000E+00  0.00000000000E+00  0.45593999997E+02  0.45594000000E+02  0.51100000000E-03 0.  1.
         11   -1    0    0    0    0 -0.00000000000E+00 -0.00000000000E+00 -0.45593999997E+02  0.45594000000E+02  0.51100000000E-03 0. -1.
    9900012    2    1    2    0    0 -0.67446609127E+01  0.71499242863E+01 -0.30333285716E+02  0.59301951476E+02  0.50000013584E+02 0.  0.
        -12    1    1    2    0    0  0.67446609127E+01 -0.71499242863E+01  0.30333285716E+02  0.31886048524E+02  0.00000000000E+00 0.  1.
         11    1    3    3    0    0  0.15058779459E+01 -0.44761590867E+01 -0.41160926894E+01  0.62646538489E+01  0.51100000000E-03 0. -1.
        -11    1    3    3    0    0  0.13453635369E+02  0.44230975233E+01 -0.26634216133E+02  0.30165304004E+02  0.51100000000E-03 0.  1.
         12    1    3    3    0    0 -0.21704174227E+02  0.72029858497E+01  0.41702310617E+00  0.22871993624E+02  0.00000000000E+00 0. -1.
</event>
<event>
 7    1  0.3528441E-013  0.5930193E+02  0.7816164E-02  0.1266605E+00
        -11   -1    0    0    0    0  0.00000000000E+00  0.00000000000E+00  0.45593999997E+02  0.45594000000E+02  0.51100000000E-03 0.  1.
         11   -1    0    0    0    0 -0.00000000000E+00 -0.00000000000E+00 -0.45593999997E+02  0.45594000000E+02  0.51100000000E-03 0. -1.
    9900012    2    1    2    0    0  0.19748820569E+02  0.25033961583E+02 -0.79977018626E-01  0.59301928704E+02  0.49999972052E+02 0.  0.
        -12    1    1    2    0    0 -0.19748820569E+02 -0.25033961583E+02  0.79977018626E-01  0.31886071296E+02  0.00000000000E+00 0.  1.
         11    1    3    3    0    0  0.11174165367E+02  0.63002420210E+00 -0.11628147352E+01  0.11252157149E+02  0.51100000000E-03 0. -1.
        -11    1    3    3    0    0 -0.18375420101E+00  0.85043240492E+01  0.20059855704E+02  0.21788875700E+02  0.51100000000E-03 0.  1.
         12    1    3    3    0    0  0.87584094033E+01  0.15899613332E+02 -0.18977017988E+02  0.26260895854E+02  0.00000000000E+00 0. -1.
</event>
<event>
 7    1  0.3528441E-013  0.5930193E+02  0.7816164E-02  0.1266605E+00
        -11   -1    0    0    0    0  0.00000000000E+00  0.00000000000E+00  0.45593999997E+02  0.45594000000E+02  0.51100000000E-03 0.  1.
         11   -1    0    0    0    0 -0.00000000000E+00 -0.00000000000E+00 -0.45593999997E+02  0.45594000000E+02  0.51100000000E-03 0. -1.
    9900012    2    1    2    0    0  0.29795086642E+01  0.14076136966E+02 -0.28455340642E+02  0.59301929141E+02  0.49999972850E+02 0.  0.
        -12    1    1    2    0    0 -0.29795086642E+01 -0.14076136966E+02  0.28455340642E+02  0.31886070859E+02  0.00000000000E+00 0.  1.
         11    1    3    3    0    0  0.12254659754E+02  0.12255411112E+02 -0.23040451915E+02  0.28831132686E+02  0.51100000000E-03 0. -1.
        -11    1    3    3    0    0 -0.33293086500E+01 -0.10209219447E+02 -0.11502031705E+02  0.15735602670E+02  0.51100000000E-03 0.  1.
        -12    1    3    3    0    0 -0.59458424399E+01  0.12029945300E+02  0.60871429780E+01  0.14735193785E+02  0.00000000000E+00 0.  1.
</event>
<event>
 7    1  0.3528441E-013  0.5930194E+02  0.7816164E-02  0.1266605E+00
        -11   -1    0    0    0    0  0.00000000000E+00  0.00000000000E+00  0.45593999997E+02  0.45594000000E+02  0.51100000000E-03 0.  1.
         11   -1    0    0    0    0 -0.00000000000E+00 -0.00000000000E+00 -0.45593999997E+02  0.45594000000E+02  0.51100000000E-03 0. -1.
    9900012    2    1    2    0    0 -0.79655789802E+01 -0.12282282237E+02 -0.28326941385E+02  0.59301944840E+02  0.50000001481E+02 0.  0.
        -12    1    1    2    0    0  0.79655789802E+01  0.12282282237E+02  0.28326941385E+02  0.31886055160E+02  0.00000000000E+00 0.  1.
         11    1    3    3    0    0 -0.24900133089E+01 -0.52382013925E+00 -0.28181681536E+02  0.28296320049E+02  0.51100000000E-03 0. -1.
        -11    1    3    3    0    0  0.52674501110E+01  0.67919139820E+01 -0.35516931595E+01  0.93000349876E+01  0.51100000000E-03 0.  1.
        -12    1    3    3    0    0 -0.10743015782E+02 -0.18550376080E+02  0.34064333107E+01  0.21705589803E+02  0.00000000000E+00 0.  1.
</event>
<event>
 7    1  0.3528441E-013  0.5930195E+02  0.7816164E-02  0.1266605E+00
        -11   -1    0    0    0    0  0.00000000000E+00  0.00000000000E+00  0.45593999997E+02  0.45594000000E+02  0.51100000000E-03 0. -1.
         11   -1    0    0    0    0 -0.00000000000E+00 -0.00000000000E+00 -0.45593999997E+02  0.45594000000E+02  0.51100000000E-03 0.  1.
    9900012    2    1    2    0    0 -0.25170949103E+01  0.31325150546E+02  0.53962251591E+01  0.59301951805E+02  0.50000014184E+02 0.  0.
        -12    1    1    2    0    0  0.25170949103E+01 -0.31325150546E+02 -0.53962251591E+01  0.31886048195E+02  0.00000000000E+00 0.  1.
         11    1    3    3    0    0 -0.20950036819E+02  0.14698636823E+02 -0.11027702821E+01  0.25615816788E+02  0.51100000000E-03 0. -1.
        -11    1    3    3    0    0 -0.39417772124E-02  0.20553051913E+01 -0.65094080637E+01  0.68261767168E+01  0.51100000000E-03 0.  1.
        -12    1    3    3    0    0  0.18436883686E+02  0.14571208532E+02  0.13008403505E+02  0.26859958300E+02  0.00000000000E+00 0.  1.
</event>
<event>
 7    1  0.3528441E-013  0.5930194E+02  0.7816164E-02  0.1266605E+00
        -11   -1    0    0    0    0  0.00000000000E+00  0.00000000000E+00  0.45593999997E+02  0.45594000000E+02  0.51100000000E-03 0. -1.
         11   -1    0    0    0    0 -0.00000000000E+00 -0.00000000000E+00 -0.45593999997E+02  0.45594000000E+02  0.51100000000E-03 0.  1.
    9900012    2    1    2    0    0 -0.31098431374E+02 -0.12511748857E+01  0.69313046380E+01  0.59301939464E+02  0.49999991677E+02 0.  0.
        -12    1    1    2    0    0  0.31098431374E+02  0.12511748857E+01 -0.69313046380E+01  0.31886060536E+02  0.00000000000E+00 0.  1.
         11    1    3    3    0    0 -0.14818028886E+02  0.13576176063E+01  0.21628027625E+02  0.26252403411E+02  0.51100000000E-03 0. -1.
        -11    1    3    3    0    0  0.18775852771E+00  0.88967946131E+01 -0.15284600846E+01  0.90290862297E+01  0.51100000000E-03 0.  1.
         12    1    3    3    0    0 -0.16468161015E+02 -0.11505587105E+02 -0.13168262903E+02  0.24020449823E+02  0.00000000000E+00 0. -1.
</event>
<event>
 7    1  0.3528441E-013  0.5930193E+02  0.7816164E-02  0.1266605E+00
        -11   -1    0    0    0    0  0.00000000000E+00  0.00000000000E+00  0.45593999997E+02  0.45594000000E+02  0.51100000000E-03 0.  1.
         11   -1    0    0    0    0 -0.00000000000E+00 -0.00000000000E+00 -0.45593999997E+02  0.45594000000E+02  0.51100000000E-03 0. -1.
    9900012    2    1    2    0    0 -0.70841972212E+01  0.42388040282E+01  0.30798834298E+02  0.59301929311E+02  0.49999973160E+02 0.  0.
        -12    1    1    2    0    0  0.70841972212E+01 -0.42388040282E+01 -0.30798834298E+02  0.31886070689E+02  0.00000000000E+00 0.  1.
         11    1    3    3    0    0  0.96383917677E+01  0.20514509191E+02  0.14279131282E+02  0.26788752745E+02  0.51100000000E-03 0. -1.
        -11    1    3    3    0    0  0.14323526323E+01  0.15451659200E+01  0.31071673934E+01  0.37541525350E+01  0.51100000000E-03 0.  1.
        -12    1    3    3    0    0 -0.18154941621E+02 -0.17820871082E+02  0.13412535623E+02  0.28759024031E+02  0.00000000000E+00 0.  1.
</event>
<event>
 7    1  0.3528441E-013  0.5930195E+02  0.7816164E-02  0.1266605E+00
        -11   -1    0    0    0    0  0.00000000000E+00  0.00000000000E+00  0.45593999997E+02  0.45594000000E+02  0.51100000000E-03 0. -1.
         11   -1    0    0    0    0 -0.00000000000E+00 -0.00000000000E+00 -0.45593999997E+02  0.45594000000E+02  0.51100000000E-03 0.  1.
    9900012    2    1    2    0    0  0.17665990220E+02  0.25621697686E+02  0.69398581189E+01  0.59301949234E+02  0.50000009494E+02 0.  0.
        -12    1    1    2    0    0 -0.17665990220E+02 -0.25621697686E+02 -0.69398581189E+01  0.31886050766E+02  0.00000000000E+00 0.  1.
         11    1    3    3    0    0 -0.43885513158E+01 -0.84406453312E+01  0.96030800686E+01  0.13517508029E+02  0.51100000000E-03 0. -1.
        -11    1    3    3    0    0 -0.29634255133E+01  0.59138825195E+01 -0.46291339979E+01  0.80737091265E+01  0.51100000000E-03 0.  1.
        -12    1    3    3    0    0  0.25017967049E+02  0.28148460498E+02  0.19659120481E+01  0.37710732078E+02  0.00000000000E+00 0.  1.
</event>
<event>
 7    1  0.3528441E-013  0.5930192E+02  0.7816164E-02  0.1266605E+00
        -11   -1    0    0    0    0  0.00000000000E+00  0.00000000000E+00  0.45593999997E+02  0.45594000000E+02  0.51100000000E-03 0.  1.
         11   -1    0    0    0    0 -0.00000000000E+00 -0.00000000000E+00 -0.45593999997E+02  0.45594000000E+02  0.51100000000E-03 0. -1.
    9900012    2    1    2    0    0 -0.32048756320E+01 -0.13802400749E+01 -0.31694567121E+02  0.59301923486E+02  0.49999962536E+02 0.  0.
        -12    1    1    2    0    0  0.32048756320E+01  0.13802400749E+01  0.31694567121E+02  0.31886076514E+02  0.00000000000E+00 0.  1.
         11    1    3    3    0    0 -0.53999108881E+01 -0.29938605228E+01  0.68960052110E+01  0.92561939565E+01  0.51100000000E-03 0. -1.
        -11    1    3    3    0    0 -0.12631615089E+02  0.68112178868E+01 -0.26806590038E+02  0.30406309520E+02  0.51100000000E-03 0.  1.
         12    1    3    3    0    0  0.14826650346E+02 -0.51975974390E+01 -0.11783982294E+02  0.19639420010E+02  0.00000000000E+00 0. -1.
</event>
<event>
 7    1  0.3528441E-013  0.5930196E+02  0.7816164E-02  0.1266605E+00
        -11   -1    0    0    0    0  0.00000000000E+00  0.00000000000E+00  0.45593999997E+02  0.45594000000E+02  0.51100000000E-03 0.  1.
         11   -1    0    0    0    0 -0.00000000000E+00 -0.00000000000E+00 -0.45593999997E+02  0.45594000000E+02  0.51100000000E-03 0. -1.
    9900012    2    1    2    0    0  0.61901256209E+01  0.23898048967E+02 -0.20181302241E+02  0.59301962934E+02  0.50000034481E+02 0.  0.
        -12    1    1    2    0    0 -0.61901256209E+01 -0.23898048967E+02  0.20181302241E+02  0.31886037066E+02  0.00000000000E+00 0.  1.
         11    1    3    3    0    0  0.96260985102E+01  0.28033390337E+02 -0.27970627625E+01  0.29771736709E+02  0.51100000000E-03 0. -1.
        -11    1    3    3    0    0 -0.49597092113E+01  0.65372257180E+01  0.95071496722E+00  0.82606231459E+01  0.51100000000E-03 0.  1.
         12    1    3    3    0    0  0.15237363220E+01 -0.10672567088E+02 -0.18334954446E+02  0.21269603079E+02  0.00000000000E+00 0. -1.
</event>
<event>
 7    1  0.3528441E-013  0.5930196E+02  0.7816164E-02  0.1266605E+00
        -11   -1    0    0    0    0  0.00000000000E+00  0.00000000000E+00  0.45593999997E+02  0.45594000000E+02  0.51100000000E-03 0. -1.
         11   -1    0    0    0    0 -0.00000000000E+00 -0.00000000000E+00 -0.45593999997E+02  0.45594000000E+02  0.51100000000E-03 0.  1.
    9900012    2    1    2    0    0 -0.25991255690E+02  0.18331038354E+02  0.22686886535E+01  0.59301964064E+02  0.50000036542E+02 0.  0.
        -12    1    1    2    0    0  0.25991255690E+02 -0.18331038354E+02 -0.22686886535E+01  0.31886035936E+02  0.00000000000E+00 0.  1.
         11    1    3    3    0    0 -0.14662114628E+02  0.41298212441E+01  0.50741126893E+01  0.16055517703E+02  0.51100000000E-03 0. -1.
        -11    1    3    3    0    0 -0.14346781871E+02 -0.99045828836E+00  0.14223976160E+02  0.20227027852E+02  0.51100000000E-03 0.  1.
        -12    1    3    3    0    0  0.30176408079E+01  0.15191675398E+02 -0.17029400196E+02  0.23019418509E+02  0.00000000000E+00 0.  1.
</event>
<event>
 7    1  0.3528441E-013  0.5930178E+02  0.7816164E-02  0.1266605E+00
        -11   -1    0    0    0    0  0.00000000000E+00  0.00000000000E+00  0.45593999997E+02  0.45594000000E+02  0.51100000000E-03 0. -1.
         11   -1    0    0    0    0 -0.00000000000E+00 -0.00000000000E+00 -0.45593999997E+02  0.45594000000E+02  0.51100000000E-03 0.  1.
    9900012    2    1    2    0    0  0.33649294370E+01 -0.11755885182E+02  0.29448385552E+02  0.59301780435E+02  0.49999701646E+02 0.  0.
        -12    1    1    2    0    0 -0.33649294370E+01  0.11755885182E+02 -0.29448385552E+02  0.31886219565E+02  0.00000000000E+00 0.  1.
         11    1    3    3    0    0 -0.19790356943E+02 -0.57160957034E+01  0.22404504887E+02  0.30435075447E+02  0.51100000000E-03 0. -1.
        -11    1    3    3    0    0  0.19185543453E+00 -0.10161905194E+01  0.51846592901E+01  0.52867895641E+01  0.51100000000E-03 0.  1.
        -12    1    3    3    0    0  0.22963430945E+02 -0.50235989597E+01  0.18592213747E+01  0.23579915424E+02  0.00000000000E+00 0.  1.
</event>
<event>
 7    1  0.3528441E-013  0.5930175E+02  0.7816164E-02  0.1266605E+00
        -11   -1    0    0    0    0  0.00000000000E+00  0.00000000000E+00  0.45593999997E+02  0.45594000000E+02  0.51100000000E-03 0.  1.
         11   -1    0    0    0    0 -0.00000000000E+00 -0.00000000000E+00 -0.45593999997E+02  0.45594000000E+02  0.51100000000E-03 0. -1.
    9900012    2    1    2    0    0 -0.67513414623E+01 -0.26950634289E+02 -0.15646577156E+02  0.59301754112E+02  0.49999653639E+02 0.  0.
        -12    1    1    2    0    0  0.67513414623E+01  0.26950634289E+02  0.15646577156E+02  0.31886245888E+02  0.00000000000E+00 0.  1.
         11    1    3    3    0    0 -0.11322745947E+02 -0.11715221589E+02 -0.21104796742E+02  0.26662022400E+02  0.51100000000E-03 0. -1.
        -11    1    3    3    0    0  0.37670163489E+01 -0.23149051411E+02  0.89774087885E+00  0.23470725007E+02  0.51100000000E-03 0.  1.
        -12    1    3    3    0    0  0.80438813611E+00  0.79136387110E+01  0.45604787078E+01  0.91690067055E+01  0.00000000000E+00 0.  1.
</event>
<event>
 7    1  0.3528441E-013  0.5930193E+02  0.7816164E-02  0.1266605E+00
        -11   -1    0    0    0    0  0.00000000000E+00  0.00000000000E+00  0.45593999997E+02  0.45594000000E+02  0.51100000000E-03 0. -1.
         11   -1    0    0    0    0 -0.00000000000E+00 -0.00000000000E+00 -0.45593999997E+02  0.45594000000E+02  0.51100000000E-03 0.  1.
    9900012    2    1    2    0    0 -0.41639174089E+01  0.29480094012E+02  0.11415235017E+02  0.59301925584E+02  0.49999966363E+02 0.  0.
        -12    1    1    2    0    0  0.41639174089E+01 -0.29480094012E+02 -0.11415235017E+02  0.31886074416E+02  0.00000000000E+00 0.  1.
         11    1    3    3    0    0  0.10923829388E+01  0.22139639031E+00  0.36754335998E+01  0.38407198875E+01  0.51100000000E-03 0. -1.
        -11    1    3    3    0    0  0.16954486150E+02  0.27284805684E+02  0.89474467200E+00  0.32135895664E+02  0.51100000000E-03 0.  1.
        -12    1    3    3    0    0 -0.22210786498E+02  0.19738919376E+01  0.68450567454E+01  0.23325310032E+02  0.00000000000E+00 0.  1.
</event>
<event>
 7    1  0.3528441E-013  0.5930193E+02  0.7816164E-02  0.1266605E+00
        -11   -1    0    0    0    0  0.00000000000E+00  0.00000000000E+00  0.45593999997E+02  0.45594000000E+02  0.51100000000E-03 0.  1.
         11   -1    0    0    0    0 -0.00000000000E+00 -0.00000000000E+00 -0.45593999997E+02  0.45594000000E+02  0.51100000000E-03 0. -1.
    9900012    2    1    2    0    0  0.29878443494E+02 -0.82251954954E+01  0.75063916424E+01  0.59301934986E+02  0.49999983510E+02 0.  0.
        -12    1    1    2    0    0 -0.29878443494E+02  0.82251954954E+01 -0.75063916424E+01  0.31886065014E+02  0.00000000000E+00 0.  1.
         11    1    3    3    0    0 -0.41837063771E+01 -0.88960990699E+01  0.66676865841E+01  0.11878637226E+02  0.51100000000E-03 0. -1.
        -11    1    3    3    0    0  0.22079214652E+01 -0.77210958122E+01  0.10384095432E+02  0.13127058922E+02  0.51100000000E-03 0.  1.
         12    1    3    3    0    0  0.31854228406E+02  0.83919993867E+01 -0.95453903733E+01  0.34296238838E+02  0.00000000000E+00 0. -1.
</event>
<event>
 7    1  0.3528441E-013  0.5930192E+02  0.7816164E-02  0.1266605E+00
        -11   -1    0    0    0    0  0.00000000000E+00  0.00000000000E+00  0.45593999997E+02  0.45594000000E+02  0.51100000000E-03 0.  1.
         11   -1    0    0    0    0 -0.00000000000E+00 -0.00000000000E+00 -0.45593999997E+02  0.45594000000E+02  0.51100000000E-03 0. -1.
    9900012    2    1    2    0    0  0.43178739147E+01  0.13460009905E+02 -0.28581567732E+02  0.59301922854E+02  0.49999961384E+02 0.  0.
        -12    1    1    2    0    0 -0.43178739147E+01 -0.13460009905E+02  0.28581567732E+02  0.31886077146E+02  0.00000000000E+00 0.  1.
         11    1    3    3    0    0  0.14666257381E+02  0.74235331353E+00 -0.45961239029E+01  0.15387480275E+02  0.51100000000E-03 0. -1.
        -11    1    3    3    0    0  0.77633637042E+01  0.12850864461E+02 -0.15695865945E+01  0.15095633002E+02  0.51100000000E-03 0.  1.
         12    1    3    3    0    0 -0.18111747171E+02 -0.13320786965E+00 -0.22415857234E+02  0.28818809577E+02  0.00000000000E+00 0. -1.
</event>
<event>
 7    1  0.3528441E-013  0.5930194E+02  0.7816164E-02  0.1266605E+00
        -11   -1    0    0    0    0  0.00000000000E+00  0.00000000000E+00  0.45593999997E+02  0.45594000000E+02  0.51100000000E-03 0. -1.
         11   -1    0    0    0    0 -0.00000000000E+00 -0.00000000000E+00 -0.45593999997E+02  0.45594000000E+02  0.51100000000E-03 0.  1.
    9900012    2    1    2    0    0  0.94159319952E+01  0.30066548906E+02 -0.49054810342E+01  0.59301939054E+02  0.49999990930E+02 0.  0.
        -12    1    1    2    0    0 -0.94159319952E+01 -0.30066548906E+02  0.49054810342E+01  0.31886060946E+02  0.00000000000E+00 0.  1.
         11    1    3    3    0    0 -0.41255241369E+01  0.57695468483E+01  0.18046685812E+01  0.73187737489E+01  0.51100000000E-03 0. -1.
        -11    1    3    3    0    0  0.24687344456E+02  0.10450433489E+02  0.89815306575E+01  0.28272679915E+02  0.51100000000E-03 0.  1.
         12    1    3    3    0    0 -0.11145888324E+02  0.13846568569E+02 -0.15691680273E+02  0.23710485390E+02  0.00000000000E+00 0. -1.
</event>
<event>
 7    1  0.3528441E-013  0.5930194E+02  0.7816164E-02  0.1266605E+00
        -11   -1    0    0    0    0  0.00000000000E+00  0.00000000000E+00  0.45593999997E+02  0.45594000000E+02  0.51100000000E-03 0. -1.
         11   -1    0    0    0    0 -0.00000000000E+00 -0.00000000000E+00 -0.45593999997E+02  0.45594000000E+02  0.51100000000E-03 0.  1.
    9900012    2    1    2    0    0 -0.20580355215E+01 -0.26643169366E+02  0.17396177955E+02  0.59301937347E+02  0.49999987816E+02 0.  0.
        -12    1    1    2    0    0  0.20580355215E+01  0.26643169366E+02 -0.17396177955E+02  0.31886062653E+02  0.00000000000E+00 0.  1.
         11    1    3    3    0    0 -0.49003782751E+01 -0.93291206289E+00  0.41631177031E+00  0.50057315057E+01  0.51100000000E-03 0. -1.
        -11    1    3    3    0    0  0.50764728403E+01 -0.25848501296E+02 -0.92890475152E+01  0.27932096229E+02  0.51100000000E-03 0.  1.
         12    1    3    3    0    0 -0.22341300867E+01  0.13824399294E+00  0.26268913700E+02  0.26364109612E+02  0.00000000000E+00 0. -1.
</event>
<event>
 7    1  0.3528441E-013  0.5930197E+02  0.7816164E-02  0.1266605E+00
        -11   -1    0    0    0    0  0.00000000000E+00  0.00000000000E+00  0.45593999997E+02  0.45594000000E+02  0.51100000000E-03 0. -1.
         11   -1    0    0    0    0 -0.00000000000E+00 -0.00000000000E+00 -0.45593999997E+02  0.45594000000E+02  0.51100000000E-03 0.  1.
    9900012    2    1    2    0    0  0.19000571040E+02 -0.25605677979E+02  0.21550425525E+00  0.59301970352E+02  0.50000048009E+02 0.  0.
        -12    1    1    2    0    0 -0.19000571040E+02  0.25605677979E+02 -0.21550425525E+00  0.31886029648E+02  0.00000000000E+00 0.  1.
         11    1    3    3    0    0  0.23949944924E+02 -0.21932312591E+02  0.54314624199E+01  0.32926083608E+02  0.51100000000E-03 0.  1.
        -11    1    3    3    0    0  0.51528866114E+01 -0.11009960366E+02  0.14163976999E+01  0.12238367963E+02  0.51100000000E-03 0. -1.
        -12    1    3    3    0    0 -0.10102260495E+02  0.73365949784E+01 -0.66323558646E+01  0.14137518782E+02  0.00000000000E+00 0.  1.
</event>
<event>
 7    1  0.3528441E-013  0.5930196E+02  0.7816164E-02  0.1266605E+00
        -11   -1    0    0    0    0  0.00000000000E+00  0.00000000000E+00  0.45593999997E+02  0.45594000000E+02  0.51100000000E-03 0. -1.
         11   -1    0    0    0    0 -0.00000000000E+00 -0.00000000000E+00 -0.45593999997E+02  0.45594000000E+02  0.51100000000E-03 0.  1.
    9900012    2    1    2    0    0  0.20886752653E+02  0.17431294788E+02  0.16631692725E+02  0.59301957955E+02  0.50000025400E+02 0.  0.
        -12    1    1    2    0    0 -0.20886752653E+02 -0.17431294788E+02 -0.16631692725E+02  0.31886042045E+02  0.00000000000E+00 0.  1.
         11    1    3    3    0    0  0.65157485033E+01  0.14806710378E+02  0.24080846940E+02  0.29010012761E+02  0.51100000000E-03 0. -1.
        -11    1    3    3    0    0 -0.70916761061E+01 -0.27554313505E+00  0.74477391609E+00  0.71359990513E+01  0.51100000000E-03 0.  1.
         12    1    3    3    0    0  0.21462680256E+02  0.29001275449E+01 -0.81939281309E+01  0.23155946142E+02  0.00000000000E+00 0. -1.
</event>
<event>
 7    1  0.3528441E-013  0.5930195E+02  0.7816164E-02  0.1266605E+00
        -11   -1    0    0    0    0  0.00000000000E+00  0.00000000000E+00  0.45593999997E+02  0.45594000000E+02  0.51100000000E-03 0.  1.
         11   -1    0    0    0    0 -0.00000000000E+00 -0.00000000000E+00 -0.45593999997E+02  0.45594000000E+02  0.51100000000E-03 0. -1.
    9900012    2    1    2    0    0  0.27636305749E+02 -0.71173344582E+01 -0.14223158895E+02  0.59301951418E+02  0.50000013478E+02 0.  0.
        -12    1    1    2    0    0 -0.27636305749E+02  0.71173344582E+01  0.14223158895E+02  0.31886048582E+02  0.00000000000E+00 0.  1.
         11    1    3    3    0    0  0.25077116578E+02 -0.82804168000E+01 -0.34770624075E+01  0.26636761092E+02  0.51100000000E-03 0. -1.
        -11    1    3    3    0    0  0.11598497207E+02 -0.58588335549E+01  0.43654801709E+01  0.13707971603E+02  0.51100000000E-03 0.  1.
        -12    1    3    3    0    0 -0.90393080354E+01  0.70219158967E+01 -0.15111576658E+02  0.18957218723E+02  0.00000000000E+00 0.  1.
</event>
<event>
 7    1  0.3528441E-013  0.5930194E+02  0.7816164E-02  0.1266605E+00
        -11   -1    0    0    0    0  0.00000000000E+00  0.00000000000E+00  0.45593999997E+02  0.45594000000E+02  0.51100000000E-03 0. -1.
         11   -1    0    0    0    0 -0.00000000000E+00 -0.00000000000E+00 -0.45593999997E+02  0.45594000000E+02  0.51100000000E-03 0.  1.
    9900012    2    1    2    0    0 -0.94071681492E+01 -0.76884048896E+01  0.29480749535E+02  0.59301937599E+02  0.49999988275E+02 0.  0.
        -12    1    1    2    0    0  0.94071681492E+01  0.76884048896E+01 -0.29480749535E+02  0.31886062401E+02  0.00000000000E+00 0.  1.
         11    1    3    3    0    0 -0.10167901887E+02 -0.12846941096E+02  0.28118381996E+02  0.32543409942E+02  0.51100000000E-03 0. -1.
        -11    1    3    3    0    0 -0.67704526274E+01 -0.57846908106E+01  0.79436987395E+01  0.11933315821E+02  0.51100000000E-03 0.  1.
        -12    1    3    3    0    0  0.75311863656E+01  0.10943227017E+02 -0.65813312003E+01  0.14825211836E+02  0.00000000000E+00 0.  1.
</event>
<event>
 7    1  0.3528441E-013  0.5930195E+02  0.7816164E-02  0.1266605E+00
        -11   -1    0    0    0    0  0.00000000000E+00  0.00000000000E+00  0.45593999997E+02  0.45594000000E+02  0.51100000000E-03 0.  1.
         11   -1    0    0    0    0 -0.00000000000E+00 -0.00000000000E+00 -0.45593999997E+02  0.45594000000E+02  0.51100000000E-03 0. -1.
    9900012    2    1    2    0    0 -0.31801700867E+01  0.18567007466E+01 -0.31672692128E+02  0.59301949036E+02  0.50000009134E+02 0.  0.
        -12    1    1    2    0    0  0.31801700867E+01 -0.18567007466E+01  0.31672692128E+02  0.31886050964E+02  0.00000000000E+00 0.  1.
         11    1    3    3    0    0  0.13277103278E+02  0.35969244754E+01 -0.13366211117E+01  0.13820488175E+02  0.51100000000E-03 0. -1.
        -11    1    3    3    0    0 -0.83418538521E+01 -0.92663100792E+01  0.74327177815E+00  0.12490135362E+02  0.51100000000E-03 0.  1.
         12    1    3    3    0    0 -0.81154195126E+01  0.75260863504E+01 -0.31079342794E+02  0.32991325499E+02  0.00000000000E+00 0. -1.
</event>
<event>
 7    1  0.3528441E-013  0.5930196E+02  0.7816164E-02  0.1266605E+00
        -11   -1    0    0    0    0  0.00000000000E+00  0.00000000000E+00  0.45593999997E+02  0.45594000000E+02  0.51100000000E-03 0.  1.
         11   -1    0    0    0    0 -0.00000000000E+00 -0.00000000000E+00 -0.45593999997E+02  0.45594000000E+02  0.51100000000E-03 0. -1.
    9900012    2    1    2    0    0 -0.29552190653E+02 -0.11965494677E+02  0.46321345568E+00  0.59301959136E+02  0.50000027555E+02 0.  0.
        -12    1    1    2    0    0  0.29552190653E+02  0.11965494677E+02 -0.46321345568E+00  0.31886040864E+02  0.00000000000E+00 0.  1.
         11    1    3    3    0    0  0.99142373121E+01 -0.11181461680E+02 -0.44984799106E+01  0.15606200965E+02  0.51100000000E-03 0. -1.
        -11    1    3    3    0    0 -0.20287163139E+02  0.74951685298E+01  0.69367545190E+01  0.22712663935E+02  0.51100000000E-03 0.  1.
        -12    1    3    3    0    0 -0.19179264826E+02 -0.82792015273E+01 -0.19750611528E+01  0.20983094237E+02  0.00000000000E+00 0.  1.
</event>
<event>
 7    1  0.3528441E-013  0.5930192E+02  0.7816164E-02  0.1266605E+00
        -11   -1    0    0    0    0  0.00000000000E+00  0.00000000000E+00  0.45593999997E+02  0.45594000000E+02  0.51100000000E-03 0.  1.
         11   -1    0    0    0    0 -0.00000000000E+00 -0.00000000000E+00 -0.45593999997E+02  0.45594000000E+02  0.51100000000E-03 0. -1.
    9900012    2    1    2    0    0 -0.29710910079E+02  0.11013192221E+02  0.35628283468E+01  0.59301916414E+02  0.49999949640E+02 0.  0.
        -12    1    1    2    0    0  0.29710910079E+02 -0.11013192221E+02 -0.35628283468E+01  0.31886083586E+02  0.00000000000E+00 0.  1.
         11    1    3    3    0    0 -0.39072246706E+02  0.15300445930E+02 -0.14220238997E+00  0.41961462440E+02  0.51100000000E-03 0.  1.
        -11    1    3    3    0    0  0.20864982483E+01 -0.83291866545E+01  0.13556484921E+01  0.86929056340E+01  0.51100000000E-03 0. -1.
        -12    1    3    3    0    0  0.72748383788E+01  0.40419329449E+01  0.23493822446E+01  0.86475483404E+01  0.00000000000E+00 0.  1.
</event>
<event>
 7    1  0.3528441E-013  0.5930194E+02  0.7816164E-02  0.1266605E+00
        -11   -1    0    0    0    0  0.00000000000E+00  0.00000000000E+00  0.45593999997E+02  0.45594000000E+02  0.51100000000E-03 0. -1.
         11   -1    0    0    0    0 -0.00000000000E+00 -0.00000000000E+00 -0.45593999997E+02  0.45594000000E+02  0.51100000000E-03 0.  1.
    9900012    2    1    2    0    0 -0.30654623656E+02 -0.86375092620E+01 -0.15518657741E+01  0.59301940270E+02  0.49999993146E+02 0.  0.
        -12    1    1    2    0    0  0.30654623656E+02  0.86375092620E+01  0.15518657741E+01  0.31886059730E+02  0.00000000000E+00 0.  1.
         11    1    3    3    0    0  0.39974371045E+01  0.87039103634E+00 -0.10535509340E+02  0.11301948561E+02  0.51100000000E-03 0. -1.
        -11    1    3    3    0    0 -0.24688072103E+00 -0.46545028624E+01 -0.80511380104E+01  0.93030194298E+01  0.51100000000E-03 0.  1.
         12    1    3    3    0    0 -0.34405180040E+02 -0.48533974360E+01  0.17034781576E+02  0.38696972279E+02  0.00000000000E+00 0. -1.
</event>
<event>
 7    1  0.3528441E-013  0.5930193E+02  0.7816164E-02  0.1266605E+00
        -11   -1    0    0    0    0  0.00000000000E+00  0.00000000000E+00  0.45593999997E+02  0.45594000000E+02  0.51100000000E-03 0.  1.
         11   -1    0    0    0    0 -0.00000000000E+00 -0.00000000000E+00 -0.45593999997E+02  0.45594000000E+02  0.51100000000E-03 0. -1.
    9900012    2    1    2    0    0  0.62903028589E+01  0.12008159482E+02 -0.28861005821E+02  0.59301929982E+02  0.49999974384E+02 0.  0.
        -12    1    1    2    0    0 -0.62903028589E+01 -0.12008159482E+02  0.28861005821E+02  0.31886070018E+02  0.00000000000E+00 0.  1.
         11    1    3    3    0    0 -0.14799891057E+02  0.14012960688E+02 -0.46217197110E+01  0.20898807044E+02  0.51100000000E-03 0. -1.
        -11    1    3    3    0    0 -0.20413150729E+01  0.25735706745E+01  0.13986412607E+01  0.35702144026E+01  0.51100000000E-03 0.  1.
         12    1    3    3    0    0  0.23131508988E+02 -0.45783718806E+01 -0.25637927370E+02  0.34832908535E+02  0.00000000000E+00 0. -1.
</event>
<event>
 7    1  0.3528441E-013  0.5930193E+02  0.7816164E-02  0.1266605E+00
        -11   -1    0    0    0    0  0.00000000000E+00  0.00000000000E+00  0.45593999997E+02  0.45594000000E+02  0.51100000000E-03 0. -1.
         11   -1    0    0    0    0 -0.00000000000E+00 -0.00000000000E+00 -0.45593999997E+02  0.45594000000E+02  0.51100000000E-03 0.  1.
    9900012    2    1    2    0    0  0.52213618995E+01 -0.19717014435E+02  0.24509148850E+02  0.59301926932E+02  0.49999968822E+02 0.  0.
        -12    1    1    2    0    0 -0.52213618995E+01  0.19717014435E+02 -0.24509148850E+02  0.31886073068E+02  0.00000000000E+00 0.  1.
         11    1    3    3    0    0  0.15901762800E+02 -0.12138076842E+02  0.22043717682E+02  0.29767842701E+02  0.51100000000E-03 0. -1.
        -11    1    3    3    0    0 -0.22265964565E+01 -0.12050853278E+02  0.11185263390E+02  0.16591893016E+02  0.51100000000E-03 0.  1.
         12    1    3    3    0    0 -0.84538044439E+01  0.44719156851E+01 -0.87198322214E+01  0.12942191215E+02  0.00000000000E+00 0. -1.
</event>
<event>
 7    1  0.3528441E-013  0.5930188E+02  0.7816164E-02  0.1266605E+00
        -11   -1    0    0    0    0  0.00000000000E+00  0.00000000000E+00  0.45593999997E+02  0.45594000000E+02  0.51100000000E-03 0.  1.
         11   -1    0    0    0    0 -0.00000000000E+00 -0.00000000000E+00 -0.45593999997E+02  0.45594000000E+02  0.51100000000E-03 0. -1.
    9900012    2    1    2    0    0  0.94824205118E-01  0.45653850292E+01 -0.31557449239E+02  0.59301884925E+02  0.49999892210E+02 0.  0.
        -12    1    1    2    0    0 -0.94824205118E-01 -0.45653850292E+01  0.31557449239E+02  0.31886115075E+02  0.00000000000E+00 0.  1.
         11    1    3    3    0    0  0.24351731202E+01 -0.65673868006E+01 -0.69803881087E+01  0.98887034501E+01  0.51100000000E-03 0. -1.
        -11    1    3    3    0    0 -0.32780823158E+01  0.11879508221E+02 -0.35936434174E+02  0.37990733615E+02  0.51100000000E-03 0.  1.
        -12    1    3    3    0    0  0.93773340074E+00 -0.74673639140E+00  0.11359373043E+02  0.11422447859E+02  0.00000000000E+00 0.  1.
</event>
<event>
 7    1  0.3528441E-013  0.5930186E+02  0.7816164E-02  0.1266605E+00
        -11   -1    0    0    0    0  0.00000000000E+00  0.00000000000E+00  0.45593999997E+02  0.45594000000E+02  0.51100000000E-03 0.  1.
         11   -1    0    0    0    0 -0.00000000000E+00 -0.00000000000E+00 -0.45593999997E+02  0.45594000000E+02  0.51100000000E-03 0. -1.
    9900012    2    1    2    0    0  0.70775672792E+01 -0.56889922069E+01 -0.30565816808E+02  0.59301862760E+02  0.49999851788E+02 0.  0.
        -12    1    1    2    0    0 -0.70775672792E+01  0.56889922069E+01  0.30565816808E+02  0.31886137240E+02  0.00000000000E+00 0.  1.
         11    1    3    3    0    0  0.10971896399E+02 -0.37055383873E+01 -0.11281974289E+02  0.16167760187E+02  0.51100000000E-03 0. -1.
        -11    1    3    3    0    0  0.17064390762E+02 -0.12697949194E+01 -0.52430175920E+01  0.17896788677E+02  0.51100000000E-03 0.  1.
        -12    1    3    3    0    0 -0.20958719882E+02 -0.71365890020E+00 -0.14040824927E+02  0.25237313897E+02  0.00000000000E+00 0.  1.
</event>
<event>
 7    1  0.3528441E-013  0.5930198E+02  0.7816164E-02  0.1266605E+00
        -11   -1    0    0    0    0  0.00000000000E+00  0.00000000000E+00  0.45593999997E+02  0.45594000000E+02  0.51100000000E-03 0.  1.
         11   -1    0    0    0    0 -0.00000000000E+00 -0.00000000000E+00 -0.45593999997E+02  0.45594000000E+02  0.51100000000E-03 0. -1.
    9900012    2    1    2    0    0  0.24946244680E+02 -0.45875758311E+01 -0.19322460192E+02  0.59301977302E+02  0.50000060684E+02 0.  0.
        -12    1    1    2    0    0 -0.24946244680E+02  0.45875758311E+01  0.19322460192E+02  0.31886022698E+02  0.00000000000E+00 0.  1.
         11    1    3    3    0    0  0.97862576861E+00  0.10540823377E+02 -0.13826056644E+02  0.17413400255E+02  0.51100000000E-03 0. -1.
        -11    1    3    3    0    0  0.21440232508E+02 -0.98499930713E+00  0.72781113767E+01  0.22663289680E+02  0.51100000000E-03 0.  1.
         12    1    3    3    0    0  0.25273864036E+01 -0.14143399901E+02 -0.12774514924E+02  0.19225287367E+02  0.00000000000E+00 0. -1.
</event>
<event>
 7    1  0.3528441E-013  0.5930195E+02  0.7816164E-02  0.1266605E+00
        -11   -1    0    0    0    0  0.00000000000E+00  0.00000000000E+00  0.45593999997E+02  0.45594000000E+02  0.51100000000E-03 0.  1.
         11   -1    0    0    0    0 -0.00000000000E+00 -0.00000000000E+00 -0.45593999997E+02  0.45594000000E+02  0.51100000000E-03 0. -1.
    9900012    2    1    2    0    0  0.30208715661E+01  0.28157638153E+02 -0.14654067958E+02  0.59301953536E+02  0.50000017341E+02 0.  0.
        -12    1    1    2    0    0 -0.30208715661E+01 -0.28157638153E+02  0.14654067958E+02  0.31886046464E+02  0.00000000000E+00 0.  1.
         11    1    3    3    0    0 -0.31360460290E+01  0.20734117739E+02 -0.27067350521E+02  0.34240033405E+02  0.51100000000E-03 0. -1.
        -11    1    3    3    0    0 -0.50553341524E+01  0.66054862460E+01  0.10910881721E+02  0.13719919538E+02  0.51100000000E-03 0.  1.
        -12    1    3    3    0    0  0.11212251747E+02  0.81803416844E+00  0.15024008422E+01  0.11342000593E+02  0.00000000000E+00 0.  1.
</event>
<event>
 7    1  0.3528441E-013  0.5930193E+02  0.7816164E-02  0.1266605E+00
        -11   -1    0    0    0    0  0.00000000000E+00  0.00000000000E+00  0.45593999997E+02  0.45594000000E+02  0.51100000000E-03 0. -1.
         11   -1    0    0    0    0 -0.00000000000E+00 -0.00000000000E+00 -0.45593999997E+02  0.45594000000E+02  0.51100000000E-03 0.  1.
    9900012    2    1    2    0    0  0.27895452655E+01 -0.27670232252E+02  0.15598019609E+02  0.59301928882E+02  0.49999972377E+02 0.  0.
        -12    1    1    2    0    0 -0.27895452655E+01  0.27670232252E+02 -0.15598019609E+02  0.31886071118E+02  0.00000000000E+00 0.  1.
         11    1    3    3    0    0  0.32209835401E+01  0.38024268956E+01  0.73041990242E+00  0.50365363849E+01  0.51100000000E-03 0. -1.
        -11    1    3    3    0    0  0.16220282184E+02 -0.98267338449E+01 -0.60047746818E+01  0.19892701461E+02  0.51100000000E-03 0.  1.
         12    1    3    3    0    0 -0.16651720458E+02 -0.21645925302E+02  0.20872374388E+02  0.34372691035E+02  0.00000000000E+00 0. -1.
</event>
<event>
 7    1  0.3528441E-013  0.5930195E+02  0.7816164E-02  0.1266605E+00
        -11   -1    0    0    0    0  0.00000000000E+00  0.00000000000E+00  0.45593999997E+02  0.45594000000E+02  0.51100000000E-03 0.  1.
         11   -1    0    0    0    0 -0.00000000000E+00 -0.00000000000E+00 -0.45593999997E+02  0.45594000000E+02  0.51100000000E-03 0. -1.
    9900012    2    1    2    0    0 -0.41295366602E+01  0.99633914042E+01 -0.30006636464E+02  0.59301945475E+02  0.50000002639E+02 0.  0.
        -12    1    1    2    0    0  0.41295366602E+01 -0.99633914042E+01  0.30006636464E+02  0.31886054525E+02  0.00000000000E+00 0.  1.
         11    1    3    3    0    0 -0.32470947961E+01  0.17797761529E+01 -0.22880744215E+02  0.23178431436E+02  0.51100000000E-03 0. -1.
        -11    1    3    3    0    0 -0.32410878359E+01  0.18294493173E+02 -0.14349416812E+02  0.23475495606E+02  0.51100000000E-03 0.  1.
        -12    1    3    3    0    0  0.23586459718E+01 -0.10110877922E+02  0.72235245625E+01  0.12648018433E+02  0.00000000000E+00 0.  1.
</event>
<event>
 7    1  0.3528441E-013  0.5930191E+02  0.7816164E-02  0.1266605E+00
        -11   -1    0    0    0    0  0.00000000000E+00  0.00000000000E+00  0.45593999997E+02  0.45594000000E+02  0.51100000000E-03 0. -1.
         11   -1    0    0    0    0 -0.00000000000E+00 -0.00000000000E+00 -0.45593999997E+02  0.45594000000E+02  0.51100000000E-03 0.  1.
    9900012    2    1    2    0    0 -0.18915034309E+01 -0.31745047632E+02  0.23231058486E+01  0.59301911259E+02  0.49999940238E+02 0.  0.
        -12    1    1    2    0    0  0.18915034309E+01  0.31745047632E+02 -0.23231058486E+01  0.31886088741E+02  0.00000000000E+00 0.  1.
         11    1    3    3    0    0 -0.56429195248E+00 -0.95839547903E+01  0.13420852457E+02  0.16501208918E+02  0.51100000000E-03 0. -1.
        -11    1    3    3    0    0  0.14415790732E+02 -0.14460462155E+02 -0.14375335515E+02  0.24971388820E+02  0.51100000000E-03 0.  1.
         12    1    3    3    0    0 -0.15743002210E+02 -0.77006306866E+01  0.32775889074E+01  0.17829313521E+02  0.00000000000E+00 0. -1.
</event>
<event>
 7    1  0.3528441E-013  0.5930195E+02  0.7816164E-02  0.1266605E+00
        -11   -1    0    0    0    0  0.00000000000E+00  0.00000000000E+00  0.45593999997E+02  0.45594000000E+02  0.51100000000E-03 0.  1.
         11   -1    0    0    0    0 -0.00000000000E+00 -0.00000000000E+00 -0.45593999997E+02  0.45594000000E+02  0.51100000000E-03 0. -1.
    9900012    2    1    2    0    0  0.26592741929E+02  0.72944402901E+01 -0.16010535157E+02  0.59301952605E+02  0.50000015643E+02 0.  0.
        -12    1    1    2    0    0 -0.26592741929E+02 -0.72944402901E+01  0.16010535157E+02  0.31886047395E+02  0.00000000000E+00 0.  1.
         11    1    3    3    0    0 -0.78777619630E+01  0.56942949393E+01  0.36226218405E+01  0.10373404343E+02  0.51100000000E-03 0.  1.
        -11    1    3    3    0    0  0.28089501141E+00  0.10362288364E+01 -0.14277033480E+02  0.14317344637E+02  0.51100000000E-03 0. -1.
        -12    1    3    3    0    0  0.34189608881E+02  0.56391651439E+00 -0.53561235176E+01  0.34611203625E+02  0.00000000000E+00 0.  1.
</event>
<event>
 7    1  0.3528441E-013  0.5930194E+02  0.7816164E-02  0.1266605E+00
        -11   -1    0    0    0    0  0.00000000000E+00  0.00000000000E+00  0.45593999997E+02  0.45594000000E+02  0.51100000000E-03 0.  1.
         11   -1    0    0    0    0 -0.00000000000E+00 -0.00000000000E+00 -0.45593999997E+02  0.45594000000E+02  0.51100000000E-03 0. -1.
    9900012    2    1    2    0    0 -0.36194521613E+00  0.19438581028E+02 -0.25273137411E+02  0.59301938604E+02  0.49999990109E+02 0.  0.
        -12    1    1    2    0    0  0.36194521613E+00 -0.19438581028E+02  0.25273137411E+02  0.31886061396E+02  0.00000000000E+00 0.  1.
         11    1    3    3    0    0 -0.61874080940E+01  0.30857608275E+01 -0.17215630354E+02  0.18552193066E+02  0.51100000000E-03 0. -1.
        -11    1    3    3    0    0 -0.84114453313E+01 -0.45941402649E+01 -0.11740958778E+02  0.15156142340E+02  0.51100000000E-03 0.  1.
        -12    1    3    3    0    0  0.14236908209E+02  0.20946960465E+02  0.36834517211E+01  0.25593603198E+02  0.00000000000E+00 0.  1.
</event>
<event>
 7    1  0.3528441E-013  0.5930201E+02  0.7816164E-02  0.1266605E+00
        -11   -1    0    0    0    0  0.00000000000E+00  0.00000000000E+00  0.45593999997E+02  0.45594000000E+02  0.51100000000E-03 0. -1.
         11   -1    0    0    0    0 -0.00000000000E+00 -0.00000000000E+00 -0.45593999997E+02  0.45594000000E+02  0.51100000000E-03 0.  1.
    9900012    2    1    2    0    0 -0.53901238501E+01 -0.31409294433E+02 -0.10580370821E+01  0.59302005357E+02  0.50000111850E+02 0.  0.
        -12    1    1    2    0    0  0.53901238501E+01  0.31409294433E+02  0.10580370821E+01  0.31885994643E+02  0.00000000000E+00 0.  1.
         11    1    3    3    0    0  0.87042842600E+01 -0.18204154406E+02  0.37571646139E+01  0.20524913844E+02  0.51100000000E-03 0. -1.
        -11    1    3    3    0    0 -0.11565353012E+02 -0.30849557921E+01 -0.18214865152E+02  0.21795771500E+02  0.51100000000E-03 0.  1.
         12    1    3    3    0    0 -0.25290550983E+01 -0.10120184235E+02  0.13399663456E+02  0.16981320013E+02  0.00000000000E+00 0. -1.
</event>
<event>
 7    1  0.3528441E-013  0.5930219E+02  0.7816164E-02  0.1266604E+00
        -11   -1    0    0    0    0  0.00000000000E+00  0.00000000000E+00  0.45593999997E+02  0.45594000000E+02  0.51100000000E-03 0.  1.
         11   -1    0    0    0    0 -0.00000000000E+00 -0.00000000000E+00 -0.45593999997E+02  0.45594000000E+02  0.51100000000E-03 0. -1.
    9900012    2    1    2    0    0  0.23817533796E+02 -0.81815797633E+01 -0.19557389451E+02  0.59302193665E+02  0.50000455276E+02 0.  0.
        -12    1    1    2    0    0 -0.23817533796E+02  0.81815797633E+01  0.19557389451E+02  0.31885806335E+02  0.00000000000E+00 0.  1.
         11    1    3    3    0    0  0.84275154723E+01 -0.22306625078E+02 -0.18506610178E+02  0.30184485418E+02  0.51100000000E-03 0. -1.
        -11    1    3    3    0    0  0.24005324689E+01 -0.47928382334E+01  0.24683237202E+01  0.59013961665E+01  0.51100000000E-03 0.  1.
         12    1    3    3    0    0  0.12989485855E+02  0.18917883548E+02 -0.35191029928E+01  0.23216312080E+02  0.00000000000E+00 0. -1.
</event>
<event>
 7    1  0.3528441E-013  0.5930196E+02  0.7816164E-02  0.1266605E+00
        -11   -1    0    0    0    0  0.00000000000E+00  0.00000000000E+00  0.45593999997E+02  0.45594000000E+02  0.51100000000E-03 0. -1.
         11   -1    0    0    0    0 -0.00000000000E+00 -0.00000000000E+00 -0.45593999997E+02  0.45594000000E+02  0.51100000000E-03 0.  1.
    9900012    2    1    2    0    0 -0.21935961221E+02  0.11941541803E+02  0.19822536684E+02  0.59301956409E+02  0.50000022580E+02 0.  0.
        -12    1    1    2    0    0  0.21935961221E+02 -0.11941541803E+02 -0.19822536684E+02  0.31886043591E+02  0.00000000000E+00 0.  1.
         11    1    3    3    0    0 -0.12977412843E+02 -0.49930222706E+00  0.21310131474E+02  0.24955645664E+02  0.51100000000E-03 0. -1.
        -11    1    3    3    0    0  0.38420326573E+01 -0.74548850624E+01  0.50653465448E+01  0.97976661565E+01  0.51100000000E-03 0.  1.
         12    1    3    3    0    0 -0.12800581035E+02  0.19895729092E+02 -0.65529413349E+01  0.24548644588E+02  0.00000000000E+00 0. -1.
</event>
<event>
 7    1  0.3528441E-013  0.5930191E+02  0.7816164E-02  0.1266605E+00
        -11   -1    0    0    0    0  0.00000000000E+00  0.00000000000E+00  0.45593999997E+02  0.45594000000E+02  0.51100000000E-03 0. -1.
         11   -1    0    0    0    0 -0.00000000000E+00 -0.00000000000E+00 -0.45593999997E+02  0.45594000000E+02  0.51100000000E-03 0.  1.
    9900012    2    1    2    0    0 -0.29421223659E+02  0.12268519599E+02  0.77325039681E+00  0.59301907562E+02  0.49999933496E+02 0.  0.
        -12    1    1    2    0    0  0.29421223659E+02 -0.12268519599E+02 -0.77325039681E+00  0.31886092438E+02  0.00000000000E+00 0.  1.
         11    1    3    3    0    0 -0.17942145928E+02 -0.16403018174E+01  0.68250817290E+01  0.19266367884E+02  0.51100000000E-03 0. -1.
        -11    1    3    3    0    0 -0.19204364490E+01  0.10504313056E+02 -0.20067897464E+02  0.22732117759E+02  0.51100000000E-03 0.  1.
         12    1    3    3    0    0 -0.95586412818E+01  0.34045083605E+01  0.14016066131E+02  0.17303421920E+02  0.00000000000E+00 0. -1.
</event>
<event>
 7    1  0.3528441E-013  0.5930193E+02  0.7816164E-02  0.1266605E+00
        -11   -1    0    0    0    0  0.00000000000E+00  0.00000000000E+00  0.45593999997E+02  0.45594000000E+02  0.51100000000E-03 0.  1.
         11   -1    0    0    0    0 -0.00000000000E+00 -0.00000000000E+00 -0.45593999997E+02  0.45594000000E+02  0.51100000000E-03 0. -1.
    9900012    2    1    2    0    0  0.11679754654E+02  0.10493359810E+02 -0.27752373534E+02  0.59301929284E+02  0.49999973112E+02 0.  0.
        -12    1    1    2    0    0 -0.11679754654E+02 -0.10493359810E+02  0.27752373534E+02  0.31886070716E+02  0.00000000000E+00 0.  1.
         11    1    3    3    0    0  0.13290553085E+02  0.11986646929E+02 -0.65299743356E+01  0.19051484745E+02  0.51100000000E-03 0. -1.
        -11    1    3    3    0    0  0.11822814339E+02 -0.11483379533E+02 -0.15311719421E+02  0.22496570767E+02  0.51100000000E-03 0.  1.
        -12    1    3    3    0    0 -0.13433612770E+02  0.99900924141E+01 -0.59106797782E+01  0.17753873773E+02  0.00000000000E+00 0.  1.
</event>
<event>
 7    1  0.3528441E-013  0.5930194E+02  0.7816164E-02  0.1266605E+00
        -11   -1    0    0    0    0  0.00000000000E+00  0.00000000000E+00  0.45593999997E+02  0.45594000000E+02  0.51100000000E-03 0. -1.
         11   -1    0    0    0    0 -0.00000000000E+00 -0.00000000000E+00 -0.45593999997E+02  0.45594000000E+02  0.51100000000E-03 0.  1.
    9900012    2    1    2    0    0 -0.20948456257E+01 -0.28855052512E+02  0.13405903804E+02  0.59301942068E+02  0.49999996425E+02 0.  0.
        -12    1    1    2    0    0  0.20948456257E+01  0.28855052512E+02 -0.13405903804E+02  0.31886057932E+02  0.00000000000E+00 0.  1.
         11    1    3    3    0    0  0.49391194879E+01 -0.59399254146E+01 -0.87543930802E+01  0.11675487729E+02  0.51100000000E-03 0. -1.
        -11    1    3    3    0    0  0.34794428686E+01 -0.88601413261E+01 -0.81959519973E+01  0.12561140728E+02  0.51100000000E-03 0.  1.
         12    1    3    3    0    0 -0.10513407982E+02 -0.14054985771E+02  0.30356248881E+02  0.35065313610E+02  0.00000000000E+00 0. -1.
</event>
<event>
 7    1  0.3528441E-013  0.5930195E+02  0.7816164E-02  0.1266605E+00
        -11   -1    0    0    0    0  0.00000000000E+00  0.00000000000E+00  0.45593999997E+02  0.45594000000E+02  0.51100000000E-03 0.  1.
         11   -1    0    0    0    0 -0.00000000000E+00 -0.00000000000E+00 -0.45593999997E+02  0.45594000000E+02  0.51100000000E-03 0. -1.
    9900012    2    1    2    0    0 -0.82272626407E+01  0.30800677472E+02 -0.59184805392E+00  0.59301954974E+02  0.50000019963E+02 0.  0.
        -12    1    1    2    0    0  0.82272626407E+01 -0.30800677472E+02  0.59184805392E+00  0.31886045026E+02  0.00000000000E+00 0.  1.
         11    1    3    3    0    0 -0.23865414245E+02  0.66227039642E+01 -0.39967366010E+01  0.25087688387E+02  0.51100000000E-03 0. -1.
        -11    1    3    3    0    0  0.61139228699E+00 -0.28367575799E+01 -0.81655521196E+00  0.30145906473E+01  0.51100000000E-03 0.  1.
         12    1    3    3    0    0  0.15026759318E+02  0.27014731087E+02  0.42214437591E+01  0.31199675939E+02  0.00000000000E+00 0. -1.
</event>
<event>
 7    1  0.3528441E-013  0.5930194E+02  0.7816164E-02  0.1266605E+00
        -11   -1    0    0    0    0  0.00000000000E+00  0.00000000000E+00  0.45593999997E+02  0.45594000000E+02  0.51100000000E-03 0.  1.
         11   -1    0    0    0    0 -0.00000000000E+00 -0.00000000000E+00 -0.45593999997E+02  0.45594000000E+02  0.51100000000E-03 0. -1.
    9900012    2    1    2    0    0  0.22643999693E+02  0.15155161954E+02 -0.16561744459E+02  0.59301936658E+02  0.49999986559E+02 0.  0.
        -12    1    1    2    0    0 -0.22643999693E+02 -0.15155161954E+02  0.16561744459E+02  0.31886063342E+02  0.00000000000E+00 0.  1.
         11    1    3    3    0    0 -0.46153537848E+01 -0.30142453880E+01  0.49797265671E+01  0.74286501305E+01  0.51100000000E-03 0. -1.
        -11    1    3    3    0    0  0.96646825608E+00  0.49992263767E+00  0.82890869185E+01  0.83602001015E+01  0.51100000000E-03 0.  1.
         12    1    3    3    0    0  0.26292885221E+02  0.17669484705E+02 -0.29830557945E+02  0.43513086426E+02  0.00000000000E+00 0. -1.
</event>
<event>
 7    1  0.3528441E-013  0.5930195E+02  0.7816164E-02  0.1266605E+00
        -11   -1    0    0    0    0  0.00000000000E+00  0.00000000000E+00  0.45593999997E+02  0.45594000000E+02  0.51100000000E-03 0.  1.
         11   -1    0    0    0    0 -0.00000000000E+00 -0.00000000000E+00 -0.45593999997E+02  0.45594000000E+02  0.51100000000E-03 0. -1.
    9900012    2    1    2    0    0 -0.98221704916E+01  0.22970523538E+02 -0.19814141465E+02  0.59301949966E+02  0.50000010829E+02 0.  0.
        -12    1    1    2    0    0  0.98221704916E+01 -0.22970523538E+02  0.19814141465E+02  0.31886050034E+02  0.00000000000E+00 0.  1.
         11    1    3    3    0    0 -0.77136612532E+01  0.99930614360E+00 -0.96178059402E+01  0.12369372420E+02  0.51100000000E-03 0. -1.
        -11    1    3    3    0    0 -0.71738952666E+01 -0.10513176546E+02 -0.86461329626E+00  0.12756927953E+02  0.51100000000E-03 0.  1.
        -12    1    3    3    0    0  0.50653860282E+01  0.32484393941E+02 -0.93317222287E+01  0.34175649593E+02  0.00000000000E+00 0.  1.
</event>
<event>
 7    1  0.3528441E-013  0.5930204E+02  0.7816164E-02  0.1266604E+00
        -11   -1    0    0    0    0  0.00000000000E+00  0.00000000000E+00  0.45593999997E+02  0.45594000000E+02  0.51100000000E-03 0.  1.
         11   -1    0    0    0    0 -0.00000000000E+00 -0.00000000000E+00 -0.45593999997E+02  0.45594000000E+02  0.51100000000E-03 0. -1.
    9900012    2    1    2    0    0  0.29759796438E+02  0.53462294650E+01 -0.10123583408E+02  0.59302037657E+02  0.50000170757E+02 0.  0.
        -12    1    1    2    0    0 -0.29759796438E+02 -0.53462294650E+01  0.10123583408E+02  0.31885962343E+02  0.00000000000E+00 0.  1.
         11    1    3    3    0    0  0.93971595159E+01 -0.23400960455E+01 -0.80294111050E+01  0.12579908562E+02  0.51100000000E-03 0. -1.
        -11    1    3    3    0    0 -0.11980032256E+02  0.72239367199E+01 -0.32248633781E+01  0.14356398526E+02  0.51100000000E-03 0.  1.
         12    1    3    3    0    0  0.32342669178E+02  0.46238879056E+00  0.11306910755E+01  0.32365730569E+02  0.00000000000E+00 0. -1.
</event>
<event>
 7    1  0.3528441E-013  0.5930195E+02  0.7816164E-02  0.1266605E+00
        -11   -1    0    0    0    0  0.00000000000E+00  0.00000000000E+00  0.45593999997E+02  0.45594000000E+02  0.51100000000E-03 0.  1.
         11   -1    0    0    0    0 -0.00000000000E+00 -0.00000000000E+00 -0.45593999997E+02  0.45594000000E+02  0.51100000000E-03 0. -1.
    9900012    2    1    2    0    0  0.13367077300E+02 -0.24211134071E+02 -0.15870172632E+02  0.59301950575E+02  0.50000011941E+02 0.  0.
        -12    1    1    2    0    0 -0.13367077300E+02  0.24211134071E+02  0.15870172632E+02  0.31886049425E+02  0.00000000000E+00 0.  1.
         11    1    3    3    0    0  0.11429315823E+02 -0.19446211701E+02 -0.44337683655E+01  0.22987881848E+02  0.51100000000E-03 0. -1.
        -11    1    3    3    0    0  0.10457861637E+02 -0.15641511375E+02 -0.12286109408E+02  0.22471587232E+02  0.51100000000E-03 0.  1.
        -12    1    3    3    0    0 -0.85201001595E+01  0.10876589004E+02  0.84970514125E+00  0.13842481494E+02  0.00000000000E+00 0.  1.
</event>
<event>
 7    1  0.3528441E-013  0.5930197E+02  0.7816164E-02  0.1266605E+00
        -11   -1    0    0    0    0  0.00000000000E+00  0.00000000000E+00  0.45593999997E+02  0.45594000000E+02  0.51100000000E-03 0.  1.
         11   -1    0    0    0    0 -0.00000000000E+00 -0.00000000000E+00 -0.45593999997E+02  0.45594000000E+02  0.51100000000E-03 0. -1.
    9900012    2    1    2    0    0 -0.25582943225E+02  0.52212326313E+01 -0.18302209283E+02  0.59301966711E+02  0.50000041370E+02 0.  0.
        -12    1    1    2    0    0  0.25582943225E+02 -0.52212326313E+01  0.18302209283E+02  0.31886033289E+02  0.00000000000E+00 0.  1.
         11    1    3    3    0    0  0.52889963816E+01  0.56192299927E+01  0.74675520397E+00  0.77528621832E+01  0.51100000000E-03 0. -1.
        -11    1    3    3    0    0 -0.22809085565E+02  0.17041656581E+02 -0.89652432597E+01  0.29850427640E+02  0.51100000000E-03 0.  1.
        -12    1    3    3    0    0 -0.80628540416E+01 -0.17439653942E+02 -0.10083721228E+02  0.21698676888E+02  0.00000000000E+00 0.  1.
</event>
<event>
 7    1  0.3528441E-013  0.5930189E+02  0.7816164E-02  0.1266605E+00
        -11   -1    0    0    0    0  0.00000000000E+00  0.00000000000E+00  0.45593999997E+02  0.45594000000E+02  0.51100000000E-03 0.  1.
         11   -1    0    0    0    0 -0.00000000000E+00 -0.00000000000E+00 -0.45593999997E+02  0.45594000000E+02  0.51100000000E-03 0. -1.
    9900012    2    1    2    0    0 -0.10353812900E+02  0.29061774269E+02 -0.80582825482E+01  0.59301888872E+02  0.49999899409E+02 0.  0.
        -12    1    1    2    0    0  0.10353812900E+02 -0.29061774269E+02  0.80582825482E+01  0.31886111128E+02  0.00000000000E+00 0.  1.
         11    1    3    3    0    0 -0.75590721139E+01  0.26470759092E+02 -0.11866436044E+02  0.29977540973E+02  0.51100000000E-03 0. -1.
        -11    1    3    3    0    0 -0.70799460553E+01  0.86511519000E+01 -0.91133152462E+01  0.14422918581E+02  0.51100000000E-03 0.  1.
        -12    1    3    3    0    0  0.42852052687E+01 -0.60601367227E+01  0.12921468742E+02  0.14901429319E+02  0.00000000000E+00 0.  1.
</event>
<event>
 7    1  0.3528441E-013  0.5930197E+02  0.7816164E-02  0.1266605E+00
        -11   -1    0    0    0    0  0.00000000000E+00  0.00000000000E+00  0.45593999997E+02  0.45594000000E+02  0.51100000000E-03 0.  1.
         11   -1    0    0    0    0 -0.00000000000E+00 -0.00000000000E+00 -0.45593999997E+02  0.45594000000E+02  0.51100000000E-03 0. -1.
    9900012    2    1    2    0    0  0.41260916581E+01  0.87532454879E+01 -0.30382152128E+02  0.59301966900E+02  0.50000041714E+02 0.  0.
        -12    1    1    2    0    0 -0.41260916581E+01 -0.87532454879E+01  0.30382152128E+02  0.31886033100E+02  0.00000000000E+00 0.  1.
         11    1    3    3    0    0  0.14839400774E+02  0.21168783472E+01 -0.55963777792E+01  0.16000263554E+02  0.51100000000E-03 0. -1.
        -11    1    3    3    0    0  0.34129051042E+01  0.11747668242E+02 -0.25478527780E+02  0.28263244833E+02  0.51100000000E-03 0.  1.
        -12    1    3    3    0    0 -0.14126214220E+02 -0.51113011018E+01  0.69275343142E+00  0.15038458514E+02  0.00000000000E+00 0.  1.
</event>
<event>
 7    1  0.3528441E-013  0.5930195E+02  0.7816164E-02  0.1266605E+00
        -11   -1    0    0    0    0  0.00000000000E+00  0.00000000000E+00  0.45593999997E+02  0.45594000000E+02  0.51100000000E-03 0. -1.
         11   -1    0    0    0    0 -0.00000000000E+00 -0.00000000000E+00 -0.45593999997E+02  0.45594000000E+02  0.51100000000E-03 0.  1.
    9900012    2    1    2    0    0 -0.23115691314E+02 -0.19480609818E+02  0.10143523609E+02  0.59301946387E+02  0.50000004303E+02 0.  0.
        -12    1    1    2    0    0  0.23115691314E+02  0.19480609818E+02 -0.10143523609E+02  0.31886053613E+02  0.00000000000E+00 0.  1.
         11    1    3    3    0    0  0.46069522613E+01 -0.11738078673E+02 -0.44249737385E+00  0.12617539548E+02  0.51100000000E-03 0. -1.
        -11    1    3    3    0    0 -0.84333543750E+01  0.90597757756E+01 -0.82863250489E+01  0.14895106116E+02  0.51100000000E-03 0.  1.
         12    1    3    3    0    0 -0.19289289201E+02 -0.16802306921E+02  0.18872346031E+02  0.31789300723E+02  0.00000000000E+00 0. -1.
</event>
<event>
 7    1  0.3528441E-013  0.5930193E+02  0.7816164E-02  0.1266605E+00
        -11   -1    0    0    0    0  0.00000000000E+00  0.00000000000E+00  0.45593999997E+02  0.45594000000E+02  0.51100000000E-03 0.  1.
         11   -1    0    0    0    0 -0.00000000000E+00 -0.00000000000E+00 -0.45593999997E+02  0.45594000000E+02  0.51100000000E-03 0. -1.
    9900012    2    1    2    0    0  0.23418318778E+02  0.67325732975E+01 -0.20566381884E+02  0.59301933115E+02  0.49999980098E+02 0.  0.
        -12    1    1    2    0    0 -0.23418318778E+02 -0.67325732975E+01  0.20566381884E+02  0.31886066885E+02  0.00000000000E+00 0.  1.
         11    1    3    3    0    0  0.85919178134E+01  0.49072614345E+01 -0.18357151374E+02  0.20853951024E+02  0.51100000000E-03 0. -1.
        -11    1    3    3    0    0 -0.11100824076E+02 -0.25037856634E+01 -0.40955112060E+01  0.12094232101E+02  0.51100000000E-03 0.  1.
        -12    1    3    3    0    0  0.25927225040E+02  0.43290975264E+01  0.18862806963E+01  0.26353749990E+02  0.00000000000E+00 0.  1.
</event>
<event>
 7    1  0.3528441E-013  0.5930194E+02  0.7816164E-02  0.1266605E+00
        -11   -1    0    0    0    0  0.00000000000E+00  0.00000000000E+00  0.45593999997E+02  0.45594000000E+02  0.51100000000E-03 0.  1.
         11   -1    0    0    0    0 -0.00000000000E+00 -0.00000000000E+00 -0.45593999997E+02  0.45594000000E+02  0.51100000000E-03 0. -1.
    9900012    2    1    2    0    0  0.24321808060E+02  0.18203031846E+02 -0.96860663807E+01  0.59301943523E+02  0.49999999080E+02 0.  0.
        -12    1    1    2    0    0 -0.24321808060E+02 -0.18203031846E+02  0.96860663807E+01  0.31886056477E+02  0.00000000000E+00 0.  1.
         11    1    3    3    0    0  0.13200818553E+02  0.27779467541E+02 -0.39120743867E+01  0.31004269925E+02  0.51100000000E-03 0. -1.
        -11    1    3    3    0    0  0.24316137064E+01  0.73764326390E+01  0.14921255783E+01  0.79089153933E+01  0.51100000000E-03 0.  1.
        -12    1    3    3    0    0  0.86893758004E+01 -0.16952868334E+02 -0.72661175723E+01  0.20388758205E+02  0.00000000000E+00 0.  1.
</event>
<event>
 7    1  0.3528441E-013  0.5930186E+02  0.7816164E-02  0.1266605E+00
        -11   -1    0    0    0    0  0.00000000000E+00  0.00000000000E+00  0.45593999997E+02  0.45594000000E+02  0.51100000000E-03 0. -1.
         11   -1    0    0    0    0 -0.00000000000E+00 -0.00000000000E+00 -0.45593999997E+02  0.45594000000E+02  0.51100000000E-03 0.  1.
    9900012    2    1    2    0    0  0.29744970796E+01  0.55329241281E+01  0.31261236882E+02  0.59301861731E+02  0.49999849911E+02 0.  0.
        -12    1    1    2    0    0 -0.29744970796E+01 -0.55329241281E+01 -0.31261236882E+02  0.31886138269E+02  0.00000000000E+00 0.  1.
         11    1    3    3    0    0 -0.64127082323E+01  0.64585863942E+01  0.26784365872E+02  0.28288485652E+02  0.51100000000E-03 0. -1.
        -11    1    3    3    0    0 -0.10521611688E+02 -0.70023736015E+00  0.33789742418E+01  0.11073035359E+02  0.51100000000E-03 0.  1.
        -12    1    3    3    0    0  0.19908817000E+02 -0.22542490597E+00  0.10978967685E+01  0.19940340720E+02  0.00000000000E+00 0.  1.
</event>
<event>
 7    1  0.3528441E-013  0.5930195E+02  0.7816164E-02  0.1266605E+00
        -11   -1    0    0    0    0  0.00000000000E+00  0.00000000000E+00  0.45593999997E+02  0.45594000000E+02  0.51100000000E-03 0.  1.
         11   -1    0    0    0    0 -0.00000000000E+00 -0.00000000000E+00 -0.45593999997E+02  0.45594000000E+02  0.51100000000E-03 0. -1.
    9900012    2    1    2    0    0  0.38389802971E+01  0.31406474199E+02  0.39516861910E+01  0.59301949522E+02  0.50000010021E+02 0.  0.
        -12    1    1    2    0    0 -0.38389802971E+01 -0.31406474199E+02 -0.39516861910E+01  0.31886050478E+02  0.00000000000E+00 0.  1.
         11    1    3    3    0    0 -0.52830877849E+01 -0.83166533958E+00  0.43656577250E+01  0.69037418414E+01  0.51100000000E-03 0. -1.
        -11    1    3    3    0    0  0.10596125647E+02  0.11832592761E+01  0.14433903981E+02  0.17944792159E+02  0.51100000000E-03 0.  1.
         12    1    3    3    0    0 -0.14740575651E+01  0.31054880262E+02 -0.14847875515E+02  0.34453415522E+02  0.00000000000E+00 0. -1.
</event>
<event>
 7    1  0.3528441E-013  0.5930196E+02  0.7816164E-02  0.1266605E+00
        -11   -1    0    0    0    0  0.00000000000E+00  0.00000000000E+00  0.45593999997E+02  0.45594000000E+02  0.51100000000E-03 0.  1.
         11   -1    0    0    0    0 -0.00000000000E+00 -0.00000000000E+00 -0.45593999997E+02  0.45594000000E+02  0.51100000000E-03 0. -1.
    9900012    2    1    2    0    0  0.18361220768E+02  0.14281167097E+02 -0.21809019531E+02  0.59301960819E+02  0.50000030623E+02 0.  0.
        -12    1    1    2    0    0 -0.18361220768E+02 -0.14281167097E+02  0.21809019531E+02  0.31886039181E+02  0.00000000000E+00 0.  1.
         11    1    3    3    0    0 -0.44161519780E+01  0.43157276376E+01  0.19241752419E+01  0.64676389785E+01  0.51100000000E-03 0. -1.
        -11    1    3    3    0    0  0.13444898756E+02  0.12595703261E+02  0.76791196815E+01  0.19959607274E+02  0.51100000000E-03 0.  1.
         12    1    3    3    0    0  0.93324739903E+01 -0.26302638014E+01 -0.31412314455E+02  0.32874714567E+02  0.00000000000E+00 0. -1.
</event>
<event>
 7    1  0.3528441E-013  0.5930182E+02  0.7816164E-02  0.1266605E+00
        -11   -1    0    0    0    0  0.00000000000E+00  0.00000000000E+00  0.45593999997E+02  0.45594000000E+02  0.51100000000E-03 0.  1.
         11   -1    0    0    0    0 -0.00000000000E+00 -0.00000000000E+00 -0.45593999997E+02  0.45594000000E+02  0.51100000000E-03 0. -1.
    9900012    2    1    2    0    0  0.15068960182E+01 -0.22574085261E+02 -0.22469277402E+02  0.59301819797E+02  0.49999773432E+02 0.  0.
        -12    1    1    2    0    0 -0.15068960182E+01  0.22574085261E+02  0.22469277402E+02  0.31886180203E+02  0.00000000000E+00 0.  1.
         11    1    3    3    0    0 -0.24627457348E+01  0.98594220052E+01 -0.67171377565E+01  0.12181677172E+02  0.51100000000E-03 0. -1.
        -11    1    3    3    0    0  0.15278030098E+02 -0.98466150324E+01 -0.11490360622E+02  0.21503544330E+02  0.51100000000E-03 0.  1.
        -12    1    3    3    0    0 -0.11308388345E+02 -0.22586892234E+02 -0.42617790232E+01  0.25616598294E+02  0.00000000000E+00 0.  1.
</event>
<event>
 7    1  0.3528441E-013  0.5930194E+02  0.7816164E-02  0.1266605E+00
        -11   -1    0    0    0    0  0.00000000000E+00  0.00000000000E+00  0.45593999997E+02  0.45594000000E+02  0.51100000000E-03 0.  1.
         11   -1    0    0    0    0 -0.00000000000E+00 -0.00000000000E+00 -0.45593999997E+02  0.45594000000E+02  0.51100000000E-03 0. -1.
    9900012    2    1    2    0    0  0.75508720937E+01 -0.13581952342E+02 -0.27843051306E+02  0.59301943410E+02  0.49999998874E+02 0.  0.
        -12    1    1    2    0    0 -0.75508720937E+01  0.13581952342E+02  0.27843051306E+02  0.31886056590E+02  0.00000000000E+00 0.  1.
         11    1    3    3    0    0  0.19386913374E+02  0.15733053260E+01 -0.22336529603E+02  0.29618376977E+02  0.51100000000E-03 0. -1.
        -11    1    3    3    0    0 -0.71579383230E+01  0.21016616536E+01 -0.87643503611E+01  0.11509426582E+02  0.51100000000E-03 0.  1.
         12    1    3    3    0    0 -0.46781029569E+01 -0.17256919322E+02  0.32578286575E+01  0.18174139851E+02  0.00000000000E+00 0. -1.
</event>
<event>
 7    1  0.3528441E-013  0.5930193E+02  0.7816164E-02  0.1266605E+00
        -11   -1    0    0    0    0  0.00000000000E+00  0.00000000000E+00  0.45593999997E+02  0.45594000000E+02  0.51100000000E-03 0. -1.
         11   -1    0    0    0    0 -0.00000000000E+00 -0.00000000000E+00 -0.45593999997E+02  0.45594000000E+02  0.51100000000E-03 0.  1.
    9900012    2    1    2    0    0  0.14065308201E+02 -0.25239734150E+02  0.13484957960E+02  0.59301934612E+02  0.49999982828E+02 0.  0.
        -12    1    1    2    0    0 -0.14065308201E+02  0.25239734150E+02 -0.13484957960E+02  0.31886065388E+02  0.00000000000E+00 0.  1.
         11    1    3    3    0    0  0.21486762041E+01 -0.28423078605E-01  0.57381355682E+01  0.61273009850E+01  0.51100000000E-03 0. -1.
        -11    1    3    3    0    0 -0.31407293575E+01 -0.11242582590E+02  0.24193426620E+02  0.26862273471E+02  0.51100000000E-03 0.  1.
         12    1    3    3    0    0  0.15057361354E+02 -0.13968728482E+02 -0.16446604228E+02  0.26312360156E+02  0.00000000000E+00 0. -1.
</event>
<event>
 7    1  0.3528441E-013  0.5930193E+02  0.7816164E-02  0.1266605E+00
        -11   -1    0    0    0    0  0.00000000000E+00  0.00000000000E+00  0.45593999997E+02  0.45594000000E+02  0.51100000000E-03 0.  1.
         11   -1    0    0    0    0 -0.00000000000E+00 -0.00000000000E+00 -0.45593999997E+02  0.45594000000E+02  0.51100000000E-03 0. -1.
    9900012    2    1    2    0    0  0.33159041319E+01 -0.18014825213E+00 -0.31712679983E+02  0.59301925526E+02  0.49999966258E+02 0.  0.
        -12    1    1    2    0    0 -0.33159041319E+01  0.18014825213E+00  0.31712679983E+02  0.31886074474E+02  0.00000000000E+00 0.  1.
         11    1    3    3    0    0 -0.11346508257E+02  0.37490853065E+01 -0.88355052855E+01  0.14861528998E+02  0.51100000000E-03 0. -1.
        -11    1    3    3    0    0  0.14353811499E+02 -0.57731676629E+01  0.51842236086E+01  0.16316787187E+02  0.51100000000E-03 0.  1.
         12    1    3    3    0    0  0.30860088956E+00  0.18439341043E+01 -0.28061398306E+02  0.28123609342E+02  0.00000000000E+00 0. -1.
</event>
<event>
 7    1  0.3528441E-013  0.5930223E+02  0.7816164E-02  0.1266604E+00
        -11   -1    0    0    0    0  0.00000000000E+00  0.00000000000E+00  0.45593999997E+02  0.45594000000E+02  0.51100000000E-03 0.  1.
         11   -1    0    0    0    0 -0.00000000000E+00 -0.00000000000E+00 -0.45593999997E+02  0.45594000000E+02  0.51100000000E-03 0. -1.
    9900012    2    1    2    0    0  0.21386424131E+02 -0.10183951007E+02 -0.21345033390E+02  0.59302228163E+02  0.50000518191E+02 0.  0.
        -12    1    1    2    0    0 -0.21386424131E+02  0.10183951007E+02  0.21345033390E+02  0.31885771837E+02  0.00000000000E+00 0.  1.
         11    1    3    3    0    0  0.13783088284E+01 -0.31196198698E+01  0.43499598783E+01  0.55275595485E+01  0.51100000000E-03 0. -1.
        -11    1    3    3    0    0  0.96414276120E+01  0.17782152828E+02 -0.12657751347E+02  0.23861700590E+02  0.51100000000E-03 0.  1.
         12    1    3    3    0    0  0.10366687691E+02 -0.24846483965E+02 -0.13037241921E+02  0.29912968025E+02  0.00000000000E+00 0. -1.
</event>
<event>
 7    1  0.3528441E-013  0.5930196E+02  0.7816164E-02  0.1266605E+00
        -11   -1    0    0    0    0  0.00000000000E+00  0.00000000000E+00  0.45593999997E+02  0.45594000000E+02  0.51100000000E-03 0.  1.
         11   -1    0    0    0    0 -0.00000000000E+00 -0.00000000000E+00 -0.45593999997E+02  0.45594000000E+02  0.51100000000E-03 0. -1.
    9900012    2    1    2    0    0 -0.87588544210E+01 -0.30551450795E+02 -0.25711436623E+01  0.59301961422E+02  0.50000031723E+02 0.  0.
        -12    1    1    2    0    0  0.87588544210E+01  0.30551450795E+02  0.25711436623E+01  0.31886038578E+02  0.00000000000E+00 0.  1.
         11    1    3    3    0    0 -0.52239666703E+01 -0.23951906441E+01  0.94182002968E+01  0.11033098526E+02  0.51100000000E-03 0. -1.
        -11    1    3    3    0    0 -0.99041527154E+01 -0.76761941643E+01  0.11110832920E+02  0.16747143228E+02  0.51100000000E-03 0.  1.
         12    1    3    3    0    0  0.63692649646E+01 -0.20480065987E+02 -0.23100176879E+02  0.31521719668E+02  0.00000000000E+00 0. -1.
</event>
<event>
 7    1  0.3528441E-013  0.5930192E+02  0.7816164E-02  0.1266605E+00
        -11   -1    0    0    0    0  0.00000000000E+00  0.00000000000E+00  0.45593999997E+02  0.45594000000E+02  0.51100000000E-03 0.  1.
         11   -1    0    0    0    0 -0.00000000000E+00 -0.00000000000E+00 -0.45593999997E+02  0.45594000000E+02  0.51100000000E-03 0. -1.
    9900012    2    1    2    0    0  0.31681167245E+02 -0.36073280050E+01 -0.11348079925E+00  0.59301920729E+02  0.49999957509E+02 0.  0.
        -12    1    1    2    0    0 -0.31681167245E+02  0.36073280050E+01  0.11348079925E+00  0.31886079271E+02  0.00000000000E+00 0.  1.
         11    1    3    3    0    0  0.17228399333E+02  0.28699139936E+01 -0.13127227857E+02  0.21848987651E+02  0.51100000000E-03 0. -1.
        -11    1    3    3    0    0 -0.40747178212E+01  0.84897747976E+01  0.95018754651E+01  0.13377789020E+02  0.51100000000E-03 0.  1.
         12    1    3    3    0    0  0.18527485733E+02 -0.14967016796E+02  0.35118715923E+01  0.24075144059E+02  0.00000000000E+00 0. -1.
</event>
<event>
 7    1  0.3528441E-013  0.5930192E+02  0.7816164E-02  0.1266605E+00
        -11   -1    0    0    0    0  0.00000000000E+00  0.00000000000E+00  0.45593999997E+02  0.45594000000E+02  0.51100000000E-03 0. -1.
         11   -1    0    0    0    0 -0.00000000000E+00 -0.00000000000E+00 -0.45593999997E+02  0.45594000000E+02  0.51100000000E-03 0.  1.
    9900012    2    1    2    0    0 -0.14205441877E+02 -0.14991503014E+02  0.24293673934E+02  0.59301916284E+02  0.49999949401E+02 0.  0.
        -12    1    1    2    0    0  0.14205441877E+02  0.14991503014E+02 -0.24293673934E+02  0.31886083716E+02  0.00000000000E+00 0.  1.
         11    1    3    3    0    0 -0.11202065509E+02 -0.16626807882E+02  0.26820281185E+02  0.33485287741E+02  0.51100000000E-03 0. -1.
        -11    1    3    3    0    0 -0.35846588763E+01 -0.94172255675E+01  0.61044479967E+01  0.11781264883E+02  0.51100000000E-03 0.  1.
         12    1    3    3    0    0  0.58128250798E+00  0.11052530435E+02 -0.86310552472E+01  0.14035363659E+02  0.00000000000E+00 0. -1.
</event>
<event>
 7    1  0.3528441E-013  0.5930192E+02  0.7816164E-02  0.1266605E+00
        -11   -1    0    0    0    0  0.00000000000E+00  0.00000000000E+00  0.45593999997E+02  0.45594000000E+02  0.51100000000E-03 0.  1.
         11   -1    0    0    0    0 -0.00000000000E+00 -0.00000000000E+00 -0.45593999997E+02  0.45594000000E+02  0.51100000000E-03 0. -1.
    9900012    2    1    2    0    0 -0.19705844716E+01 -0.28814391737E+02 -0.13511840830E+02  0.59301918131E+02  0.49999952771E+02 0.  0.
        -12    1    1    2    0    0  0.19705844716E+01  0.28814391737E+02  0.13511840830E+02  0.31886081869E+02  0.00000000000E+00 0.  1.
         11    1    3    3    0    0 -0.60596265788E+01 -0.12776555349E+02 -0.13436607193E+02  0.19506456726E+02  0.51100000000E-03 0. -1.
        -11    1    3    3    0    0 -0.26041817428E+01 -0.25456042443E+02  0.66335034178E+01  0.26434735241E+02  0.51100000000E-03 0.  1.
        -12    1    3    3    0    0  0.66932238500E+01  0.94182060545E+01 -0.67087370541E+01  0.13360726165E+02  0.00000000000E+00 0.  1.
</event>
<event>
 7    1  0.3528441E-013  0.5930195E+02  0.7816164E-02  0.1266605E+00
        -11   -1    0    0    0    0  0.00000000000E+00  0.00000000000E+00  0.45593999997E+02  0.45594000000E+02  0.51100000000E-03 0. -1.
         11   -1    0    0    0    0 -0.00000000000E+00 -0.00000000000E+00 -0.45593999997E+02  0.45594000000E+02  0.51100000000E-03 0.  1.
    9900012    2    1    2    0    0  0.21986597143E+02 -0.17403297448E+02 -0.15180081509E+02  0.59301951474E+02  0.50000013580E+02 0.  0.
        -12    1    1    2    0    0 -0.21986597143E+02  0.17403297448E+02  0.15180081509E+02  0.31886048526E+02  0.00000000000E+00 0.  1.
         11    1    3    3    0    0  0.89972784911E+01  0.66919301035E+01  0.26733592116E+01  0.11527350020E+02  0.51100000000E-03 0. -1.
        -11    1    3    3    0    0  0.23293305472E+02 -0.77187219957E+01 -0.13243633382E+02  0.27884593855E+02  0.51100000000E-03 0.  1.
         12    1    3    3    0    0 -0.10303986820E+02 -0.16376505555E+02 -0.46098073385E+01  0.19890007599E+02  0.00000000000E+00 0. -1.
</event>
<event>
 7    1  0.3528441E-013  0.5930195E+02  0.7816164E-02  0.1266605E+00
        -11   -1    0    0    0    0  0.00000000000E+00  0.00000000000E+00  0.45593999997E+02  0.45594000000E+02  0.51100000000E-03 0. -1.
         11   -1    0    0    0    0 -0.00000000000E+00 -0.00000000000E+00 -0.45593999997E+02  0.45594000000E+02  0.51100000000E-03 0.  1.
    9900012    2    1    2    0    0 -0.18263282322E+02 -0.11461352477E+02  0.23490639207E+02  0.59301949569E+02  0.50000010106E+02 0.  0.
        -12    1    1    2    0    0  0.18263282322E+02  0.11461352477E+02 -0.23490639207E+02  0.31886050431E+02  0.00000000000E+00 0.  1.
         11    1    3    3    0    0  0.77136398492E+01 -0.11606890136E+02  0.15533894609E+02  0.20869164342E+02  0.51100000000E-03 0. -1.
        -11    1    3    3    0    0  0.18107253021E+01 -0.70601145637E+01 -0.27560804623E+01  0.77922989899E+01  0.51100000000E-03 0.  1.
        -12    1    3    3    0    0 -0.27787647473E+02  0.72056522230E+01  0.10712825060E+02  0.30640486237E+02  0.00000000000E+00 0.  1.
</event>
<event>
 7    1  0.3528441E-013  0.5930196E+02  0.7816164E-02  0.1266605E+00
        -11   -1    0    0    0    0  0.00000000000E+00  0.00000000000E+00  0.45593999997E+02  0.45594000000E+02  0.51100000000E-03 0. -1.
         11   -1    0    0    0    0 -0.00000000000E+00 -0.00000000000E+00 -0.45593999997E+02  0.45594000000E+02  0.51100000000E-03 0.  1.
    9900012    2    1    2    0    0 -0.30250051921E+02 -0.82747176482E+01  0.57604791449E+01  0.59301957389E+02  0.50000024369E+02 0.  0.
        -12    1    1    2    0    0  0.30250051921E+02  0.82747176482E+01 -0.57604791449E+01  0.31886042611E+02  0.00000000000E+00 0.  1.
         11    1    3    3    0    0 -0.10131502063E+02 -0.32897995996E+01  0.11425343199E+02  0.15620774083E+02  0.51100000000E-03 0. -1.
        -11    1    3    3    0    0 -0.89333039288E+01 -0.34980015015E+01  0.16342124679E+02  0.18950065248E+02  0.51100000000E-03 0.  1.
        -12    1    3    3    0    0 -0.11185245930E+02 -0.14869165471E+01 -0.22006988734E+02  0.24731118059E+02  0.00000000000E+00 0.  1.
</event>
<event>
 7    1  0.3528441E-013  0.5930194E+02  0.7816164E-02  0.1266605E+00
        -11   -1    0    0    0    0  0.00000000000E+00  0.00000000000E+00  0.45593999997E+02  0.45594000000E+02  0.51100000000E-03 0.  1.
         11   -1    0    0    0    0 -0.00000000000E+00 -0.00000000000E+00 -0.45593999997E+02  0.45594000000E+02  0.51100000000E-03 0. -1.
    9900012    2    1    2    0    0  0.31368955403E+02 -0.55982776095E+01 -0.11698068053E+01  0.59301944690E+02  0.50000001207E+02 0.  0.
        -12    1    1    2    0    0 -0.31368955403E+02  0.55982776095E+01  0.11698068053E+01  0.31886055310E+02  0.00000000000E+00 0.  1.
         11    1    3    3    0    0  0.23094435181E+01 -0.48412727740E+00 -0.12872392200E+00  0.23631501631E+01  0.51100000000E-03 0. -1.
        -11    1    3    3    0    0  0.35535727115E+02 -0.17421299870E+02  0.79654328473E+01  0.40370010050E+02  0.51100000000E-03 0.  1.
         12    1    3    3    0    0 -0.64762152293E+01  0.12307149537E+02 -0.90065157306E+01  0.16568784477E+02  0.00000000000E+00 0. -1.
</event>
<event>
 7    1  0.3528441E-013  0.5930194E+02  0.7816164E-02  0.1266605E+00
        -11   -1    0    0    0    0  0.00000000000E+00  0.00000000000E+00  0.45593999997E+02  0.45594000000E+02  0.51100000000E-03 0.  1.
         11   -1    0    0    0    0 -0.00000000000E+00 -0.00000000000E+00 -0.45593999997E+02  0.45594000000E+02  0.51100000000E-03 0. -1.
    9900012    2    1    2    0    0  0.18160220344E+02  0.16276648259E+02 -0.20542581108E+02  0.59301944739E+02  0.50000001298E+02 0.  0.
        -12    1    1    2    0    0 -0.18160220344E+02 -0.16276648259E+02  0.20542581108E+02  0.31886055261E+02  0.00000000000E+00 0.  1.
         11    1    3    3    0    0  0.14583209283E+02  0.42476948008E+01  0.39145668808E+01  0.15685558270E+02  0.51100000000E-03 0. -1.
        -11    1    3    3    0    0 -0.16928210135E+01  0.94404992987E+01  0.68355495482E+01  0.11777665638E+02  0.51100000000E-03 0.  1.
        -12    1    3    3    0    0  0.52698320751E+01  0.25884541594E+01 -0.31292697537E+02  0.31838720832E+02  0.00000000000E+00 0.  1.
</event>
<event>
 7    1  0.3528441E-013  0.5930194E+02  0.7816164E-02  0.1266605E+00
        -11   -1    0    0    0    0  0.00000000000E+00  0.00000000000E+00  0.45593999997E+02  0.45594000000E+02  0.51100000000E-03 0.  1.
         11   -1    0    0    0    0 -0.00000000000E+00 -0.00000000000E+00 -0.45593999997E+02  0.45594000000E+02  0.51100000000E-03 0. -1.
    9900012    2    1    2    0    0 -0.31480451622E+01  0.17354228638E+02 -0.26563916808E+02  0.59301935392E+02  0.49999984251E+02 0.  0.
        -12    1    1    2    0    0  0.31480451622E+01 -0.17354228638E+02  0.26563916808E+02  0.31886064608E+02  0.00000000000E+00 0.  1.
         11    1    3    3    0    0  0.23269264102E+00  0.11372897415E+02 -0.12695900563E+02  0.17046490338E+02  0.51100000000E-03 0. -1.
        -11    1    3    3    0    0  0.70211678422E+01 -0.19761917179E+01 -0.24388941438E+02  0.25456287952E+02  0.51100000000E-03 0.  1.
         12    1    3    3    0    0 -0.10401905645E+02  0.79575229409E+01  0.10520925193E+02  0.16799157102E+02  0.00000000000E+00 0. -1.
</event>
<event>
 7    1  0.3528441E-013  0.5930193E+02  0.7816164E-02  0.1266605E+00
        -11   -1    0    0    0    0  0.00000000000E+00  0.00000000000E+00  0.45593999997E+02  0.45594000000E+02  0.51100000000E-03 0.  1.
         11   -1    0    0    0    0 -0.00000000000E+00 -0.00000000000E+00 -0.45593999997E+02  0.45594000000E+02  0.51100000000E-03 0. -1.
    9900012    2    1    2    0    0 -0.16764502823E+02  0.21957087092E+02 -0.15923536327E+02  0.59301933487E+02  0.49999980777E+02 0.  0.
        -12    1    1    2    0    0  0.16764502823E+02 -0.21957087092E+02  0.15923536327E+02  0.31886066513E+02  0.00000000000E+00 0.  1.
         11    1    3    3    0    0  0.25660802056E+01  0.20308161209E+01  0.52231528748E+01  0.61636278240E+01  0.51100000000E-03 0. -1.
        -11    1    3    3    0    0 -0.55717064421E+01  0.28197044161E+01  0.11914778902E+02  0.13452011084E+02  0.51100000000E-03 0.  1.
         12    1    3    3    0    0 -0.13758876587E+02  0.17106566555E+02 -0.33061468104E+02  0.39686294579E+02  0.00000000000E+00 0. -1.
</event>
<event>
 7    1  0.3528441E-013  0.5930196E+02  0.7816164E-02  0.1266605E+00
        -11   -1    0    0    0    0  0.00000000000E+00  0.00000000000E+00  0.45593999997E+02  0.45594000000E+02  0.51100000000E-03 0. -1.
         11   -1    0    0    0    0 -0.00000000000E+00 -0.00000000000E+00 -0.45593999997E+02  0.45594000000E+02  0.51100000000E-03 0.  1.
    9900012    2    1    2    0    0 -0.27124360713E+02 -0.26835520592E+00  0.16760570435E+02  0.59301957914E+02  0.50000025325E+02 0.  0.
        -12    1    1    2    0    0  0.27124360713E+02  0.26835520592E+00 -0.16760570435E+02  0.31886042086E+02  0.00000000000E+00 0.  1.
         11    1    3    3    0    0  0.16184948420E+01 -0.38406675945E+01  0.11160697810E+02  0.11913497765E+02  0.51100000000E-03 0. -1.
        -11    1    3    3    0    0  0.21405722241E+01 -0.74196908993E+01 -0.86922626333E+01  0.11627093035E+02  0.51100000000E-03 0.  1.
         12    1    3    3    0    0 -0.30883427779E+02  0.10992003288E+02  0.14292135258E+02  0.35761367115E+02  0.00000000000E+00 0. -1.
</event>
<event>
 7    1  0.3528441E-013  0.5930193E+02  0.7816164E-02  0.1266605E+00
        -11   -1    0    0    0    0  0.00000000000E+00  0.00000000000E+00  0.45593999997E+02  0.45594000000E+02  0.51100000000E-03 0.  1.
         11   -1    0    0    0    0 -0.00000000000E+00 -0.00000000000E+00 -0.45593999997E+02  0.45594000000E+02  0.51100000000E-03 0. -1.
    9900012    2    1    2    0    0  0.18572166941E+02 -0.23016880926E+01 -0.25816624017E+02  0.59301933629E+02  0.49999981035E+02 0.  0.
        -12    1    1    2    0    0 -0.18572166941E+02  0.23016880926E+01  0.25816624017E+02  0.31886066371E+02  0.00000000000E+00 0.  1.
         11    1    3    3    0    0  0.11349639900E+02 -0.11314266698E+02 -0.12923118140E+02  0.20587227582E+02  0.51100000000E-03 0. -1.
        -11    1    3    3    0    0  0.20810526740E+02  0.44353464589E+01 -0.34752264820E+01  0.21559859015E+02  0.51100000000E-03 0.  1.
         12    1    3    3    0    0 -0.13587999699E+02  0.45772321466E+01 -0.94182793951E+01  0.17154847032E+02  0.00000000000E+00 0. -1.
</event>
<event>
 7    1  0.3528441E-013  0.5930195E+02  0.7816164E-02  0.1266605E+00
        -11   -1    0    0    0    0  0.00000000000E+00  0.00000000000E+00  0.45593999997E+02  0.45594000000E+02  0.51100000000E-03 0. -1.
         11   -1    0    0    0    0 -0.00000000000E+00 -0.00000000000E+00 -0.45593999997E+02  0.45594000000E+02  0.51100000000E-03 0.  1.
    9900012    2    1    2    0    0 -0.93395915552E+01  0.24724344706E+02 -0.17838125769E+02  0.59301954110E+02  0.50000018387E+02 0.  0.
        -12    1    1    2    0    0  0.93395915552E+01 -0.24724344706E+02  0.17838125769E+02  0.31886045890E+02  0.00000000000E+00 0.  1.
         11    1    3    3    0    0 -0.15187281318E+01  0.24196331778E+02  0.91325293192E+01  0.25906989379E+02  0.51100000000E-03 0. -1.
        -11    1    3    3    0    0 -0.56837776582E+01  0.90940473973E+01 -0.12795175388E+02  0.16695015424E+02  0.51100000000E-03 0.  1.
        -12    1    3    3    0    0 -0.21370857652E+01 -0.85660344700E+01 -0.14175479700E+02  0.16699949307E+02  0.00000000000E+00 0.  1.
</event>
<event>
 7    1  0.3528441E-013  0.5930195E+02  0.7816164E-02  0.1266605E+00
        -11   -1    0    0    0    0  0.00000000000E+00  0.00000000000E+00  0.45593999997E+02  0.45594000000E+02  0.51100000000E-03 0.  1.
         11   -1    0    0    0    0 -0.00000000000E+00 -0.00000000000E+00 -0.45593999997E+02  0.45594000000E+02  0.51100000000E-03 0. -1.
    9900012    2    1    2    0    0  0.30485340687E+01 -0.30426988848E+01 -0.31593803701E+02  0.59301952757E+02  0.50000015920E+02 0.  0.
        -12    1    1    2    0    0 -0.30485340687E+01  0.30426988848E+01  0.31593803701E+02  0.31886047243E+02  0.00000000000E+00 0.  1.
         11    1    3    3    0    0  0.59417676906E+01  0.65960243827E+01 -0.90183895118E+01  0.12654781333E+02  0.51100000000E-03 0. -1.
        -11    1    3    3    0    0  0.68787612251E+01 -0.22348532035E+02 -0.72829815651E+01  0.24491142498E+02  0.51100000000E-03 0.  1.
         12    1    3    3    0    0 -0.97719948470E+01  0.12709808767E+02 -0.15292432625E+02  0.22156028926E+02  0.00000000000E+00 0. -1.
</event>
<event>
 7    1  0.3528441E-013  0.5930169E+02  0.7816164E-02  0.1266606E+00
        -11   -1    0    0    0    0  0.00000000000E+00  0.00000000000E+00  0.45593999997E+02  0.45594000000E+02  0.51100000000E-03 0.  1.
         11   -1    0    0    0    0 -0.00000000000E+00 -0.00000000000E+00 -0.45593999997E+02  0.45594000000E+02  0.51100000000E-03 0. -1.
    9900012    2    1    2    0    0 -0.17745976151E+02  0.13162549467E+02  0.22990521879E+02  0.59301694565E+02  0.49999545038E+02 0.  0.
        -12    1    1    2    0    0  0.17745976151E+02 -0.13162549467E+02 -0.22990521879E+02  0.31886305435E+02  0.00000000000E+00 0.  1.
         11    1    3    3    0    0 -0.24685307297E+02  0.96234378535E+01  0.95120736069E+01  0.28150568326E+02  0.51100000000E-03 0. -1.
        -11    1    3    3    0    0  0.20373868406E+01  0.15210618978E+02  0.62227170995E+01  0.16560074975E+02  0.51100000000E-03 0.  1.
        -12    1    3    3    0    0  0.49019443062E+01 -0.11671507364E+02  0.72557311729E+01  0.14591051264E+02  0.00000000000E+00 0.  1.
</event>
<event>
 7    1  0.3528441E-013  0.5930164E+02  0.7816164E-02  0.1266606E+00
        -11   -1    0    0    0    0  0.00000000000E+00  0.00000000000E+00  0.45593999997E+02  0.45594000000E+02  0.51100000000E-03 0.  1.
         11   -1    0    0    0    0 -0.00000000000E+00 -0.00000000000E+00 -0.45593999997E+02  0.45594000000E+02  0.51100000000E-03 0. -1.
    9900012    2    1    2    0    0 -0.20340063310E+02 -0.80179035711E+01  0.23210663102E+02  0.59301641870E+02  0.49999448934E+02 0.  0.
        -12    1    1    2    0    0  0.20340063310E+02  0.80179035711E+01 -0.23210663102E+02  0.31886358130E+02  0.00000000000E+00 0.  1.
         11    1    3    3    0    0 -0.15602129984E+02 -0.16244141458E+02 -0.12660643010E+01  0.22558845512E+02  0.51100000000E-03 0. -1.
        -11    1    3    3    0    0  0.20602482884E+01 -0.41579607827E+01 -0.32220287866E+01  0.56493124045E+01  0.51100000000E-03 0.  1.
        -12    1    3    3    0    0 -0.67981816152E+01  0.12384198670E+02  0.27698756189E+02  0.31093483954E+02  0.00000000000E+00 0.  1.
</event>
<event>
 7    1  0.3528441E-013  0.5930194E+02  0.7816164E-02  0.1266605E+00
        -11   -1    0    0    0    0  0.00000000000E+00  0.00000000000E+00  0.45593999997E+02  0.45594000000E+02  0.51100000000E-03 0.  1.
         11   -1    0    0    0    0 -0.00000000000E+00 -0.00000000000E+00 -0.45593999997E+02  0.45594000000E+02  0.51100000000E-03 0. -1.
    9900012    2    1    2    0    0  0.10941401633E+02  0.56665604144E+01 -0.29409128928E+02  0.59301936572E+02  0.49999986403E+02 0.  0.
        -12    1    1    2    0    0 -0.10941401633E+02 -0.56665604144E+01  0.29409128928E+02  0.31886063428E+02  0.00000000000E+00 0.  1.
         11    1    3    3    0    0 -0.20740826037E+01  0.61562737794E+01 -0.22951572143E+02  0.23853221786E+02  0.51100000000E-03 0. -1.
        -11    1    3    3    0    0  0.99378904539E+01  0.10448047353E+01 -0.19526520578E+02  0.21934864708E+02  0.51100000000E-03 0.  1.
        -12    1    3    3    0    0  0.30775937832E+01 -0.15345181003E+01  0.13068963793E+02  0.13513850078E+02  0.00000000000E+00 0.  1.
</event>
<event>
 7    1  0.3528441E-013  0.5930195E+02  0.7816164E-02  0.1266605E+00
        -11   -1    0    0    0    0  0.00000000000E+00  0.00000000000E+00  0.45593999997E+02  0.45594000000E+02  0.51100000000E-03 0.  1.
         11   -1    0    0    0    0 -0.00000000000E+00 -0.00000000000E+00 -0.45593999997E+02  0.45594000000E+02  0.51100000000E-03 0. -1.
    9900012    2    1    2    0    0  0.20065164315E+02  0.12309675123E+02 -0.21507708838E+02  0.59301945680E+02  0.50000003014E+02 0.  0.
        -12    1    1    2    0    0 -0.20065164315E+02 -0.12309675123E+02  0.21507708838E+02  0.31886054320E+02  0.00000000000E+00 0.  1.
         11    1    3    3    0    0 -0.97235642110E+01  0.44267536002E+01 -0.43361444539E+01  0.11530221047E+02  0.51100000000E-03 0. -1.
        -11    1    3    3    0    0 -0.59548032896E+00  0.92416269072E+01  0.46268063577E+01  0.10352275211E+02  0.51100000000E-03 0.  1.
        -12    1    3    3    0    0  0.30384208855E+02 -0.13587053842E+01 -0.21798370742E+02  0.37419449422E+02  0.00000000000E+00 0.  1.
</event>
<event>
 7    1  0.3528441E-013  0.5930193E+02  0.7816164E-02  0.1266605E+00
        -11   -1    0    0    0    0  0.00000000000E+00  0.00000000000E+00  0.45593999997E+02  0.45594000000E+02  0.51100000000E-03 0. -1.
         11   -1    0    0    0    0 -0.00000000000E+00 -0.00000000000E+00 -0.45593999997E+02  0.45594000000E+02  0.51100000000E-03 0.  1.
    9900012    2    1    2    0    0 -0.65780900439E+01  0.26660351081E+02  0.16207271404E+02  0.59301933533E+02  0.49999980861E+02 0.  0.
        -12    1    1    2    0    0  0.65780900439E+01 -0.26660351081E+02 -0.16207271404E+02  0.31886066467E+02  0.00000000000E+00 0.  1.
         11    1    3    3    0    0 -0.31353560403E+01  0.59016310490E+01  0.28066593849E+01  0.72482441806E+01  0.51100000000E-03 0. -1.
        -11    1    3    3    0    0 -0.23102490360E+02  0.97005191256E+01 -0.13660387924E+01  0.25093648487E+02  0.51100000000E-03 0.  1.
        -12    1    3    3    0    0  0.19659756357E+02  0.11058200906E+02  0.14766650811E+02  0.26960040865E+02  0.00000000000E+00 0.  1.
</event>
<event>
 7    1  0.3528441E-013  0.5930189E+02  0.7816164E-02  0.1266605E+00
        -11   -1    0    0    0    0  0.00000000000E+00  0.00000000000E+00  0.45593999997E+02  0.45594000000E+02  0.51100000000E-03 0. -1.
         11   -1    0    0    0    0 -0.00000000000E+00 -0.00000000000E+00 -0.45593999997E+02  0.45594000000E+02  0.51100000000E-03 0.  1.
    9900012    2    1    2    0    0  0.24213451285E+01 -0.31507040683E+02 -0.42623207869E+01  0.59301891687E+02  0.49999904544E+02 0.  0.
        -12    1    1    2    0    0 -0.24213451285E+01  0.31507040683E+02  0.42623207869E+01  0.31886108313E+02  0.00000000000E+00 0.  1.
         11    1    3    3    0    0  0.31042668631E+01 -0.15602167440E+00  0.28595617901E+01  0.42234949287E+01  0.51100000000E-03 0. -1.
        -11    1    3    3    0    0  0.35948120175E+01 -0.14846633105E+01  0.16379083613E+02  0.16834526392E+02  0.51100000000E-03 0.  1.
         12    1    3    3    0    0 -0.42777337521E+01 -0.29866355698E+02 -0.23500966190E+02  0.38243870366E+02  0.00000000000E+00 0. -1.
</event>
<event>
 7    1  0.3528441E-013  0.5930196E+02  0.7816164E-02  0.1266605E+00
        -11   -1    0    0    0    0  0.00000000000E+00  0.00000000000E+00  0.45593999997E+02  0.45594000000E+02  0.51100000000E-03 0. -1.
         11   -1    0    0    0    0 -0.00000000000E+00 -0.00000000000E+00 -0.45593999997E+02  0.45594000000E+02  0.51100000000E-03 0.  1.
    9900012    2    1    2    0    0 -0.23891904513E+02  0.84829734936E+01  0.19337411138E+02  0.59301962145E+02  0.50000033042E+02 0.  0.
        -12    1    1    2    0    0  0.23891904513E+02 -0.84829734936E+01 -0.19337411138E+02  0.31886037855E+02  0.00000000000E+00 0.  1.
         11    1    3    3    0    0 -0.17505300225E+02 -0.45409990756E+01  0.16987352692E+02  0.24811818964E+02  0.51100000000E-03 0. -1.
        -11    1    3    3    0    0 -0.95233910979E+01  0.21362013052E+02  0.70363394417E+01  0.24424181719E+02  0.51100000000E-03 0.  1.
        -12    1    3    3    0    0  0.31367868092E+01 -0.83380404828E+01 -0.46862809965E+01  0.10065961462E+02  0.00000000000E+00 0.  1.
</event>
<event>
 7    1  0.3528441E-013  0.5930190E+02  0.7816164E-02  0.1266605E+00
        -11   -1    0    0    0    0  0.00000000000E+00  0.00000000000E+00  0.45593999997E+02  0.45594000000E+02  0.51100000000E-03 0.  1.
         11   -1    0    0    0    0 -0.00000000000E+00 -0.00000000000E+00 -0.45593999997E+02  0.45594000000E+02  0.51100000000E-03 0. -1.
    9900012    2    1    2    0    0 -0.16389286879E+02  0.26920074548E+01 -0.27218886017E+02  0.59301899822E+02  0.49999919379E+02 0.  0.
        -12    1    1    2    0    0  0.16389286879E+02 -0.26920074548E+01  0.27218886017E+02  0.31886100178E+02  0.00000000000E+00 0.  1.
         11    1    3    3    0    0 -0.13264976192E+01 -0.15468513621E+01 -0.24473319725E+02  0.24558007323E+02  0.51100000000E-03 0. -1.
        -11    1    3    3    0    0  0.89103163825E+01 -0.25047162300E+01  0.17996010982E+01  0.94289928307E+01  0.51100000000E-03 0.  1.
         12    1    3    3    0    0 -0.23973105643E+02  0.67435750470E+01 -0.45451673905E+01  0.25314899668E+02  0.00000000000E+00 0. -1.
</event>
<event>
 7    1  0.3528441E-013  0.5930192E+02  0.7816164E-02  0.1266605E+00
        -11   -1    0    0    0    0  0.00000000000E+00  0.00000000000E+00  0.45593999997E+02  0.45594000000E+02  0.51100000000E-03 0. -1.
         11   -1    0    0    0    0 -0.00000000000E+00 -0.00000000000E+00 -0.45593999997E+02  0.45594000000E+02  0.51100000000E-03 0.  1.
    9900012    2    1    2    0    0  0.29198638487E+02 -0.65554561047E+01  0.11008536879E+02  0.59301915598E+02  0.49999948152E+02 0.  0.
        -12    1    1    2    0    0 -0.29198638487E+02  0.65554561047E+01 -0.11008536879E+02  0.31886084402E+02  0.00000000000E+00 0.  1.
         11    1    3    3    0    0  0.42641930052E+01 -0.14065182310E+02  0.87747603205E+01  0.17117509000E+02  0.51100000000E-03 0. -1.
        -11    1    3    3    0    0  0.61222121953E+00  0.80656233934E+01 -0.11642564509E+02  0.14176685231E+02  0.51100000000E-03 0.  1.
         12    1    3    3    0    0  0.24322224263E+02 -0.55589718767E+00  0.13876341067E+02  0.28007721367E+02  0.00000000000E+00 0. -1.
</event>
<event>
 7    1  0.3528441E-013  0.5930196E+02  0.7816164E-02  0.1266605E+00
        -11   -1    0    0    0    0  0.00000000000E+00  0.00000000000E+00  0.45593999997E+02  0.45594000000E+02  0.51100000000E-03 0. -1.
         11   -1    0    0    0    0 -0.00000000000E+00 -0.00000000000E+00 -0.45593999997E+02  0.45594000000E+02  0.51100000000E-03 0.  1.
    9900012    2    1    2    0    0  0.36599816247E+01  0.23140260392E+02  0.21629900067E+02  0.59301957702E+02  0.50000024939E+02 0.  0.
        -12    1    1    2    0    0 -0.36599816247E+01 -0.23140260392E+02 -0.21629900067E+02  0.31886042298E+02  0.00000000000E+00 0.  1.
         11    1    3    3    0    0  0.30915080064E+01  0.92055299582E+01 -0.71663523682E+01  0.12068794890E+02  0.51100000000E-03 0. -1.
        -11    1    3    3    0    0  0.27199730472E+01  0.24274977137E+02  0.11573698282E+02  0.27030043666E+02  0.51100000000E-03 0.  1.
         12    1    3    3    0    0 -0.21514994289E+01 -0.10340246703E+02  0.17222554154E+02  0.20203119147E+02  0.00000000000E+00 0. -1.
</event>
<event>
 7    1  0.3528441E-013  0.5930193E+02  0.7816164E-02  0.1266605E+00
        -11   -1    0    0    0    0  0.00000000000E+00  0.00000000000E+00  0.45593999997E+02  0.45594000000E+02  0.51100000000E-03 0. -1.
         11   -1    0    0    0    0 -0.00000000000E+00 -0.00000000000E+00 -0.45593999997E+02  0.45594000000E+02  0.51100000000E-03 0.  1.
    9900012    2    1    2    0    0 -0.34613050049E+01  0.27944500584E+02  0.14961470656E+02  0.59301931735E+02  0.49999977580E+02 0.  0.
        -12    1    1    2    0    0  0.34613050049E+01 -0.27944500584E+02 -0.14961470656E+02  0.31886068265E+02  0.00000000000E+00 0.  1.
         11    1    3    3    0    0 -0.76639058706E+01  0.12247326204E+02  0.80278044839E+01  0.16528100236E+02  0.51100000000E-03 0. -1.
        -11    1    3    3    0    0 -0.15340154820E+01  0.16183308769E+02 -0.13757874668E+02  0.21296286105E+02  0.51100000000E-03 0.  1.
         12    1    3    3    0    0  0.57366163477E+01 -0.48613438885E+00  0.20691540840E+02  0.21477545393E+02  0.00000000000E+00 0. -1.
</event>
<event>
 7    1  0.3528441E-013  0.5930194E+02  0.7816164E-02  0.1266605E+00
        -11   -1    0    0    0    0  0.00000000000E+00  0.00000000000E+00  0.45593999997E+02  0.45594000000E+02  0.51100000000E-03 0.  1.
         11   -1    0    0    0    0 -0.00000000000E+00 -0.00000000000E+00 -0.45593999997E+02  0.45594000000E+02  0.51100000000E-03 0. -1.
    9900012    2    1    2    0    0  0.19347640508E+01  0.23800301528E+02 -0.21131092320E+02  0.59301941488E+02  0.49999995369E+02 0.  0.
        -12    1    1    2    0    0 -0.19347640508E+01 -0.23800301528E+02  0.21131092320E+02  0.31886058512E+02  0.00000000000E+00 0.  1.
         11    1    3    3    0    0 -0.10676271153E+02  0.12211863271E+02 -0.90531328221E+01  0.18576102509E+02  0.51100000000E-03 0. -1.
        -11    1    3    3    0    0 -0.51327136227E+01  0.12715869085E+02  0.63566376245E+01  0.15114394393E+02  0.51100000000E-03 0.  1.
        -12    1    3    3    0    0  0.17743748827E+02 -0.11274308276E+01 -0.18434597122E+02  0.25611444586E+02  0.00000000000E+00 0.  1.
</event>
<event>
 7    1  0.3528441E-013  0.5930194E+02  0.7816164E-02  0.1266605E+00
        -11   -1    0    0    0    0  0.00000000000E+00  0.00000000000E+00  0.45593999997E+02  0.45594000000E+02  0.51100000000E-03 0.  1.
         11   -1    0    0    0    0 -0.00000000000E+00 -0.00000000000E+00 -0.45593999997E+02  0.45594000000E+02  0.51100000000E-03 0. -1.
    9900012    2    1    2    0    0  0.21963878827E+02 -0.18914403415E+02  0.13287358921E+02  0.59301944477E+02  0.50000000820E+02 0.  0.
        -12    1    1    2    0    0 -0.21963878827E+02  0.18914403415E+02 -0.13287358921E+02  0.31886055523E+02  0.00000000000E+00 0.  1.
         11    1    3    3    0    0  0.70429563720E+01 -0.10789300940E+02  0.43422435805E+01  0.13596592544E+02  0.51100000000E-03 0. -1.
        -11    1    3    3    0    0 -0.11814712962E+01 -0.42910737426E+01  0.23345198612E+02  0.23765678757E+02  0.51100000000E-03 0.  1.
         12    1    3    3    0    0  0.16102393751E+02 -0.38340287321E+01 -0.14400083271E+02  0.21939673176E+02  0.00000000000E+00 0. -1.
</event>
<event>
 7    1  0.3528441E-013  0.5930193E+02  0.7816164E-02  0.1266605E+00
        -11   -1    0    0    0    0  0.00000000000E+00  0.00000000000E+00  0.45593999997E+02  0.45594000000E+02  0.51100000000E-03 0.  1.
         11   -1    0    0    0    0 -0.00000000000E+00 -0.00000000000E+00 -0.45593999997E+02  0.45594000000E+02  0.51100000000E-03 0. -1.
    9900012    2    1    2    0    0 -0.28759716423E+02 -0.13752203208E+02  0.69048605476E+00  0.59301934818E+02  0.49999983203E+02 0.  0.
        -12    1    1    2    0    0  0.28759716423E+02  0.13752203208E+02 -0.69048605476E+00  0.31886065182E+02  0.00000000000E+00 0.  1.
         11    1    3    3    0    0 -0.19799159215E+01 -0.26232983831E+00 -0.10401089500E+01  0.22518239028E+01  0.51100000000E-03 0. -1.
        -11    1    3    3    0    0 -0.83356885012E+01  0.18144884062E+02  0.39855591122E+01  0.20361856549E+02  0.51100000000E-03 0.  1.
        -12    1    3    3    0    0 -0.18444112000E+02 -0.31634757432E+02 -0.22549641074E+01  0.36688254366E+02  0.00000000000E+00 0.  1.
</event>
<event>
 7    1  0.3528441E-013  0.5930195E+02  0.7816164E-02  0.1266605E+00
        -11   -1    0    0    0    0  0.00000000000E+00  0.00000000000E+00  0.45593999997E+02  0.45594000000E+02  0.51100000000E-03 0. -1.
         11   -1    0    0    0    0 -0.00000000000E+00 -0.00000000000E+00 -0.45593999997E+02  0.45594000000E+02  0.51100000000E-03 0.  1.
    9900012    2    1    2    0    0  0.17357302532E+02 -0.25941862479E+02  0.65164350506E+01  0.59301951235E+02  0.50000013145E+02 0.  0.
        -12    1    1    2    0    0 -0.17357302532E+02  0.25941862479E+02 -0.65164350506E+01  0.31886048765E+02  0.00000000000E+00 0.  1.
         11    1    3    3    0    0 -0.18417144084E+01 -0.13654622592E+02  0.12438936495E+02  0.18562536773E+02  0.51100000000E-03 0. -1.
        -11    1    3    3    0    0  0.44820911264E+01 -0.21598702608E+02 -0.73865579629E+01  0.23262724131E+02  0.51100000000E-03 0.  1.
         12    1    3    3    0    0  0.14716925814E+02  0.93114627212E+01  0.14640565187E+01  0.17476690331E+02  0.00000000000E+00 0. -1.
</event>
<event>
 7    1  0.3528441E-013  0.5930193E+02  0.7816164E-02  0.1266605E+00
        -11   -1    0    0    0    0  0.00000000000E+00  0.00000000000E+00  0.45593999997E+02  0.45594000000E+02  0.51100000000E-03 0. -1.
         11   -1    0    0    0    0 -0.00000000000E+00 -0.00000000000E+00 -0.45593999997E+02  0.45594000000E+02  0.51100000000E-03 0.  1.
    9900012    2    1    2    0    0 -0.32192835831E+01  0.25449227874E+02  0.18939228438E+02  0.59301931569E+02  0.49999977278E+02 0.  0.
        -12    1    1    2    0    0  0.32192835831E+01 -0.25449227874E+02 -0.18939228438E+02  0.31886068431E+02  0.00000000000E+00 0.  1.
         11    1    3    3    0    0  0.19440207187E+02  0.16591457082E+02  0.15106008379E+02  0.29688206294E+02  0.51100000000E-03 0. -1.
        -11    1    3    3    0    0 -0.29647345488E+01  0.90724053624E+01 -0.19316121380E-01  0.95445567408E+01  0.51100000000E-03 0.  1.
         12    1    3    3    0    0 -0.19694756221E+02 -0.21463457017E+00  0.38525361804E+01  0.20069168534E+02  0.00000000000E+00 0. -1.
</event>
<event>
 7    1  0.3528441E-013  0.5930193E+02  0.7816164E-02  0.1266605E+00
        -11   -1    0    0    0    0  0.00000000000E+00  0.00000000000E+00  0.45593999997E+02  0.45594000000E+02  0.51100000000E-03 0.  1.
         11   -1    0    0    0    0 -0.00000000000E+00 -0.00000000000E+00 -0.45593999997E+02  0.45594000000E+02  0.51100000000E-03 0. -1.
    9900012    2    1    2    0    0 -0.29700511240E+02  0.58885554858E+01 -0.99962856976E+01  0.59301934370E+02  0.49999982387E+02 0.  0.
        -12    1    1    2    0    0  0.29700511240E+02 -0.58885554858E+01  0.99962856976E+01  0.31886065630E+02  0.00000000000E+00 0.  1.
         11    1    3    3    0    0 -0.18891637957E-01 -0.10955787328E+02 -0.16271684878E+00  0.10957011906E+02  0.51100000000E-03 0.  1.
        -11    1    3    3    0    0 -0.18754720665E+02 -0.44254146777E+01 -0.14329359377E+02  0.24013629103E+02  0.51100000000E-03 0. -1.
        -12    1    3    3    0    0 -0.10926898936E+02  0.21269757492E+02  0.44957905279E+01  0.24331293361E+02  0.00000000000E+00 0.  1.
</event>
<event>
 7    1  0.3528441E-013  0.5930194E+02  0.7816164E-02  0.1266605E+00
        -11   -1    0    0    0    0  0.00000000000E+00  0.00000000000E+00  0.45593999997E+02  0.45594000000E+02  0.51100000000E-03 0.  1.
         11   -1    0    0    0    0 -0.00000000000E+00 -0.00000000000E+00 -0.45593999997E+02  0.45594000000E+02  0.51100000000E-03 0. -1.
    9900012    2    1    2    0    0  0.17453299420E+00  0.31090276546E+02 -0.70770685075E+01  0.59301942606E+02  0.49999997407E+02 0.  0.
        -12    1    1    2    0    0 -0.17453299420E+00 -0.31090276546E+02  0.70770685075E+01  0.31886057394E+02  0.00000000000E+00 0.  1.
         11    1    3    3    0    0 -0.68595028438E+01  0.97410222252E+01 -0.14429535075E+02  0.18712342878E+02  0.51100000000E-03 0. -1.
        -11    1    3    3    0    0  0.11169396233E+02  0.29078961257E+02  0.55951373705E+01  0.31648806652E+02  0.51100000000E-03 0.  1.
         12    1    3    3    0    0 -0.41353603948E+01 -0.77297069366E+01  0.17573291970E+01  0.89407930760E+01  0.00000000000E+00 0. -1.
</event>
<event>
 7    1  0.3528441E-013  0.5930193E+02  0.7816164E-02  0.1266605E+00
        -11   -1    0    0    0    0  0.00000000000E+00  0.00000000000E+00  0.45593999997E+02  0.45594000000E+02  0.51100000000E-03 0.  1.
         11   -1    0    0    0    0 -0.00000000000E+00 -0.00000000000E+00 -0.45593999997E+02  0.45594000000E+02  0.51100000000E-03 0. -1.
    9900012    2    1    2    0    0  0.60180407505E+01 -0.17435559543E+02 -0.26009731309E+02  0.59301926648E+02  0.49999968303E+02 0.  0.
        -12    1    1    2    0    0 -0.60180407505E+01  0.17435559543E+02  0.26009731309E+02  0.31886073352E+02  0.00000000000E+00 0.  1.
         11    1    3    3    0    0 -0.21411924706E+01 -0.53576786404E+01  0.59938867352E+01  0.83196216299E+01  0.51100000000E-03 0. -1.
        -11    1    3    3    0    0 -0.21782499986E+00  0.89754181674E+00  0.80247260159E+01  0.80777012160E+01  0.51100000000E-03 0.  1.
         12    1    3    3    0    0  0.83770582210E+01 -0.12975422720E+02 -0.40028344060E+02  0.42904603802E+02  0.00000000000E+00 0. -1.
</event>
<event>
 7    1  0.4191541E-013  0.5930194E+02  0.7816164E-02  0.1266605E+00
        -11   -1    0    0    0    0  0.00000000000E+00  0.00000000000E+00  0.45593999997E+02  0.45594000000E+02  0.51100000000E-03 0. -1.
         11   -1    0    0    0    0 -0.00000000000E+00 -0.00000000000E+00 -0.45593999997E+02  0.45594000000E+02  0.51100000000E-03 0.  1.
    9900012    2    1    2    0    0 -0.14271024518E+02 -0.27660436667E+01  0.28379707810E+02  0.59301937940E+02  0.49999988897E+02 0.  0.
        -12    1    1    2    0    0  0.14271024518E+02  0.27660436667E+01 -0.28379707810E+02  0.31886062060E+02  0.00000000000E+00 0.  1.
         11    1    3    3    0    0 -0.96036311998E+01 -0.61874287411E+01  0.31989474215E+02  0.33968227323E+02  0.51100000000E-03 0. -1.
        -11    1    3    3    0    0 -0.13220456906E+02  0.61926827330E+01  0.20015116457E+01  0.14735530169E+02  0.51100000000E-03 0.  1.
        -12    1    3    3    0    0  0.85530635881E+01 -0.27712976585E+01 -0.56112780506E+01  0.10598180448E+02  0.00000000000E+00 0.  1.
</event>
<event>
 7    1  0.3528441E-013  0.5930195E+02  0.7816164E-02  0.1266605E+00
        -11   -1    0    0    0    0  0.00000000000E+00  0.00000000000E+00  0.45593999997E+02  0.45594000000E+02  0.51100000000E-03 0.  1.
         11   -1    0    0    0    0 -0.00000000000E+00 -0.00000000000E+00 -0.45593999997E+02  0.45594000000E+02  0.51100000000E-03 0. -1.
    9900012    2    1    2    0    0 -0.30025898095E+02  0.35094306800E+01 -0.10141487451E+02  0.59301946186E+02  0.50000003936E+02 0.  0.
        -12    1    1    2    0    0  0.30025898095E+02 -0.35094306800E+01  0.10141487451E+02  0.31886053814E+02  0.00000000000E+00 0.  1.
         11    1    3    3    0    0  0.71602243995E+01  0.38551617157E+01 -0.36279191525E+01  0.89046551278E+01  0.51100000000E-03 0. -1.
        -11    1    3    3    0    0  0.27891098773E+01  0.81336956063E+01  0.15700608641E+01  0.87407796850E+01  0.51100000000E-03 0.  1.
         12    1    3    3    0    0 -0.39975232372E+02 -0.84794266420E+01 -0.80836291621E+01  0.41656511373E+02  0.00000000000E+00 0. -1.
</event>
<event>
 7    1  0.3528441E-013  0.5930195E+02  0.7816164E-02  0.1266605E+00
        -11   -1    0    0    0    0  0.00000000000E+00  0.00000000000E+00  0.45593999997E+02  0.45594000000E+02  0.51100000000E-03 0. -1.
         11   -1    0    0    0    0 -0.00000000000E+00 -0.00000000000E+00 -0.45593999997E+02  0.45594000000E+02  0.51100000000E-03 0.  1.
    9900012    2    1    2    0    0 -0.11849452024E+02  0.83601474615E+00  0.29590735348E+02  0.59301952074E+02  0.50000014674E+02 0.  0.
        -12    1    1    2    0    0  0.11849452024E+02 -0.83601474615E+00 -0.29590735348E+02  0.31886047926E+02  0.00000000000E+00 0.  1.
         11    1    3    3    0    0 -0.11041914591E+02  0.12440569241E+02  0.22775062412E+02  0.28202750025E+02  0.51100000000E-03 0. -1.
        -11    1    3    3    0    0 -0.53775381178E+01  0.50984894415E+01  0.11019430732E+02  0.13279320943E+02  0.51100000000E-03 0.  1.
        -12    1    3    3    0    0  0.45700006850E+01 -0.16703043936E+02 -0.42037577963E+01  0.17819881105E+02  0.00000000000E+00 0.  1.
</event>
<event>
 7    1  0.3528441E-013  0.5930194E+02  0.7816164E-02  0.1266605E+00
        -11   -1    0    0    0    0  0.00000000000E+00  0.00000000000E+00  0.45593999997E+02  0.45594000000E+02  0.51100000000E-03 0. -1.
         11   -1    0    0    0    0 -0.00000000000E+00 -0.00000000000E+00 -0.45593999997E+02  0.45594000000E+02  0.51100000000E-03 0.  1.
    9900012    2    1    2    0    0 -0.92168521036E+01 -0.16514046775E+02  0.25672099580E+02  0.59301940344E+02  0.49999993281E+02 0.  0.
        -12    1    1    2    0    0  0.92168521036E+01  0.16514046775E+02 -0.25672099580E+02  0.31886059656E+02  0.00000000000E+00 0.  1.
         11    1    3    3    0    0  0.60223325498E+01 -0.18383713141E+02  0.13929553054E+02  0.23838243365E+02  0.51100000000E-03 0. -1.
        -11    1    3    3    0    0  0.90371450848E+01  0.69719750359E+00  0.20187335989E+01  0.92860842796E+01  0.51100000000E-03 0.  1.
         12    1    3    3    0    0 -0.24276329738E+02  0.11724688623E+01  0.97238129265E+01  0.26177612699E+02  0.00000000000E+00 0. -1.
</event>
<event>
 7    1  0.3528441E-013  0.5930195E+02  0.7816164E-02  0.1266605E+00
        -11   -1    0    0    0    0  0.00000000000E+00  0.00000000000E+00  0.45593999997E+02  0.45594000000E+02  0.51100000000E-03 0. -1.
         11   -1    0    0    0    0 -0.00000000000E+00 -0.00000000000E+00 -0.45593999997E+02  0.45594000000E+02  0.51100000000E-03 0.  1.
    9900012    2    1    2    0    0  0.29499219405E+02  0.65931827505E+01  0.10151164674E+02  0.59301950566E+02  0.50000011925E+02 0.  0.
        -12    1    1    2    0    0 -0.29499219405E+02 -0.65931827505E+01 -0.10151164674E+02  0.31886049434E+02  0.00000000000E+00 0.  1.
         11    1    3    3    0    0  0.11578041680E+02  0.19591222491E+02  0.12040678099E+02  0.25745775909E+02  0.51100000000E-03 0. -1.
        -11    1    3    3    0    0  0.58104479561E+01 -0.50342033133E+01  0.11493760817E+02  0.13827908245E+02  0.51100000000E-03 0.  1.
        -12    1    3    3    0    0  0.12110729769E+02 -0.79638364273E+01 -0.13383274242E+02  0.19728266412E+02  0.00000000000E+00 0.  1.
</event>
<event>
 7    1  0.3528441E-013  0.5930195E+02  0.7816164E-02  0.1266605E+00
        -11   -1    0    0    0    0  0.00000000000E+00  0.00000000000E+00  0.45593999997E+02  0.45594000000E+02  0.51100000000E-03 0. -1.
         11   -1    0    0    0    0 -0.00000000000E+00 -0.00000000000E+00 -0.45593999997E+02  0.45594000000E+02  0.51100000000E-03 0.  1.
    9900012    2    1    2    0    0  0.17399454377E+02 -0.23529298152E+02  0.12662998339E+02  0.59301946449E+02  0.50000004415E+02 0.  0.
        -12    1    1    2    0    0 -0.17399454377E+02  0.23529298152E+02 -0.12662998339E+02  0.31886053551E+02  0.00000000000E+00 0.  1.
         11    1    3    3    0    0 -0.29030921421E+01  0.30343161445E+01 -0.71250729557E+01  0.82705310190E+01  0.51100000000E-03 0. -1.
        -11    1    3    3    0    0  0.17229315357E+01 -0.41330968938E+01 -0.90167631833E+01  0.10067422787E+02  0.51100000000E-03 0.  1.
         12    1    3    3    0    0  0.18579614983E+02 -0.22430517403E+02  0.28804834478E+02  0.40963992642E+02  0.00000000000E+00 0. -1.
</event>
<event>
 7    1  0.3528441E-013  0.5930196E+02  0.7816164E-02  0.1266605E+00
        -11   -1    0    0    0    0  0.00000000000E+00  0.00000000000E+00  0.45593999997E+02  0.45594000000E+02  0.51100000000E-03 0. -1.
         11   -1    0    0    0    0 -0.00000000000E+00 -0.00000000000E+00 -0.45593999997E+02  0.45594000000E+02  0.51100000000E-03 0.  1.
    9900012    2    1    2    0    0 -0.43688351070E+01  0.30705319729E+02  0.74037959996E+01  0.59301959558E+02  0.50000028324E+02 0.  0.
        -12    1    1    2    0    0  0.43688351070E+01 -0.30705319729E+02 -0.74037959996E+01  0.31886040442E+02  0.00000000000E+00 0.  1.
         11    1    3    3    0    0 -0.29370332985E+01  0.26566419556E+02  0.18522795379E+02  0.32519144539E+02  0.51100000000E-03 0. -1.
        -11    1    3    3    0    0  0.81551791823E+01  0.92624792275E+01 -0.18133818605E+01  0.12473524881E+02  0.51100000000E-03 0.  1.
        -12    1    3    3    0    0 -0.95869809907E+01 -0.51235790540E+01 -0.93056175192E+01  0.14309290138E+02  0.00000000000E+00 0.  1.
</event>
<event>
 7    1  0.3528441E-013  0.5930196E+02  0.7816164E-02  0.1266605E+00
        -11   -1    0    0    0    0  0.00000000000E+00  0.00000000000E+00  0.45593999997E+02  0.45594000000E+02  0.51100000000E-03 0.  1.
         11   -1    0    0    0    0 -0.00000000000E+00 -0.00000000000E+00 -0.45593999997E+02  0.45594000000E+02  0.51100000000E-03 0. -1.
    9900012    2    1    2    0    0 -0.79208631794E+01  0.13390044309E+01 -0.30857524713E+02  0.59301955438E+02  0.50000020810E+02 0.  0.
        -12    1    1    2    0    0  0.79208631794E+01 -0.13390044309E+01  0.30857524713E+02  0.31886044562E+02  0.00000000000E+00 0.  1.
         11    1    3    3    0    0  0.47533419834E+01  0.11448581959E+02  0.26820603413E+01  0.12682970347E+02  0.51100000000E-03 0. -1.
        -11    1    3    3    0    0 -0.51243574381E+01  0.19971452208E+01  0.37742840277E+01  0.66702959731E+01  0.51100000000E-03 0.  1.
         12    1    3    3    0    0 -0.75498477246E+01 -0.12106722749E+02 -0.37313869082E+02  0.39948689118E+02  0.00000000000E+00 0. -1.
</event>
<event>
 7    1  0.3528441E-013  0.5930193E+02  0.7816164E-02  0.1266605E+00
        -11   -1    0    0    0    0  0.00000000000E+00  0.00000000000E+00  0.45593999997E+02  0.45594000000E+02  0.51100000000E-03 0. -1.
         11   -1    0    0    0    0 -0.00000000000E+00 -0.00000000000E+00 -0.45593999997E+02  0.45594000000E+02  0.51100000000E-03 0.  1.
    9900012    2    1    2    0    0 -0.20316098938E+01  0.29023110992E+02  0.13048103798E+02  0.59301930579E+02  0.49999975473E+02 0.  0.
        -12    1    1    2    0    0  0.20316098938E+01 -0.29023110992E+02 -0.13048103798E+02  0.31886069421E+02  0.00000000000E+00 0.  1.
         11    1    3    3    0    0  0.81309002034E+00  0.23150839343E+02  0.29402350896E+02  0.37431547072E+02  0.51100000000E-03 0. -1.
        -11    1    3    3    0    0 -0.51168410203E+01  0.54950404720E+01 -0.26323949213E+01  0.79565718182E+01  0.51100000000E-03 0.  1.
        -12    1    3    3    0    0  0.22721411062E+01  0.37723117611E+00 -0.13721852176E+02  0.13913811689E+02  0.00000000000E+00 0.  1.
</event>
<event>
 7    1  0.3528441E-013  0.5930193E+02  0.7816164E-02  0.1266605E+00
        -11   -1    0    0    0    0  0.00000000000E+00  0.00000000000E+00  0.45593999997E+02  0.45594000000E+02  0.51100000000E-03 0. -1.
         11   -1    0    0    0    0 -0.00000000000E+00 -0.00000000000E+00 -0.45593999997E+02  0.45594000000E+02  0.51100000000E-03 0.  1.
    9900012    2    1    2    0    0  0.15640193933E+02 -0.15789926376E+02  0.22864471815E+02  0.59301929176E+02  0.49999972913E+02 0.  0.
        -12    1    1    2    0    0 -0.15640193933E+02  0.15789926376E+02 -0.22864471815E+02  0.31886070824E+02  0.00000000000E+00 0.  1.
         11    1    3    3    0    0  0.21582484282E+02 -0.48303024621E+01  0.22322587374E+02  0.31423452340E+02  0.51100000000E-03 0. -1.
        -11    1    3    3    0    0 -0.63833982380E+01 -0.14710858778E+02  0.91607903931E+01  0.18468276041E+02  0.51100000000E-03 0.  1.
        -12    1    3    3    0    0  0.44110788951E+00  0.37512348642E+01 -0.86189059519E+01  0.94102007941E+01  0.00000000000E+00 0.  1.
</event>
<event>
 7    1  0.3528441E-013  0.5930195E+02  0.7816164E-02  0.1266605E+00
        -11   -1    0    0    0    0  0.00000000000E+00  0.00000000000E+00  0.45593999997E+02  0.45594000000E+02  0.51100000000E-03 0.  1.
         11   -1    0    0    0    0 -0.00000000000E+00 -0.00000000000E+00 -0.45593999997E+02  0.45594000000E+02  0.51100000000E-03 0. -1.
    9900012    2    1    2    0    0  0.36078183276E+01 -0.23712837116E+02 -0.21009650256E+02  0.59301946606E+02  0.50000004702E+02 0.  0.
        -12    1    1    2    0    0 -0.36078183276E+01  0.23712837116E+02  0.21009650256E+02  0.31886053394E+02  0.00000000000E+00 0.  1.
         11    1    3    3    0    0  0.70200709393E+01  0.85596379634E+01 -0.10835096974E+01  0.11123074736E+02  0.51100000000E-03 0. -1.
        -11    1    3    3    0    0 -0.32317012925E+01  0.52306754972E+01 -0.45345070503E+01  0.76397391219E+01  0.51100000000E-03 0.  1.
         12    1    3    3    0    0 -0.18055131924E+00 -0.37503150576E+02 -0.15391633508E+02  0.40539132748E+02  0.00000000000E+00 0. -1.
</event>
<event>
 7    1  0.3528441E-013  0.5930193E+02  0.7816164E-02  0.1266605E+00
        -11   -1    0    0    0    0  0.00000000000E+00  0.00000000000E+00  0.45593999997E+02  0.45594000000E+02  0.51100000000E-03 0.  1.
         11   -1    0    0    0    0 -0.00000000000E+00 -0.00000000000E+00 -0.45593999997E+02  0.45594000000E+02  0.51100000000E-03 0. -1.
    9900012    2    1    2    0    0 -0.26490443401E+02 -0.69846648301E+01 -0.16315400683E+02  0.59301930411E+02  0.49999975166E+02 0.  0.
        -12    1    1    2    0    0  0.26490443401E+02  0.69846648301E+01  0.16315400683E+02  0.31886069589E+02  0.00000000000E+00 0.  1.
         11    1    3    3    0    0 -0.12458808835E+02  0.14018361228E+02 -0.44710939368E+01  0.19280224334E+02  0.51100000000E-03 0. -1.
        -11    1    3    3    0    0 -0.17834909986E+02 -0.11917239917E+02 -0.18341109299E+02  0.28222347742E+02  0.51100000000E-03 0.  1.
        -12    1    3    3    0    0  0.38032754200E+01 -0.90857861408E+01  0.64968025529E+01  0.11799358335E+02  0.00000000000E+00 0.  1.
</event>
<event>
 7    1  0.3528441E-013  0.5930194E+02  0.7816164E-02  0.1266605E+00
        -11   -1    0    0    0    0  0.00000000000E+00  0.00000000000E+00  0.45593999997E+02  0.45594000000E+02  0.51100000000E-03 0.  1.
         11   -1    0    0    0    0 -0.00000000000E+00 -0.00000000000E+00 -0.45593999997E+02  0.45594000000E+02  0.51100000000E-03 0. -1.
    9900012    2    1    2    0    0 -0.15803520426E+02 -0.26008671213E+02 -0.95141382663E+01  0.59301936225E+02  0.49999985770E+02 0.  0.
        -12    1    1    2    0    0  0.15803520426E+02  0.26008671213E+02  0.95141382663E+01  0.31886063775E+02  0.00000000000E+00 0.  1.
         11    1    3    3    0    0  0.21227008496E+01 -0.14150245904E+01  0.56599092758E+01  0.62082788887E+01  0.51100000000E-03 0. -1.
        -11    1    3    3    0    0  0.42236354889E+01 -0.27473782255E+02 -0.38854199307E+01  0.28066782795E+02  0.51100000000E-03 0.  1.
         12    1    3    3    0    0 -0.22149856765E+02  0.28801356330E+01 -0.11288627611E+02  0.25026874541E+02  0.00000000000E+00 0. -1.
</event>
<event>
 7    1  0.3528441E-013  0.5930195E+02  0.7816164E-02  0.1266605E+00
        -11   -1    0    0    0    0  0.00000000000E+00  0.00000000000E+00  0.45593999997E+02  0.45594000000E+02  0.51100000000E-03 0.  1.
         11   -1    0    0    0    0 -0.00000000000E+00 -0.00000000000E+00 -0.45593999997E+02  0.45594000000E+02  0.51100000000E-03 0. -1.
    9900012    2    1    2    0    0  0.15903256055E+02  0.14478005604E+02 -0.23541322511E+02  0.59301951876E+02  0.50000014313E+02 0.  0.
        -12    1    1    2    0    0 -0.15903256055E+02 -0.14478005604E+02  0.23541322511E+02  0.31886048124E+02  0.00000000000E+00 0.  1.
         11    1    3    3    0    0 -0.33956846743E+01  0.21372623627E+01  0.99811227682E+01  0.10757387080E+02  0.51100000000E-03 0. -1.
        -11    1    3    3    0    0 -0.16911764569E+01  0.24727160964E+01  0.36546938415E+01  0.47255888562E+01  0.51100000000E-03 0.  1.
         12    1    3    3    0    0  0.20990117186E+02  0.98680271447E+01 -0.37177139121E+02  0.43818975940E+02  0.00000000000E+00 0. -1.
</event>
<event>
 7    1  0.3528441E-013  0.5930196E+02  0.7816164E-02  0.1266605E+00
        -11   -1    0    0    0    0  0.00000000000E+00  0.00000000000E+00  0.45593999997E+02  0.45594000000E+02  0.51100000000E-03 0. -1.
         11   -1    0    0    0    0 -0.00000000000E+00 -0.00000000000E+00 -0.45593999997E+02  0.45594000000E+02  0.51100000000E-03 0.  1.
    9900012    2    1    2    0    0  0.17605771239E+02  0.16273564800E+02  0.21022076603E+02  0.59301956079E+02  0.50000021980E+02 0.  0.
        -12    1    1    2    0    0 -0.17605771239E+02 -0.16273564800E+02 -0.21022076603E+02  0.31886043921E+02  0.00000000000E+00 0.  1.
         11    1    3    3    0    0  0.12617044776E+02 -0.68566683836E+01  0.49933413515E+01  0.15203196319E+02  0.51100000000E-03 0.  1.
        -11    1    3    3    0    0  0.11779415129E+02 -0.15662343016E+01  0.14061666519E+02  0.18410273659E+02  0.51100000000E-03 0. -1.
         12    1    3    3    0    0 -0.67906886655E+01  0.24696467485E+02  0.19670687325E+01  0.25688486101E+02  0.00000000000E+00 0. -1.
</event>
<event>
 7    1  0.3528441E-013  0.5930195E+02  0.7816164E-02  0.1266605E+00
        -11   -1    0    0    0    0  0.00000000000E+00  0.00000000000E+00  0.45593999997E+02  0.45594000000E+02  0.51100000000E-03 0.  1.
         11   -1    0    0    0    0 -0.00000000000E+00 -0.00000000000E+00 -0.45593999997E+02  0.45594000000E+02  0.51100000000E-03 0. -1.
    9900012    2    1    2    0    0  0.23732915138E+02  0.19815866031E+02 -0.77974499212E+01  0.59301952380E+02  0.50000015233E+02 0.  0.
        -12    1    1    2    0    0 -0.23732915138E+02 -0.19815866031E+02  0.77974499212E+01  0.31886047620E+02  0.00000000000E+00 0.  1.
         11    1    3    3    0    0  0.93110227678E+01 -0.25906582482E+01  0.31570847043E+01  0.10167292621E+02  0.51100000000E-03 0. -1.
        -11    1    3    3    0    0  0.88136588656E+00  0.14359430355E+02  0.13707846224E+02  0.19871464322E+02  0.51100000000E-03 0.  1.
        -12    1    3    3    0    0  0.13540526484E+02  0.80470939246E+01 -0.24662380849E+02  0.29263195438E+02  0.00000000000E+00 0.  1.
</event>
<event>
 7    1  0.3528441E-013  0.5930202E+02  0.7816164E-02  0.1266605E+00
        -11   -1    0    0    0    0  0.00000000000E+00  0.00000000000E+00  0.45593999997E+02  0.45594000000E+02  0.51100000000E-03 0.  1.
         11   -1    0    0    0    0 -0.00000000000E+00 -0.00000000000E+00 -0.45593999997E+02  0.45594000000E+02  0.51100000000E-03 0. -1.
    9900012    2    1    2    0    0 -0.28033960464E+02  0.10340348148E+02 -0.11130599974E+02  0.59302015698E+02  0.50000130709E+02 0.  0.
        -12    1    1    2    0    0  0.28033960464E+02 -0.10340348148E+02  0.11130599974E+02  0.31885984302E+02  0.00000000000E+00 0.  1.
         11    1    3    3    0    0 -0.26009167388E+02 -0.44478840305E+01 -0.11166943781E+02  0.28652418645E+02  0.51100000000E-03 0. -1.
        -11    1    3    3    0    0 -0.10485564396E+02 -0.26170683855E+01 -0.26068192927E+01  0.11117176563E+02  0.51100000000E-03 0.  1.
        -12    1    3    3    0    0  0.84607713197E+01  0.17405300564E+02  0.26431630994E+01  0.19532420490E+02  0.00000000000E+00 0.  1.
</event>
<event>
 7    1  0.3528441E-013  0.5930196E+02  0.7816164E-02  0.1266605E+00
        -11   -1    0    0    0    0  0.00000000000E+00  0.00000000000E+00  0.45593999997E+02  0.45594000000E+02  0.51100000000E-03 0. -1.
         11   -1    0    0    0    0 -0.00000000000E+00 -0.00000000000E+00 -0.45593999997E+02  0.45594000000E+02  0.51100000000E-03 0.  1.
    9900012    2    1    2    0    0  0.11830520503E+02  0.17914167193E+02  0.23576277329E+02  0.59301961452E+02  0.50000031778E+02 0.  0.
        -12    1    1    2    0    0 -0.11830520503E+02 -0.17914167193E+02 -0.23576277329E+02  0.31886038548E+02  0.00000000000E+00 0.  1.
         11    1    3    3    0    0  0.75083211156E+01 -0.79324181698E+01 -0.17820340439E+01  0.11066787682E+02  0.51100000000E-03 0.  1.
        -11    1    3    3    0    0  0.83300535957E+00  0.26085982386E+02  0.31658300440E+02  0.41029505992E+02  0.51100000000E-03 0. -1.
         12    1    3    3    0    0  0.34891940276E+01 -0.23939702332E+00 -0.62999890663E+01  0.72056677784E+01  0.00000000000E+00 0. -1.
</event>
<event>
 7    1  0.3528441E-013  0.5930194E+02  0.7816164E-02  0.1266605E+00
        -11   -1    0    0    0    0  0.00000000000E+00  0.00000000000E+00  0.45593999997E+02  0.45594000000E+02  0.51100000000E-03 0.  1.
         11   -1    0    0    0    0 -0.00000000000E+00 -0.00000000000E+00 -0.45593999997E+02  0.45594000000E+02  0.51100000000E-03 0. -1.
    9900012    2    1    2    0    0 -0.17859163590E+02  0.16713279754E+02 -0.20455739017E+02  0.59301941871E+02  0.49999996067E+02 0.  0.
        -12    1    1    2    0    0  0.17859163590E+02 -0.16713279754E+02  0.20455739017E+02  0.31886058129E+02  0.00000000000E+00 0.  1.
         11    1    3    3    0    0 -0.62645291166E+00  0.17566108716E+02 -0.45006329221E+01  0.18144319101E+02  0.51100000000E-03 0. -1.
        -11    1    3    3    0    0  0.21091157070E+00  0.42339313518E+01 -0.21692750565E+02  0.22103078648E+02  0.51100000000E-03 0.  1.
        -12    1    3    3    0    0 -0.17443622249E+02 -0.50867603138E+01  0.57376444702E+01  0.19054544123E+02  0.00000000000E+00 0.  1.
</event>
<event>
 7    1  0.3528441E-013  0.5930186E+02  0.7816164E-02  0.1266605E+00
        -11   -1    0    0    0    0  0.00000000000E+00  0.00000000000E+00  0.45593999997E+02  0.45594000000E+02  0.51100000000E-03 0. -1.
         11   -1    0    0    0    0 -0.00000000000E+00 -0.00000000000E+00 -0.45593999997E+02  0.45594000000E+02  0.51100000000E-03 0.  1.
    9900012    2    1    2    0    0  0.19087240529E+02  0.40185913349E+01  0.25224074750E+02  0.59301862349E+02  0.49999851037E+02 0.  0.
        -12    1    1    2    0    0 -0.19087240529E+02 -0.40185913349E+01 -0.25224074750E+02  0.31886137651E+02  0.00000000000E+00 0.  1.
         11    1    3    3    0    0 -0.24511578143E+00  0.12353729980E+02  0.81569804173E+01  0.14805777789E+02  0.51100000000E-03 0. -1.
        -11    1    3    3    0    0  0.17390047142E+02  0.62332813888E+01 -0.39099340750E+01  0.18882667217E+02  0.51100000000E-03 0.  1.
         12    1    3    3    0    0  0.19423091684E+01 -0.14568420034E+02  0.20977028407E+02  0.25613417343E+02  0.00000000000E+00 0. -1.
</event>
<event>
 7    1  0.3528441E-013  0.5930195E+02  0.7816164E-02  0.1266605E+00
        -11   -1    0    0    0    0  0.00000000000E+00  0.00000000000E+00  0.45593999997E+02  0.45594000000E+02  0.51100000000E-03 0.  1.
         11   -1    0    0    0    0 -0.00000000000E+00 -0.00000000000E+00 -0.45593999997E+02  0.45594000000E+02  0.51100000000E-03 0. -1.
    9900012    2    1    2    0    0 -0.13497888150E+02 -0.26207967948E+02 -0.12151950277E+02  0.59301945619E+02  0.50000002902E+02 0.  0.
        -12    1    1    2    0    0  0.13497888150E+02  0.26207967948E+02  0.12151950277E+02  0.31886054381E+02  0.00000000000E+00 0.  1.
         11    1    3    3    0    0  0.10641558763E+01  0.46309156604E+01  0.40439549775E+01  0.62395015589E+01  0.51100000000E-03 0. -1.
        -11    1    3    3    0    0 -0.10961550034E+02  0.33539112919E+01  0.51780491539E+01  0.12578413787E+02  0.51100000000E-03 0.  1.
         12    1    3    3    0    0 -0.36004939924E+01 -0.34192794900E+02 -0.21373954409E+02  0.40484030273E+02  0.00000000000E+00 0. -1.
</event>
<event>
 7    1  0.3528441E-013  0.5930193E+02  0.7816164E-02  0.1266605E+00
        -11   -1    0    0    0    0  0.00000000000E+00  0.00000000000E+00  0.45593999997E+02  0.45594000000E+02  0.51100000000E-03 0.  1.
         11   -1    0    0    0    0 -0.00000000000E+00 -0.00000000000E+00 -0.45593999997E+02  0.45594000000E+02  0.51100000000E-03 0. -1.
    9900012    2    1    2    0    0 -0.18741623752E+01 -0.18882685453E+02 -0.25625245634E+02  0.59301929243E+02  0.49999973035E+02 0.  0.
        -12    1    1    2    0    0  0.18741623752E+01  0.18882685453E+02  0.25625245634E+02  0.31886070757E+02  0.00000000000E+00 0.  1.
         11    1    3    3    0    0 -0.68456143270E+01 -0.13800412060E+01 -0.18938338555E+02  0.20184836307E+02  0.51100000000E-03 0. -1.
        -11    1    3    3    0    0  0.74356816052E+01  0.56021706394E+01 -0.12092117583E+02  0.15260831717E+02  0.51100000000E-03 0.  1.
         12    1    3    3    0    0 -0.24642296534E+01 -0.23104814886E+02  0.54052105038E+01  0.23856261218E+02  0.00000000000E+00 0. -1.
</event>
<event>
 7    1  0.3528441E-013  0.5930198E+02  0.7816164E-02  0.1266605E+00
        -11   -1    0    0    0    0  0.00000000000E+00  0.00000000000E+00  0.45593999997E+02  0.45594000000E+02  0.51100000000E-03 0.  1.
         11   -1    0    0    0    0 -0.00000000000E+00 -0.00000000000E+00 -0.45593999997E+02  0.45594000000E+02  0.51100000000E-03 0. -1.
    9900012    2    1    2    0    0  0.13991617949E+02  0.10124708992E+02 -0.26803795427E+02  0.59301975565E+02  0.50000057516E+02 0.  0.
        -12    1    1    2    0    0 -0.13991617949E+02 -0.10124708992E+02  0.26803795427E+02  0.31886024435E+02  0.00000000000E+00 0.  1.
         11    1    3    3    0    0  0.35329591058E+01  0.64242786364E+01 -0.47133792324E+01  0.87160254756E+01  0.51100000000E-03 0.  1.
        -11    1    3    3    0    0  0.14884377764E+02  0.47029337713E-01 -0.34137760122E+02  0.37241557159E+02  0.51100000000E-03 0. -1.
        -12    1    3    3    0    0 -0.44257189212E+01  0.36534010178E+01  0.12047343928E+02  0.13344392930E+02  0.00000000000E+00 0.  1.
</event>
<event>
 7    1  0.3528441E-013  0.5930192E+02  0.7816164E-02  0.1266605E+00
        -11   -1    0    0    0    0  0.00000000000E+00  0.00000000000E+00  0.45593999997E+02  0.45594000000E+02  0.51100000000E-03 0.  1.
         11   -1    0    0    0    0 -0.00000000000E+00 -0.00000000000E+00 -0.45593999997E+02  0.45594000000E+02  0.51100000000E-03 0. -1.
    9900012    2    1    2    0    0 -0.39336260037E+01 -0.25832727587E+02  0.18273448874E+02  0.59301918995E+02  0.49999954346E+02 0.  0.
        -12    1    1    2    0    0  0.39336260037E+01  0.25832727587E+02 -0.18273448874E+02  0.31886081005E+02  0.00000000000E+00 0.  1.
         11    1    3    3    0    0  0.49798901872E+01 -0.56890121993E+01 -0.14331239730E+02  0.16203351460E+02  0.51100000000E-03 0. -1.
        -11    1    3    3    0    0 -0.42629867666E+00 -0.44451453555E+01 -0.14131782762E+01  0.46838147801E+01  0.51100000000E-03 0.  1.
        -12    1    3    3    0    0 -0.84872175142E+01 -0.15698570032E+02  0.34017866880E+02  0.38414752755E+02  0.00000000000E+00 0.  1.
</event>
<event>
 7    1  0.3528441E-013  0.5930192E+02  0.7816164E-02  0.1266605E+00
        -11   -1    0    0    0    0  0.00000000000E+00  0.00000000000E+00  0.45593999997E+02  0.45594000000E+02  0.51100000000E-03 0.  1.
         11   -1    0    0    0    0 -0.00000000000E+00 -0.00000000000E+00 -0.45593999997E+02  0.45594000000E+02  0.51100000000E-03 0. -1.
    9900012    2    1    2    0    0  0.74967458130E+01  0.40277598069E+01 -0.30729437741E+02  0.59301915406E+02  0.49999947801E+02 0.  0.
        -12    1    1    2    0    0 -0.74967458130E+01 -0.40277598069E+01  0.30729437741E+02  0.31886084594E+02  0.00000000000E+00 0.  1.
         11    1    3    3    0    0  0.43144345632E-01 -0.24740720422E+01  0.41647253687E+01  0.48443608002E+01  0.51100000000E-03 0. -1.
        -11    1    3    3    0    0  0.81591341132E+01  0.33885541674E+01  0.77148451080E+01  0.11729134841E+02  0.51100000000E-03 0.  1.
         12    1    3    3    0    0 -0.70553264586E+00  0.31132776817E+01 -0.42609008218E+02  0.42728419764E+02  0.00000000000E+00 0. -1.
</event>
<event>
 7    1  0.3528441E-013  0.5930195E+02  0.7816164E-02  0.1266605E+00
        -11   -1    0    0    0    0  0.00000000000E+00  0.00000000000E+00  0.45593999997E+02  0.45594000000E+02  0.51100000000E-03 0.  1.
         11   -1    0    0    0    0 -0.00000000000E+00 -0.00000000000E+00 -0.45593999997E+02  0.45594000000E+02  0.51100000000E-03 0. -1.
    9900012    2    1    2    0    0 -0.29795966339E+02  0.11354306453E+02 -0.11422135693E-01  0.59301952651E+02  0.50000015726E+02 0.  0.
        -12    1    1    2    0    0  0.29795966339E+02 -0.11354306453E+02  0.11422135693E-01  0.31886047349E+02  0.00000000000E+00 0.  1.
         11    1    3    3    0    0 -0.10888768470E+02  0.86257788410E+01  0.34158237329E+01  0.14305145628E+02  0.51100000000E-03 0. -1.
        -11    1    3    3    0    0  0.40751571049E+01  0.22966535719E+01  0.14888225995E+02  0.15605793687E+02  0.51100000000E-03 0.  1.
         12    1    3    3    0    0 -0.22982354974E+02  0.43187404056E+00 -0.18315471863E+02  0.29391013336E+02  0.00000000000E+00 0. -1.
</event>
<event>
 7    1  0.3528441E-013  0.5930192E+02  0.7816164E-02  0.1266605E+00
        -11   -1    0    0    0    0  0.00000000000E+00  0.00000000000E+00  0.45593999997E+02  0.45594000000E+02  0.51100000000E-03 0.  1.
         11   -1    0    0    0    0 -0.00000000000E+00 -0.00000000000E+00 -0.45593999997E+02  0.45594000000E+02  0.51100000000E-03 0. -1.
    9900012    2    1    2    0    0  0.18677288403E+02  0.11746253666E+02 -0.23019698436E+02  0.59301920069E+02  0.49999956305E+02 0.  0.
        -12    1    1    2    0    0 -0.18677288403E+02 -0.11746253666E+02  0.23019698436E+02  0.31886079931E+02  0.00000000000E+00 0.  1.
         11    1    3    3    0    0  0.23852838218E+02 -0.28178257827E+01 -0.11500089988E+02  0.26629872384E+02  0.51100000000E-03 0. -1.
        -11    1    3    3    0    0 -0.41327796898E+01 -0.27633236925E+00 -0.16477919571E+02  0.16990528573E+02  0.51100000000E-03 0.  1.
        -12    1    3    3    0    0 -0.10427701254E+01  0.14840411818E+02  0.49583111228E+01  0.15681519112E+02  0.00000000000E+00 0.  1.
</event>
<event>
 7    1  0.3528441E-013  0.5930193E+02  0.7816164E-02  0.1266605E+00
        -11   -1    0    0    0    0  0.00000000000E+00  0.00000000000E+00  0.45593999997E+02  0.45594000000E+02  0.51100000000E-03 0. -1.
         11   -1    0    0    0    0 -0.00000000000E+00 -0.00000000000E+00 -0.45593999997E+02  0.45594000000E+02  0.51100000000E-03 0.  1.
    9900012    2    1    2    0    0 -0.89738634389E+01  0.19145569719E+02  0.23867098539E+02  0.59301930039E+02  0.49999974487E+02 0.  0.
        -12    1    1    2    0    0  0.89738634389E+01 -0.19145569719E+02 -0.23867098539E+02  0.31886069961E+02  0.00000000000E+00 0.  1.
         11    1    3    3    0    0 -0.14532510308E+02  0.23105392003E+01  0.14933468322E+02  0.20965231304E+02  0.51100000000E-03 0. -1.
        -11    1    3    3    0    0  0.19003094263E+02  0.58471063629E+01  0.56033760841E+01  0.20656816507E+02  0.51100000000E-03 0.  1.
         12    1    3    3    0    0 -0.13444447394E+02  0.10987924156E+02  0.33302541332E+01  0.17679882228E+02  0.00000000000E+00 0. -1.
</event>
<event>
 7    1  0.3528441E-013  0.5930207E+02  0.7816164E-02  0.1266604E+00
        -11   -1    0    0    0    0  0.00000000000E+00  0.00000000000E+00  0.45593999997E+02  0.45594000000E+02  0.51100000000E-03 0.  1.
         11   -1    0    0    0    0 -0.00000000000E+00 -0.00000000000E+00 -0.45593999997E+02  0.45594000000E+02  0.51100000000E-03 0. -1.
    9900012    2    1    2    0    0  0.10962660942E+02  0.22340308936E+02 -0.19935981841E+02  0.59302067204E+02  0.50000224643E+02 0.  0.
        -12    1    1    2    0    0 -0.10962660942E+02 -0.22340308936E+02  0.19935981841E+02  0.31885932796E+02  0.00000000000E+00 0.  1.
         11    1    3    3    0    0 -0.44444013109E+01 -0.42028825384E+01  0.53288405424E+01  0.81125499339E+01  0.51100000000E-03 0. -1.
        -11    1    3    3    0    0  0.67474264923E+01  0.25842485264E+02 -0.25028314163E+01  0.26825845266E+02  0.51100000000E-03 0.  1.
        -12    1    3    3    0    0  0.86596357605E+01  0.70070621038E+00 -0.22761990967E+02  0.24363672004E+02  0.00000000000E+00 0.  1.
</event>
<event>
 7    1  0.3528441E-013  0.5930194E+02  0.7816164E-02  0.1266605E+00
        -11   -1    0    0    0    0  0.00000000000E+00  0.00000000000E+00  0.45593999997E+02  0.45594000000E+02  0.51100000000E-03 0.  1.
         11   -1    0    0    0    0 -0.00000000000E+00 -0.00000000000E+00 -0.45593999997E+02  0.45594000000E+02  0.51100000000E-03 0. -1.
    9900012    2    1    2    0    0 -0.55378127473E+01 -0.18544219002E+02 -0.25340984468E+02  0.59301938433E+02  0.49999989797E+02 0.  0.
        -12    1    1    2    0    0  0.55378127473E+01  0.18544219002E+02  0.25340984468E+02  0.31886061567E+02  0.00000000000E+00 0.  1.
         11    1    3    3    0    0 -0.26886964253E+01 -0.15502124576E+02 -0.22518531870E+02  0.27470515698E+02  0.51100000000E-03 0. -1.
        -11    1    3    3    0    0 -0.13393700401E+02 -0.78481005390E+01 -0.97489087446E+01  0.18330987820E+02  0.51100000000E-03 0.  1.
        -12    1    3    3    0    0  0.10544584079E+02  0.48060061132E+01  0.69264561466E+01  0.13500434915E+02  0.00000000000E+00 0.  1.
</event>
<event>
 7    1  0.3528441E-013  0.5930175E+02  0.7816164E-02  0.1266605E+00
        -11   -1    0    0    0    0  0.00000000000E+00  0.00000000000E+00  0.45593999997E+02  0.45594000000E+02  0.51100000000E-03 0.  1.
         11   -1    0    0    0    0 -0.00000000000E+00 -0.00000000000E+00 -0.45593999997E+02  0.45594000000E+02  0.51100000000E-03 0. -1.
    9900012    2    1    2    0    0 -0.19697217814E+02 -0.14803718017E+02 -0.20238640080E+02  0.59301748903E+02  0.49999644137E+02 0.  0.
        -12    1    1    2    0    0  0.19697217814E+02  0.14803718017E+02  0.20238640080E+02  0.31886251097E+02  0.00000000000E+00 0.  1.
         11    1    3    3    0    0 -0.48027581412E+01  0.44065244068E+01 -0.20218532087E+02  0.21243186746E+02  0.51100000000E-03 0. -1.
        -11    1    3    3    0    0  0.33949941503E+00 -0.96707172677E+01  0.12752506550E+02  0.16008262114E+02  0.51100000000E-03 0.  1.
         12    1    3    3    0    0 -0.15233959088E+02 -0.95395251560E+01 -0.12772614544E+02  0.22050300043E+02  0.00000000000E+00 0. -1.
</event>
<event>
 7    1  0.3528441E-013  0.5930195E+02  0.7816164E-02  0.1266605E+00
        -11   -1    0    0    0    0  0.00000000000E+00  0.00000000000E+00  0.45593999997E+02  0.45594000000E+02  0.51100000000E-03 0. -1.
         11   -1    0    0    0    0 -0.00000000000E+00 -0.00000000000E+00 -0.45593999997E+02  0.45594000000E+02  0.51100000000E-03 0.  1.
    9900012    2    1    2    0    0  0.13112240247E+02 -0.22799831487E+02  0.18026564697E+02  0.59301949838E+02  0.50000010597E+02 0.  0.
        -12    1    1    2    0    0 -0.13112240247E+02  0.22799831487E+02 -0.18026564697E+02  0.31886050162E+02  0.00000000000E+00 0.  1.
         11    1    3    3    0    0 -0.24484305410E+01 -0.35879370144E+01  0.88554788350E+01  0.98634481694E+01  0.51100000000E-03 0. -1.
        -11    1    3    3    0    0 -0.67474418810E+01  0.97381264139E+01  0.40656742305E+00  0.11854297757E+02  0.51100000000E-03 0.  1.
         12    1    3    3    0    0  0.22308112669E+02 -0.28950020887E+02  0.87645184388E+01  0.37584203912E+02  0.00000000000E+00 0. -1.
</event>
<event>
 7    1  0.3528441E-013  0.5930194E+02  0.7816164E-02  0.1266605E+00
        -11   -1    0    0    0    0  0.00000000000E+00  0.00000000000E+00  0.45593999997E+02  0.45594000000E+02  0.51100000000E-03 0.  1.
         11   -1    0    0    0    0 -0.00000000000E+00 -0.00000000000E+00 -0.45593999997E+02  0.45594000000E+02  0.51100000000E-03 0. -1.
    9900012    2    1    2    0    0 -0.53244674318E+01 -0.58236548461E+00 -0.31432968869E+02  0.59301942939E+02  0.49999998014E+02 0.  0.
        -12    1    1    2    0    0  0.53244674318E+01  0.58236548461E+00  0.31432968869E+02  0.31886057061E+02  0.00000000000E+00 0.  1.
         11    1    3    3    0    0 -0.69955699293E+01  0.11349087728E+02  0.71395206465E+01  0.15123245228E+02  0.51100000000E-03 0. -1.
        -11    1    3    3    0    0  0.43078028579E+01 -0.10632104708E+02 -0.93242340291E+01  0.14783103750E+02  0.51100000000E-03 0.  1.
         12    1    3    3    0    0 -0.26367003604E+01 -0.12993485044E+01 -0.29248255486E+02  0.29395593961E+02  0.00000000000E+00 0. -1.
</event>
<event>
 7    1  0.3528441E-013  0.5930190E+02  0.7816164E-02  0.1266605E+00
        -11   -1    0    0    0    0  0.00000000000E+00  0.00000000000E+00  0.45593999997E+02  0.45594000000E+02  0.51100000000E-03 0. -1.
         11   -1    0    0    0    0 -0.00000000000E+00 -0.00000000000E+00 -0.45593999997E+02  0.45594000000E+02  0.51100000000E-03 0.  1.
    9900012    2    1    2    0    0 -0.12041067263E+02  0.29063136804E+02  0.52028709828E+01  0.59301904470E+02  0.49999927855E+02 0.  0.
        -12    1    1    2    0    0  0.12041067263E+02 -0.29063136804E+02 -0.52028709828E+01  0.31886095530E+02  0.00000000000E+00 0.  1.
         11    1    3    3    0    0 -0.60038974570E+01  0.77752472102E+01  0.38131028223E+01  0.10537599691E+02  0.51100000000E-03 0. -1.
        -11    1    3    3    0    0 -0.10123034024E+02  0.33717737074E+02  0.39714495616E+01  0.35427870711E+02  0.51100000000E-03 0.  1.
        -12    1    3    3    0    0  0.40858642182E+01 -0.12429847480E+02 -0.25816814011E+01  0.13336434068E+02  0.00000000000E+00 0.  1.
</event>
<event>
 7    1  0.3528441E-013  0.5930195E+02  0.7816164E-02  0.1266605E+00
        -11   -1    0    0    0    0  0.00000000000E+00  0.00000000000E+00  0.45593999997E+02  0.45594000000E+02  0.51100000000E-03 0. -1.
         11   -1    0    0    0    0 -0.00000000000E+00 -0.00000000000E+00 -0.45593999997E+02  0.45594000000E+02  0.51100000000E-03 0.  1.
    9900012    2    1    2    0    0  0.90767341803E+00  0.52120559954E+01  0.31444087415E+02  0.59301952392E+02  0.50000015254E+02 0.  0.
        -12    1    1    2    0    0 -0.90767341803E+00 -0.52120559954E+01 -0.31444087415E+02  0.31886047608E+02  0.00000000000E+00 0.  1.
         11    1    3    3    0    0  0.25910021718E+01 -0.41115873212E+01 -0.57299901096E+01  0.75134033215E+01  0.51100000000E-03 0.  1.
        -11    1    3    3    0    0 -0.14275848478E+01 -0.13261192610E+02  0.11686479449E+02  0.17733331049E+02  0.51100000000E-03 0. -1.
         12    1    3    3    0    0 -0.25574390603E+00  0.22584835927E+02  0.25487598076E+02  0.34055218021E+02  0.00000000000E+00 0. -1.
</event>
<event>
 7    1  0.3528441E-013  0.5930195E+02  0.7816164E-02  0.1266605E+00
        -11   -1    0    0    0    0  0.00000000000E+00  0.00000000000E+00  0.45593999997E+02  0.45594000000E+02  0.51100000000E-03 0.  1.
         11   -1    0    0    0    0 -0.00000000000E+00 -0.00000000000E+00 -0.45593999997E+02  0.45594000000E+02  0.51100000000E-03 0. -1.
    9900012    2    1    2    0    0 -0.11684243327E+02  0.18988897272E+02 -0.22795190846E+02  0.59301945252E+02  0.50000002232E+02 0.  0.
        -12    1    1    2    0    0  0.11684243327E+02 -0.18988897272E+02  0.22795190846E+02  0.31886054748E+02  0.00000000000E+00 0.  1.
         11    1    3    3    0    0 -0.11257228269E+02  0.83645415250E+01 -0.10535983469E+02  0.17541313837E+02  0.51100000000E-03 0. -1.
        -11    1    3    3    0    0 -0.32908432571E+01 -0.11106743414E+02  0.61690201179E+01  0.13124260287E+02  0.51100000000E-03 0.  1.
         12    1    3    3    0    0  0.28638281995E+01  0.21731099161E+02 -0.18428227495E+02  0.28636371127E+02  0.00000000000E+00 0. -1.
</event>
<event>
 7    1  0.3528441E-013  0.5930199E+02  0.7816164E-02  0.1266605E+00
        -11   -1    0    0    0    0  0.00000000000E+00  0.00000000000E+00  0.45593999997E+02  0.45594000000E+02  0.51100000000E-03 0.  1.
         11   -1    0    0    0    0 -0.00000000000E+00 -0.00000000000E+00 -0.45593999997E+02  0.45594000000E+02  0.51100000000E-03 0. -1.
    9900012    2    1    2    0    0  0.20941506856E+02  0.53459094861E+01 -0.23443388096E+02  0.59301985777E+02  0.50000076140E+02 0.  0.
        -12    1    1    2    0    0 -0.20941506856E+02 -0.53459094861E+01  0.23443388096E+02  0.31886014223E+02  0.00000000000E+00 0.  1.
         11    1    3    3    0    0  0.64634367217E+01 -0.66206271863E+01  0.12508837505E+01  0.93366711955E+01  0.51100000000E-03 0. -1.
        -11    1    3    3    0    0 -0.62629979200E+01  0.15731591490E+01  0.77450541775E+01  0.10083939564E+02  0.51100000000E-03 0.  1.
         12    1    3    3    0    0  0.20741068054E+02  0.10393377523E+02 -0.32439326024E+02  0.39881375017E+02  0.00000000000E+00 0. -1.
</event>
<event>
 7    1  0.3528441E-013  0.5930196E+02  0.7816164E-02  0.1266605E+00
        -11   -1    0    0    0    0  0.00000000000E+00  0.00000000000E+00  0.45593999997E+02  0.45594000000E+02  0.51100000000E-03 0.  1.
         11   -1    0    0    0    0 -0.00000000000E+00 -0.00000000000E+00 -0.45593999997E+02  0.45594000000E+02  0.51100000000E-03 0. -1.
    9900012    2    1    2    0    0 -0.29629336486E+02  0.11670106374E+02 -0.16219978647E+01  0.59301955397E+02  0.50000020734E+02 0.  0.
        -12    1    1    2    0    0  0.29629336486E+02 -0.11670106374E+02  0.16219978647E+01  0.31886044603E+02  0.00000000000E+00 0.  1.
         11    1    3    3    0    0 -0.11582086966E+02  0.49549124513E+01 -0.19618421651E+02  0.23314767084E+02  0.51100000000E-03 0. -1.
        -11    1    3    3    0    0  0.95846278875E+00 -0.19542648768E+01 -0.46763605037E+01  0.51581149607E+01  0.51100000000E-03 0.  1.
        -12    1    3    3    0    0 -0.19005712309E+02  0.86694587994E+01  0.22672784290E+02  0.30829073351E+02  0.00000000000E+00 0.  1.
</event>
<event>
 7    1  0.3528441E-013  0.5930193E+02  0.7816164E-02  0.1266605E+00
        -11   -1    0    0    0    0  0.00000000000E+00  0.00000000000E+00  0.45593999997E+02  0.45594000000E+02  0.51100000000E-03 0. -1.
         11   -1    0    0    0    0 -0.00000000000E+00 -0.00000000000E+00 -0.45593999997E+02  0.45594000000E+02  0.51100000000E-03 0.  1.
    9900012    2    1    2    0    0  0.17057462903E+02 -0.18948654932E+01  0.26873288512E+02  0.59301934213E+02  0.49999982100E+02 0.  0.
        -12    1    1    2    0    0 -0.17057462903E+02  0.18948654932E+01 -0.26873288512E+02  0.31886065787E+02  0.00000000000E+00 0.  1.
         11    1    3    3    0    0  0.35228680988E+01  0.13656282762E-01  0.24385723296E+02  0.24638877553E+02  0.51100000000E-03 0. -1.
        -11    1    3    3    0    0  0.76032961651E+01 -0.98791186786E+00  0.17168355950E+02  0.18802620262E+02  0.51100000000E-03 0.  1.
        -12    1    3    3    0    0  0.59312986395E+01 -0.92060990806E+00 -0.14680790734E+02  0.15860436398E+02  0.00000000000E+00 0.  1.
</event>
<event>
 7    1  0.3528441E-013  0.5930199E+02  0.7816164E-02  0.1266605E+00
        -11   -1    0    0    0    0  0.00000000000E+00  0.00000000000E+00  0.45593999997E+02  0.45594000000E+02  0.51100000000E-03 0.  1.
         11   -1    0    0    0    0 -0.00000000000E+00 -0.00000000000E+00 -0.45593999997E+02  0.45594000000E+02  0.51100000000E-03 0. -1.
    9900012    2    1    2    0    0  0.26250164509E+02 -0.12081016489E+02 -0.13479457532E+02  0.59301986271E+02  0.50000077042E+02 0.  0.
        -12    1    1    2    0    0 -0.26250164509E+02  0.12081016489E+02  0.13479457532E+02  0.31886013729E+02  0.00000000000E+00 0.  1.
         11    1    3    3    0    0  0.21155176255E+02 -0.38674425740E+01  0.52638886776E+01  0.22140621462E+02  0.51100000000E-03 0. -1.
        -11    1    3    3    0    0  0.17536216080E+02 -0.18550986723E+01 -0.13613414704E+02  0.22277462281E+02  0.51100000000E-03 0.  1.
        -12    1    3    3    0    0 -0.12441227826E+02 -0.63584752424E+01 -0.51299315053E+01  0.14883902529E+02  0.00000000000E+00 0.  1.
</event>
<event>
 7    1  0.3528441E-013  0.5930193E+02  0.7816164E-02  0.1266605E+00
        -11   -1    0    0    0    0  0.00000000000E+00  0.00000000000E+00  0.45593999997E+02  0.45594000000E+02  0.51100000000E-03 0.  1.
         11   -1    0    0    0    0 -0.00000000000E+00 -0.00000000000E+00 -0.45593999997E+02  0.45594000000E+02  0.51100000000E-03 0. -1.
    9900012    2    1    2    0    0 -0.12070391394E+02  0.36815747664E+01 -0.29282636805E+02  0.59301934714E+02  0.49999983014E+02 0.  0.
        -12    1    1    2    0    0  0.12070391394E+02 -0.36815747664E+01  0.29282636805E+02  0.31886065286E+02  0.00000000000E+00 0.  1.
         11    1    3    3    0    0 -0.21556083534E+02 -0.35407234212E+01 -0.64152549633E+01  0.22767453880E+02  0.51100000000E-03 0.  1.
        -11    1    3    3    0    0  0.67749158447E+01 -0.81381014990E+01 -0.24992040198E+01  0.10879990887E+02  0.51100000000E-03 0. -1.
        -12    1    3    3    0    0  0.27107762950E+01  0.15360399687E+02 -0.20368177822E+02  0.25654489947E+02  0.00000000000E+00 0.  1.
</event>
<event>
 7    1  0.3528441E-013  0.5930194E+02  0.7816164E-02  0.1266605E+00
        -11   -1    0    0    0    0  0.00000000000E+00  0.00000000000E+00  0.45593999997E+02  0.45594000000E+02  0.51100000000E-03 0.  1.
         11   -1    0    0    0    0 -0.00000000000E+00 -0.00000000000E+00 -0.45593999997E+02  0.45594000000E+02  0.51100000000E-03 0. -1.
    9900012    2    1    2    0    0  0.28404630850E+01 -0.21843008408E+02 -0.23055060404E+02  0.59301936318E+02  0.49999985940E+02 0.  0.
        -12    1    1    2    0    0 -0.28404630850E+01  0.21843008408E+02  0.23055060404E+02  0.31886063682E+02  0.00000000000E+00 0.  1.
         11    1    3    3    0    0 -0.99250218186E+01 -0.10854184006E+02 -0.26811794053E+02  0.30580903668E+02  0.51100000000E-03 0.  1.
        -11    1    3    3    0    0  0.47832849235E+01 -0.78668493948E+01 -0.93102861257E+01  0.13093836797E+02  0.51100000000E-03 0. -1.
        -12    1    3    3    0    0  0.79821999801E+01 -0.31219750079E+01  0.13067019775E+02  0.15627195854E+02  0.00000000000E+00 0.  1.
</event>
<event>
 7    1  0.3528441E-013  0.5930192E+02  0.7816164E-02  0.1266605E+00
        -11   -1    0    0    0    0  0.00000000000E+00  0.00000000000E+00  0.45593999997E+02  0.45594000000E+02  0.51100000000E-03 0.  1.
         11   -1    0    0    0    0 -0.00000000000E+00 -0.00000000000E+00 -0.45593999997E+02  0.45594000000E+02  0.51100000000E-03 0. -1.
    9900012    2    1    2    0    0 -0.20159597691E+02 -0.16612487756E+02  0.18284902306E+02  0.59301924969E+02  0.49999965242E+02 0.  0.
        -12    1    1    2    0    0  0.20159597691E+02  0.16612487756E+02 -0.18284902306E+02  0.31886075031E+02  0.00000000000E+00 0.  1.
         11    1    3    3    0    0 -0.17800029853E+01  0.16049649147E+01 -0.54100528447E+01  0.59171779632E+01  0.51100000000E-03 0. -1.
        -11    1    3    3    0    0 -0.22800252543E+02 -0.19832406658E+02  0.10300486901E+01  0.30236350151E+02  0.51100000000E-03 0.  1.
        -12    1    3    3    0    0  0.44206578376E+01  0.16149539872E+01  0.22664906461E+02  0.23148396855E+02  0.00000000000E+00 0.  1.
</event>
<event>
 7    1  0.3528441E-013  0.5930196E+02  0.7816164E-02  0.1266605E+00
        -11   -1    0    0    0    0  0.00000000000E+00  0.00000000000E+00  0.45593999997E+02  0.45594000000E+02  0.51100000000E-03 0.  1.
         11   -1    0    0    0    0 -0.00000000000E+00 -0.00000000000E+00 -0.45593999997E+02  0.45594000000E+02  0.51100000000E-03 0. -1.
    9900012    2    1    2    0    0 -0.28758301818E+02 -0.35340437551E+00 -0.13767878979E+02  0.59301963719E+02  0.50000035913E+02 0.  0.
        -12    1    1    2    0    0  0.28758301818E+02  0.35340437551E+00  0.13767878979E+02  0.31886036281E+02  0.00000000000E+00 0.  1.
         11    1    3    3    0    0  0.38367310348E+01  0.35463441425E+01  0.71088464124E+01  0.88222876504E+01  0.51100000000E-03 0. -1.
        -11    1    3    3    0    0  0.53722439953E+01 -0.14632867486E+01  0.21952681479E+01  0.59850995110E+01  0.51100000000E-03 0.  1.
         12    1    3    3    0    0 -0.37967276848E+02 -0.24364617694E+01 -0.23071993539E+02  0.44494576558E+02  0.00000000000E+00 0. -1.
</event>
<event>
 7    1  0.3528441E-013  0.5930188E+02  0.7816164E-02  0.1266605E+00
        -11   -1    0    0    0    0  0.00000000000E+00  0.00000000000E+00  0.45593999997E+02  0.45594000000E+02  0.51100000000E-03 0.  1.
         11   -1    0    0    0    0 -0.00000000000E+00 -0.00000000000E+00 -0.45593999997E+02  0.45594000000E+02  0.51100000000E-03 0. -1.
    9900012    2    1    2    0    0 -0.28472403342E+02  0.13069431919E+02 -0.59360526826E+01  0.59301881952E+02  0.49999886788E+02 0.  0.
        -12    1    1    2    0    0  0.28472403342E+02 -0.13069431919E+02  0.59360526826E+01  0.31886118048E+02  0.00000000000E+00 0.  1.
         11    1    3    3    0    0 -0.27145878132E+01 -0.96431907047E+00  0.72129828578E+01  0.77669826981E+01  0.51100000000E-03 0. -1.
        -11    1    3    3    0    0 -0.17367666047E+02 -0.78282689951E+01  0.73443087881E+01  0.20417063727E+02  0.51100000000E-03 0.  1.
         12    1    3    3    0    0 -0.83901494811E+01  0.21862019984E+02 -0.20493344329E+02  0.31117835527E+02  0.00000000000E+00 0. -1.
</event>
<event>
 7    1  0.3528441E-013  0.5930183E+02  0.7816164E-02  0.1266605E+00
        -11   -1    0    0    0    0  0.00000000000E+00  0.00000000000E+00  0.45593999997E+02  0.45594000000E+02  0.51100000000E-03 0.  1.
         11   -1    0    0    0    0 -0.00000000000E+00 -0.00000000000E+00 -0.45593999997E+02  0.45594000000E+02  0.51100000000E-03 0. -1.
    9900012    2    1    2    0    0 -0.23856213347E+02  0.60950388775E+01  0.20259798897E+02  0.59301829557E+02  0.49999791233E+02 0.  0.
        -12    1    1    2    0    0  0.23856213347E+02 -0.60950388775E+01 -0.20259798897E+02  0.31886170443E+02  0.00000000000E+00 0.  1.
         11    1    3    3    0    0 -0.10565196072E+02 -0.76961704945E+01  0.85028042245E+01  0.15593334739E+02  0.51100000000E-03 0. -1.
        -11    1    3    3    0    0  0.59209557520E+01 -0.98645658627E+01  0.46965445042E+01  0.12426781853E+02  0.51100000000E-03 0.  1.
         12    1    3    3    0    0 -0.19211973026E+02  0.23655775235E+02  0.70604501681E+01  0.31281712966E+02  0.00000000000E+00 0. -1.
</event>
<event>
 7    1  0.3528441E-013  0.5930195E+02  0.7816164E-02  0.1266605E+00
        -11   -1    0    0    0    0  0.00000000000E+00  0.00000000000E+00  0.45593999997E+02  0.45594000000E+02  0.51100000000E-03 0. -1.
         11   -1    0    0    0    0 -0.00000000000E+00 -0.00000000000E+00 -0.45593999997E+02  0.45594000000E+02  0.51100000000E-03 0.  1.
    9900012    2    1    2    0    0 -0.89290335015E+01  0.28691719009E+02  0.10666660881E+02  0.59301952372E+02  0.50000015219E+02 0.  0.
        -12    1    1    2    0    0  0.89290335015E+01 -0.28691719009E+02 -0.10666660881E+02  0.31886047628E+02  0.00000000000E+00 0.  1.
         11    1    3    3    0    0  0.76047245141E+01  0.28764647010E+01  0.94636210310E+01  0.12476618428E+02  0.51100000000E-03 0. -1.
        -11    1    3    3    0    0  0.26105300303E+01  0.15871733772E+02 -0.13265978003E+02  0.20849771524E+02  0.51100000000E-03 0.  1.
         12    1    3    3    0    0 -0.19144288046E+02  0.99435205359E+01  0.14469017853E+02  0.25975562421E+02  0.00000000000E+00 0. -1.
</event>
<event>
 7    1  0.3528441E-013  0.5930195E+02  0.7816164E-02  0.1266605E+00
        -11   -1    0    0    0    0  0.00000000000E+00  0.00000000000E+00  0.45593999997E+02  0.45594000000E+02  0.51100000000E-03 0.  1.
         11   -1    0    0    0    0 -0.00000000000E+00 -0.00000000000E+00 -0.45593999997E+02  0.45594000000E+02  0.51100000000E-03 0. -1.
    9900012    2    1    2    0    0  0.17507769820E+02  0.17934667065E+02 -0.19711567974E+02  0.59301949777E+02  0.50000010485E+02 0.  0.
        -12    1    1    2    0    0 -0.17507769820E+02 -0.17934667065E+02  0.19711567974E+02  0.31886050223E+02  0.00000000000E+00 0.  1.
         11    1    3    3    0    0  0.18451657577E+02  0.20020919920E+02  0.13780255444E+01  0.27261692105E+02  0.51100000000E-03 0. -1.
        -11    1    3    3    0    0 -0.49425858463E+01  0.83904423087E+01 -0.17906934892E+02  0.20383498092E+02  0.51100000000E-03 0.  1.
        -12    1    3    3    0    0  0.39986980902E+01 -0.10476695164E+02 -0.31826586263E+01  0.11656759580E+02  0.00000000000E+00 0.  1.
</event>
<event>
 7    1  0.3528441E-013  0.5930195E+02  0.7816164E-02  0.1266605E+00
        -11   -1    0    0    0    0  0.00000000000E+00  0.00000000000E+00  0.45593999997E+02  0.45594000000E+02  0.51100000000E-03 0.  1.
         11   -1    0    0    0    0 -0.00000000000E+00 -0.00000000000E+00 -0.45593999997E+02  0.45594000000E+02  0.51100000000E-03 0. -1.
    9900012    2    1    2    0    0  0.20675088918E+02 -0.22763504662E+02 -0.84311025161E+01  0.59301953900E+02  0.50000018005E+02 0.  0.
        -12    1    1    2    0    0 -0.20675088918E+02  0.22763504662E+02  0.84311025161E+01  0.31886046100E+02  0.00000000000E+00 0.  1.
         11    1    3    3    0    0  0.21335200774E+01  0.46801621033E+01 -0.14775855337E+02  0.15645501795E+02  0.51100000000E-03 0. -1.
        -11    1    3    3    0    0  0.27490047003E+01  0.44044043889E+01  0.62271910103E+01  0.81076330086E+01  0.51100000000E-03 0.  1.
        -12    1    3    3    0    0  0.15792564141E+02 -0.31848071154E+02  0.11756181031E+00  0.35548819096E+02  0.00000000000E+00 0.  1.
</event>
<event>
 7    1  0.3528441E-013  0.5930193E+02  0.7816164E-02  0.1266605E+00
        -11   -1    0    0    0    0  0.00000000000E+00  0.00000000000E+00  0.45593999997E+02  0.45594000000E+02  0.51100000000E-03 0.  1.
         11   -1    0    0    0    0 -0.00000000000E+00 -0.00000000000E+00 -0.45593999997E+02  0.45594000000E+02  0.51100000000E-03 0. -1.
    9900012    2    1    2    0    0  0.91530219978E+01 -0.23669751824E+02 -0.19305088898E+02  0.59301930621E+02  0.49999975549E+02 0.  0.
        -12    1    1    2    0    0 -0.91530219978E+01  0.23669751824E+02  0.19305088898E+02  0.31886069379E+02  0.00000000000E+00 0.  1.
         11    1    3    3    0    0 -0.44035190240E+01 -0.74378670082E+01 -0.56916750369E+01  0.10349299996E+02  0.51100000000E-03 0. -1.
        -11    1    3    3    0    0  0.11341464329E+02 -0.30521763391E+02 -0.95057653645E+01  0.33920000428E+02  0.51100000000E-03 0.  1.
        -12    1    3    3    0    0  0.22150766927E+01  0.14289878575E+02 -0.41076484961E+01  0.15032630196E+02  0.00000000000E+00 0.  1.
</event>
<event>
 7    1  0.3528441E-013  0.5930182E+02  0.7816164E-02  0.1266605E+00
        -11   -1    0    0    0    0  0.00000000000E+00  0.00000000000E+00  0.45593999997E+02  0.45594000000E+02  0.51100000000E-03 0.  1.
         11   -1    0    0    0    0 -0.00000000000E+00 -0.00000000000E+00 -0.45593999997E+02  0.45594000000E+02  0.51100000000E-03 0. -1.
    9900012    2    1    2    0    0  0.10565210896E+02  0.29572678538E+02 -0.55282579102E+01  0.59301817527E+02  0.49999769292E+02 0.  0.
        -12    1    1    2    0    0 -0.10565210896E+02 -0.29572678538E+02  0.55282579102E+01  0.31886182473E+02  0.00000000000E+00 0.  1.
         11    1    3    3    0    0  0.13755758065E+02  0.99842505865E+01  0.10082876228E+01  0.17027119072E+02  0.51100000000E-03 0. -1.
        -11    1    3    3    0    0  0.68927599445E+01 -0.88388363140E+01  0.78516469861E+00  0.11236175991E+02  0.51100000000E-03 0.  1.
         12    1    3    3    0    0 -0.10083307113E+02  0.28427264266E+02 -0.73217102316E+01  0.31038522463E+02  0.00000000000E+00 0. -1.
</event>
<event>
 7    1  0.3528441E-013  0.5930197E+02  0.7816164E-02  0.1266605E+00
        -11   -1    0    0    0    0  0.00000000000E+00  0.00000000000E+00  0.45593999997E+02  0.45594000000E+02  0.51100000000E-03 0.  1.
         11   -1    0    0    0    0 -0.00000000000E+00 -0.00000000000E+00 -0.45593999997E+02  0.45594000000E+02  0.51100000000E-03 0. -1.
    9900012    2    1    2    0    0  0.27849499788E+02 -0.89584382897E+01 -0.12683485502E+02  0.59301967643E+02  0.50000043068E+02 0.  0.
        -12    1    1    2    0    0 -0.27849499788E+02  0.89584382897E+01  0.12683485502E+02  0.31886032357E+02  0.00000000000E+00 0.  1.
         11    1    3    3    0    0 -0.44564776166E+01  0.36587603082E+00 -0.94078008309E+01  0.10416370517E+02  0.51100000000E-03 0. -1.
        -11    1    3    3    0    0  0.12821934598E+01  0.29803401366E+01  0.11818813903E+02  0.12256051964E+02  0.51100000000E-03 0.  1.
        -12    1    3    3    0    0  0.31023783945E+02 -0.12304654457E+02 -0.15094498574E+02  0.36629545162E+02  0.00000000000E+00 0.  1.
</event>
<event>
 7    1  0.3528441E-013  0.5930194E+02  0.7816164E-02  0.1266605E+00
        -11   -1    0    0    0    0  0.00000000000E+00  0.00000000000E+00  0.45593999997E+02  0.45594000000E+02  0.51100000000E-03 0.  1.
         11   -1    0    0    0    0 -0.00000000000E+00 -0.00000000000E+00 -0.45593999997E+02  0.45594000000E+02  0.51100000000E-03 0. -1.
    9900012    2    1    2    0    0 -0.65368199379E+01  0.20289930254E+02 -0.23713064528E+02  0.59301941700E+02  0.49999995754E+02 0.  0.
        -12    1    1    2    0    0  0.65368199379E+01 -0.20289930254E+02  0.23713064528E+02  0.31886058300E+02  0.00000000000E+00 0.  1.
         11    1    3    3    0    0 -0.65437691710E+01 -0.52360330209E+01 -0.97137410177E+01  0.12829408466E+02  0.51100000000E-03 0. -1.
        -11    1    3    3    0    0 -0.17936778724E+02  0.10358560261E+02 -0.49613868358E+01  0.21298900471E+02  0.51100000000E-03 0.  1.
        -12    1    3    3    0    0  0.17943727957E+02  0.15167403014E+02 -0.90379366749E+01  0.25173632763E+02  0.00000000000E+00 0.  1.
</event>
<event>
 7    1  0.3528441E-013  0.5930194E+02  0.7816164E-02  0.1266605E+00
        -11   -1    0    0    0    0  0.00000000000E+00  0.00000000000E+00  0.45593999997E+02  0.45594000000E+02  0.51100000000E-03 0.  1.
         11   -1    0    0    0    0 -0.00000000000E+00 -0.00000000000E+00 -0.45593999997E+02  0.45594000000E+02  0.51100000000E-03 0. -1.
    9900012    2    1    2    0    0 -0.21024315155E+02 -0.14206765474E+02 -0.19309758403E+02  0.59301940624E+02  0.49999993792E+02 0.  0.
        -12    1    1    2    0    0  0.21024315155E+02  0.14206765474E+02  0.19309758403E+02  0.31886059376E+02  0.00000000000E+00 0.  1.
         11    1    3    3    0    0 -0.12871215091E+02 -0.15590080298E+02  0.75302616932E+01  0.21573678941E+02  0.51100000000E-03 0. -1.
        -11    1    3    3    0    0  0.38194537012E+01 -0.67109937781E+01 -0.56676819395E+00  0.77425377308E+01  0.51100000000E-03 0.  1.
         12    1    3    3    0    0 -0.11972553765E+02  0.80943086023E+01 -0.26273251902E+02  0.29985723952E+02  0.00000000000E+00 0. -1.
</event>
<event>
 7    1  0.3528441E-013  0.5930194E+02  0.7816164E-02  0.1266605E+00
        -11   -1    0    0    0    0  0.00000000000E+00  0.00000000000E+00  0.45593999997E+02  0.45594000000E+02  0.51100000000E-03 0.  1.
         11   -1    0    0    0    0 -0.00000000000E+00 -0.00000000000E+00 -0.45593999997E+02  0.45594000000E+02  0.51100000000E-03 0. -1.
    9900012    2    1    2    0    0  0.23522914272E+02  0.15353574668E+02 -0.15088438123E+02  0.59301941668E+02  0.49999995696E+02 0.  0.
        -12    1    1    2    0    0 -0.23522914272E+02 -0.15353574668E+02  0.15088438123E+02  0.31886058332E+02  0.00000000000E+00 0.  1.
         11    1    3    3    0    0 -0.32920712998E+01 -0.69744215465E+01  0.56628083722E+01  0.95680556161E+01  0.51100000000E-03 0. -1.
        -11    1    3    3    0    0  0.28916737003E+02  0.17573869370E+02 -0.63572920710E+01  0.34430128177E+02  0.51100000000E-03 0.  1.
         12    1    3    3    0    0 -0.21017514310E+01  0.47541268450E+01 -0.14393954424E+02  0.15303757875E+02  0.00000000000E+00 0. -1.
</event>
<event>
 7    1  0.3528441E-013  0.5930194E+02  0.7816164E-02  0.1266605E+00
        -11   -1    0    0    0    0  0.00000000000E+00  0.00000000000E+00  0.45593999997E+02  0.45594000000E+02  0.51100000000E-03 0. -1.
         11   -1    0    0    0    0 -0.00000000000E+00 -0.00000000000E+00 -0.45593999997E+02  0.45594000000E+02  0.51100000000E-03 0.  1.
    9900012    2    1    2    0    0 -0.12028348811E+02  0.17377949213E+02  0.23875647823E+02  0.59301939520E+02  0.49999991779E+02 0.  0.
        -12    1    1    2    0    0  0.12028348811E+02 -0.17377949213E+02 -0.23875647823E+02  0.31886060480E+02  0.00000000000E+00 0.  1.
         11    1    3    3    0    0  0.20827293610E+01  0.17069565906E+01  0.32498748241E+01  0.42205626434E+01  0.51100000000E-03 0. -1.
        -11    1    3    3    0    0  0.10200242138E+02  0.10186030718E+02  0.25868212656E+02  0.29613587890E+02  0.51100000000E-03 0.  1.
        -12    1    3    3    0    0 -0.24311320310E+02  0.54849619041E+01 -0.52424396569E+01  0.25467788987E+02  0.00000000000E+00 0.  1.
</event>
<event>
 7    1  0.3528441E-013  0.5930193E+02  0.7816164E-02  0.1266605E+00
        -11   -1    0    0    0    0  0.00000000000E+00  0.00000000000E+00  0.45593999997E+02  0.45594000000E+02  0.51100000000E-03 0.  1.
         11   -1    0    0    0    0 -0.00000000000E+00 -0.00000000000E+00 -0.45593999997E+02  0.45594000000E+02  0.51100000000E-03 0. -1.
    9900012    2    1    2    0    0 -0.30286060773E+01 -0.12739300152E+02 -0.29073338335E+02  0.59301933684E+02  0.49999981136E+02 0.  0.
        -12    1    1    2    0    0  0.30286060773E+01  0.12739300152E+02  0.29073338335E+02  0.31886066316E+02  0.00000000000E+00 0.  1.
         11    1    3    3    0    0 -0.12739580650E+01  0.12747884359E+02 -0.20583823131E+02  0.24245108779E+02  0.51100000000E-03 0. -1.
        -11    1    3    3    0    0  0.25436812120E+01 -0.84315062434E+01 -0.14074219255E+02  0.16602537744E+02  0.51100000000E-03 0.  1.
        -12    1    3    3    0    0 -0.42983292243E+01 -0.17055678267E+02  0.55847040512E+01  0.18454287161E+02  0.00000000000E+00 0.  1.
</event>
<event>
 7    1  0.3528441E-013  0.5930194E+02  0.7816164E-02  0.1266605E+00
        -11   -1    0    0    0    0  0.00000000000E+00  0.00000000000E+00  0.45593999997E+02  0.45594000000E+02  0.51100000000E-03 0.  1.
         11   -1    0    0    0    0 -0.00000000000E+00 -0.00000000000E+00 -0.45593999997E+02  0.45594000000E+02  0.51100000000E-03 0. -1.
    9900012    2    1    2    0    0  0.39002557570E+01  0.25564131654E+02 -0.18654324029E+02  0.59301943060E+02  0.49999998235E+02 0.  0.
        -12    1    1    2    0    0 -0.39002557570E+01 -0.25564131654E+02  0.18654324029E+02  0.31886056940E+02  0.00000000000E+00 0.  1.
         11    1    3    3    0    0  0.30412065021E+01 -0.93536141292E+01  0.57854484795E+01  0.11410979302E+02  0.51100000000E-03 0. -1.
        -11    1    3    3    0    0  0.55638877651E+01  0.79587871089E+01  0.19147894719E+01  0.98977552147E+01  0.51100000000E-03 0.  1.
         12    1    3    3    0    0 -0.47048385102E+01  0.26958958675E+02 -0.26354561980E+02  0.37993208543E+02  0.00000000000E+00 0. -1.
</event>
<event>
 7    1  0.3528441E-013  0.5930210E+02  0.7816164E-02  0.1266604E+00
        -11   -1    0    0    0    0  0.00000000000E+00  0.00000000000E+00  0.45593999997E+02  0.45594000000E+02  0.51100000000E-03 0.  1.
         11   -1    0    0    0    0 -0.00000000000E+00 -0.00000000000E+00 -0.45593999997E+02  0.45594000000E+02  0.51100000000E-03 0. -1.
    9900012    2    1    2    0    0  0.23514958644E+02 -0.20522396125E+02  0.65259744278E+01  0.59302103981E+02  0.50000291715E+02 0.  0.
        -12    1    1    2    0    0 -0.23514958644E+02  0.20522396125E+02 -0.65259744278E+01  0.31885896019E+02  0.00000000000E+00 0.  1.
         11    1    3    3    0    0  0.79836531280E+01 -0.33475489787E+01 -0.51448129301E+01  0.10070446950E+02  0.51100000000E-03 0. -1.
        -11    1    3    3    0    0  0.19363506771E+02  0.74055845598E+01  0.12737011669E+02  0.24331451738E+02  0.51100000000E-03 0.  1.
        -12    1    3    3    0    0 -0.38322012556E+01 -0.24580431706E+02 -0.10662243115E+01  0.24900205292E+02  0.00000000000E+00 0.  1.
</event>
<event>
 7    1  0.3528441E-013  0.5930196E+02  0.7816164E-02  0.1266605E+00
        -11   -1    0    0    0    0  0.00000000000E+00  0.00000000000E+00  0.45593999997E+02  0.45594000000E+02  0.51100000000E-03 0.  1.
         11   -1    0    0    0    0 -0.00000000000E+00 -0.00000000000E+00 -0.45593999997E+02  0.45594000000E+02  0.51100000000E-03 0. -1.
    9900012    2    1    2    0    0  0.23414184300E+02  0.21452816605E+02 -0.28761328678E+01  0.59301960625E+02  0.50000030270E+02 0.  0.
        -12    1    1    2    0    0 -0.23414184300E+02 -0.21452816605E+02  0.28761328678E+01  0.31886039375E+02  0.00000000000E+00 0.  1.
         11    1    3    3    0    0  0.97895908700E+01  0.35850255316E+02 -0.62047461915E+00  0.37168022340E+02  0.51100000000E-03 0. -1.
        -11    1    3    3    0    0  0.98996882153E+00 -0.65168815689E+01 -0.29615575219E+01  0.72263826959E+01  0.51100000000E-03 0.  1.
        -12    1    3    3    0    0  0.12634624609E+02 -0.78805571421E+01  0.70589927327E+00  0.14907555590E+02  0.00000000000E+00 0.  1.
</event>
<event>
 7    1  0.3528441E-013  0.5930195E+02  0.7816164E-02  0.1266605E+00
        -11   -1    0    0    0    0  0.00000000000E+00  0.00000000000E+00  0.45593999997E+02  0.45594000000E+02  0.51100000000E-03 0. -1.
         11   -1    0    0    0    0 -0.00000000000E+00 -0.00000000000E+00 -0.45593999997E+02  0.45594000000E+02  0.51100000000E-03 0.  1.
    9900012    2    1    2    0    0  0.14159203119E+02  0.14818593003E+01  0.28531409613E+02  0.59301948591E+02  0.50000008322E+02 0.  0.
        -12    1    1    2    0    0 -0.14159203119E+02 -0.14818593003E+01 -0.28531409613E+02  0.31886051409E+02  0.00000000000E+00 0.  1.
         11    1    3    3    0    0  0.62025183896E+01 -0.93386306539E+01  0.85668610723E+01  0.14109300683E+02  0.51100000000E-03 0. -1.
        -11    1    3    3    0    0 -0.12151868237E+02 -0.66368984586E+01  0.55957163106E+01  0.14934134193E+02  0.51100000000E-03 0.  1.
        -12    1    3    3    0    0  0.20108552966E+02  0.17457388413E+02  0.14368832230E+02  0.30258513715E+02  0.00000000000E+00 0.  1.
</event>
<event>
 7    1  0.3528441E-013  0.5930211E+02  0.7816164E-02  0.1266604E+00
        -11   -1    0    0    0    0  0.00000000000E+00  0.00000000000E+00  0.45593999997E+02  0.45594000000E+02  0.51100000000E-03 0. -1.
         11   -1    0    0    0    0 -0.00000000000E+00 -0.00000000000E+00 -0.45593999997E+02  0.45594000000E+02  0.51100000000E-03 0.  1.
    9900012    2    1    2    0    0  0.92789522690E+01 -0.21566995726E+02  0.21574879487E+02  0.59302114647E+02  0.50000311168E+02 0.  0.
        -12    1    1    2    0    0 -0.92789522690E+01  0.21566995726E+02 -0.21574879487E+02  0.31885885353E+02  0.00000000000E+00 0.  1.
         11    1    3    3    0    0  0.50214426161E+01 -0.19583747040E+02  0.33673452642E+02  0.39276449014E+02  0.51100000000E-03 0. -1.
        -11    1    3    3    0    0  0.74960430456E+01 -0.52250968758E+01 -0.26329098404E+01  0.95091804690E+01  0.51100000000E-03 0.  1.
        -12    1    3    3    0    0 -0.32385333927E+01  0.32418481900E+01 -0.94656633144E+01  0.10516485164E+02  0.00000000000E+00 0.  1.
</event>
<event>
 7    1  0.3528441E-013  0.5930194E+02  0.7816164E-02  0.1266605E+00
        -11   -1    0    0    0    0  0.00000000000E+00  0.00000000000E+00  0.45593999997E+02  0.45594000000E+02  0.51100000000E-03 0. -1.
         11   -1    0    0    0    0 -0.00000000000E+00 -0.00000000000E+00 -0.45593999997E+02  0.45594000000E+02  0.51100000000E-03 0.  1.
    9900012    2    1    2    0    0 -0.49768184843E+01 -0.20989800083E+02 -0.23481496152E+02  0.59301935783E+02  0.49999984963E+02 0.  0.
        -12    1    1    2    0    0  0.49768184843E+01  0.20989800083E+02  0.23481496152E+02  0.31886064217E+02  0.00000000000E+00 0.  1.
         11    1    3    3    0    0  0.84266969636E+01 -0.23951492997E+01  0.81874607726E+01  0.11990849680E+02  0.51100000000E-03 0. -1.
        -11    1    3    3    0    0  0.40650161493E+01  0.36038431843E+01 -0.11132672428E+02  0.12387430631E+02  0.51100000000E-03 0.  1.
         12    1    3    3    0    0 -0.17468531597E+02 -0.22198493967E+02 -0.20536284496E+02  0.34923655472E+02  0.00000000000E+00 0. -1.
</event>
<event>
 7    1  0.3528441E-013  0.5930194E+02  0.7816164E-02  0.1266605E+00
        -11   -1    0    0    0    0  0.00000000000E+00  0.00000000000E+00  0.45593999997E+02  0.45594000000E+02  0.51100000000E-03 0.  1.
         11   -1    0    0    0    0 -0.00000000000E+00 -0.00000000000E+00 -0.45593999997E+02  0.45594000000E+02  0.51100000000E-03 0. -1.
    9900012    2    1    2    0    0 -0.15946626756E+02  0.73253468643E+01 -0.26622642780E+02  0.59301941602E+02  0.49999995576E+02 0.  0.
        -12    1    1    2    0    0  0.15946626756E+02 -0.73253468643E+01  0.26622642780E+02  0.31886058398E+02  0.00000000000E+00 0.  1.
         11    1    3    3    0    0 -0.10010792244E+02 -0.14741872058E+02 -0.93197835080E+01  0.20109627496E+02  0.51100000000E-03 0. -1.
        -11    1    3    3    0    0 -0.94709023056E+01 -0.29204752837E+01 -0.43104380290E+01  0.10807730688E+02  0.51100000000E-03 0.  1.
         12    1    3    3    0    0  0.35350677937E+01  0.24987694206E+02 -0.12992421243E+02  0.28384583418E+02  0.00000000000E+00 0. -1.
</event>
<event>
 7    1  0.3528441E-013  0.5930197E+02  0.7816164E-02  0.1266605E+00
        -11   -1    0    0    0    0  0.00000000000E+00  0.00000000000E+00  0.45593999997E+02  0.45594000000E+02  0.51100000000E-03 0.  1.
         11   -1    0    0    0    0 -0.00000000000E+00 -0.00000000000E+00 -0.45593999997E+02  0.45594000000E+02  0.51100000000E-03 0. -1.
    9900012    2    1    2    0    0 -0.26060326788E+02 -0.18371302314E+02 -0.27170693396E+00  0.59301965351E+02  0.50000038888E+02 0.  0.
        -12    1    1    2    0    0  0.26060326788E+02  0.18371302314E+02  0.27170693396E+00  0.31886034649E+02  0.00000000000E+00 0.  1.
         11    1    3    3    0    0  0.60171081795E+01 -0.16138734253E+01 -0.56705658742E+01  0.84241020810E+01  0.51100000000E-03 0. -1.
        -11    1    3    3    0    0 -0.11404146447E+02  0.76555893215E+01  0.11970364760E+02  0.18219556438E+02  0.51100000000E-03 0.  1.
         12    1    3    3    0    0 -0.20673288520E+02 -0.24413018210E+02 -0.65715058197E+01  0.32658306832E+02  0.00000000000E+00 0. -1.
</event>
<event>
 7    1  0.3528441E-013  0.5930195E+02  0.7816164E-02  0.1266605E+00
        -11   -1    0    0    0    0  0.00000000000E+00  0.00000000000E+00  0.45593999997E+02  0.45594000000E+02  0.51100000000E-03 0.  1.
         11   -1    0    0    0    0 -0.00000000000E+00 -0.00000000000E+00 -0.45593999997E+02  0.45594000000E+02  0.51100000000E-03 0. -1.
    9900012    2    1    2    0    0  0.44201720149E+01 -0.13113058842E+02 -0.28726815014E+02  0.59301950798E+02  0.50000012348E+02 0.  0.
        -12    1    1    2    0    0 -0.44201720149E+01  0.13113058842E+02  0.28726815014E+02  0.31886049202E+02  0.00000000000E+00 0.  1.
         11    1    3    3    0    0 -0.11018139853E+02  0.23850364835E+01  0.67061657344E+01  0.13117182013E+02  0.51100000000E-03 0. -1.
        -11    1    3    3    0    0 -0.35962684764E+01  0.71141279569E+00 -0.13313984232E+01  0.39002406519E+01  0.51100000000E-03 0.  1.
         12    1    3    3    0    0  0.19034580344E+02 -0.16209508121E+02 -0.34101582325E+02  0.42284528134E+02  0.00000000000E+00 0. -1.
</event>
<event>
 7    1  0.3528441E-013  0.5930195E+02  0.7816164E-02  0.1266605E+00
        -11   -1    0    0    0    0  0.00000000000E+00  0.00000000000E+00  0.45593999997E+02  0.45594000000E+02  0.51100000000E-03 0.  1.
         11   -1    0    0    0    0 -0.00000000000E+00 -0.00000000000E+00 -0.45593999997E+02  0.45594000000E+02  0.51100000000E-03 0. -1.
    9900012    2    1    2    0    0  0.19282536622E+02 -0.25008872783E+02 -0.44113883484E+01  0.59301948447E+02  0.50000008060E+02 0.  0.
        -12    1    1    2    0    0 -0.19282536622E+02  0.25008872783E+02  0.44113883484E+01  0.31886051553E+02  0.00000000000E+00 0.  1.
         11    1    3    3    0    0 -0.16978029090E+01 -0.18263053006E+02  0.43129024284E+01  0.18842047857E+02  0.51100000000E-03 0. -1.
        -11    1    3    3    0    0 -0.50296521577E+01  0.75323149996E+01 -0.55425314990E+01  0.10618513350E+02  0.51100000000E-03 0.  1.
         12    1    3    3    0    0  0.26009991689E+02 -0.14278134777E+02 -0.31817592777E+01  0.29841387241E+02  0.00000000000E+00 0. -1.
</event>
<event>
 7    1  0.3528441E-013  0.5930197E+02  0.7816164E-02  0.1266605E+00
        -11   -1    0    0    0    0  0.00000000000E+00  0.00000000000E+00  0.45593999997E+02  0.45594000000E+02  0.51100000000E-03 0. -1.
         11   -1    0    0    0    0 -0.00000000000E+00 -0.00000000000E+00 -0.45593999997E+02  0.45594000000E+02  0.51100000000E-03 0.  1.
    9900012    2    1    2    0    0 -0.18214180136E+02 -0.22119053662E+02  0.13989647068E+02  0.59301966725E+02  0.50000041394E+02 0.  0.
        -12    1    1    2    0    0  0.18214180136E+02  0.22119053662E+02 -0.13989647068E+02  0.31886033275E+02  0.00000000000E+00 0.  1.
         11    1    3    3    0    0 -0.20392947669E+01 -0.13791502975E+02 -0.66768826375E+01  0.15457847181E+02  0.51100000000E-03 0. -1.
        -11    1    3    3    0    0  0.17180069543E+01 -0.13964285973E+02 -0.22284846016E+01  0.14244963128E+02  0.51100000000E-03 0.  1.
         12    1    3    3    0    0 -0.17892892323E+02  0.56367352860E+01  0.22895014307E+02  0.29599156416E+02  0.00000000000E+00 0. -1.
</event>
<event>
 7    1  0.3528441E-013  0.5930196E+02  0.7816164E-02  0.1266605E+00
        -11   -1    0    0    0    0  0.00000000000E+00  0.00000000000E+00  0.45593999997E+02  0.45594000000E+02  0.51100000000E-03 0.  1.
         11   -1    0    0    0    0 -0.00000000000E+00 -0.00000000000E+00 -0.45593999997E+02  0.45594000000E+02  0.51100000000E-03 0. -1.
    9900012    2    1    2    0    0 -0.16568188558E+02  0.26208439641E+02 -0.74385891379E+01  0.59301956206E+02  0.50000022210E+02 0.  0.
        -12    1    1    2    0    0  0.16568188558E+02 -0.26208439641E+02  0.74385891379E+01  0.31886043794E+02  0.00000000000E+00 0.  1.
         11    1    3    3    0    0 -0.16676459832E+02  0.15727229796E+02 -0.56676606369E+01  0.23612972005E+02  0.51100000000E-03 0. -1.
        -11    1    3    3    0    0 -0.10679488849E+02 -0.77091186385E+01  0.40034114865E+01  0.13766237541E+02  0.51100000000E-03 0.  1.
         12    1    3    3    0    0  0.10787760122E+02  0.18190328484E+02 -0.57743399874E+01  0.21922746659E+02  0.00000000000E+00 0. -1.
</event>
<event>
 7    1  0.3528441E-013  0.5930194E+02  0.7816164E-02  0.1266605E+00
        -11   -1    0    0    0    0  0.00000000000E+00  0.00000000000E+00  0.45593999997E+02  0.45594000000E+02  0.51100000000E-03 0. -1.
         11   -1    0    0    0    0 -0.00000000000E+00 -0.00000000000E+00 -0.45593999997E+02  0.45594000000E+02  0.51100000000E-03 0.  1.
    9900012    2    1    2    0    0 -0.18223350839E+01 -0.27583649427E+02  0.15891579728E+02  0.59301938357E+02  0.49999989658E+02 0.  0.
        -12    1    1    2    0    0  0.18223350839E+01  0.27583649427E+02 -0.15891579728E+02  0.31886061643E+02  0.00000000000E+00 0.  1.
         11    1    3    3    0    0  0.15568588859E+02 -0.12639074655E+02  0.16497244099E+00  0.20053787258E+02  0.51100000000E-03 0. -1.
        -11    1    3    3    0    0  0.73945100178E+01 -0.17328577714E+01  0.54181123717E+01  0.93293899261E+01  0.51100000000E-03 0.  1.
        -12    1    3    3    0    0 -0.24785433961E+02 -0.13211717000E+02  0.10308494915E+02  0.29918761173E+02  0.00000000000E+00 0.  1.
</event>
<event>
 7    1  0.3528441E-013  0.5930194E+02  0.7816164E-02  0.1266605E+00
        -11   -1    0    0    0    0  0.00000000000E+00  0.00000000000E+00  0.45593999997E+02  0.45594000000E+02  0.51100000000E-03 0. -1.
         11   -1    0    0    0    0 -0.00000000000E+00 -0.00000000000E+00 -0.45593999997E+02  0.45594000000E+02  0.51100000000E-03 0.  1.
    9900012    2    1    2    0    0  0.72061193896E+01 -0.44299018536E+01  0.30743590717E+02  0.59301944156E+02  0.50000000234E+02 0.  0.
        -12    1    1    2    0    0 -0.72061193896E+01  0.44299018536E+01 -0.30743590717E+02  0.31886055844E+02  0.00000000000E+00 0.  1.
         11    1    3    3    0    0 -0.68046799191E+01 -0.23655901777E+02  0.11972198075E+02  0.27372228347E+02  0.51100000000E-03 0.  1.
        -11    1    3    3    0    0  0.62852101034E+01  0.44145929727E+01  0.11219939191E+02  0.13597041328E+02  0.51100000000E-03 0. -1.
        -12    1    3    3    0    0  0.77255892052E+01  0.14811406950E+02  0.75514534514E+01  0.18332674482E+02  0.00000000000E+00 0.  1.
</event>
<event>
 7    1  0.3528441E-013  0.5930194E+02  0.7816164E-02  0.1266605E+00
        -11   -1    0    0    0    0  0.00000000000E+00  0.00000000000E+00  0.45593999997E+02  0.45594000000E+02  0.51100000000E-03 0.  1.
         11   -1    0    0    0    0 -0.00000000000E+00 -0.00000000000E+00 -0.45593999997E+02  0.45594000000E+02  0.51100000000E-03 0. -1.
    9900012    2    1    2    0    0  0.28613610866E+02  0.14003880237E+02  0.13686419566E+01  0.59301943968E+02  0.49999999891E+02 0.  0.
        -12    1    1    2    0    0 -0.28613610866E+02 -0.14003880237E+02 -0.13686419566E+01  0.31886056032E+02  0.00000000000E+00 0.  1.
         11    1    3    3    0    0 -0.62056564806E+01 -0.29491830511E+00 -0.51933933467E+01  0.80974368708E+01  0.51100000000E-03 0. -1.
        -11    1    3    3    0    0  0.36898075681E+01 -0.94074110822E+01  0.66120176051E+01  0.12076126872E+02  0.51100000000E-03 0.  1.
        -12    1    3    3    0    0  0.31129459778E+02  0.23706209624E+02 -0.49982301835E-01  0.39128380225E+02  0.00000000000E+00 0.  1.
</event>
<event>
 7    1  0.3528441E-013  0.5930202E+02  0.7816164E-02  0.1266604E+00
        -11   -1    0    0    0    0  0.00000000000E+00  0.00000000000E+00  0.45593999997E+02  0.45594000000E+02  0.51100000000E-03 0.  1.
         11   -1    0    0    0    0 -0.00000000000E+00 -0.00000000000E+00 -0.45593999997E+02  0.45594000000E+02  0.51100000000E-03 0. -1.
    9900012    2    1    2    0    0  0.28121897742E+02 -0.63461935478E+01 -0.13623518717E+02  0.59302022402E+02  0.50000142935E+02 0.  0.
        -12    1    1    2    0    0 -0.28121897742E+02  0.63461935478E+01  0.13623518717E+02  0.31885977598E+02  0.00000000000E+00 0.  1.
         11    1    3    3    0    0  0.11896516823E+01  0.67302961061E+00  0.90265965669E+01  0.91294953762E+01  0.51100000000E-03 0. -1.
        -11    1    3    3    0    0  0.70880954644E+01  0.25092150552E+01  0.89320632359E+01  0.11675573280E+02  0.51100000000E-03 0.  1.
         12    1    3    3    0    0  0.19844150595E+02 -0.95284382136E+01 -0.31582178520E+02  0.38496953746E+02  0.00000000000E+00 0. -1.
</event>
<event>
 7    1  0.3528441E-013  0.5930193E+02  0.7816164E-02  0.1266605E+00
        -11   -1    0    0    0    0  0.00000000000E+00  0.00000000000E+00  0.45593999997E+02  0.45594000000E+02  0.51100000000E-03 0. -1.
         11   -1    0    0    0    0 -0.00000000000E+00 -0.00000000000E+00 -0.45593999997E+02  0.45594000000E+02  0.51100000000E-03 0.  1.
    9900012    2    1    2    0    0 -0.18311731962E+02  0.26044160316E+02  0.17616593629E+01  0.59301933172E+02  0.49999980202E+02 0.  0.
        -12    1    1    2    0    0  0.18311731962E+02 -0.26044160316E+02 -0.17616593629E+01  0.31886066828E+02  0.00000000000E+00 0.  1.
         11    1    3    3    0    0  0.53979422375E+01 -0.54288484002E+00 -0.86125905414E+01  0.10178861451E+02  0.51100000000E-03 0. -1.
        -11    1    3    3    0    0  0.52263013092E+01  0.26190670092E+00 -0.48606640790E+01  0.71420498489E+01  0.51100000000E-03 0.  1.
         12    1    3    3    0    0 -0.28935975509E+02  0.26325138455E+02  0.15234913983E+02  0.41981021872E+02  0.00000000000E+00 0. -1.
</event>
<event>
 7    1  0.3528441E-013  0.5930189E+02  0.7816164E-02  0.1266605E+00
        -11   -1    0    0    0    0  0.00000000000E+00  0.00000000000E+00  0.45593999997E+02  0.45594000000E+02  0.51100000000E-03 0.  1.
         11   -1    0    0    0    0 -0.00000000000E+00 -0.00000000000E+00 -0.45593999997E+02  0.45594000000E+02  0.51100000000E-03 0. -1.
    9900012    2    1    2    0    0 -0.78065581345E+01 -0.18602875151E+02 -0.24692401323E+02  0.59301890220E+02  0.49999901868E+02 0.  0.
        -12    1    1    2    0    0  0.78065581345E+01  0.18602875151E+02  0.24692401323E+02  0.31886109780E+02  0.00000000000E+00 0.  1.
         11    1    3    3    0    0  0.10434613696E+02 -0.96266900901E+01 -0.10442780822E+02  0.17624017608E+02  0.51100000000E-03 0. -1.
        -11    1    3    3    0    0  0.65200725142E+01 -0.12554227932E+02 -0.49763488451E+01  0.14996133924E+02  0.51100000000E-03 0.  1.
        -12    1    3    3    0    0 -0.24761244344E+02  0.35780428718E+01 -0.92732716554E+01  0.26681738689E+02  0.00000000000E+00 0.  1.
</event>
<event>
 7    1  0.3528441E-013  0.5930195E+02  0.7816164E-02  0.1266605E+00
        -11   -1    0    0    0    0  0.00000000000E+00  0.00000000000E+00  0.45593999997E+02  0.45594000000E+02  0.51100000000E-03 0. -1.
         11   -1    0    0    0    0 -0.00000000000E+00 -0.00000000000E+00 -0.45593999997E+02  0.45594000000E+02  0.51100000000E-03 0.  1.
    9900012    2    1    2    0    0  0.19067443020E+02 -0.10567853253E+02  0.23269575827E+02  0.59301951878E+02  0.50000014317E+02 0.  0.
        -12    1    1    2    0    0 -0.19067443020E+02  0.10567853253E+02 -0.23269575827E+02  0.31886048122E+02  0.00000000000E+00 0.  1.
         11    1    3    3    0    0  0.13667635256E+02 -0.25420673702E+00 -0.91409223145E+01  0.16444614182E+02  0.51100000000E-03 0. -1.
        -11    1    3    3    0    0  0.51562287173E+01 -0.17861509058E+01 -0.31412393384E+01  0.62963810626E+01  0.51100000000E-03 0.  1.
        -12    1    3    3    0    0  0.24357904633E+00 -0.85274956106E+01  0.35551737479E+02  0.36560956633E+02  0.00000000000E+00 0.  1.
</event>
<event>
 7    1  0.3528441E-013  0.5930195E+02  0.7816164E-02  0.1266605E+00
        -11   -1    0    0    0    0  0.00000000000E+00  0.00000000000E+00  0.45593999997E+02  0.45594000000E+02  0.51100000000E-03 0.  1.
         11   -1    0    0    0    0 -0.00000000000E+00 -0.00000000000E+00 -0.45593999997E+02  0.45594000000E+02  0.51100000000E-03 0. -1.
    9900012    2    1    2    0    0  0.24369206193E+02  0.22956109668E+01 -0.20435069379E+02  0.59301951315E+02  0.50000013291E+02 0.  0.
        -12    1    1    2    0    0 -0.24369206193E+02 -0.22956109668E+01  0.20435069379E+02  0.31886048685E+02  0.00000000000E+00 0.  1.
         11    1    3    3    0    0  0.19919413824E+02 -0.94909786682E+01 -0.22102243611E+02  0.31230928518E+02  0.51100000000E-03 0. -1.
        -11    1    3    3    0    0  0.13497020302E+02  0.52371792618E+00 -0.16866684617E+00  0.13508230316E+02  0.51100000000E-03 0.  1.
        -12    1    3    3    0    0 -0.90472279332E+01  0.11262871709E+02  0.18358410783E+01  0.14562792482E+02  0.00000000000E+00 0.  1.
</event>
<event>
 7    1  0.3528441E-013  0.5930196E+02  0.7816164E-02  0.1266605E+00
        -11   -1    0    0    0    0  0.00000000000E+00  0.00000000000E+00  0.45593999997E+02  0.45594000000E+02  0.51100000000E-03 0.  1.
         11   -1    0    0    0    0 -0.00000000000E+00 -0.00000000000E+00 -0.45593999997E+02  0.45594000000E+02  0.51100000000E-03 0. -1.
    9900012    2    1    2    0    0 -0.29602254541E+02 -0.65639010938E+01 -0.98661530384E+01  0.59301964698E+02  0.50000037698E+02 0.  0.
        -12    1    1    2    0    0  0.29602254541E+02  0.65639010938E+01  0.98661530384E+01  0.31886035302E+02  0.00000000000E+00 0.  1.
         11    1    3    3    0    0 -0.30237119032E+02 -0.13704326602E+01 -0.15228335353E+02  0.33883087978E+02  0.51100000000E-03 0. -1.
        -11    1    3    3    0    0 -0.96410857286E+01  0.45459150819E+01  0.29192244024E+01  0.11051594877E+02  0.51100000000E-03 0.  1.
        -12    1    3    3    0    0  0.10275950220E+02 -0.97393835155E+01  0.24429579125E+01  0.14367281842E+02  0.00000000000E+00 0.  1.
</event>
<event>
 7    1  0.3528441E-013  0.5930197E+02  0.7816164E-02  0.1266605E+00
        -11   -1    0    0    0    0  0.00000000000E+00  0.00000000000E+00  0.45593999997E+02  0.45594000000E+02  0.51100000000E-03 0.  1.
         11   -1    0    0    0    0 -0.00000000000E+00 -0.00000000000E+00 -0.45593999997E+02  0.45594000000E+02  0.51100000000E-03 0. -1.
    9900012    2    1    2    0    0 -0.12016814404E+02 -0.27678909706E+02 -0.10304990874E+02  0.59301973157E+02  0.50000053125E+02 0.  0.
        -12    1    1    2    0    0  0.12016814404E+02  0.27678909706E+02  0.10304990874E+02  0.31886026843E+02  0.00000000000E+00 0.  1.
         11    1    3    3    0    0  0.50164968812E+01  0.50384168288E+01  0.85726249821E+01  0.11137359851E+02  0.51100000000E-03 0. -1.
        -11    1    3    3    0    0 -0.37605473634E+01  0.35355631610E+01  0.64090779785E-01  0.51619793904E+01  0.51100000000E-03 0.  1.
         12    1    3    3    0    0 -0.13272763922E+02 -0.36252889696E+02 -0.18941706636E+02  0.43002633916E+02  0.00000000000E+00 0. -1.
</event>
<event>
 7    1  0.3528441E-013  0.5930191E+02  0.7816164E-02  0.1266605E+00
        -11   -1    0    0    0    0  0.00000000000E+00  0.00000000000E+00  0.45593999997E+02  0.45594000000E+02  0.51100000000E-03 0. -1.
         11   -1    0    0    0    0 -0.00000000000E+00 -0.00000000000E+00 -0.45593999997E+02  0.45594000000E+02  0.51100000000E-03 0.  1.
    9900012    2    1    2    0    0 -0.27545331013E+02 -0.12659460131E+02 -0.98851019454E+01  0.59301914760E+02  0.49999946623E+02 0.  0.
        -12    1    1    2    0    0  0.27545331013E+02  0.12659460131E+02  0.98851019454E+01  0.31886085240E+02  0.00000000000E+00 0.  1.
         11    1    3    3    0    0 -0.32029807696E+01 -0.56645188348E+01 -0.90372491922E+00  0.65698233181E+01  0.51100000000E-03 0. -1.
        -11    1    3    3    0    0 -0.47770999199E+01 -0.15503417883E+02  0.13960647158E+02  0.21402717562E+02  0.51100000000E-03 0.  1.
        -12    1    3    3    0    0 -0.19565250324E+02  0.85084765867E+01 -0.22942024184E+02  0.31329373880E+02  0.00000000000E+00 0.  1.
</event>
<event>
 7    1  0.3528441E-013  0.5930193E+02  0.7816164E-02  0.1266605E+00
        -11   -1    0    0    0    0  0.00000000000E+00  0.00000000000E+00  0.45593999997E+02  0.45594000000E+02  0.51100000000E-03 0.  1.
         11   -1    0    0    0    0 -0.00000000000E+00 -0.00000000000E+00 -0.45593999997E+02  0.45594000000E+02  0.51100000000E-03 0. -1.
    9900012    2    1    2    0    0 -0.16989032411E+02 -0.26869380049E+02 -0.24760335857E+01  0.59301928608E+02  0.49999971878E+02 0.  0.
        -12    1    1    2    0    0  0.16989032411E+02  0.26869380049E+02  0.24760335857E+01  0.31886071392E+02  0.00000000000E+00 0.  1.
         11    1    3    3    0    0  0.12682519954E+01 -0.13472349510E+02  0.31393305297E+01  0.13891294427E+02  0.51100000000E-03 0. -1.
        -11    1    3    3    0    0 -0.79808128533E+01 -0.26266809820E+02  0.14478710377E+01  0.27490634818E+02  0.51100000000E-03 0.  1.
        -12    1    3    3    0    0 -0.10276471553E+02  0.12869779280E+02 -0.70632351531E+01  0.17919999362E+02  0.00000000000E+00 0.  1.
</event>
<event>
 7    1  0.3528441E-013  0.5930195E+02  0.7816164E-02  0.1266605E+00
        -11   -1    0    0    0    0  0.00000000000E+00  0.00000000000E+00  0.45593999997E+02  0.45594000000E+02  0.51100000000E-03 0.  1.
         11   -1    0    0    0    0 -0.00000000000E+00 -0.00000000000E+00 -0.45593999997E+02  0.45594000000E+02  0.51100000000E-03 0. -1.
    9900012    2    1    2    0    0  0.18228167556E+01  0.22498754511E+02 -0.22521178302E+02  0.59301951521E+02  0.50000013666E+02 0.  0.
        -12    1    1    2    0    0 -0.18228167556E+01 -0.22498754511E+02  0.22521178302E+02  0.31886048479E+02  0.00000000000E+00 0.  1.
         11    1    3    3    0    0  0.50128278759E+01  0.90516743763E+01 -0.24933743227E+01  0.10643221697E+02  0.51100000000E-03 0. -1.
        -11    1    3    3    0    0  0.80318494138E+01  0.25505008000E+02 -0.69545216083E+01  0.27629357741E+02  0.51100000000E-03 0.  1.
        -12    1    3    3    0    0 -0.11221860534E+02 -0.12057927865E+02 -0.13073282371E+02  0.21029372083E+02  0.00000000000E+00 0.  1.
</event>
<event>
 7    1  0.3528441E-013  0.5930193E+02  0.7816164E-02  0.1266605E+00
        -11   -1    0    0    0    0  0.00000000000E+00  0.00000000000E+00  0.45593999997E+02  0.45594000000E+02  0.51100000000E-03 0.  1.
         11   -1    0    0    0    0 -0.00000000000E+00 -0.00000000000E+00 -0.45593999997E+02  0.45594000000E+02  0.51100000000E-03 0. -1.
    9900012    2    1    2    0    0 -0.77296747082E+01  0.29803542157E+02 -0.82899097583E+01  0.59301927806E+02  0.49999970415E+02 0.  0.
        -12    1    1    2    0    0  0.77296747082E+01 -0.29803542157E+02  0.82899097583E+01  0.31886072194E+02  0.00000000000E+00 0.  1.
         11    1    3    3    0    0 -0.15732311744E+02  0.20182127763E+02 -0.46849037326E+01  0.26014846474E+02  0.51100000000E-03 0. -1.
        -11    1    3    3    0    0 -0.85354970219E-01  0.16783298245E+02  0.69666010496E+01  0.18171954102E+02  0.51100000000E-03 0.  1.
         12    1    3    3    0    0  0.80879920060E+01 -0.71618838512E+01 -0.10571607075E+02  0.15115127229E+02  0.00000000000E+00 0. -1.
</event>
<event>
 7    1  0.3528441E-013  0.5930196E+02  0.7816164E-02  0.1266605E+00
        -11   -1    0    0    0    0  0.00000000000E+00  0.00000000000E+00  0.45593999997E+02  0.45594000000E+02  0.51100000000E-03 0. -1.
         11   -1    0    0    0    0 -0.00000000000E+00 -0.00000000000E+00 -0.45593999997E+02  0.45594000000E+02  0.51100000000E-03 0.  1.
    9900012    2    1    2    0    0  0.14210067256E+02  0.15387203717E+02  0.24042207698E+02  0.59301956021E+02  0.50000021872E+02 0.  0.
        -12    1    1    2    0    0 -0.14210067256E+02 -0.15387203717E+02 -0.24042207698E+02  0.31886043979E+02  0.00000000000E+00 0.  1.
         11    1    3    3    0    0  0.18637685193E+02  0.15387395433E+02  0.25907157401E+02  0.35430439630E+02  0.51100000000E-03 0. -1.
        -11    1    3    3    0    0 -0.21259374210E+01 -0.10367803275E+01  0.10749664405E+02  0.11006807368E+02  0.51100000000E-03 0.  1.
        -12    1    3    3    0    0 -0.23016805167E+01  0.10365886119E+01 -0.12614614107E+02  0.12864709022E+02  0.00000000000E+00 0.  1.
</event>
<event>
 7    1  0.3528441E-013  0.5930203E+02  0.7816164E-02  0.1266604E+00
        -11   -1    0    0    0    0  0.00000000000E+00  0.00000000000E+00  0.45593999997E+02  0.45594000000E+02  0.51100000000E-03 0. -1.
         11   -1    0    0    0    0 -0.00000000000E+00 -0.00000000000E+00 -0.45593999997E+02  0.45594000000E+02  0.51100000000E-03 0.  1.
    9900012    2    1    2    0    0 -0.30450385158E+02 -0.45946767840E+01  0.82690986094E+01  0.59302031254E+02  0.50000159080E+02 0.  0.
        -12    1    1    2    0    0  0.30450385158E+02  0.45946767840E+01 -0.82690986094E+01  0.31885968746E+02  0.00000000000E+00 0.  1.
         11    1    3    3    0    0 -0.15685703725E+02 -0.11953660440E+02  0.89141596084E+01  0.21642401462E+02  0.51100000000E-03 0. -1.
        -11    1    3    3    0    0 -0.90606245827E+01  0.68117703983E-01  0.16129527326E+02  0.18500302967E+02  0.51100000000E-03 0.  1.
        -12    1    3    3    0    0 -0.57040568505E+01  0.72908659523E+01 -0.16774588325E+02  0.19159326825E+02  0.00000000000E+00 0.  1.
</event>
<event>
 7    1  0.3528441E-013  0.5930198E+02  0.7816164E-02  0.1266605E+00
        -11   -1    0    0    0    0  0.00000000000E+00  0.00000000000E+00  0.45593999997E+02  0.45594000000E+02  0.51100000000E-03 0.  1.
         11   -1    0    0    0    0 -0.00000000000E+00 -0.00000000000E+00 -0.45593999997E+02  0.45594000000E+02  0.51100000000E-03 0. -1.
    9900012    2    1    2    0    0  0.44859600863E+01  0.27239330392E+02 -0.15956609568E+02  0.59301978815E+02  0.50000063444E+02 0.  0.
        -12    1    1    2    0    0 -0.44859600863E+01 -0.27239330392E+02  0.15956609568E+02  0.31886021185E+02  0.00000000000E+00 0.  1.
         11    1    3    3    0    0  0.10469766483E+02  0.23255986250E+02 -0.11868237528E+02  0.28130267844E+02  0.51100000000E-03 0. -1.
        -11    1    3    3    0    0 -0.48465675347E+01  0.16033540800E+02 -0.78481180344E+01  0.18497475622E+02  0.51100000000E-03 0.  1.
        -12    1    3    3    0    0 -0.11372388623E+01 -0.12050196659E+02  0.37597459941E+01  0.12674235349E+02  0.00000000000E+00 0.  1.
</event>
<event>
 7    1  0.3528441E-013  0.5930193E+02  0.7816164E-02  0.1266605E+00
        -11   -1    0    0    0    0  0.00000000000E+00  0.00000000000E+00  0.45593999997E+02  0.45594000000E+02  0.51100000000E-03 0. -1.
         11   -1    0    0    0    0 -0.00000000000E+00 -0.00000000000E+00 -0.45593999997E+02  0.45594000000E+02  0.51100000000E-03 0.  1.
    9900012    2    1    2    0    0  0.11362531503E+02 -0.24075662784E+02  0.17549267561E+02  0.59301930118E+02  0.49999974631E+02 0.  0.
        -12    1    1    2    0    0 -0.11362531503E+02  0.24075662784E+02 -0.17549267561E+02  0.31886069882E+02  0.00000000000E+00 0.  1.
         11    1    3    3    0    0  0.22079533454E+01 -0.94989595129E+01  0.99251850399E+01  0.13914545919E+02  0.51100000000E-03 0. -1.
        -11    1    3    3    0    0  0.21601178394E+01 -0.25317545972E+02 -0.65874752979E+01  0.26249553791E+02  0.51100000000E-03 0.  1.
         12    1    3    3    0    0  0.69944603179E+01  0.10740842701E+02  0.14211557819E+02  0.19137830408E+02  0.00000000000E+00 0. -1.
</event>
<event>
 7    1  0.3528441E-013  0.5930193E+02  0.7816164E-02  0.1266605E+00
        -11   -1    0    0    0    0  0.00000000000E+00  0.00000000000E+00  0.45593999997E+02  0.45594000000E+02  0.51100000000E-03 0.  1.
         11   -1    0    0    0    0 -0.00000000000E+00 -0.00000000000E+00 -0.45593999997E+02  0.45594000000E+02  0.51100000000E-03 0. -1.
    9900012    2    1    2    0    0  0.88684802297E+01 -0.20454004452E+02 -0.22797043470E+02  0.59301930460E+02  0.49999975257E+02 0.  0.
        -12    1    1    2    0    0 -0.88684802297E+01  0.20454004452E+02  0.22797043470E+02  0.31886069540E+02  0.00000000000E+00 0.  1.
         11    1    3    3    0    0  0.16619650865E+02  0.31905266672E+01 -0.16008320984E+02  0.23295033726E+02  0.51100000000E-03 0. -1.
        -11    1    3    3    0    0 -0.16521900969E+00  0.31786151807E+01  0.48486334084E+01  0.58000118947E+01  0.51100000000E-03 0.  1.
         12    1    3    3    0    0 -0.75859516260E+01 -0.26823146300E+02 -0.11637355894E+02  0.30206884840E+02  0.00000000000E+00 0. -1.
</event>
<event>
 7    1  0.3528441E-013  0.5930196E+02  0.7816164E-02  0.1266605E+00
        -11   -1    0    0    0    0  0.00000000000E+00  0.00000000000E+00  0.45593999997E+02  0.45594000000E+02  0.51100000000E-03 0. -1.
         11   -1    0    0    0    0 -0.00000000000E+00 -0.00000000000E+00 -0.45593999997E+02  0.45594000000E+02  0.51100000000E-03 0.  1.
    9900012    2    1    2    0    0  0.79264760794E+01 -0.14811869846E+02  0.27101644522E+02  0.59301958427E+02  0.50000026261E+02 0.  0.
        -12    1    1    2    0    0 -0.79264760794E+01  0.14811869846E+02 -0.27101644522E+02  0.31886041573E+02  0.00000000000E+00 0.  1.
         11    1    3    3    0    0 -0.10738886880E+02 -0.12831551163E+02  0.21773337383E+02  0.27459982114E+02  0.51100000000E-03 0. -1.
        -11    1    3    3    0    0 -0.75418706503E+00 -0.38188856531E+00 -0.81216363388E+01  0.81655137062E+01  0.51100000000E-03 0.  1.
         12    1    3    3    0    0  0.19419550025E+02 -0.15984301180E+01  0.13449943478E+02  0.23676462607E+02  0.00000000000E+00 0. -1.
</event>
<event>
 7    1  0.3528441E-013  0.5930194E+02  0.7816164E-02  0.1266605E+00
        -11   -1    0    0    0    0  0.00000000000E+00  0.00000000000E+00  0.45593999997E+02  0.45594000000E+02  0.51100000000E-03 0.  1.
         11   -1    0    0    0    0 -0.00000000000E+00 -0.00000000000E+00 -0.45593999997E+02  0.45594000000E+02  0.51100000000E-03 0. -1.
    9900012    2    1    2    0    0 -0.16007236854E+02  0.17215087467E+01 -0.27523186815E+02  0.59301936641E+02  0.49999986529E+02 0.  0.
        -12    1    1    2    0    0  0.16007236854E+02 -0.17215087467E+01  0.27523186815E+02  0.31886063359E+02  0.00000000000E+00 0.  1.
         11    1    3    3    0    0 -0.85795960206E+01 -0.96562466773E+01 -0.10337837196E+02  0.16544589627E+02  0.51100000000E-03 0. -1.
        -11    1    3    3    0    0 -0.14220672230E+02 -0.93953011392E+01 -0.51396807086E+01  0.17802121228E+02  0.51100000000E-03 0.  1.
         12    1    3    3    0    0  0.67930313968E+01  0.20773056563E+02 -0.12045668911E+02  0.24955225786E+02  0.00000000000E+00 0. -1.
</event>
<event>
 7    1  0.3528441E-013  0.5930195E+02  0.7816164E-02  0.1266605E+00
        -11   -1    0    0    0    0  0.00000000000E+00  0.00000000000E+00  0.45593999997E+02  0.45594000000E+02  0.51100000000E-03 0.  1.
         11   -1    0    0    0    0 -0.00000000000E+00 -0.00000000000E+00 -0.45593999997E+02  0.45594000000E+02  0.51100000000E-03 0. -1.
    9900012    2    1    2    0    0  0.92103932432E+01  0.13776674996E+02 -0.27241365605E+02  0.59301951050E+02  0.50000012806E+02 0.  0.
        -12    1    1    2    0    0 -0.92103932432E+01 -0.13776674996E+02  0.27241365605E+02  0.31886048950E+02  0.00000000000E+00 0.  1.
         11    1    3    3    0    0  0.45655412678E+01  0.69961675033E+01  0.32062419863E+01  0.89482129354E+01  0.51100000000E-03 0. -1.
        -11    1    3    3    0    0 -0.23327831262E+01  0.22627473654E+02 -0.18436500040E+02  0.29280522111E+02  0.51100000000E-03 0.  1.
         12    1    3    3    0    0  0.69776351017E+01 -0.15846966161E+02 -0.12011107551E+02  0.21073216003E+02  0.00000000000E+00 0. -1.
</event>
<event>
 7    1  0.3528441E-013  0.5930199E+02  0.7816164E-02  0.1266605E+00
        -11   -1    0    0    0    0  0.00000000000E+00  0.00000000000E+00  0.45593999997E+02  0.45594000000E+02  0.51100000000E-03 0.  1.
         11   -1    0    0    0    0 -0.00000000000E+00 -0.00000000000E+00 -0.45593999997E+02  0.45594000000E+02  0.51100000000E-03 0. -1.
    9900012    2    1    2    0    0 -0.22171037599E+02 -0.22908745125E+02  0.59353620389E+00  0.59301987445E+02  0.50000079182E+02 0.  0.
        -12    1    1    2    0    0  0.22171037599E+02  0.22908745125E+02 -0.59353620389E+00  0.31886012555E+02  0.00000000000E+00 0.  1.
         11    1    3    3    0    0 -0.14891420109E+01  0.27136850874E+01 -0.15684015776E+02  0.15986556284E+02  0.51100000000E-03 0. -1.
        -11    1    3    3    0    0 -0.57087365570E+01 -0.93655101424E-01  0.12161097435E+02  0.13434684047E+02  0.51100000000E-03 0.  1.
        -12    1    3    3    0    0 -0.14973159031E+02 -0.25528775111E+02  0.41164545446E+01  0.29880747114E+02  0.00000000000E+00 0.  1.
</event>
<event>
 7    1  0.3528441E-013  0.5930195E+02  0.7816164E-02  0.1266605E+00
        -11   -1    0    0    0    0  0.00000000000E+00  0.00000000000E+00  0.45593999997E+02  0.45594000000E+02  0.51100000000E-03 0. -1.
         11   -1    0    0    0    0 -0.00000000000E+00 -0.00000000000E+00 -0.45593999997E+02  0.45594000000E+02  0.51100000000E-03 0.  1.
    9900012    2    1    2    0    0 -0.48529113891E+01  0.31511913012E+02  0.41113023844E+00  0.59301946015E+02  0.50000003625E+02 0.  0.
        -12    1    1    2    0    0  0.48529113891E+01 -0.31511913012E+02 -0.41113023844E+00  0.31886053985E+02  0.00000000000E+00 0.  1.
         11    1    3    3    0    0  0.10778395702E+01  0.95430620226E+01  0.43405246950E+01  0.10539066647E+02  0.51100000000E-03 0. -1.
        -11    1    3    3    0    0  0.21225119854E+01  0.31411177873E+02  0.69709276107E+01  0.32245325003E+02  0.51100000000E-03 0.  1.
        -12    1    3    3    0    0 -0.80532629447E+01 -0.94423268837E+01 -0.10900322067E+02  0.16517554365E+02  0.00000000000E+00 0.  1.
</event>
<event>
 7    1  0.3528441E-013  0.5930190E+02  0.7816164E-02  0.1266605E+00
        -11   -1    0    0    0    0  0.00000000000E+00  0.00000000000E+00  0.45593999997E+02  0.45594000000E+02  0.51100000000E-03 0.  1.
         11   -1    0    0    0    0 -0.00000000000E+00 -0.00000000000E+00 -0.45593999997E+02  0.45594000000E+02  0.51100000000E-03 0. -1.
    9900012    2    1    2    0    0 -0.22244385324E+02 -0.16370141272E+02 -0.15935149710E+02  0.59301902716E+02  0.49999924658E+02 0.  0.
        -12    1    1    2    0    0  0.22244385324E+02  0.16370141272E+02  0.15935149710E+02  0.31886097284E+02  0.00000000000E+00 0.  1.
         11    1    3    3    0    0 -0.98365826083E+01  0.61113266995E+01  0.14035573498E+00  0.11581294031E+02  0.51100000000E-03 0. -1.
        -11    1    3    3    0    0 -0.51758198662E+01  0.53285201913E+01  0.74969559928E+01  0.10553984467E+02  0.51100000000E-03 0.  1.
         12    1    3    3    0    0 -0.72319828500E+01 -0.27809988162E+02 -0.23572461438E+02  0.37166624218E+02  0.00000000000E+00 0. -1.
</event>
<event>
 7    1  0.3528441E-013  0.5930197E+02  0.7816164E-02  0.1266605E+00
        -11   -1    0    0    0    0  0.00000000000E+00  0.00000000000E+00  0.45593999997E+02  0.45594000000E+02  0.51100000000E-03 0. -1.
         11   -1    0    0    0    0 -0.00000000000E+00 -0.00000000000E+00 -0.45593999997E+02  0.45594000000E+02  0.51100000000E-03 0.  1.
    9900012    2    1    2    0    0  0.13318266738E+02  0.28498390264E+02  0.52138522296E+01  0.59301972784E+02  0.50000052444E+02 0.  0.
        -12    1    1    2    0    0 -0.13318266738E+02 -0.28498390264E+02 -0.52138522296E+01  0.31886027216E+02  0.00000000000E+00 0.  1.
         11    1    3    3    0    0  0.47928853958E+01  0.59357008081E+01  0.99192951534E+01  0.12513860759E+02  0.51100000000E-03 0. -1.
        -11    1    3    3    0    0  0.22625012360E+02  0.15200858040E+02  0.56121101780E+01  0.27828996575E+02  0.51100000000E-03 0.  1.
         12    1    3    3    0    0 -0.14099631018E+02  0.73618314161E+01 -0.10317553102E+02  0.18959115450E+02  0.00000000000E+00 0. -1.
</event>
<event>
 7    1  0.3528441E-013  0.5930195E+02  0.7816164E-02  0.1266605E+00
        -11   -1    0    0    0    0  0.00000000000E+00  0.00000000000E+00  0.45593999997E+02  0.45594000000E+02  0.51100000000E-03 0.  1.
         11   -1    0    0    0    0 -0.00000000000E+00 -0.00000000000E+00 -0.45593999997E+02  0.45594000000E+02  0.51100000000E-03 0. -1.
    9900012    2    1    2    0    0  0.11181696994E+02  0.24429820266E+02 -0.17171883979E+02  0.59301951871E+02  0.50000014305E+02 0.  0.
        -12    1    1    2    0    0 -0.11181696994E+02 -0.24429820266E+02  0.17171883979E+02  0.31886048129E+02  0.00000000000E+00 0.  1.
         11    1    3    3    0    0 -0.86899977964E+01 -0.11513330003E+01 -0.21037165479E+01  0.90148351596E+01  0.51100000000E-03 0. -1.
        -11    1    3    3    0    0 -0.40648106309E+01  0.21974062610E+02 -0.13324189525E+02  0.26017612108E+02  0.51100000000E-03 0.  1.
        -12    1    3    3    0    0  0.23936505421E+02  0.36070906564E+01 -0.17439779055E+01  0.24269504604E+02  0.00000000000E+00 0.  1.
</event>
<event>
 7    1  0.3528441E-013  0.5930196E+02  0.7816164E-02  0.1266605E+00
        -11   -1    0    0    0    0  0.00000000000E+00  0.00000000000E+00  0.45593999997E+02  0.45594000000E+02  0.51100000000E-03 0.  1.
         11   -1    0    0    0    0 -0.00000000000E+00 -0.00000000000E+00 -0.45593999997E+02  0.45594000000E+02  0.51100000000E-03 0. -1.
    9900012    2    1    2    0    0  0.25042898376E+02 -0.11012414377E+02 -0.16379841983E+02  0.59301964610E+02  0.50000037537E+02 0.  0.
        -12    1    1    2    0    0 -0.25042898376E+02  0.11012414377E+02  0.16379841983E+02  0.31886035390E+02  0.00000000000E+00 0.  1.
         11    1    3    3    0    0  0.90817651926E+01  0.86020352920E+01  0.70898017846E+01  0.14378412979E+02  0.51100000000E-03 0. -1.
        -11    1    3    3    0    0  0.38324048367E+01  0.22114656243E+01  0.52507890894E+01  0.68664906147E+01  0.51100000000E-03 0.  1.
         12    1    3    3    0    0  0.12128728347E+02 -0.21825915293E+02 -0.28720432857E+02  0.38057061017E+02  0.00000000000E+00 0. -1.
</event>
<event>
 7    1  0.3528441E-013  0.5930196E+02  0.7816164E-02  0.1266605E+00
        -11   -1    0    0    0    0  0.00000000000E+00  0.00000000000E+00  0.45593999997E+02  0.45594000000E+02  0.51100000000E-03 0. -1.
         11   -1    0    0    0    0 -0.00000000000E+00 -0.00000000000E+00 -0.45593999997E+02  0.45594000000E+02  0.51100000000E-03 0.  1.
    9900012    2    1    2    0    0 -0.28322002127E+02 -0.89686574163E+01  0.11582178994E+02  0.59301960883E+02  0.50000030740E+02 0.  0.
        -12    1    1    2    0    0  0.28322002127E+02  0.89686574163E+01 -0.11582178994E+02  0.31886039117E+02  0.00000000000E+00 0.  1.
         11    1    3    3    0    0 -0.15898321452E+02 -0.43128323500E+01  0.17809551218E+02  0.24259786947E+02  0.51100000000E-03 0. -1.
        -11    1    3    3    0    0 -0.11954935429E+02 -0.17280688034E+02 -0.12800857995E+00  0.21013306415E+02  0.51100000000E-03 0.  1.
         12    1    3    3    0    0 -0.46874524479E+00  0.12624862968E+02 -0.60993636436E+01  0.14028867521E+02  0.00000000000E+00 0. -1.
</event>
<event>
 7    1  0.3528441E-013  0.5930194E+02  0.7816164E-02  0.1266605E+00
        -11   -1    0    0    0    0  0.00000000000E+00  0.00000000000E+00  0.45593999997E+02  0.45594000000E+02  0.51100000000E-03 0. -1.
         11   -1    0    0    0    0 -0.00000000000E+00 -0.00000000000E+00 -0.45593999997E+02  0.45594000000E+02  0.51100000000E-03 0.  1.
    9900012    2    1    2    0    0  0.19733777465E+02 -0.22921947335E+02 -0.10093710199E+02  0.59301943043E+02  0.49999998205E+02 0.  0.
        -12    1    1    2    0    0 -0.19733777465E+02  0.22921947335E+02  0.10093710199E+02  0.31886056957E+02  0.00000000000E+00 0.  1.
         11    1    3    3    0    0  0.62648787258E+01 -0.16958174797E+02  0.70217367263E+01  0.19394153367E+02  0.51100000000E-03 0. -1.
        -11    1    3    3    0    0 -0.90784115169E+01 -0.15590497948E+01 -0.13950622418E+02  0.16717298168E+02  0.51100000000E-03 0.  1.
         12    1    3    3    0    0  0.22547310256E+02 -0.44047227429E+01 -0.31648245072E+01  0.23190491508E+02  0.00000000000E+00 0. -1.
</event>
<event>
 7    1  0.3528441E-013  0.5930195E+02  0.7816164E-02  0.1266605E+00
        -11   -1    0    0    0    0  0.00000000000E+00  0.00000000000E+00  0.45593999997E+02  0.45594000000E+02  0.51100000000E-03 0.  1.
         11   -1    0    0    0    0 -0.00000000000E+00 -0.00000000000E+00 -0.45593999997E+02  0.45594000000E+02  0.51100000000E-03 0. -1.
    9900012    2    1    2    0    0  0.22281017219E+02  0.10925472772E+02 -0.20022742567E+02  0.59301954408E+02  0.50000018931E+02 0.  0.
        -12    1    1    2    0    0 -0.22281017219E+02 -0.10925472772E+02  0.20022742567E+02  0.31886045592E+02  0.00000000000E+00 0.  1.
         11    1    3    3    0    0 -0.42278412082E+01 -0.33072342565E+01 -0.72514627956E+01  0.90219816363E+01  0.51100000000E-03 0. -1.
        -11    1    3    3    0    0  0.95461011958E+01 -0.12666924693E+02 -0.90504466611E+01  0.18261698011E+02  0.51100000000E-03 0.  1.
         12    1    3    3    0    0  0.16962757231E+02  0.26899631721E+02 -0.37208331103E+01  0.32018274761E+02  0.00000000000E+00 0. -1.
</event>
<event>
 7    1  0.3528441E-013  0.5930195E+02  0.7816164E-02  0.1266605E+00
        -11   -1    0    0    0    0  0.00000000000E+00  0.00000000000E+00  0.45593999997E+02  0.45594000000E+02  0.51100000000E-03 0.  1.
         11   -1    0    0    0    0 -0.00000000000E+00 -0.00000000000E+00 -0.45593999997E+02  0.45594000000E+02  0.51100000000E-03 0. -1.
    9900012    2    1    2    0    0 -0.91968477735E+01 -0.24490737793E+02 -0.18230246886E+02  0.59301950572E+02  0.50000011935E+02 0.  0.
        -12    1    1    2    0    0  0.91968477735E+01  0.24490737793E+02  0.18230246886E+02  0.31886049428E+02  0.00000000000E+00 0.  1.
         11    1    3    3    0    0 -0.38163066648E+01  0.36114254989E+01 -0.82989430325E+01  0.98223747848E+01  0.51100000000E-03 0. -1.
        -11    1    3    3    0    0  0.68819312839E+00  0.76891931415E+01 -0.10669939181E+02  0.13169848265E+02  0.51100000000E-03 0.  1.
         12    1    3    3    0    0 -0.60687342371E+01 -0.35791356433E+02  0.73863532716E+00  0.36309727522E+02  0.00000000000E+00 0. -1.
</event>
<event>
 7    1  0.3528441E-013  0.5930226E+02  0.7816164E-02  0.1266604E+00
        -11   -1    0    0    0    0  0.00000000000E+00  0.00000000000E+00  0.45593999997E+02  0.45594000000E+02  0.51100000000E-03 0.  1.
         11   -1    0    0    0    0 -0.00000000000E+00 -0.00000000000E+00 -0.45593999997E+02  0.45594000000E+02  0.51100000000E-03 0. -1.
    9900012    2    1    2    0    0 -0.24822114658E+01  0.25104377305E+02 -0.19501515135E+02  0.59302262966E+02  0.50000581664E+02 0.  0.
        -12    1    1    2    0    0  0.24822114658E+01 -0.25104377305E+02  0.19501515135E+02  0.31885737034E+02  0.00000000000E+00 0.  1.
         11    1    3    3    0    0  0.52703466235E+01 -0.34228263882E+01 -0.16059916492E+02  0.17245672269E+02  0.51100000000E-03 0. -1.
        -11    1    3    3    0    0  0.74190613107E+00 -0.27695136287E+01 -0.87393911652E+01  0.91976947463E+01  0.51100000000E-03 0.  1.
         12    1    3    3    0    0 -0.84944642204E+01  0.31296717322E+02  0.52977925218E+01  0.32858895951E+02  0.00000000000E+00 0. -1.
</event>
<event>
 7    1  0.3528441E-013  0.5930194E+02  0.7816164E-02  0.1266605E+00
        -11   -1    0    0    0    0  0.00000000000E+00  0.00000000000E+00  0.45593999997E+02  0.45594000000E+02  0.51100000000E-03 0.  1.
         11   -1    0    0    0    0 -0.00000000000E+00 -0.00000000000E+00 -0.45593999997E+02  0.45594000000E+02  0.51100000000E-03 0. -1.
    9900012    2    1    2    0    0 -0.12578786711E+02 -0.29298290738E+02  0.32424252386E+00  0.59301939589E+02  0.49999991905E+02 0.  0.
        -12    1    1    2    0    0  0.12578786711E+02  0.29298290738E+02 -0.32424252386E+00  0.31886060411E+02  0.00000000000E+00 0.  1.
         11    1    3    3    0    0 -0.58732589963E+01 -0.70127518214E+01  0.60757733883E+01  0.10981296912E+02  0.51100000000E-03 0. -1.
        -11    1    3    3    0    0 -0.41841831532E+01 -0.27506912336E+02  0.11510902931E+02  0.30110438414E+02  0.51100000000E-03 0.  1.
         12    1    3    3    0    0 -0.25213445615E+01  0.52213734190E+01 -0.17262433795E+02  0.18210204263E+02  0.00000000000E+00 0. -1.
</event>
<event>
 7    1  0.3528441E-013  0.5930194E+02  0.7816164E-02  0.1266605E+00
        -11   -1    0    0    0    0  0.00000000000E+00  0.00000000000E+00  0.45593999997E+02  0.45594000000E+02  0.51100000000E-03 0. -1.
         11   -1    0    0    0    0 -0.00000000000E+00 -0.00000000000E+00 -0.45593999997E+02  0.45594000000E+02  0.51100000000E-03 0.  1.
    9900012    2    1    2    0    0  0.10578180487E+01 -0.92684963074E+01  0.30490925963E+02  0.59301943974E+02  0.49999999901E+02 0.  0.
        -12    1    1    2    0    0 -0.10578180487E+01  0.92684963074E+01 -0.30490925963E+02  0.31886056026E+02  0.00000000000E+00 0.  1.
         11    1    3    3    0    0 -0.23530682665E+02 -0.14088069014E+01  0.12267265249E+02  0.26573738173E+02  0.51100000000E-03 0.  1.
        -11    1    3    3    0    0  0.45412068656E+01 -0.46315895738E+00  0.75981664475E+01  0.88639274389E+01  0.51100000000E-03 0. -1.
        -12    1    3    3    0    0  0.20047293848E+02 -0.73965304487E+01  0.10625494267E+02  0.23864278361E+02  0.00000000000E+00 0.  1.
</event>
<event>
 7    1  0.3528441E-013  0.5930193E+02  0.7816164E-02  0.1266605E+00
        -11   -1    0    0    0    0  0.00000000000E+00  0.00000000000E+00  0.45593999997E+02  0.45594000000E+02  0.51100000000E-03 0.  1.
         11   -1    0    0    0    0 -0.00000000000E+00 -0.00000000000E+00 -0.45593999997E+02  0.45594000000E+02  0.51100000000E-03 0. -1.
    9900012    2    1    2    0    0  0.17998613820E+02  0.11467320890E+02 -0.23691183920E+02  0.59301925557E+02  0.49999966314E+02 0.  0.
        -12    1    1    2    0    0 -0.17998613820E+02 -0.11467320890E+02  0.23691183920E+02  0.31886074443E+02  0.00000000000E+00 0.  1.
         11    1    3    3    0    0 -0.37570634591E+01 -0.10971723907E+02 -0.16532322694E+02  0.20194354291E+02  0.51100000000E-03 0. -1.
        -11    1    3    3    0    0  0.18561956735E+02  0.39224650299E+01  0.78283110766E-01  0.18972034636E+02  0.51100000000E-03 0.  1.
        -12    1    3    3    0    0  0.31937205448E+01  0.18516579767E+02 -0.72371443368E+01  0.20135536629E+02  0.00000000000E+00 0.  1.
</event>
<event>
 7    1  0.3528441E-013  0.5930190E+02  0.7816164E-02  0.1266605E+00
        -11   -1    0    0    0    0  0.00000000000E+00  0.00000000000E+00  0.45593999997E+02  0.45594000000E+02  0.51100000000E-03 0. -1.
         11   -1    0    0    0    0 -0.00000000000E+00 -0.00000000000E+00 -0.45593999997E+02  0.45594000000E+02  0.51100000000E-03 0.  1.
    9900012    2    1    2    0    0 -0.12693534878E+02  0.26687886715E+02 -0.11973053265E+02  0.59301903822E+02  0.49999926674E+02 0.  0.
        -12    1    1    2    0    0  0.12693534878E+02 -0.26687886715E+02  0.11973053265E+02  0.31886096178E+02  0.00000000000E+00 0.  1.
         11    1    3    3    0    0  0.76675753049E+01 -0.32562720706E+01 -0.18716029181E+00  0.83324695073E+01  0.51100000000E-03 0. -1.
        -11    1    3    3    0    0 -0.73327512309E+01  0.13291497985E+02  0.11849245912E+02  0.19257149016E+02  0.51100000000E-03 0.  1.
        -12    1    3    3    0    0 -0.13028358952E+02  0.16652660801E+02 -0.23635138885E+02  0.31712285298E+02  0.00000000000E+00 0.  1.
</event>
<event>
 7    1  0.3528441E-013  0.5930192E+02  0.7816164E-02  0.1266605E+00
        -11   -1    0    0    0    0  0.00000000000E+00  0.00000000000E+00  0.45593999997E+02  0.45594000000E+02  0.51100000000E-03 0.  1.
         11   -1    0    0    0    0 -0.00000000000E+00 -0.00000000000E+00 -0.45593999997E+02  0.45594000000E+02  0.51100000000E-03 0. -1.
    9900012    2    1    2    0    0  0.24209408136E+02 -0.16814763813E+02 -0.12161012370E+02  0.59301922376E+02  0.49999960513E+02 0.  0.
        -12    1    1    2    0    0 -0.24209408136E+02  0.16814763813E+02  0.12161012370E+02  0.31886077624E+02  0.00000000000E+00 0.  1.
         11    1    3    3    0    0  0.11687741443E+02 -0.26785906289E+02 -0.12091405434E+02  0.31627364123E+02  0.51100000000E-03 0. -1.
        -11    1    3    3    0    0 -0.33836060062E+01 -0.17055096365E+01 -0.59779780299E+01  0.70776955510E+01  0.51100000000E-03 0.  1.
         12    1    3    3    0    0  0.15905272699E+02  0.11676652112E+02  0.59083710938E+01  0.20596862702E+02  0.00000000000E+00 0. -1.
</event>
<event>
 7    1  0.3528441E-013  0.5930195E+02  0.7816164E-02  0.1266605E+00
        -11   -1    0    0    0    0  0.00000000000E+00  0.00000000000E+00  0.45593999997E+02  0.45594000000E+02  0.51100000000E-03 0.  1.
         11   -1    0    0    0    0 -0.00000000000E+00 -0.00000000000E+00 -0.45593999997E+02  0.45594000000E+02  0.51100000000E-03 0. -1.
    9900012    2    1    2    0    0 -0.29379759462E+02  0.26380331192E+01 -0.12107466392E+02  0.59301949332E+02  0.50000009673E+02 0.  0.
        -12    1    1    2    0    0  0.29379759462E+02 -0.26380331192E+01  0.12107466392E+02  0.31886050668E+02  0.00000000000E+00 0.  1.
         11    1    3    3    0    0 -0.25004714833E+02 -0.87409404592E+01 -0.14023995700E+02  0.29971857794E+02  0.51100000000E-03 0. -1.
        -11    1    3    3    0    0  0.11008987057E+02  0.65176776642E+01 -0.13638113222E+01  0.12866153261E+02  0.51100000000E-03 0.  1.
         12    1    3    3    0    0 -0.15384031687E+02  0.48612959142E+01  0.32803406307E+01  0.16463938276E+02  0.00000000000E+00 0. -1.
</event>
<event>
 7    1  0.3528441E-013  0.5930196E+02  0.7816164E-02  0.1266605E+00
        -11   -1    0    0    0    0  0.00000000000E+00  0.00000000000E+00  0.45593999997E+02  0.45594000000E+02  0.51100000000E-03 0.  1.
         11   -1    0    0    0    0 -0.00000000000E+00 -0.00000000000E+00 -0.45593999997E+02  0.45594000000E+02  0.51100000000E-03 0. -1.
    9900012    2    1    2    0    0  0.37125755982E+01  0.16470536248E+02  0.27049171462E+02  0.59301961384E+02  0.50000031653E+02 0.  0.
        -12    1    1    2    0    0 -0.37125755982E+01 -0.16470536248E+02 -0.27049171462E+02  0.31886038616E+02  0.00000000000E+00 0.  1.
         11    1    3    3    0    0 -0.71862836230E+01  0.13465890041E+02  0.77511232362E+01  0.17118784378E+02  0.51100000000E-03 0. -1.
        -11    1    3    3    0    0 -0.65063019695E+01  0.13250170073E+02  0.15911802290E+02  0.21704479369E+02  0.51100000000E-03 0.  1.
        -12    1    3    3    0    0  0.17405161191E+02 -0.10245523866E+02  0.33862459350E+01  0.20478697637E+02  0.00000000000E+00 0.  1.
</event>
<event>
 7    1  0.3528441E-013  0.5930195E+02  0.7816164E-02  0.1266605E+00
        -11   -1    0    0    0    0  0.00000000000E+00  0.00000000000E+00  0.45593999997E+02  0.45594000000E+02  0.51100000000E-03 0.  1.
         11   -1    0    0    0    0 -0.00000000000E+00 -0.00000000000E+00 -0.45593999997E+02  0.45594000000E+02  0.51100000000E-03 0. -1.
    9900012    2    1    2    0    0  0.72818091539E+01  0.14518265595E+02 -0.27439305291E+02  0.59301948892E+02  0.50000008871E+02 0.  0.
        -12    1    1    2    0    0 -0.72818091539E+01 -0.14518265595E+02  0.27439305291E+02  0.31886051108E+02  0.00000000000E+00 0.  1.
         11    1    3    3    0    0 -0.21219632684E+01  0.52875180056E+00  0.84022562278E+00  0.23427091021E+01  0.51100000000E-03 0. -1.
        -11    1    3    3    0    0 -0.14510090174E+02  0.19972614829E+02 -0.12293581845E+02  0.27578618798E+02  0.51100000000E-03 0.  1.
         12    1    3    3    0    0  0.23913862596E+02 -0.59831010342E+01 -0.15985949068E+02  0.29380620992E+02  0.00000000000E+00 0. -1.
</event>
<event>
 7    1  0.3528441E-013  0.5930202E+02  0.7816164E-02  0.1266604E+00
        -11   -1    0    0    0    0  0.00000000000E+00  0.00000000000E+00  0.45593999997E+02  0.45594000000E+02  0.51100000000E-03 0.  1.
         11   -1    0    0    0    0 -0.00000000000E+00 -0.00000000000E+00 -0.45593999997E+02  0.45594000000E+02  0.51100000000E-03 0. -1.
    9900012    2    1    2    0    0 -0.27754299753E+01 -0.23448434677E+02 -0.21428564604E+02  0.59302023751E+02  0.50000145396E+02 0.  0.
        -12    1    1    2    0    0  0.27754299753E+01  0.23448434677E+02  0.21428564604E+02  0.31885976249E+02  0.00000000000E+00 0.  1.
         11    1    3    3    0    0 -0.43016935742E+01 -0.27182306363E+02  0.64046205543E+01  0.28255999567E+02  0.51100000000E-03 0. -1.
        -11    1    3    3    0    0 -0.28225502529E+01 -0.39514386701E+01 -0.84445753565E+01  0.97412273717E+01  0.51100000000E-03 0.  1.
        -12    1    3    3    0    0  0.43488138518E+01  0.76853103559E+01 -0.19388609802E+02  0.21304796813E+02  0.00000000000E+00 0.  1.
</event>
<event>
 7    1  0.3528441E-013  0.5930195E+02  0.7816164E-02  0.1266605E+00
        -11   -1    0    0    0    0  0.00000000000E+00  0.00000000000E+00  0.45593999997E+02  0.45594000000E+02  0.51100000000E-03 0.  1.
         11   -1    0    0    0    0 -0.00000000000E+00 -0.00000000000E+00 -0.45593999997E+02  0.45594000000E+02  0.51100000000E-03 0. -1.
    9900012    2    1    2    0    0 -0.10734141302E+02  0.29628612604E+02  0.48624940517E+01  0.59301947834E+02  0.50000006942E+02 0.  0.
        -12    1    1    2    0    0  0.10734141302E+02 -0.29628612604E+02 -0.48624940517E+01  0.31886052166E+02  0.00000000000E+00 0.  1.
         11    1    3    3    0    0  0.11744363681E+02  0.22397002683E+02 -0.53030587831E+01  0.25839470587E+02  0.51100000000E-03 0. -1.
        -11    1    3    3    0    0  0.17801953406E+00 -0.57562426988E+01  0.15713539983E+01  0.59695204675E+01  0.51100000000E-03 0.  1.
        -12    1    3    3    0    0 -0.22656524517E+02  0.12987852619E+02  0.85941988365E+01  0.27492956780E+02  0.00000000000E+00 0.  1.
</event>
<event>
 7    1  0.3528441E-013  0.5930194E+02  0.7816164E-02  0.1266605E+00
        -11   -1    0    0    0    0  0.00000000000E+00  0.00000000000E+00  0.45593999997E+02  0.45594000000E+02  0.51100000000E-03 0. -1.
         11   -1    0    0    0    0 -0.00000000000E+00 -0.00000000000E+00 -0.45593999997E+02  0.45594000000E+02  0.51100000000E-03 0.  1.
    9900012    2    1    2    0    0  0.21343122592E+02  0.17205413635E+02  0.16283907191E+02  0.59301940762E+02  0.49999994044E+02 0.  0.
        -12    1    1    2    0    0 -0.21343122592E+02 -0.17205413635E+02 -0.16283907191E+02  0.31886059238E+02  0.00000000000E+00 0.  1.
         11    1    3    3    0    0  0.21808206015E+02  0.16621972993E+02 -0.84125550976E+01  0.28682031297E+02  0.51100000000E-03 0. -1.
        -11    1    3    3    0    0  0.29615969263E+01  0.32814365776E+01 -0.10198362387E+01  0.45364026035E+01  0.51100000000E-03 0.  1.
         12    1    3    3    0    0 -0.34266803491E+01 -0.26979959354E+01  0.25716298527E+02  0.26083506862E+02  0.00000000000E+00 0. -1.
</event>
<event>
 7    1  0.3528441E-013  0.5930193E+02  0.7816164E-02  0.1266605E+00
        -11   -1    0    0    0    0  0.00000000000E+00  0.00000000000E+00  0.45593999997E+02  0.45594000000E+02  0.51100000000E-03 0. -1.
         11   -1    0    0    0    0 -0.00000000000E+00 -0.00000000000E+00 -0.45593999997E+02  0.45594000000E+02  0.51100000000E-03 0.  1.
    9900012    2    1    2    0    0  0.29406316979E+02  0.85826977554E+01  0.88502598992E+01  0.59301932834E+02  0.49999979585E+02 0.  0.
        -12    1    1    2    0    0 -0.29406316979E+02 -0.85826977554E+01 -0.88502598992E+01  0.31886067166E+02  0.00000000000E+00 0.  1.
         11    1    3    3    0    0  0.31343619829E+02  0.28845067387E+00  0.20403187130E+02  0.37400477980E+02  0.51100000000E-03 0. -1.
        -11    1    3    3    0    0 -0.24194699888E+01 -0.47775401963E+01 -0.20540497297E+01  0.57356643824E+01  0.51100000000E-03 0.  1.
        -12    1    3    3    0    0  0.48216713900E+00  0.13071787278E+02 -0.94988775011E+01  0.16165790471E+02  0.00000000000E+00 0.  1.
</event>
<event>
 7    1  0.3528441E-013  0.5930199E+02  0.7816164E-02  0.1266605E+00
        -11   -1    0    0    0    0  0.00000000000E+00  0.00000000000E+00  0.45593999997E+02  0.45594000000E+02  0.51100000000E-03 0.  1.
         11   -1    0    0    0    0 -0.00000000000E+00 -0.00000000000E+00 -0.45593999997E+02  0.45594000000E+02  0.51100000000E-03 0. -1.
    9900012    2    1    2    0    0 -0.12003165734E+02 -0.19385588508E+02 -0.22289921357E+02  0.59301990159E+02  0.50000084133E+02 0.  0.
        -12    1    1    2    0    0  0.12003165734E+02  0.19385588508E+02  0.22289921357E+02  0.31886009841E+02  0.00000000000E+00 0.  1.
         11    1    3    3    0    0  0.36305707660E+01 -0.86648836906E+01 -0.23152708719E+02  0.24986179675E+02  0.51100000000E-03 0. -1.
        -11    1    3    3    0    0  0.51865285761E-01  0.85592509496E+01 -0.31867760525E+01  0.91334007191E+01  0.51100000000E-03 0.  1.
         12    1    3    3    0    0 -0.15685601786E+02 -0.19279955767E+02  0.40495634141E+01  0.25182409765E+02  0.00000000000E+00 0. -1.
</event>
<event>
 7    1  0.3528441E-013  0.5930199E+02  0.7816164E-02  0.1266605E+00
        -11   -1    0    0    0    0  0.00000000000E+00  0.00000000000E+00  0.45593999997E+02  0.45594000000E+02  0.51100000000E-03 0.  1.
         11   -1    0    0    0    0 -0.00000000000E+00 -0.00000000000E+00 -0.45593999997E+02  0.45594000000E+02  0.51100000000E-03 0. -1.
    9900012    2    1    2    0    0  0.18829604136E+02  0.22208489636E+02 -0.12997938693E+02  0.59301993444E+02  0.50000090124E+02 0.  0.
        -12    1    1    2    0    0 -0.18829604136E+02 -0.22208489636E+02  0.12997938693E+02  0.31886006556E+02  0.00000000000E+00 0.  1.
         11    1    3    3    0    0  0.11049499993E+02  0.40241418874E+01 -0.86749751914E+01  0.14613020319E+02  0.51100000000E-03 0. -1.
        -11    1    3    3    0    0 -0.94048652897E+01 -0.41969276946E+01 -0.11635873643E+02  0.15538959067E+02  0.51100000000E-03 0.  1.
        -12    1    3    3    0    0  0.17184969433E+02  0.22381275443E+02  0.73129101409E+01  0.29150014058E+02  0.00000000000E+00 0.  1.
</event>
<event>
 7    1  0.3528441E-013  0.5930195E+02  0.7816164E-02  0.1266605E+00
        -11   -1    0    0    0    0  0.00000000000E+00  0.00000000000E+00  0.45593999997E+02  0.45594000000E+02  0.51100000000E-03 0.  1.
         11   -1    0    0    0    0 -0.00000000000E+00 -0.00000000000E+00 -0.45593999997E+02  0.45594000000E+02  0.51100000000E-03 0. -1.
    9900012    2    1    2    0    0  0.58132107166E+01  0.28984042705E+02 -0.11952060728E+02  0.59301954369E+02  0.50000018860E+02 0.  0.
        -12    1    1    2    0    0 -0.58132107166E+01 -0.28984042705E+02  0.11952060728E+02  0.31886045631E+02  0.00000000000E+00 0.  1.
         11    1    3    3    0    0  0.14304319219E+02  0.15361379487E+02 -0.20983256637E+01  0.21094750506E+02  0.51100000000E-03 0. -1.
        -11    1    3    3    0    0 -0.78353672672E+01  0.16096105566E+02  0.84002209684E+01  0.19774764403E+02  0.51100000000E-03 0.  1.
         12    1    3    3    0    0 -0.65574123522E+00 -0.24734423483E+01 -0.18253956032E+02  0.18432439460E+02  0.00000000000E+00 0. -1.
</event>
<event>
 7    1  0.3528441E-013  0.5930201E+02  0.7816164E-02  0.1266605E+00
        -11   -1    0    0    0    0  0.00000000000E+00  0.00000000000E+00  0.45593999997E+02  0.45594000000E+02  0.51100000000E-03 0.  1.
         11   -1    0    0    0    0 -0.00000000000E+00 -0.00000000000E+00 -0.45593999997E+02  0.45594000000E+02  0.51100000000E-03 0. -1.
    9900012    2    1    2    0    0  0.42399381818E+01  0.41435524017E+01 -0.31330016792E+02  0.59302014764E+02  0.50000129005E+02 0.  0.
        -12    1    1    2    0    0 -0.42399381818E+01 -0.41435524017E+01  0.31330016792E+02  0.31885985236E+02  0.00000000000E+00 0.  1.
         11    1    3    3    0    0 -0.33224577410E+01 -0.45312168162E+01 -0.58369735567E+01  0.81019079135E+01  0.51100000000E-03 0. -1.
        -11    1    3    3    0    0 -0.87537995954E+01 -0.13893122293E+02 -0.11388747639E+02  0.19983779108E+02  0.51100000000E-03 0.  1.
         12    1    3    3    0    0  0.16316195518E+02  0.22567891511E+02 -0.14104295596E+02  0.31216327742E+02  0.00000000000E+00 0. -1.
</event>
<event>
 7    1  0.3528441E-013  0.5930195E+02  0.7816164E-02  0.1266605E+00
        -11   -1    0    0    0    0  0.00000000000E+00  0.00000000000E+00  0.45593999997E+02  0.45594000000E+02  0.51100000000E-03 0.  1.
         11   -1    0    0    0    0 -0.00000000000E+00 -0.00000000000E+00 -0.45593999997E+02  0.45594000000E+02  0.51100000000E-03 0. -1.
    9900012    2    1    2    0    0 -0.22628702541E+02  0.22094418391E+02  0.40618834705E+01  0.59301946622E+02  0.50000004731E+02 0.  0.
        -12    1    1    2    0    0  0.22628702541E+02 -0.22094418391E+02 -0.40618834705E+01  0.31886053378E+02  0.00000000000E+00 0.  1.
         11    1    3    3    0    0 -0.46127556442E+01 -0.46308786019E+01 -0.82232824134E+01  0.10504519274E+02  0.51100000000E-03 0. -1.
        -11    1    3    3    0    0 -0.38774186174E+00 -0.21763166644E+01 -0.86939237688E+01  0.89705634568E+01  0.51100000000E-03 0.  1.
        -12    1    3    3    0    0 -0.17628205035E+02  0.28901613657E+02  0.20979089653E+02  0.39826863891E+02  0.00000000000E+00 0.  1.
</event>
<event>
 7    1  0.3528441E-013  0.5930198E+02  0.7816164E-02  0.1266605E+00
        -11   -1    0    0    0    0  0.00000000000E+00  0.00000000000E+00  0.45593999997E+02  0.45594000000E+02  0.51100000000E-03 0.  1.
         11   -1    0    0    0    0 -0.00000000000E+00 -0.00000000000E+00 -0.45593999997E+02  0.45594000000E+02  0.51100000000E-03 0. -1.
    9900012    2    1    2    0    0 -0.25478844388E+02 -0.54650068835E+01 -0.18376085724E+02  0.59301978955E+02  0.50000063698E+02 0.  0.
        -12    1    1    2    0    0  0.25478844388E+02  0.54650068835E+01  0.18376085724E+02  0.31886021045E+02  0.00000000000E+00 0.  1.
         11    1    3    3    0    0 -0.99537161062E+01  0.82451937274E+01 -0.86059880038E+01  0.15528126536E+02  0.51100000000E-03 0. -1.
        -11    1    3    3    0    0 -0.17249430326E+02 -0.20499641857E+02 -0.18516967175E+02  0.32567717704E+02  0.51100000000E-03 0.  1.
         12    1    3    3    0    0  0.17243020444E+01  0.67894412465E+01  0.87468694551E+01  0.11206134715E+02  0.00000000000E+00 0. -1.
</event>
<event>
 7    1  0.3528441E-013  0.5930192E+02  0.7816164E-02  0.1266605E+00
        -11   -1    0    0    0    0  0.00000000000E+00  0.00000000000E+00  0.45593999997E+02  0.45594000000E+02  0.51100000000E-03 0.  1.
         11   -1    0    0    0    0 -0.00000000000E+00 -0.00000000000E+00 -0.45593999997E+02  0.45594000000E+02  0.51100000000E-03 0. -1.
    9900012    2    1    2    0    0  0.18063952217E+02 -0.51421746954E+01 -0.25767684790E+02  0.59301922948E+02  0.49999961556E+02 0.  0.
        -12    1    1    2    0    0 -0.18063952217E+02  0.51421746954E+01  0.25767684790E+02  0.31886077052E+02  0.00000000000E+00 0.  1.
         11    1    3    3    0    0  0.97134902691E+01  0.47961789417E+01  0.21102007315E+00  0.10835116768E+02  0.51100000000E-03 0. -1.
        -11    1    3    3    0    0 -0.19616070836E+01  0.58343423222E+01  0.77100136979E+01  0.98656861984E+01  0.51100000000E-03 0.  1.
         12    1    3    3    0    0  0.10312069032E+02 -0.15772695959E+02 -0.33688718561E+02  0.38601119982E+02  0.00000000000E+00 0. -1.
</event>
<event>
 7    1  0.3528441E-013  0.5930193E+02  0.7816164E-02  0.1266605E+00
        -11   -1    0    0    0    0  0.00000000000E+00  0.00000000000E+00  0.45593999997E+02  0.45594000000E+02  0.51100000000E-03 0.  1.
         11   -1    0    0    0    0 -0.00000000000E+00 -0.00000000000E+00 -0.45593999997E+02  0.45594000000E+02  0.51100000000E-03 0. -1.
    9900012    2    1    2    0    0 -0.21178886392E+02 -0.22908266971E+02 -0.65868988432E+01  0.59301934693E+02  0.49999982975E+02 0.  0.
        -12    1    1    2    0    0  0.21178886392E+02  0.22908266971E+02  0.65868988432E+01  0.31886065307E+02  0.00000000000E+00 0.  1.
         11    1    3    3    0    0 -0.82662937366E+01 -0.21518667324E+02 -0.61595453290E+01  0.23860525025E+02  0.51100000000E-03 0. -1.
        -11    1    3    3    0    0 -0.87935969350E+01 -0.16950548109E+02  0.18460421367E+01  0.19184793459E+02  0.51100000000E-03 0.  1.
        -12    1    3    3    0    0 -0.41189957201E+01  0.15560948462E+02 -0.22733956508E+01  0.16256616208E+02  0.00000000000E+00 0.  1.
</event>
<event>
 7    1  0.3528441E-013  0.5930203E+02  0.7816164E-02  0.1266604E+00
        -11   -1    0    0    0    0  0.00000000000E+00  0.00000000000E+00  0.45593999997E+02  0.45594000000E+02  0.51100000000E-03 0.  1.
         11   -1    0    0    0    0 -0.00000000000E+00 -0.00000000000E+00 -0.45593999997E+02  0.45594000000E+02  0.51100000000E-03 0. -1.
    9900012    2    1    2    0    0  0.24546553464E+02  0.17242552509E+02  0.10810936949E+02  0.59302027195E+02  0.50000151677E+02 0.  0.
        -12    1    1    2    0    0 -0.24546553464E+02 -0.17242552509E+02 -0.10810936949E+02  0.31885972805E+02  0.00000000000E+00 0.  1.
         11    1    3    3    0    0  0.17076582856E+02 -0.48006428861E+01  0.76497721658E+01  0.19317734562E+02  0.51100000000E-03 0. -1.
        -11    1    3    3    0    0  0.79668265717E+01 -0.31230154009E+01  0.10707121405E+02  0.13706421848E+02  0.51100000000E-03 0.  1.
         12    1    3    3    0    0 -0.49685596369E+00  0.25166210796E+02 -0.75459566215E+01  0.26277870785E+02  0.00000000000E+00 0. -1.
</event>
<event>
 7    1  0.3528441E-013  0.5930196E+02  0.7816164E-02  0.1266605E+00
        -11   -1    0    0    0    0  0.00000000000E+00  0.00000000000E+00  0.45593999997E+02  0.45594000000E+02  0.51100000000E-03 0.  1.
         11   -1    0    0    0    0 -0.00000000000E+00 -0.00000000000E+00 -0.45593999997E+02  0.45594000000E+02  0.51100000000E-03 0. -1.
    9900012    2    1    2    0    0  0.19901218449E+01  0.29944461383E+02 -0.10774428313E+02  0.59301958259E+02  0.50000025954E+02 0.  0.
        -12    1    1    2    0    0 -0.19901218449E+01 -0.29944461383E+02  0.10774428313E+02  0.31886041741E+02  0.00000000000E+00 0.  1.
         11    1    3    3    0    0 -0.10262268410E+02  0.25801532839E+02 -0.23459385061E+02  0.36350735858E+02  0.51100000000E-03 0. -1.
        -11    1    3    3    0    0  0.99514829933E+00  0.47913185724E+01 -0.12254223543E+01  0.50446718434E+01  0.51100000000E-03 0.  1.
        -12    1    3    3    0    0  0.11257241956E+02 -0.64839002824E+00  0.13910379102E+02  0.17906550557E+02  0.00000000000E+00 0.  1.
</event>
<event>
 7    1  0.3528441E-013  0.5930198E+02  0.7816164E-02  0.1266605E+00
        -11   -1    0    0    0    0  0.00000000000E+00  0.00000000000E+00  0.45593999997E+02  0.45594000000E+02  0.51100000000E-03 0.  1.
         11   -1    0    0    0    0 -0.00000000000E+00 -0.00000000000E+00 -0.45593999997E+02  0.45594000000E+02  0.51100000000E-03 0. -1.
    9900012    2    1    2    0    0 -0.15525655270E+02 -0.20929027429E+02  0.18375204149E+02  0.59301979737E+02  0.50000065124E+02 0.  0.
        -12    1    1    2    0    0  0.15525655270E+02  0.20929027429E+02 -0.18375204149E+02  0.31886020263E+02  0.00000000000E+00 0.  1.
         11    1    3    3    0    0  0.19667415836E+01 -0.11729193322E+02 -0.43627783606E+01  0.12667907630E+02  0.51100000000E-03 0. -1.
        -11    1    3    3    0    0  0.50624628424E+01 -0.14564835007E+02  0.20380690742E+01  0.15553670777E+02  0.51100000000E-03 0.  1.
         12    1    3    3    0    0 -0.22554859696E+02  0.53650009000E+01  0.20699913436E+02  0.31080401330E+02  0.00000000000E+00 0. -1.
</event>
<event>
 7    1  0.3528441E-013  0.5930196E+02  0.7816164E-02  0.1266605E+00
        -11   -1    0    0    0    0  0.00000000000E+00  0.00000000000E+00  0.45593999997E+02  0.45594000000E+02  0.51100000000E-03 0.  1.
         11   -1    0    0    0    0 -0.00000000000E+00 -0.00000000000E+00 -0.45593999997E+02  0.45594000000E+02  0.51100000000E-03 0. -1.
    9900012    2    1    2    0    0  0.34465558206E+01 -0.26999303671E+02 -0.16609579213E+02  0.59301964383E+02  0.50000037123E+02 0.  0.
        -12    1    1    2    0    0 -0.34465558206E+01  0.26999303671E+02  0.16609579213E+02  0.31886035617E+02  0.00000000000E+00 0.  1.
         11    1    3    3    0    0 -0.88875884307E+01 -0.50897297737E+01  0.57850423123E+01  0.11762707686E+02  0.51100000000E-03 0. -1.
        -11    1    3    3    0    0  0.15003256387E+02 -0.42168125565E+01  0.35873539249E+01  0.15992133029E+02  0.51100000000E-03 0.  1.
         12    1    3    3    0    0 -0.26691121359E+01 -0.17692761341E+02 -0.25981975450E+02  0.31547123669E+02  0.00000000000E+00 0. -1.
</event>
<event>
 7    1  0.3528441E-013  0.5930205E+02  0.7816164E-02  0.1266604E+00
        -11   -1    0    0    0    0  0.00000000000E+00  0.00000000000E+00  0.45593999997E+02  0.45594000000E+02  0.51100000000E-03 0. -1.
         11   -1    0    0    0    0 -0.00000000000E+00 -0.00000000000E+00 -0.45593999997E+02  0.45594000000E+02  0.51100000000E-03 0.  1.
    9900012    2    1    2    0    0  0.87597775862E+01 -0.16631512437E+01  0.30613956716E+02  0.59302045079E+02  0.50000184293E+02 0.  0.
        -12    1    1    2    0    0 -0.87597775862E+01  0.16631512437E+01 -0.30613956716E+02  0.31885954921E+02  0.00000000000E+00 0.  1.
         11    1    3    3    0    0  0.12532529302E+02  0.11277380625E+02  0.14296376413E+02  0.22104976437E+02  0.51100000000E-03 0. -1.
        -11    1    3    3    0    0  0.54111784771E+01 -0.63612935888E+01 -0.72514507753E+01  0.11060309545E+02  0.51100000000E-03 0.  1.
         12    1    3    3    0    0 -0.91839301931E+01 -0.65792382795E+01  0.23569031078E+02  0.26136759097E+02  0.00000000000E+00 0. -1.
</event>
<event>
 7    1  0.3528441E-013  0.5930198E+02  0.7816164E-02  0.1266605E+00
        -11   -1    0    0    0    0  0.00000000000E+00  0.00000000000E+00  0.45593999997E+02  0.45594000000E+02  0.51100000000E-03 0.  1.
         11   -1    0    0    0    0 -0.00000000000E+00 -0.00000000000E+00 -0.45593999997E+02  0.45594000000E+02  0.51100000000E-03 0. -1.
    9900012    2    1    2    0    0 -0.12269284127E+02  0.15185623618E+02 -0.25210704346E+02  0.59301982512E+02  0.50000070186E+02 0.  0.
        -12    1    1    2    0    0  0.12269284127E+02 -0.15185623618E+02  0.25210704346E+02  0.31886017488E+02  0.00000000000E+00 0.  1.
         11    1    3    3    0    0 -0.11027406276E+02 -0.49024471261E+01 -0.13902258469E+02  0.18409521118E+02  0.51100000000E-03 0. -1.
        -11    1    3    3    0    0 -0.11091086031E+02  0.60650407467E+01  0.80906722099E+01  0.15008527098E+02  0.51100000000E-03 0.  1.
        -12    1    3    3    0    0  0.98492081798E+01  0.14023029997E+02 -0.19399118087E+02  0.25883934296E+02  0.00000000000E+00 0.  1.
</event>
<event>
 7    1  0.3528441E-013  0.5930194E+02  0.7816164E-02  0.1266605E+00
        -11   -1    0    0    0    0  0.00000000000E+00  0.00000000000E+00  0.45593999997E+02  0.45594000000E+02  0.51100000000E-03 0.  1.
         11   -1    0    0    0    0 -0.00000000000E+00 -0.00000000000E+00 -0.45593999997E+02  0.45594000000E+02  0.51100000000E-03 0. -1.
    9900012    2    1    2    0    0 -0.25881050918E+02 -0.15151097665E+02 -0.10832179196E+02  0.59301942495E+02  0.49999997205E+02 0.  0.
        -12    1    1    2    0    0  0.25881050918E+02  0.15151097665E+02  0.10832179196E+02  0.31886057505E+02  0.00000000000E+00 0.  1.
         11    1    3    3    0    0  0.93276953939E+01  0.23825521749E+00 -0.16797536657E+02  0.19215095756E+02  0.51100000000E-03 0. -1.
        -11    1    3    3    0    0 -0.76276839590E+00 -0.20214186763E+01  0.19675995894E+01  0.29222247512E+01  0.51100000000E-03 0.  1.
        -12    1    3    3    0    0 -0.34445977916E+02 -0.13367934206E+02  0.39977578712E+01  0.37164621988E+02  0.00000000000E+00 0.  1.
</event>
<event>
 7    1  0.3528441E-013  0.5930194E+02  0.7816164E-02  0.1266605E+00
        -11   -1    0    0    0    0  0.00000000000E+00  0.00000000000E+00  0.45593999997E+02  0.45594000000E+02  0.51100000000E-03 0.  1.
         11   -1    0    0    0    0 -0.00000000000E+00 -0.00000000000E+00 -0.45593999997E+02  0.45594000000E+02  0.51100000000E-03 0. -1.
    9900012    2    1    2    0    0 -0.30719332424E+01 -0.12468380676E+02 -0.29186010755E+02  0.59301944830E+02  0.50000001462E+02 0.  0.
        -12    1    1    2    0    0  0.30719332424E+01  0.12468380676E+02  0.29186010755E+02  0.31886055170E+02  0.00000000000E+00 0.  1.
         11    1    3    3    0    0  0.45863909662E+01 -0.16655179753E+02 -0.22680576685E+02  0.28510323634E+02  0.51100000000E-03 0.  1.
        -11    1    3    3    0    0 -0.26915440162E+01 -0.17468206478E+01 -0.17252670136E+02  0.17548516138E+02  0.51100000000E-03 0. -1.
        -12    1    3    3    0    0 -0.49667801925E+01  0.59336197248E+01  0.10747236065E+02  0.13243105058E+02  0.00000000000E+00 0.  1.
</event>
<event>
 7    1  0.3528441E-013  0.5930205E+02  0.7816164E-02  0.1266604E+00
        -11   -1    0    0    0    0  0.00000000000E+00  0.00000000000E+00  0.45593999997E+02  0.45594000000E+02  0.51100000000E-03 0.  1.
         11   -1    0    0    0    0 -0.00000000000E+00 -0.00000000000E+00 -0.45593999997E+02  0.45594000000E+02  0.51100000000E-03 0. -1.
    9900012    2    1    2    0    0  0.16891143830E+02 -0.18119344519E+02 -0.20077169339E+02  0.59302045186E+02  0.50000184488E+02 0.  0.
        -12    1    1    2    0    0 -0.16891143830E+02  0.18119344519E+02  0.20077169339E+02  0.31885954814E+02  0.00000000000E+00 0.  1.
         11    1    3    3    0    0  0.26064464633E+02 -0.20819777019E+01 -0.10720577395E+02  0.28259896102E+02  0.51100000000E-03 0. -1.
        -11    1    3    3    0    0 -0.64267342364E+00  0.57918135465E+01 -0.37960208051E+01  0.69547039837E+01  0.51100000000E-03 0.  1.
        -12    1    3    3    0    0 -0.85306473790E+01 -0.21829180364E+02 -0.55605711391E+01  0.24087445100E+02  0.00000000000E+00 0.  1.
</event>
<event>
 7    1  0.3528441E-013  0.5930193E+02  0.7816164E-02  0.1266605E+00
        -11   -1    0    0    0    0  0.00000000000E+00  0.00000000000E+00  0.45593999997E+02  0.45594000000E+02  0.51100000000E-03 0. -1.
         11   -1    0    0    0    0 -0.00000000000E+00 -0.00000000000E+00 -0.45593999997E+02  0.45594000000E+02  0.51100000000E-03 0.  1.
    9900012    2    1    2    0    0  0.46236819220E+01  0.24832462342E+02 -0.19460009799E+02  0.59301927776E+02  0.49999970361E+02 0.  0.
        -12    1    1    2    0    0 -0.46236819220E+01 -0.24832462342E+02  0.19460009799E+02  0.31886072224E+02  0.00000000000E+00 0.  1.
         11    1    3    3    0    0  0.45542984163E+01  0.15120968113E+02 -0.86762382314E+00  0.15815754237E+02  0.51100000000E-03 0. -1.
        -11    1    3    3    0    0 -0.14502934224E+02  0.12130869538E+02  0.10178397496E+01  0.18934864533E+02  0.51100000000E-03 0.  1.
         12    1    3    3    0    0  0.14572317730E+02 -0.24193753089E+01 -0.19610225726E+02  0.24551309006E+02  0.00000000000E+00 0. -1.
</event>
<event>
 7    1  0.3528441E-013  0.5930195E+02  0.7816164E-02  0.1266605E+00
        -11   -1    0    0    0    0  0.00000000000E+00  0.00000000000E+00  0.45593999997E+02  0.45594000000E+02  0.51100000000E-03 0. -1.
         11   -1    0    0    0    0 -0.00000000000E+00 -0.00000000000E+00 -0.45593999997E+02  0.45594000000E+02  0.51100000000E-03 0.  1.
    9900012    2    1    2    0    0 -0.22993031198E+02 -0.18496170681E+02  0.12080250424E+02  0.59301948758E+02  0.50000008627E+02 0.  0.
        -12    1    1    2    0    0  0.22993031198E+02  0.18496170681E+02 -0.12080250424E+02  0.31886051242E+02  0.00000000000E+00 0.  1.
         11    1    3    3    0    0 -0.89990875534E+01  0.96574447765E+01 -0.36685415583E+01  0.13700657423E+02  0.51100000000E-03 0. -1.
        -11    1    3    3    0    0  0.83383000238E+01 -0.13149682215E+02  0.84905538408E+01  0.17735018873E+02  0.51100000000E-03 0.  1.
         12    1    3    3    0    0 -0.22332243668E+02 -0.15003933242E+02  0.72582381411E+01  0.27866272461E+02  0.00000000000E+00 0. -1.
</event>
<event>
 7    1  0.3528441E-013  0.5930200E+02  0.7816164E-02  0.1266605E+00
        -11   -1    0    0    0    0  0.00000000000E+00  0.00000000000E+00  0.45593999997E+02  0.45594000000E+02  0.51100000000E-03 0. -1.
         11   -1    0    0    0    0 -0.00000000000E+00 -0.00000000000E+00 -0.45593999997E+02  0.45594000000E+02  0.51100000000E-03 0.  1.
    9900012    2    1    2    0    0 -0.13967277253E+00  0.10936694073E+02  0.29951398037E+02  0.59301999465E+02  0.50000101105E+02 0.  0.
        -12    1    1    2    0    0  0.13967277253E+00 -0.10936694073E+02 -0.29951398037E+02  0.31886000535E+02  0.00000000000E+00 0.  1.
         11    1    3    3    0    0  0.35738546590E+00 -0.11955169814E+02  0.15653049227E+02  0.19699537051E+02  0.51100000000E-03 0. -1.
        -11    1    3    3    0    0 -0.15146523288E+01 -0.67741168594E+01  0.47886871182E+01  0.84329327923E+01  0.51100000000E-03 0.  1.
        -12    1    3    3    0    0  0.10175940903E+01  0.29665980746E+02  0.95096616917E+01  0.31169529622E+02  0.00000000000E+00 0.  1.
</event>
<event>
 7    1  0.3528441E-013  0.5930195E+02  0.7816164E-02  0.1266605E+00
        -11   -1    0    0    0    0  0.00000000000E+00  0.00000000000E+00  0.45593999997E+02  0.45594000000E+02  0.51100000000E-03 0.  1.
         11   -1    0    0    0    0 -0.00000000000E+00 -0.00000000000E+00 -0.45593999997E+02  0.45594000000E+02  0.51100000000E-03 0. -1.
    9900012    2    1    2    0    0 -0.17525845280E+02  0.10395763954E+01 -0.26617370787E+02  0.59301946631E+02  0.50000004748E+02 0.  0.
        -12    1    1    2    0    0  0.17525845280E+02 -0.10395763954E+01  0.26617370787E+02  0.31886053369E+02  0.00000000000E+00 0.  1.
         11    1    3    3    0    0 -0.12228867611E+02  0.18006881070E+02 -0.42233191809E+01  0.22172717336E+02  0.51100000000E-03 0. -1.
        -11    1    3    3    0    0  0.66489910153E+00 -0.24886858627E+01  0.49723362362E+01  0.55999800040E+01  0.51100000000E-03 0.  1.
        -12    1    3    3    0    0 -0.59618767701E+01 -0.14478618812E+02 -0.27366387842E+02  0.31529249291E+02  0.00000000000E+00 0.  1.
</event>
<event>
 7    1  0.3528441E-013  0.5930195E+02  0.7816164E-02  0.1266605E+00
        -11   -1    0    0    0    0  0.00000000000E+00  0.00000000000E+00  0.45593999997E+02  0.45594000000E+02  0.51100000000E-03 0. -1.
         11   -1    0    0    0    0 -0.00000000000E+00 -0.00000000000E+00 -0.45593999997E+02  0.45594000000E+02  0.51100000000E-03 0.  1.
    9900012    2    1    2    0    0  0.15073925801E+02  0.14177080376E+02  0.24259165048E+02  0.59301953900E+02  0.50000018005E+02 0.  0.
        -12    1    1    2    0    0 -0.15073925801E+02 -0.14177080376E+02 -0.24259165048E+02  0.31886046100E+02  0.00000000000E+00 0.  1.
         11    1    3    3    0    0 -0.33919130260E+01  0.14891243296E+02 -0.49828137755E+01  0.16064950490E+02  0.51100000000E-03 0. -1.
        -11    1    3    3    0    0  0.82092753786E+01 -0.43508230918E+01 -0.25496709840E+01  0.96344530829E+01  0.51100000000E-03 0.  1.
         12    1    3    3    0    0  0.10256563448E+02  0.36366601717E+01  0.31791649808E+02  0.33602550327E+02  0.00000000000E+00 0. -1.
</event>
<event>
 7    1  0.3528441E-013  0.5930199E+02  0.7816164E-02  0.1266605E+00
        -11   -1    0    0    0    0  0.00000000000E+00  0.00000000000E+00  0.45593999997E+02  0.45594000000E+02  0.51100000000E-03 0.  1.
         11   -1    0    0    0    0 -0.00000000000E+00 -0.00000000000E+00 -0.45593999997E+02  0.45594000000E+02  0.51100000000E-03 0. -1.
    9900012    2    1    2    0    0 -0.19250741357E+01 -0.30448396629E+02  0.92685807663E+01  0.59301994337E+02  0.50000091753E+02 0.  0.
        -12    1    1    2    0    0  0.19250741357E+01  0.30448396629E+02 -0.92685807663E+01  0.31886005663E+02  0.00000000000E+00 0.  1.
         11    1    3    3    0    0  0.75665932222E+01 -0.20464302840E+02  0.15993924770E+02  0.27052664444E+02  0.51100000000E-03 0. -1.
        -11    1    3    3    0    0 -0.13941428005E+02 -0.52682204306E+01  0.74496851655E+01  0.16661793741E+02  0.51100000000E-03 0.  1.
        -12    1    3    3    0    0  0.44497606472E+01 -0.47158733583E+01 -0.14175029170E+02  0.15587536153E+02  0.00000000000E+00 0.  1.
</event>
<event>
 7    1  0.3528441E-013  0.5930197E+02  0.7816164E-02  0.1266605E+00
        -11   -1    0    0    0    0  0.00000000000E+00  0.00000000000E+00  0.45593999997E+02  0.45594000000E+02  0.51100000000E-03 0. -1.
         11   -1    0    0    0    0 -0.00000000000E+00 -0.00000000000E+00 -0.45593999997E+02  0.45594000000E+02  0.51100000000E-03 0.  1.
    9900012    2    1    2    0    0 -0.25666588261E+02  0.82189860558E+01  0.17040939100E+02  0.59301967162E+02  0.50000042191E+02 0.  0.
        -12    1    1    2    0    0  0.25666588261E+02 -0.82189860558E+01 -0.17040939100E+02  0.31886032838E+02  0.00000000000E+00 0.  1.
         11    1    3    3    0    0 -0.64284676489E+01  0.47184422116E+01 -0.89443125285E+01  0.11982888637E+02  0.51100000000E-03 0.  1.
        -11    1    3    3    0    0 -0.14596251944E+02  0.26086387158E+01 -0.52489981033E+01  0.15729194134E+02  0.51100000000E-03 0. -1.
         12    1    3    3    0    0 -0.46418686680E+01  0.89190512848E+00  0.31234249732E+02  0.31589884391E+02  0.00000000000E+00 0. -1.
</event>
<event>
 7    1  0.3528441E-013  0.5930195E+02  0.7816164E-02  0.1266605E+00
        -11   -1    0    0    0    0  0.00000000000E+00  0.00000000000E+00  0.45593999997E+02  0.45594000000E+02  0.51100000000E-03 0.  1.
         11   -1    0    0    0    0 -0.00000000000E+00 -0.00000000000E+00 -0.45593999997E+02  0.45594000000E+02  0.51100000000E-03 0. -1.
    9900012    2    1    2    0    0  0.26590037927E+02 -0.84393742851E+01 -0.15442387325E+02  0.59301945343E+02  0.50000002398E+02 0.  0.
        -12    1    1    2    0    0 -0.26590037927E+02  0.84393742851E+01  0.15442387325E+02  0.31886054657E+02  0.00000000000E+00 0.  1.
         11    1    3    3    0    0 -0.66227864903E+01  0.72956776614E+01  0.52403611751E+01  0.11160179163E+02  0.51100000000E-03 0. -1.
        -11    1    3    3    0    0 -0.33783232758E+01 -0.11441025108E+01  0.16830028304E+00  0.35707651782E+01  0.51100000000E-03 0.  1.
         12    1    3    3    0    0  0.36591147693E+02 -0.14590949436E+02 -0.20851048784E+02  0.44571001002E+02  0.00000000000E+00 0. -1.
</event>
<event>
 7    1  0.3528441E-013  0.5930196E+02  0.7816164E-02  0.1266605E+00
        -11   -1    0    0    0    0  0.00000000000E+00  0.00000000000E+00  0.45593999997E+02  0.45594000000E+02  0.51100000000E-03 0.  1.
         11   -1    0    0    0    0 -0.00000000000E+00 -0.00000000000E+00 -0.45593999997E+02  0.45594000000E+02  0.51100000000E-03 0. -1.
    9900012    2    1    2    0    0  0.23130183394E+02  0.14644094371E+02 -0.16348232949E+02  0.59301959099E+02  0.50000027486E+02 0.  0.
        -12    1    1    2    0    0 -0.23130183394E+02 -0.14644094371E+02  0.16348232949E+02  0.31886040901E+02  0.00000000000E+00 0.  1.
         11    1    3    3    0    0  0.55690334242E+01 -0.61261711541E+01 -0.35795022038E+01  0.90198083448E+01  0.51100000000E-03 0. -1.
        -11    1    3    3    0    0  0.25172027571E+02  0.59477396734E+01  0.45355927734E+01  0.26259820664E+02  0.51100000000E-03 0.  1.
         12    1    3    3    0    0 -0.76108776009E+01  0.14822525852E+02 -0.17304323519E+02  0.24022330090E+02  0.00000000000E+00 0. -1.
</event>
<event>
 7    1  0.3528441E-013  0.5930194E+02  0.7816164E-02  0.1266605E+00
        -11   -1    0    0    0    0  0.00000000000E+00  0.00000000000E+00  0.45593999997E+02  0.45594000000E+02  0.51100000000E-03 0.  1.
         11   -1    0    0    0    0 -0.00000000000E+00 -0.00000000000E+00 -0.45593999997E+02  0.45594000000E+02  0.51100000000E-03 0. -1.
    9900012    2    1    2    0    0 -0.10505230061E+02 -0.16558006995E+02 -0.25143450329E+02  0.59301944290E+02  0.50000000478E+02 0.  0.
        -12    1    1    2    0    0  0.10505230061E+02  0.16558006995E+02  0.25143450329E+02  0.31886055710E+02  0.00000000000E+00 0.  1.
         11    1    3    3    0    0  0.28290732607E+01 -0.46254651353E+01 -0.31657630202E+02  0.32118594824E+02  0.51100000000E-03 0. -1.
        -11    1    3    3    0    0 -0.32007004995E+00  0.30191926080E+01 -0.37792424815E+01  0.48477461604E+01  0.51100000000E-03 0.  1.
        -12    1    3    3    0    0 -0.13014233272E+02 -0.14951734468E+02  0.10293422354E+02  0.22335603305E+02  0.00000000000E+00 0.  1.
</event>
<event>
 7    1  0.3528441E-013  0.5930192E+02  0.7816164E-02  0.1266605E+00
        -11   -1    0    0    0    0  0.00000000000E+00  0.00000000000E+00  0.45593999997E+02  0.45594000000E+02  0.51100000000E-03 0.  1.
         11   -1    0    0    0    0 -0.00000000000E+00 -0.00000000000E+00 -0.45593999997E+02  0.45594000000E+02  0.51100000000E-03 0. -1.
    9900012    2    1    2    0    0  0.12713576804E+02 -0.26186135544E+02 -0.13014342124E+02  0.59301924186E+02  0.49999963813E+02 0.  0.
        -12    1    1    2    0    0 -0.12713576804E+02  0.26186135544E+02  0.13014342124E+02  0.31886075814E+02  0.00000000000E+00 0.  1.
         11    1    3    3    0    0 -0.25692657788E+01 -0.15813838989E+02 -0.78839073157E+00  0.16040579491E+02  0.51100000000E-03 0. -1.
        -11    1    3    3    0    0  0.93383627094E+01 -0.11269675038E+01  0.12825312030E+02  0.15904832686E+02  0.51100000000E-03 0.  1.
         12    1    3    3    0    0  0.59444798735E+01 -0.92453290520E+01 -0.25051263422E+02  0.27356512009E+02  0.00000000000E+00 0. -1.
</event>
<event>
 7    1  0.3528441E-013  0.5930192E+02  0.7816164E-02  0.1266605E+00
        -11   -1    0    0    0    0  0.00000000000E+00  0.00000000000E+00  0.45593999997E+02  0.45594000000E+02  0.51100000000E-03 0. -1.
         11   -1    0    0    0    0 -0.00000000000E+00 -0.00000000000E+00 -0.45593999997E+02  0.45594000000E+02  0.51100000000E-03 0.  1.
    9900012    2    1    2    0    0 -0.73655997272E+01  0.38139944493E+01  0.30788361552E+02  0.59301924355E+02  0.49999964122E+02 0.  0.
        -12    1    1    2    0    0  0.73655997272E+01 -0.38139944493E+01 -0.30788361552E+02  0.31886075645E+02  0.00000000000E+00 0.  1.
         11    1    3    3    0    0  0.70163977102E+01 -0.37185317951E+01 -0.46655605252E+01  0.92100364177E+01  0.51100000000E-03 0. -1.
        -11    1    3    3    0    0 -0.15166427992E+02  0.88237454056E+01  0.32406783712E+01  0.17843234504E+02  0.51100000000E-03 0.  1.
         12    1    3    3    0    0  0.78443055413E+00 -0.12912191612E+01  0.32213243706E+02  0.32248653433E+02  0.00000000000E+00 0. -1.
</event>
<event>
 7    1  0.3528441E-013  0.5930192E+02  0.7816164E-02  0.1266605E+00
        -11   -1    0    0    0    0  0.00000000000E+00  0.00000000000E+00  0.45593999997E+02  0.45594000000E+02  0.51100000000E-03 0. -1.
         11   -1    0    0    0    0 -0.00000000000E+00 -0.00000000000E+00 -0.45593999997E+02  0.45594000000E+02  0.51100000000E-03 0.  1.
    9900012    2    1    2    0    0 -0.16712694158E+02  0.53738155363E+00  0.27149940664E+02  0.59301918349E+02  0.49999953169E+02 0.  0.
        -12    1    1    2    0    0  0.16712694158E+02 -0.53738155363E+00 -0.27149940664E+02  0.31886081651E+02  0.00000000000E+00 0.  1.
         11    1    3    3    0    0  0.26030928522E+01  0.76620938606E+01  0.19051105411E+02  0.20698511840E+02  0.51100000000E-03 0. -1.
        -11    1    3    3    0    0  0.45406344782E+00  0.84439453558E+01 -0.54139195653E+01  0.10040762526E+02  0.51100000000E-03 0.  1.
        -12    1    3    3    0    0 -0.19769850458E+02 -0.15568657663E+02  0.13512754818E+02  0.28562643984E+02  0.00000000000E+00 0.  1.
</event>
<event>
 7    1  0.3528441E-013  0.5930193E+02  0.7816164E-02  0.1266605E+00
        -11   -1    0    0    0    0  0.00000000000E+00  0.00000000000E+00  0.45593999997E+02  0.45594000000E+02  0.51100000000E-03 0.  1.
         11   -1    0    0    0    0 -0.00000000000E+00 -0.00000000000E+00 -0.45593999997E+02  0.45594000000E+02  0.51100000000E-03 0. -1.
    9900012    2    1    2    0    0 -0.14831823701E+02 -0.23236849003E+02 -0.16024574755E+02  0.59301934988E+02  0.49999983513E+02 0.  0.
        -12    1    1    2    0    0  0.14831823701E+02  0.23236849003E+02  0.16024574755E+02  0.31886065012E+02  0.00000000000E+00 0.  1.
         11    1    3    3    0    0  0.13914073637E+00 -0.32732011054E+01 -0.11675658387E+02  0.12126590809E+02  0.51100000000E-03 0. -1.
        -11    1    3    3    0    0  0.23030400258E+01  0.11150997433E+02 -0.10320138064E+01  0.11433013157E+02  0.51100000000E-03 0.  1.
         12    1    3    3    0    0 -0.17274004463E+02 -0.31114645330E+02 -0.33169025616E+01  0.35742331021E+02  0.00000000000E+00 0. -1.
</event>
<event>
 7    1  0.3528441E-013  0.5930195E+02  0.7816164E-02  0.1266605E+00
        -11   -1    0    0    0    0  0.00000000000E+00  0.00000000000E+00  0.45593999997E+02  0.45594000000E+02  0.51100000000E-03 0. -1.
         11   -1    0    0    0    0 -0.00000000000E+00 -0.00000000000E+00 -0.45593999997E+02  0.45594000000E+02  0.51100000000E-03 0.  1.
    9900012    2    1    2    0    0  0.25382829757E+02 -0.18720836728E+02 -0.46864080018E+01  0.59301949849E+02  0.50000010616E+02 0.  0.
        -12    1    1    2    0    0 -0.25382829757E+02  0.18720836728E+02  0.46864080018E+01  0.31886050151E+02  0.00000000000E+00 0.  1.
         11    1    3    3    0    0 -0.46171708176E+01 -0.50991782052E+01  0.66647657962E+01  0.95780471969E+01  0.51100000000E-03 0. -1.
        -11    1    3    3    0    0 -0.68221176851E+01 -0.60465861997E+01 -0.77381069741E+01  0.11957457681E+02  0.51100000000E-03 0.  1.
         12    1    3    3    0    0  0.36822118260E+02 -0.75750723234E+01 -0.36130668239E+01  0.37766444971E+02  0.00000000000E+00 0. -1.
</event>
<event>
 7    1  0.3528441E-013  0.5930196E+02  0.7816164E-02  0.1266605E+00
        -11   -1    0    0    0    0  0.00000000000E+00  0.00000000000E+00  0.45593999997E+02  0.45594000000E+02  0.51100000000E-03 0.  1.
         11   -1    0    0    0    0 -0.00000000000E+00 -0.00000000000E+00 -0.45593999997E+02  0.45594000000E+02  0.51100000000E-03 0. -1.
    9900012    2    1    2    0    0  0.12379239700E+02  0.69378783559E+01 -0.28554151414E+02  0.59301963956E+02  0.50000036344E+02 0.  0.
        -12    1    1    2    0    0 -0.12379239700E+02 -0.69378783559E+01  0.28554151414E+02  0.31886036044E+02  0.00000000000E+00 0.  1.
         11    1    3    3    0    0  0.19561665102E+02  0.49065830543E+01 -0.14117949669E+02  0.24618078763E+02  0.51100000000E-03 0. -1.
        -11    1    3    3    0    0 -0.10427953401E+02  0.61160008606E+00 -0.23084643797E+02  0.25338055298E+02  0.51100000000E-03 0.  1.
        -12    1    3    3    0    0  0.32455279984E+01  0.14196952155E+01  0.86484420526E+01  0.93458298952E+01  0.00000000000E+00 0.  1.
</event>
<event>
 7    1  0.3528441E-013  0.5930206E+02  0.7816164E-02  0.1266604E+00
        -11   -1    0    0    0    0  0.00000000000E+00  0.00000000000E+00  0.45593999997E+02  0.45594000000E+02  0.51100000000E-03 0.  1.
         11   -1    0    0    0    0 -0.00000000000E+00 -0.00000000000E+00 -0.45593999997E+02  0.45594000000E+02  0.51100000000E-03 0. -1.
    9900012    2    1    2    0    0  0.25411230359E+02  0.51468877603E+01 -0.18560494776E+02  0.59302061903E+02  0.50000214977E+02 0.  0.
        -12    1    1    2    0    0 -0.25411230359E+02 -0.51468877603E+01  0.18560494776E+02  0.31885938097E+02  0.00000000000E+00 0.  1.
         11    1    3    3    0    0  0.11537172543E+02  0.17125080487E+01  0.64236644849E+01  0.13315498480E+02  0.51100000000E-03 0. -1.
        -11    1    3    3    0    0  0.10783588595E+02  0.19477719071E+02 -0.14804146378E+02  0.26736306279E+02  0.51100000000E-03 0.  1.
         12    1    3    3    0    0  0.30904692207E+01 -0.16043339360E+02 -0.10180012883E+02  0.19250257144E+02  0.00000000000E+00 0. -1.
</event>
<event>
 7    1  0.3528441E-013  0.5930194E+02  0.7816164E-02  0.1266605E+00
        -11   -1    0    0    0    0  0.00000000000E+00  0.00000000000E+00  0.45593999997E+02  0.45594000000E+02  0.51100000000E-03 0. -1.
         11   -1    0    0    0    0 -0.00000000000E+00 -0.00000000000E+00 -0.45593999997E+02  0.45594000000E+02  0.51100000000E-03 0.  1.
    9900012    2    1    2    0    0 -0.14465071639E+02  0.24597458227E+02 -0.14228409318E+02  0.59301939088E+02  0.49999990992E+02 0.  0.
        -12    1    1    2    0    0  0.14465071639E+02 -0.24597458227E+02  0.14228409318E+02  0.31886060912E+02  0.00000000000E+00 0.  1.
         11    1    3    3    0    0  0.12528791212E+01 -0.21997396778E+00 -0.25033342244E+00  0.12964419471E+01  0.51100000000E-03 0. -1.
        -11    1    3    3    0    0  0.10461631923E+01  0.32248388028E+02 -0.20857920649E+02  0.38420122877E+02  0.51100000000E-03 0.  1.
        -12    1    3    3    0    0 -0.16764113953E+02 -0.74309558336E+01  0.68798447539E+01  0.19585374264E+02  0.00000000000E+00 0.  1.
</event>
<event>
 7    1  0.3528441E-013  0.5930194E+02  0.7816164E-02  0.1266605E+00
        -11   -1    0    0    0    0  0.00000000000E+00  0.00000000000E+00  0.45593999997E+02  0.45594000000E+02  0.51100000000E-03 0.  1.
         11   -1    0    0    0    0 -0.00000000000E+00 -0.00000000000E+00 -0.45593999997E+02  0.45594000000E+02  0.51100000000E-03 0. -1.
    9900012    2    1    2    0    0 -0.11004751766E+02 -0.22656449936E+02 -0.19552524717E+02  0.59301944930E+02  0.50000001645E+02 0.  0.
        -12    1    1    2    0    0  0.11004751766E+02  0.22656449936E+02  0.19552524717E+02  0.31886055070E+02  0.00000000000E+00 0.  1.
         11    1    3    3    0    0  0.12680894073E+02 -0.15020213791E+02 -0.51136811243E+01  0.20311613223E+02  0.51100000000E-03 0. -1.
        -11    1    3    3    0    0 -0.15832486413E+02 -0.12602406165E+02 -0.19759631242E+02  0.28283056663E+02  0.51100000000E-03 0.  1.
        -12    1    3    3    0    0 -0.78531594261E+01  0.49661700208E+01  0.53207876485E+01  0.10707275043E+02  0.00000000000E+00 0.  1.
</event>
<event>
 7    1  0.3528441E-013  0.5930195E+02  0.7816164E-02  0.1266605E+00
        -11   -1    0    0    0    0  0.00000000000E+00  0.00000000000E+00  0.45593999997E+02  0.45594000000E+02  0.51100000000E-03 0.  1.
         11   -1    0    0    0    0 -0.00000000000E+00 -0.00000000000E+00 -0.45593999997E+02  0.45594000000E+02  0.51100000000E-03 0. -1.
    9900012    2    1    2    0    0  0.21551351768E+02  0.21233904213E+02 -0.10068792586E+02  0.59301952341E+02  0.50000015161E+02 0.  0.
        -12    1    1    2    0    0 -0.21551351768E+02 -0.21233904213E+02  0.10068792586E+02  0.31886047659E+02  0.00000000000E+00 0.  1.
         11    1    3    3    0    0 -0.93091321817E+01  0.17371751635E+02 -0.52149680423E+01  0.20387093682E+02  0.51100000000E-03 0. -1.
        -11    1    3    3    0    0  0.69414222091E+01 -0.70274267840E+01  0.47156965093E+01  0.10945586477E+02  0.51100000000E-03 0.  1.
         12    1    3    3    0    0  0.23919061741E+02  0.10889579362E+02 -0.95695210527E+01  0.27969272183E+02  0.00000000000E+00 0. -1.
</event>
<event>
 7    1  0.3528441E-013  0.5930196E+02  0.7816164E-02  0.1266605E+00
        -11   -1    0    0    0    0  0.00000000000E+00  0.00000000000E+00  0.45593999997E+02  0.45594000000E+02  0.51100000000E-03 0.  1.
         11   -1    0    0    0    0 -0.00000000000E+00 -0.00000000000E+00 -0.45593999997E+02  0.45594000000E+02  0.51100000000E-03 0. -1.
    9900012    2    1    2    0    0 -0.24268113111E+02 -0.69179081423E+01 -0.19491555490E+02  0.59301960697E+02  0.50000030400E+02 0.  0.
        -12    1    1    2    0    0  0.24268113111E+02  0.69179081423E+01  0.19491555490E+02  0.31886039303E+02  0.00000000000E+00 0.  1.
         11    1    3    3    0    0 -0.50786304282E+01 -0.48862757563E+01 -0.10963527411E+02  0.13033307767E+02  0.51100000000E-03 0. -1.
        -11    1    3    3    0    0  0.10173279723E+02  0.94907220367E+01 -0.19730110953E+01  0.14052124328E+02  0.51100000000E-03 0.  1.
         12    1    3    3    0    0 -0.29362762405E+02 -0.11522354423E+02 -0.65550169842E+01  0.32216528602E+02  0.00000000000E+00 0. -1.
</event>
<event>
 7    1  0.3528441E-013  0.5930197E+02  0.7816164E-02  0.1266605E+00
        -11   -1    0    0    0    0  0.00000000000E+00  0.00000000000E+00  0.45593999997E+02  0.45594000000E+02  0.51100000000E-03 0. -1.
         11   -1    0    0    0    0 -0.00000000000E+00 -0.00000000000E+00 -0.45593999997E+02  0.45594000000E+02  0.51100000000E-03 0.  1.
    9900012    2    1    2    0    0  0.67695254932E+01 -0.25473502223E+02  0.17944173234E+02  0.59301966318E+02  0.50000040653E+02 0.  0.
        -12    1    1    2    0    0 -0.67695254932E+01  0.25473502223E+02 -0.17944173234E+02  0.31886033682E+02  0.00000000000E+00 0.  1.
         11    1    3    3    0    0  0.98163823942E+00 -0.22567461517E+01 -0.74199970327E+01  0.78174722930E+01  0.51100000000E-03 0. -1.
        -11    1    3    3    0    0  0.21621229293E+02 -0.86510233406E+01  0.12992241716E+02  0.26666760322E+02  0.51100000000E-03 0.  1.
         12    1    3    3    0    0 -0.15833342039E+02 -0.14565732730E+02  0.12371928551E+02  0.24817733704E+02  0.00000000000E+00 0. -1.
</event>
<event>
 7    1  0.3528441E-013  0.5930194E+02  0.7816164E-02  0.1266605E+00
        -11   -1    0    0    0    0  0.00000000000E+00  0.00000000000E+00  0.45593999997E+02  0.45594000000E+02  0.51100000000E-03 0.  1.
         11   -1    0    0    0    0 -0.00000000000E+00 -0.00000000000E+00 -0.45593999997E+02  0.45594000000E+02  0.51100000000E-03 0. -1.
    9900012    2    1    2    0    0  0.48888779926E+01 -0.31454308909E+02 -0.18564503500E+01  0.59301935883E+02  0.49999985146E+02 0.  0.
        -12    1    1    2    0    0 -0.48888779926E+01  0.31454308909E+02  0.18564503500E+01  0.31886064117E+02  0.00000000000E+00 0.  1.
         11    1    3    3    0    0  0.11315208256E+01 -0.25935747607E+02 -0.21508781366E+01  0.26049368904E+02  0.51100000000E-03 0. -1.
        -11    1    3    3    0    0  0.74298840206E+01 -0.18216797130E+02  0.25653823186E+01  0.19840263631E+02  0.51100000000E-03 0.  1.
        -12    1    3    3    0    0 -0.36725268536E+01  0.12698235828E+02 -0.22709545320E+01  0.13412303348E+02  0.00000000000E+00 0.  1.
</event>
<event>
 7    1  0.3528441E-013  0.5930194E+02  0.7816164E-02  0.1266605E+00
        -11   -1    0    0    0    0  0.00000000000E+00  0.00000000000E+00  0.45593999997E+02  0.45594000000E+02  0.51100000000E-03 0. -1.
         11   -1    0    0    0    0 -0.00000000000E+00 -0.00000000000E+00 -0.45593999997E+02  0.45594000000E+02  0.51100000000E-03 0.  1.
    9900012    2    1    2    0    0 -0.13173021050E+01 -0.15753708222E+02  0.27691265449E+02  0.59301940511E+02  0.49999993586E+02 0.  0.
        -12    1    1    2    0    0  0.13173021050E+01  0.15753708222E+02 -0.27691265449E+02  0.31886059489E+02  0.00000000000E+00 0.  1.
         11    1    3    3    0    0  0.52905047856E+01 -0.43712880927E+01  0.12316580033E+02  0.14099494475E+02  0.51100000000E-03 0. -1.
        -11    1    3    3    0    0  0.11491551767E+02 -0.10481181894E+02  0.21086221775E+02  0.26201902314E+02  0.51100000000E-03 0.  1.
        -12    1    3    3    0    0 -0.18099358657E+02 -0.90123823544E+00 -0.57115363582E+01  0.19000543722E+02  0.00000000000E+00 0.  1.
</event>
<event>
 7    1  0.3528441E-013  0.5930196E+02  0.7816164E-02  0.1266605E+00
        -11   -1    0    0    0    0  0.00000000000E+00  0.00000000000E+00  0.45593999997E+02  0.45594000000E+02  0.51100000000E-03 0.  1.
         11   -1    0    0    0    0 -0.00000000000E+00 -0.00000000000E+00 -0.45593999997E+02  0.45594000000E+02  0.51100000000E-03 0. -1.
    9900012    2    1    2    0    0  0.28288748317E+02  0.12271318590E+02 -0.81167183011E+01  0.59301958269E+02  0.50000025972E+02 0.  0.
        -12    1    1    2    0    0 -0.28288748317E+02 -0.12271318590E+02  0.81167183011E+01  0.31886041731E+02  0.00000000000E+00 0.  1.
         11    1    3    3    0    0 -0.62809511925E+01  0.47041786926E+01  0.10057144802E+02  0.12756402584E+02  0.51100000000E-03 0.  1.
        -11    1    3    3    0    0 -0.37422950925E+01  0.12999482178E+01 -0.24687638991E+01  0.46679153141E+01  0.51100000000E-03 0. -1.
         12    1    3    3    0    0  0.38311994602E+02  0.62671916798E+01 -0.15705099204E+02  0.41877640370E+02  0.00000000000E+00 0. -1.
</event>
<event>
 7    1  0.3528441E-013  0.5930206E+02  0.7816164E-02  0.1266604E+00
        -11   -1    0    0    0    0  0.00000000000E+00  0.00000000000E+00  0.45593999997E+02  0.45594000000E+02  0.51100000000E-03 0. -1.
         11   -1    0    0    0    0 -0.00000000000E+00 -0.00000000000E+00 -0.45593999997E+02  0.45594000000E+02  0.51100000000E-03 0.  1.
    9900012    2    1    2    0    0  0.44158547431E+01  0.31365685674E+02  0.36615404474E+01  0.59302064395E+02  0.50000219521E+02 0.  0.
        -12    1    1    2    0    0 -0.44158547431E+01 -0.31365685674E+02 -0.36615404474E+01  0.31885935605E+02  0.00000000000E+00 0.  1.
         11    1    3    3    0    0 -0.47643434177E+01  0.11933941064E+02  0.12620038800E+02  0.18010643994E+02  0.51100000000E-03 0. -1.
        -11    1    3    3    0    0  0.20769086678E+02  0.15823358033E+02  0.15945465435E+00  0.26110516022E+02  0.51100000000E-03 0.  1.
         12    1    3    3    0    0 -0.11588888517E+02  0.36083865772E+01 -0.91179530067E+01  0.15180904379E+02  0.00000000000E+00 0. -1.
</event>
<event>
 7    1  0.3528441E-013  0.5930191E+02  0.7816164E-02  0.1266605E+00
        -11   -1    0    0    0    0  0.00000000000E+00  0.00000000000E+00  0.45593999997E+02  0.45594000000E+02  0.51100000000E-03 0.  1.
         11   -1    0    0    0    0 -0.00000000000E+00 -0.00000000000E+00 -0.45593999997E+02  0.45594000000E+02  0.51100000000E-03 0. -1.
    9900012    2    1    2    0    0 -0.47230755170E+01 -0.22730194753E+02 -0.21857568973E+02  0.59301913422E+02  0.49999944182E+02 0.  0.
        -12    1    1    2    0    0  0.47230755170E+01  0.22730194753E+02  0.21857568973E+02  0.31886086578E+02  0.00000000000E+00 0.  1.
         11    1    3    3    0    0  0.42095064208E+00 -0.29983057557E+02 -0.11980488296E+02  0.32290757810E+02  0.51100000000E-03 0. -1.
        -11    1    3    3    0    0 -0.29759712119E+01 -0.80211677375E+01 -0.75481670922E+01  0.11409222727E+02  0.51100000000E-03 0.  1.
        -12    1    3    3    0    0 -0.21680549472E+01  0.15274030541E+02 -0.23289135853E+01  0.15601932884E+02  0.00000000000E+00 0.  1.
</event>
<event>
 7    1  0.3528441E-013  0.5930195E+02  0.7816164E-02  0.1266605E+00
        -11   -1    0    0    0    0  0.00000000000E+00  0.00000000000E+00  0.45593999997E+02  0.45594000000E+02  0.51100000000E-03 0.  1.
         11   -1    0    0    0    0 -0.00000000000E+00 -0.00000000000E+00 -0.45593999997E+02  0.45594000000E+02  0.51100000000E-03 0. -1.
    9900012    2    1    2    0    0 -0.31199863666E+02  0.22487266046E+01 -0.61831935499E+01  0.59301950596E+02  0.50000011979E+02 0.  0.
        -12    1    1    2    0    0  0.31199863666E+02 -0.22487266046E+01  0.61831935499E+01  0.31886049404E+02  0.00000000000E+00 0.  1.
         11    1    3    3    0    0 -0.19371202926E+02  0.30881074495E+01 -0.41434818230E+01  0.20048649637E+02  0.51100000000E-03 0. -1.
        -11    1    3    3    0    0 -0.15020195031E+02 -0.11295021341E+02  0.11360137800E+02  0.21959883810E+02  0.51100000000E-03 0.  1.
         12    1    3    3    0    0  0.31915342901E+01  0.10455640496E+02 -0.13399849527E+02  0.17293417148E+02  0.00000000000E+00 0. -1.
</event>
<event>
 7    1  0.3528441E-013  0.5930194E+02  0.7816164E-02  0.1266605E+00
        -11   -1    0    0    0    0  0.00000000000E+00  0.00000000000E+00  0.45593999997E+02  0.45594000000E+02  0.51100000000E-03 0. -1.
         11   -1    0    0    0    0 -0.00000000000E+00 -0.00000000000E+00 -0.45593999997E+02  0.45594000000E+02  0.51100000000E-03 0.  1.
    9900012    2    1    2    0    0 -0.10072736257E+02  0.21533617394E+02  0.21250037679E+02  0.59301940426E+02  0.49999993432E+02 0.  0.
        -12    1    1    2    0    0  0.10072736257E+02 -0.21533617394E+02 -0.21250037679E+02  0.31886059574E+02  0.00000000000E+00 0.  1.
         11    1    3    3    0    0  0.89492253661E+01  0.60410846228E+01  0.45462229674E+01  0.11715437747E+02  0.51100000000E-03 0.  1.
        -11    1    3    3    0    0 -0.98924226530E+01  0.20802204522E+02  0.25119701787E+02  0.34082123717E+02  0.51100000000E-03 0. -1.
        -12    1    3    3    0    0 -0.91295389701E+01 -0.53096717499E+01 -0.84158870756E+01  0.13504378963E+02  0.00000000000E+00 0.  1.
</event>
<event>
 7    1  0.3528441E-013  0.5930203E+02  0.7816164E-02  0.1266604E+00
        -11   -1    0    0    0    0  0.00000000000E+00  0.00000000000E+00  0.45593999997E+02  0.45594000000E+02  0.51100000000E-03 0.  1.
         11   -1    0    0    0    0 -0.00000000000E+00 -0.00000000000E+00 -0.45593999997E+02  0.45594000000E+02  0.51100000000E-03 0. -1.
    9900012    2    1    2    0    0 -0.28605031524E+02 -0.12791041261E+02 -0.59039277541E+01  0.59302032429E+02  0.50000161222E+02 0.  0.
        -12    1    1    2    0    0  0.28605031524E+02  0.12791041261E+02  0.59039277541E+01  0.31885967571E+02  0.00000000000E+00 0.  1.
         11    1    3    3    0    0  0.49545911232E+01 -0.67634860576E+01 -0.56372356005E+01  0.10103026394E+02  0.51100000000E-03 0. -1.
        -11    1    3    3    0    0  0.50807323295E+01  0.65944400030E+01 -0.18136250724E+01  0.85199598663E+01  0.51100000000E-03 0.  1.
         12    1    3    3    0    0 -0.38640354976E+02 -0.12621995207E+02  0.15469329188E+01  0.40679046168E+02  0.00000000000E+00 0. -1.
</event>
<event>
 7    1  0.3528441E-013  0.5930193E+02  0.7816164E-02  0.1266605E+00
        -11   -1    0    0    0    0  0.00000000000E+00  0.00000000000E+00  0.45593999997E+02  0.45594000000E+02  0.51100000000E-03 0.  1.
         11   -1    0    0    0    0 -0.00000000000E+00 -0.00000000000E+00 -0.45593999997E+02  0.45594000000E+02  0.51100000000E-03 0. -1.
    9900012    2    1    2    0    0  0.29098420339E+02 -0.12834283660E+02  0.22987571785E+01  0.59301934268E+02  0.49999982200E+02 0.  0.
        -12    1    1    2    0    0 -0.29098420339E+02  0.12834283660E+02 -0.22987571785E+01  0.31886065732E+02  0.00000000000E+00 0.  1.
         11    1    3    3    0    0  0.12134859354E+02 -0.62423042266E+01 -0.27501499257E+01  0.13920650074E+02  0.51100000000E-03 0. -1.
        -11    1    3    3    0    0 -0.74557978141E+01 -0.12563284067E+02 -0.84197482496E+01  0.16861707755E+02  0.51100000000E-03 0.  1.
         12    1    3    3    0    0  0.24419358799E+02  0.59713046335E+01  0.13468655354E+02  0.28519576438E+02  0.00000000000E+00 0. -1.
</event>
<event>
 7    1  0.3528441E-013  0.5930200E+02  0.7816164E-02  0.1266605E+00
        -11   -1    0    0    0    0  0.00000000000E+00  0.00000000000E+00  0.45593999997E+02  0.45594000000E+02  0.51100000000E-03 0.  1.
         11   -1    0    0    0    0 -0.00000000000E+00 -0.00000000000E+00 -0.45593999997E+02  0.45594000000E+02  0.51100000000E-03 0. -1.
    9900012    2    1    2    0    0 -0.13202370159E+02  0.28843758620E+02 -0.32329730496E+01  0.59301998308E+02  0.50000098994E+02 0.  0.
        -12    1    1    2    0    0  0.13202370159E+02 -0.28843758620E+02  0.32329730496E+01  0.31886001692E+02  0.00000000000E+00 0.  1.
         11    1    3    3    0    0  0.11133665393E+02 -0.59126492795E+01 -0.52675918114E+01  0.13662556508E+02  0.51100000000E-03 0. -1.
        -11    1    3    3    0    0 -0.11067963924E+02  0.35439919840E+01 -0.47553621903E+00  0.11631244111E+02  0.51100000000E-03 0.  1.
        -12    1    3    3    0    0 -0.13268071628E+02  0.31212415916E+02  0.25101549808E+01  0.34008197689E+02  0.00000000000E+00 0.  1.
</event>
<event>
 7    1  0.3528441E-013  0.5930196E+02  0.7816164E-02  0.1266605E+00
        -11   -1    0    0    0    0  0.00000000000E+00  0.00000000000E+00  0.45593999997E+02  0.45594000000E+02  0.51100000000E-03 0. -1.
         11   -1    0    0    0    0 -0.00000000000E+00 -0.00000000000E+00 -0.45593999997E+02  0.45594000000E+02  0.51100000000E-03 0.  1.
    9900012    2    1    2    0    0 -0.14720710843E+02  0.28085126262E+02 -0.33534871857E+01  0.59301960403E+02  0.50000029865E+02 0.  0.
        -12    1    1    2    0    0  0.14720710843E+02 -0.28085126262E+02  0.33534871857E+01  0.31886039597E+02  0.00000000000E+00 0.  1.
         11    1    3    3    0    0 -0.19562246094E+01  0.23826983923E+02  0.15122111389E+02  0.28288340897E+02  0.51100000000E-03 0. -1.
        -11    1    3    3    0    0 -0.64991254986E+01  0.11440570432E+02 -0.41304209209E+01  0.13790781751E+02  0.51100000000E-03 0.  1.
         12    1    3    3    0    0 -0.62653607350E+01 -0.71824280927E+01 -0.14345177654E+02  0.17222837756E+02  0.00000000000E+00 0. -1.
</event>
<event>
 7    1  0.3528441E-013  0.5930198E+02  0.7816164E-02  0.1266605E+00
        -11   -1    0    0    0    0  0.00000000000E+00  0.00000000000E+00  0.45593999997E+02  0.45594000000E+02  0.51100000000E-03 0.  1.
         11   -1    0    0    0    0 -0.00000000000E+00 -0.00000000000E+00 -0.45593999997E+02  0.45594000000E+02  0.51100000000E-03 0. -1.
    9900012    2    1    2    0    0  0.97114243285E+01 -0.21377840473E+02 -0.21573007880E+02  0.59301976498E+02  0.50000059217E+02 0.  0.
        -12    1    1    2    0    0 -0.97114243285E+01  0.21377840473E+02  0.21573007880E+02  0.31886023502E+02  0.00000000000E+00 0.  1.
         11    1    3    3    0    0  0.11345563741E+01 -0.16282413186E+02 -0.15441339414E+02  0.22468626137E+02  0.51100000000E-03 0. -1.
        -11    1    3    3    0    0  0.75390974854E+01 -0.11939820463E+02 -0.18130531012E+02  0.22980719279E+02  0.51100000000E-03 0.  1.
        -12    1    3    3    0    0  0.10377704689E+01  0.68443931752E+01  0.11998862546E+02  0.13852631081E+02  0.00000000000E+00 0.  1.
</event>
<event>
 7    1  0.3528441E-013  0.5930192E+02  0.7816164E-02  0.1266605E+00
        -11   -1    0    0    0    0  0.00000000000E+00  0.00000000000E+00  0.45593999997E+02  0.45594000000E+02  0.51100000000E-03 0.  1.
         11   -1    0    0    0    0 -0.00000000000E+00 -0.00000000000E+00 -0.45593999997E+02  0.45594000000E+02  0.51100000000E-03 0. -1.
    9900012    2    1    2    0    0  0.98645575531E+01  0.71590854028E+01 -0.29464555044E+02  0.59301921478E+02  0.49999958875E+02 0.  0.
        -12    1    1    2    0    0 -0.98645575531E+01 -0.71590854028E+01  0.29464555044E+02  0.31886078522E+02  0.00000000000E+00 0.  1.
         11    1    3    3    0    0 -0.10565203520E+02 -0.83465522016E+01 -0.12736800649E+02  0.18534145519E+02  0.51100000000E-03 0.  1.
        -11    1    3    3    0    0  0.67666974193E+01  0.21228502604E+02 -0.11380079924E+02  0.25018867602E+02  0.51100000000E-03 0. -1.
        -12    1    3    3    0    0  0.13663063653E+02 -0.57228649994E+01 -0.53476744707E+01  0.15748908357E+02  0.00000000000E+00 0.  1.
</event>
<event>
 7    1  0.3528441E-013  0.5930205E+02  0.7816164E-02  0.1266604E+00
        -11   -1    0    0    0    0  0.00000000000E+00  0.00000000000E+00  0.45593999997E+02  0.45594000000E+02  0.51100000000E-03 0. -1.
         11   -1    0    0    0    0 -0.00000000000E+00 -0.00000000000E+00 -0.45593999997E+02  0.45594000000E+02  0.51100000000E-03 0.  1.
    9900012    2    1    2    0    0  0.17022132074E+02 -0.24173288850E+02  0.11942074347E+02  0.59302046762E+02  0.50000187363E+02 0.  0.
        -12    1    1    2    0    0 -0.17022132074E+02  0.24173288850E+02 -0.11942074347E+02  0.31885953238E+02  0.00000000000E+00 0.  1.
         11    1    3    3    0    0  0.80833949158E+01 -0.36368220380E+01  0.21375505403E+02  0.23140440346E+02  0.51100000000E-03 0. -1.
        -11    1    3    3    0    0 -0.43331854859E+01  0.38436712319E+01  0.20180726159E+01  0.61337527125E+01  0.51100000000E-03 0.  1.
        -12    1    3    3    0    0  0.13271922644E+02 -0.24380138044E+02 -0.11451503672E+02  0.30027853704E+02  0.00000000000E+00 0.  1.
</event>
<event>
 7    1  0.3528441E-013  0.5930218E+02  0.7816164E-02  0.1266604E+00
        -11   -1    0    0    0    0  0.00000000000E+00  0.00000000000E+00  0.45593999997E+02  0.45594000000E+02  0.51100000000E-03 0.  1.
         11   -1    0    0    0    0 -0.00000000000E+00 -0.00000000000E+00 -0.45593999997E+02  0.45594000000E+02  0.51100000000E-03 0. -1.
    9900012    2    1    2    0    0  0.82899082451E+01  0.21098314191E+02  0.22424181896E+02  0.59302182241E+02  0.50000434442E+02 0.  0.
        -12    1    1    2    0    0 -0.82899082451E+01 -0.21098314191E+02 -0.22424181896E+02  0.31885817759E+02  0.00000000000E+00 0.  1.
         11    1    3    3    0    0 -0.41243494555E+01  0.84967917509E+01 -0.73083549056E+01  0.11942268636E+02  0.51100000000E-03 0. -1.
        -11    1    3    3    0    0  0.20540873047E+01 -0.96862260174E+01  0.16452818111E+01  0.10037390179E+02  0.51100000000E-03 0.  1.
         12    1    3    3    0    0  0.10360170396E+02  0.22287748458E+02  0.28087254991E+02  0.37322523426E+02  0.00000000000E+00 0. -1.
</event>
<event>
 7    1  0.3528441E-013  0.5930192E+02  0.7816164E-02  0.1266605E+00
        -11   -1    0    0    0    0  0.00000000000E+00  0.00000000000E+00  0.45593999997E+02  0.45594000000E+02  0.51100000000E-03 0.  1.
         11   -1    0    0    0    0 -0.00000000000E+00 -0.00000000000E+00 -0.45593999997E+02  0.45594000000E+02  0.51100000000E-03 0. -1.
    9900012    2    1    2    0    0 -0.22542739220E+02 -0.15690150305E+02 -0.16197725821E+02  0.59301917928E+02  0.49999952401E+02 0.  0.
        -12    1    1    2    0    0  0.22542739220E+02  0.15690150305E+02  0.16197725821E+02  0.31886082072E+02  0.00000000000E+00 0.  1.
         11    1    3    3    0    0 -0.18271759650E+02  0.16626541222E+01 -0.13673528126E+02  0.22882023317E+02  0.51100000000E-03 0. -1.
        -11    1    3    3    0    0 -0.13375936350E+02  0.15265847617E+01 -0.67154572472E+01  0.15044716699E+02  0.51100000000E-03 0.  1.
        -12    1    3    3    0    0  0.91049567794E+01 -0.18879389189E+02  0.41912595525E+01  0.21375177911E+02  0.00000000000E+00 0.  1.
</event>
<event>
 7    1  0.3528441E-013  0.5930222E+02  0.7816164E-02  0.1266604E+00
        -11   -1    0    0    0    0  0.00000000000E+00  0.00000000000E+00  0.45593999997E+02  0.45594000000E+02  0.51100000000E-03 0.  1.
         11   -1    0    0    0    0 -0.00000000000E+00 -0.00000000000E+00 -0.45593999997E+02  0.45594000000E+02  0.51100000000E-03 0. -1.
    9900012    2    1    2    0    0 -0.98436292006E+01 -0.74336591059E+01 -0.29403179355E+02  0.59302215084E+02  0.50000494339E+02 0.  0.
        -12    1    1    2    0    0  0.98436292006E+01  0.74336591059E+01  0.29403179355E+02  0.31885784916E+02  0.00000000000E+00 0.  1.
         11    1    3    3    0    0  0.29280387358E+01 -0.80375076862E+01  0.25916415780E+01  0.89382071454E+01  0.51100000000E-03 0. -1.
        -11    1    3    3    0    0 -0.88806141826E+01  0.37253827700E+01  0.64539509157E+01  0.11592983556E+02  0.51100000000E-03 0.  1.
         12    1    3    3    0    0 -0.38910537539E+01 -0.31215341897E+01 -0.38448771849E+02  0.38771024383E+02  0.00000000000E+00 0. -1.
</event>
<event>
 7    1  0.3528441E-013  0.5930193E+02  0.7816164E-02  0.1266605E+00
        -11   -1    0    0    0    0  0.00000000000E+00  0.00000000000E+00  0.45593999997E+02  0.45594000000E+02  0.51100000000E-03 0.  1.
         11   -1    0    0    0    0 -0.00000000000E+00 -0.00000000000E+00 -0.45593999997E+02  0.45594000000E+02  0.51100000000E-03 0. -1.
    9900012    2    1    2    0    0 -0.72870816515E+01  0.30737317761E+02  0.43401854903E+01  0.59301929809E+02  0.49999974068E+02 0.  0.
        -12    1    1    2    0    0  0.72870816515E+01 -0.30737317761E+02 -0.43401854903E+01  0.31886070191E+02  0.00000000000E+00 0.  1.
         11    1    3    3    0    0 -0.55782368376E+01  0.94381254097E+01  0.24001577847E+00  0.10965972155E+02  0.51100000000E-03 0. -1.
        -11    1    3    3    0    0  0.35247208073E+00  0.24130085853E+02  0.20439684093E+02  0.31625400644E+02  0.51100000000E-03 0.  1.
         12    1    3    3    0    0 -0.20613168947E+01 -0.28308935011E+01 -0.16339514381E+02  0.16710557010E+02  0.00000000000E+00 0. -1.
</event>
<event>
 7    1  0.3528441E-013  0.5930195E+02  0.7816164E-02  0.1266605E+00
        -11   -1    0    0    0    0  0.00000000000E+00  0.00000000000E+00  0.45593999997E+02  0.45594000000E+02  0.51100000000E-03 0.  1.
         11   -1    0    0    0    0 -0.00000000000E+00 -0.00000000000E+00 -0.45593999997E+02  0.45594000000E+02  0.51100000000E-03 0. -1.
    9900012    2    1    2    0    0  0.25668700346E+02 -0.11604896265E+02 -0.14938691151E+02  0.59301948377E+02  0.50000007933E+02 0.  0.
        -12    1    1    2    0    0 -0.25668700346E+02  0.11604896265E+02  0.14938691151E+02  0.31886051623E+02  0.00000000000E+00 0.  1.
         11    1    3    3    0    0  0.76117595800E+01 -0.14974394121E+01  0.42510769029E+01  0.88460648761E+01  0.51100000000E-03 0. -1.
        -11    1    3    3    0    0  0.37746678160E+01 -0.14896496179E-01  0.13155063426E+02  0.13685906365E+02  0.51100000000E-03 0.  1.
         12    1    3    3    0    0  0.14282272950E+02 -0.10092560356E+02 -0.32344831480E+02  0.36769977137E+02  0.00000000000E+00 0. -1.
</event>
<event>
 7    1  0.3528441E-013  0.5930195E+02  0.7816164E-02  0.1266605E+00
        -11   -1    0    0    0    0  0.00000000000E+00  0.00000000000E+00  0.45593999997E+02  0.45594000000E+02  0.51100000000E-03 0.  1.
         11   -1    0    0    0    0 -0.00000000000E+00 -0.00000000000E+00 -0.45593999997E+02  0.45594000000E+02  0.51100000000E-03 0. -1.
    9900012    2    1    2    0    0 -0.26531484339E+01 -0.13754753171E+02 -0.28644155722E+02  0.59301951508E+02  0.50000013643E+02 0.  0.
        -12    1    1    2    0    0  0.26531484339E+01  0.13754753171E+02  0.28644155722E+02  0.31886048492E+02  0.00000000000E+00 0.  1.
         11    1    3    3    0    0  0.50718971551E+01  0.40597410153E+01 -0.61490112387E+01  0.89451650258E+01  0.51100000000E-03 0. -1.
        -11    1    3    3    0    0  0.31896294241E+01  0.92389072190E+01  0.43629899839E+01  0.10703589320E+02  0.51100000000E-03 0.  1.
        -12    1    3    3    0    0 -0.10914675013E+02 -0.27053401405E+02 -0.26858134467E+02  0.39653197163E+02  0.00000000000E+00 0.  1.
</event>
<event>
 7    1  0.3528441E-013  0.5930181E+02  0.7816164E-02  0.1266605E+00
        -11   -1    0    0    0    0  0.00000000000E+00  0.00000000000E+00  0.45593999997E+02  0.45594000000E+02  0.51100000000E-03 0.  1.
         11   -1    0    0    0    0 -0.00000000000E+00 -0.00000000000E+00 -0.45593999997E+02  0.45594000000E+02  0.51100000000E-03 0. -1.
    9900012    2    1    2    0    0  0.27567026938E+02 -0.14326008917E+02  0.71800864261E+01  0.59301809466E+02  0.49999754591E+02 0.  0.
        -12    1    1    2    0    0 -0.27567026938E+02  0.14326008917E+02 -0.71800864261E+01  0.31886190534E+02  0.00000000000E+00 0.  1.
         11    1    3    3    0    0  0.52750286410E+01 -0.56135313900E+01 -0.79048066266E+01  0.11037374230E+02  0.51100000000E-03 0. -1.
        -11    1    3    3    0    0  0.20081098727E+02 -0.15493777156E+02 -0.59509289557E+01  0.26052278449E+02  0.51100000000E-03 0.  1.
        -12    1    3    3    0    0  0.22108995698E+01  0.67812996296E+01  0.21035822008E+02  0.22212156787E+02  0.00000000000E+00 0.  1.
</event>
<event>
 7    1  0.3528441E-013  0.5930196E+02  0.7816164E-02  0.1266605E+00
        -11   -1    0    0    0    0  0.00000000000E+00  0.00000000000E+00  0.45593999997E+02  0.45594000000E+02  0.51100000000E-03 0.  1.
         11   -1    0    0    0    0 -0.00000000000E+00 -0.00000000000E+00 -0.45593999997E+02  0.45594000000E+02  0.51100000000E-03 0. -1.
    9900012    2    1    2    0    0  0.14815975249E+00  0.14063499015E+02 -0.28616703854E+02  0.59301957673E+02  0.50000024885E+02 0.  0.
        -12    1    1    2    0    0 -0.14815975249E+00 -0.14063499015E+02  0.28616703854E+02  0.31886042327E+02  0.00000000000E+00 0.  1.
         11    1    3    3    0    0  0.11439990973E+02 -0.76387484289E+01 -0.12600092177E+01  0.13813453388E+02  0.51100000000E-03 0. -1.
        -11    1    3    3    0    0 -0.30225510930E+01  0.40943573324E+01  0.53815905404E+01  0.74068275315E+01  0.51100000000E-03 0.  1.
         12    1    3    3    0    0 -0.82692801275E+01  0.17607890112E+02 -0.32738285176E+02  0.38081676753E+02  0.00000000000E+00 0. -1.
</event>
<event>
 7    1  0.3528441E-013  0.5930190E+02  0.7816164E-02  0.1266605E+00
        -11   -1    0    0    0    0  0.00000000000E+00  0.00000000000E+00  0.45593999997E+02  0.45594000000E+02  0.51100000000E-03 0.  1.
         11   -1    0    0    0    0 -0.00000000000E+00 -0.00000000000E+00 -0.45593999997E+02  0.45594000000E+02  0.51100000000E-03 0. -1.
    9900012    2    1    2    0    0 -0.42854150524E+01 -0.31399503015E+02 -0.35255596340E+01  0.59301903618E+02  0.49999926302E+02 0.  0.
        -12    1    1    2    0    0  0.42854150524E+01  0.31399503015E+02  0.35255596340E+01  0.31886096382E+02  0.00000000000E+00 0.  1.
         11    1    3    3    0    0 -0.10424854699E+02 -0.10248493448E+01  0.28055168554E+01  0.10844299736E+02  0.51100000000E-03 0. -1.
        -11    1    3    3    0    0  0.23985471234E+01  0.44055954037E+01  0.89695015914E+01  0.10276879790E+02  0.51100000000E-03 0.  1.
         12    1    3    3    0    0  0.37408925237E+01 -0.34780249074E+02 -0.15300578081E+02  0.38180724091E+02  0.00000000000E+00 0. -1.
</event>
<event>
 7    1  0.3528441E-013  0.5930199E+02  0.7816164E-02  0.1266605E+00
        -11   -1    0    0    0    0  0.00000000000E+00  0.00000000000E+00  0.45593999997E+02  0.45594000000E+02  0.51100000000E-03 0. -1.
         11   -1    0    0    0    0 -0.00000000000E+00 -0.00000000000E+00 -0.45593999997E+02  0.45594000000E+02  0.51100000000E-03 0.  1.
    9900012    2    1    2    0    0 -0.15314289893E+02  0.15127304080E+02  0.23523490822E+02  0.59301993287E+02  0.50000089836E+02 0.  0.
        -12    1    1    2    0    0  0.15314289893E+02 -0.15127304080E+02 -0.23523490822E+02  0.31886006713E+02  0.00000000000E+00 0.  1.
         11    1    3    3    0    0 -0.57677798572E+01 -0.47336758184E+01  0.39104405067E+01  0.84241626558E+01  0.51100000000E-03 0. -1.
        -11    1    3    3    0    0  0.58922737052E+01  0.54539334711E+00  0.24898301870E+02  0.25591830330E+02  0.51100000000E-03 0.  1.
        -12    1    3    3    0    0 -0.15438783741E+02  0.19315586551E+02 -0.52852515549E+01  0.25286000301E+02  0.00000000000E+00 0.  1.
</event>
<event>
 7    1  0.3528441E-013  0.5930195E+02  0.7816164E-02  0.1266605E+00
        -11   -1    0    0    0    0  0.00000000000E+00  0.00000000000E+00  0.45593999997E+02  0.45594000000E+02  0.51100000000E-03 0.  1.
         11   -1    0    0    0    0 -0.00000000000E+00 -0.00000000000E+00 -0.45593999997E+02  0.45594000000E+02  0.51100000000E-03 0. -1.
    9900012    2    1    2    0    0 -0.10537793509E+02  0.10612840128E+02 -0.28161018896E+02  0.59301945793E+02  0.50000003220E+02 0.  0.
        -12    1    1    2    0    0  0.10537793509E+02 -0.10612840128E+02  0.28161018896E+02  0.31886054207E+02  0.00000000000E+00 0.  1.
         11    1    3    3    0    0  0.84092460764E+01  0.28824324049E+01  0.19221892867E+01  0.90949792774E+01  0.51100000000E-03 0. -1.
        -11    1    3    3    0    0 -0.16465880912E+02 -0.19502904654E+01  0.19087119130E+01  0.16690477780E+02  0.51100000000E-03 0.  1.
         12    1    3    3    0    0 -0.24811586739E+01  0.96806981884E+01 -0.31991920096E+02  0.33516488736E+02  0.00000000000E+00 0. -1.
</event>
<event>
 7    1  0.3528441E-013  0.5930166E+02  0.7816164E-02  0.1266606E+00
        -11   -1    0    0    0    0  0.00000000000E+00  0.00000000000E+00  0.45593999997E+02  0.45594000000E+02  0.51100000000E-03 0. -1.
         11   -1    0    0    0    0 -0.00000000000E+00 -0.00000000000E+00 -0.45593999997E+02  0.45594000000E+02  0.51100000000E-03 0.  1.
    9900012    2    1    2    0    0 -0.28807464092E+02 -0.26117157045E+01 -0.13418191399E+02  0.59301656422E+02  0.49999475474E+02 0.  0.
        -12    1    1    2    0    0  0.28807464092E+02  0.26117157045E+01  0.13418191399E+02  0.31886343578E+02  0.00000000000E+00 0.  1.
         11    1    3    3    0    0 -0.71780298986E+00 -0.86500374027E+01 -0.11335134013E+02  0.14276682092E+02  0.51100000000E-03 0. -1.
        -11    1    3    3    0    0 -0.38409828038E+00 -0.12155877801E+01 -0.13961728822E+02  0.14019809453E+02  0.51100000000E-03 0.  1.
        -12    1    3    3    0    0 -0.27705562822E+02  0.72539094784E+01  0.11878671436E+02  0.31005164878E+02  0.00000000000E+00 0.  1.
</event>
<event>
 7    1  0.3528441E-013  0.5930195E+02  0.7816164E-02  0.1266605E+00
        -11   -1    0    0    0    0  0.00000000000E+00  0.00000000000E+00  0.45593999997E+02  0.45594000000E+02  0.51100000000E-03 0. -1.
         11   -1    0    0    0    0 -0.00000000000E+00 -0.00000000000E+00 -0.45593999997E+02  0.45594000000E+02  0.51100000000E-03 0.  1.
    9900012    2    1    2    0    0 -0.61666306502E+00 -0.19863910318E+02  0.24935221491E+02  0.59301945411E+02  0.50000002523E+02 0.  0.
        -12    1    1    2    0    0  0.61666306502E+00  0.19863910318E+02 -0.24935221491E+02  0.31886054589E+02  0.00000000000E+00 0.  1.
         11    1    3    3    0    0  0.85098096073E+01  0.66451513937E+01  0.32321397697E+01  0.11270387054E+02  0.51100000000E-03 0. -1.
        -11    1    3    3    0    0 -0.95905673144E+01  0.15455865223E+01 -0.34903331335E+01  0.10322317800E+02  0.51100000000E-03 0.  1.
         12    1    3    3    0    0  0.46409464208E+00 -0.28054648234E+02  0.25193414855E+02  0.37709240557E+02  0.00000000000E+00 0. -1.
</event>
<event>
 7    1  0.3528441E-013  0.5930195E+02  0.7816164E-02  0.1266605E+00
        -11   -1    0    0    0    0  0.00000000000E+00  0.00000000000E+00  0.45593999997E+02  0.45594000000E+02  0.51100000000E-03 0.  1.
         11   -1    0    0    0    0 -0.00000000000E+00 -0.00000000000E+00 -0.45593999997E+02  0.45594000000E+02  0.51100000000E-03 0. -1.
    9900012    2    1    2    0    0  0.31595084133E+02 -0.74679428215E+00  0.42324291803E+01  0.59301945057E+02  0.50000001877E+02 0.  0.
        -12    1    1    2    0    0 -0.31595084133E+02  0.74679428215E+00 -0.42324291803E+01  0.31886054943E+02  0.00000000000E+00 0.  1.
         11    1    3    3    0    0  0.12299173275E+02  0.78302332536E+01 -0.90178663803E+01  0.17143632356E+02  0.51100000000E-03 0. -1.
        -11    1    3    3    0    0 -0.11799139703E+01 -0.87155853376E+01 -0.85384523908E+01  0.12258009392E+02  0.51100000000E-03 0.  1.
         12    1    3    3    0    0  0.20475824828E+02  0.13855780186E+00  0.21788747951E+02  0.29900303309E+02  0.00000000000E+00 0. -1.
</event>
<event>
 7    1  0.3528441E-013  0.5930190E+02  0.7816164E-02  0.1266605E+00
        -11   -1    0    0    0    0  0.00000000000E+00  0.00000000000E+00  0.45593999997E+02  0.45594000000E+02  0.51100000000E-03 0.  1.
         11   -1    0    0    0    0 -0.00000000000E+00 -0.00000000000E+00 -0.45593999997E+02  0.45594000000E+02  0.51100000000E-03 0. -1.
    9900012    2    1    2    0    0  0.30196949487E+02  0.77527327518E+01 -0.66904913125E+01  0.59301901188E+02  0.49999921871E+02 0.  0.
        -12    1    1    2    0    0 -0.30196949487E+02 -0.77527327518E+01  0.66904913125E+01  0.31886098812E+02  0.00000000000E+00 0.  1.
         11    1    3    3    0    0  0.27269926261E+02 -0.55715181970E+01 -0.78021831216E+01  0.28906136978E+02  0.51100000000E-03 0. -1.
        -11    1    3    3    0    0 -0.64273617982E+01  0.16085056378E-01 -0.91357654677E+01  0.11170203640E+02  0.51100000000E-03 0.  1.
        -12    1    3    3    0    0  0.93543850240E+01  0.13308165892E+02  0.10247457277E+02  0.19225560570E+02  0.00000000000E+00 0.  1.
</event>
<event>
 7    1  0.3528441E-013  0.5930194E+02  0.7816164E-02  0.1266605E+00
        -11   -1    0    0    0    0  0.00000000000E+00  0.00000000000E+00  0.45593999997E+02  0.45594000000E+02  0.51100000000E-03 0. -1.
         11   -1    0    0    0    0 -0.00000000000E+00 -0.00000000000E+00 -0.45593999997E+02  0.45594000000E+02  0.51100000000E-03 0.  1.
    9900012    2    1    2    0    0 -0.17893694165E+02 -0.25487117829E+02  0.68515228524E+01  0.59301939857E+02  0.49999992393E+02 0.  0.
        -12    1    1    2    0    0  0.17893694165E+02  0.25487117829E+02 -0.68515228524E+01  0.31886060143E+02  0.00000000000E+00 0.  1.
         11    1    3    3    0    0 -0.22451379709E+02 -0.92660305503E+01 -0.84097222464E+01  0.25703058213E+02  0.51100000000E-03 0. -1.
        -11    1    3    3    0    0  0.46509715207E+01  0.44702285732E+01 -0.18911558443E+01  0.67224214589E+01  0.51100000000E-03 0.  1.
         12    1    3    3    0    0 -0.93285976316E-01 -0.20691315851E+02  0.17152400943E+02  0.26876460184E+02  0.00000000000E+00 0. -1.
</event>
<event>
 7    1  0.3528441E-013  0.5930193E+02  0.7816164E-02  0.1266605E+00
        -11   -1    0    0    0    0  0.00000000000E+00  0.00000000000E+00  0.45593999997E+02  0.45594000000E+02  0.51100000000E-03 0. -1.
         11   -1    0    0    0    0 -0.00000000000E+00 -0.00000000000E+00 -0.45593999997E+02  0.45594000000E+02  0.51100000000E-03 0.  1.
    9900012    2    1    2    0    0  0.10690347527E+02 -0.99509541485E+01  0.28344605500E+02  0.59301926556E+02  0.49999968135E+02 0.  0.
        -12    1    1    2    0    0 -0.10690347527E+02  0.99509541485E+01 -0.28344605500E+02  0.31886073444E+02  0.00000000000E+00 0.  1.
         11    1    3    3    0    0  0.41607814176E+00 -0.21169936126E+02  0.27051074013E+02  0.34352582467E+02  0.51100000000E-03 0. -1.
        -11    1    3    3    0    0 -0.34934171850E+01  0.63259852212E+01  0.62150139423E+01  0.95314453894E+01  0.51100000000E-03 0.  1.
         12    1    3    3    0    0  0.13767686570E+02  0.48929967568E+01 -0.49214824549E+01  0.15417898700E+02  0.00000000000E+00 0. -1.
</event>
<event>
 7    1  0.3528441E-013  0.5930195E+02  0.7816164E-02  0.1266605E+00
        -11   -1    0    0    0    0  0.00000000000E+00  0.00000000000E+00  0.45593999997E+02  0.45594000000E+02  0.51100000000E-03 0. -1.
         11   -1    0    0    0    0 -0.00000000000E+00 -0.00000000000E+00 -0.45593999997E+02  0.45594000000E+02  0.51100000000E-03 0.  1.
    9900012    2    1    2    0    0 -0.14600007825E+02  0.10841352281E+01  0.28326388626E+02  0.59301954929E+02  0.50000019881E+02 0.  0.
        -12    1    1    2    0    0  0.14600007825E+02 -0.10841352281E+01 -0.28326388626E+02  0.31886045071E+02  0.00000000000E+00 0.  1.
         11    1    3    3    0    0  0.57755404521E+01  0.74697140324E+01 -0.15801081162E+01  0.95734130361E+01  0.51100000000E-03 0. -1.
        -11    1    3    3    0    0 -0.12875083190E+02  0.48867261945E+01 -0.30449066677E+01  0.14103875954E+02  0.51100000000E-03 0.  1.
         12    1    3    3    0    0 -0.75004650869E+01 -0.11272304999E+02  0.32951403410E+02  0.35624665938E+02  0.00000000000E+00 0. -1.
</event>
<event>
 7    1  0.3528441E-013  0.5930192E+02  0.7816164E-02  0.1266605E+00
        -11   -1    0    0    0    0  0.00000000000E+00  0.00000000000E+00  0.45593999997E+02  0.45594000000E+02  0.51100000000E-03 0. -1.
         11   -1    0    0    0    0 -0.00000000000E+00 -0.00000000000E+00 -0.45593999997E+02  0.45594000000E+02  0.51100000000E-03 0.  1.
    9900012    2    1    2    0    0  0.78787325280E+00 -0.10985696431E+02 -0.29923497905E+02  0.59301921577E+02  0.49999959054E+02 0.  0.
        -12    1    1    2    0    0 -0.78787325280E+00  0.10985696431E+02  0.29923497905E+02  0.31886078423E+02  0.00000000000E+00 0.  1.
         11    1    3    3    0    0  0.70208681376E+01 -0.26730925463E+02 -0.21664311728E+02  0.35116625242E+02  0.51100000000E-03 0. -1.
        -11    1    3    3    0    0  0.41698360537E+01  0.98450461544E+01 -0.49127293028E+01  0.11766366302E+02  0.51100000000E-03 0.  1.
        -12    1    3    3    0    0 -0.10402830939E+02  0.59001828776E+01 -0.33464568749E+01  0.12418930032E+02  0.00000000000E+00 0.  1.
</event>
<event>
 7    1  0.3528441E-013  0.5930194E+02  0.7816164E-02  0.1266605E+00
        -11   -1    0    0    0    0  0.00000000000E+00  0.00000000000E+00  0.45593999997E+02  0.45594000000E+02  0.51100000000E-03 0. -1.
         11   -1    0    0    0    0 -0.00000000000E+00 -0.00000000000E+00 -0.45593999997E+02  0.45594000000E+02  0.51100000000E-03 0.  1.
    9900012    2    1    2    0    0 -0.87251706525E+01  0.23163819508E+02  0.20100487790E+02  0.59301941189E+02  0.49999994823E+02 0.  0.
        -12    1    1    2    0    0  0.87251706525E+01 -0.23163819508E+02 -0.20100487790E+02  0.31886058811E+02  0.00000000000E+00 0.  1.
         11    1    3    3    0    0  0.13128223529E+02  0.21705407228E+02  0.89327296273E+00  0.25382531253E+02  0.51100000000E-03 0. -1.
        -11    1    3    3    0    0 -0.58671310323E+01  0.65311154037E+01  0.13690308984E+02  0.16263556047E+02  0.51100000000E-03 0.  1.
        -12    1    3    3    0    0 -0.15986263149E+02 -0.50727031240E+01  0.55169058432E+01  0.17655853889E+02  0.00000000000E+00 0.  1.
</event>
<event>
 7    1  0.3528441E-013  0.5930193E+02  0.7816164E-02  0.1266605E+00
        -11   -1    0    0    0    0  0.00000000000E+00  0.00000000000E+00  0.45593999997E+02  0.45594000000E+02  0.51100000000E-03 0.  1.
         11   -1    0    0    0    0 -0.00000000000E+00 -0.00000000000E+00 -0.45593999997E+02  0.45594000000E+02  0.51100000000E-03 0. -1.
    9900012    2    1    2    0    0  0.21830523714E+00  0.19553637609E+02 -0.25185888256E+02  0.59301931441E+02  0.49999977045E+02 0.  0.
        -12    1    1    2    0    0 -0.21830523714E+00 -0.19553637609E+02  0.25185888256E+02  0.31886068559E+02  0.00000000000E+00 0.  1.
         11    1    3    3    0    0  0.84202047195E+01 -0.43992607326E+01 -0.13500616619E+02  0.16508179545E+02  0.51100000000E-03 0. -1.
        -11    1    3    3    0    0 -0.17015211536E+02  0.26912453660E+01 -0.57443218185E+00  0.17236304645E+02  0.51100000000E-03 0.  1.
         12    1    3    3    0    0  0.88133120534E+01  0.21261652976E+02 -0.11110839455E+02  0.25557447251E+02  0.00000000000E+00 0. -1.
</event>
<event>
 7    1  0.3528441E-013  0.5930196E+02  0.7816164E-02  0.1266605E+00
        -11   -1    0    0    0    0  0.00000000000E+00  0.00000000000E+00  0.45593999997E+02  0.45594000000E+02  0.51100000000E-03 0.  1.
         11   -1    0    0    0    0 -0.00000000000E+00 -0.00000000000E+00 -0.45593999997E+02  0.45594000000E+02  0.51100000000E-03 0. -1.
    9900012    2    1    2    0    0  0.24143243651E+02 -0.11908841645E+02 -0.17088084049E+02  0.59301963248E+02  0.50000035052E+02 0.  0.
        -12    1    1    2    0    0 -0.24143243651E+02  0.11908841645E+02  0.17088084049E+02  0.31886036752E+02  0.00000000000E+00 0.  1.
         11    1    3    3    0    0  0.66539086410E+01 -0.63181431211E+01  0.58455894491E+01  0.10879538086E+02  0.51100000000E-03 0.  1.
        -11    1    3    3    0    0  0.26565281416E+02 -0.99604969097E+01 -0.64351013216E+01  0.29091858048E+02  0.51100000000E-03 0. -1.
        -12    1    3    3    0    0 -0.90759464055E+01  0.43697983859E+01 -0.16498572176E+02  0.19330567114E+02  0.00000000000E+00 0.  1.
</event>
<event>
 7    1  0.3528441E-013  0.5930195E+02  0.7816164E-02  0.1266605E+00
        -11   -1    0    0    0    0  0.00000000000E+00  0.00000000000E+00  0.45593999997E+02  0.45594000000E+02  0.51100000000E-03 0. -1.
         11   -1    0    0    0    0 -0.00000000000E+00 -0.00000000000E+00 -0.45593999997E+02  0.45594000000E+02  0.51100000000E-03 0.  1.
    9900012    2    1    2    0    0 -0.82820885454E+01  0.76358088771E+01  0.29829879063E+02  0.59301948930E+02  0.50000008941E+02 0.  0.
        -12    1    1    2    0    0  0.82820885454E+01 -0.76358088771E+01 -0.29829879063E+02  0.31886051070E+02  0.00000000000E+00 0.  1.
         11    1    3    3    0    0  0.11390856264E+02 -0.14893748847E+01  0.24996244088E+02  0.27509672167E+02  0.51100000000E-03 0. -1.
        -11    1    3    3    0    0  0.68277946910E+00  0.10962681853E+02  0.17519711126E+01  0.11122768731E+02  0.51100000000E-03 0.  1.
        -12    1    3    3    0    0 -0.20355724278E+02 -0.18374980911E+01  0.30816638630E+01  0.20669508032E+02  0.00000000000E+00 0.  1.
</event>
<event>
 7    1  0.3528441E-013  0.5930194E+02  0.7816164E-02  0.1266605E+00
        -11   -1    0    0    0    0  0.00000000000E+00  0.00000000000E+00  0.45593999997E+02  0.45594000000E+02  0.51100000000E-03 0.  1.
         11   -1    0    0    0    0 -0.00000000000E+00 -0.00000000000E+00 -0.45593999997E+02  0.45594000000E+02  0.51100000000E-03 0. -1.
    9900012    2    1    2    0    0  0.29743064452E+01 -0.26092749664E+02 -0.18084331100E+02  0.59301935407E+02  0.49999984278E+02 0.  0.
        -12    1    1    2    0    0 -0.29743064452E+01  0.26092749664E+02  0.18084331100E+02  0.31886064593E+02  0.00000000000E+00 0.  1.
         11    1    3    3    0    0  0.79835310996E+01  0.23475280307E+01 -0.92234605070E+01  0.12422555319E+02  0.51100000000E-03 0. -1.
        -11    1    3    3    0    0 -0.99677930283E+01 -0.27828785814E+02 -0.19302393899E+02  0.35304116307E+02  0.51100000000E-03 0.  1.
        -12    1    3    3    0    0  0.49585683739E+01 -0.61149188112E+00  0.10441523306E+02  0.11575263781E+02  0.00000000000E+00 0.  1.
</event>
<event>
 7    1  0.3528441E-013  0.5930195E+02  0.7816164E-02  0.1266605E+00
        -11   -1    0    0    0    0  0.00000000000E+00  0.00000000000E+00  0.45593999997E+02  0.45594000000E+02  0.51100000000E-03 0.  1.
         11   -1    0    0    0    0 -0.00000000000E+00 -0.00000000000E+00 -0.45593999997E+02  0.45594000000E+02  0.51100000000E-03 0. -1.
    9900012    2    1    2    0    0  0.27520770791E+02  0.51728715310E+01 -0.15250214188E+02  0.59301945719E+02  0.50000003085E+02 0.  0.
        -12    1    1    2    0    0 -0.27520770791E+02 -0.51728715310E+01  0.15250214188E+02  0.31886054281E+02  0.00000000000E+00 0.  1.
         11    1    3    3    0    0 -0.92940220945E+01 -0.28542515359E+01 -0.18214558472E+01  0.98915772345E+01  0.51100000000E-03 0. -1.
        -11    1    3    3    0    0  0.12337296622E+02 -0.10958185560E+02 -0.33784169643E+01  0.16843527544E+02  0.51100000000E-03 0.  1.
        -12    1    3    3    0    0  0.24477496264E+02  0.18985308627E+02 -0.10050341377E+02  0.32566840940E+02  0.00000000000E+00 0.  1.
</event>
<event>
 7    1  0.3528441E-013  0.5930193E+02  0.7816164E-02  0.1266605E+00
        -11   -1    0    0    0    0  0.00000000000E+00  0.00000000000E+00  0.45593999997E+02  0.45594000000E+02  0.51100000000E-03 0.  1.
         11   -1    0    0    0    0 -0.00000000000E+00 -0.00000000000E+00 -0.45593999997E+02  0.45594000000E+02  0.51100000000E-03 0. -1.
    9900012    2    1    2    0    0  0.28419422111E+02 -0.11624984268E+02 -0.85975237668E+01  0.59301933650E+02  0.49999981074E+02 0.  0.
        -12    1    1    2    0    0 -0.28419422111E+02  0.11624984268E+02  0.85975237668E+01  0.31886066350E+02  0.00000000000E+00 0.  1.
         11    1    3    3    0    0  0.91341868167E+01 -0.95396274610E+01 -0.12639469535E+02  0.18280975119E+02  0.51100000000E-03 0. -1.
        -11    1    3    3    0    0  0.92913217338E+01  0.11667688637E+02 -0.10830793800E+02  0.18432843304E+02  0.51100000000E-03 0.  1.
        -12    1    3    3    0    0  0.99939135603E+01 -0.13753045444E+02  0.14872739569E+02  0.22588115227E+02  0.00000000000E+00 0.  1.
</event>
<event>
 7    1  0.3528441E-013  0.5930191E+02  0.7816164E-02  0.1266605E+00
        -11   -1    0    0    0    0  0.00000000000E+00  0.00000000000E+00  0.45593999997E+02  0.45594000000E+02  0.51100000000E-03 0. -1.
         11   -1    0    0    0    0 -0.00000000000E+00 -0.00000000000E+00 -0.45593999997E+02  0.45594000000E+02  0.51100000000E-03 0.  1.
    9900012    2    1    2    0    0 -0.30768674501E+02  0.80138989510E+01  0.24059524642E+01  0.59301913470E+02  0.49999944269E+02 0.  0.
        -12    1    1    2    0    0  0.30768674501E+02 -0.80138989510E+01 -0.24059524642E+01  0.31886086530E+02  0.00000000000E+00 0.  1.
         11    1    3    3    0    0  0.47894894015E+00  0.11200934529E+01 -0.79247477300E+00  0.14532783482E+01  0.51100000000E-03 0. -1.
        -11    1    3    3    0    0  0.15730010859E+01  0.20366891061E+02 -0.58228682618E+01  0.21241242406E+02  0.51100000000E-03 0.  1.
         12    1    3    3    0    0 -0.32820624527E+02 -0.13473085562E+02  0.90212954990E+01  0.36607392715E+02  0.00000000000E+00 0. -1.
</event>
<event>
 7    1  0.3528441E-013  0.5930196E+02  0.7816164E-02  0.1266605E+00
        -11   -1    0    0    0    0  0.00000000000E+00  0.00000000000E+00  0.45593999997E+02  0.45594000000E+02  0.51100000000E-03 0.  1.
         11   -1    0    0    0    0 -0.00000000000E+00 -0.00000000000E+00 -0.45593999997E+02  0.45594000000E+02  0.51100000000E-03 0. -1.
    9900012    2    1    2    0    0  0.10157117583E+02 -0.19275315466E+02 -0.23281207061E+02  0.59301961894E+02  0.50000032583E+02 0.  0.
        -12    1    1    2    0    0 -0.10157117583E+02  0.19275315466E+02  0.23281207061E+02  0.31886038106E+02  0.00000000000E+00 0.  1.
         11    1    3    3    0    0  0.17181244277E+02 -0.16082784432E+02 -0.17972528764E+02  0.29611870938E+02  0.51100000000E-03 0. -1.
        -11    1    3    3    0    0  0.40260274034E+01 -0.13018366000E+02  0.89167767924E+00  0.13655835358E+02  0.51100000000E-03 0.  1.
        -12    1    3    3    0    0 -0.11050154098E+02  0.98258349662E+01 -0.62003559759E+01  0.16034255598E+02  0.00000000000E+00 0.  1.
</event>
<event>
 7    1  0.3528441E-013  0.5930195E+02  0.7816164E-02  0.1266605E+00
        -11   -1    0    0    0    0  0.00000000000E+00  0.00000000000E+00  0.45593999997E+02  0.45594000000E+02  0.51100000000E-03 0.  1.
         11   -1    0    0    0    0 -0.00000000000E+00 -0.00000000000E+00 -0.45593999997E+02  0.45594000000E+02  0.51100000000E-03 0. -1.
    9900012    2    1    2    0    0  0.23499962244E+02 -0.20251460976E+02 -0.73722608608E+01  0.59301950898E+02  0.50000012530E+02 0.  0.
        -12    1    1    2    0    0 -0.23499962244E+02  0.20251460976E+02  0.73722608608E+01  0.31886049102E+02  0.00000000000E+00 0.  1.
         11    1    3    3    0    0 -0.77026561856E-02 -0.50796450063E+01  0.37572831406E+01  0.63182299405E+01  0.51100000000E-03 0. -1.
        -11    1    3    3    0    0  0.15799889895E+02  0.61588285386E+01  0.11856663768E+02  0.20691741484E+02  0.51100000000E-03 0.  1.
         12    1    3    3    0    0  0.77077750050E+01 -0.21330644508E+02 -0.22986207770E+02  0.32291979473E+02  0.00000000000E+00 0. -1.
</event>
<event>
 7    1  0.3528441E-013  0.5930195E+02  0.7816164E-02  0.1266605E+00
        -11   -1    0    0    0    0  0.00000000000E+00  0.00000000000E+00  0.45593999997E+02  0.45594000000E+02  0.51100000000E-03 0.  1.
         11   -1    0    0    0    0 -0.00000000000E+00 -0.00000000000E+00 -0.45593999997E+02  0.45594000000E+02  0.51100000000E-03 0. -1.
    9900012    2    1    2    0    0 -0.29106814090E+01 -0.10887933331E+02 -0.29827856042E+02  0.59301950471E+02  0.50000011751E+02 0.  0.
        -12    1    1    2    0    0  0.29106814090E+01  0.10887933331E+02  0.29827856042E+02  0.31886049529E+02  0.00000000000E+00 0.  1.
         11    1    3    3    0    0 -0.16428313475E+02 -0.14172186794E+01 -0.69399618793E+01  0.17890250517E+02  0.51100000000E-03 0. -1.
        -11    1    3    3    0    0 -0.94445049437E+01 -0.54393799801E+01 -0.48224769707E+01  0.11918129576E+02  0.51100000000E-03 0.  1.
         12    1    3    3    0    0  0.22962137010E+02 -0.40313346716E+01 -0.18065417192E+02  0.29493570378E+02  0.00000000000E+00 0. -1.
</event>
<event>
 7    1  0.3528441E-013  0.5930204E+02  0.7816164E-02  0.1266604E+00
        -11   -1    0    0    0    0  0.00000000000E+00  0.00000000000E+00  0.45593999997E+02  0.45594000000E+02  0.51100000000E-03 0. -1.
         11   -1    0    0    0    0 -0.00000000000E+00 -0.00000000000E+00 -0.45593999997E+02  0.45594000000E+02  0.51100000000E-03 0.  1.
    9900012    2    1    2    0    0  0.23106483823E+02 -0.17436111446E+02  0.13371129845E+02  0.59302036155E+02  0.50000168017E+02 0.  0.
        -12    1    1    2    0    0 -0.23106483823E+02  0.17436111446E+02 -0.13371129845E+02  0.31885963845E+02  0.00000000000E+00 0.  1.
         11    1    3    3    0    0  0.22676826385E+02 -0.12479964093E+02  0.14129912679E+02  0.29489699748E+02  0.51100000000E-03 0. -1.
        -11    1    3    3    0    0  0.91619650549E+00 -0.17248238712E+02 -0.22583197630E+01  0.17419562656E+02  0.51100000000E-03 0.  1.
         12    1    3    3    0    0 -0.48653906758E+00  0.12292091359E+02  0.14995369286E+01  0.12392773751E+02  0.00000000000E+00 0. -1.
</event>
<event>
 7    1  0.3528441E-013  0.5930194E+02  0.7816164E-02  0.1266605E+00
        -11   -1    0    0    0    0  0.00000000000E+00  0.00000000000E+00  0.45593999997E+02  0.45594000000E+02  0.51100000000E-03 0.  1.
         11   -1    0    0    0    0 -0.00000000000E+00 -0.00000000000E+00 -0.45593999997E+02  0.45594000000E+02  0.51100000000E-03 0. -1.
    9900012    2    1    2    0    0 -0.29532430012E+02  0.42269477880E+01  0.11255620986E+02  0.59301944839E+02  0.50000001479E+02 0.  0.
        -12    1    1    2    0    0  0.29532430012E+02 -0.42269477880E+01 -0.11255620986E+02  0.31886055161E+02  0.00000000000E+00 0.  1.
         11    1    3    3    0    0 -0.12032904262E+02 -0.12612394854E+01  0.42994979537E+01  0.12840062029E+02  0.51100000000E-03 0. -1.
        -11    1    3    3    0    0 -0.16360574364E+02  0.19832942294E+02  0.15210492877E+02  0.29872614338E+02  0.51100000000E-03 0.  1.
         12    1    3    3    0    0 -0.11389513861E+01 -0.14344755020E+02 -0.82543698456E+01  0.16589268471E+02  0.00000000000E+00 0. -1.
</event>
<event>
 7    1  0.3528441E-013  0.5930195E+02  0.7816164E-02  0.1266605E+00
        -11   -1    0    0    0    0  0.00000000000E+00  0.00000000000E+00  0.45593999997E+02  0.45594000000E+02  0.51100000000E-03 0.  1.
         11   -1    0    0    0    0 -0.00000000000E+00 -0.00000000000E+00 -0.45593999997E+02  0.45594000000E+02  0.51100000000E-03 0. -1.
    9900012    2    1    2    0    0 -0.19551687817E+02 -0.25024247039E+02  0.28703165642E+01  0.59301950487E+02  0.50000011780E+02 0.  0.
        -12    1    1    2    0    0  0.19551687817E+02  0.25024247039E+02 -0.28703165642E+01  0.31886049513E+02  0.00000000000E+00 0.  1.
         11    1    3    3    0    0 -0.29122943518E+02 -0.10233278879E+02  0.83035293298E+00  0.30879691093E+02  0.51100000000E-03 0. -1.
        -11    1    3    3    0    0  0.24400072735E+01 -0.17889854399E+02  0.68136388831E+01  0.19298347105E+02  0.51100000000E-03 0.  1.
        -12    1    3    3    0    0  0.71312484274E+01  0.30988862379E+01 -0.47736752520E+01  0.91239122891E+01  0.00000000000E+00 0.  1.
</event>
<event>
 7    1  0.3528441E-013  0.5930200E+02  0.7816164E-02  0.1266605E+00
        -11   -1    0    0    0    0  0.00000000000E+00  0.00000000000E+00  0.45593999997E+02  0.45594000000E+02  0.51100000000E-03 0.  1.
         11   -1    0    0    0    0 -0.00000000000E+00 -0.00000000000E+00 -0.45593999997E+02  0.45594000000E+02  0.51100000000E-03 0. -1.
    9900012    2    1    2    0    0 -0.25179714932E+02  0.64584813445E+01 -0.18465825535E+02  0.59302004045E+02  0.50000109458E+02 0.  0.
        -12    1    1    2    0    0  0.25179714932E+02 -0.64584813445E+01  0.18465825535E+02  0.31885995955E+02  0.00000000000E+00 0.  1.
         11    1    3    3    0    0 -0.42588520798E+01  0.63967083765E+01 -0.23119938864E+02  0.24363646534E+02  0.51100000000E-03 0. -1.
        -11    1    3    3    0    0 -0.19528307383E+02  0.11764182102E+02  0.22318724909E+01  0.22907030031E+02  0.51100000000E-03 0.  1.
        -12    1    3    3    0    0 -0.13925554691E+01 -0.11702409134E+02  0.24222408382E+01  0.12031327481E+02  0.00000000000E+00 0.  1.
</event>
<event>
 7    1  0.3528441E-013  0.5930195E+02  0.7816164E-02  0.1266605E+00
        -11   -1    0    0    0    0  0.00000000000E+00  0.00000000000E+00  0.45593999997E+02  0.45594000000E+02  0.51100000000E-03 0.  1.
         11   -1    0    0    0    0 -0.00000000000E+00 -0.00000000000E+00 -0.45593999997E+02  0.45594000000E+02  0.51100000000E-03 0. -1.
    9900012    2    1    2    0    0 -0.14073112232E+02  0.20104852187E+02 -0.20358351167E+02  0.59301952399E+02  0.50000015267E+02 0.  0.
        -12    1    1    2    0    0  0.14073112232E+02 -0.20104852187E+02  0.20358351167E+02  0.31886047601E+02  0.00000000000E+00 0.  1.
         11    1    3    3    0    0 -0.20712853578E+02  0.26898935548E+02 -0.19895821170E+02  0.39349952188E+02  0.51100000000E-03 0. -1.
        -11    1    3    3    0    0  0.68703216483E+01  0.38605119351E+01  0.34455042686E+01  0.86009518007E+01  0.51100000000E-03 0.  1.
        -12    1    3    3    0    0 -0.23058030262E+00 -0.10654595295E+02 -0.39080342654E+01  0.11351048410E+02  0.00000000000E+00 0.  1.
</event>
<event>
 7    1  0.3528441E-013  0.5930193E+02  0.7816164E-02  0.1266605E+00
        -11   -1    0    0    0    0  0.00000000000E+00  0.00000000000E+00  0.45593999997E+02  0.45594000000E+02  0.51100000000E-03 0.  1.
         11   -1    0    0    0    0 -0.00000000000E+00 -0.00000000000E+00 -0.45593999997E+02  0.45594000000E+02  0.51100000000E-03 0. -1.
    9900012    2    1    2    0    0  0.11848389661E+02 -0.11575969919E+02 -0.27245808314E+02  0.59301929565E+02  0.49999973623E+02 0.  0.
        -12    1    1    2    0    0 -0.11848389661E+02  0.11575969919E+02  0.27245808314E+02  0.31886070435E+02  0.00000000000E+00 0.  1.
         11    1    3    3    0    0 -0.94146825482E+00 -0.17311756864E+01 -0.35325749334E+02  0.35380671248E+02  0.51100000000E-03 0. -1.
        -11    1    3    3    0    0 -0.27768854832E+01  0.14227594165E+01  0.12362327752E+00  0.31225983283E+01  0.51100000000E-03 0.  1.
         12    1    3    3    0    0  0.15566743399E+02 -0.11267553649E+02  0.79563177420E+01  0.20798659988E+02  0.00000000000E+00 0. -1.
</event>
<event>
 7    1  0.3528441E-013  0.5930195E+02  0.7816164E-02  0.1266605E+00
        -11   -1    0    0    0    0  0.00000000000E+00  0.00000000000E+00  0.45593999997E+02  0.45594000000E+02  0.51100000000E-03 0.  1.
         11   -1    0    0    0    0 -0.00000000000E+00 -0.00000000000E+00 -0.45593999997E+02  0.45594000000E+02  0.51100000000E-03 0. -1.
    9900012    2    1    2    0    0 -0.85699384114E+01 -0.87983575781E+01 -0.29425589264E+02  0.59301949069E+02  0.50000009193E+02 0.  0.
        -12    1    1    2    0    0  0.85699384114E+01  0.87983575781E+01  0.29425589264E+02  0.31886050931E+02  0.00000000000E+00 0.  1.
         11    1    3    3    0    0 -0.12721301440E+02 -0.14206683353E+02 -0.29132737298E+02  0.34819215169E+02  0.51100000000E-03 0. -1.
        -11    1    3    3    0    0 -0.41949644442E+01 -0.69462814748E+01 -0.41043160453E+01  0.90936221318E+01  0.51100000000E-03 0.  1.
        -12    1    3    3    0    0  0.83463274733E+01  0.12354607250E+02  0.38114640791E+01  0.15389111768E+02  0.00000000000E+00 0.  1.
</event>
<event>
 7    1  0.3528441E-013  0.5930196E+02  0.7816164E-02  0.1266605E+00
        -11   -1    0    0    0    0  0.00000000000E+00  0.00000000000E+00  0.45593999997E+02  0.45594000000E+02  0.51100000000E-03 0. -1.
         11   -1    0    0    0    0 -0.00000000000E+00 -0.00000000000E+00 -0.45593999997E+02  0.45594000000E+02  0.51100000000E-03 0.  1.
    9900012    2    1    2    0    0  0.35598363292E+01  0.14633041905E+02  0.28105532741E+02  0.59301963547E+02  0.50000035598E+02 0.  0.
        -12    1    1    2    0    0 -0.35598363292E+01 -0.14633041905E+02 -0.28105532741E+02  0.31886036453E+02  0.00000000000E+00 0.  1.
         11    1    3    3    0    0 -0.14775407661E+02  0.13848040786E+02 -0.12806628204E+01  0.20290909360E+02  0.51100000000E-03 0. -1.
        -11    1    3    3    0    0 -0.43744188907E+00  0.15409062018E+01  0.15663657977E+02  0.15745346259E+02  0.51100000000E-03 0.  1.
        -12    1    3    3    0    0  0.18772685879E+02 -0.75590508353E+00  0.13722537584E+02  0.23265707927E+02  0.00000000000E+00 0.  1.
</event>
<event>
 7    1  0.3528441E-013  0.5930193E+02  0.7816164E-02  0.1266605E+00
        -11   -1    0    0    0    0  0.00000000000E+00  0.00000000000E+00  0.45593999997E+02  0.45594000000E+02  0.51100000000E-03 0.  1.
         11   -1    0    0    0    0 -0.00000000000E+00 -0.00000000000E+00 -0.45593999997E+02  0.45594000000E+02  0.51100000000E-03 0. -1.
    9900012    2    1    2    0    0  0.99292489004E+01 -0.39224412815E+01 -0.30045725494E+02  0.59301934865E+02  0.49999983289E+02 0.  0.
        -12    1    1    2    0    0 -0.99292489004E+01  0.39224412815E+01  0.30045725494E+02  0.31886065135E+02  0.00000000000E+00 0.  1.
         11    1    3    3    0    0  0.14910407072E+02  0.98969900347E+01 -0.19857666370E+02  0.26731957742E+02  0.51100000000E-03 0. -1.
        -11    1    3    3    0    0 -0.56691488583E+01  0.47187863761E+01  0.47320688784E+01  0.87634850244E+01  0.51100000000E-03 0.  1.
        -12    1    3    3    0    0  0.68799068663E+00 -0.18538217692E+02 -0.14920128003E+02  0.23806492098E+02  0.00000000000E+00 0.  1.
</event>
<event>
 7    1  0.3528441E-013  0.5930196E+02  0.7816164E-02  0.1266605E+00
        -11   -1    0    0    0    0  0.00000000000E+00  0.00000000000E+00  0.45593999997E+02  0.45594000000E+02  0.51100000000E-03 0.  1.
         11   -1    0    0    0    0 -0.00000000000E+00 -0.00000000000E+00 -0.45593999997E+02  0.45594000000E+02  0.51100000000E-03 0. -1.
    9900012    2    1    2    0    0 -0.23626210514E+02  0.47067921188E+00 -0.21407951608E+02  0.59301956748E+02  0.50000023199E+02 0.  0.
        -12    1    1    2    0    0  0.23626210514E+02 -0.47067921188E+00  0.21407951608E+02  0.31886043252E+02  0.00000000000E+00 0.  1.
         11    1    3    3    0    0 -0.66828652366E+01 -0.53983884760E+01 -0.40990239675E+01  0.95186807729E+01  0.51100000000E-03 0. -1.
        -11    1    3    3    0    0 -0.12915083470E+02 -0.17239060174E+02 -0.14925234116E+02  0.26205861756E+02  0.51100000000E-03 0.  1.
         12    1    3    3    0    0 -0.40282618081E+01  0.23108127862E+02 -0.23836935250E+01  0.23577414220E+02  0.00000000000E+00 0. -1.
</event>
<event>
 7    1  0.3528441E-013  0.5930194E+02  0.7816164E-02  0.1266605E+00
        -11   -1    0    0    0    0  0.00000000000E+00  0.00000000000E+00  0.45593999997E+02  0.45594000000E+02  0.51100000000E-03 0.  1.
         11   -1    0    0    0    0 -0.00000000000E+00 -0.00000000000E+00 -0.45593999997E+02  0.45594000000E+02  0.51100000000E-03 0. -1.
    9900012    2    1    2    0    0 -0.39657183262E+01 -0.26803885688E+02  0.16809096257E+02  0.59301938362E+02  0.49999989667E+02 0.  0.
        -12    1    1    2    0    0  0.39657183262E+01  0.26803885688E+02 -0.16809096257E+02  0.31886061638E+02  0.00000000000E+00 0.  1.
         11    1    3    3    0    0  0.55870963605E+01 -0.14327042451E+02 -0.29975593620E+01  0.15667327581E+02  0.51100000000E-03 0. -1.
        -11    1    3    3    0    0  0.12304251814E+02 -0.12543741534E+01  0.48490482725E+00  0.12377528032E+02  0.51100000000E-03 0.  1.
        -12    1    3    3    0    0 -0.21857066501E+02 -0.11222469084E+02  0.19321750792E+02  0.31257082749E+02  0.00000000000E+00 0.  1.
</event>
<event>
 7    1  0.3528441E-013  0.5930197E+02  0.7816164E-02  0.1266605E+00
        -11   -1    0    0    0    0  0.00000000000E+00  0.00000000000E+00  0.45593999997E+02  0.45594000000E+02  0.51100000000E-03 0. -1.
         11   -1    0    0    0    0 -0.00000000000E+00 -0.00000000000E+00 -0.45593999997E+02  0.45594000000E+02  0.51100000000E-03 0.  1.
    9900012    2    1    2    0    0  0.11238972374E+02  0.19524285654E+02  0.22565614908E+02  0.59301965337E+02  0.50000038864E+02 0.  0.
        -12    1    1    2    0    0 -0.11238972374E+02 -0.19524285654E+02 -0.22565614908E+02  0.31886034663E+02  0.00000000000E+00 0.  1.
         11    1    3    3    0    0 -0.64095282790E+01  0.46197835375E+01  0.70436371552E+00  0.79322494412E+01  0.51100000000E-03 0. -1.
        -11    1    3    3    0    0 -0.39207504532E+01 -0.75626051829E+01  0.18092559519E+02  0.19997649649E+02  0.51100000000E-03 0.  1.
        -12    1    3    3    0    0  0.21569251106E+02  0.22467107300E+02  0.37686916735E+01  0.31372066247E+02  0.00000000000E+00 0.  1.
</event>
<event>
 7    1  0.3528441E-013  0.5930195E+02  0.7816164E-02  0.1266605E+00
        -11   -1    0    0    0    0  0.00000000000E+00  0.00000000000E+00  0.45593999997E+02  0.45594000000E+02  0.51100000000E-03 0.  1.
         11   -1    0    0    0    0 -0.00000000000E+00 -0.00000000000E+00 -0.45593999997E+02  0.45594000000E+02  0.51100000000E-03 0. -1.
    9900012    2    1    2    0    0 -0.29739127051E+02 -0.11422252411E+02 -0.13551904779E+01  0.59301951810E+02  0.50000014194E+02 0.  0.
        -12    1    1    2    0    0  0.29739127051E+02  0.11422252411E+02  0.13551904779E+01  0.31886048190E+02  0.00000000000E+00 0.  1.
         11    1    3    3    0    0  0.78607076793E+01  0.36183916561E+01 -0.67599459244E+01  0.10980908549E+02  0.51100000000E-03 0. -1.
        -11    1    3    3    0    0  0.38912865087E+01 -0.15052503922E+01  0.17525126000E+01  0.45253939176E+01  0.51100000000E-03 0.  1.
         12    1    3    3    0    0 -0.41491121239E+02 -0.13535393675E+02  0.36522428465E+01  0.43795649344E+02  0.00000000000E+00 0. -1.
</event>
<event>
 7    1  0.3528441E-013  0.5930193E+02  0.7816164E-02  0.1266605E+00
        -11   -1    0    0    0    0  0.00000000000E+00  0.00000000000E+00  0.45593999997E+02  0.45594000000E+02  0.51100000000E-03 0.  1.
         11   -1    0    0    0    0 -0.00000000000E+00 -0.00000000000E+00 -0.45593999997E+02  0.45594000000E+02  0.51100000000E-03 0. -1.
    9900012    2    1    2    0    0  0.27336933371E+01  0.31287721402E+02  0.55069612576E+01  0.59301933888E+02  0.49999981507E+02 0.  0.
        -12    1    1    2    0    0 -0.27336933371E+01 -0.31287721402E+02 -0.55069612576E+01  0.31886066112E+02  0.00000000000E+00 0.  1.
         11    1    3    3    0    0 -0.33766988184E+01  0.77048821473E+01 -0.14559783846E+02  0.16815308790E+02  0.51100000000E-03 0. -1.
        -11    1    3    3    0    0 -0.11452180812E+02  0.10465928819E+02  0.77297857242E+01  0.17333138752E+02  0.51100000000E-03 0.  1.
        -12    1    3    3    0    0  0.17562572967E+02  0.13116910436E+02  0.12336959379E+02  0.25153486346E+02  0.00000000000E+00 0.  1.
</event>
<event>
 7    1  0.3528441E-013  0.5930193E+02  0.7816164E-02  0.1266605E+00
        -11   -1    0    0    0    0  0.00000000000E+00  0.00000000000E+00  0.45593999997E+02  0.45594000000E+02  0.51100000000E-03 0.  1.
         11   -1    0    0    0    0 -0.00000000000E+00 -0.00000000000E+00 -0.45593999997E+02  0.45594000000E+02  0.51100000000E-03 0. -1.
    9900012    2    1    2    0    0 -0.19032888443E+01  0.15880707575E+02 -0.27584453067E+02  0.59301930432E+02  0.49999975204E+02 0.  0.
        -12    1    1    2    0    0  0.19032888443E+01 -0.15880707575E+02  0.27584453067E+02  0.31886069568E+02  0.00000000000E+00 0.  1.
         11    1    3    3    0    0 -0.12138150701E+02 -0.30768034587E+01 -0.25614385340E+02  0.28511368935E+02  0.51100000000E-03 0. -1.
        -11    1    3    3    0    0  0.17968375875E+01 -0.15349477105E+01  0.66147334233E+01  0.70242001902E+01  0.51100000000E-03 0.  1.
        -12    1    3    3    0    0  0.84380242690E+01  0.20492458744E+02 -0.85848011504E+01  0.23766361306E+02  0.00000000000E+00 0.  1.
</event>
<event>
 7    1  0.3528441E-013  0.5930195E+02  0.7816164E-02  0.1266605E+00
        -11   -1    0    0    0    0  0.00000000000E+00  0.00000000000E+00  0.45593999997E+02  0.45594000000E+02  0.51100000000E-03 0.  1.
         11   -1    0    0    0    0 -0.00000000000E+00 -0.00000000000E+00 -0.45593999997E+02  0.45594000000E+02  0.51100000000E-03 0. -1.
    9900012    2    1    2    0    0 -0.21844542465E+02  0.16941787644E+02 -0.15890632895E+02  0.59301946342E+02  0.50000004220E+02 0.  0.
        -12    1    1    2    0    0  0.21844542465E+02 -0.16941787644E+02  0.15890632895E+02  0.31886053658E+02  0.00000000000E+00 0.  1.
         11    1    3    3    0    0  0.21948543354E+01  0.45096806580E+01 -0.58887092972E+00  0.50498885556E+01  0.51100000000E-03 0. -1.
        -11    1    3    3    0    0 -0.27753240821E+01 -0.11941850075E+02  0.77754428361E+01  0.14517841387E+02  0.51100000000E-03 0.  1.
         12    1    3    3    0    0 -0.21264072718E+02  0.24373957061E+02 -0.23077204802E+02  0.39734216399E+02  0.00000000000E+00 0. -1.
</event>
<event>
 7    1  0.3528441E-013  0.5930193E+02  0.7816164E-02  0.1266605E+00
        -11   -1    0    0    0    0  0.00000000000E+00  0.00000000000E+00  0.45593999997E+02  0.45594000000E+02  0.51100000000E-03 0.  1.
         11   -1    0    0    0    0 -0.00000000000E+00 -0.00000000000E+00 -0.45593999997E+02  0.45594000000E+02  0.51100000000E-03 0. -1.
    9900012    2    1    2    0    0  0.93024598566E+01  0.38613499286E+01 -0.30253521823E+02  0.59301931485E+02  0.49999977124E+02 0.  0.
        -12    1    1    2    0    0 -0.93024598566E+01 -0.38613499286E+01  0.30253521823E+02  0.31886068515E+02  0.00000000000E+00 0.  1.
         11    1    3    3    0    0  0.94015532775E+00  0.10471959810E+02  0.40443968310E+01  0.11265122293E+02  0.51100000000E-03 0. -1.
        -11    1    3    3    0    0 -0.47700844267E+01  0.28841721892E+01  0.37251850759E+01  0.67044133797E+01  0.51100000000E-03 0.  1.
         12    1    3    3    0    0  0.13132388956E+02 -0.94947820702E+01 -0.38023103730E+02  0.41332395812E+02  0.00000000000E+00 0. -1.
</event>
<event>
 7    1  0.3528441E-013  0.5930196E+02  0.7816164E-02  0.1266605E+00
        -11   -1    0    0    0    0  0.00000000000E+00  0.00000000000E+00  0.45593999997E+02  0.45594000000E+02  0.51100000000E-03 0.  1.
         11   -1    0    0    0    0 -0.00000000000E+00 -0.00000000000E+00 -0.45593999997E+02  0.45594000000E+02  0.51100000000E-03 0. -1.
    9900012    2    1    2    0    0 -0.22429453013E+02 -0.20006039607E+02 -0.10648818667E+02  0.59301963523E+02  0.50000035554E+02 0.  0.
        -12    1    1    2    0    0  0.22429453013E+02  0.20006039607E+02  0.10648818667E+02  0.31886036477E+02  0.00000000000E+00 0.  1.
         11    1    3    3    0    0 -0.26492494904E+02  0.61094812519E+00  0.17374754613E+01  0.26556437357E+02  0.51100000000E-03 0. -1.
        -11    1    3    3    0    0 -0.62449385748E+01  0.30008936999E+00  0.18268772118E+00  0.62548130665E+01  0.51100000000E-03 0.  1.
         12    1    3    3    0    0  0.10307980465E+02 -0.20917077103E+02 -0.12568981849E+02  0.26490713099E+02  0.00000000000E+00 0. -1.
</event>
<event>
 7    1  0.3528441E-013  0.5930194E+02  0.7816164E-02  0.1266605E+00
        -11   -1    0    0    0    0  0.00000000000E+00  0.00000000000E+00  0.45593999997E+02  0.45594000000E+02  0.51100000000E-03 0.  1.
         11   -1    0    0    0    0 -0.00000000000E+00 -0.00000000000E+00 -0.45593999997E+02  0.45594000000E+02  0.51100000000E-03 0. -1.
    9900012    2    1    2    0    0 -0.26354332934E+02 -0.15073460950E+02 -0.97447913071E+01  0.59301936476E+02  0.49999986228E+02 0.  0.
        -12    1    1    2    0    0  0.26354332934E+02  0.15073460950E+02  0.97447913071E+01  0.31886063524E+02  0.00000000000E+00 0.  1.
         11    1    3    3    0    0 -0.97221655068E+01 -0.14030150326E+02 -0.45964973254E+00  0.17075622930E+02  0.51100000000E-03 0. -1.
        -11    1    3    3    0    0 -0.44069311626E+01 -0.15149353834E+02  0.71814355772E+01  0.17334848746E+02  0.51100000000E-03 0.  1.
         12    1    3    3    0    0 -0.12225236265E+02  0.14106043210E+02 -0.16466577152E+02  0.24891464800E+02  0.00000000000E+00 0. -1.
</event>
<event>
 7    1  0.3528441E-013  0.5930195E+02  0.7816164E-02  0.1266605E+00
        -11   -1    0    0    0    0  0.00000000000E+00  0.00000000000E+00  0.45593999997E+02  0.45594000000E+02  0.51100000000E-03 0.  1.
         11   -1    0    0    0    0 -0.00000000000E+00 -0.00000000000E+00 -0.45593999997E+02  0.45594000000E+02  0.51100000000E-03 0. -1.
    9900012    2    1    2    0    0  0.26119345743E+01 -0.15045878028E+02 -0.27991419908E+02  0.59301949189E+02  0.50000009413E+02 0.  0.
        -12    1    1    2    0    0 -0.26119345743E+01  0.15045878028E+02  0.27991419908E+02  0.31886050811E+02  0.00000000000E+00 0.  1.
         11    1    3    3    0    0 -0.11503874944E+01 -0.15487017804E+02 -0.19899760651E+02  0.25242257943E+02  0.51100000000E-03 0. -1.
        -11    1    3    3    0    0  0.25017424345E+00  0.96465891410E+01 -0.17787427613E+02  0.20236399150E+02  0.51100000000E-03 0.  1.
        -12    1    3    3    0    0  0.35121478253E+01 -0.92054493652E+01  0.96957683561E+01  0.13823292096E+02  0.00000000000E+00 0.  1.
</event>
<event>
 7    1  0.3528441E-013  0.5930196E+02  0.7816164E-02  0.1266605E+00
        -11   -1    0    0    0    0  0.00000000000E+00  0.00000000000E+00  0.45593999997E+02  0.45594000000E+02  0.51100000000E-03 0. -1.
         11   -1    0    0    0    0 -0.00000000000E+00 -0.00000000000E+00 -0.45593999997E+02  0.45594000000E+02  0.51100000000E-03 0.  1.
    9900012    2    1    2    0    0  0.92903721669E+01  0.37847211601E+01  0.30266881961E+02  0.59301964297E+02  0.50000036966E+02 0.  0.
        -12    1    1    2    0    0 -0.92903721669E+01 -0.37847211601E+01 -0.30266881961E+02  0.31886035703E+02  0.00000000000E+00 0.  1.
         11    1    3    3    0    0 -0.59001152334E+01  0.11648852881E+02  0.99666460447E+01  0.16426842876E+02  0.51100000000E-03 0. -1.
        -11    1    3    3    0    0 -0.43328972804E+01 -0.40109309187E+01 -0.69581289930E+01  0.91256301164E+01  0.51100000000E-03 0.  1.
        -12    1    3    3    0    0  0.19523384681E+02 -0.38532008026E+01  0.27258364909E+02  0.33749491305E+02  0.00000000000E+00 0.  1.
</event>
<event>
 7    1  0.3528441E-013  0.5930198E+02  0.7816164E-02  0.1266605E+00
        -11   -1    0    0    0    0  0.00000000000E+00  0.00000000000E+00  0.45593999997E+02  0.45594000000E+02  0.51100000000E-03 0. -1.
         11   -1    0    0    0    0 -0.00000000000E+00 -0.00000000000E+00 -0.45593999997E+02  0.45594000000E+02  0.51100000000E-03 0.  1.
    9900012    2    1    2    0    0 -0.52643911527E+01  0.16069874396E+01  0.31407358249E+02  0.59301978376E+02  0.50000062643E+02 0.  0.
        -12    1    1    2    0    0  0.52643911527E+01 -0.16069874396E+01 -0.31407358249E+02  0.31886021624E+02  0.00000000000E+00 0.  1.
         11    1    3    3    0    0  0.11469605497E+02  0.86178820125E+01  0.28484345843E+01  0.14626459602E+02  0.51100000000E-03 0. -1.
        -11    1    3    3    0    0 -0.32125569897E+01 -0.83834602565E+01 -0.36692922812E+01  0.96987955124E+01  0.51100000000E-03 0.  1.
        -12    1    3    3    0    0 -0.13521439660E+02  0.13725656836E+01  0.32228215946E+02  0.34976723261E+02  0.00000000000E+00 0.  1.
</event>
<event>
 7    1  0.3528441E-013  0.5930193E+02  0.7816164E-02  0.1266605E+00
        -11   -1    0    0    0    0  0.00000000000E+00  0.00000000000E+00  0.45593999997E+02  0.45594000000E+02  0.51100000000E-03 0.  1.
         11   -1    0    0    0    0 -0.00000000000E+00 -0.00000000000E+00 -0.45593999997E+02  0.45594000000E+02  0.51100000000E-03 0. -1.
    9900012    2    1    2    0    0  0.25042984715E+02  0.17995996669E+01 -0.19655318669E+02  0.59301934166E+02  0.49999982015E+02 0.  0.
        -12    1    1    2    0    0 -0.25042984715E+02 -0.17995996669E+01  0.19655318669E+02  0.31886065834E+02  0.00000000000E+00 0.  1.
         11    1    3    3    0    0 -0.41637200627E+01 -0.15395297800E+01 -0.36719556034E+00  0.44543854284E+01  0.51100000000E-03 0. -1.
        -11    1    3    3    0    0 -0.84737048412E+01  0.97352443800E+01 -0.71070482141E+01  0.14733933333E+02  0.51100000000E-03 0.  1.
         12    1    3    3    0    0  0.37680409619E+02 -0.63961149331E+01 -0.12181074895E+02  0.40113615405E+02  0.00000000000E+00 0. -1.
</event>
<event>
 7    1  0.3528441E-013  0.5930193E+02  0.7816164E-02  0.1266605E+00
        -11   -1    0    0    0    0  0.00000000000E+00  0.00000000000E+00  0.45593999997E+02  0.45594000000E+02  0.51100000000E-03 0. -1.
         11   -1    0    0    0    0 -0.00000000000E+00 -0.00000000000E+00 -0.45593999997E+02  0.45594000000E+02  0.51100000000E-03 0.  1.
    9900012    2    1    2    0    0 -0.66214312373E+01  0.28541140755E+02  0.12581000829E+02  0.59301927036E+02  0.49999969011E+02 0.  0.
        -12    1    1    2    0    0  0.66214312373E+01 -0.28541140755E+02 -0.12581000829E+02  0.31886072964E+02  0.00000000000E+00 0.  1.
         11    1    3    3    0    0 -0.61573932833E+01 -0.81919549948E+01 -0.31693861937E+01  0.10726911382E+02  0.51100000000E-03 0. -1.
        -11    1    3    3    0    0 -0.39970475964E+01 -0.97311716389E+00 -0.41073473946E+01  0.58132305462E+01  0.51100000000E-03 0.  1.
         12    1    3    3    0    0  0.35330096423E+01  0.37706212914E+02  0.19857734417E+02  0.42761785108E+02  0.00000000000E+00 0. -1.
</event>
<event>
 7    1  0.3528441E-013  0.5930204E+02  0.7816164E-02  0.1266604E+00
        -11   -1    0    0    0    0  0.00000000000E+00  0.00000000000E+00  0.45593999997E+02  0.45594000000E+02  0.51100000000E-03 0.  1.
         11   -1    0    0    0    0 -0.00000000000E+00 -0.00000000000E+00 -0.45593999997E+02  0.45594000000E+02  0.51100000000E-03 0. -1.
    9900012    2    1    2    0    0 -0.29938701101E+01  0.27778468984E+02  0.15365803809E+02  0.59302038762E+02  0.50000172773E+02 0.  0.
        -12    1    1    2    0    0  0.29938701101E+01 -0.27778468984E+02 -0.15365803809E+02  0.31885961238E+02  0.00000000000E+00 0.  1.
         11    1    3    3    0    0 -0.46201862228E+00 -0.10244376419E+00 -0.53634118063E+01  0.53842494739E+01  0.51100000000E-03 0. -1.
        -11    1    3    3    0    0  0.13355201871E+01 -0.52125470701E+01 -0.81897571561E+01  0.97993052644E+01  0.51100000000E-03 0.  1.
         12    1    3    3    0    0 -0.38673716749E+01  0.33093459819E+02  0.28918972771E+02  0.44118484024E+02  0.00000000000E+00 0. -1.
</event>
<event>
 7    1  0.3528441E-013  0.5930194E+02  0.7816164E-02  0.1266605E+00
        -11   -1    0    0    0    0  0.00000000000E+00  0.00000000000E+00  0.45593999997E+02  0.45594000000E+02  0.51100000000E-03 0. -1.
         11   -1    0    0    0    0 -0.00000000000E+00 -0.00000000000E+00 -0.45593999997E+02  0.45594000000E+02  0.51100000000E-03 0.  1.
    9900012    2    1    2    0    0 -0.28530877609E+02 -0.70077483105E+01 -0.12393597370E+02  0.59301940832E+02  0.49999994171E+02 0.  0.
        -12    1    1    2    0    0  0.28530877609E+02  0.70077483105E+01  0.12393597370E+02  0.31886059168E+02  0.00000000000E+00 0.  1.
         11    1    3    3    0    0 -0.20251828201E+01  0.49876711311E+01 -0.38525057567E+01  0.66196699037E+01  0.51100000000E-03 0. -1.
        -11    1    3    3    0    0 -0.31200836064E+02  0.30734547404E+01 -0.16030136836E+02  0.35212264659E+02  0.51100000000E-03 0.  1.
        -12    1    3    3    0    0  0.46951412757E+01 -0.15068874182E+02  0.74890452225E+01  0.17470006270E+02  0.00000000000E+00 0.  1.
</event>
<event>
 7    1  0.3528441E-013  0.5930162E+02  0.7816164E-02  0.1266606E+00
        -11   -1    0    0    0    0  0.00000000000E+00  0.00000000000E+00  0.45593999997E+02  0.45594000000E+02  0.51100000000E-03 0.  1.
         11   -1    0    0    0    0 -0.00000000000E+00 -0.00000000000E+00 -0.45593999997E+02  0.45594000000E+02  0.51100000000E-03 0. -1.
    9900012    2    1    2    0    0 -0.25800728677E+02  0.13338208495E+02 -0.13158872603E+02  0.59301618357E+02  0.49999406051E+02 0.  0.
        -12    1    1    2    0    0  0.25800728677E+02 -0.13338208495E+02  0.13158872603E+02  0.31886381643E+02  0.00000000000E+00 0.  1.
         11    1    3    3    0    0 -0.20153484482E+02  0.22785117407E+02 -0.45002202405E+01  0.30750227552E+02  0.51100000000E-03 0.  1.
        -11    1    3    3    0    0 -0.65162359904E+01 -0.11326770306E+01 -0.16071089134E+02  0.17378843314E+02  0.51100000000E-03 0. -1.
        -12    1    3    3    0    0  0.86899179561E+00 -0.83142318817E+01  0.74124367714E+01  0.11172547490E+02  0.00000000000E+00 0.  1.
</event>
<event>
 7    1  0.3528441E-013  0.5930197E+02  0.7816164E-02  0.1266605E+00
        -11   -1    0    0    0    0  0.00000000000E+00  0.00000000000E+00  0.45593999997E+02  0.45594000000E+02  0.51100000000E-03 0.  1.
         11   -1    0    0    0    0 -0.00000000000E+00 -0.00000000000E+00 -0.45593999997E+02  0.45594000000E+02  0.51100000000E-03 0. -1.
    9900012    2    1    2    0    0  0.16744619922E+02  0.18829521275E+02 -0.19539338841E+02  0.59301969672E+02  0.50000046768E+02 0.  0.
        -12    1    1    2    0    0 -0.16744619922E+02 -0.18829521275E+02  0.19539338841E+02  0.31886030328E+02  0.00000000000E+00 0.  1.
         11    1    3    3    0    0  0.13952466718E+02  0.15085596104E+01  0.27638792051E+01  0.14303360030E+02  0.51100000000E-03 0. -1.
        -11    1    3    3    0    0  0.79413508425E+01 -0.34137376976E+01  0.52648293002E+01  0.10121120792E+02  0.51100000000E-03 0.  1.
         12    1    3    3    0    0 -0.51491976389E+01  0.20734699362E+02 -0.27568047346E+02  0.34877488849E+02  0.00000000000E+00 0. -1.
</event>
<event>
 7    1  0.3528441E-013  0.5930194E+02  0.7816164E-02  0.1266605E+00
        -11   -1    0    0    0    0  0.00000000000E+00  0.00000000000E+00  0.45593999997E+02  0.45594000000E+02  0.51100000000E-03 0. -1.
         11   -1    0    0    0    0 -0.00000000000E+00 -0.00000000000E+00 -0.45593999997E+02  0.45594000000E+02  0.51100000000E-03 0.  1.
    9900012    2    1    2    0    0 -0.28683467346E+02  0.32038062506E+01 -0.13554154315E+02  0.59301940779E+02  0.49999994075E+02 0.  0.
        -12    1    1    2    0    0  0.28683467346E+02 -0.32038062506E+01  0.13554154315E+02  0.31886059221E+02  0.00000000000E+00 0.  1.
         11    1    3    3    0    0  0.79650648447E+01  0.57590753750E+01  0.16105071468E+01  0.99600673033E+01  0.51100000000E-03 0. -1.
        -11    1    3    3    0    0 -0.47117413477E+00  0.37029219502E+01 -0.11912289407E+02  0.12483440039E+02  0.51100000000E-03 0.  1.
         12    1    3    3    0    0 -0.36177358055E+02 -0.62581910747E+01 -0.32523720547E+01  0.36858433436E+02  0.00000000000E+00 0. -1.
</event>
<event>
 7    1  0.3528441E-013  0.5930189E+02  0.7816164E-02  0.1266605E+00
        -11   -1    0    0    0    0  0.00000000000E+00  0.00000000000E+00  0.45593999997E+02  0.45594000000E+02  0.51100000000E-03 0. -1.
         11   -1    0    0    0    0 -0.00000000000E+00 -0.00000000000E+00 -0.45593999997E+02  0.45594000000E+02  0.51100000000E-03 0.  1.
    9900012    2    1    2    0    0 -0.86350838341E+01 -0.10962632512E+01  0.30675033462E+02  0.59301887916E+02  0.49999897666E+02 0.  0.
        -12    1    1    2    0    0  0.86350838341E+01  0.10962632512E+01 -0.30675033462E+02  0.31886112084E+02  0.00000000000E+00 0.  1.
         11    1    3    3    0    0  0.65182912741E+01 -0.42823081492E+01  0.35661882502E+01  0.85757788635E+01  0.51100000000E-03 0. -1.
        -11    1    3    3    0    0 -0.11189797380E+02 -0.13554266690E+02 -0.11812308912E+01  0.17616044323E+02  0.51100000000E-03 0.  1.
        -12    1    3    3    0    0 -0.39635777279E+01  0.16740311588E+02  0.28290076103E+02  0.33110064729E+02  0.00000000000E+00 0.  1.
</event>
<event>
 7    1  0.3528441E-013  0.5930197E+02  0.7816164E-02  0.1266605E+00
        -11   -1    0    0    0    0  0.00000000000E+00  0.00000000000E+00  0.45593999997E+02  0.45594000000E+02  0.51100000000E-03 0. -1.
         11   -1    0    0    0    0 -0.00000000000E+00 -0.00000000000E+00 -0.45593999997E+02  0.45594000000E+02  0.51100000000E-03 0.  1.
    9900012    2    1    2    0    0 -0.10535341523E+02  0.50894283388E+01  0.29661808622E+02  0.59301974965E+02  0.50000056422E+02 0.  0.
        -12    1    1    2    0    0  0.10535341523E+02 -0.50894283388E+01 -0.29661808622E+02  0.31886025035E+02  0.00000000000E+00 0.  1.
         11    1    3    3    0    0 -0.94082372705E+01  0.10183417788E+02  0.94845492675E+01  0.16798023737E+02  0.51100000000E-03 0. -1.
        -11    1    3    3    0    0  0.10973736814E+02  0.76334671416E+01 -0.27258761689E+01  0.13642694801E+02  0.51100000000E-03 0.  1.
         12    1    3    3    0    0 -0.12100841067E+02 -0.12727456591E+02  0.22903135523E+02  0.28861256428E+02  0.00000000000E+00 0. -1.
</event>
<event>
 7    1  0.3528441E-013  0.5930193E+02  0.7816164E-02  0.1266605E+00
        -11   -1    0    0    0    0  0.00000000000E+00  0.00000000000E+00  0.45593999997E+02  0.45594000000E+02  0.51100000000E-03 0. -1.
         11   -1    0    0    0    0 -0.00000000000E+00 -0.00000000000E+00 -0.45593999997E+02  0.45594000000E+02  0.51100000000E-03 0.  1.
    9900012    2    1    2    0    0  0.28918880190E+02  0.29789495602E+01 -0.13097543487E+02  0.59301930670E+02  0.49999975639E+02 0.  0.
        -12    1    1    2    0    0 -0.28918880190E+02 -0.29789495602E+01  0.13097543487E+02  0.31886069330E+02  0.00000000000E+00 0.  1.
         11    1    3    3    0    0  0.20147686439E+02  0.12497840747E+02 -0.54811936333E+01  0.24334518201E+02  0.51100000000E-03 0. -1.
        -11    1    3    3    0    0 -0.72765392062E+01  0.47296848687E+01  0.50567635877E+01  0.10044341692E+02  0.51100000000E-03 0.  1.
         12    1    3    3    0    0  0.16047732957E+02 -0.14248576056E+02 -0.12673113441E+02  0.24923070777E+02  0.00000000000E+00 0. -1.
</event>
<event>
 7    1  0.3528441E-013  0.5930193E+02  0.7816164E-02  0.1266605E+00
        -11   -1    0    0    0    0  0.00000000000E+00  0.00000000000E+00  0.45593999997E+02  0.45594000000E+02  0.51100000000E-03 0. -1.
         11   -1    0    0    0    0 -0.00000000000E+00 -0.00000000000E+00 -0.45593999997E+02  0.45594000000E+02  0.51100000000E-03 0.  1.
    9900012    2    1    2    0    0 -0.22832797071E+02 -0.21413524310E+02  0.60700897800E+01  0.59301927250E+02  0.49999969401E+02 0.  0.
        -12    1    1    2    0    0  0.22832797071E+02  0.21413524310E+02 -0.60700897800E+01  0.31886072750E+02  0.00000000000E+00 0.  1.
         11    1    3    3    0    0 -0.14469414835E+01 -0.12149628182E+02 -0.31427375187E+01  0.12632652294E+02  0.51100000000E-03 0. -1.
        -11    1    3    3    0    0  0.78352196760E+01 -0.19497863264E+00 -0.82999704192E+01  0.11415699421E+02  0.51100000000E-03 0.  1.
        -12    1    3    3    0    0 -0.29221075264E+02 -0.90689174958E+01  0.17512797718E+02  0.35253575535E+02  0.00000000000E+00 0.  1.
</event>
<event>
 7    1  0.3528441E-013  0.5930191E+02  0.7816164E-02  0.1266605E+00
        -11   -1    0    0    0    0  0.00000000000E+00  0.00000000000E+00  0.45593999997E+02  0.45594000000E+02  0.51100000000E-03 0. -1.
         11   -1    0    0    0    0 -0.00000000000E+00 -0.00000000000E+00 -0.45593999997E+02  0.45594000000E+02  0.51100000000E-03 0.  1.
    9900012    2    1    2    0    0  0.31769283592E+02 -0.22394318213E+01 -0.15556477918E+01  0.59301914087E+02  0.49999945394E+02 0.  0.
        -12    1    1    2    0    0 -0.31769283592E+02  0.22394318213E+01  0.15556477918E+01  0.31886085913E+02  0.00000000000E+00 0.  1.
         11    1    3    3    0    0  0.21861932014E+02  0.74243765021E+01  0.14997026084E+02  0.27531368100E+02  0.51100000000E-03 0. -1.
        -11    1    3    3    0    0  0.66914037886E+01 -0.11694650195E+01  0.49653726413E+01  0.84141225818E+01  0.51100000000E-03 0.  1.
        -12    1    3    3    0    0  0.32159477895E+01 -0.84943433039E+01 -0.21518046517E+02  0.23356423405E+02  0.00000000000E+00 0.  1.
</event>
<event>
 7    1  0.3528441E-013  0.5930196E+02  0.7816164E-02  0.1266605E+00
        -11   -1    0    0    0    0  0.00000000000E+00  0.00000000000E+00  0.45593999997E+02  0.45594000000E+02  0.51100000000E-03 0. -1.
         11   -1    0    0    0    0 -0.00000000000E+00 -0.00000000000E+00 -0.45593999997E+02  0.45594000000E+02  0.51100000000E-03 0.  1.
    9900012    2    1    2    0    0 -0.23617308136E+02  0.29653501248E+01  0.21216712669E+02  0.59301961653E+02  0.50000032145E+02 0.  0.
        -12    1    1    2    0    0  0.23617308136E+02 -0.29653501248E+01 -0.21216712669E+02  0.31886038347E+02  0.00000000000E+00 0.  1.
         11    1    3    3    0    0 -0.35147801454E+02 -0.83186305292E+00  0.92183668068E+01  0.36346089611E+02  0.51100000000E-03 0. -1.
        -11    1    3    3    0    0  0.32898871190E+01 -0.15122572010E+01  0.12623966775E+02  0.13132966782E+02  0.51100000000E-03 0.  1.
        -12    1    3    3    0    0  0.82406061985E+01  0.53094703787E+01 -0.62562091270E+00  0.98229052600E+01  0.00000000000E+00 0.  1.
</event>
<event>
 7    1  0.3528441E-013  0.5930195E+02  0.7816164E-02  0.1266605E+00
        -11   -1    0    0    0    0  0.00000000000E+00  0.00000000000E+00  0.45593999997E+02  0.45594000000E+02  0.51100000000E-03 0. -1.
         11   -1    0    0    0    0 -0.00000000000E+00 -0.00000000000E+00 -0.45593999997E+02  0.45594000000E+02  0.51100000000E-03 0.  1.
    9900012    2    1    2    0    0  0.29211265806E+01 -0.30237822390E+02  0.96882077570E+01  0.59301948929E+02  0.50000008938E+02 0.  0.
        -12    1    1    2    0    0 -0.29211265806E+01  0.30237822390E+02 -0.96882077570E+01  0.31886051071E+02  0.00000000000E+00 0.  1.
         11    1    3    3    0    0 -0.96613885045E+01 -0.81799109310E+01  0.24586963005E+02  0.27654513569E+02  0.51100000000E-03 0. -1.
        -11    1    3    3    0    0  0.48368716529E+01 -0.87943724899E+01 -0.12612458521E+02  0.16118635956E+02  0.51100000000E-03 0.  1.
        -12    1    3    3    0    0  0.77456434323E+01 -0.13263538969E+02 -0.22862967268E+01  0.15528799403E+02  0.00000000000E+00 0.  1.
</event>
<event>
 7    1  0.3528441E-013  0.5930196E+02  0.7816164E-02  0.1266605E+00
        -11   -1    0    0    0    0  0.00000000000E+00  0.00000000000E+00  0.45593999997E+02  0.45594000000E+02  0.51100000000E-03 0.  1.
         11   -1    0    0    0    0 -0.00000000000E+00 -0.00000000000E+00 -0.45593999997E+02  0.45594000000E+02  0.51100000000E-03 0. -1.
    9900012    2    1    2    0    0 -0.13524756047E+02  0.22637703104E+02  0.17925824361E+02  0.59301955922E+02  0.50000021692E+02 0.  0.
        -12    1    1    2    0    0  0.13524756047E+02 -0.22637703104E+02 -0.17925824361E+02  0.31886044078E+02  0.00000000000E+00 0.  1.
         11    1    3    3    0    0 -0.30015522775E+02  0.77073023500E+01  0.14326399534E+02  0.34140589346E+02  0.51100000000E-03 0. -1.
        -11    1    3    3    0    0  0.77682629939E+01  0.21606830421E+01 -0.26419665429E+01  0.84849542501E+01  0.51100000000E-03 0.  1.
        -12    1    3    3    0    0  0.87225037346E+01  0.12769717712E+02  0.62413913696E+01  0.16676412326E+02  0.00000000000E+00 0.  1.
</event>
<event>
 7    1  0.3528441E-013  0.5930196E+02  0.7816164E-02  0.1266605E+00
        -11   -1    0    0    0    0  0.00000000000E+00  0.00000000000E+00  0.45593999997E+02  0.45594000000E+02  0.51100000000E-03 0.  1.
         11   -1    0    0    0    0 -0.00000000000E+00 -0.00000000000E+00 -0.45593999997E+02  0.45594000000E+02  0.51100000000E-03 0. -1.
    9900012    2    1    2    0    0 -0.14674871381E+02  0.36929761414E+01  0.28066520066E+02  0.59301961183E+02  0.50000031287E+02 0.  0.
        -12    1    1    2    0    0  0.14674871381E+02 -0.36929761414E+01 -0.28066520066E+02  0.31886038817E+02  0.00000000000E+00 0.  1.
         11    1    3    3    0    0  0.53900350205E+01 -0.48095484190E+01 -0.21971684843E+01  0.75506147516E+01  0.51100000000E-03 0. -1.
        -11    1    3    3    0    0 -0.43747373003E+00  0.19200386511E+02  0.17653510994E+02  0.26086254544E+02  0.51100000000E-03 0.  1.
         12    1    3    3    0    0 -0.19627432672E+02 -0.10697861950E+02  0.12610177556E+02  0.25665091887E+02  0.00000000000E+00 0. -1.
</event>
<event>
 7    1  0.3528441E-013  0.5930195E+02  0.7816164E-02  0.1266605E+00
        -11   -1    0    0    0    0  0.00000000000E+00  0.00000000000E+00  0.45593999997E+02  0.45594000000E+02  0.51100000000E-03 0.  1.
         11   -1    0    0    0    0 -0.00000000000E+00 -0.00000000000E+00 -0.45593999997E+02  0.45594000000E+02  0.51100000000E-03 0. -1.
    9900012    2    1    2    0    0  0.17316337748E+02  0.26011771578E+02 -0.63444960406E+01  0.59301945938E+02  0.50000003484E+02 0.  0.
        -12    1    1    2    0    0 -0.17316337748E+02 -0.26011771578E+02  0.63444960406E+01  0.31886054062E+02  0.00000000000E+00 0.  1.
         11    1    3    3    0    0 -0.70483318657E+01 -0.24626419954E+01  0.20255691113E+01  0.77360531392E+01  0.51100000000E-03 0. -1.
        -11    1    3    3    0    0  0.10887821692E+02 -0.51995355822E+01 -0.93774645066E+01  0.15281252314E+02  0.51100000000E-03 0.  1.
         12    1    3    3    0    0  0.13476847922E+02  0.33673949156E+02  0.10073993547E+01  0.36284640485E+02  0.00000000000E+00 0. -1.
</event>
<event>
 7    1  0.3528441E-013  0.5930195E+02  0.7816164E-02  0.1266605E+00
        -11   -1    0    0    0    0  0.00000000000E+00  0.00000000000E+00  0.45593999997E+02  0.45594000000E+02  0.51100000000E-03 0.  1.
         11   -1    0    0    0    0 -0.00000000000E+00 -0.00000000000E+00 -0.45593999997E+02  0.45594000000E+02  0.51100000000E-03 0. -1.
    9900012    2    1    2    0    0 -0.19280657808E+02  0.16630003929E+02 -0.19194251829E+02  0.59301951335E+02  0.50000013327E+02 0.  0.
        -12    1    1    2    0    0  0.19280657808E+02 -0.16630003929E+02  0.19194251829E+02  0.31886048665E+02  0.00000000000E+00 0.  1.
         11    1    3    3    0    0 -0.59733553589E+01  0.22926116010E+02 -0.29642650482E+02  0.37946995894E+02  0.51100000000E-03 0. -1.
        -11    1    3    3    0    0  0.12513166480E+01  0.11556884589E+01 -0.37351272566E+00  0.17438237253E+01  0.51100000000E-03 0.  1.
        -12    1    3    3    0    0 -0.14558619097E+02 -0.74518005404E+01  0.10821911378E+02  0.19611131716E+02  0.00000000000E+00 0.  1.
</event>
<event>
 7    1  0.3528441E-013  0.5930195E+02  0.7816164E-02  0.1266605E+00
        -11   -1    0    0    0    0  0.00000000000E+00  0.00000000000E+00  0.45593999997E+02  0.45594000000E+02  0.51100000000E-03 0.  1.
         11   -1    0    0    0    0 -0.00000000000E+00 -0.00000000000E+00 -0.45593999997E+02  0.45594000000E+02  0.51100000000E-03 0. -1.
    9900012    2    1    2    0    0 -0.23876141799E+02  0.20950662125E+02 -0.27784780817E+01  0.59301947702E+02  0.50000006701E+02 0.  0.
        -12    1    1    2    0    0  0.23876141799E+02 -0.20950662125E+02  0.27784780817E+01  0.31886052298E+02  0.00000000000E+00 0.  1.
         11    1    3    3    0    0 -0.23606463687E+01  0.82039576607E+01  0.67489624921E+01  0.10882374169E+02  0.51100000000E-03 0. -1.
        -11    1    3    3    0    0 -0.13054610062E+02  0.74874814493E+01  0.15425984960E+02  0.21551014699E+02  0.51100000000E-03 0.  1.
         12    1    3    3    0    0 -0.84608853687E+01  0.52592230148E+01 -0.24953425534E+02  0.26868558834E+02  0.00000000000E+00 0. -1.
</event>
<event>
 7    1  0.3528441E-013  0.5930194E+02  0.7816164E-02  0.1266605E+00
        -11   -1    0    0    0    0  0.00000000000E+00  0.00000000000E+00  0.45593999997E+02  0.45594000000E+02  0.51100000000E-03 0. -1.
         11   -1    0    0    0    0 -0.00000000000E+00 -0.00000000000E+00 -0.45593999997E+02  0.45594000000E+02  0.51100000000E-03 0.  1.
    9900012    2    1    2    0    0  0.27452742071E+02  0.30170877889E+01 -0.15936278890E+02  0.59301939553E+02  0.49999991839E+02 0.  0.
        -12    1    1    2    0    0 -0.27452742071E+02 -0.30170877889E+01  0.15936278890E+02  0.31886060447E+02  0.00000000000E+00 0.  1.
         11    1    3    3    0    0  0.13461146156E+02 -0.88973138937E+01  0.68090762311E+01  0.17513656664E+02  0.51100000000E-03 0. -1.
        -11    1    3    3    0    0  0.92313023814E+01 -0.83707220284E+01 -0.24471502275E+01  0.12699388782E+02  0.51100000000E-03 0.  1.
         12    1    3    3    0    0  0.47602935343E+01  0.20285123711E+02 -0.20298204894E+02  0.29088894108E+02  0.00000000000E+00 0. -1.
</event>
<event>
 7    1  0.3528441E-013  0.5930188E+02  0.7816164E-02  0.1266605E+00
        -11   -1    0    0    0    0  0.00000000000E+00  0.00000000000E+00  0.45593999997E+02  0.45594000000E+02  0.51100000000E-03 0.  1.
         11   -1    0    0    0    0 -0.00000000000E+00 -0.00000000000E+00 -0.45593999997E+02  0.45594000000E+02  0.51100000000E-03 0. -1.
    9900012    2    1    2    0    0  0.96725941107E+01  0.25956603661E+02 -0.15793042487E+02  0.59301881681E+02  0.49999886294E+02 0.  0.
        -12    1    1    2    0    0 -0.96725941107E+01 -0.25956603661E+02  0.15793042487E+02  0.31886118319E+02  0.00000000000E+00 0.  1.
         11    1    3    3    0    0  0.11456409459E+02  0.24199857579E+02 -0.93333777485E+01  0.28354794391E+02  0.51100000000E-03 0. -1.
        -11    1    3    3    0    0  0.46771658460E+01  0.20588155035E+01  0.11107697890E+02  0.12226837461E+02  0.51100000000E-03 0.  1.
         12    1    3    3    0    0 -0.64609811939E+01 -0.30206942080E+00 -0.17567362629E+02  0.18720249829E+02  0.00000000000E+00 0. -1.
</event>
<event>
 7    1  0.3528441E-013  0.5930199E+02  0.7816164E-02  0.1266605E+00
        -11   -1    0    0    0    0  0.00000000000E+00  0.00000000000E+00  0.45593999997E+02  0.45594000000E+02  0.51100000000E-03 0. -1.
         11   -1    0    0    0    0 -0.00000000000E+00 -0.00000000000E+00 -0.45593999997E+02  0.45594000000E+02  0.51100000000E-03 0.  1.
    9900012    2    1    2    0    0  0.23674161596E+02  0.20339625029E+02 -0.65231297173E+01  0.59301992177E+02  0.50000087813E+02 0.  0.
        -12    1    1    2    0    0 -0.23674161596E+02 -0.20339625029E+02  0.65231297173E+01  0.31886007823E+02  0.00000000000E+00 0.  1.
         11    1    3    3    0    0  0.17034226089E+02  0.20262615335E+02  0.97857842241E+01  0.28222331792E+02  0.51100000000E-03 0. -1.
        -11    1    3    3    0    0  0.13997047861E+01  0.12631323286E+02 -0.94989159718E+01  0.15866282058E+02  0.51100000000E-03 0.  1.
         12    1    3    3    0    0  0.52402307207E+01 -0.12554313592E+02 -0.68099979696E+01  0.15213378327E+02  0.00000000000E+00 0. -1.
</event>
<event>
 7    1  0.3528441E-013  0.5930194E+02  0.7816164E-02  0.1266605E+00
        -11   -1    0    0    0    0  0.00000000000E+00  0.00000000000E+00  0.45593999997E+02  0.45594000000E+02  0.51100000000E-03 0. -1.
         11   -1    0    0    0    0 -0.00000000000E+00 -0.00000000000E+00 -0.45593999997E+02  0.45594000000E+02  0.51100000000E-03 0.  1.
    9900012    2    1    2    0    0 -0.26345651705E+02  0.16561913761E+02  0.69520103628E+01  0.59301940361E+02  0.49999993313E+02 0.  0.
        -12    1    1    2    0    0  0.26345651705E+02 -0.16561913761E+02 -0.69520103628E+01  0.31886059639E+02  0.00000000000E+00 0.  1.
         11    1    3    3    0    0 -0.62612190355E+01  0.45309722798E+01  0.12816100649E+02  0.14966128749E+02  0.51100000000E-03 0. -1.
        -11    1    3    3    0    0 -0.51382558332E-01  0.13002591280E+02  0.11838156420E+02  0.17584424012E+02  0.51100000000E-03 0.  1.
        -12    1    3    3    0    0 -0.20033050112E+02 -0.97164979842E+00 -0.17702246706E+02  0.26751387600E+02  0.00000000000E+00 0.  1.
</event>
<event>
 7    1  0.3528441E-013  0.5930196E+02  0.7816164E-02  0.1266605E+00
        -11   -1    0    0    0    0  0.00000000000E+00  0.00000000000E+00  0.45593999997E+02  0.45594000000E+02  0.51100000000E-03 0. -1.
         11   -1    0    0    0    0 -0.00000000000E+00 -0.00000000000E+00 -0.45593999997E+02  0.45594000000E+02  0.51100000000E-03 0.  1.
    9900012    2    1    2    0    0 -0.53440003051E+01  0.29726329384E+02 -0.10222833316E+02  0.59301963574E+02  0.50000035648E+02 0.  0.
        -12    1    1    2    0    0  0.53440003051E+01 -0.29726329384E+02  0.10222833316E+02  0.31886036426E+02  0.00000000000E+00 0.  1.
         11    1    3    3    0    0  0.14756391494E+02  0.48342389830E+01 -0.79872219755E+01  0.17461863349E+02  0.51100000000E-03 0. -1.
        -11    1    3    3    0    0 -0.13824998919E+01 -0.45493949386E+01  0.42230924447E+01  0.63594661974E+01  0.51100000000E-03 0.  1.
         12    1    3    3    0    0 -0.18717891907E+02  0.29441485340E+02 -0.64587037853E+01  0.35480634028E+02  0.00000000000E+00 0. -1.
</event>
<event>
 7    1  0.3528441E-013  0.5930196E+02  0.7816164E-02  0.1266605E+00
        -11   -1    0    0    0    0  0.00000000000E+00  0.00000000000E+00  0.45593999997E+02  0.45594000000E+02  0.51100000000E-03 0. -1.
         11   -1    0    0    0    0 -0.00000000000E+00 -0.00000000000E+00 -0.45593999997E+02  0.45594000000E+02  0.51100000000E-03 0.  1.
    9900012    2    1    2    0    0  0.25056175218E+02  0.60515825182E-01  0.19720647336E+02  0.59301960577E+02  0.50000030182E+02 0.  0.
        -12    1    1    2    0    0 -0.25056175218E+02 -0.60515825182E-01 -0.19720647336E+02  0.31886039423E+02  0.00000000000E+00 0.  1.
         11    1    3    3    0    0  0.30234141460E+02  0.79414367330E+01  0.57956797350E+01  0.31792446132E+02  0.51100000000E-03 0. -1.
        -11    1    3    3    0    0  0.64678612693E+01 -0.72271293771E+01  0.12405526721E+02  0.15746800371E+02  0.51100000000E-03 0.  1.
        -12    1    3    3    0    0 -0.11645827511E+02 -0.65379153075E+00  0.15194408797E+01  0.11762714073E+02  0.00000000000E+00 0.  1.
</event>
<event>
 7    1  0.3528441E-013  0.5930193E+02  0.7816164E-02  0.1266605E+00
        -11   -1    0    0    0    0  0.00000000000E+00  0.00000000000E+00  0.45593999997E+02  0.45594000000E+02  0.51100000000E-03 0.  1.
         11   -1    0    0    0    0 -0.00000000000E+00 -0.00000000000E+00 -0.45593999997E+02  0.45594000000E+02  0.51100000000E-03 0. -1.
    9900012    2    1    2    0    0 -0.21237631802E+02 -0.23699963671E+02 -0.19990982724E+01  0.59301926606E+02  0.49999968227E+02 0.  0.
        -12    1    1    2    0    0  0.21237631802E+02  0.23699963671E+02  0.19990982724E+01  0.31886073394E+02  0.00000000000E+00 0.  1.
         11    1    3    3    0    0 -0.68571354827E+01 -0.81682966739E+01  0.18931331031E+01  0.10831681808E+02  0.51100000000E-03 0. -1.
        -11    1    3    3    0    0 -0.33260693458E+01 -0.15399267572E+02 -0.22117067807E+02  0.27154463126E+02  0.51100000000E-03 0.  1.
         12    1    3    3    0    0 -0.11054426974E+02 -0.13239942518E+00  0.18224836431E+02  0.21315781672E+02  0.00000000000E+00 0. -1.
</event>
<event>
 7    1  0.3528441E-013  0.5930198E+02  0.7816164E-02  0.1266605E+00
        -11   -1    0    0    0    0  0.00000000000E+00  0.00000000000E+00  0.45593999997E+02  0.45594000000E+02  0.51100000000E-03 0.  1.
         11   -1    0    0    0    0 -0.00000000000E+00 -0.00000000000E+00 -0.45593999997E+02  0.45594000000E+02  0.51100000000E-03 0. -1.
    9900012    2    1    2    0    0  0.18972202226E+02 -0.91142683069E+00 -0.25611389849E+02  0.59301977260E+02  0.50000060608E+02 0.  0.
        -12    1    1    2    0    0 -0.18972202226E+02  0.91142683069E+00  0.25611389849E+02  0.31886022740E+02  0.00000000000E+00 0.  1.
         11    1    3    3    0    0  0.12766938785E+02 -0.11018593665E+02 -0.75446657979E+01  0.18475013249E+02  0.51100000000E-03 0.  1.
        -11    1    3    3    0    0  0.17086206285E+02 -0.47865421130E+01 -0.11955787376E+02  0.21396034274E+02  0.51100000000E-03 0. -1.
        -12    1    3    3    0    0 -0.10880942844E+02  0.14893708948E+02 -0.61109366755E+01  0.19430929737E+02  0.00000000000E+00 0.  1.
</event>
<event>
 7    1  0.3528441E-013  0.5930195E+02  0.7816164E-02  0.1266605E+00
        -11   -1    0    0    0    0  0.00000000000E+00  0.00000000000E+00  0.45593999997E+02  0.45594000000E+02  0.51100000000E-03 0. -1.
         11   -1    0    0    0    0 -0.00000000000E+00 -0.00000000000E+00 -0.45593999997E+02  0.45594000000E+02  0.51100000000E-03 0.  1.
    9900012    2    1    2    0    0  0.30340046653E+02  0.53643033500E-01  0.98081098513E+01  0.59301947762E+02  0.50000006810E+02 0.  0.
        -12    1    1    2    0    0 -0.30340046653E+02 -0.53643033500E-01 -0.98081098513E+01  0.31886052238E+02  0.00000000000E+00 0.  1.
         11    1    3    3    0    0  0.27124597115E+02 -0.42939485455E+01 -0.81823816581E+01  0.28655420650E+02  0.51100000000E-03 0. -1.
        -11    1    3    3    0    0  0.93956745067E+00 -0.58110935506E+01 -0.34423009459E+01  0.68191664675E+01  0.51100000000E-03 0.  1.
        -12    1    3    3    0    0  0.22758820878E+01  0.10158685130E+02  0.21432792455E+02  0.23827360644E+02  0.00000000000E+00 0.  1.
</event>
<event>
 7    1  0.3528441E-013  0.5930193E+02  0.7816164E-02  0.1266605E+00
        -11   -1    0    0    0    0  0.00000000000E+00  0.00000000000E+00  0.45593999997E+02  0.45594000000E+02  0.51100000000E-03 0. -1.
         11   -1    0    0    0    0 -0.00000000000E+00 -0.00000000000E+00 -0.45593999997E+02  0.45594000000E+02  0.51100000000E-03 0.  1.
    9900012    2    1    2    0    0  0.27126838122E+02 -0.41171060949E+01  0.16245167372E+02  0.59301931380E+02  0.49999976933E+02 0.  0.
        -12    1    1    2    0    0 -0.27126838122E+02  0.41171060949E+01 -0.16245167372E+02  0.31886068620E+02  0.00000000000E+00 0.  1.
         11    1    3    3    0    0  0.73831622650E+01  0.87309903936E+01  0.14977929006E+01  0.11531897594E+02  0.51100000000E-03 0. -1.
        -11    1    3    3    0    0 -0.30290094026E+01  0.71336757920E+01  0.15646123662E+02  0.17460395590E+02  0.51100000000E-03 0.  1.
        -12    1    3    3    0    0  0.22772685260E+02 -0.19981772281E+02 -0.89874919019E+00  0.30309638195E+02  0.00000000000E+00 0.  1.
</event>
<event>
 7    1  0.3528441E-013  0.5930194E+02  0.7816164E-02  0.1266605E+00
        -11   -1    0    0    0    0  0.00000000000E+00  0.00000000000E+00  0.45593999997E+02  0.45594000000E+02  0.51100000000E-03 0.  1.
         11   -1    0    0    0    0 -0.00000000000E+00 -0.00000000000E+00 -0.45593999997E+02  0.45594000000E+02  0.51100000000E-03 0. -1.
    9900012    2    1    2    0    0 -0.25237925344E+02  0.15072424607E+02 -0.12352719965E+02  0.59301944274E+02  0.50000000449E+02 0.  0.
        -12    1    1    2    0    0  0.25237925344E+02 -0.15072424607E+02  0.12352719965E+02  0.31886055726E+02  0.00000000000E+00 0.  1.
         11    1    3    3    0    0 -0.28614519390E+02  0.19749146869E+02 -0.31802100760E+01  0.34913224691E+02  0.51100000000E-03 0. -1.
        -11    1    3    3    0    0 -0.70071465561E+01  0.39187759646E+01  0.97472375933E-01  0.80290976482E+01  0.51100000000E-03 0.  1.
        -12    1    3    3    0    0  0.10383740602E+02 -0.85954982262E+01 -0.92699822653E+01  0.16359621935E+02  0.00000000000E+00 0.  1.
</event>
<event>
 7    1  0.3528441E-013  0.5930183E+02  0.7816164E-02  0.1266605E+00
        -11   -1    0    0    0    0  0.00000000000E+00  0.00000000000E+00  0.45593999997E+02  0.45594000000E+02  0.51100000000E-03 0. -1.
         11   -1    0    0    0    0 -0.00000000000E+00 -0.00000000000E+00 -0.45593999997E+02  0.45594000000E+02  0.51100000000E-03 0.  1.
    9900012    2    1    2    0    0  0.17776756374E+02 -0.26431082715E+02  0.14535065027E+01  0.59301829301E+02  0.49999790765E+02 0.  0.
        -12    1    1    2    0    0 -0.17776756374E+02  0.26431082715E+02 -0.14535065027E+01  0.31886170699E+02  0.00000000000E+00 0.  1.
         11    1    3    3    0    0  0.39960435716E+01 -0.57409272814E+01 -0.66244973710E+01  0.96338245757E+01  0.51100000000E-03 0. -1.
        -11    1    3    3    0    0 -0.53672529634E+01  0.80886088710E+01 -0.69876368693E+01  0.11960772012E+02  0.51100000000E-03 0.  1.
         12    1    3    3    0    0  0.19147965766E+02 -0.28778764305E+02  0.15065640743E+02  0.37707232713E+02  0.00000000000E+00 0. -1.
</event>
<event>
 7    1  0.3528441E-013  0.5930195E+02  0.7816164E-02  0.1266605E+00
        -11   -1    0    0    0    0  0.00000000000E+00  0.00000000000E+00  0.45593999997E+02  0.45594000000E+02  0.51100000000E-03 0.  1.
         11   -1    0    0    0    0 -0.00000000000E+00 -0.00000000000E+00 -0.45593999997E+02  0.45594000000E+02  0.51100000000E-03 0. -1.
    9900012    2    1    2    0    0  0.91258502328E+01  0.30538395692E+02 -0.91963437194E+00  0.59301945347E+02  0.50000002407E+02 0.  0.
        -12    1    1    2    0    0 -0.91258502328E+01 -0.30538395692E+02  0.91963437194E+00  0.31886054653E+02  0.00000000000E+00 0.  1.
         11    1    3    3    0    0  0.26577647239E+01 -0.22803327375E+01 -0.10517313708E+01  0.36564695895E+01  0.51100000000E-03 0. -1.
        -11    1    3    3    0    0 -0.64430493419E+01 -0.56821199230E+01 -0.10599208704E+02  0.13643408557E+02  0.51100000000E-03 0.  1.
         12    1    3    3    0    0  0.12911134851E+02  0.38500848353E+02  0.10731305703E+02  0.42002067201E+02  0.00000000000E+00 0. -1.
</event>
<event>
 7    1  0.3528441E-013  0.5930196E+02  0.7816164E-02  0.1266605E+00
        -11   -1    0    0    0    0  0.00000000000E+00  0.00000000000E+00  0.45593999997E+02  0.45594000000E+02  0.51100000000E-03 0.  1.
         11   -1    0    0    0    0 -0.00000000000E+00 -0.00000000000E+00 -0.45593999997E+02  0.45594000000E+02  0.51100000000E-03 0. -1.
    9900012    2    1    2    0    0 -0.97524426723E+01 -0.19154319211E+02 -0.23552531704E+02  0.59301955526E+02  0.50000020970E+02 0.  0.
        -12    1    1    2    0    0  0.97524426723E+01  0.19154319211E+02  0.23552531704E+02  0.31886044474E+02  0.00000000000E+00 0.  1.
         11    1    3    3    0    0 -0.23012165828E+02 -0.23010203929E+01 -0.22220095869E+02  0.32071593843E+02  0.51100000000E-03 0. -1.
        -11    1    3    3    0    0  0.38266503995E+01 -0.11011913738E+02 -0.81351438174E+01  0.14215697754E+02  0.51100000000E-03 0.  1.
        -12    1    3    3    0    0  0.94330727561E+01 -0.58413850805E+01  0.68027079827E+01  0.13014663929E+02  0.00000000000E+00 0.  1.
</event>
<event>
 7    1  0.3528441E-013  0.5930194E+02  0.7816164E-02  0.1266605E+00
        -11   -1    0    0    0    0  0.00000000000E+00  0.00000000000E+00  0.45593999997E+02  0.45594000000E+02  0.51100000000E-03 0.  1.
         11   -1    0    0    0    0 -0.00000000000E+00 -0.00000000000E+00 -0.45593999997E+02  0.45594000000E+02  0.51100000000E-03 0. -1.
    9900012    2    1    2    0    0 -0.59942904373E+01  0.22542933090E+02 -0.21739494943E+02  0.59301937362E+02  0.49999987843E+02 0.  0.
        -12    1    1    2    0    0  0.59942904373E+01 -0.22542933090E+02  0.21739494943E+02  0.31886062638E+02  0.00000000000E+00 0.  1.
         11    1    3    3    0    0  0.28877159757E+01  0.14110794290E+02 -0.90752466570E+01  0.17023910279E+02  0.51100000000E-03 0. -1.
        -11    1    3    3    0    0 -0.11395554674E+02  0.22537134460E+02 -0.11934363316E+02  0.27932241657E+02  0.51100000000E-03 0.  1.
        -12    1    3    3    0    0  0.25135482610E+01 -0.14104995659E+02 -0.72988496995E+00  0.14345785426E+02  0.00000000000E+00 0.  1.
</event>
<event>
 7    1  0.3528441E-013  0.5930209E+02  0.7816164E-02  0.1266604E+00
        -11   -1    0    0    0    0  0.00000000000E+00  0.00000000000E+00  0.45593999997E+02  0.45594000000E+02  0.51100000000E-03 0. -1.
         11   -1    0    0    0    0 -0.00000000000E+00 -0.00000000000E+00 -0.45593999997E+02  0.45594000000E+02  0.51100000000E-03 0.  1.
    9900012    2    1    2    0    0 -0.30587190413E+00  0.29786199629E+02  0.11375398743E+02  0.59302094924E+02  0.50000275197E+02 0.  0.
        -12    1    1    2    0    0  0.30587190413E+00 -0.29786199629E+02 -0.11375398743E+02  0.31885905076E+02  0.00000000000E+00 0.  1.
         11    1    3    3    0    0  0.26806860507E+01  0.30576792558E+02  0.92984563429E+01  0.32071601323E+02  0.51100000000E-03 0. -1.
        -11    1    3    3    0    0  0.12045332746E+02  0.93184690663E-01  0.12233300111E+00  0.12046314373E+02  0.51100000000E-03 0.  1.
         12    1    3    3    0    0 -0.15031890701E+02 -0.88377761895E+00  0.19546093989E+01  0.15184179228E+02  0.00000000000E+00 0. -1.
</event>
<event>
 7    1  0.3528441E-013  0.5930182E+02  0.7816164E-02  0.1266605E+00
        -11   -1    0    0    0    0  0.00000000000E+00  0.00000000000E+00  0.45593999997E+02  0.45594000000E+02  0.51100000000E-03 0. -1.
         11   -1    0    0    0    0 -0.00000000000E+00 -0.00000000000E+00 -0.45593999997E+02  0.45594000000E+02  0.51100000000E-03 0.  1.
    9900012    2    1    2    0    0 -0.21557142378E+02 -0.23295380070E+02 -0.30566907930E+01  0.59301819941E+02  0.49999773696E+02 0.  0.
        -12    1    1    2    0    0  0.21557142378E+02  0.23295380070E+02  0.30566907930E+01  0.31886180059E+02  0.00000000000E+00 0.  1.
         11    1    3    3    0    0  0.74115228760E+00 -0.70460712208E+01  0.12567792214E+02  0.14427259884E+02  0.51100000000E-03 0. -1.
        -11    1    3    3    0    0  0.44694731495E+01 -0.74693426507E+01  0.49286132490E+01  0.10002924507E+02  0.51100000000E-03 0.  1.
        -12    1    3    3    0    0 -0.26767767815E+02 -0.87799661989E+01 -0.20553096256E+02  0.34871635551E+02  0.00000000000E+00 0.  1.
</event>
<event>
 7    1  0.3528441E-013  0.5930195E+02  0.7816164E-02  0.1266605E+00
        -11   -1    0    0    0    0  0.00000000000E+00  0.00000000000E+00  0.45593999997E+02  0.45594000000E+02  0.51100000000E-03 0.  1.
         11   -1    0    0    0    0 -0.00000000000E+00 -0.00000000000E+00 -0.45593999997E+02  0.45594000000E+02  0.51100000000E-03 0. -1.
    9900012    2    1    2    0    0 -0.11242432765E+02 -0.94061213259E+01 -0.28317004107E+02  0.59301950786E+02  0.50000012326E+02 0.  0.
        -12    1    1    2    0    0  0.11242432765E+02  0.94061213259E+01  0.28317004107E+02  0.31886049214E+02  0.00000000000E+00 0.  1.
         11    1    3    3    0    0 -0.14112563519E+02 -0.14967988814E+01 -0.56636722315E+01  0.15280119090E+02  0.51100000000E-03 0. -1.
        -11    1    3    3    0    0 -0.46241803223E+01  0.13835509468E+02 -0.10773952692E+02  0.18135115736E+02  0.51100000000E-03 0.  1.
        -12    1    3    3    0    0  0.74943110773E+01 -0.21744831913E+02 -0.11879379183E+02  0.25886715960E+02  0.00000000000E+00 0.  1.
</event>
<event>
 7    1  0.3528441E-013  0.5930203E+02  0.7816164E-02  0.1266604E+00
        -11   -1    0    0    0    0  0.00000000000E+00  0.00000000000E+00  0.45593999997E+02  0.45594000000E+02  0.51100000000E-03 0.  1.
         11   -1    0    0    0    0 -0.00000000000E+00 -0.00000000000E+00 -0.45593999997E+02  0.45594000000E+02  0.51100000000E-03 0. -1.
    9900012    2    1    2    0    0  0.30887298194E+02 -0.54732190355E+01  0.57213262245E+01  0.59302033022E+02  0.50000162304E+02 0.  0.
        -12    1    1    2    0    0 -0.30887298194E+02  0.54732190355E+01 -0.57213262245E+01  0.31885966978E+02  0.00000000000E+00 0.  1.
         11    1    3    3    0    0  0.55862095387E+01 -0.13596704110E+02 -0.14082930189E+02  0.20356940404E+02  0.51100000000E-03 0. -1.
        -11    1    3    3    0    0  0.11099538625E+02  0.22566892788E+01 -0.27485197990E+01  0.11655332065E+02  0.51100000000E-03 0.  1.
        -12    1    3    3    0    0  0.14201550030E+02  0.58667957958E+01  0.22552776212E+02  0.27289760553E+02  0.00000000000E+00 0.  1.
</event>
<event>
 7    1  0.3528441E-013  0.5930195E+02  0.7816164E-02  0.1266605E+00
        -11   -1    0    0    0    0  0.00000000000E+00  0.00000000000E+00  0.45593999997E+02  0.45594000000E+02  0.51100000000E-03 0. -1.
         11   -1    0    0    0    0 -0.00000000000E+00 -0.00000000000E+00 -0.45593999997E+02  0.45594000000E+02  0.51100000000E-03 0.  1.
    9900012    2    1    2    0    0 -0.19554348694E+02 -0.22955411098E+02  0.10363225793E+02  0.59301954457E+02  0.50000019020E+02 0.  0.
        -12    1    1    2    0    0  0.19554348694E+02  0.22955411098E+02 -0.10363225793E+02  0.31886045543E+02  0.00000000000E+00 0.  1.
         11    1    3    3    0    0  0.89911780921E+01 -0.90701649945E+01  0.10569697714E+02  0.16577927691E+02  0.51100000000E-03 0. -1.
        -11    1    3    3    0    0 -0.38205512279E+01 -0.10751253308E+02  0.10586400710E+02  0.15564637472E+02  0.51100000000E-03 0.  1.
        -12    1    3    3    0    0 -0.24724975558E+02 -0.31339927960E+01 -0.10792872630E+02  0.27159389294E+02  0.00000000000E+00 0.  1.
</event>
<event>
 7    1  0.3528441E-013  0.5930196E+02  0.7816164E-02  0.1266605E+00
        -11   -1    0    0    0    0  0.00000000000E+00  0.00000000000E+00  0.45593999997E+02  0.45594000000E+02  0.51100000000E-03 0.  1.
         11   -1    0    0    0    0 -0.00000000000E+00 -0.00000000000E+00 -0.45593999997E+02  0.45594000000E+02  0.51100000000E-03 0. -1.
    9900012    2    1    2    0    0  0.34773150664E+01 -0.20742128394E+02 -0.23966477608E+02  0.59301958237E+02  0.50000025914E+02 0.  0.
        -12    1    1    2    0    0 -0.34773150664E+01  0.20742128394E+02  0.23966477608E+02  0.31886041763E+02  0.00000000000E+00 0.  1.
         11    1    3    3    0    0  0.62307086664E+01 -0.53767813735E+01 -0.35347295505E+01  0.89568868297E+01  0.51100000000E-03 0.  1.
        -11    1    3    3    0    0  0.12211310134E+02 -0.16399494158E+02  0.47896833198E+01  0.21000013580E+02  0.51100000000E-03 0. -1.
        -12    1    3    3    0    0 -0.14964703734E+02  0.10341471369E+01 -0.25221431377E+02  0.29345057827E+02  0.00000000000E+00 0.  1.
</event>
<event>
 7    1  0.3528441E-013  0.5930194E+02  0.7816164E-02  0.1266605E+00
        -11   -1    0    0    0    0  0.00000000000E+00  0.00000000000E+00  0.45593999997E+02  0.45594000000E+02  0.51100000000E-03 0. -1.
         11   -1    0    0    0    0 -0.00000000000E+00 -0.00000000000E+00 -0.45593999997E+02  0.45594000000E+02  0.51100000000E-03 0.  1.
    9900012    2    1    2    0    0 -0.10697595663E+02 -0.22771854994E+02  0.19588896582E+02  0.59301940317E+02  0.49999993232E+02 0.  0.
        -12    1    1    2    0    0  0.10697595663E+02  0.22771854994E+02 -0.19588896582E+02  0.31886059683E+02  0.00000000000E+00 0.  1.
         11    1    3    3    0    0 -0.11383064556E+02  0.61502061811E+01  0.11734691806E+02  0.17467174551E+02  0.51100000000E-03 0. -1.
        -11    1    3    3    0    0 -0.63391841838E+01  0.34676495715E+01  0.45242784228E+01  0.85251947295E+01  0.51100000000E-03 0.  1.
        -12    1    3    3    0    0  0.70246530769E+01 -0.32389710746E+02  0.33299263528E+01  0.33309571036E+02  0.00000000000E+00 0.  1.
</event>
<event>
 7    1  0.3528441E-013  0.5930195E+02  0.7816164E-02  0.1266605E+00
        -11   -1    0    0    0    0  0.00000000000E+00  0.00000000000E+00  0.45593999997E+02  0.45594000000E+02  0.51100000000E-03 0. -1.
         11   -1    0    0    0    0 -0.00000000000E+00 -0.00000000000E+00 -0.45593999997E+02  0.45594000000E+02  0.51100000000E-03 0.  1.
    9900012    2    1    2    0    0  0.18641976094E+01  0.31606362932E+02 -0.37792939399E+01  0.59301945475E+02  0.50000002639E+02 0.  0.
        -12    1    1    2    0    0 -0.18641976094E+01 -0.31606362932E+02  0.37792939399E+01  0.31886054525E+02  0.00000000000E+00 0.  1.
         11    1    3    3    0    0  0.15011880427E+01  0.63825825881E+00  0.13616101069E+02  0.13713465927E+02  0.51100000000E-03 0. -1.
        -11    1    3    3    0    0  0.57316457962E+01 -0.18960761222E+01  0.27876556647E+01  0.66496535669E+01  0.51100000000E-03 0.  1.
         12    1    3    3    0    0 -0.53686362295E+01  0.32864180795E+02 -0.20183050674E+02  0.38938825981E+02  0.00000000000E+00 0. -1.
</event>
<event>
 7    1  0.3528441E-013  0.5930207E+02  0.7816164E-02  0.1266604E+00
        -11   -1    0    0    0    0  0.00000000000E+00  0.00000000000E+00  0.45593999997E+02  0.45594000000E+02  0.51100000000E-03 0.  1.
         11   -1    0    0    0    0 -0.00000000000E+00 -0.00000000000E+00 -0.45593999997E+02  0.45594000000E+02  0.51100000000E-03 0. -1.
    9900012    2    1    2    0    0  0.25137013470E+02 -0.18396877726E+02 -0.68116007814E+01  0.59302071106E+02  0.50000231759E+02 0.  0.
        -12    1    1    2    0    0 -0.25137013470E+02  0.18396877726E+02  0.68116007814E+01  0.31885928894E+02  0.00000000000E+00 0.  1.
         11    1    3    3    0    0  0.59287361040E+01 -0.63020551944E+01 -0.21890011005E+01  0.89251071447E+01  0.51100000000E-03 0. -1.
        -11    1    3    3    0    0  0.36180965821E+01 -0.27679903672E+02 -0.32245931238E+00  0.27917228917E+02  0.51100000000E-03 0.  1.
        -12    1    3    3    0    0  0.15590180784E+02  0.15585081140E+02 -0.43001403685E+01  0.22459735044E+02  0.00000000000E+00 0.  1.
</event>
<event>
 7    1  0.3528441E-013  0.5930193E+02  0.7816164E-02  0.1266605E+00
        -11   -1    0    0    0    0  0.00000000000E+00  0.00000000000E+00  0.45593999997E+02  0.45594000000E+02  0.51100000000E-03 0.  1.
         11   -1    0    0    0    0 -0.00000000000E+00 -0.00000000000E+00 -0.45593999997E+02  0.45594000000E+02  0.51100000000E-03 0. -1.
    9900012    2    1    2    0    0 -0.30685165407E+02  0.74738487811E+01 -0.43913341487E+01  0.59301927692E+02  0.49999970207E+02 0.  0.
        -12    1    1    2    0    0  0.30685165407E+02 -0.74738487811E+01  0.43913341487E+01  0.31886072308E+02  0.00000000000E+00 0.  1.
         11    1    3    3    0    0  0.57459292688E+01  0.11695213246E+01  0.10902451095E+02  0.12379294141E+02  0.51100000000E-03 0.  1.
        -11    1    3    3    0    0 -0.39931859729E+01 -0.51412662058E+01 -0.10270499769E+02  0.12159823937E+02  0.51100000000E-03 0. -1.
        -12    1    3    3    0    0 -0.32437908703E+02  0.11445593662E+02 -0.50232854743E+01  0.34762809614E+02  0.00000000000E+00 0.  1.
</event>
<event>
 7    1  0.3528441E-013  0.5930194E+02  0.7816164E-02  0.1266605E+00
        -11   -1    0    0    0    0  0.00000000000E+00  0.00000000000E+00  0.45593999997E+02  0.45594000000E+02  0.51100000000E-03 0.  1.
         11   -1    0    0    0    0 -0.00000000000E+00 -0.00000000000E+00 -0.45593999997E+02  0.45594000000E+02  0.51100000000E-03 0. -1.
    9900012    2    1    2    0    0 -0.81394709727E+01  0.29637990456E+02 -0.84887753283E+01  0.59301940781E+02  0.49999994078E+02 0.  0.
        -12    1    1    2    0    0  0.81394709727E+01 -0.29637990456E+02  0.84887753283E+01  0.31886059219E+02  0.00000000000E+00 0.  1.
         11    1    3    3    0    0 -0.18263798681E+02  0.10142509101E+02  0.58058260855E+01  0.21682814622E+02  0.51100000000E-03 0. -1.
        -11    1    3    3    0    0 -0.58374098905E+01  0.82426518611E+01  0.39958299358E+01  0.10862012754E+02  0.51100000000E-03 0.  1.
        -12    1    3    3    0    0  0.15961737599E+02  0.11252829494E+02 -0.18290431350E+02  0.26757113405E+02  0.00000000000E+00 0.  1.
</event>
<event>
 7    1  0.3528441E-013  0.5930196E+02  0.7816164E-02  0.1266605E+00
        -11   -1    0    0    0    0  0.00000000000E+00  0.00000000000E+00  0.45593999997E+02  0.45594000000E+02  0.51100000000E-03 0.  1.
         11   -1    0    0    0    0 -0.00000000000E+00 -0.00000000000E+00 -0.45593999997E+02  0.45594000000E+02  0.51100000000E-03 0. -1.
    9900012    2    1    2    0    0 -0.25021880926E+02  0.19343536439E+02  0.40561976105E+01  0.59301958130E+02  0.50000025720E+02 0.  0.
        -12    1    1    2    0    0  0.25021880926E+02 -0.19343536439E+02 -0.40561976105E+01  0.31886041870E+02  0.00000000000E+00 0.  1.
         11    1    3    3    0    0 -0.16321419536E+02 -0.46064827894E+01 -0.52413620297E+01  0.17750501276E+02  0.51100000000E-03 0. -1.
        -11    1    3    3    0    0 -0.55511513574E+01  0.26367344128E+01  0.17461841249E+02  0.18511713854E+02  0.51100000000E-03 0.  1.
         12    1    3    3    0    0 -0.31493100329E+01  0.21313284816E+02 -0.81642816089E+01  0.23039743000E+02  0.00000000000E+00 0. -1.
</event>
<event>
 7    1  0.3528441E-013  0.5930200E+02  0.7816164E-02  0.1266605E+00
        -11   -1    0    0    0    0  0.00000000000E+00  0.00000000000E+00  0.45593999997E+02  0.45594000000E+02  0.51100000000E-03 0. -1.
         11   -1    0    0    0    0 -0.00000000000E+00 -0.00000000000E+00 -0.45593999997E+02  0.45594000000E+02  0.51100000000E-03 0.  1.
    9900012    2    1    2    0    0 -0.31558781625E+02 -0.13929378995E+00  0.45542509220E+01  0.59301995204E+02  0.50000093333E+02 0.  0.
        -12    1    1    2    0    0  0.31558781625E+02  0.13929378995E+00 -0.45542509220E+01  0.31886004796E+02  0.00000000000E+00 0.  1.
         11    1    3    3    0    0  0.22681594882E+01 -0.22280050994E+01  0.36766612028E+01  0.48606987202E+01  0.51100000000E-03 0. -1.
        -11    1    3    3    0    0 -0.12864980340E+02 -0.98902916000E+01 -0.17673958449E+02  0.23993632376E+02  0.51100000000E-03 0.  1.
         12    1    3    3    0    0 -0.20961960773E+02  0.11979002909E+02  0.18551548169E+02  0.30447664107E+02  0.00000000000E+00 0. -1.
</event>
<event>
 7    1  0.3528441E-013  0.5930196E+02  0.7816164E-02  0.1266605E+00
        -11   -1    0    0    0    0  0.00000000000E+00  0.00000000000E+00  0.45593999997E+02  0.45594000000E+02  0.51100000000E-03 0. -1.
         11   -1    0    0    0    0 -0.00000000000E+00 -0.00000000000E+00 -0.45593999997E+02  0.45594000000E+02  0.51100000000E-03 0.  1.
    9900012    2    1    2    0    0  0.18890325470E+02  0.23823981207E+02 -0.96069427667E+01  0.59301955620E+02  0.50000021141E+02 0.  0.
        -12    1    1    2    0    0 -0.18890325470E+02 -0.23823981207E+02  0.96069427667E+01  0.31886044380E+02  0.00000000000E+00 0.  1.
         11    1    3    3    0    0  0.98100877691E+01  0.21673458295E+02 -0.42557100425E+00  0.23794069166E+02  0.51100000000E-03 0. -1.
        -11    1    3    3    0    0  0.10112302355E+02 -0.24652921929E+01 -0.20637550834E+02  0.23113736808E+02  0.51100000000E-03 0.  1.
         12    1    3    3    0    0 -0.10320646533E+01  0.46158151042E+01  0.11456179072E+02  0.12394149646E+02  0.00000000000E+00 0. -1.
</event>
<event>
 7    1  0.3528441E-013  0.5930208E+02  0.7816164E-02  0.1266604E+00
        -11   -1    0    0    0    0  0.00000000000E+00  0.00000000000E+00  0.45593999997E+02  0.45594000000E+02  0.51100000000E-03 0.  1.
         11   -1    0    0    0    0 -0.00000000000E+00 -0.00000000000E+00 -0.45593999997E+02  0.45594000000E+02  0.51100000000E-03 0. -1.
    9900012    2    1    2    0    0 -0.29225327443E+02  0.11369524292E+02 -0.57728760773E+01  0.59302079205E+02  0.50000246530E+02 0.  0.
        -12    1    1    2    0    0  0.29225327443E+02 -0.11369524292E+02  0.57728760773E+01  0.31885920795E+02  0.00000000000E+00 0.  1.
         11    1    3    3    0    0 -0.18808617780E+02  0.55421031400E+01 -0.64811294977E+00  0.19618844529E+02  0.51100000000E-03 0. -1.
        -11    1    3    3    0    0  0.19583336538E+01  0.16906396219E+02 -0.12888168513E+02  0.21348681264E+02  0.51100000000E-03 0.  1.
        -12    1    3    3    0    0 -0.12375043317E+02 -0.11078975067E+02  0.77634053857E+01  0.18334553412E+02  0.00000000000E+00 0.  1.
</event>
<event>
 7    1  0.3528441E-013  0.5930196E+02  0.7816164E-02  0.1266605E+00
        -11   -1    0    0    0    0  0.00000000000E+00  0.00000000000E+00  0.45593999997E+02  0.45594000000E+02  0.51100000000E-03 0. -1.
         11   -1    0    0    0    0 -0.00000000000E+00 -0.00000000000E+00 -0.45593999997E+02  0.45594000000E+02  0.51100000000E-03 0.  1.
    9900012    2    1    2    0    0 -0.87829387234E+01 -0.25306288014E+02  0.17296563354E+02  0.59301963408E+02  0.50000035345E+02 0.  0.
        -12    1    1    2    0    0  0.87829387234E+01  0.25306288014E+02 -0.17296563354E+02  0.31886036592E+02  0.00000000000E+00 0.  1.
         11    1    3    3    0    0  0.12282346667E+02 -0.44466570008E+01  0.35858059205E+01  0.13545730046E+02  0.51100000000E-03 0. -1.
        -11    1    3    3    0    0  0.74783062973E+01 -0.46367634686E+01 -0.24904770166E+01  0.91447863054E+01  0.51100000000E-03 0.  1.
         12    1    3    3    0    0 -0.28543591688E+02 -0.16222867545E+02  0.16201234451E+02  0.36611447056E+02  0.00000000000E+00 0. -1.
</event>
<event>
 7    1  0.3528441E-013  0.5930194E+02  0.7816164E-02  0.1266605E+00
        -11   -1    0    0    0    0  0.00000000000E+00  0.00000000000E+00  0.45593999997E+02  0.45594000000E+02  0.51100000000E-03 0.  1.
         11   -1    0    0    0    0 -0.00000000000E+00 -0.00000000000E+00 -0.45593999997E+02  0.45594000000E+02  0.51100000000E-03 0. -1.
    9900012    2    1    2    0    0 -0.15355598088E+02 -0.27945045018E+02 -0.26720140816E-01  0.59301942739E+02  0.49999997649E+02 0.  0.
        -12    1    1    2    0    0  0.15355598088E+02  0.27945045018E+02  0.26720140816E-01  0.31886057261E+02  0.00000000000E+00 0.  1.
         11    1    3    3    0    0  0.69871822579E+01 -0.14288682056E+02 -0.15023002140E+02  0.21878705271E+02  0.51100000000E-03 0. -1.
        -11    1    3    3    0    0 -0.62468821677E+01 -0.15491513572E+02  0.23428894801E+01  0.16867117743E+02  0.51100000000E-03 0.  1.
        -12    1    3    3    0    0 -0.16095898178E+02  0.18351506093E+01  0.12653392519E+02  0.20556119725E+02  0.00000000000E+00 0.  1.
</event>
<event>
 7    1  0.3528441E-013  0.5930209E+02  0.7816164E-02  0.1266604E+00
        -11   -1    0    0    0    0  0.00000000000E+00  0.00000000000E+00  0.45593999997E+02  0.45594000000E+02  0.51100000000E-03 0.  1.
         11   -1    0    0    0    0 -0.00000000000E+00 -0.00000000000E+00 -0.45593999997E+02  0.45594000000E+02  0.51100000000E-03 0. -1.
    9900012    2    1    2    0    0 -0.29575797621E+02  0.10974937889E+02 -0.46404925581E+01  0.59302090294E+02  0.50000266754E+02 0.  0.
        -12    1    1    2    0    0  0.29575797621E+02 -0.10974937889E+02  0.46404925581E+01  0.31885909706E+02  0.00000000000E+00 0.  1.
         11    1    3    3    0    0 -0.51535056019E+01  0.12413139612E+02 -0.15785741260E+02  0.20732445162E+02  0.51100000000E-03 0. -1.
        -11    1    3    3    0    0 -0.85835097268E+00  0.10480866664E+02  0.33271096497E+01  0.11029732150E+02  0.51100000000E-03 0.  1.
        -12    1    3    3    0    0 -0.23563941046E+02 -0.11919068386E+02  0.78181390525E+01  0.27539912982E+02  0.00000000000E+00 0.  1.
</event>
<event>
 7    1  0.3528441E-013  0.5930189E+02  0.7816164E-02  0.1266605E+00
        -11   -1    0    0    0    0  0.00000000000E+00  0.00000000000E+00  0.45593999997E+02  0.45594000000E+02  0.51100000000E-03 0.  1.
         11   -1    0    0    0    0 -0.00000000000E+00 -0.00000000000E+00 -0.45593999997E+02  0.45594000000E+02  0.51100000000E-03 0. -1.
    9900012    2    1    2    0    0 -0.17346161625E+02 -0.13412261198E+02  0.23150505014E+02  0.59301890862E+02  0.49999903039E+02 0.  0.
        -12    1    1    2    0    0  0.17346161625E+02  0.13412261198E+02 -0.23150505014E+02  0.31886109138E+02  0.00000000000E+00 0.  1.
         11    1    3    3    0    0 -0.89996300393E+01 -0.27323848536E+01 -0.10226630151E+02  0.13893999868E+02  0.51100000000E-03 0. -1.
        -11    1    3    3    0    0  0.84987718558E+01 -0.10001615800E+02  0.96028593093E+01  0.16262728825E+02  0.51100000000E-03 0.  1.
        -12    1    3    3    0    0 -0.16845303441E+02 -0.67826054371E+00  0.23774275855E+02  0.29145162169E+02  0.00000000000E+00 0.  1.
</event>
<event>
 7    1  0.3528441E-013  0.5930194E+02  0.7816164E-02  0.1266605E+00
        -11   -1    0    0    0    0  0.00000000000E+00  0.00000000000E+00  0.45593999997E+02  0.45594000000E+02  0.51100000000E-03 0.  1.
         11   -1    0    0    0    0 -0.00000000000E+00 -0.00000000000E+00 -0.45593999997E+02  0.45594000000E+02  0.51100000000E-03 0. -1.
    9900012    2    1    2    0    0 -0.25769405646E+02 -0.18311649790E+02 -0.41644022684E+01  0.59301936718E+02  0.49999986668E+02 0.  0.
        -12    1    1    2    0    0  0.25769405646E+02  0.18311649790E+02  0.41644022684E+01  0.31886063282E+02  0.00000000000E+00 0.  1.
         11    1    3    3    0    0 -0.16264788346E+02 -0.83168195459E+01  0.69788858410E+01  0.19555502426E+02  0.51100000000E-03 0. -1.
        -11    1    3    3    0    0 -0.10067728775E+02 -0.16553892807E+02  0.68785962305E+01  0.20559805838E+02  0.51100000000E-03 0.  1.
        -12    1    3    3    0    0  0.56311147486E+00  0.65590625627E+01 -0.18021884340E+02  0.19186628453E+02  0.00000000000E+00 0.  1.
</event>
<event>
 7    1  0.3528441E-013  0.5930194E+02  0.7816164E-02  0.1266605E+00
        -11   -1    0    0    0    0  0.00000000000E+00  0.00000000000E+00  0.45593999997E+02  0.45594000000E+02  0.51100000000E-03 0. -1.
         11   -1    0    0    0    0 -0.00000000000E+00 -0.00000000000E+00 -0.45593999997E+02  0.45594000000E+02  0.51100000000E-03 0.  1.
    9900012    2    1    2    0    0 -0.29818009460E+02 -0.46786881413E+01  0.10281867764E+02  0.59301943242E+02  0.49999998567E+02 0.  0.
        -12    1    1    2    0    0  0.29818009460E+02  0.46786881413E+01 -0.10281867764E+02  0.31886056758E+02  0.00000000000E+00 0.  1.
         11    1    3    3    0    0 -0.25674251141E+02 -0.12654277488E+02  0.16893736321E+02  0.33236970944E+02  0.51100000000E-03 0. -1.
        -11    1    3    3    0    0  0.90615824615E-01 -0.60807489567E+01  0.45732935173E+01  0.76091216943E+01  0.51100000000E-03 0.  1.
         12    1    3    3    0    0 -0.42343741429E+01  0.14056338303E+02 -0.11185162074E+02  0.18455850604E+02  0.00000000000E+00 0. -1.
</event>
<event>
 7    1  0.3528441E-013  0.5930195E+02  0.7816164E-02  0.1266605E+00
        -11   -1    0    0    0    0  0.00000000000E+00  0.00000000000E+00  0.45593999997E+02  0.45594000000E+02  0.51100000000E-03 0.  1.
         11   -1    0    0    0    0 -0.00000000000E+00 -0.00000000000E+00 -0.45593999997E+02  0.45594000000E+02  0.51100000000E-03 0. -1.
    9900012    2    1    2    0    0 -0.20630365997E+02  0.12473039736E+02 -0.20869384590E+02  0.59301953921E+02  0.50000018043E+02 0.  0.
        -12    1    1    2    0    0  0.20630365997E+02 -0.12473039736E+02  0.20869384590E+02  0.31886046079E+02  0.00000000000E+00 0.  1.
         11    1    3    3    0    0 -0.12023255171E+02  0.13423999204E+02 -0.16264941870E+02  0.24275723549E+02  0.51100000000E-03 0. -1.
        -11    1    3    3    0    0  0.37066033142E+01 -0.14522683585E+02 -0.70048051438E+01  0.16544320536E+02  0.51100000000E-03 0.  1.
         12    1    3    3    0    0 -0.12313714140E+02  0.13571724116E+02  0.24003624244E+01  0.18481909836E+02  0.00000000000E+00 0. -1.
</event>
<event>
 7    1  0.3528441E-013  0.5930193E+02  0.7816164E-02  0.1266605E+00
        -11   -1    0    0    0    0  0.00000000000E+00  0.00000000000E+00  0.45593999997E+02  0.45594000000E+02  0.51100000000E-03 0.  1.
         11   -1    0    0    0    0 -0.00000000000E+00 -0.00000000000E+00 -0.45593999997E+02  0.45594000000E+02  0.51100000000E-03 0. -1.
    9900012    2    1    2    0    0  0.21528893341E+01 -0.31534750248E+02 -0.42006934135E+01  0.59301933594E+02  0.49999980971E+02 0.  0.
        -12    1    1    2    0    0 -0.21528893341E+01  0.31534750248E+02  0.42006934135E+01  0.31886066406E+02  0.00000000000E+00 0.  1.
         11    1    3    3    0    0  0.31760374627E+01 -0.10500967467E+02  0.12306160220E+02  0.16486331045E+02  0.51100000000E-03 0.  1.
        -11    1    3    3    0    0 -0.56378629312E+01 -0.28388452080E+02 -0.17887018859E+02  0.34024037883E+02  0.51100000000E-03 0. -1.
         12    1    3    3    0    0  0.46147148026E+01  0.73546692992E+01  0.13801652257E+01  0.87915646651E+01  0.00000000000E+00 0. -1.
</event>
<event>
 7    1  0.3528441E-013  0.5930192E+02  0.7816164E-02  0.1266605E+00
        -11   -1    0    0    0    0  0.00000000000E+00  0.00000000000E+00  0.45593999997E+02  0.45594000000E+02  0.51100000000E-03 0.  1.
         11   -1    0    0    0    0 -0.00000000000E+00 -0.00000000000E+00 -0.45593999997E+02  0.45594000000E+02  0.51100000000E-03 0. -1.
    9900012    2    1    2    0    0 -0.29149506172E+02 -0.89199424850E+00  0.12893128056E+02  0.59301919731E+02  0.49999955689E+02 0.  0.
        -12    1    1    2    0    0  0.29149506172E+02  0.89199424850E+00 -0.12893128056E+02  0.31886080269E+02  0.00000000000E+00 0.  1.
         11    1    3    3    0    0 -0.68750427188E+01  0.15304139512E+02  0.16143837700E+01  0.16854943898E+02  0.51100000000E-03 0.  1.
        -11    1    3    3    0    0  0.17166981351E+01 -0.43942560187E+01 -0.81358981690E+01  0.94047529326E+01  0.51100000000E-03 0. -1.
        -12    1    3    3    0    0 -0.23991161589E+02 -0.11801877741E+02  0.19414642455E+02  0.33042222901E+02  0.00000000000E+00 0.  1.
</event>
<event>
 7    1  0.3528441E-013  0.5930195E+02  0.7816164E-02  0.1266605E+00
        -11   -1    0    0    0    0  0.00000000000E+00  0.00000000000E+00  0.45593999997E+02  0.45594000000E+02  0.51100000000E-03 0.  1.
         11   -1    0    0    0    0 -0.00000000000E+00 -0.00000000000E+00 -0.45593999997E+02  0.45594000000E+02  0.51100000000E-03 0. -1.
    9900012    2    1    2    0    0 -0.12138585074E+02 -0.29431471415E+02 -0.17785285107E+01  0.59301954135E+02  0.50000018433E+02 0.  0.
        -12    1    1    2    0    0  0.12138585074E+02  0.29431471415E+02  0.17785285107E+01  0.31886045865E+02  0.00000000000E+00 0.  1.
         11    1    3    3    0    0 -0.18872759862E+02 -0.14022359849E+02 -0.68885251347E+01  0.24500192231E+02  0.51100000000E-03 0. -1.
        -11    1    3    3    0    0 -0.87385774002E+01 -0.11659681859E+02 -0.56044566906E+01  0.15611561456E+02  0.51100000000E-03 0.  1.
        -12    1    3    3    0    0  0.15472752188E+02 -0.37494297073E+01  0.10714453315E+02  0.19190200448E+02  0.00000000000E+00 0.  1.
</event>
<event>
 7    1  0.3528441E-013  0.5930195E+02  0.7816164E-02  0.1266605E+00
        -11   -1    0    0    0    0  0.00000000000E+00  0.00000000000E+00  0.45593999997E+02  0.45594000000E+02  0.51100000000E-03 0.  1.
         11   -1    0    0    0    0 -0.00000000000E+00 -0.00000000000E+00 -0.45593999997E+02  0.45594000000E+02  0.51100000000E-03 0. -1.
    9900012    2    1    2    0    0  0.25584684375E+02 -0.14529103198E+02 -0.12290222027E+02  0.59301945497E+02  0.50000002679E+02 0.  0.
        -12    1    1    2    0    0 -0.25584684375E+02  0.14529103198E+02  0.12290222027E+02  0.31886054503E+02  0.00000000000E+00 0.  1.
         11    1    3    3    0    0  0.63226860133E+01 -0.27464603567E+02 -0.15110198014E+02  0.31978100191E+02  0.51100000000E-03 0. -1.
        -11    1    3    3    0    0  0.25037937140E+01 -0.29931552373E+01 -0.61190502196E+00  0.39499859814E+01  0.51100000000E-03 0.  1.
        -12    1    3    3    0    0  0.16758204648E+02  0.15928655606E+02  0.34318810098E+01  0.23373859324E+02  0.00000000000E+00 0.  1.
</event>
<event>
 7    1  0.3528441E-013  0.5930196E+02  0.7816164E-02  0.1266605E+00
        -11   -1    0    0    0    0  0.00000000000E+00  0.00000000000E+00  0.45593999997E+02  0.45594000000E+02  0.51100000000E-03 0. -1.
         11   -1    0    0    0    0 -0.00000000000E+00 -0.00000000000E+00 -0.45593999997E+02  0.45594000000E+02  0.51100000000E-03 0.  1.
    9900012    2    1    2    0    0 -0.29331911660E+02  0.49606257843E+01  0.11478260990E+02  0.59301963477E+02  0.50000035471E+02 0.  0.
        -12    1    1    2    0    0  0.29331911660E+02 -0.49606257843E+01 -0.11478260990E+02  0.31886036523E+02  0.00000000000E+00 0.  1.
         11    1    3    3    0    0  0.33020241876E+01  0.58171010763E+01  0.22293887618E+01  0.70506881352E+01  0.51100000000E-03 0. -1.
        -11    1    3    3    0    0  0.42119212594E+01  0.11427010464E+02 -0.56333399499E+00  0.12191562422E+02  0.51100000000E-03 0.  1.
        -12    1    3    3    0    0 -0.36845857107E+02 -0.12283485756E+02  0.98122062236E+01  0.40059712920E+02  0.00000000000E+00 0.  1.
</event>
<event>
 7    1  0.3528441E-013  0.5930195E+02  0.7816164E-02  0.1266605E+00
        -11   -1    0    0    0    0  0.00000000000E+00  0.00000000000E+00  0.45593999997E+02  0.45594000000E+02  0.51100000000E-03 0.  1.
         11   -1    0    0    0    0 -0.00000000000E+00 -0.00000000000E+00 -0.45593999997E+02  0.45594000000E+02  0.51100000000E-03 0. -1.
    9900012    2    1    2    0    0 -0.45384130260E+01 -0.15178975916E+02 -0.27671680377E+02  0.59301946661E+02  0.50000004802E+02 0.  0.
        -12    1    1    2    0    0  0.45384130260E+01  0.15178975916E+02  0.27671680377E+02  0.31886053339E+02  0.00000000000E+00 0.  1.
         11    1    3    3    0    0 -0.10032524251E+02 -0.18929166127E+02 -0.13355179204E+02  0.25245310158E+02  0.51100000000E-03 0. -1.
        -11    1    3    3    0    0 -0.69827353609E+01  0.53257943091E+01 -0.18764028475E+02  0.20717418830E+02  0.51100000000E-03 0.  1.
        -12    1    3    3    0    0  0.12476846586E+02 -0.15756040982E+01  0.44475273015E+01  0.13339217672E+02  0.00000000000E+00 0.  1.
</event>
<event>
 7    1  0.3528441E-013  0.5930192E+02  0.7816164E-02  0.1266605E+00
        -11   -1    0    0    0    0  0.00000000000E+00  0.00000000000E+00  0.45593999997E+02  0.45594000000E+02  0.51100000000E-03 0.  1.
         11   -1    0    0    0    0 -0.00000000000E+00 -0.00000000000E+00 -0.45593999997E+02  0.45594000000E+02  0.51100000000E-03 0. -1.
    9900012    2    1    2    0    0  0.16564869719E+02 -0.83590090466E+01 -0.25931726304E+02  0.59301915729E+02  0.49999948390E+02 0.  0.
        -12    1    1    2    0    0 -0.16564869719E+02  0.83590090466E+01  0.25931726304E+02  0.31886084271E+02  0.00000000000E+00 0.  1.
         11    1    3    3    0    0  0.10380984791E+02  0.11350226942E+01  0.61975087978E+00  0.10461224266E+02  0.51100000000E-03 0. -1.
        -11    1    3    3    0    0  0.11459582348E+02  0.10125074169E+02  0.14569926577E+00  0.15292494338E+02  0.51100000000E-03 0.  1.
         12    1    3    3    0    0 -0.52756974197E+01 -0.19619105910E+02 -0.26697176449E+02  0.33548197125E+02  0.00000000000E+00 0. -1.
</event>
<event>
 7    1  0.3528441E-013  0.5930192E+02  0.7816164E-02  0.1266605E+00
        -11   -1    0    0    0    0  0.00000000000E+00  0.00000000000E+00  0.45593999997E+02  0.45594000000E+02  0.51100000000E-03 0.  1.
         11   -1    0    0    0    0 -0.00000000000E+00 -0.00000000000E+00 -0.45593999997E+02  0.45594000000E+02  0.51100000000E-03 0. -1.
    9900012    2    1    2    0    0 -0.11278693109E+02 -0.14646590803E+02 -0.25980577168E+02  0.59301922625E+02  0.49999960967E+02 0.  0.
        -12    1    1    2    0    0  0.11278693109E+02  0.14646590803E+02  0.25980577168E+02  0.31886077375E+02  0.00000000000E+00 0.  1.
         11    1    3    3    0    0  0.46516479426E+01 -0.61052693223E+01 -0.22581563375E+02  0.23850348987E+02  0.51100000000E-03 0. -1.
        -11    1    3    3    0    0  0.28736366872E+01 -0.66207120788E-01 -0.12558756212E+02  0.12883498323E+02  0.51100000000E-03 0.  1.
        -12    1    3    3    0    0 -0.18803977738E+02 -0.84751143601E+01  0.91597424198E+01  0.22568075314E+02  0.00000000000E+00 0.  1.
</event>
<event>
 7    1  0.3528441E-013  0.5930201E+02  0.7816164E-02  0.1266605E+00
        -11   -1    0    0    0    0  0.00000000000E+00  0.00000000000E+00  0.45593999997E+02  0.45594000000E+02  0.51100000000E-03 0.  1.
         11   -1    0    0    0    0 -0.00000000000E+00 -0.00000000000E+00 -0.45593999997E+02  0.45594000000E+02  0.51100000000E-03 0. -1.
    9900012    2    1    2    0    0  0.17910189972E+01  0.30091718165E+02  0.10392169215E+02  0.59302008842E+02  0.50000118205E+02 0.  0.
        -12    1    1    2    0    0 -0.17910189972E+01 -0.30091718165E+02 -0.10392169215E+02  0.31885991158E+02  0.00000000000E+00 0.  1.
         11    1    3    3    0    0  0.81662930963E+01 -0.10641287839E+02  0.13246756015E+01  0.13478876642E+02  0.51100000000E-03 0. -1.
        -11    1    3    3    0    0  0.23923325906E+01  0.13487882284E+02 -0.41276828901E+01  0.14306781260E+02  0.51100000000E-03 0.  1.
        -12    1    3    3    0    0 -0.87676066897E+01  0.27245123720E+02  0.13195176504E+02  0.31516350940E+02  0.00000000000E+00 0.  1.
</event>
<event>
 7    1  0.3528441E-013  0.5930195E+02  0.7816164E-02  0.1266605E+00
        -11   -1    0    0    0    0  0.00000000000E+00  0.00000000000E+00  0.45593999997E+02  0.45594000000E+02  0.51100000000E-03 0.  1.
         11   -1    0    0    0    0 -0.00000000000E+00 -0.00000000000E+00 -0.45593999997E+02  0.45594000000E+02  0.51100000000E-03 0. -1.
    9900012    2    1    2    0    0  0.44599074527E+01  0.29267959395E+02 -0.11841270555E+02  0.59301954306E+02  0.50000018745E+02 0.  0.
        -12    1    1    2    0    0 -0.44599074527E+01 -0.29267959395E+02  0.11841270555E+02  0.31886045694E+02  0.00000000000E+00 0.  1.
         11    1    3    3    0    0 -0.93212067428E+01  0.56307042804E+01  0.49738790564E+00  0.10901244004E+02  0.51100000000E-03 0. -1.
        -11    1    3    3    0    0 -0.92767115615E+01 -0.21071632989E+01 -0.99373194320E+01  0.13756737706E+02  0.51100000000E-03 0.  1.
         12    1    3    3    0    0  0.23057825757E+02  0.25744418414E+02 -0.24013390284E+01  0.34643972596E+02  0.00000000000E+00 0. -1.
</event>
<event>
 7    1  0.3528441E-013  0.5930196E+02  0.7816164E-02  0.1266605E+00
        -11   -1    0    0    0    0  0.00000000000E+00  0.00000000000E+00  0.45593999997E+02  0.45594000000E+02  0.51100000000E-03 0.  1.
         11   -1    0    0    0    0 -0.00000000000E+00 -0.00000000000E+00 -0.45593999997E+02  0.45594000000E+02  0.51100000000E-03 0. -1.
    9900012    2    1    2    0    0  0.10737542985E+02 -0.29922097891E+02 -0.24683527939E+01  0.59301960154E+02  0.50000029411E+02 0.  0.
        -12    1    1    2    0    0 -0.10737542985E+02  0.29922097891E+02  0.24683527939E+01  0.31886039846E+02  0.00000000000E+00 0.  1.
         11    1    3    3    0    0  0.10539602110E+02 -0.21770939252E+02 -0.54215094168E+01  0.24788097409E+02  0.51100000000E-03 0. -1.
        -11    1    3    3    0    0  0.12031234735E+02 -0.14433065821E+02 -0.43048338329E+01  0.19276814904E+02  0.51100000000E-03 0.  1.
        -12    1    3    3    0    0 -0.11833293861E+02  0.62819071820E+01  0.72579904558E+01  0.15237047841E+02  0.00000000000E+00 0.  1.
</event>
<event>
 7    1  0.3528441E-013  0.5930199E+02  0.7816164E-02  0.1266605E+00
        -11   -1    0    0    0    0  0.00000000000E+00  0.00000000000E+00  0.45593999997E+02  0.45594000000E+02  0.51100000000E-03 0.  1.
         11   -1    0    0    0    0 -0.00000000000E+00 -0.00000000000E+00 -0.45593999997E+02  0.45594000000E+02  0.51100000000E-03 0. -1.
    9900012    2    1    2    0    0 -0.12850469295E+02 -0.16751738945E+02 -0.23894816824E+02  0.59301990689E+02  0.50000085099E+02 0.  0.
        -12    1    1    2    0    0  0.12850469295E+02  0.16751738945E+02  0.23894816824E+02  0.31886009311E+02  0.00000000000E+00 0.  1.
         11    1    3    3    0    0  0.55870732008E+01 -0.11737015704E+02 -0.14007368868E+02  0.19109665289E+02  0.51100000000E-03 0. -1.
        -11    1    3    3    0    0  0.27226261189E+01 -0.13749243456E+02 -0.10138953484E+02  0.17298923857E+02  0.51100000000E-03 0.  1.
         12    1    3    3    0    0 -0.21160168614E+02  0.87345202156E+01  0.25150552838E+00  0.22893401543E+02  0.00000000000E+00 0. -1.
</event>
<event>
 7    1  0.3528441E-013  0.5930196E+02  0.7816164E-02  0.1266605E+00
        -11   -1    0    0    0    0  0.00000000000E+00  0.00000000000E+00  0.45593999997E+02  0.45594000000E+02  0.51100000000E-03 0. -1.
         11   -1    0    0    0    0 -0.00000000000E+00 -0.00000000000E+00 -0.45593999997E+02  0.45594000000E+02  0.51100000000E-03 0.  1.
    9900012    2    1    2    0    0 -0.66405077069E+01 -0.29195929779E+02 -0.10964538942E+02  0.59301956463E+02  0.50000022678E+02 0.  0.
        -12    1    1    2    0    0  0.66405077069E+01  0.29195929779E+02  0.10964538942E+02  0.31886043537E+02  0.00000000000E+00 0.  1.
         11    1    3    3    0    0 -0.32374145341E+01 -0.34414800309E+02 -0.54505835092E+01  0.34993830799E+02  0.51100000000E-03 0. -1.
        -11    1    3    3    0    0  0.23173179153E+01  0.11684460185E+01 -0.13462611909E+02  0.13710475852E+02  0.51100000000E-03 0.  1.
         12    1    3    3    0    0 -0.57204110882E+01  0.40504245118E+01  0.79486564760E+01  0.10597649811E+02  0.00000000000E+00 0. -1.
</event>
<event>
 7    1  0.3528441E-013  0.5930195E+02  0.7816164E-02  0.1266605E+00
        -11   -1    0    0    0    0  0.00000000000E+00  0.00000000000E+00  0.45593999997E+02  0.45594000000E+02  0.51100000000E-03 0. -1.
         11   -1    0    0    0    0 -0.00000000000E+00 -0.00000000000E+00 -0.45593999997E+02  0.45594000000E+02  0.51100000000E-03 0.  1.
    9900012    2    1    2    0    0 -0.21413340376E+02  0.23516737205E+02  0.22698908836E+01  0.59301945376E+02  0.50000002459E+02 0.  0.
        -12    1    1    2    0    0  0.21413340376E+02 -0.23516737205E+02 -0.22698908836E+01  0.31886054624E+02  0.00000000000E+00 0.  1.
         11    1    3    3    0    0 -0.77741547037E+01  0.11309161874E+02 -0.59217057003E+01  0.14946612403E+02  0.51100000000E-03 0. -1.
        -11    1    3    3    0    0  0.44923368742E+01  0.15952873168E+02 -0.91982971766E+01  0.18954786311E+02  0.51100000000E-03 0.  1.
        -12    1    3    3    0    0 -0.18131522547E+02 -0.37452978366E+01  0.17389893761E+02  0.25400546662E+02  0.00000000000E+00 0.  1.
</event>
<event>
 7    1  0.3528441E-013  0.5930193E+02  0.7816164E-02  0.1266605E+00
        -11   -1    0    0    0    0  0.00000000000E+00  0.00000000000E+00  0.45593999997E+02  0.45594000000E+02  0.51100000000E-03 0.  1.
         11   -1    0    0    0    0 -0.00000000000E+00 -0.00000000000E+00 -0.45593999997E+02  0.45594000000E+02  0.51100000000E-03 0. -1.
    9900012    2    1    2    0    0  0.13442306672E+02  0.27014310612E+02 -0.10307906474E+02  0.59301929022E+02  0.49999972634E+02 0.  0.
        -12    1    1    2    0    0 -0.13442306672E+02 -0.27014310612E+02  0.10307906474E+02  0.31886070978E+02  0.00000000000E+00 0.  1.
         11    1    3    3    0    0  0.56245862153E+01  0.28392880573E+02 -0.21913728561E+02  0.36304312926E+02  0.51100000000E-03 0. -1.
        -11    1    3    3    0    0 -0.89912124539E+00  0.62375320980E+01 -0.40734712645E+00  0.63151530172E+01  0.51100000000E-03 0.  1.
        -12    1    3    3    0    0  0.87168417026E+01 -0.76161020587E+01  0.12013169214E+02  0.16682463079E+02  0.00000000000E+00 0.  1.
</event>
<event>
 7    1  0.3528441E-013  0.5930188E+02  0.7816164E-02  0.1266605E+00
        -11   -1    0    0    0    0  0.00000000000E+00  0.00000000000E+00  0.45593999997E+02  0.45594000000E+02  0.51100000000E-03 0. -1.
         11   -1    0    0    0    0 -0.00000000000E+00 -0.00000000000E+00 -0.45593999997E+02  0.45594000000E+02  0.51100000000E-03 0.  1.
    9900012    2    1    2    0    0 -0.29399716711E+02  0.10511443934E+01  0.12299456846E+02  0.59301876279E+02  0.49999876442E+02 0.  0.
        -12    1    1    2    0    0  0.29399716711E+02 -0.10511443934E+01 -0.12299456846E+02  0.31886123721E+02  0.00000000000E+00 0.  1.
         11    1    3    3    0    0 -0.16195976052E+02 -0.38227047768E+01 -0.16851804341E+02  0.23683454602E+02  0.51100000000E-03 0.  1.
        -11    1    3    3    0    0 -0.65869059147E+01 -0.51105334632E+01  0.98728289532E+01  0.12921982573E+02  0.51100000000E-03 0. -1.
        -12    1    3    3    0    0 -0.66168347447E+01  0.99843826333E+01  0.19278432234E+02  0.22696439104E+02  0.00000000000E+00 0.  1.
</event>
<event>
 7    1  0.3528441E-013  0.5930196E+02  0.7816164E-02  0.1266605E+00
        -11   -1    0    0    0    0  0.00000000000E+00  0.00000000000E+00  0.45593999997E+02  0.45594000000E+02  0.51100000000E-03 0. -1.
         11   -1    0    0    0    0 -0.00000000000E+00 -0.00000000000E+00 -0.45593999997E+02  0.45594000000E+02  0.51100000000E-03 0.  1.
    9900012    2    1    2    0    0 -0.25091218854E+02 -0.15665217511E+02  0.11905943748E+02  0.59301956035E+02  0.50000021898E+02 0.  0.
        -12    1    1    2    0    0  0.25091218854E+02  0.15665217511E+02 -0.11905943748E+02  0.31886043965E+02  0.00000000000E+00 0.  1.
         11    1    3    3    0    0 -0.16004073259E+02  0.40777577402E+01 -0.35265740652E+01  0.16887723173E+02  0.51100000000E-03 0. -1.
        -11    1    3    3    0    0 -0.15662654006E+01  0.54757067213E+01  0.15053919698E+02  0.16095249297E+02  0.51100000000E-03 0.  1.
         12    1    3    3    0    0 -0.75208801945E+01 -0.25218681973E+02  0.37859811447E+00  0.26318983564E+02  0.00000000000E+00 0. -1.
</event>
<event>
 7    1  0.3528441E-013  0.5930194E+02  0.7816164E-02  0.1266605E+00
        -11   -1    0    0    0    0  0.00000000000E+00  0.00000000000E+00  0.45593999997E+02  0.45594000000E+02  0.51100000000E-03 0.  1.
         11   -1    0    0    0    0 -0.00000000000E+00 -0.00000000000E+00 -0.45593999997E+02  0.45594000000E+02  0.51100000000E-03 0. -1.
    9900012    2    1    2    0    0 -0.30009754470E+02  0.50769664915E+01  0.95057767123E+01  0.59301941244E+02  0.49999994923E+02 0.  0.
        -12    1    1    2    0    0  0.30009754470E+02 -0.50769664915E+01 -0.95057767123E+01  0.31886058756E+02  0.00000000000E+00 0.  1.
         11    1    3    3    0    0 -0.15462040621E+02  0.94562268849E+01 -0.10710310231E+02  0.21052450513E+02  0.51100000000E-03 0. -1.
        -11    1    3    3    0    0 -0.10645177621E+02  0.11596579220E+02  0.12410767362E+02  0.20045638004E+02  0.51100000000E-03 0.  1.
         12    1    3    3    0    0 -0.39025362274E+01 -0.15975839613E+02  0.78053195811E+01  0.18203852727E+02  0.00000000000E+00 0. -1.
</event>
<event>
 7    1  0.3528441E-013  0.5930195E+02  0.7816164E-02  0.1266605E+00
        -11   -1    0    0    0    0  0.00000000000E+00  0.00000000000E+00  0.45593999997E+02  0.45594000000E+02  0.51100000000E-03 0. -1.
         11   -1    0    0    0    0 -0.00000000000E+00 -0.00000000000E+00 -0.45593999997E+02  0.45594000000E+02  0.51100000000E-03 0.  1.
    9900012    2    1    2    0    0 -0.16711208736E+02 -0.30138952153E+01 -0.26988365717E+02  0.59301953744E+02  0.50000017720E+02 0.  0.
        -12    1    1    2    0    0  0.16711208736E+02  0.30138952153E+01  0.26988365717E+02  0.31886046256E+02  0.00000000000E+00 0.  1.
         11    1    3    3    0    0 -0.31558427379E+01  0.67116359838E+01  0.10324756119E+02  0.12712434470E+02  0.51100000000E-03 0. -1.
        -11    1    3    3    0    0 -0.11520763829E+02  0.44238807043E+01 -0.10497894443E+02  0.16201990855E+02  0.51100000000E-03 0.  1.
        -12    1    3    3    0    0 -0.20346021691E+01 -0.14149411903E+02 -0.26815227394E+02  0.30387528418E+02  0.00000000000E+00 0.  1.
</event>
<event>
 7    1  0.3528441E-013  0.5930187E+02  0.7816164E-02  0.1266605E+00
        -11   -1    0    0    0    0  0.00000000000E+00  0.00000000000E+00  0.45593999997E+02  0.45594000000E+02  0.51100000000E-03 0.  1.
         11   -1    0    0    0    0 -0.00000000000E+00 -0.00000000000E+00 -0.45593999997E+02  0.45594000000E+02  0.51100000000E-03 0. -1.
    9900012    2    1    2    0    0  0.27616806517E+02  0.14610829217E+02  0.63687684289E+01  0.59301865962E+02  0.49999857627E+02 0.  0.
        -12    1    1    2    0    0 -0.27616806517E+02 -0.14610829217E+02 -0.63687684289E+01  0.31886134038E+02  0.00000000000E+00 0.  1.
         11    1    3    3    0    0  0.25467805332E+02  0.18245114088E+02 -0.47985962549E+00  0.31332468176E+02  0.51100000000E-03 0. -1.
        -11    1    3    3    0    0 -0.34101845580E+01 -0.68501025967E+01 -0.84365276678E+01  0.11389831590E+02  0.51100000000E-03 0.  1.
         12    1    3    3    0    0  0.55591857426E+01  0.32158177262E+01  0.15285155722E+02  0.16579566195E+02  0.00000000000E+00 0. -1.
</event>
<event>
 7    1  0.3528441E-013  0.5930195E+02  0.7816164E-02  0.1266605E+00
        -11   -1    0    0    0    0  0.00000000000E+00  0.00000000000E+00  0.45593999997E+02  0.45594000000E+02  0.51100000000E-03 0.  1.
         11   -1    0    0    0    0 -0.00000000000E+00 -0.00000000000E+00 -0.45593999997E+02  0.45594000000E+02  0.51100000000E-03 0. -1.
    9900012    2    1    2    0    0  0.19210854288E+02  0.67414089271E+01 -0.24540104248E+02  0.59301949237E+02  0.50000009500E+02 0.  0.
        -12    1    1    2    0    0 -0.19210854288E+02 -0.67414089271E+01  0.24540104248E+02  0.31886050763E+02  0.00000000000E+00 0.  1.
         11    1    3    3    0    0  0.10791870362E+02 -0.80157410400E+01 -0.10204464397E+02  0.16877430616E+02  0.51100000000E-03 0. -1.
        -11    1    3    3    0    0  0.12600190189E+02 -0.90677395548E+01 -0.34686315185E+01  0.15906605492E+02  0.51100000000E-03 0.  1.
        -12    1    3    3    0    0 -0.41812062627E+01  0.23824889522E+02 -0.10867008333E+02  0.26517913128E+02  0.00000000000E+00 0.  1.
</event>
<event>
 7    1  0.3528441E-013  0.5930195E+02  0.7816164E-02  0.1266605E+00
        -11   -1    0    0    0    0  0.00000000000E+00  0.00000000000E+00  0.45593999997E+02  0.45594000000E+02  0.51100000000E-03 0. -1.
         11   -1    0    0    0    0 -0.00000000000E+00 -0.00000000000E+00 -0.45593999997E+02  0.45594000000E+02  0.51100000000E-03 0.  1.
    9900012    2    1    2    0    0  0.16571972262E+02 -0.27241284900E+02  0.47940662136E-01  0.59301950292E+02  0.50000011425E+02 0.  0.
        -12    1    1    2    0    0 -0.16571972262E+02  0.27241284900E+02 -0.47940662136E-01  0.31886049708E+02  0.00000000000E+00 0.  1.
         11    1    3    3    0    0 -0.11066155099E+02 -0.76665161727E+01 -0.42057817993E+01  0.14104037000E+02  0.51100000000E-03 0. -1.
        -11    1    3    3    0    0  0.13842154996E+02  0.48476552998E+01  0.83090526191E+01  0.16856612131E+02  0.51100000000E-03 0.  1.
         12    1    3    3    0    0  0.13795972364E+02 -0.24422424027E+02 -0.40553301576E+01  0.28341301161E+02  0.00000000000E+00 0. -1.
</event>
<event>
 7    1  0.3528441E-013  0.5930194E+02  0.7816164E-02  0.1266605E+00
        -11   -1    0    0    0    0  0.00000000000E+00  0.00000000000E+00  0.45593999997E+02  0.45594000000E+02  0.51100000000E-03 0.  1.
         11   -1    0    0    0    0 -0.00000000000E+00 -0.00000000000E+00 -0.45593999997E+02  0.45594000000E+02  0.51100000000E-03 0. -1.
    9900012    2    1    2    0    0  0.75488103453E+01 -0.22098778862E+02 -0.21711286996E+02  0.59301944304E+02  0.50000000504E+02 0.  0.
        -12    1    1    2    0    0 -0.75488103453E+01  0.22098778862E+02  0.21711286996E+02  0.31886055696E+02  0.00000000000E+00 0.  1.
         11    1    3    3    0    0 -0.10816479766E+02 -0.18329300136E+01 -0.23614546078E+02  0.26038484090E+02  0.51100000000E-03 0. -1.
        -11    1    3    3    0    0  0.10188433275E+02 -0.31240050990E+01 -0.65137349419E+01  0.12489688691E+02  0.51100000000E-03 0.  1.
        -12    1    3    3    0    0  0.81768568371E+01 -0.17141843750E+02  0.84169940242E+01  0.20773771523E+02  0.00000000000E+00 0.  1.
</event>
<event>
 7    1  0.3528441E-013  0.5930196E+02  0.7816164E-02  0.1266605E+00
        -11   -1    0    0    0    0  0.00000000000E+00  0.00000000000E+00  0.45593999997E+02  0.45594000000E+02  0.51100000000E-03 0.  1.
         11   -1    0    0    0    0 -0.00000000000E+00 -0.00000000000E+00 -0.45593999997E+02  0.45594000000E+02  0.51100000000E-03 0. -1.
    9900012    2    1    2    0    0  0.30404560456E+02  0.56505859660E+01 -0.77687271422E+01  0.59301960113E+02  0.50000029335E+02 0.  0.
        -12    1    1    2    0    0 -0.30404560456E+02 -0.56505859660E+01  0.77687271422E+01  0.31886039887E+02  0.00000000000E+00 0.  1.
         11    1    3    3    0    0  0.45620090555E+01  0.15279828221E+02  0.48197848077E+01  0.16658793562E+02  0.51100000000E-03 0. -1.
        -11    1    3    3    0    0  0.64009409227E+01  0.79428850849E+01 -0.12886519062E+02  0.16435444684E+02  0.51100000000E-03 0.  1.
        -12    1    3    3    0    0  0.19441610478E+02 -0.17572127340E+02  0.29800711217E+00  0.26207721867E+02  0.00000000000E+00 0.  1.
</event>
<event>
 7    1  0.3528441E-013  0.5930196E+02  0.7816164E-02  0.1266605E+00
        -11   -1    0    0    0    0  0.00000000000E+00  0.00000000000E+00  0.45593999997E+02  0.45594000000E+02  0.51100000000E-03 0.  1.
         11   -1    0    0    0    0 -0.00000000000E+00 -0.00000000000E+00 -0.45593999997E+02  0.45594000000E+02  0.51100000000E-03 0. -1.
    9900012    2    1    2    0    0 -0.76263325981E+01 -0.23476399031E+02 -0.20184572883E+02  0.59301964768E+02  0.50000037825E+02 0.  0.
        -12    1    1    2    0    0  0.76263325981E+01  0.23476399031E+02  0.20184572883E+02  0.31886035232E+02  0.00000000000E+00 0.  1.
         11    1    3    3    0    0 -0.33170212403E+01  0.75788165404E+01  0.23761440871E+01  0.86073893281E+01  0.51100000000E-03 0. -1.
        -11    1    3    3    0    0 -0.16565156200E+02 -0.63406679339E+01 -0.74244936558E+01  0.19228405448E+02  0.51100000000E-03 0.  1.
         12    1    3    3    0    0  0.12255844842E+02 -0.24714547637E+02 -0.15136223314E+02  0.31466169992E+02  0.00000000000E+00 0. -1.
</event>
<event>
 7    1  0.3528441E-013  0.5930195E+02  0.7816164E-02  0.1266605E+00
        -11   -1    0    0    0    0  0.00000000000E+00  0.00000000000E+00  0.45593999997E+02  0.45594000000E+02  0.51100000000E-03 0.  1.
         11   -1    0    0    0    0 -0.00000000000E+00 -0.00000000000E+00 -0.45593999997E+02  0.45594000000E+02  0.51100000000E-03 0. -1.
    9900012    2    1    2    0    0  0.12046663036E+02  0.13074046223E+02 -0.26470118841E+02  0.59301953422E+02  0.50000017133E+02 0.  0.
        -12    1    1    2    0    0 -0.12046663036E+02 -0.13074046223E+02  0.26470118841E+02  0.31886046578E+02  0.00000000000E+00 0.  1.
         11    1    3    3    0    0 -0.42560975091E+01 -0.57837057974E+01  0.77672042702E+01  0.10578047135E+02  0.51100000000E-03 0.  1.
        -11    1    3    3    0    0 -0.63556623321E+01  0.39506135678E+01 -0.62431907785E+01  0.97457284284E+01  0.51100000000E-03 0. -1.
         12    1    3    3    0    0  0.22658422877E+02  0.14907138453E+02 -0.27994132332E+02  0.38978177858E+02  0.00000000000E+00 0. -1.
</event>
<event>
 7    1  0.3528441E-013  0.5930192E+02  0.7816164E-02  0.1266605E+00
        -11   -1    0    0    0    0  0.00000000000E+00  0.00000000000E+00  0.45593999997E+02  0.45594000000E+02  0.51100000000E-03 0. -1.
         11   -1    0    0    0    0 -0.00000000000E+00 -0.00000000000E+00 -0.45593999997E+02  0.45594000000E+02  0.51100000000E-03 0.  1.
    9900012    2    1    2    0    0  0.74586951134E+01  0.16728078874E+02  0.26100980466E+02  0.59301922522E+02  0.49999960779E+02 0.  0.
        -12    1    1    2    0    0 -0.74586951134E+01 -0.16728078874E+02 -0.26100980466E+02  0.31886077478E+02  0.00000000000E+00 0.  1.
         11    1    3    3    0    0 -0.57142799889E+01 -0.23990264436E+01  0.27360680349E+01  0.67745400007E+01  0.51100000000E-03 0. -1.
        -11    1    3    3    0    0  0.19275379837E+02 -0.67647105435E+01  0.10819149345E+02  0.23116132233E+02  0.51100000000E-03 0.  1.
        -12    1    3    3    0    0 -0.61024047343E+01  0.25891815861E+02  0.12545763086E+02  0.29411250289E+02  0.00000000000E+00 0.  1.
</event>
<event>
 7    1  0.3528441E-013  0.5930194E+02  0.7816164E-02  0.1266605E+00
        -11   -1    0    0    0    0  0.00000000000E+00  0.00000000000E+00  0.45593999997E+02  0.45594000000E+02  0.51100000000E-03 0.  1.
         11   -1    0    0    0    0 -0.00000000000E+00 -0.00000000000E+00 -0.45593999997E+02  0.45594000000E+02  0.51100000000E-03 0. -1.
    9900012    2    1    2    0    0 -0.53934977833E+00  0.28343746535E+02 -0.14596646922E+02  0.59301937729E+02  0.49999988512E+02 0.  0.
        -12    1    1    2    0    0  0.53934977833E+00 -0.28343746535E+02  0.14596646922E+02  0.31886062271E+02  0.00000000000E+00 0.  1.
         11    1    3    3    0    0 -0.23139963362E+02  0.69634076323E+01 -0.86621925181E+01  0.25670616076E+02  0.51100000000E-03 0. -1.
        -11    1    3    3    0    0  0.12106182916E+02  0.43911216522E+01 -0.43773142684E+01  0.13601562213E+02  0.51100000000E-03 0.  1.
        -12    1    3    3    0    0  0.10494430668E+02  0.16989217250E+02 -0.15571401351E+01  0.20029759440E+02  0.00000000000E+00 0.  1.
</event>
<event>
 7    1  0.3528441E-013  0.5930198E+02  0.7816164E-02  0.1266605E+00
        -11   -1    0    0    0    0  0.00000000000E+00  0.00000000000E+00  0.45593999997E+02  0.45594000000E+02  0.51100000000E-03 0. -1.
         11   -1    0    0    0    0 -0.00000000000E+00 -0.00000000000E+00 -0.45593999997E+02  0.45594000000E+02  0.51100000000E-03 0.  1.
    9900012    2    1    2    0    0  0.99889534437E+01 -0.28682762821E+02  0.97076425379E+01  0.59301978022E+02  0.50000061997E+02 0.  0.
        -12    1    1    2    0    0 -0.99889534437E+01  0.28682762821E+02 -0.97076425379E+01  0.31886021978E+02  0.00000000000E+00 0.  1.
         11    1    3    3    0    0 -0.11964861191E+02 -0.10067388261E+02  0.22410975054E+02  0.27326946643E+02  0.51100000000E-03 0. -1.
        -11    1    3    3    0    0  0.35156542993E+01 -0.54497926791E+01 -0.13134494409E+01  0.66170397530E+01  0.51100000000E-03 0.  1.
        -12    1    3    3    0    0  0.18438160336E+02 -0.13165581881E+02 -0.11389883075E+02  0.25357991626E+02  0.00000000000E+00 0.  1.
</event>
<event>
 7    1  0.3528441E-013  0.5930191E+02  0.7816164E-02  0.1266605E+00
        -11   -1    0    0    0    0  0.00000000000E+00  0.00000000000E+00  0.45593999997E+02  0.45594000000E+02  0.51100000000E-03 0. -1.
         11   -1    0    0    0    0 -0.00000000000E+00 -0.00000000000E+00 -0.45593999997E+02  0.45594000000E+02  0.51100000000E-03 0.  1.
    9900012    2    1    2    0    0  0.12417071193E+02  0.20593111603E+02  0.20939498922E+02  0.59301913416E+02  0.49999944172E+02 0.  0.
        -12    1    1    2    0    0 -0.12417071193E+02 -0.20593111603E+02 -0.20939498922E+02  0.31886086584E+02  0.00000000000E+00 0.  1.
         11    1    3    3    0    0 -0.27051792013E+01  0.81747410371E+01  0.11319945831E+02  0.14222712801E+02  0.51100000000E-03 0. -1.
        -11    1    3    3    0    0  0.28493821511E+02  0.10250590966E+02  0.86774608168E+01  0.31500330251E+02  0.51100000000E-03 0.  1.
         12    1    3    3    0    0 -0.13371571116E+02  0.21677796000E+01  0.94209227383E+00  0.13578870364E+02  0.00000000000E+00 0. -1.
</event>
<event>
 7    1  0.3528441E-013  0.5930192E+02  0.7816164E-02  0.1266605E+00
        -11   -1    0    0    0    0  0.00000000000E+00  0.00000000000E+00  0.45593999997E+02  0.45594000000E+02  0.51100000000E-03 0. -1.
         11   -1    0    0    0    0 -0.00000000000E+00 -0.00000000000E+00 -0.45593999997E+02  0.45594000000E+02  0.51100000000E-03 0.  1.
    9900012    2    1    2    0    0  0.11596085110E+02  0.28858523721E+02 -0.70312606665E+01  0.59301918275E+02  0.49999953033E+02 0.  0.
        -12    1    1    2    0    0 -0.11596085110E+02 -0.28858523721E+02  0.70312606665E+01  0.31886081725E+02  0.00000000000E+00 0.  1.
         11    1    3    3    0    0 -0.68196241687E+00  0.42127584633E+00  0.35908993641E+01  0.36792804434E+01  0.51100000000E-03 0. -1.
        -11    1    3    3    0    0 -0.13879033896E+02  0.29125275279E+01  0.60923289813E+01  0.15434599806E+02  0.51100000000E-03 0.  1.
         12    1    3    3    0    0  0.26157081424E+02  0.25524720347E+02 -0.16714489012E+02  0.40188038025E+02  0.00000000000E+00 0. -1.
</event>
<event>
 7    1  0.3528441E-013  0.5930233E+02  0.7816164E-02  0.1266603E+00
        -11   -1    0    0    0    0  0.00000000000E+00  0.00000000000E+00  0.45593999997E+02  0.45594000000E+02  0.51100000000E-03 0.  1.
         11   -1    0    0    0    0 -0.00000000000E+00 -0.00000000000E+00 -0.45593999997E+02  0.45594000000E+02  0.51100000000E-03 0. -1.
    9900012    2    1    2    0    0  0.14747183178E+01 -0.29367243349E+02 -0.12332330791E+02  0.59302326747E+02  0.50000697984E+02 0.  0.
        -12    1    1    2    0    0 -0.14747183178E+01  0.29367243349E+02  0.12332330791E+02  0.31885673253E+02  0.00000000000E+00 0.  1.
         11    1    3    3    0    0  0.84051470066E+01 -0.21885587482E+02 -0.55797391744E+01  0.24098940332E+02  0.51100000000E-03 0. -1.
        -11    1    3    3    0    0  0.66002988757E+01 -0.16429166309E+02 -0.68424695092E+01  0.18981592138E+02  0.51100000000E-03 0.  1.
        -12    1    3    3    0    0 -0.13530727565E+02  0.89475104417E+01  0.89877892188E-01  0.16221794277E+02  0.00000000000E+00 0.  1.
</event>
<event>
 7    1  0.3528441E-013  0.5930192E+02  0.7816164E-02  0.1266605E+00
        -11   -1    0    0    0    0  0.00000000000E+00  0.00000000000E+00  0.45593999997E+02  0.45594000000E+02  0.51100000000E-03 0.  1.
         11   -1    0    0    0    0 -0.00000000000E+00 -0.00000000000E+00 -0.45593999997E+02  0.45594000000E+02  0.51100000000E-03 0. -1.
    9900012    2    1    2    0    0  0.10362665285E+02 -0.13873805470E+02 -0.26774142354E+02  0.59301921394E+02  0.49999958722E+02 0.  0.
        -12    1    1    2    0    0 -0.10362665285E+02  0.13873805470E+02  0.26774142354E+02  0.31886078606E+02  0.00000000000E+00 0.  1.
         11    1    3    3    0    0  0.86209369854E+01 -0.54626933890E+00  0.41925960073E+01  0.96019178417E+01  0.51100000000E-03 0. -1.
        -11    1    3    3    0    0 -0.14981163315E+02 -0.12907204773E+02 -0.81034253705E+01  0.21370463081E+02  0.51100000000E-03 0.  1.
         12    1    3    3    0    0  0.16722891614E+02 -0.42033135835E+00 -0.22863312991E+02  0.28329540471E+02  0.00000000000E+00 0. -1.
</event>
<event>
 7    1  0.3528441E-013  0.5930209E+02  0.7816164E-02  0.1266604E+00
        -11   -1    0    0    0    0  0.00000000000E+00  0.00000000000E+00  0.45593999997E+02  0.45594000000E+02  0.51100000000E-03 0.  1.
         11   -1    0    0    0    0 -0.00000000000E+00 -0.00000000000E+00 -0.45593999997E+02  0.45594000000E+02  0.51100000000E-03 0. -1.
    9900012    2    1    2    0    0 -0.11558382200E+01 -0.11691064708E+01 -0.31843502575E+02  0.59302087309E+02  0.50000261310E+02 0.  0.
        -12    1    1    2    0    0  0.11558382200E+01  0.11691064708E+01  0.31843502575E+02  0.31885912691E+02  0.00000000000E+00 0.  1.
         11    1    3    3    0    0 -0.76789127404E+01  0.15450398039E+02 -0.98643066564E+01  0.19874230715E+02  0.51100000000E-03 0. -1.
        -11    1    3    3    0    0  0.76183997431E+01 -0.26913950537E+01  0.46744186468E+01  0.93345493693E+01  0.51100000000E-03 0.  1.
         12    1    3    3    0    0 -0.10953252227E+01 -0.13928109456E+02 -0.26653614565E+02  0.30093307225E+02  0.00000000000E+00 0. -1.
</event>
<event>
 7    1  0.3528441E-013  0.5930194E+02  0.7816164E-02  0.1266605E+00
        -11   -1    0    0    0    0  0.00000000000E+00  0.00000000000E+00  0.45593999997E+02  0.45594000000E+02  0.51100000000E-03 0.  1.
         11   -1    0    0    0    0 -0.00000000000E+00 -0.00000000000E+00 -0.45593999997E+02  0.45594000000E+02  0.51100000000E-03 0. -1.
    9900012    2    1    2    0    0  0.10307963098E+02  0.64372371206E+01 -0.29479294186E+02  0.59301938615E+02  0.49999990128E+02 0.  0.
        -12    1    1    2    0    0 -0.10307963098E+02 -0.64372371206E+01  0.29479294186E+02  0.31886061385E+02  0.00000000000E+00 0.  1.
         11    1    3    3    0    0 -0.16839227291E+01 -0.37739571479E+01  0.75961187884E+01  0.86475065320E+01  0.51100000000E-03 0. -1.
        -11    1    3    3    0    0  0.24206736746E+01  0.44180612182E+01  0.50114753909E+01  0.71058997897E+01  0.51100000000E-03 0.  1.
         12    1    3    3    0    0  0.95712121523E+01  0.57931330503E+01 -0.42086888365E+02  0.43548532293E+02  0.00000000000E+00 0. -1.
</event>
<event>
 7    1  0.3528441E-013  0.5930188E+02  0.7816164E-02  0.1266605E+00
        -11   -1    0    0    0    0  0.00000000000E+00  0.00000000000E+00  0.45593999997E+02  0.45594000000E+02  0.51100000000E-03 0.  1.
         11   -1    0    0    0    0 -0.00000000000E+00 -0.00000000000E+00 -0.45593999997E+02  0.45594000000E+02  0.51100000000E-03 0. -1.
    9900012    2    1    2    0    0 -0.13518536832E+02 -0.24218384937E+02 -0.15730350761E+02  0.59301875398E+02  0.49999874836E+02 0.  0.
        -12    1    1    2    0    0  0.13518536832E+02  0.24218384937E+02  0.15730350761E+02  0.31886124602E+02  0.00000000000E+00 0.  1.
         11    1    3    3    0    0 -0.78199204239E+00 -0.15442123554E+02 -0.12925757872E+02  0.20153062007E+02  0.51100000000E-03 0. -1.
        -11    1    3    3    0    0  0.10402836057E+02  0.52793090539E+01 -0.31103750940E+01  0.12073298456E+02  0.51100000000E-03 0.  1.
        -12    1    3    3    0    0 -0.23139380847E+02 -0.14055570437E+02  0.30578220568E+00  0.27075514936E+02  0.00000000000E+00 0.  1.
</event>
<event>
 7    1  0.3528441E-013  0.5930197E+02  0.7816164E-02  0.1266605E+00
        -11   -1    0    0    0    0  0.00000000000E+00  0.00000000000E+00  0.45593999997E+02  0.45594000000E+02  0.51100000000E-03 0. -1.
         11   -1    0    0    0    0 -0.00000000000E+00 -0.00000000000E+00 -0.45593999997E+02  0.45594000000E+02  0.51100000000E-03 0.  1.
    9900012    2    1    2    0    0  0.13617467575E+02 -0.24169345616E+02  0.15720243644E+02  0.59301972482E+02  0.50000051894E+02 0.  0.
        -12    1    1    2    0    0 -0.13617467575E+02  0.24169345616E+02 -0.15720243644E+02  0.31886027518E+02  0.00000000000E+00 0.  1.
         11    1    3    3    0    0  0.12740818680E+02 -0.91958691505E+00  0.12020454648E+02  0.17540394265E+02  0.51100000000E-03 0. -1.
        -11    1    3    3    0    0 -0.21161762110E+00  0.91094673359E+01  0.20639780175E+01  0.93427609773E+01  0.51100000000E-03 0.  1.
         12    1    3    3    0    0  0.10882665153E+01 -0.32359226037E+02  0.16358109784E+01  0.32418817240E+02  0.00000000000E+00 0. -1.
</event>
<event>
 7    1  0.3528441E-013  0.5930193E+02  0.7816164E-02  0.1266605E+00
        -11   -1    0    0    0    0  0.00000000000E+00  0.00000000000E+00  0.45593999997E+02  0.45594000000E+02  0.51100000000E-03 0.  1.
         11   -1    0    0    0    0 -0.00000000000E+00 -0.00000000000E+00 -0.45593999997E+02  0.45594000000E+02  0.51100000000E-03 0. -1.
    9900012    2    1    2    0    0  0.98948954140E+01 -0.19347971066E+02 -0.23333846276E+02  0.59301932170E+02  0.49999978375E+02 0.  0.
        -12    1    1    2    0    0 -0.98948954140E+01  0.19347971066E+02  0.23333846276E+02  0.31886067830E+02  0.00000000000E+00 0.  1.
         11    1    3    3    0    0  0.35822135496E+01 -0.17394472236E+01 -0.32470427331E+01  0.51382114914E+01  0.51100000000E-03 0. -1.
        -11    1    3    3    0    0  0.14459455868E+02  0.10167422723E+02 -0.17866063560E+02  0.25132619764E+02  0.51100000000E-03 0.  1.
        -12    1    3    3    0    0 -0.81467740033E+01 -0.27775946565E+02 -0.22207399827E+01  0.29031100915E+02  0.00000000000E+00 0.  1.
</event>
<event>
 7    1  0.3528441E-013  0.5930202E+02  0.7816164E-02  0.1266605E+00
        -11   -1    0    0    0    0  0.00000000000E+00  0.00000000000E+00  0.45593999997E+02  0.45594000000E+02  0.51100000000E-03 0. -1.
         11   -1    0    0    0    0 -0.00000000000E+00 -0.00000000000E+00 -0.45593999997E+02  0.45594000000E+02  0.51100000000E-03 0.  1.
    9900012    2    1    2    0    0 -0.46020279550E+01 -0.12181306227E+02  0.29105894922E+02  0.59302015588E+02  0.50000130509E+02 0.  0.
        -12    1    1    2    0    0  0.46020279550E+01  0.12181306227E+02 -0.29105894922E+02  0.31885984412E+02  0.00000000000E+00 0.  1.
         11    1    3    3    0    0  0.12190960511E+02  0.85686689300E+01  0.19794901014E+02  0.24776596050E+02  0.51100000000E-03 0. -1.
        -11    1    3    3    0    0 -0.14058194856E+00 -0.43549719411E+01 -0.53794667257E+01  0.69227311378E+01  0.51100000000E-03 0.  1.
         12    1    3    3    0    0 -0.16652406518E+02 -0.16395003216E+02  0.14690460634E+02  0.27602688400E+02  0.00000000000E+00 0. -1.
</event>
<event>
 7    1  0.3528441E-013  0.5930206E+02  0.7816164E-02  0.1266604E+00
        -11   -1    0    0    0    0  0.00000000000E+00  0.00000000000E+00  0.45593999997E+02  0.45594000000E+02  0.51100000000E-03 0.  1.
         11   -1    0    0    0    0 -0.00000000000E+00 -0.00000000000E+00 -0.45593999997E+02  0.45594000000E+02  0.51100000000E-03 0. -1.
    9900012    2    1    2    0    0 -0.30427158108E+02 -0.55625363143E+01  0.77433499300E+01  0.59302059071E+02  0.50000209811E+02 0.  0.
        -12    1    1    2    0    0  0.30427158108E+02  0.55625363143E+01 -0.77433499300E+01  0.31885940929E+02  0.00000000000E+00 0.  1.
         11    1    3    3    0    0 -0.10684744570E+02 -0.96542171530E+01  0.11537409970E+02  0.18452086723E+02  0.51100000000E-03 0. -1.
        -11    1    3    3    0    0  0.39886601476E+01 -0.74337669212E+01  0.82941350448E+01  0.11830594948E+02  0.51100000000E-03 0.  1.
         12    1    3    3    0    0 -0.23731073685E+02  0.11525447760E+02 -0.12088195084E+02  0.29019377401E+02  0.00000000000E+00 0. -1.
</event>
<event>
 7    1  0.3528441E-013  0.5930195E+02  0.7816164E-02  0.1266605E+00
        -11   -1    0    0    0    0  0.00000000000E+00  0.00000000000E+00  0.45593999997E+02  0.45594000000E+02  0.51100000000E-03 0. -1.
         11   -1    0    0    0    0 -0.00000000000E+00 -0.00000000000E+00 -0.45593999997E+02  0.45594000000E+02  0.51100000000E-03 0.  1.
    9900012    2    1    2    0    0 -0.15894532063E+01 -0.28704444843E+02  0.13793072532E+02  0.59301947169E+02  0.50000005730E+02 0.  0.
        -12    1    1    2    0    0  0.15894532063E+01  0.28704444843E+02 -0.13793072532E+02  0.31886052831E+02  0.00000000000E+00 0.  1.
         11    1    3    3    0    0  0.13639018188E+02 -0.18372064037E+02  0.57743582846E+00  0.22888621333E+02  0.51100000000E-03 0. -1.
        -11    1    3    3    0    0  0.51190506009E+01  0.30891559058E+01  0.10239034833E+02  0.11856871334E+02  0.51100000000E-03 0.  1.
        -12    1    3    3    0    0 -0.20347521995E+02 -0.13421536712E+02  0.29766018703E+01  0.24556454502E+02  0.00000000000E+00 0.  1.
</event>
<event>
 7    1  0.3528441E-013  0.5930194E+02  0.7816164E-02  0.1266605E+00
        -11   -1    0    0    0    0  0.00000000000E+00  0.00000000000E+00  0.45593999997E+02  0.45594000000E+02  0.51100000000E-03 0. -1.
         11   -1    0    0    0    0 -0.00000000000E+00 -0.00000000000E+00 -0.45593999997E+02  0.45594000000E+02  0.51100000000E-03 0.  1.
    9900012    2    1    2    0    0  0.22963991225E+01 -0.31442822664E+02  0.47745615356E+01  0.59301937467E+02  0.49999988034E+02 0.  0.
        -12    1    1    2    0    0 -0.22963991225E+01  0.31442822664E+02 -0.47745615356E+01  0.31886062533E+02  0.00000000000E+00 0.  1.
         11    1    3    3    0    0 -0.53336296465E+00 -0.12933745342E+02  0.13627128254E+02  0.18795341692E+02  0.51100000000E-03 0. -1.
        -11    1    3    3    0    0  0.14518896937E+02  0.23150596557E+01  0.85778862835E+00  0.14727310382E+02  0.51100000000E-03 0.  1.
         12    1    3    3    0    0 -0.11689134850E+02 -0.20824136978E+02 -0.97103553463E+01  0.25779285393E+02  0.00000000000E+00 0. -1.
</event>
<event>
 7    1  0.3528441E-013  0.5930197E+02  0.7816164E-02  0.1266605E+00
        -11   -1    0    0    0    0  0.00000000000E+00  0.00000000000E+00  0.45593999997E+02  0.45594000000E+02  0.51100000000E-03 0. -1.
         11   -1    0    0    0    0 -0.00000000000E+00 -0.00000000000E+00 -0.45593999997E+02  0.45594000000E+02  0.51100000000E-03 0.  1.
    9900012    2    1    2    0    0 -0.23551400037E+02 -0.10936468476E+02  0.18505253119E+02  0.59301965763E+02  0.50000039639E+02 0.  0.
        -12    1    1    2    0    0  0.23551400037E+02  0.10936468476E+02 -0.18505253119E+02  0.31886034237E+02  0.00000000000E+00 0.  1.
         11    1    3    3    0    0 -0.10323024833E+02 -0.24068810840E+01  0.26183718265E+02  0.28247920644E+02  0.51100000000E-03 0. -1.
        -11    1    3    3    0    0 -0.17434642069E+02 -0.12218844949E+01  0.26972132168E+01  0.17684306749E+02  0.51100000000E-03 0.  1.
        -12    1    3    3    0    0  0.42062668652E+01 -0.73077028968E+01 -0.10375678364E+02  0.13369738370E+02  0.00000000000E+00 0.  1.
</event>
<event>
 7    1  0.3528441E-013  0.5930194E+02  0.7816164E-02  0.1266605E+00
        -11   -1    0    0    0    0  0.00000000000E+00  0.00000000000E+00  0.45593999997E+02  0.45594000000E+02  0.51100000000E-03 0.  1.
         11   -1    0    0    0    0 -0.00000000000E+00 -0.00000000000E+00 -0.45593999997E+02  0.45594000000E+02  0.51100000000E-03 0. -1.
    9900012    2    1    2    0    0 -0.23573901777E+02  0.45978027813E+01 -0.20972650644E+02  0.59301941754E+02  0.49999995854E+02 0.  0.
        -12    1    1    2    0    0  0.23573901777E+02 -0.45978027813E+01  0.20972650644E+02  0.31886058246E+02  0.00000000000E+00 0.  1.
         11    1    3    3    0    0 -0.15806704378E+02  0.86071256126E+01 -0.25121535299E+02  0.30903495768E+02  0.51100000000E-03 0. -1.
        -11    1    3    3    0    0  0.54903100696E+01  0.81086115756E+01 -0.62871547457E+00  0.98126637440E+01  0.51100000000E-03 0.  1.
        -12    1    3    3    0    0 -0.13257507469E+02 -0.12117934407E+02  0.47776001299E+01  0.18585782243E+02  0.00000000000E+00 0.  1.
</event>
<event>
 7    1  0.3528441E-013  0.5930195E+02  0.7816164E-02  0.1266605E+00
        -11   -1    0    0    0    0  0.00000000000E+00  0.00000000000E+00  0.45593999997E+02  0.45594000000E+02  0.51100000000E-03 0.  1.
         11   -1    0    0    0    0 -0.00000000000E+00 -0.00000000000E+00 -0.45593999997E+02  0.45594000000E+02  0.51100000000E-03 0. -1.
    9900012    2    1    2    0    0  0.88771509028E+01  0.26548543405E+02 -0.15267320014E+02  0.59301952495E+02  0.50000015442E+02 0.  0.
        -12    1    1    2    0    0 -0.88771509028E+01 -0.26548543405E+02  0.15267320014E+02  0.31886047505E+02  0.00000000000E+00 0.  1.
         11    1    3    3    0    0  0.10563896212E+02  0.27434229213E+02 -0.13728078607E+02  0.32445230438E+02  0.51100000000E-03 0. -1.
        -11    1    3    3    0    0  0.12316033646E+02 -0.13017096286E+01  0.16365723047E+01  0.12492297703E+02  0.51100000000E-03 0.  1.
         12    1    3    3    0    0 -0.14002778955E+02  0.41602382140E+00 -0.31758137120E+01  0.14364424354E+02  0.00000000000E+00 0. -1.
</event>
<event>
 7    1  0.3528441E-013  0.5930193E+02  0.7816164E-02  0.1266605E+00
        -11   -1    0    0    0    0  0.00000000000E+00  0.00000000000E+00  0.45593999997E+02  0.45594000000E+02  0.51100000000E-03 0.  1.
         11   -1    0    0    0    0 -0.00000000000E+00 -0.00000000000E+00 -0.45593999997E+02  0.45594000000E+02  0.51100000000E-03 0. -1.
    9900012    2    1    2    0    0 -0.30462021661E+02  0.93992294638E+01 -0.66440447438E+00  0.59301926057E+02  0.49999967225E+02 0.  0.
        -12    1    1    2    0    0  0.30462021661E+02 -0.93992294638E+01  0.66440447438E+00  0.31886073943E+02  0.00000000000E+00 0.  1.
         11    1    3    3    0    0  0.18081366129E+01  0.15769218341E+02  0.11771831127E+02  0.19761417294E+02  0.51100000000E-03 0. -1.
        -11    1    3    3    0    0 -0.53086804859E+01 -0.74162255399E+01 -0.81285664443E+01  0.12217040659E+02  0.51100000000E-03 0.  1.
        -12    1    3    3    0    0 -0.26961477788E+02  0.10462366627E+01 -0.43076691575E+01  0.27323468104E+02  0.00000000000E+00 0.  1.
</event>
<event>
 7    1  0.3528441E-013  0.5930193E+02  0.7816164E-02  0.1266605E+00
        -11   -1    0    0    0    0  0.00000000000E+00  0.00000000000E+00  0.45593999997E+02  0.45594000000E+02  0.51100000000E-03 0. -1.
         11   -1    0    0    0    0 -0.00000000000E+00 -0.00000000000E+00 -0.45593999997E+02  0.45594000000E+02  0.51100000000E-03 0.  1.
    9900012    2    1    2    0    0  0.27322286138E+02  0.10424210894E+02  0.12710221367E+02  0.59301933768E+02  0.49999981288E+02 0.  0.
        -12    1    1    2    0    0 -0.27322286138E+02 -0.10424210894E+02 -0.12710221367E+02  0.31886066232E+02  0.00000000000E+00 0.  1.
         11    1    3    3    0    0  0.20574457706E+02 -0.41866642446E+01  0.11210882483E+02  0.23801688043E+02  0.51100000000E-03 0. -1.
        -11    1    3    3    0    0  0.71007211404E+01  0.15630351575E+02  0.14489755186E+02  0.22465109318E+02  0.51100000000E-03 0.  1.
        -12    1    3    3    0    0 -0.35289270834E+00 -0.10194764359E+01 -0.12990416301E+02  0.13035136407E+02  0.00000000000E+00 0.  1.
</event>
<event>
 7    1  0.3528441E-013  0.5930197E+02  0.7816164E-02  0.1266605E+00
        -11   -1    0    0    0    0  0.00000000000E+00  0.00000000000E+00  0.45593999997E+02  0.45594000000E+02  0.51100000000E-03 0. -1.
         11   -1    0    0    0    0 -0.00000000000E+00 -0.00000000000E+00 -0.45593999997E+02  0.45594000000E+02  0.51100000000E-03 0.  1.
    9900012    2    1    2    0    0 -0.23681439720E+02  0.16935156121E+02 -0.13004192786E+02  0.59301966536E+02  0.50000041050E+02 0.  0.
        -12    1    1    2    0    0  0.23681439720E+02 -0.16935156121E+02  0.13004192786E+02  0.31886033464E+02  0.00000000000E+00 0.  1.
         11    1    3    3    0    0  0.24760048015E+01  0.75529378255E+01  0.87345021710E+01  0.11809699319E+02  0.51100000000E-03 0. -1.
        -11    1    3    3    0    0 -0.19720287779E+02  0.17136415354E+02 -0.31070977433E+01  0.26309704254E+02  0.51100000000E-03 0.  1.
        -12    1    3    3    0    0 -0.64371567417E+01 -0.77541970587E+01 -0.18631597214E+02  0.21182562963E+02  0.00000000000E+00 0.  1.
</event>
<event>
 7    1  0.3528441E-013  0.5930192E+02  0.7816164E-02  0.1266605E+00
        -11   -1    0    0    0    0  0.00000000000E+00  0.00000000000E+00  0.45593999997E+02  0.45594000000E+02  0.51100000000E-03 0. -1.
         11   -1    0    0    0    0 -0.00000000000E+00 -0.00000000000E+00 -0.45593999997E+02  0.45594000000E+02  0.51100000000E-03 0.  1.
    9900012    2    1    2    0    0  0.57874394223E+01  0.29232769241E+02  0.11343393760E+02  0.59301924127E+02  0.49999963706E+02 0.  0.
        -12    1    1    2    0    0 -0.57874394223E+01 -0.29232769241E+02 -0.11343393760E+02  0.31886075873E+02  0.00000000000E+00 0.  1.
         11    1    3    3    0    0  0.94824624787E+01  0.78953641982E+01 -0.11171739659E+02  0.16645168601E+02  0.51100000000E-03 0. -1.
        -11    1    3    3    0    0 -0.19162343391E+01  0.19963512529E+01 -0.68850057198E+01  0.74202881609E+01  0.51100000000E-03 0.  1.
         12    1    3    3    0    0 -0.17787887173E+01  0.19341053790E+02  0.29400139139E+02  0.35236467365E+02  0.00000000000E+00 0. -1.
</event>
<event>
 7    1  0.3528441E-013  0.5930195E+02  0.7816164E-02  0.1266605E+00
        -11   -1    0    0    0    0  0.00000000000E+00  0.00000000000E+00  0.45593999997E+02  0.45594000000E+02  0.51100000000E-03 0.  1.
         11   -1    0    0    0    0 -0.00000000000E+00 -0.00000000000E+00 -0.45593999997E+02  0.45594000000E+02  0.51100000000E-03 0. -1.
    9900012    2    1    2    0    0  0.23093906819E+01 -0.25914243709E+02 -0.18434712796E+02  0.59301953706E+02  0.50000017652E+02 0.  0.
        -12    1    1    2    0    0 -0.23093906819E+01  0.25914243709E+02  0.18434712796E+02  0.31886046294E+02  0.00000000000E+00 0.  1.
         11    1    3    3    0    0 -0.33004601133E+01  0.72853740379E+01 -0.99690490955E+01  0.12780909669E+02  0.51100000000E-03 0. -1.
        -11    1    3    3    0    0  0.82688166626E+01 -0.36126292380E+01  0.84278696180E+01  0.12347202338E+02  0.51100000000E-03 0.  1.
         12    1    3    3    0    0 -0.26589658675E+01 -0.29586988509E+02 -0.16893533319E+02  0.34173841700E+02  0.00000000000E+00 0. -1.
</event>
