<event>
 7    1  0.3331850E-011  0.5052885E+02  0.7816164E-02  0.1300439E+00
        -11   -1    0    0    0    0  0.00000000000E+00  0.00000000000E+00  0.45593999997E+02  0.45594000000E+02  0.51100000000E-03 0.  1.
         11   -1    0    0    0    0 -0.00000000000E+00 -0.00000000000E+00 -0.45593999997E+02  0.45594000000E+02  0.51100000000E-03 0. -1.
    9900012    2    1    2    0    0  0.27288016807E+02 -0.21573552332E+02  0.21050233534E+02  0.50528851542E+02  0.29999974748E+02 0.  0.
         12    1    1    2    0    0 -0.27288016807E+02  0.21573552332E+02 -0.21050233534E+02  0.40659148458E+02  0.00000000000E+00 0. -1.
         11    1    3    3    0    0  0.16426918554E+01 -0.84335516382E+01 -0.18818379664E+01  0.87957116914E+01  0.51100000000E-03 0. -1.
        -11    1    3    3    0    0 -0.30138041469E+00  0.96950302927E+00 -0.25374736106E+01  0.27330457120E+01  0.51100000000E-03 0.  1.
        -12    1    3    3    0    0  0.25946705366E+02 -0.14109503723E+02  0.25469545111E+02  0.39000094139E+02  0.00000000000E+00 0.  1.
</event>
<event>
 7    1  0.3331850E-011  0.5052889E+02  0.7816164E-02  0.1300439E+00
        -11   -1    0    0    0    0  0.00000000000E+00  0.00000000000E+00  0.45593999997E+02  0.45594000000E+02  0.51100000000E-03 0.  1.
         11   -1    0    0    0    0 -0.00000000000E+00 -0.00000000000E+00 -0.45593999997E+02  0.45594000000E+02  0.51100000000E-03 0. -1.
    9900012    2    1    2    0    0 -0.36777937660E+02  0.75558112694E+01  0.15603078923E+02  0.50528892111E+02  0.30000098061E+02 0.  0.
         12    1    1    2    0    0  0.36777937660E+02 -0.75558112694E+01 -0.15603078923E+02  0.40659107889E+02  0.00000000000E+00 0. -1.
         11    1    3    3    0    0 -0.11313212934E+02  0.16199588065E+01 -0.47531498235E+01  0.12377620407E+02  0.51100000000E-03 0. -1.
        -11    1    3    3    0    0 -0.92139892932E+01  0.39739262039E+01 -0.22086216602E+01  0.10274614254E+02  0.51100000000E-03 0.  1.
        -12    1    3    3    0    0 -0.16250735432E+02  0.19619262590E+01  0.22564850407E+02  0.27876657450E+02  0.00000000000E+00 0.  1.
</event>
<event>
 7    1  0.3331850E-011  0.5052889E+02  0.7816164E-02  0.1300439E+00
        -11   -1    0    0    0    0  0.00000000000E+00  0.00000000000E+00  0.45593999997E+02  0.45594000000E+02  0.51100000000E-03 0.  1.
         11   -1    0    0    0    0 -0.00000000000E+00 -0.00000000000E+00 -0.45593999997E+02  0.45594000000E+02  0.51100000000E-03 0. -1.
    9900012    2    1    2    0    0 -0.22257897329E+02 -0.32856571207E+02  0.88427794127E+01  0.50528892623E+02  0.30000099616E+02 0.  0.
         12    1    1    2    0    0  0.22257897329E+02  0.32856571207E+02 -0.88427794127E+01  0.40659107377E+02  0.00000000000E+00 0. -1.
         11    1    3    3    0    0 -0.80850116175E+01 -0.16238716444E+02  0.14458742266E+02  0.23197382455E+02  0.51100000000E-03 0.  1.
        -11    1    3    3    0    0 -0.14714198200E+02 -0.19143696036E+02 -0.53821969124E+01  0.24737760013E+02  0.51100000000E-03 0. -1.
         12    1    3    3    0    0  0.54131248829E+00  0.25258412735E+01 -0.23376594057E+00  0.25937501545E+01  0.00000000000E+00 0. -1.
</event>
<event>
 7    1  0.3331850E-011  0.5052886E+02  0.7816164E-02  0.1300439E+00
        -11   -1    0    0    0    0  0.00000000000E+00  0.00000000000E+00  0.45593999997E+02  0.45594000000E+02  0.51100000000E-03 0.  1.
         11   -1    0    0    0    0 -0.00000000000E+00 -0.00000000000E+00 -0.45593999997E+02  0.45594000000E+02  0.51100000000E-03 0. -1.
    9900012    2    1    2    0    0  0.58418603336E+01 -0.37729327232E+02 -0.13983440403E+02  0.50528855013E+02  0.29999985298E+02 0.  0.
         12    1    1    2    0    0 -0.58418603336E+01  0.37729327232E+02  0.13983440403E+02  0.40659144987E+02  0.00000000000E+00 0. -1.
         11    1    3    3    0    0  0.26593716801E+01 -0.50370729243E+01 -0.46660133754E+01  0.73631543823E+01  0.51100000000E-03 0. -1.
        -11    1    3    3    0    0  0.56378101863E+01 -0.44282236899E+01 -0.12710704835E+02  0.14593014987E+02  0.51100000000E-03 0.  1.
        -12    1    3    3    0    0 -0.24553215328E+01 -0.28264030618E+02  0.33932778073E+01  0.28572685644E+02  0.00000000000E+00 0.  1.
</event>
<event>
 7    1  0.3331850E-011  0.5052885E+02  0.7816164E-02  0.1300439E+00
        -11   -1    0    0    0    0  0.00000000000E+00  0.00000000000E+00  0.45593999997E+02  0.45594000000E+02  0.51100000000E-03 0.  1.
         11   -1    0    0    0    0 -0.00000000000E+00 -0.00000000000E+00 -0.45593999997E+02  0.45594000000E+02  0.51100000000E-03 0. -1.
    9900012    2    1    2    0    0  0.29763015705E+02 -0.41216851586E+01  0.27392356068E+02  0.50528848959E+02  0.29999966896E+02 0.  0.
         12    1    1    2    0    0 -0.29763015705E+02  0.41216851586E+01 -0.27392356068E+02  0.40659151041E+02  0.00000000000E+00 0. -1.
         11    1    3    3    0    0  0.10099158180E+02 -0.86689674654E+01  0.45689907566E+01  0.14071946193E+02  0.51100000000E-03 0. -1.
        -11    1    3    3    0    0  0.14970413527E+02 -0.29641502767E+01  0.22994621284E+02  0.27598044791E+02  0.51100000000E-03 0.  1.
         12    1    3    3    0    0  0.46934439976E+01  0.75114325835E+01 -0.17125597234E+00  0.88588579751E+01  0.00000000000E+00 0. -1.
</event>
<event>
 7    1  0.3331850E-011  0.5052888E+02  0.7816164E-02  0.1300439E+00
        -11   -1    0    0    0    0  0.00000000000E+00  0.00000000000E+00  0.45593999997E+02  0.45594000000E+02  0.51100000000E-03 0. -1.
         11   -1    0    0    0    0 -0.00000000000E+00 -0.00000000000E+00 -0.45593999997E+02  0.45594000000E+02  0.51100000000E-03 0.  1.
    9900012    2    1    2    0    0 -0.27833726256E+02  0.69395771813E+00 -0.29630498915E+02  0.50528876048E+02  0.30000049234E+02 0.  0.
         12    1    1    2    0    0  0.27833726256E+02 -0.69395771813E+00  0.29630498915E+02  0.40659123952E+02  0.00000000000E+00 0. -1.
         11    1    3    3    0    0 -0.15534819601E+01 -0.17270740579E+01  0.12527534728E+01  0.26392200603E+01  0.51100000000E-03 0. -1.
        -11    1    3    3    0    0 -0.15512989393E+02 -0.11221211179E+02 -0.17723206028E+02  0.26089853438E+02  0.51100000000E-03 0.  1.
        -12    1    3    3    0    0 -0.10767254903E+02  0.13642242955E+02 -0.13160046359E+02  0.21799802549E+02  0.00000000000E+00 0.  1.
</event>
<event>
 7    1  0.3331850E-011  0.5052886E+02  0.7816164E-02  0.1300439E+00
        -11   -1    0    0    0    0  0.00000000000E+00  0.00000000000E+00  0.45593999997E+02  0.45594000000E+02  0.51100000000E-03 0.  1.
         11   -1    0    0    0    0 -0.00000000000E+00 -0.00000000000E+00 -0.45593999997E+02  0.45594000000E+02  0.51100000000E-03 0. -1.
    9900012    2    1    2    0    0 -0.16166926562E+02  0.71669579473E+01  0.36611895929E+02  0.50528859279E+02  0.29999998263E+02 0.  0.
         12    1    1    2    0    0  0.16166926562E+02 -0.71669579473E+01 -0.36611895929E+02  0.40659140721E+02  0.00000000000E+00 0. -1.
         11    1    3    3    0    0 -0.99463668045E+01  0.97166465071E+01  0.16239869657E+02  0.21379354497E+02  0.51100000000E-03 0. -1.
        -11    1    3    3    0    0  0.62864851345E+01 -0.11676147339E+00  0.12970765577E+02  0.14414377840E+02  0.51100000000E-03 0.  1.
         12    1    3    3    0    0 -0.12507044892E+02 -0.24329270865E+01  0.74012606950E+01  0.14735126942E+02  0.00000000000E+00 0. -1.
</event>
<event>
 7    1  0.3331850E-011  0.5052886E+02  0.7816164E-02  0.1300439E+00
        -11   -1    0    0    0    0  0.00000000000E+00  0.00000000000E+00  0.45593999997E+02  0.45594000000E+02  0.51100000000E-03 0. -1.
         11   -1    0    0    0    0 -0.00000000000E+00 -0.00000000000E+00 -0.45593999997E+02  0.45594000000E+02  0.51100000000E-03 0.  1.
    9900012    2    1    2    0    0  0.11987630108E+01  0.25264893121E+02 -0.31834165557E+02  0.50528856454E+02  0.29999989677E+02 0.  0.
         12    1    1    2    0    0 -0.11987630108E+01 -0.25264893121E+02  0.31834165557E+02  0.40659143546E+02  0.00000000000E+00 0. -1.
         11    1    3    3    0    0  0.57235206947E+00  0.10039576627E+02  0.60611374228E+00  0.10074128244E+02  0.51100000000E-03 0. -1.
        -11    1    3    3    0    0 -0.20763076164E+01  0.91932740465E+01 -0.24408765989E+01  0.97357701208E+01  0.51100000000E-03 0.  1.
         12    1    3    3    0    0  0.27027185578E+01  0.60320424480E+01 -0.29999402701E+02  0.30718958089E+02  0.00000000000E+00 0. -1.
</event>
<event>
 7    1  0.3331850E-011  0.5052886E+02  0.7816164E-02  0.1300439E+00
        -11   -1    0    0    0    0  0.00000000000E+00  0.00000000000E+00  0.45593999997E+02  0.45594000000E+02  0.51100000000E-03 0. -1.
         11   -1    0    0    0    0 -0.00000000000E+00 -0.00000000000E+00 -0.45593999997E+02  0.45594000000E+02  0.51100000000E-03 0.  1.
    9900012    2    1    2    0    0 -0.23778734883E+02 -0.10555346616E+02 -0.31246152878E+02  0.50528860259E+02  0.30000001242E+02 0.  0.
         12    1    1    2    0    0  0.23778734883E+02  0.10555346616E+02  0.31246152878E+02  0.40659139741E+02  0.00000000000E+00 0. -1.
         11    1    3    3    0    0  0.30871293506E+00 -0.25313929610E+01 -0.20686056918E+01  0.32836540270E+01  0.51100000000E-03 0. -1.
        -11    1    3    3    0    0 -0.19836148720E+02 -0.70295533430E+01 -0.34468636276E+02  0.40385322869E+02  0.51100000000E-03 0.  1.
        -12    1    3    3    0    0 -0.42512990978E+01 -0.99440031165E+00  0.52910890895E+01  0.68598833628E+01  0.00000000000E+00 0.  1.
</event>
<event>
 7    1  0.3331850E-011  0.5052885E+02  0.7816164E-02  0.1300439E+00
        -11   -1    0    0    0    0  0.00000000000E+00  0.00000000000E+00  0.45593999997E+02  0.45594000000E+02  0.51100000000E-03 0.  1.
         11   -1    0    0    0    0 -0.00000000000E+00 -0.00000000000E+00 -0.45593999997E+02  0.45594000000E+02  0.51100000000E-03 0. -1.
    9900012    2    1    2    0    0 -0.29894767351E+02  0.25265392382E+02  0.11005858923E+02  0.50528854684E+02  0.29999984297E+02 0.  0.
         12    1    1    2    0    0  0.29894767351E+02 -0.25265392382E+02 -0.11005858923E+02  0.40659145316E+02  0.00000000000E+00 0. -1.
         11    1    3    3    0    0 -0.10150805998E+02 -0.50727577398E+01  0.32869476361E+01  0.11814218490E+02  0.51100000000E-03 0. -1.
        -11    1    3    3    0    0 -0.59917444213E+01  0.96844641145E+01 -0.28577626069E+01  0.11741237319E+02  0.51100000000E-03 0.  1.
        -12    1    3    3    0    0 -0.13752216932E+02  0.20653686008E+02  0.10576673894E+02  0.26973398876E+02  0.00000000000E+00 0.  1.
</event>
<event>
 7    1  0.3331850E-011  0.5052886E+02  0.7816164E-02  0.1300439E+00
        -11   -1    0    0    0    0  0.00000000000E+00  0.00000000000E+00  0.45593999997E+02  0.45594000000E+02  0.51100000000E-03 0.  1.
         11   -1    0    0    0    0 -0.00000000000E+00 -0.00000000000E+00 -0.45593999997E+02  0.45594000000E+02  0.51100000000E-03 0. -1.
    9900012    2    1    2    0    0  0.13435022835E+02  0.66252319457E+01  0.37799100286E+02  0.50528861798E+02  0.30000005921E+02 0.  0.
         12    1    1    2    0    0 -0.13435022835E+02 -0.66252319457E+01 -0.37799100286E+02  0.40659138202E+02  0.00000000000E+00 0. -1.
         11    1    3    3    0    0  0.38287486517E+01 -0.59409565083E+00 -0.22546466524E+01  0.44828225114E+01  0.51100000000E-03 0. -1.
        -11    1    3    3    0    0  0.31216631803E+01 -0.62209607547E+01  0.74839493547E+01  0.10220304884E+02  0.51100000000E-03 0.  1.
        -12    1    3    3    0    0  0.64846110025E+01  0.13440288351E+02  0.32569797584E+02  0.35825734402E+02  0.00000000000E+00 0.  1.
</event>
<event>
 7    1  0.3331850E-011  0.5052886E+02  0.7816164E-02  0.1300439E+00
        -11   -1    0    0    0    0  0.00000000000E+00  0.00000000000E+00  0.45593999997E+02  0.45594000000E+02  0.51100000000E-03 0.  1.
         11   -1    0    0    0    0 -0.00000000000E+00 -0.00000000000E+00 -0.45593999997E+02  0.45594000000E+02  0.51100000000E-03 0. -1.
    9900012    2    1    2    0    0 -0.16477761478E+02  0.58175733050E-01  0.37170493619E+02  0.50528860761E+02  0.30000002770E+02 0.  0.
         12    1    1    2    0    0  0.16477761478E+02 -0.58175733050E-01 -0.37170493619E+02  0.40659139239E+02  0.00000000000E+00 0. -1.
         11    1    3    3    0    0 -0.83066829046E+01  0.62386261401E+01  0.43182960062E+01  0.11250294114E+02  0.51100000000E-03 0. -1.
        -11    1    3    3    0    0  0.51148247038E+01 -0.32629699449E+01  0.36926644249E+01  0.71024063125E+01  0.51100000000E-03 0.  1.
        -12    1    3    3    0    0 -0.13285903277E+02 -0.29174804622E+01  0.29159533188E+02  0.32176160335E+02  0.00000000000E+00 0.  1.
</event>
<event>
 7    1  0.3331850E-011  0.5052887E+02  0.7816164E-02  0.1300439E+00
        -11   -1    0    0    0    0  0.00000000000E+00  0.00000000000E+00  0.45593999997E+02  0.45594000000E+02  0.51100000000E-03 0.  1.
         11   -1    0    0    0    0 -0.00000000000E+00 -0.00000000000E+00 -0.45593999997E+02  0.45594000000E+02  0.51100000000E-03 0. -1.
    9900012    2    1    2    0    0 -0.49982712435E+01 -0.33441171008E+02  0.22580314910E+02  0.50528865045E+02  0.30000015792E+02 0.  0.
         12    1    1    2    0    0  0.49982712435E+01  0.33441171008E+02 -0.22580314910E+02  0.40659134955E+02  0.00000000000E+00 0. -1.
         11    1    3    3    0    0  0.58792055401E+01 -0.12228500624E+02  0.47409786712E+01  0.14372827290E+02  0.51100000000E-03 0. -1.
        -11    1    3    3    0    0  0.45660213695E+01 -0.51963292193E+01  0.10789783460E+02  0.12816778686E+02  0.51100000000E-03 0.  1.
        -12    1    3    3    0    0 -0.15443498153E+02 -0.16016341165E+02  0.70495527780E+01  0.23339259069E+02  0.00000000000E+00 0.  1.
</event>
<event>
 7    1  0.3331850E-011  0.5052886E+02  0.7816164E-02  0.1300439E+00
        -11   -1    0    0    0    0  0.00000000000E+00  0.00000000000E+00  0.45593999997E+02  0.45594000000E+02  0.51100000000E-03 0.  1.
         11   -1    0    0    0    0 -0.00000000000E+00 -0.00000000000E+00 -0.45593999997E+02  0.45594000000E+02  0.51100000000E-03 0. -1.
    9900012    2    1    2    0    0 -0.26809565243E+02 -0.29231785011E+02 -0.89395426395E+01  0.50528862453E+02  0.30000007913E+02 0.  0.
         12    1    1    2    0    0  0.26809565243E+02  0.29231785011E+02  0.89395426395E+01  0.40659137547E+02  0.00000000000E+00 0. -1.
         11    1    3    3    0    0  0.33407937460E+01 -0.15579953557E+01  0.34353821128E+01  0.50388592860E+01  0.51100000000E-03 0.  1.
        -11    1    3    3    0    0 -0.15463495013E+02 -0.40975249083E+01 -0.44090081722E+01  0.16593635579E+02  0.51100000000E-03 0. -1.
        -12    1    3    3    0    0 -0.14686863976E+02 -0.23576264747E+02 -0.79659165802E+01  0.28896367589E+02  0.00000000000E+00 0.  1.
</event>
<event>
 7    1  0.3331850E-011  0.5052885E+02  0.7816164E-02  0.1300439E+00
        -11   -1    0    0    0    0  0.00000000000E+00  0.00000000000E+00  0.45593999997E+02  0.45594000000E+02  0.51100000000E-03 0.  1.
         11   -1    0    0    0    0 -0.00000000000E+00 -0.00000000000E+00 -0.45593999997E+02  0.45594000000E+02  0.51100000000E-03 0. -1.
    9900012    2    1    2    0    0 -0.18078566546E+02 -0.35249647717E+02  0.91539179627E+01  0.50528850395E+02  0.29999971261E+02 0.  0.
         12    1    1    2    0    0  0.18078566546E+02  0.35249647717E+02 -0.91539179627E+01  0.40659149605E+02  0.00000000000E+00 0. -1.
         11    1    3    3    0    0  0.13863836799E+00 -0.55568785445E+01  0.12511459276E+02  0.13690680524E+02  0.51100000000E-03 0. -1.
        -11    1    3    3    0    0 -0.15867843282E+02 -0.15326359813E+02 -0.93521995819E+00  0.22080769737E+02  0.51100000000E-03 0.  1.
        -12    1    3    3    0    0 -0.23493616321E+01 -0.14366409359E+02 -0.24223213547E+01  0.14757400134E+02  0.00000000000E+00 0.  1.
</event>
<event>
 7    1  0.3331850E-011  0.5052886E+02  0.7816164E-02  0.1300439E+00
        -11   -1    0    0    0    0  0.00000000000E+00  0.00000000000E+00  0.45593999997E+02  0.45594000000E+02  0.51100000000E-03 0.  1.
         11   -1    0    0    0    0 -0.00000000000E+00 -0.00000000000E+00 -0.45593999997E+02  0.45594000000E+02  0.51100000000E-03 0. -1.
    9900012    2    1    2    0    0  0.11461435252E+02  0.18706701279E+02  0.34232450438E+02  0.50528857931E+02  0.29999994168E+02 0.  0.
         12    1    1    2    0    0 -0.11461435252E+02 -0.18706701279E+02 -0.34232450438E+02  0.40659142069E+02  0.00000000000E+00 0. -1.
         11    1    3    3    0    0 -0.47418959558E+01  0.15249983645E+01  0.21024108327E+01  0.54066004881E+01  0.51100000000E-03 0. -1.
        -11    1    3    3    0    0  0.49303456979E+01  0.76959127703E+01  0.28526617078E+02  0.29955020685E+02  0.51100000000E-03 0.  1.
        -12    1    3    3    0    0  0.11272985510E+02  0.94857901443E+01  0.36034225271E+01  0.15167236758E+02  0.00000000000E+00 0.  1.
</event>
<event>
 7    1  0.3331850E-011  0.5052886E+02  0.7816164E-02  0.1300439E+00
        -11   -1    0    0    0    0  0.00000000000E+00  0.00000000000E+00  0.45593999997E+02  0.45594000000E+02  0.51100000000E-03 0.  1.
         11   -1    0    0    0    0 -0.00000000000E+00 -0.00000000000E+00 -0.45593999997E+02  0.45594000000E+02  0.51100000000E-03 0. -1.
    9900012    2    1    2    0    0  0.23715983143E+02 -0.12897236415E+02  0.30403599860E+02  0.50528862675E+02  0.30000008588E+02 0.  0.
         12    1    1    2    0    0 -0.23715983143E+02  0.12897236415E+02 -0.30403599860E+02  0.40659137325E+02  0.00000000000E+00 0. -1.
         11    1    3    3    0    0  0.16949320206E+02 -0.88732090231E+01  0.12820085039E+02  0.23029717203E+02  0.51100000000E-03 0.  1.
        -11    1    3    3    0    0 -0.25117573494E+01 -0.16897676584E+01 -0.33304177398E+01  0.45006579857E+01  0.51100000000E-03 0. -1.
         12    1    3    3    0    0  0.92784202865E+01 -0.23342597334E+01  0.20913932561E+02  0.22998487486E+02  0.00000000000E+00 0. -1.
</event>
<event>
 7    1  0.3331850E-011  0.5052889E+02  0.7816164E-02  0.1300439E+00
        -11   -1    0    0    0    0  0.00000000000E+00  0.00000000000E+00  0.45593999997E+02  0.45594000000E+02  0.51100000000E-03 0.  1.
         11   -1    0    0    0    0 -0.00000000000E+00 -0.00000000000E+00 -0.45593999997E+02  0.45594000000E+02  0.51100000000E-03 0. -1.
    9900012    2    1    2    0    0  0.27287818301E+02  0.12056659886E+02  0.27625631420E+02  0.50528885565E+02  0.30000078165E+02 0.  0.
         12    1    1    2    0    0 -0.27287818301E+02 -0.12056659886E+02 -0.27625631420E+02  0.40659114435E+02  0.00000000000E+00 0. -1.
         11    1    3    3    0    0  0.11550742482E+02  0.55601659125E+01  0.16350406622E+02  0.20776691118E+02  0.51100000000E-03 0. -1.
        -11    1    3    3    0    0  0.14696413020E+02  0.33739184276E+00  0.16142788533E+02  0.21833185997E+02  0.51100000000E-03 0.  1.
         12    1    3    3    0    0  0.10406627991E+01  0.61591021310E+01 -0.48675637347E+01  0.79190084501E+01  0.00000000000E+00 0. -1.
</event>
<event>
 7    1  0.3331850E-011  0.5052885E+02  0.7816164E-02  0.1300439E+00
        -11   -1    0    0    0    0  0.00000000000E+00  0.00000000000E+00  0.45593999997E+02  0.45594000000E+02  0.51100000000E-03 0.  1.
         11   -1    0    0    0    0 -0.00000000000E+00 -0.00000000000E+00 -0.45593999997E+02  0.45594000000E+02  0.51100000000E-03 0. -1.
    9900012    2    1    2    0    0 -0.26409356656E+02  0.30248056796E+02 -0.63849292888E+01  0.50528851202E+02  0.29999973714E+02 0.  0.
         12    1    1    2    0    0  0.26409356656E+02 -0.30248056796E+02  0.63849292888E+01  0.40659148798E+02  0.00000000000E+00 0. -1.
         11    1    3    3    0    0 -0.10415428036E+02 -0.20656400263E+01  0.26595028867E+01  0.10946276342E+02  0.51100000000E-03 0. -1.
        -11    1    3    3    0    0 -0.69802428084E+01  0.70574316649E+01  0.27302006575E+01  0.10294907832E+02  0.51100000000E-03 0.  1.
         12    1    3    3    0    0 -0.90136858116E+01  0.25256265158E+02 -0.11774632833E+02  0.29287667029E+02  0.00000000000E+00 0. -1.
</event>
<event>
 7    1  0.3331850E-011  0.5052885E+02  0.7816164E-02  0.1300439E+00
        -11   -1    0    0    0    0  0.00000000000E+00  0.00000000000E+00  0.45593999997E+02  0.45594000000E+02  0.51100000000E-03 0.  1.
         11   -1    0    0    0    0 -0.00000000000E+00 -0.00000000000E+00 -0.45593999997E+02  0.45594000000E+02  0.51100000000E-03 0. -1.
    9900012    2    1    2    0    0  0.32783415044E+02 -0.10135338139E+02  0.21810302568E+02  0.50528847535E+02  0.29999962567E+02 0.  0.
         12    1    1    2    0    0 -0.32783415044E+02  0.10135338139E+02 -0.21810302568E+02  0.40659152465E+02  0.00000000000E+00 0. -1.
         11    1    3    3    0    0 -0.25417952539E+01 -0.18932325507E+00  0.10154303787E+02  0.10469310009E+02  0.51100000000E-03 0.  1.
        -11    1    3    3    0    0  0.42532681704E+00 -0.25573843250E+01  0.23819994887E+00  0.26034317667E+01  0.51100000000E-03 0. -1.
        -12    1    3    3    0    0  0.34899883480E+02 -0.73886305585E+01  0.11417798832E+02  0.37456105759E+02  0.00000000000E+00 0.  1.
</event>
<event>
 7    1  0.3331850E-011  0.5052886E+02  0.7816164E-02  0.1300439E+00
        -11   -1    0    0    0    0  0.00000000000E+00  0.00000000000E+00  0.45593999997E+02  0.45594000000E+02  0.51100000000E-03 0.  1.
         11   -1    0    0    0    0 -0.00000000000E+00 -0.00000000000E+00 -0.45593999997E+02  0.45594000000E+02  0.51100000000E-03 0. -1.
    9900012    2    1    2    0    0  0.54307484875E+01 -0.32425849851E+02  0.23921478844E+02  0.50528856898E+02  0.29999991029E+02 0.  0.
         12    1    1    2    0    0 -0.54307484875E+01  0.32425849851E+02 -0.23921478844E+02  0.40659143102E+02  0.00000000000E+00 0. -1.
         11    1    3    3    0    0  0.81595518737E+01 -0.36745241148E+01 -0.13788846468E+01  0.90543766975E+01  0.51100000000E-03 0. -1.
        -11    1    3    3    0    0 -0.45154896679E+01 -0.15753496536E+02  0.46958056125E+01  0.17047371958E+02  0.51100000000E-03 0.  1.
        -12    1    3    3    0    0  0.17866862818E+01 -0.12997829200E+02  0.20604557878E+02  0.24427108243E+02  0.00000000000E+00 0.  1.
</event>
<event>
 7    1  0.3331850E-011  0.5052886E+02  0.7816164E-02  0.1300439E+00
        -11   -1    0    0    0    0  0.00000000000E+00  0.00000000000E+00  0.45593999997E+02  0.45594000000E+02  0.51100000000E-03 0.  1.
         11   -1    0    0    0    0 -0.00000000000E+00 -0.00000000000E+00 -0.45593999997E+02  0.45594000000E+02  0.51100000000E-03 0. -1.
    9900012    2    1    2    0    0 -0.24360606362E+02  0.28231813230E+02  0.16207748021E+02  0.50528861833E+02  0.30000006028E+02 0.  0.
         12    1    1    2    0    0  0.24360606362E+02 -0.28231813230E+02 -0.16207748021E+02  0.40659138167E+02  0.00000000000E+00 0. -1.
         11    1    3    3    0    0 -0.92504593898E+00  0.72861526341E+01  0.15626165902E+02  0.17266174772E+02  0.51100000000E-03 0. -1.
        -11    1    3    3    0    0  0.11858041542E+01  0.12916606872E+01  0.64363745978E-01  0.17546115741E+01  0.51100000000E-03 0.  1.
        -12    1    3    3    0    0 -0.24621364577E+02  0.19653999908E+02  0.51721837220E+00  0.31508075487E+02  0.00000000000E+00 0.  1.
</event>
<event>
 7    1  0.3331850E-011  0.5052886E+02  0.7816164E-02  0.1300439E+00
        -11   -1    0    0    0    0  0.00000000000E+00  0.00000000000E+00  0.45593999997E+02  0.45594000000E+02  0.51100000000E-03 0.  1.
         11   -1    0    0    0    0 -0.00000000000E+00 -0.00000000000E+00 -0.45593999997E+02  0.45594000000E+02  0.51100000000E-03 0. -1.
    9900012    2    1    2    0    0 -0.18733748572E+02 -0.16097018636E+02  0.32297036166E+02  0.50528857244E+02  0.29999992078E+02 0.  0.
         12    1    1    2    0    0  0.18733748572E+02  0.16097018636E+02 -0.32297036166E+02  0.40659142756E+02  0.00000000000E+00 0. -1.
         11    1    3    3    0    0 -0.72887017022E+01 -0.12747734917E+01  0.16245120539E+02  0.17850886856E+02  0.51100000000E-03 0. -1.
        -11    1    3    3    0    0 -0.89125650002E+01 -0.10264887446E+02  0.21307675261E+02  0.25274864084E+02  0.51100000000E-03 0.  1.
        -12    1    3    3    0    0 -0.25324818700E+01 -0.45573576990E+01 -0.52557596340E+01  0.74031063040E+01  0.00000000000E+00 0.  1.
</event>
<event>
 7    1  0.3331850E-011  0.5052885E+02  0.7816164E-02  0.1300439E+00
        -11   -1    0    0    0    0  0.00000000000E+00  0.00000000000E+00  0.45593999997E+02  0.45594000000E+02  0.51100000000E-03 0. -1.
         11   -1    0    0    0    0 -0.00000000000E+00 -0.00000000000E+00 -0.45593999997E+02  0.45594000000E+02  0.51100000000E-03 0.  1.
    9900012    2    1    2    0    0 -0.18633803662E+02  0.19559205899E+02 -0.30387249009E+02  0.50528854945E+02  0.29999985090E+02 0.  0.
         12    1    1    2    0    0  0.18633803662E+02 -0.19559205899E+02  0.30387249009E+02  0.40659145055E+02  0.00000000000E+00 0. -1.
         11    1    3    3    0    0 -0.35729146416E+01  0.55736796168E+01 -0.75467435386E+01  0.10039171370E+02  0.51100000000E-03 0. -1.
        -11    1    3    3    0    0 -0.14349512569E+02  0.21485566039E+02 -0.18691692471E+02  0.31889142771E+02  0.51100000000E-03 0.  1.
        -12    1    3    3    0    0 -0.71137645208E+00 -0.75000397567E+01 -0.41488129988E+01  0.86005408032E+01  0.00000000000E+00 0.  1.
</event>
<event>
 7    1  0.3331850E-011  0.5052886E+02  0.7816164E-02  0.1300439E+00
        -11   -1    0    0    0    0  0.00000000000E+00  0.00000000000E+00  0.45593999997E+02  0.45594000000E+02  0.51100000000E-03 0.  1.
         11   -1    0    0    0    0 -0.00000000000E+00 -0.00000000000E+00 -0.45593999997E+02  0.45594000000E+02  0.51100000000E-03 0. -1.
    9900012    2    1    2    0    0  0.86179345478E+01 -0.29427710281E+02  0.26700313573E+02  0.50528859906E+02  0.30000000172E+02 0.  0.
         12    1    1    2    0    0 -0.86179345478E+01  0.29427710281E+02 -0.26700313573E+02  0.40659140094E+02  0.00000000000E+00 0. -1.
         11    1    3    3    0    0  0.42811611219E+01 -0.11426378461E+02  0.17835142315E+01  0.12331722854E+02  0.51100000000E-03 0. -1.
        -11    1    3    3    0    0  0.13008089320E+02 -0.11168317099E+02  0.10748391063E+02  0.20235355329E+02  0.51100000000E-03 0.  1.
         12    1    3    3    0    0 -0.86713158942E+01 -0.68330147203E+01  0.14168408278E+02  0.17961781723E+02  0.00000000000E+00 0. -1.
</event>
<event>
 7    1  0.3331850E-011  0.5052886E+02  0.7816164E-02  0.1300439E+00
        -11   -1    0    0    0    0  0.00000000000E+00  0.00000000000E+00  0.45593999997E+02  0.45594000000E+02  0.51100000000E-03 0. -1.
         11   -1    0    0    0    0 -0.00000000000E+00 -0.00000000000E+00 -0.45593999997E+02  0.45594000000E+02  0.51100000000E-03 0.  1.
    9900012    2    1    2    0    0  0.15927266380E+02 -0.20629011333E+02  0.31207879403E+02  0.50528860071E+02  0.30000000673E+02 0.  0.
         12    1    1    2    0    0 -0.15927266380E+02  0.20629011333E+02 -0.31207879403E+02  0.40659139929E+02  0.00000000000E+00 0. -1.
         11    1    3    3    0    0  0.47450185262E+01 -0.51059087187E+01  0.42787458656E+01  0.81788245550E+01  0.51100000000E-03 0. -1.
        -11    1    3    3    0    0  0.50664951027E+01 -0.21124351375E+02  0.26185885256E+02  0.34023641495E+02  0.51100000000E-03 0.  1.
         12    1    3    3    0    0  0.61157527512E+01  0.56012487608E+01  0.74324828079E+00  0.83263940216E+01  0.00000000000E+00 0. -1.
</event>
<event>
 7    1  0.3331850E-011  0.5052886E+02  0.7816164E-02  0.1300439E+00
        -11   -1    0    0    0    0  0.00000000000E+00  0.00000000000E+00  0.45593999997E+02  0.45594000000E+02  0.51100000000E-03 0. -1.
         11   -1    0    0    0    0 -0.00000000000E+00 -0.00000000000E+00 -0.45593999997E+02  0.45594000000E+02  0.51100000000E-03 0.  1.
    9900012    2    1    2    0    0  0.10181686007E+02 -0.36265202783E+02  0.15307964383E+02  0.50528862817E+02  0.30000009020E+02 0.  0.
         12    1    1    2    0    0 -0.10181686007E+02  0.36265202783E+02 -0.15307964383E+02  0.40659137183E+02  0.00000000000E+00 0. -1.
         11    1    3    3    0    0 -0.37132940416E+01 -0.16543746455E+02  0.31163121117E+01  0.17239359062E+02  0.51100000000E-03 0. -1.
        -11    1    3    3    0    0 -0.57109470188E+00 -0.79658091732E+01 -0.36932074615E+01  0.87988662086E+01  0.51100000000E-03 0.  1.
         12    1    3    3    0    0  0.14466074751E+02 -0.11755647155E+02  0.15884859733E+02  0.24490637547E+02  0.00000000000E+00 0. -1.
</event>
<event>
 7    1  0.3331850E-011  0.5052883E+02  0.7816164E-02  0.1300439E+00
        -11   -1    0    0    0    0  0.00000000000E+00  0.00000000000E+00  0.45593999997E+02  0.45594000000E+02  0.51100000000E-03 0. -1.
         11   -1    0    0    0    0 -0.00000000000E+00 -0.00000000000E+00 -0.45593999997E+02  0.45594000000E+02  0.51100000000E-03 0.  1.
    9900012    2    1    2    0    0 -0.25873292565E+02 -0.22957120972E+02  0.21370800065E+02  0.50528834159E+02  0.29999921909E+02 0.  0.
         12    1    1    2    0    0  0.25873292565E+02  0.22957120972E+02 -0.21370800065E+02  0.40659165841E+02  0.00000000000E+00 0. -1.
         11    1    3    3    0    0 -0.62391776518E+01  0.41187285033E+01  0.78300582585E+01  0.10825944524E+02  0.51100000000E-03 0. -1.
        -11    1    3    3    0    0  0.24389842600E+01 -0.72622377705E+01  0.28302434467E+01  0.81669467908E+01  0.51100000000E-03 0.  1.
         12    1    3    3    0    0 -0.22073099174E+02 -0.19813611705E+02  0.10710498360E+02  0.31535942843E+02  0.00000000000E+00 0. -1.
</event>
<event>
 7    1  0.3331850E-011  0.5052883E+02  0.7816164E-02  0.1300439E+00
        -11   -1    0    0    0    0  0.00000000000E+00  0.00000000000E+00  0.45593999997E+02  0.45594000000E+02  0.51100000000E-03 0. -1.
         11   -1    0    0    0    0 -0.00000000000E+00 -0.00000000000E+00 -0.45593999997E+02  0.45594000000E+02  0.51100000000E-03 0.  1.
    9900012    2    1    2    0    0  0.78696630287E+01  0.19723938002E+00 -0.39889813228E+02  0.50528834995E+02  0.29999924450E+02 0.  0.
         12    1    1    2    0    0 -0.78696630287E+01 -0.19723938002E+00  0.39889813228E+02  0.40659165005E+02  0.00000000000E+00 0. -1.
         11    1    3    3    0    0  0.87043608126E+01  0.10426429218E+02 -0.66869540656E+01  0.15139077856E+02  0.51100000000E-03 0.  1.
        -11    1    3    3    0    0 -0.23659270621E+01 -0.11596384921E+01 -0.41509985972E+01  0.49166209851E+01  0.51100000000E-03 0. -1.
        -12    1    3    3    0    0  0.15312292783E+01 -0.90695513462E+01 -0.29051860565E+02  0.30473136153E+02  0.00000000000E+00 0.  1.
</event>
<event>
 7    1  0.3331850E-011  0.5052886E+02  0.7816164E-02  0.1300439E+00
        -11   -1    0    0    0    0  0.00000000000E+00  0.00000000000E+00  0.45593999997E+02  0.45594000000E+02  0.51100000000E-03 0.  1.
         11   -1    0    0    0    0 -0.00000000000E+00 -0.00000000000E+00 -0.45593999997E+02  0.45594000000E+02  0.51100000000E-03 0. -1.
    9900012    2    1    2    0    0  0.11881625604E-01  0.34985877204E+02  0.20716024993E+02  0.50528862817E+02  0.30000009019E+02 0.  0.
         12    1    1    2    0    0 -0.11881625604E-01 -0.34985877204E+02 -0.20716024993E+02  0.40659137183E+02  0.00000000000E+00 0. -1.
         11    1    3    3    0    0 -0.46017114094E+01  0.90944756906E+01 -0.57615813418E+01  0.11708161931E+02  0.51100000000E-03 0. -1.
        -11    1    3    3    0    0  0.35000562282E+01  0.20419190086E+02  0.13593837286E+02  0.24778743507E+02  0.51100000000E-03 0.  1.
        -12    1    3    3    0    0  0.11135368068E+01  0.54722114278E+01  0.12883769049E+02  0.14041957379E+02  0.00000000000E+00 0.  1.
</event>
<event>
 7    1  0.3331850E-011  0.5052886E+02  0.7816164E-02  0.1300439E+00
        -11   -1    0    0    0    0  0.00000000000E+00  0.00000000000E+00  0.45593999997E+02  0.45594000000E+02  0.51100000000E-03 0.  1.
         11   -1    0    0    0    0 -0.00000000000E+00 -0.00000000000E+00 -0.45593999997E+02  0.45594000000E+02  0.51100000000E-03 0. -1.
    9900012    2    1    2    0    0 -0.16324747084E+01  0.21826642846E+02  0.34265119507E+02  0.50528859251E+02  0.29999998180E+02 0.  0.
         12    1    1    2    0    0  0.16324747084E+01 -0.21826642846E+02 -0.34265119507E+02  0.40659140749E+02  0.00000000000E+00 0. -1.
         11    1    3    3    0    0 -0.37563230414E+01  0.15068643126E+00  0.49878716271E+01  0.62459212949E+01  0.51100000000E-03 0. -1.
        -11    1    3    3    0    0 -0.91586375910E+01  0.92594509643E+00  0.11448498401E+02  0.14690341478E+02  0.51100000000E-03 0.  1.
         12    1    3    3    0    0  0.11282485924E+02  0.20750011318E+02  0.17828749480E+02  0.29592596478E+02  0.00000000000E+00 0. -1.
</event>
<event>
 7    1  0.3331850E-011  0.5052890E+02  0.7816164E-02  0.1300439E+00
        -11   -1    0    0    0    0  0.00000000000E+00  0.00000000000E+00  0.45593999997E+02  0.45594000000E+02  0.51100000000E-03 0. -1.
         11   -1    0    0    0    0 -0.00000000000E+00 -0.00000000000E+00 -0.45593999997E+02  0.45594000000E+02  0.51100000000E-03 0.  1.
    9900012    2    1    2    0    0  0.25754060606E+02 -0.16759406578E+02 -0.26627292053E+02  0.50528904725E+02  0.30000136401E+02 0.  0.
         12    1    1    2    0    0 -0.25754060606E+02  0.16759406578E+02  0.26627292053E+02  0.40659095275E+02  0.00000000000E+00 0. -1.
         11    1    3    3    0    0  0.16051279724E+02 -0.78941339065E+01 -0.16250576146E+02  0.24166964151E+02  0.51100000000E-03 0. -1.
        -11    1    3    3    0    0  0.21219374362E+01 -0.13938819095E+02 -0.25198311067E+01  0.14322808569E+02  0.51100000000E-03 0.  1.
         12    1    3    3    0    0  0.75808434454E+01  0.50735464240E+01 -0.78568848002E+01  0.12039132005E+02  0.00000000000E+00 0. -1.
</event>
<event>
 7    1  0.4098819E-011  0.5052886E+02  0.7816164E-02  0.1300439E+00
        -11   -1    0    0    0    0  0.00000000000E+00  0.00000000000E+00  0.45593999997E+02  0.45594000000E+02  0.51100000000E-03 0. -1.
         11   -1    0    0    0    0 -0.00000000000E+00 -0.00000000000E+00 -0.45593999997E+02  0.45594000000E+02  0.51100000000E-03 0.  1.
    9900012    2    1    2    0    0 -0.30263035814E+02  0.24905929696E+02 -0.10817072460E+02  0.50528859241E+02  0.29999998148E+02 0.  0.
         12    1    1    2    0    0  0.30263035814E+02 -0.24905929696E+02  0.10817072460E+02  0.40659140759E+02  0.00000000000E+00 0. -1.
         11    1    3    3    0    0 -0.80650120601E+01  0.18306996415E+02 -0.30219823232E+01  0.20231730393E+02  0.51100000000E-03 0. -1.
        -11    1    3    3    0    0 -0.13443837126E+02  0.12629609580E+02 -0.32226760164E+01  0.18725101756E+02  0.51100000000E-03 0.  1.
         12    1    3    3    0    0 -0.87541866277E+01 -0.60306762988E+01 -0.45724141200E+01  0.11572027092E+02  0.00000000000E+00 0. -1.
</event>
<event>
 7    1  0.3331850E-011  0.5052885E+02  0.7816164E-02  0.1300439E+00
        -11   -1    0    0    0    0  0.00000000000E+00  0.00000000000E+00  0.45593999997E+02  0.45594000000E+02  0.51100000000E-03 0.  1.
         11   -1    0    0    0    0 -0.00000000000E+00 -0.00000000000E+00 -0.45593999997E+02  0.45594000000E+02  0.51100000000E-03 0. -1.
    9900012    2    1    2    0    0 -0.82690657676E+01 -0.50776661037E+01  0.39484254615E+02  0.50528849686E+02  0.29999969107E+02 0.  0.
         12    1    1    2    0    0  0.82690657676E+01  0.50776661037E+01 -0.39484254615E+02  0.40659150314E+02  0.00000000000E+00 0. -1.
         11    1    3    3    0    0  0.45795226323E+01  0.25904975118E+01  0.96546418548E+01  0.10995217802E+02  0.51100000000E-03 0. -1.
        -11    1    3    3    0    0 -0.33883715965E+01  0.20575961904E+01  0.24719554101E+02  0.25035397328E+02  0.51100000000E-03 0.  1.
         12    1    3    3    0    0 -0.94602168034E+01 -0.97257598060E+01  0.51100586593E+01  0.14498234557E+02  0.00000000000E+00 0. -1.
</event>
<event>
 7    1  0.3331850E-011  0.5052885E+02  0.7816164E-02  0.1300439E+00
        -11   -1    0    0    0    0  0.00000000000E+00  0.00000000000E+00  0.45593999997E+02  0.45594000000E+02  0.51100000000E-03 0. -1.
         11   -1    0    0    0    0 -0.00000000000E+00 -0.00000000000E+00 -0.45593999997E+02  0.45594000000E+02  0.51100000000E-03 0.  1.
    9900012    2    1    2    0    0  0.36489097631E+02 -0.17768691923E+02 -0.24465219565E+01  0.50528854309E+02  0.29999983158E+02 0.  0.
         12    1    1    2    0    0 -0.36489097631E+02  0.17768691923E+02  0.24465219565E+01  0.40659145691E+02  0.00000000000E+00 0. -1.
         11    1    3    3    0    0  0.25232825031E+01 -0.10110485631E+02  0.29675553432E+00  0.10424823183E+02  0.51100000000E-03 0. -1.
        -11    1    3    3    0    0  0.34910552394E+02 -0.31814794957E+01 -0.62166194873E+00  0.35060732224E+02  0.51100000000E-03 0.  1.
         12    1    3    3    0    0 -0.94473726571E+00 -0.44767267961E+01 -0.21216155421E+01  0.50432989022E+01  0.00000000000E+00 0. -1.
</event>
<event>
 7    1  0.3331850E-011  0.5052884E+02  0.7816164E-02  0.1300439E+00
        -11   -1    0    0    0    0  0.00000000000E+00  0.00000000000E+00  0.45593999997E+02  0.45594000000E+02  0.51100000000E-03 0.  1.
         11   -1    0    0    0    0 -0.00000000000E+00 -0.00000000000E+00 -0.45593999997E+02  0.45594000000E+02  0.51100000000E-03 0. -1.
    9900012    2    1    2    0    0  0.66208568129E+01 -0.36967438026E+02  0.15580127255E+02  0.50528836403E+02  0.29999928730E+02 0.  0.
         12    1    1    2    0    0 -0.66208568129E+01  0.36967438026E+02 -0.15580127255E+02  0.40659163597E+02  0.00000000000E+00 0. -1.
         11    1    3    3    0    0  0.35443719754E+01 -0.74281728218E+01  0.19261188289E+01  0.84528254551E+01  0.51100000000E-03 0. -1.
        -11    1    3    3    0    0  0.72664405770E+01 -0.11562816349E+02 -0.61730595079E+01  0.14986879079E+02  0.51100000000E-03 0.  1.
        -12    1    3    3    0    0 -0.41899557395E+01 -0.17976448855E+02  0.19827067934E+02  0.27089131869E+02  0.00000000000E+00 0.  1.
</event>
<event>
 7    1  0.3331850E-011  0.5052885E+02  0.7816164E-02  0.1300439E+00
        -11   -1    0    0    0    0  0.00000000000E+00  0.00000000000E+00  0.45593999997E+02  0.45594000000E+02  0.51100000000E-03 0.  1.
         11   -1    0    0    0    0 -0.00000000000E+00 -0.00000000000E+00 -0.45593999997E+02  0.45594000000E+02  0.51100000000E-03 0. -1.
    9900012    2    1    2    0    0 -0.32234026536E+02 -0.27560388263E+01  0.24628000098E+02  0.50528848440E+02  0.29999965319E+02 0.  0.
         12    1    1    2    0    0  0.32234026536E+02  0.27560388263E+01 -0.24628000098E+02  0.40659151560E+02  0.00000000000E+00 0. -1.
         11    1    3    3    0    0 -0.41381862172E+01 -0.56320216839E+01  0.19469961040E+01  0.72550015511E+01  0.51100000000E-03 0. -1.
        -11    1    3    3    0    0 -0.16592370206E+01 -0.35415412398E+01 -0.36963530364E+01  0.53813202724E+01  0.51100000000E-03 0.  1.
        -12    1    3    3    0    0 -0.26436603298E+02  0.64175240973E+01  0.26377357031E+02  0.37892526617E+02  0.00000000000E+00 0.  1.
</event>
<event>
 7    1  0.3331850E-011  0.5052884E+02  0.7816164E-02  0.1300439E+00
        -11   -1    0    0    0    0  0.00000000000E+00  0.00000000000E+00  0.45593999997E+02  0.45594000000E+02  0.51100000000E-03 0.  1.
         11   -1    0    0    0    0 -0.00000000000E+00 -0.00000000000E+00 -0.45593999997E+02  0.45594000000E+02  0.51100000000E-03 0. -1.
    9900012    2    1    2    0    0 -0.95900048777E+01 -0.22805968004E+02  0.32265876445E+02  0.50528841710E+02  0.29999944860E+02 0.  0.
         12    1    1    2    0    0  0.95900048777E+01  0.22805968004E+02 -0.32265876445E+02  0.40659158290E+02  0.00000000000E+00 0. -1.
         11    1    3    3    0    0 -0.23503881416E+01 -0.16614312598E+02  0.51772417961E+01  0.17560283039E+02  0.51100000000E-03 0. -1.
        -11    1    3    3    0    0 -0.69267547708E+01 -0.59675336052E+01  0.41737657530E+01  0.10050458189E+02  0.51100000000E-03 0.  1.
         12    1    3    3    0    0 -0.31286196530E+00 -0.22412180016E+00  0.22914868896E+02  0.22918100482E+02  0.00000000000E+00 0. -1.
</event>
<event>
 7    1  0.3331850E-011  0.5052886E+02  0.7816164E-02  0.1300439E+00
        -11   -1    0    0    0    0  0.00000000000E+00  0.00000000000E+00  0.45593999997E+02  0.45594000000E+02  0.51100000000E-03 0. -1.
         11   -1    0    0    0    0 -0.00000000000E+00 -0.00000000000E+00 -0.45593999997E+02  0.45594000000E+02  0.51100000000E-03 0.  1.
    9900012    2    1    2    0    0  0.39033426880E+02  0.10764959489E+02  0.36976572325E+01  0.50528862825E+02  0.30000009043E+02 0.  0.
         12    1    1    2    0    0 -0.39033426880E+02 -0.10764959489E+02 -0.36976572325E+01  0.40659137175E+02  0.00000000000E+00 0. -1.
         11    1    3    3    0    0  0.10007579687E+02 -0.69297385348E+01  0.28767532979E+01  0.12507942962E+02  0.51100000000E-03 0. -1.
        -11    1    3    3    0    0  0.21039876655E+01  0.96993637917E+01  0.10108105939E-02  0.99249394629E+01  0.51100000000E-03 0.  1.
        -12    1    3    3    0    0  0.26921859528E+02  0.79953342322E+01  0.81989312399E+00  0.28095980400E+02  0.00000000000E+00 0.  1.
</event>
<event>
 7    1  0.3331850E-011  0.5052886E+02  0.7816164E-02  0.1300439E+00
        -11   -1    0    0    0    0  0.00000000000E+00  0.00000000000E+00  0.45593999997E+02  0.45594000000E+02  0.51100000000E-03 0. -1.
         11   -1    0    0    0    0 -0.00000000000E+00 -0.00000000000E+00 -0.45593999997E+02  0.45594000000E+02  0.51100000000E-03 0.  1.
    9900012    2    1    2    0    0 -0.73886648738E+01  0.39936433288E+02 -0.19117731947E+01  0.50528856512E+02  0.29999989855E+02 0.  0.
         12    1    1    2    0    0  0.73886648738E+01 -0.39936433288E+02  0.19117731947E+01  0.40659143488E+02  0.00000000000E+00 0. -1.
         11    1    3    3    0    0 -0.42119886184E+01  0.31193480854E+02  0.37196879408E+01  0.31695586042E+02  0.51100000000E-03 0. -1.
        -11    1    3    3    0    0 -0.63891082013E+01  0.92503915201E+01 -0.88119926192E+01  0.14284315212E+02  0.51100000000E-03 0.  1.
         12    1    3    3    0    0  0.32124319458E+01 -0.50743908559E+00  0.31805314837E+01  0.45489552593E+01  0.00000000000E+00 0. -1.
</event>
<event>
 7    1  0.3331850E-011  0.5052886E+02  0.7816164E-02  0.1300439E+00
        -11   -1    0    0    0    0  0.00000000000E+00  0.00000000000E+00  0.45593999997E+02  0.45594000000E+02  0.51100000000E-03 0. -1.
         11   -1    0    0    0    0 -0.00000000000E+00 -0.00000000000E+00 -0.45593999997E+02  0.45594000000E+02  0.51100000000E-03 0.  1.
    9900012    2    1    2    0    0  0.89704090590E+01 -0.24349291812E+02 -0.31301908139E+02  0.50528859533E+02  0.29999999035E+02 0.  0.
         12    1    1    2    0    0 -0.89704090590E+01  0.24349291812E+02  0.31301908139E+02  0.40659140467E+02  0.00000000000E+00 0. -1.
         11    1    3    3    0    0 -0.36325050917E+01 -0.13661554578E+02 -0.38679460636E+01  0.14655858001E+02  0.51100000000E-03 0. -1.
        -11    1    3    3    0    0 -0.25411432865E+01  0.11573641097E+01 -0.58972767874E+00  0.28538885545E+01  0.51100000000E-03 0.  1.
        -12    1    3    3    0    0  0.15144057437E+02 -0.11845101344E+02 -0.26844234396E+02  0.33019112978E+02  0.00000000000E+00 0.  1.
</event>
<event>
 7    1  0.3331850E-011  0.5052886E+02  0.7816164E-02  0.1300439E+00
        -11   -1    0    0    0    0  0.00000000000E+00  0.00000000000E+00  0.45593999997E+02  0.45594000000E+02  0.51100000000E-03 0. -1.
         11   -1    0    0    0    0 -0.00000000000E+00 -0.00000000000E+00 -0.45593999997E+02  0.45594000000E+02  0.51100000000E-03 0.  1.
    9900012    2    1    2    0    0 -0.16694229279E+02  0.28945600264E+02 -0.23165076193E+02  0.50528858089E+02  0.29999994648E+02 0.  0.
         12    1    1    2    0    0  0.16694229279E+02 -0.28945600264E+02  0.23165076193E+02  0.40659141911E+02  0.00000000000E+00 0. -1.
         11    1    3    3    0    0 -0.42473478658E+01  0.61599634540E+01  0.37855848697E+00  0.74918903113E+01  0.51100000000E-03 0. -1.
        -11    1    3    3    0    0 -0.11490244363E+02  0.22860242738E+02 -0.70821843448E+01  0.26547575199E+02  0.51100000000E-03 0.  1.
         12    1    3    3    0    0 -0.95663705051E+00 -0.74605928163E-01 -0.16461450336E+02  0.16489392579E+02  0.00000000000E+00 0. -1.
</event>
<event>
 7    1  0.3331850E-011  0.5052885E+02  0.7816164E-02  0.1300439E+00
        -11   -1    0    0    0    0  0.00000000000E+00  0.00000000000E+00  0.45593999997E+02  0.45594000000E+02  0.51100000000E-03 0.  1.
         11   -1    0    0    0    0 -0.00000000000E+00 -0.00000000000E+00 -0.45593999997E+02  0.45594000000E+02  0.51100000000E-03 0. -1.
    9900012    2    1    2    0    0  0.26635033681E+02  0.28093258587E+02  0.12430228302E+02  0.50528846383E+02  0.29999959065E+02 0.  0.
         12    1    1    2    0    0 -0.26635033681E+02 -0.28093258587E+02 -0.12430228302E+02  0.40659153617E+02  0.00000000000E+00 0. -1.
         11    1    3    3    0    0 -0.23594469853E+00  0.66680368656E+01 -0.21672179263E+01  0.70153559669E+01  0.51100000000E-03 0. -1.
        -11    1    3    3    0    0  0.68521427664E+01  0.17316540365E+02  0.39552041633E+00  0.18627154032E+02  0.51100000000E-03 0.  1.
        -12    1    3    3    0    0  0.20018835614E+02  0.41086813566E+01  0.14201925812E+02  0.24886336383E+02  0.00000000000E+00 0.  1.
</event>
<event>
 7    1  0.3331850E-011  0.5052887E+02  0.7816164E-02  0.1300439E+00
        -11   -1    0    0    0    0  0.00000000000E+00  0.00000000000E+00  0.45593999997E+02  0.45594000000E+02  0.51100000000E-03 0. -1.
         11   -1    0    0    0    0 -0.00000000000E+00 -0.00000000000E+00 -0.45593999997E+02  0.45594000000E+02  0.51100000000E-03 0.  1.
    9900012    2    1    2    0    0  0.10533129645E+02 -0.37357976273E+02 -0.12107833828E+02  0.50528870013E+02  0.30000030891E+02 0.  0.
         12    1    1    2    0    0 -0.10533129645E+02  0.37357976273E+02  0.12107833828E+02  0.40659129987E+02  0.00000000000E+00 0. -1.
         11    1    3    3    0    0 -0.68355190658E+01 -0.42041826486E+01 -0.26872087409E+01  0.84628933421E+01  0.51100000000E-03 0. -1.
        -11    1    3    3    0    0  0.15052142904E+01 -0.11006059105E+01  0.35603967935E+01  0.40191328690E+01  0.51100000000E-03 0.  1.
        -12    1    3    3    0    0  0.15863434420E+02 -0.32053187714E+02 -0.12981021880E+02  0.38046843802E+02  0.00000000000E+00 0.  1.
</event>
<event>
 7    1  0.3331850E-011  0.5052887E+02  0.7816164E-02  0.1300439E+00
        -11   -1    0    0    0    0  0.00000000000E+00  0.00000000000E+00  0.45593999997E+02  0.45594000000E+02  0.51100000000E-03 0.  1.
         11   -1    0    0    0    0 -0.00000000000E+00 -0.00000000000E+00 -0.45593999997E+02  0.45594000000E+02  0.51100000000E-03 0. -1.
    9900012    2    1    2    0    0 -0.23100774737E+02 -0.15974619727E+02  0.29399504021E+02  0.50528866886E+02  0.30000021388E+02 0.  0.
         12    1    1    2    0    0  0.23100774737E+02  0.15974619727E+02 -0.29399504021E+02  0.40659133114E+02  0.00000000000E+00 0. -1.
         11    1    3    3    0    0 -0.59568934863E+01 -0.16680680056E+02  0.37332856546E+01  0.18101576980E+02  0.51100000000E-03 0. -1.
        -11    1    3    3    0    0 -0.18161978337E+00  0.35880345372E+00  0.77220386388E+01  0.77325032599E+01  0.51100000000E-03 0.  1.
        -12    1    3    3    0    0 -0.16962261467E+02  0.34725687481E+00  0.17944179727E+02  0.24694786646E+02  0.00000000000E+00 0.  1.
</event>
<event>
 7    1  0.3331850E-011  0.5052884E+02  0.7816164E-02  0.1300439E+00
        -11   -1    0    0    0    0  0.00000000000E+00  0.00000000000E+00  0.45593999997E+02  0.45594000000E+02  0.51100000000E-03 0.  1.
         11   -1    0    0    0    0 -0.00000000000E+00 -0.00000000000E+00 -0.45593999997E+02  0.45594000000E+02  0.51100000000E-03 0. -1.
    9900012    2    1    2    0    0 -0.21603408990E+02  0.34021990114E+02  0.53818155668E+01  0.50528843219E+02  0.29999949448E+02 0.  0.
         12    1    1    2    0    0  0.21603408990E+02 -0.34021990114E+02 -0.53818155668E+01  0.40659156781E+02  0.00000000000E+00 0. -1.
         11    1    3    3    0    0 -0.19416365529E+02  0.11255129792E+02  0.93498149062E+01  0.24312388530E+02  0.51100000000E-03 0. -1.
        -11    1    3    3    0    0 -0.64433693740E+01  0.67090605076E+01 -0.14447591165E+01  0.94135981936E+01  0.51100000000E-03 0.  1.
        -12    1    3    3    0    0  0.42563259129E+01  0.16057799815E+02 -0.25232402229E+01  0.16802856495E+02  0.00000000000E+00 0.  1.
</event>
<event>
 7    1  0.3331850E-011  0.5052885E+02  0.7816164E-02  0.1300439E+00
        -11   -1    0    0    0    0  0.00000000000E+00  0.00000000000E+00  0.45593999997E+02  0.45594000000E+02  0.51100000000E-03 0.  1.
         11   -1    0    0    0    0 -0.00000000000E+00 -0.00000000000E+00 -0.45593999997E+02  0.45594000000E+02  0.51100000000E-03 0. -1.
    9900012    2    1    2    0    0 -0.30833053763E+01  0.28828504535E+01  0.40439448796E+02  0.50528848291E+02  0.29999964864E+02 0.  0.
         12    1    1    2    0    0  0.30833053763E+01 -0.28828504535E+01 -0.40439448796E+02  0.40659151709E+02  0.00000000000E+00 0. -1.
         11    1    3    3    0    0 -0.34306342517E+01 -0.62130758364E+01  0.79480520361E+01  0.10655660193E+02  0.51100000000E-03 0. -1.
        -11    1    3    3    0    0 -0.29344428478E+01 -0.47147046802E+01  0.20661602961E+02  0.21394887993E+02  0.51100000000E-03 0.  1.
         12    1    3    3    0    0  0.32817717232E+01  0.13810630970E+02  0.11829793800E+02  0.18478300105E+02  0.00000000000E+00 0. -1.
</event>
<event>
 7    1  0.3331850E-011  0.5052885E+02  0.7816164E-02  0.1300439E+00
        -11   -1    0    0    0    0  0.00000000000E+00  0.00000000000E+00  0.45593999997E+02  0.45594000000E+02  0.51100000000E-03 0. -1.
         11   -1    0    0    0    0 -0.00000000000E+00 -0.00000000000E+00 -0.45593999997E+02  0.45594000000E+02  0.51100000000E-03 0.  1.
    9900012    2    1    2    0    0 -0.38796720806E+01  0.39868925345E+02  0.69701789527E+01  0.50528850251E+02  0.29999970824E+02 0.  0.
         12    1    1    2    0    0  0.38796720806E+01 -0.39868925345E+02 -0.69701789527E+01  0.40659149749E+02  0.00000000000E+00 0. -1.
         11    1    3    3    0    0  0.97758093552E+00  0.98441113120E+00 -0.22070545445E+01  0.26068793191E+01  0.51100000000E-03 0. -1.
        -11    1    3    3    0    0  0.18594783741E+00  0.15301892860E+02 -0.89724632888E+01  0.17739436277E+02  0.51100000000E-03 0.  1.
         12    1    3    3    0    0 -0.50432008536E+01  0.23582621354E+02  0.18149696786E+02  0.30182534655E+02  0.00000000000E+00 0. -1.
</event>
<event>
 7    1  0.3506414E-011  0.5052887E+02  0.7816164E-02  0.1300439E+00
        -11   -1    0    0    0    0  0.00000000000E+00  0.00000000000E+00  0.45593999997E+02  0.45594000000E+02  0.51100000000E-03 0. -1.
         11   -1    0    0    0    0 -0.00000000000E+00 -0.00000000000E+00 -0.45593999997E+02  0.45594000000E+02  0.51100000000E-03 0.  1.
    9900012    2    1    2    0    0  0.12382575414E+02 -0.34709077968E+02 -0.17178958133E+02  0.50528869786E+02  0.30000030201E+02 0.  0.
         12    1    1    2    0    0 -0.12382575414E+02  0.34709077968E+02  0.17178958133E+02  0.40659130214E+02  0.00000000000E+00 0. -1.
         11    1    3    3    0    0  0.62654128905E+01 -0.19290962602E+02 -0.69909200061E+01  0.21453894742E+02  0.51100000000E-03 0. -1.
        -11    1    3    3    0    0  0.33153442873E+01 -0.19745005768E+02 -0.12307179904E+02  0.23501562458E+02  0.51100000000E-03 0.  1.
         12    1    3    3    0    0  0.28018182359E+01  0.43268904023E+01  0.21191417771E+01  0.55734125858E+01  0.00000000000E+00 0. -1.
</event>
<event>
 7    1  0.3331850E-011  0.5052885E+02  0.7816164E-02  0.1300439E+00
        -11   -1    0    0    0    0  0.00000000000E+00  0.00000000000E+00  0.45593999997E+02  0.45594000000E+02  0.51100000000E-03 0.  1.
         11   -1    0    0    0    0 -0.00000000000E+00 -0.00000000000E+00 -0.45593999997E+02  0.45594000000E+02  0.51100000000E-03 0. -1.
    9900012    2    1    2    0    0 -0.22505999246E+02  0.27217578843E+02  0.20145709627E+02  0.50528853224E+02  0.29999979861E+02 0.  0.
         12    1    1    2    0    0  0.22505999246E+02 -0.27217578843E+02 -0.20145709627E+02  0.40659146776E+02  0.00000000000E+00 0. -1.
         11    1    3    3    0    0 -0.45976898999E+01  0.92463020820E+01 -0.34632497421E+00  0.10332124460E+02  0.51100000000E-03 0. -1.
        -11    1    3    3    0    0 -0.54283179366E+01  0.11717722494E+02 -0.26381838797E+01  0.13180731031E+02  0.51100000000E-03 0.  1.
         12    1    3    3    0    0 -0.12479991410E+02  0.62535542670E+01  0.23130218481E+02  0.27015997734E+02  0.00000000000E+00 0. -1.
</event>
<event>
 7    1  0.3331850E-011  0.5052886E+02  0.7816164E-02  0.1300439E+00
        -11   -1    0    0    0    0  0.00000000000E+00  0.00000000000E+00  0.45593999997E+02  0.45594000000E+02  0.51100000000E-03 0. -1.
         11   -1    0    0    0    0 -0.00000000000E+00 -0.00000000000E+00 -0.45593999997E+02  0.45594000000E+02  0.51100000000E-03 0.  1.
    9900012    2    1    2    0    0 -0.28876739080E+02 -0.22887381627E+02 -0.17189157732E+02  0.50528862759E+02  0.30000008843E+02 0.  0.
         12    1    1    2    0    0  0.28876739080E+02  0.22887381627E+02  0.17189157732E+02  0.40659137241E+02  0.00000000000E+00 0. -1.
         11    1    3    3    0    0  0.78815431443E+00 -0.28649308233E+01  0.20354249893E+01  0.36016622542E+01  0.51100000000E-03 0.  1.
        -11    1    3    3    0    0  0.25933584281E+01 -0.69144651048E+01 -0.65541260750E+01  0.98737988885E+01  0.51100000000E-03 0. -1.
        -12    1    3    3    0    0 -0.32258251823E+02 -0.13107985698E+02 -0.12670456646E+02  0.37053401617E+02  0.00000000000E+00 0.  1.
</event>
<event>
 7    1  0.3331850E-011  0.5052889E+02  0.7816164E-02  0.1300439E+00
        -11   -1    0    0    0    0  0.00000000000E+00  0.00000000000E+00  0.45593999997E+02  0.45594000000E+02  0.51100000000E-03 0. -1.
         11   -1    0    0    0    0 -0.00000000000E+00 -0.00000000000E+00 -0.45593999997E+02  0.45594000000E+02  0.51100000000E-03 0.  1.
    9900012    2    1    2    0    0  0.17433095620E+02 -0.10535444377E+02 -0.35188847954E+02  0.50528887474E+02  0.30000083965E+02 0.  0.
         12    1    1    2    0    0 -0.17433095620E+02  0.10535444377E+02  0.35188847954E+02  0.40659112526E+02  0.00000000000E+00 0. -1.
         11    1    3    3    0    0  0.36198593833E+01  0.39115449907E+00 -0.47847597490E+01  0.60125127786E+01  0.51100000000E-03 0. -1.
        -11    1    3    3    0    0  0.84626616850E+00 -0.93073360225E+01 -0.30022100537E+02  0.31443110393E+02  0.51100000000E-03 0.  1.
        -12    1    3    3    0    0  0.12966970068E+02 -0.16192628534E+01 -0.38198766764E+00  0.13073264302E+02  0.00000000000E+00 0.  1.
</event>
<event>
 7    1  0.3331850E-011  0.5052885E+02  0.7816164E-02  0.1300439E+00
        -11   -1    0    0    0    0  0.00000000000E+00  0.00000000000E+00  0.45593999997E+02  0.45594000000E+02  0.51100000000E-03 0. -1.
         11   -1    0    0    0    0 -0.00000000000E+00 -0.00000000000E+00 -0.45593999997E+02  0.45594000000E+02  0.51100000000E-03 0.  1.
    9900012    2    1    2    0    0  0.40282048511E+02  0.18950924301E+01 -0.51895781114E+01  0.50528849388E+02  0.29999968198E+02 0.  0.
         12    1    1    2    0    0 -0.40282048511E+02 -0.18950924301E+01  0.51895781114E+01  0.40659150612E+02  0.00000000000E+00 0. -1.
         11    1    3    3    0    0  0.24266060512E+02  0.25347959138E+01 -0.12407973680E+02  0.27371969132E+02  0.51100000000E-03 0. -1.
        -11    1    3    3    0    0  0.54547894862E+01  0.54147544145E+01 -0.19352086233E+01  0.79258643935E+01  0.51100000000E-03 0.  1.
         12    1    3    3    0    0  0.10561198513E+02 -0.60544578982E+01  0.91536041920E+01  0.15231015862E+02  0.00000000000E+00 0. -1.
</event>
<event>
 7    1  0.3331850E-011  0.5052886E+02  0.7816164E-02  0.1300439E+00
        -11   -1    0    0    0    0  0.00000000000E+00  0.00000000000E+00  0.45593999997E+02  0.45594000000E+02  0.51100000000E-03 0. -1.
         11   -1    0    0    0    0 -0.00000000000E+00 -0.00000000000E+00 -0.45593999997E+02  0.45594000000E+02  0.51100000000E-03 0.  1.
    9900012    2    1    2    0    0  0.81014970228E+01 -0.37449097658E+02 -0.13605005877E+02  0.50528863827E+02  0.30000012090E+02 0.  0.
         12    1    1    2    0    0 -0.81014970228E+01  0.37449097658E+02  0.13605005877E+02  0.40659136173E+02  0.00000000000E+00 0. -1.
         11    1    3    3    0    0 -0.59202398738E+01 -0.67999845103E+01  0.40419334009E+01  0.98805999505E+01  0.51100000000E-03 0. -1.
        -11    1    3    3    0    0  0.40245717324E+01 -0.67901472270E+01  0.20255866649E+01  0.81490047608E+01  0.51100000000E-03 0.  1.
        -12    1    3    3    0    0  0.99971651641E+01 -0.23858965921E+02 -0.19672525943E+02  0.32499259116E+02  0.00000000000E+00 0.  1.
</event>
<event>
 7    1  0.3331850E-011  0.5052886E+02  0.7816164E-02  0.1300439E+00
        -11   -1    0    0    0    0  0.00000000000E+00  0.00000000000E+00  0.45593999997E+02  0.45594000000E+02  0.51100000000E-03 0. -1.
         11   -1    0    0    0    0 -0.00000000000E+00 -0.00000000000E+00 -0.45593999997E+02  0.45594000000E+02  0.51100000000E-03 0.  1.
    9900012    2    1    2    0    0  0.13881763342E+02 -0.26793899370E+02 -0.27249754791E+02  0.50528861629E+02  0.30000005407E+02 0.  0.
         12    1    1    2    0    0 -0.13881763342E+02  0.26793899370E+02  0.27249754791E+02  0.40659138371E+02  0.00000000000E+00 0. -1.
         11    1    3    3    0    0  0.27261045727E+01 -0.12313944221E+02 -0.96895939726E+01  0.15904499364E+02  0.51100000000E-03 0.  1.
        -11    1    3    3    0    0 -0.15720138818E+01 -0.12915859376E+02 -0.16345194991E+00  0.13012200731E+02  0.51100000000E-03 0. -1.
        -12    1    3    3    0    0  0.12727672651E+02 -0.15640957730E+01 -0.17396708869E+02  0.21612161534E+02  0.00000000000E+00 0.  1.
</event>
<event>
 7    1  0.3331850E-011  0.5052887E+02  0.7816164E-02  0.1300439E+00
        -11   -1    0    0    0    0  0.00000000000E+00  0.00000000000E+00  0.45593999997E+02  0.45594000000E+02  0.51100000000E-03 0.  1.
         11   -1    0    0    0    0 -0.00000000000E+00 -0.00000000000E+00 -0.45593999997E+02  0.45594000000E+02  0.51100000000E-03 0. -1.
    9900012    2    1    2    0    0  0.23088676800E+02 -0.33383241649E+02  0.23742962771E+01  0.50528866928E+02  0.30000021514E+02 0.  0.
         12    1    1    2    0    0 -0.23088676800E+02  0.33383241649E+02 -0.23742962771E+01  0.40659133072E+02  0.00000000000E+00 0. -1.
         11    1    3    3    0    0  0.16340520809E+02 -0.24342989068E+02 -0.28884461640E+01  0.29460768126E+02  0.51100000000E-03 0. -1.
        -11    1    3    3    0    0  0.44365685330E+01 -0.61531441555E+01 -0.57062285505E+01  0.94923847308E+01  0.51100000000E-03 0.  1.
        -12    1    3    3    0    0  0.23115874580E+01 -0.28871084252E+01  0.10968970992E+02  0.11575714071E+02  0.00000000000E+00 0.  1.
</event>
<event>
 7    1  0.3331850E-011  0.5052886E+02  0.7816164E-02  0.1300439E+00
        -11   -1    0    0    0    0  0.00000000000E+00  0.00000000000E+00  0.45593999997E+02  0.45594000000E+02  0.51100000000E-03 0.  1.
         11   -1    0    0    0    0 -0.00000000000E+00 -0.00000000000E+00 -0.45593999997E+02  0.45594000000E+02  0.51100000000E-03 0. -1.
    9900012    2    1    2    0    0 -0.11471392702E+02 -0.36408580526E+02 -0.13999562397E+02  0.50528864080E+02  0.30000012858E+02 0.  0.
         12    1    1    2    0    0  0.11471392702E+02  0.36408580526E+02  0.13999562397E+02  0.40659135920E+02  0.00000000000E+00 0. -1.
         11    1    3    3    0    0 -0.97378478092E+00  0.87211774803E+00 -0.47195108802E+01  0.48972062827E+01  0.51100000000E-03 0. -1.
        -11    1    3    3    0    0 -0.84557789856E+01 -0.22709631890E+02 -0.16425449016E+02  0.29274954389E+02  0.51100000000E-03 0.  1.
        -12    1    3    3    0    0 -0.20418289359E+01 -0.14571066384E+02  0.71453974994E+01  0.16356703409E+02  0.00000000000E+00 0.  1.
</event>
<event>
 7    1  0.3331850E-011  0.5052886E+02  0.7816164E-02  0.1300439E+00
        -11   -1    0    0    0    0  0.00000000000E+00  0.00000000000E+00  0.45593999997E+02  0.45594000000E+02  0.51100000000E-03 0. -1.
         11   -1    0    0    0    0 -0.00000000000E+00 -0.00000000000E+00 -0.45593999997E+02  0.45594000000E+02  0.51100000000E-03 0.  1.
    9900012    2    1    2    0    0  0.16253583634E+02  0.35496109238E+02 -0.11358394347E+02  0.50528857435E+02  0.29999992658E+02 0.  0.
         12    1    1    2    0    0 -0.16253583634E+02 -0.35496109238E+02  0.11358394347E+02  0.40659142565E+02  0.00000000000E+00 0. -1.
         11    1    3    3    0    0  0.51498121521E+01  0.28614054543E+02 -0.16134759677E+02  0.33250791761E+02  0.51100000000E-03 0. -1.
        -11    1    3    3    0    0  0.25043793942E+01 -0.27246888052E+01  0.13238312369E+01  0.39304420413E+01  0.51100000000E-03 0.  1.
        -12    1    3    3    0    0  0.85993920881E+01  0.96067435004E+01  0.34525340940E+01  0.13347623633E+02  0.00000000000E+00 0.  1.
</event>
<event>
 7    1  0.3331850E-011  0.5052885E+02  0.7816164E-02  0.1300439E+00
        -11   -1    0    0    0    0  0.00000000000E+00  0.00000000000E+00  0.45593999997E+02  0.45594000000E+02  0.51100000000E-03 0. -1.
         11   -1    0    0    0    0 -0.00000000000E+00 -0.00000000000E+00 -0.45593999997E+02  0.45594000000E+02  0.51100000000E-03 0.  1.
    9900012    2    1    2    0    0  0.30867880708E+02 -0.21974884209E+02  0.14746012453E+02  0.50528850001E+02  0.29999970062E+02 0.  0.
         12    1    1    2    0    0 -0.30867880708E+02  0.21974884209E+02 -0.14746012453E+02  0.40659149999E+02  0.00000000000E+00 0. -1.
         11    1    3    3    0    0  0.16627189804E+02 -0.14882232970E+01  0.10880796982E+02  0.19926615181E+02  0.51100000000E-03 0. -1.
        -11    1    3    3    0    0  0.13668336036E+02 -0.86236968852E+01 -0.36221566800E+01  0.16562354218E+02  0.51100000000E-03 0.  1.
        -12    1    3    3    0    0  0.57235486848E+00 -0.11862964027E+02  0.74873721508E+01  0.14039880602E+02  0.00000000000E+00 0.  1.
</event>
<event>
 7    1  0.3331850E-011  0.5052885E+02  0.7816164E-02  0.1300439E+00
        -11   -1    0    0    0    0  0.00000000000E+00  0.00000000000E+00  0.45593999997E+02  0.45594000000E+02  0.51100000000E-03 0.  1.
         11   -1    0    0    0    0 -0.00000000000E+00 -0.00000000000E+00 -0.45593999997E+02  0.45594000000E+02  0.51100000000E-03 0. -1.
    9900012    2    1    2    0    0  0.27419641923E+02  0.29992250134E+02  0.13397097326E+01  0.50528847851E+02  0.29999963529E+02 0.  0.
         12    1    1    2    0    0 -0.27419641923E+02 -0.29992250134E+02 -0.13397097326E+01  0.40659152149E+02  0.00000000000E+00 0. -1.
         11    1    3    3    0    0  0.20729483569E+02  0.26878868655E+02  0.11319578637E+02  0.35781530571E+02  0.51100000000E-03 0.  1.
        -11    1    3    3    0    0  0.82025338420E+01  0.11913306949E+01 -0.67111897966E+01  0.10664937834E+02  0.51100000000E-03 0. -1.
        -12    1    3    3    0    0 -0.15123754884E+01  0.19220507844E+01 -0.32686791081E+01  0.40823794468E+01  0.00000000000E+00 0.  1.
</event>
<event>
 7    1  0.3331850E-011  0.5052886E+02  0.7816164E-02  0.1300439E+00
        -11   -1    0    0    0    0  0.00000000000E+00  0.00000000000E+00  0.45593999997E+02  0.45594000000E+02  0.51100000000E-03 0.  1.
         11   -1    0    0    0    0 -0.00000000000E+00 -0.00000000000E+00 -0.45593999997E+02  0.45594000000E+02  0.51100000000E-03 0. -1.
    9900012    2    1    2    0    0  0.18287619959E+01  0.29750341766E+02  0.27653904907E+02  0.50528860040E+02  0.30000000578E+02 0.  0.
         12    1    1    2    0    0 -0.18287619959E+01 -0.29750341766E+02 -0.27653904907E+02  0.40659139960E+02  0.00000000000E+00 0. -1.
         11    1    3    3    0    0  0.38473416561E+01 -0.26164298489E+01  0.27821903654E+01  0.54211001156E+01  0.51100000000E-03 0. -1.
        -11    1    3    3    0    0  0.28888618766E-01 -0.20398601749E+01 -0.73591827679E+00  0.21687415837E+01  0.51100000000E-03 0.  1.
        -12    1    3    3    0    0 -0.20474682790E+01  0.34406631790E+02  0.25607632819E+02  0.42939018341E+02  0.00000000000E+00 0.  1.
</event>
<event>
 7    1  0.3331850E-011  0.5052887E+02  0.7816164E-02  0.1300439E+00
        -11   -1    0    0    0    0  0.00000000000E+00  0.00000000000E+00  0.45593999997E+02  0.45594000000E+02  0.51100000000E-03 0.  1.
         11   -1    0    0    0    0 -0.00000000000E+00 -0.00000000000E+00 -0.45593999997E+02  0.45594000000E+02  0.51100000000E-03 0. -1.
    9900012    2    1    2    0    0 -0.41150472176E+01 -0.27422197604E+02  0.29736419404E+02  0.50528866045E+02  0.30000018829E+02 0.  0.
         12    1    1    2    0    0  0.41150472176E+01  0.27422197604E+02 -0.29736419404E+02  0.40659133955E+02  0.00000000000E+00 0. -1.
         11    1    3    3    0    0 -0.51652722178E+01 -0.59015087539E+01  0.29068333360E+01  0.83640613915E+01  0.51100000000E-03 0. -1.
        -11    1    3    3    0    0 -0.68532998267E+01 -0.18442567090E+02  0.74992652176E+01  0.21055521330E+02  0.51100000000E-03 0.  1.
        -12    1    3    3    0    0  0.79035248269E+01 -0.30781217596E+01  0.19330320850E+02  0.21109283324E+02  0.00000000000E+00 0.  1.
</event>
<event>
 7    1  0.3331850E-011  0.5052881E+02  0.7816164E-02  0.1300439E+00
        -11   -1    0    0    0    0  0.00000000000E+00  0.00000000000E+00  0.45593999997E+02  0.45594000000E+02  0.51100000000E-03 0. -1.
         11   -1    0    0    0    0 -0.00000000000E+00 -0.00000000000E+00 -0.45593999997E+02  0.45594000000E+02  0.51100000000E-03 0.  1.
    9900012    2    1    2    0    0  0.31935699307E+02 -0.94202411250E+01 -0.23335370802E+02  0.50528814524E+02  0.29999862228E+02 0.  0.
         12    1    1    2    0    0 -0.31935699307E+02  0.94202411250E+01  0.23335370802E+02  0.40659185476E+02  0.00000000000E+00 0. -1.
         11    1    3    3    0    0  0.11719168415E+02 -0.12954442666E+01 -0.74931025485E+00  0.11814336643E+02  0.51100000000E-03 0. -1.
        -11    1    3    3    0    0  0.15288970909E+02 -0.11533824885E+02 -0.45158463324E+01  0.19676753195E+02  0.51100000000E-03 0.  1.
        -12    1    3    3    0    0  0.49275599825E+01  0.34090280267E+01 -0.18070214215E+02  0.19037724687E+02  0.00000000000E+00 0.  1.
</event>
<event>
 7    1  0.3331850E-011  0.5052885E+02  0.7816164E-02  0.1300439E+00
        -11   -1    0    0    0    0  0.00000000000E+00  0.00000000000E+00  0.45593999997E+02  0.45594000000E+02  0.51100000000E-03 0.  1.
         11   -1    0    0    0    0 -0.00000000000E+00 -0.00000000000E+00 -0.45593999997E+02  0.45594000000E+02  0.51100000000E-03 0. -1.
    9900012    2    1    2    0    0 -0.55577139161E+01 -0.28468524809E+02  0.28492474227E+02  0.50528853718E+02  0.29999981362E+02 0.  0.
         12    1    1    2    0    0  0.55577139161E+01  0.28468524809E+02 -0.28492474227E+02  0.40659146282E+02  0.00000000000E+00 0. -1.
         11    1    3    3    0    0 -0.10145701749E+01 -0.56753311382E+01 -0.14645948992E+01  0.59484262329E+01  0.51100000000E-03 0. -1.
        -11    1    3    3    0    0  0.19374773988E+01 -0.18230047419E+02  0.59115013545E+01  0.19262250546E+02  0.51100000000E-03 0.  1.
         12    1    3    3    0    0 -0.64806211399E+01 -0.45631462520E+01  0.24045567772E+02  0.25318176939E+02  0.00000000000E+00 0. -1.
</event>
<event>
 7    1  0.3331850E-011  0.5052886E+02  0.7816164E-02  0.1300439E+00
        -11   -1    0    0    0    0  0.00000000000E+00  0.00000000000E+00  0.45593999997E+02  0.45594000000E+02  0.51100000000E-03 0. -1.
         11   -1    0    0    0    0 -0.00000000000E+00 -0.00000000000E+00 -0.45593999997E+02  0.45594000000E+02  0.51100000000E-03 0.  1.
    9900012    2    1    2    0    0 -0.50221446270E+01 -0.39393596453E+02 -0.87228823862E+01  0.50528855208E+02  0.29999985889E+02 0.  0.
         12    1    1    2    0    0  0.50221446270E+01  0.39393596453E+02  0.87228823862E+01  0.40659144792E+02  0.00000000000E+00 0. -1.
         11    1    3    3    0    0 -0.53381648740E+00 -0.34635953022E+01  0.55498061201E+01  0.65636728051E+01  0.51100000000E-03 0. -1.
        -11    1    3    3    0    0 -0.77807517461E+01 -0.10885086140E+02  0.25430537413E+01  0.13619556550E+02  0.51100000000E-03 0.  1.
        -12    1    3    3    0    0  0.32924236065E+01 -0.25044915010E+02 -0.16815742248E+02  0.30345625853E+02  0.00000000000E+00 0.  1.
</event>
<event>
 7    1  0.3331850E-011  0.5052887E+02  0.7816164E-02  0.1300439E+00
        -11   -1    0    0    0    0  0.00000000000E+00  0.00000000000E+00  0.45593999997E+02  0.45594000000E+02  0.51100000000E-03 0. -1.
         11   -1    0    0    0    0 -0.00000000000E+00 -0.00000000000E+00 -0.45593999997E+02  0.45594000000E+02  0.51100000000E-03 0.  1.
    9900012    2    1    2    0    0  0.38748720362E+02 -0.10497262428E+02 -0.64427765925E+01  0.50528865498E+02  0.30000017168E+02 0.  0.
         12    1    1    2    0    0 -0.38748720362E+02  0.10497262428E+02  0.64427765925E+01  0.40659134502E+02  0.00000000000E+00 0. -1.
         11    1    3    3    0    0  0.10587965731E+02 -0.20095478787E+01  0.20573595813E+01  0.10971601055E+02  0.51100000000E-03 0. -1.
        -11    1    3    3    0    0  0.43327892506E+01 -0.12403458343E+02 -0.80440812717E+01  0.15405391437E+02  0.51100000000E-03 0.  1.
         12    1    3    3    0    0  0.23827965380E+02  0.39157437935E+01 -0.45605490210E+00  0.24151873006E+02  0.00000000000E+00 0. -1.
</event>
<event>
 7    1  0.3331850E-011  0.5052887E+02  0.7816164E-02  0.1300439E+00
        -11   -1    0    0    0    0  0.00000000000E+00  0.00000000000E+00  0.45593999997E+02  0.45594000000E+02  0.51100000000E-03 0.  1.
         11   -1    0    0    0    0 -0.00000000000E+00 -0.00000000000E+00 -0.45593999997E+02  0.45594000000E+02  0.51100000000E-03 0. -1.
    9900012    2    1    2    0    0 -0.26985088245E+01 -0.21739726193E+02  0.34252993110E+02  0.50528865948E+02  0.30000018537E+02 0.  0.
         12    1    1    2    0    0  0.26985088245E+01  0.21739726193E+02 -0.34252993110E+02  0.40659134052E+02  0.00000000000E+00 0. -1.
         11    1    3    3    0    0  0.94613159659E+00 -0.38679397027E+01  0.13214037141E+02  0.13800974617E+02  0.51100000000E-03 0. -1.
        -11    1    3    3    0    0  0.57087468939E+01 -0.18855676931E+02  0.95893881149E+01  0.21910789769E+02  0.51100000000E-03 0.  1.
        -12    1    3    3    0    0 -0.93533873149E+01  0.98389044094E+00  0.11449567854E+02  0.14817101562E+02  0.00000000000E+00 0.  1.
</event>
<event>
 7    1  0.3331850E-011  0.5052886E+02  0.7816164E-02  0.1300439E+00
        -11   -1    0    0    0    0  0.00000000000E+00  0.00000000000E+00  0.45593999997E+02  0.45594000000E+02  0.51100000000E-03 0.  1.
         11   -1    0    0    0    0 -0.00000000000E+00 -0.00000000000E+00 -0.45593999997E+02  0.45594000000E+02  0.51100000000E-03 0. -1.
    9900012    2    1    2    0    0  0.16233532016E+02 -0.36800425681E+02  0.59469686465E+01  0.50528864150E+02  0.30000013070E+02 0.  0.
         12    1    1    2    0    0 -0.16233532016E+02  0.36800425681E+02 -0.59469686465E+01  0.40659135850E+02  0.00000000000E+00 0. -1.
         11    1    3    3    0    0  0.15318052140E+02 -0.22073345068E+02  0.59041005503E+01  0.27508792911E+02  0.51100000000E-03 0. -1.
        -11    1    3    3    0    0  0.37677850863E+01 -0.12883977117E+02 -0.70454856008E+01  0.15160209050E+02  0.51100000000E-03 0.  1.
        -12    1    3    3    0    0 -0.28523052102E+01 -0.18431034957E+01  0.70883536970E+01  0.78598621898E+01  0.00000000000E+00 0.  1.
</event>
<event>
 7    1  0.3331850E-011  0.5052886E+02  0.7816164E-02  0.1300439E+00
        -11   -1    0    0    0    0  0.00000000000E+00  0.00000000000E+00  0.45593999997E+02  0.45594000000E+02  0.51100000000E-03 0.  1.
         11   -1    0    0    0    0 -0.00000000000E+00 -0.00000000000E+00 -0.45593999997E+02  0.45594000000E+02  0.51100000000E-03 0. -1.
    9900012    2    1    2    0    0  0.11244049030E+02 -0.12208168525E+02  0.37117347224E+02  0.50528862254E+02  0.30000007308E+02 0.  0.
         12    1    1    2    0    0 -0.11244049030E+02  0.12208168525E+02 -0.37117347224E+02  0.40659137746E+02  0.00000000000E+00 0. -1.
         11    1    3    3    0    0  0.63382968579E+01  0.10202264243E+01  0.71146886366E+01  0.95829882434E+01  0.51100000000E-03 0. -1.
        -11    1    3    3    0    0  0.78599476865E-01  0.53941034887E+01  0.16717887192E+02  0.17566737965E+02  0.51100000000E-03 0.  1.
         12    1    3    3    0    0  0.48271526953E+01 -0.18622498438E+02  0.13284771395E+02  0.23379136045E+02  0.00000000000E+00 0. -1.
</event>
<event>
 7    1  0.3331850E-011  0.5052891E+02  0.7816164E-02  0.1300439E+00
        -11   -1    0    0    0    0  0.00000000000E+00  0.00000000000E+00  0.45593999997E+02  0.45594000000E+02  0.51100000000E-03 0.  1.
         11   -1    0    0    0    0 -0.00000000000E+00 -0.00000000000E+00 -0.45593999997E+02  0.45594000000E+02  0.51100000000E-03 0. -1.
    9900012    2    1    2    0    0 -0.18020171590E+02  0.91531617276E+01  0.35279664371E+02  0.50528909112E+02  0.30000149737E+02 0.  0.
         12    1    1    2    0    0  0.18020171590E+02 -0.91531617276E+01 -0.35279664371E+02  0.40659090888E+02  0.00000000000E+00 0. -1.
         11    1    3    3    0    0 -0.55133196287E+01  0.91122195451E+01  0.17103617850E+02  0.20148523077E+02  0.51100000000E-03 0. -1.
        -11    1    3    3    0    0 -0.12996752001E+02  0.86886216352E+01  0.12601768402E+02  0.20080146304E+02  0.51100000000E-03 0.  1.
         12    1    3    3    0    0  0.48990003965E+00 -0.86476794527E+01  0.55742781191E+01  0.10300239731E+02  0.00000000000E+00 0. -1.
</event>
<event>
 7    1  0.3331850E-011  0.5052886E+02  0.7816164E-02  0.1300439E+00
        -11   -1    0    0    0    0  0.00000000000E+00  0.00000000000E+00  0.45593999997E+02  0.45594000000E+02  0.51100000000E-03 0.  1.
         11   -1    0    0    0    0 -0.00000000000E+00 -0.00000000000E+00 -0.45593999997E+02  0.45594000000E+02  0.51100000000E-03 0. -1.
    9900012    2    1    2    0    0  0.11561256190E+02 -0.39738981929E+01  0.38777714666E+02  0.50528859991E+02  0.30000000428E+02 0.  0.
         12    1    1    2    0    0 -0.11561256190E+02  0.39738981929E+01 -0.38777714666E+02  0.40659140009E+02  0.00000000000E+00 0. -1.
         11    1    3    3    0    0  0.10353178263E+01 -0.85948596855E+01  0.15836668102E+02  0.18048367041E+02  0.51100000000E-03 0. -1.
        -11    1    3    3    0    0  0.86128237384E+01 -0.32083973703E+01  0.22618238111E+02  0.24414324524E+02  0.51100000000E-03 0.  1.
         12    1    3    3    0    0  0.19131146256E+01  0.78293588629E+01  0.32280845301E+00  0.80661684257E+01  0.00000000000E+00 0. -1.
</event>
<event>
 7    1  0.3331850E-011  0.5052886E+02  0.7816164E-02  0.1300439E+00
        -11   -1    0    0    0    0  0.00000000000E+00  0.00000000000E+00  0.45593999997E+02  0.45594000000E+02  0.51100000000E-03 0.  1.
         11   -1    0    0    0    0 -0.00000000000E+00 -0.00000000000E+00 -0.45593999997E+02  0.45594000000E+02  0.51100000000E-03 0. -1.
    9900012    2    1    2    0    0  0.23894647249E+02  0.14040328877E+02  0.29750303187E+02  0.50528861521E+02  0.30000005081E+02 0.  0.
         12    1    1    2    0    0 -0.23894647249E+02 -0.14040328877E+02 -0.29750303187E+02  0.40659138479E+02  0.00000000000E+00 0. -1.
         11    1    3    3    0    0  0.10406273640E+02 -0.11443308195E+01  0.14452528499E+02  0.17845884802E+02  0.51100000000E-03 0. -1.
        -11    1    3    3    0    0  0.65638662139E+01 -0.45319216403E+01  0.38802565054E+01  0.88701208693E+01  0.51100000000E-03 0.  1.
         12    1    3    3    0    0  0.69245073949E+01  0.19716581337E+02  0.11417518182E+02  0.23812855850E+02  0.00000000000E+00 0. -1.
</event>
<event>
 7    1  0.3331850E-011  0.5052886E+02  0.7816164E-02  0.1300439E+00
        -11   -1    0    0    0    0  0.00000000000E+00  0.00000000000E+00  0.45593999997E+02  0.45594000000E+02  0.51100000000E-03 0.  1.
         11   -1    0    0    0    0 -0.00000000000E+00 -0.00000000000E+00 -0.45593999997E+02  0.45594000000E+02  0.51100000000E-03 0. -1.
    9900012    2    1    2    0    0  0.37208883542E+02 -0.27784951009E+01  0.16153777854E+02  0.50528860948E+02  0.30000003338E+02 0.  0.
         12    1    1    2    0    0 -0.37208883542E+02  0.27784951009E+01 -0.16153777854E+02  0.40659139052E+02  0.00000000000E+00 0. -1.
         11    1    3    3    0    0  0.10860217726E+02 -0.82747929270E+01  0.72263044970E+01  0.15447847876E+02  0.51100000000E-03 0. -1.
        -11    1    3    3    0    0  0.12947429389E+02 -0.26435975205E+01 -0.49804743776E+01  0.14121956696E+02  0.51100000000E-03 0.  1.
         12    1    3    3    0    0  0.13401236427E+02  0.81398953466E+01  0.13907947734E+02  0.20959056377E+02  0.00000000000E+00 0. -1.
</event>
<event>
 7    1  0.3331850E-011  0.5052887E+02  0.7816164E-02  0.1300439E+00
        -11   -1    0    0    0    0  0.00000000000E+00  0.00000000000E+00  0.45593999997E+02  0.45594000000E+02  0.51100000000E-03 0.  1.
         11   -1    0    0    0    0 -0.00000000000E+00 -0.00000000000E+00 -0.45593999997E+02  0.45594000000E+02  0.51100000000E-03 0. -1.
    9900012    2    1    2    0    0 -0.87555021203E+01  0.30058367464E+02  0.25942257298E+02  0.50528868361E+02  0.30000025869E+02 0.  0.
         12    1    1    2    0    0  0.87555021203E+01 -0.30058367464E+02 -0.25942257298E+02  0.40659131639E+02  0.00000000000E+00 0. -1.
         11    1    3    3    0    0 -0.60152934128E+01 -0.14704834807E+01  0.28817290391E+01  0.68301126656E+01  0.51100000000E-03 0. -1.
        -11    1    3    3    0    0  0.65889156711E+01  0.90565150821E+01  0.17135569978E+01  0.11330072948E+02  0.51100000000E-03 0.  1.
         12    1    3    3    0    0 -0.93291243787E+01  0.22472335863E+02  0.21346971261E+02  0.32368682747E+02  0.00000000000E+00 0. -1.
</event>
<event>
 7    1  0.3331850E-011  0.5052885E+02  0.7816164E-02  0.1300439E+00
        -11   -1    0    0    0    0  0.00000000000E+00  0.00000000000E+00  0.45593999997E+02  0.45594000000E+02  0.51100000000E-03 0.  1.
         11   -1    0    0    0    0 -0.00000000000E+00 -0.00000000000E+00 -0.45593999997E+02  0.45594000000E+02  0.51100000000E-03 0. -1.
    9900012    2    1    2    0    0  0.31252927004E+02  0.19127772288E+02  0.17622422215E+02  0.50528845019E+02  0.29999954921E+02 0.  0.
         12    1    1    2    0    0 -0.31252927004E+02 -0.19127772288E+02 -0.17622422215E+02  0.40659154981E+02  0.00000000000E+00 0. -1.
         11    1    3    3    0    0 -0.74530685683E+00  0.42338244863E+01 -0.18093956844E+01  0.46641896505E+01  0.51100000000E-03 0. -1.
        -11    1    3    3    0    0  0.14355880938E+01  0.94423315014E+01  0.89743406913E+01  0.13105622017E+02  0.51100000000E-03 0.  1.
        -12    1    3    3    0    0  0.30562645767E+02  0.54516163006E+01  0.10457477208E+02  0.32759033351E+02  0.00000000000E+00 0.  1.
</event>
<event>
 7    1  0.3331850E-011  0.5052885E+02  0.7816164E-02  0.1300439E+00
        -11   -1    0    0    0    0  0.00000000000E+00  0.00000000000E+00  0.45593999997E+02  0.45594000000E+02  0.51100000000E-03 0.  1.
         11   -1    0    0    0    0 -0.00000000000E+00 -0.00000000000E+00 -0.45593999997E+02  0.45594000000E+02  0.51100000000E-03 0. -1.
    9900012    2    1    2    0    0  0.22071390464E+02  0.14361334474E+02  0.30980196054E+02  0.50528846634E+02  0.29999959827E+02 0.  0.
         12    1    1    2    0    0 -0.22071390464E+02 -0.14361334474E+02 -0.30980196054E+02  0.40659153366E+02  0.00000000000E+00 0. -1.
         11    1    3    3    0    0  0.17152597485E+02  0.13064369016E+02  0.42906646701E+01  0.21984065635E+02  0.51100000000E-03 0. -1.
        -11    1    3    3    0    0  0.35504951567E+01  0.50149190819E+01  0.15419104386E+02  0.16598319481E+02  0.51100000000E-03 0.  1.
        -12    1    3    3    0    0  0.13682978226E+01 -0.37179536236E+01  0.11270426998E+02  0.11946461518E+02  0.00000000000E+00 0.  1.
</event>
<event>
 7    1  0.3331850E-011  0.5052886E+02  0.7816164E-02  0.1300439E+00
        -11   -1    0    0    0    0  0.00000000000E+00  0.00000000000E+00  0.45593999997E+02  0.45594000000E+02  0.51100000000E-03 0.  1.
         11   -1    0    0    0    0 -0.00000000000E+00 -0.00000000000E+00 -0.45593999997E+02  0.45594000000E+02  0.51100000000E-03 0. -1.
    9900012    2    1    2    0    0  0.40684688052E+01 -0.32062883442E+02  0.24669512079E+02  0.50528858848E+02  0.29999996954E+02 0.  0.
         12    1    1    2    0    0 -0.40684688052E+01  0.32062883442E+02 -0.24669512079E+02  0.40659141152E+02  0.00000000000E+00 0. -1.
         11    1    3    3    0    0 -0.45772949990E+01  0.30627116688E+00  0.85197496874E+01  0.96763405549E+01  0.51100000000E-03 0. -1.
        -11    1    3    3    0    0 -0.45149452517E+01 -0.70920811513E+01  0.69450775591E+01  0.10904881854E+02  0.51100000000E-03 0.  1.
        -12    1    3    3    0    0  0.13160709056E+02 -0.25277073457E+02  0.92046848324E+01  0.29947636439E+02  0.00000000000E+00 0.  1.
</event>
<event>
 7    1  0.3331850E-011  0.5052887E+02  0.7816164E-02  0.1300439E+00
        -11   -1    0    0    0    0  0.00000000000E+00  0.00000000000E+00  0.45593999997E+02  0.45594000000E+02  0.51100000000E-03 0. -1.
         11   -1    0    0    0    0 -0.00000000000E+00 -0.00000000000E+00 -0.45593999997E+02  0.45594000000E+02  0.51100000000E-03 0.  1.
    9900012    2    1    2    0    0  0.14956914563E+02  0.41928941940E+01 -0.37574931684E+02  0.50528866389E+02  0.30000019875E+02 0.  0.
         12    1    1    2    0    0 -0.14956914563E+02 -0.41928941940E+01  0.37574931684E+02  0.40659133611E+02  0.00000000000E+00 0. -1.
         11    1    3    3    0    0  0.21517704023E+02  0.78446182372E+01 -0.30126547116E+02  0.37843869557E+02  0.51100000000E-03 0. -1.
        -11    1    3    3    0    0  0.15030316945E+01 -0.28742154468E+00 -0.10827897816E+01  0.18746064630E+01  0.51100000000E-03 0.  1.
         12    1    3    3    0    0 -0.80638211548E+01 -0.33643024985E+01 -0.63655947871E+01  0.10810390368E+02  0.00000000000E+00 0. -1.
</event>
<event>
 7    1  0.3331850E-011  0.5052885E+02  0.7816164E-02  0.1300439E+00
        -11   -1    0    0    0    0  0.00000000000E+00  0.00000000000E+00  0.45593999997E+02  0.45594000000E+02  0.51100000000E-03 0. -1.
         11   -1    0    0    0    0 -0.00000000000E+00 -0.00000000000E+00 -0.45593999997E+02  0.45594000000E+02  0.51100000000E-03 0.  1.
    9900012    2    1    2    0    0 -0.13190680508E+02  0.22526070899E+02 -0.31172881085E+02  0.50528850506E+02  0.29999971599E+02 0.  0.
         12    1    1    2    0    0  0.13190680508E+02 -0.22526070899E+02  0.31172881085E+02  0.40659149494E+02  0.00000000000E+00 0. -1.
         11    1    3    3    0    0 -0.14917414756E+00  0.17676090481E+02 -0.13150604691E+02  0.22031904857E+02  0.51100000000E-03 0. -1.
        -11    1    3    3    0    0  0.36199471334E+01  0.27248888296E+01 -0.11179308206E+01  0.46667768281E+01  0.51100000000E-03 0.  1.
        -12    1    3    3    0    0 -0.16661453494E+02  0.21250915886E+01 -0.16904345573E+02  0.23830168821E+02  0.00000000000E+00 0.  1.
</event>
<event>
 7    1  0.3331850E-011  0.5052882E+02  0.7816164E-02  0.1300439E+00
        -11   -1    0    0    0    0  0.00000000000E+00  0.00000000000E+00  0.45593999997E+02  0.45594000000E+02  0.51100000000E-03 0.  1.
         11   -1    0    0    0    0 -0.00000000000E+00 -0.00000000000E+00 -0.45593999997E+02  0.45594000000E+02  0.51100000000E-03 0. -1.
    9900012    2    1    2    0    0  0.23770481022E+02  0.19575296098E+02  0.26550720457E+02  0.50528822166E+02  0.29999885455E+02 0.  0.
         12    1    1    2    0    0 -0.23770481022E+02 -0.19575296098E+02 -0.26550720457E+02  0.40659177834E+02  0.00000000000E+00 0. -1.
         11    1    3    3    0    0  0.17188366149E+02  0.20971378973E+02  0.89251634873E+01  0.28546404510E+02  0.51100000000E-03 0. -1.
        -11    1    3    3    0    0  0.44169171604E+01  0.48255745634E+01  0.84234695979E+01  0.10665372352E+02  0.51100000000E-03 0.  1.
        -12    1    3    3    0    0  0.21651977128E+01 -0.62216574387E+01  0.92020873719E+01  0.11317045304E+02  0.00000000000E+00 0.  1.
</event>
<event>
 7    1  0.3331850E-011  0.5052886E+02  0.7816164E-02  0.1300439E+00
        -11   -1    0    0    0    0  0.00000000000E+00  0.00000000000E+00  0.45593999997E+02  0.45594000000E+02  0.51100000000E-03 0. -1.
         11   -1    0    0    0    0 -0.00000000000E+00 -0.00000000000E+00 -0.45593999997E+02  0.45594000000E+02  0.51100000000E-03 0.  1.
    9900012    2    1    2    0    0  0.24710210470E+02  0.10616478071E+02 -0.30493636935E+02  0.50528855867E+02  0.29999987893E+02 0.  0.
         12    1    1    2    0    0 -0.24710210470E+02 -0.10616478071E+02  0.30493636935E+02  0.40659144133E+02  0.00000000000E+00 0. -1.
         11    1    3    3    0    0  0.16824134145E+01  0.36185793423E+01 -0.12888354315E+02  0.13492009063E+02  0.51100000000E-03 0. -1.
        -11    1    3    3    0    0 -0.16551323157E+01 -0.17532095594E+01 -0.92332408706E+01  0.95428477918E+01  0.51100000000E-03 0.  1.
        -12    1    3    3    0    0  0.24682929371E+02  0.87511082879E+01 -0.83720417498E+01  0.27493999012E+02  0.00000000000E+00 0.  1.
</event>
<event>
 7    1  0.3331850E-011  0.5052886E+02  0.7816164E-02  0.1300439E+00
        -11   -1    0    0    0    0  0.00000000000E+00  0.00000000000E+00  0.45593999997E+02  0.45594000000E+02  0.51100000000E-03 0. -1.
         11   -1    0    0    0    0 -0.00000000000E+00 -0.00000000000E+00 -0.45593999997E+02  0.45594000000E+02  0.51100000000E-03 0.  1.
    9900012    2    1    2    0    0  0.37082963768E+02  0.16661973206E+02 -0.63106291423E+00  0.50528858429E+02  0.29999995680E+02 0.  0.
         12    1    1    2    0    0 -0.37082963768E+02 -0.16661973206E+02  0.63106291423E+00  0.40659141571E+02  0.00000000000E+00 0. -1.
         11    1    3    3    0    0  0.13813024888E+00 -0.23244054514E+01  0.27393605354E+01  0.35952798323E+01  0.51100000000E-03 0. -1.
        -11    1    3    3    0    0  0.15673688164E+02 -0.27932028564E+01  0.19122473001E+01  0.16035060738E+02  0.51100000000E-03 0.  1.
         12    1    3    3    0    0  0.21271145355E+02  0.21779581514E+02 -0.52826707498E+01  0.30898517859E+02  0.00000000000E+00 0. -1.
</event>
<event>
 7    1  0.3331850E-011  0.5052886E+02  0.7816164E-02  0.1300439E+00
        -11   -1    0    0    0    0  0.00000000000E+00  0.00000000000E+00  0.45593999997E+02  0.45594000000E+02  0.51100000000E-03 0.  1.
         11   -1    0    0    0    0 -0.00000000000E+00 -0.00000000000E+00 -0.45593999997E+02  0.45594000000E+02  0.51100000000E-03 0. -1.
    9900012    2    1    2    0    0 -0.40501811355E+02 -0.22242940000E+01  0.27966714051E+01  0.50528861079E+02  0.30000003737E+02 0.  0.
         12    1    1    2    0    0  0.40501811355E+02  0.22242940000E+01 -0.27966714051E+01  0.40659138921E+02  0.00000000000E+00 0. -1.
         11    1    3    3    0    0 -0.15393968819E+02  0.39039907113E+01  0.46769242866E+01  0.16555634706E+02  0.51100000000E-03 0. -1.
        -11    1    3    3    0    0 -0.28249628548E+02 -0.16206551652E+01 -0.26720717194E+01  0.28421963405E+02  0.51100000000E-03 0.  1.
        -12    1    3    3    0    0  0.31417860121E+01 -0.45076295461E+01  0.79181883781E+00  0.55512629683E+01  0.00000000000E+00 0.  1.
</event>
<event>
 7    1  0.3331850E-011  0.5052886E+02  0.7816164E-02  0.1300439E+00
        -11   -1    0    0    0    0  0.00000000000E+00  0.00000000000E+00  0.45593999997E+02  0.45594000000E+02  0.51100000000E-03 0.  1.
         11   -1    0    0    0    0 -0.00000000000E+00 -0.00000000000E+00 -0.45593999997E+02  0.45594000000E+02  0.51100000000E-03 0. -1.
    9900012    2    1    2    0    0  0.15678495096E+01  0.28129009794E+02  0.29316655166E+02  0.50528860632E+02  0.30000002376E+02 0.  0.
         12    1    1    2    0    0 -0.15678495096E+01 -0.28129009794E+02 -0.29316655166E+02  0.40659139368E+02  0.00000000000E+00 0. -1.
         11    1    3    3    0    0  0.10305596685E+01 -0.20949272240E+00  0.11395984443E+01  0.15506854312E+01  0.51100000000E-03 0. -1.
        -11    1    3    3    0    0  0.64049474716E+01  0.27748219864E+02  0.10514147695E+02  0.30356784411E+02  0.51100000000E-03 0.  1.
        -12    1    3    3    0    0 -0.58676576305E+01  0.59028265241E+00  0.17662909026E+02  0.18621390790E+02  0.00000000000E+00 0.  1.
</event>
<event>
 7    1  0.3331850E-011  0.5052885E+02  0.7816164E-02  0.1300439E+00
        -11   -1    0    0    0    0  0.00000000000E+00  0.00000000000E+00  0.45593999997E+02  0.45594000000E+02  0.51100000000E-03 0.  1.
         11   -1    0    0    0    0 -0.00000000000E+00 -0.00000000000E+00 -0.45593999997E+02  0.45594000000E+02  0.51100000000E-03 0. -1.
    9900012    2    1    2    0    0 -0.23640243716E+02  0.20092259706E+02  0.26279386185E+02  0.50528853904E+02  0.29999981926E+02 0.  0.
         12    1    1    2    0    0  0.23640243716E+02 -0.20092259706E+02 -0.26279386185E+02  0.40659146096E+02  0.00000000000E+00 0. -1.
         11    1    3    3    0    0  0.11765987616E+01 -0.23666675945E+01  0.72811963950E+01  0.77460519849E+01  0.51100000000E-03 0. -1.
        -11    1    3    3    0    0  0.10445963573E+01  0.39658092864E+01  0.82653074342E+01  0.92268159236E+01  0.51100000000E-03 0.  1.
        -12    1    3    3    0    0 -0.25861438834E+02  0.18493118014E+02  0.10732882356E+02  0.33555985995E+02  0.00000000000E+00 0.  1.
</event>
<event>
 7    1  0.3331850E-011  0.5052886E+02  0.7816164E-02  0.1300439E+00
        -11   -1    0    0    0    0  0.00000000000E+00  0.00000000000E+00  0.45593999997E+02  0.45594000000E+02  0.51100000000E-03 0.  1.
         11   -1    0    0    0    0 -0.00000000000E+00 -0.00000000000E+00 -0.45593999997E+02  0.45594000000E+02  0.51100000000E-03 0. -1.
    9900012    2    1    2    0    0 -0.10827958543E+02 -0.36923350872E+02  0.13137241121E+02  0.50528860436E+02  0.30000001781E+02 0.  0.
         12    1    1    2    0    0  0.10827958543E+02  0.36923350872E+02 -0.13137241121E+02  0.40659139564E+02  0.00000000000E+00 0. -1.
         11    1    3    3    0    0 -0.15729556796E+02 -0.14420917569E+02  0.64898672106E+01  0.22304712444E+02  0.51100000000E-03 0.  1.
        -11    1    3    3    0    0  0.54160094647E+00 -0.10913259342E+02  0.10602964214E+02  0.15225485589E+02  0.51100000000E-03 0. -1.
         12    1    3    3    0    0  0.43599973064E+01 -0.11589173961E+02 -0.39555903034E+01  0.12998662403E+02  0.00000000000E+00 0. -1.
</event>
<event>
 7    1  0.3331850E-011  0.5052888E+02  0.7816164E-02  0.1300439E+00
        -11   -1    0    0    0    0  0.00000000000E+00  0.00000000000E+00  0.45593999997E+02  0.45594000000E+02  0.51100000000E-03 0.  1.
         11   -1    0    0    0    0 -0.00000000000E+00 -0.00000000000E+00 -0.45593999997E+02  0.45594000000E+02  0.51100000000E-03 0. -1.
    9900012    2    1    2    0    0 -0.11206929446E+02  0.19499205551E+02  0.33872556543E+02  0.50528875914E+02  0.30000048827E+02 0.  0.
         12    1    1    2    0    0  0.11206929446E+02 -0.19499205551E+02 -0.33872556543E+02  0.40659124086E+02  0.00000000000E+00 0. -1.
         11    1    3    3    0    0  0.28478307701E+01 -0.20401456048E+01  0.37717660314E+01  0.51476745664E+01  0.51100000000E-03 0. -1.
        -11    1    3    3    0    0 -0.65149823042E+01 -0.76602472940E+00  0.17472203563E+02  0.18663056714E+02  0.51100000000E-03 0.  1.
         12    1    3    3    0    0 -0.75397779123E+01  0.22305375885E+02  0.12628586949E+02  0.26718144634E+02  0.00000000000E+00 0. -1.
</event>
<event>
 7    1  0.3331850E-011  0.5052886E+02  0.7816164E-02  0.1300439E+00
        -11   -1    0    0    0    0  0.00000000000E+00  0.00000000000E+00  0.45593999997E+02  0.45594000000E+02  0.51100000000E-03 0.  1.
         11   -1    0    0    0    0 -0.00000000000E+00 -0.00000000000E+00 -0.45593999997E+02  0.45594000000E+02  0.51100000000E-03 0. -1.
    9900012    2    1    2    0    0 -0.29713590817E+02  0.27237658806E+02 -0.53270755710E+01  0.50528864856E+02  0.30000015217E+02 0.  0.
         12    1    1    2    0    0  0.29713590817E+02 -0.27237658806E+02  0.53270755710E+01  0.40659135144E+02  0.00000000000E+00 0. -1.
         11    1    3    3    0    0 -0.16263579559E+01  0.10864933990E+02  0.74900964311E+00  0.11011487025E+02  0.51100000000E-03 0.  1.
        -11    1    3    3    0    0 -0.18725308501E+01  0.10125549021E+02  0.35635174131E+01  0.10896410940E+02  0.51100000000E-03 0. -1.
         12    1    3    3    0    0 -0.26214702011E+02  0.62471757956E+01 -0.96396026272E+01  0.28620966891E+02  0.00000000000E+00 0. -1.
</event>
<event>
 7    1  0.3331850E-011  0.5052886E+02  0.7816164E-02  0.1300439E+00
        -11   -1    0    0    0    0  0.00000000000E+00  0.00000000000E+00  0.45593999997E+02  0.45594000000E+02  0.51100000000E-03 0.  1.
         11   -1    0    0    0    0 -0.00000000000E+00 -0.00000000000E+00 -0.45593999997E+02  0.45594000000E+02  0.51100000000E-03 0. -1.
    9900012    2    1    2    0    0  0.35960016416E+02 -0.11390516795E+02  0.15175613070E+02  0.50528857295E+02  0.29999992234E+02 0.  0.
         12    1    1    2    0    0 -0.35960016416E+02  0.11390516795E+02 -0.15175613070E+02  0.40659142705E+02  0.00000000000E+00 0. -1.
         11    1    3    3    0    0  0.17173413338E+01  0.12066159226E+00  0.38638017254E+01  0.42299863488E+01  0.51100000000E-03 0. -1.
        -11    1    3    3    0    0  0.14779139647E+02 -0.15335319579E+01  0.18081397441E+02  0.23403239576E+02  0.51100000000E-03 0.  1.
        -12    1    3    3    0    0  0.19463535435E+02 -0.99776464296E+01 -0.67695860973E+01  0.22895631370E+02  0.00000000000E+00 0.  1.
</event>
<event>
 7    1  0.3331850E-011  0.5052886E+02  0.7816164E-02  0.1300439E+00
        -11   -1    0    0    0    0  0.00000000000E+00  0.00000000000E+00  0.45593999997E+02  0.45594000000E+02  0.51100000000E-03 0.  1.
         11   -1    0    0    0    0 -0.00000000000E+00 -0.00000000000E+00 -0.45593999997E+02  0.45594000000E+02  0.51100000000E-03 0. -1.
    9900012    2    1    2    0    0 -0.25867581464E+02  0.12868332913E+02  0.28608384423E+02  0.50528862994E+02  0.30000009558E+02 0.  0.
         12    1    1    2    0    0  0.25867581464E+02 -0.12868332913E+02 -0.28608384423E+02  0.40659137006E+02  0.00000000000E+00 0. -1.
         11    1    3    3    0    0 -0.22344861955E+02  0.71016249149E+01  0.17182998095E+02  0.29068563019E+02  0.51100000000E-03 0. -1.
        -11    1    3    3    0    0 -0.38105702501E+01  0.71268713152E+00  0.14850552705E+02  0.15348201344E+02  0.51100000000E-03 0.  1.
         12    1    3    3    0    0  0.28785074072E+00  0.50540208663E+01 -0.34251663776E+01  0.61120986314E+01  0.00000000000E+00 0. -1.
</event>
<event>
 7    1  0.3331850E-011  0.5052886E+02  0.7816164E-02  0.1300439E+00
        -11   -1    0    0    0    0  0.00000000000E+00  0.00000000000E+00  0.45593999997E+02  0.45594000000E+02  0.51100000000E-03 0. -1.
         11   -1    0    0    0    0 -0.00000000000E+00 -0.00000000000E+00 -0.45593999997E+02  0.45594000000E+02  0.51100000000E-03 0.  1.
    9900012    2    1    2    0    0 -0.17200975390E+02  0.28787255057E+01 -0.36728801678E+02  0.50528862188E+02  0.30000007106E+02 0.  0.
         12    1    1    2    0    0  0.17200975390E+02 -0.28787255057E+01  0.36728801678E+02  0.40659137812E+02  0.00000000000E+00 0. -1.
         11    1    3    3    0    0 -0.16798478843E+02  0.45426023595E+01 -0.29936563309E+02  0.34626896348E+02  0.51100000000E-03 0. -1.
        -11    1    3    3    0    0 -0.42942187702E+01  0.20738807288E+01 -0.89095176398E+01  0.10105483707E+02  0.51100000000E-03 0.  1.
         12    1    3    3    0    0  0.38917222229E+01 -0.37377575826E+01  0.21172792710E+01  0.57964821329E+01  0.00000000000E+00 0. -1.
</event>
<event>
 7    1  0.3331850E-011  0.5052885E+02  0.7816164E-02  0.1300439E+00
        -11   -1    0    0    0    0  0.00000000000E+00  0.00000000000E+00  0.45593999997E+02  0.45594000000E+02  0.51100000000E-03 0.  1.
         11   -1    0    0    0    0 -0.00000000000E+00 -0.00000000000E+00 -0.45593999997E+02  0.45594000000E+02  0.51100000000E-03 0. -1.
    9900012    2    1    2    0    0 -0.11351082501E+02  0.27077542507E+02  0.28126957364E+02  0.50528854501E+02  0.29999983740E+02 0.  0.
         12    1    1    2    0    0  0.11351082501E+02 -0.27077542507E+02 -0.28126957364E+02  0.40659145499E+02  0.00000000000E+00 0. -1.
         11    1    3    3    0    0  0.16524014247E+01 -0.38281971289E+01  0.22339758177E+01  0.47303458585E+01  0.51100000000E-03 0. -1.
        -11    1    3    3    0    0  0.26883814320E+01  0.14428678133E+02  0.71841440182E+01  0.16340932438E+02  0.51100000000E-03 0.  1.
        -12    1    3    3    0    0 -0.15691865358E+02  0.16477061503E+02  0.18708837528E+02  0.29457576204E+02  0.00000000000E+00 0.  1.
</event>
<event>
 7    1  0.3331850E-011  0.5052886E+02  0.7816164E-02  0.1300439E+00
        -11   -1    0    0    0    0  0.00000000000E+00  0.00000000000E+00  0.45593999997E+02  0.45594000000E+02  0.51100000000E-03 0. -1.
         11   -1    0    0    0    0 -0.00000000000E+00 -0.00000000000E+00 -0.45593999997E+02  0.45594000000E+02  0.51100000000E-03 0.  1.
    9900012    2    1    2    0    0 -0.40495948423E+02  0.36388977004E+01 -0.45119334065E-01  0.50528862640E+02  0.30000008480E+02 0.  0.
         12    1    1    2    0    0  0.40495948423E+02 -0.36388977004E+01  0.45119334065E-01  0.40659137360E+02  0.00000000000E+00 0. -1.
         11    1    3    3    0    0 -0.23871796940E+02  0.10450199924E+01  0.43269121469E+01  0.24283264297E+02  0.51100000000E-03 0. -1.
        -11    1    3    3    0    0 -0.67782365919E+01  0.10968221199E+02 -0.12931430955E+01  0.12958340438E+02  0.51100000000E-03 0.  1.
         12    1    3    3    0    0 -0.98459148908E+01 -0.83743434913E+01 -0.30788883855E+01  0.13287257905E+02  0.00000000000E+00 0. -1.
</event>
<event>
 7    1  0.3331850E-011  0.5052886E+02  0.7816164E-02  0.1300439E+00
        -11   -1    0    0    0    0  0.00000000000E+00  0.00000000000E+00  0.45593999997E+02  0.45594000000E+02  0.51100000000E-03 0. -1.
         11   -1    0    0    0    0 -0.00000000000E+00 -0.00000000000E+00 -0.45593999997E+02  0.45594000000E+02  0.51100000000E-03 0.  1.
    9900012    2    1    2    0    0 -0.24366174582E+01  0.69701116673E+01 -0.39983073486E+02  0.50528859248E+02  0.29999998171E+02 0.  0.
         12    1    1    2    0    0  0.24366174582E+01 -0.69701116673E+01  0.39983073486E+02  0.40659140752E+02  0.00000000000E+00 0. -1.
         11    1    3    3    0    0 -0.44227124767E+01  0.12569722242E+02 -0.19465934812E+02  0.23589847843E+02  0.51100000000E-03 0. -1.
        -11    1    3    3    0    0  0.20280549843E+01  0.39950644102E+01 -0.15453844133E+02  0.16090209613E+02  0.51100000000E-03 0.  1.
        -12    1    3    3    0    0 -0.41959965886E-01 -0.95946749851E+01 -0.50632945408E+01  0.10848801792E+02  0.00000000000E+00 0.  1.
</event>
<event>
 7    1  0.3331850E-011  0.5052885E+02  0.7816164E-02  0.1300439E+00
        -11   -1    0    0    0    0  0.00000000000E+00  0.00000000000E+00  0.45593999997E+02  0.45594000000E+02  0.51100000000E-03 0.  1.
         11   -1    0    0    0    0 -0.00000000000E+00 -0.00000000000E+00 -0.45593999997E+02  0.45594000000E+02  0.51100000000E-03 0. -1.
    9900012    2    1    2    0    0  0.11909614317E+02  0.44581651477E+01  0.38619320934E+02  0.50528854669E+02  0.29999984252E+02 0.  0.
         12    1    1    2    0    0 -0.11909614317E+02 -0.44581651477E+01 -0.38619320934E+02  0.40659145331E+02  0.00000000000E+00 0. -1.
         11    1    3    3    0    0  0.19834060968E+01  0.52810502539E+01  0.47985246823E+01  0.74060266618E+01  0.51100000000E-03 0. -1.
        -11    1    3    3    0    0 -0.70870517498E+01  0.30586111918E+01  0.43153956940E+01  0.88433051052E+01  0.51100000000E-03 0.  1.
        -12    1    3    3    0    0  0.17013259970E+02 -0.38814962980E+01  0.29505400557E+02  0.34279522902E+02  0.00000000000E+00 0.  1.
</event>
<event>
 7    1  0.3331850E-011  0.5052886E+02  0.7816164E-02  0.1300439E+00
        -11   -1    0    0    0    0  0.00000000000E+00  0.00000000000E+00  0.45593999997E+02  0.45594000000E+02  0.51100000000E-03 0.  1.
         11   -1    0    0    0    0 -0.00000000000E+00 -0.00000000000E+00 -0.45593999997E+02  0.45594000000E+02  0.51100000000E-03 0. -1.
    9900012    2    1    2    0    0  0.14015803403E+02  0.92806197659E+01  0.37021519621E+02  0.50528861257E+02  0.30000004276E+02 0.  0.
         12    1    1    2    0    0 -0.14015803403E+02 -0.92806197659E+01 -0.37021519621E+02  0.40659138743E+02  0.00000000000E+00 0. -1.
         11    1    3    3    0    0  0.31768537534E+01  0.26282175444E+01  0.46340485447E+01  0.62027682052E+01  0.51100000000E-03 0. -1.
        -11    1    3    3    0    0  0.12042598888E+02  0.11285282939E+02  0.35126980636E+02  0.38810907846E+02  0.51100000000E-03 0.  1.
         12    1    3    3    0    0 -0.12036492383E+01 -0.46328807171E+01 -0.27395095592E+01  0.55151852056E+01  0.00000000000E+00 0. -1.
</event>
<event>
 7    1  0.3331850E-011  0.5052885E+02  0.7816164E-02  0.1300439E+00
        -11   -1    0    0    0    0  0.00000000000E+00  0.00000000000E+00  0.45593999997E+02  0.45594000000E+02  0.51100000000E-03 0.  1.
         11   -1    0    0    0    0 -0.00000000000E+00 -0.00000000000E+00 -0.45593999997E+02  0.45594000000E+02  0.51100000000E-03 0. -1.
    9900012    2    1    2    0    0 -0.10088284924E+02 -0.38274843090E+02  0.92967185657E+01  0.50528854874E+02  0.29999984876E+02 0.  0.
         12    1    1    2    0    0  0.10088284924E+02  0.38274843090E+02 -0.92967185657E+01  0.40659145126E+02  0.00000000000E+00 0. -1.
         11    1    3    3    0    0 -0.67653638119E-01  0.14288613767E+01 -0.74715305479E+00  0.16138338815E+01  0.51100000000E-03 0. -1.
        -11    1    3    3    0    0 -0.15119443199E+02 -0.10968828262E+02  0.34375423706E+01  0.18992879031E+02  0.51100000000E-03 0.  1.
        -12    1    3    3    0    0  0.50988119130E+01 -0.28734876205E+02  0.66063292499E+01  0.29922141962E+02  0.00000000000E+00 0.  1.
</event>
<event>
 7    1  0.3331850E-011  0.5052884E+02  0.7816164E-02  0.1300439E+00
        -11   -1    0    0    0    0  0.00000000000E+00  0.00000000000E+00  0.45593999997E+02  0.45594000000E+02  0.51100000000E-03 0.  1.
         11   -1    0    0    0    0 -0.00000000000E+00 -0.00000000000E+00 -0.45593999997E+02  0.45594000000E+02  0.51100000000E-03 0. -1.
    9900012    2    1    2    0    0  0.36648499279E+02  0.17591566904E+02  0.76892025711E+00  0.50528844033E+02  0.29999951924E+02 0.  0.
         12    1    1    2    0    0 -0.36648499279E+02 -0.17591566904E+02 -0.76892025711E+00  0.40659155967E+02  0.00000000000E+00 0. -1.
         11    1    3    3    0    0  0.75779595888E+01  0.16052064326E+02 -0.11541322825E+01  0.17788374357E+02  0.51100000000E-03 0. -1.
        -11    1    3    3    0    0 -0.13580374252E+01  0.54329632858E+00  0.17687563880E+01  0.22951984599E+01  0.51100000000E-03 0.  1.
         12    1    3    3    0    0  0.30428577116E+02  0.99620624898E+00  0.15429615163E+00  0.30445271217E+02  0.00000000000E+00 0. -1.
</event>
<event>
 7    1  0.3331850E-011  0.5052885E+02  0.7816164E-02  0.1300439E+00
        -11   -1    0    0    0    0  0.00000000000E+00  0.00000000000E+00  0.45593999997E+02  0.45594000000E+02  0.51100000000E-03 0. -1.
         11   -1    0    0    0    0 -0.00000000000E+00 -0.00000000000E+00 -0.45593999997E+02  0.45594000000E+02  0.51100000000E-03 0.  1.
    9900012    2    1    2    0    0 -0.31864103290E+02  0.11650811414E+02 -0.22407673334E+02  0.50528852083E+02  0.29999976392E+02 0.  0.
         12    1    1    2    0    0  0.31864103290E+02 -0.11650811414E+02  0.22407673334E+02  0.40659147917E+02  0.00000000000E+00 0. -1.
         11    1    3    3    0    0  0.34901562786E+01  0.17446740065E+01 -0.51018462370E+01  0.64229209497E+01  0.51100000000E-03 0. -1.
        -11    1    3    3    0    0 -0.19384919740E+01  0.47455776104E+00 -0.78788148419E+01  0.81276490929E+01  0.51100000000E-03 0.  1.
        -12    1    3    3    0    0 -0.33415767594E+02  0.94315796462E+01 -0.94270122553E+01  0.35978282041E+02  0.00000000000E+00 0.  1.
</event>
<event>
 7    1  0.3331850E-011  0.5052897E+02  0.7816164E-02  0.1300438E+00
        -11   -1    0    0    0    0  0.00000000000E+00  0.00000000000E+00  0.45593999997E+02  0.45594000000E+02  0.51100000000E-03 0.  1.
         11   -1    0    0    0    0 -0.00000000000E+00 -0.00000000000E+00 -0.45593999997E+02  0.45594000000E+02  0.51100000000E-03 0. -1.
    9900012    2    1    2    0    0 -0.34298434542E+02  0.17876984417E+02  0.12537441092E+02  0.50528971323E+02  0.30000338830E+02 0.  0.
         12    1    1    2    0    0  0.34298434542E+02 -0.17876984417E+02 -0.12537441092E+02  0.40659028677E+02  0.00000000000E+00 0. -1.
         11    1    3    3    0    0 -0.99312484939E+00  0.25301303357E+01 -0.42042939872E+00  0.27503849953E+01  0.51100000000E-03 0. -1.
        -11    1    3    3    0    0 -0.87469101843E+01 -0.65361050085E+01  0.99073820529E+01  0.14743992874E+02  0.51100000000E-03 0.  1.
        -12    1    3    3    0    0 -0.24558399508E+02  0.21882959090E+02  0.30504884378E+01  0.33034593454E+02  0.00000000000E+00 0.  1.
</event>
<event>
 7    1  0.3331850E-011  0.5052886E+02  0.7816164E-02  0.1300439E+00
        -11   -1    0    0    0    0  0.00000000000E+00  0.00000000000E+00  0.45593999997E+02  0.45594000000E+02  0.51100000000E-03 0.  1.
         11   -1    0    0    0    0 -0.00000000000E+00 -0.00000000000E+00 -0.45593999997E+02  0.45594000000E+02  0.51100000000E-03 0. -1.
    9900012    2    1    2    0    0  0.32244532171E+02 -0.22995596280E+02  0.92010132361E+01  0.50528856529E+02  0.29999989907E+02 0.  0.
         12    1    1    2    0    0 -0.32244532171E+02  0.22995596280E+02 -0.92010132361E+01  0.40659143471E+02  0.00000000000E+00 0. -1.
         11    1    3    3    0    0  0.96528571456E+01  0.28780498660E+01 -0.53596576353E+01  0.11409940943E+02  0.51100000000E-03 0. -1.
        -11    1    3    3    0    0  0.16384696821E+02 -0.12163267176E+02  0.12495771672E+02  0.23927968327E+02  0.51100000000E-03 0.  1.
        -12    1    3    3    0    0  0.62069782041E+01 -0.13710378970E+02  0.20648991998E+01  0.15190947259E+02  0.00000000000E+00 0.  1.
</event>
<event>
 7    1  0.3331850E-011  0.5052886E+02  0.7816164E-02  0.1300439E+00
        -11   -1    0    0    0    0  0.00000000000E+00  0.00000000000E+00  0.45593999997E+02  0.45594000000E+02  0.51100000000E-03 0.  1.
         11   -1    0    0    0    0 -0.00000000000E+00 -0.00000000000E+00 -0.45593999997E+02  0.45594000000E+02  0.51100000000E-03 0. -1.
    9900012    2    1    2    0    0  0.22970373322E+02 -0.28702828681E+02 -0.17368809490E+02  0.50528856281E+02  0.29999989152E+02 0.  0.
         12    1    1    2    0    0 -0.22970373322E+02  0.28702828681E+02  0.17368809490E+02  0.40659143719E+02  0.00000000000E+00 0. -1.
         11    1    3    3    0    0 -0.31271344162E+01  0.17272810030E+01 -0.22103780142E+01  0.42009809029E+01  0.51100000000E-03 0. -1.
        -11    1    3    3    0    0  0.10030894525E+02 -0.77184370124E+01 -0.13429929577E+02  0.18454162771E+02  0.51100000000E-03 0.  1.
        -12    1    3    3    0    0  0.16066613213E+02 -0.22711672671E+02 -0.17285018989E+01  0.27873712607E+02  0.00000000000E+00 0.  1.
</event>
<event>
 7    1  0.3331850E-011  0.5052886E+02  0.7816164E-02  0.1300439E+00
        -11   -1    0    0    0    0  0.00000000000E+00  0.00000000000E+00  0.45593999997E+02  0.45594000000E+02  0.51100000000E-03 0.  1.
         11   -1    0    0    0    0 -0.00000000000E+00 -0.00000000000E+00 -0.45593999997E+02  0.45594000000E+02  0.51100000000E-03 0. -1.
    9900012    2    1    2    0    0 -0.22465809382E+02 -0.19558786048E+02  0.27675027185E+02  0.50528857946E+02  0.29999994214E+02 0.  0.
         12    1    1    2    0    0  0.22465809382E+02  0.19558786048E+02 -0.27675027185E+02  0.40659142054E+02  0.00000000000E+00 0. -1.
         11    1    3    3    0    0 -0.41843140778E+01  0.53901843270E+01  0.11105482413E+02  0.13034351203E+02  0.51100000000E-03 0. -1.
        -11    1    3    3    0    0 -0.77349287662E+01 -0.16137839321E+01  0.53142838188E+01  0.95223439533E+01  0.51100000000E-03 0.  1.
        -12    1    3    3    0    0 -0.10546566538E+02 -0.23335186442E+02  0.11255260953E+02  0.27972162790E+02  0.00000000000E+00 0.  1.
</event>
<event>
 7    1  0.3331850E-011  0.5052887E+02  0.7816164E-02  0.1300439E+00
        -11   -1    0    0    0    0  0.00000000000E+00  0.00000000000E+00  0.45593999997E+02  0.45594000000E+02  0.51100000000E-03 0.  1.
         11   -1    0    0    0    0 -0.00000000000E+00 -0.00000000000E+00 -0.45593999997E+02  0.45594000000E+02  0.51100000000E-03 0. -1.
    9900012    2    1    2    0    0  0.38356987778E+02  0.13117818165E+02 -0.31351247647E+01  0.50528872217E+02  0.30000037589E+02 0.  0.
         12    1    1    2    0    0 -0.38356987778E+02 -0.13117818165E+02  0.31351247647E+01  0.40659127783E+02  0.00000000000E+00 0. -1.
         11    1    3    3    0    0  0.64589732322E+01  0.14798547940E+02  0.43478727132E+01  0.16721822680E+02  0.51100000000E-03 0. -1.
        -11    1    3    3    0    0  0.20604943598E+02 -0.50876562421E+00 -0.78778163108E+00  0.20626273131E+02  0.51100000000E-03 0.  1.
        -12    1    3    3    0    0  0.11293070948E+02 -0.11719641508E+01 -0.66952158467E+01  0.13180776405E+02  0.00000000000E+00 0.  1.
</event>
<event>
 7    1  0.3331850E-011  0.5052884E+02  0.7816164E-02  0.1300439E+00
        -11   -1    0    0    0    0  0.00000000000E+00  0.00000000000E+00  0.45593999997E+02  0.45594000000E+02  0.51100000000E-03 0. -1.
         11   -1    0    0    0    0 -0.00000000000E+00 -0.00000000000E+00 -0.45593999997E+02  0.45594000000E+02  0.51100000000E-03 0.  1.
    9900012    2    1    2    0    0  0.26324855651E+02  0.69917639246E+01 -0.30187495449E+02  0.50528835359E+02  0.29999925556E+02 0.  0.
         12    1    1    2    0    0 -0.26324855651E+02 -0.69917639246E+01  0.30187495449E+02  0.40659164641E+02  0.00000000000E+00 0. -1.
         11    1    3    3    0    0  0.47375665407E+01  0.44607191154E+01 -0.17120156290E+02  0.18315084040E+02  0.51100000000E-03 0. -1.
        -11    1    3    3    0    0  0.16189409973E+01  0.40284743168E+01 -0.11307261795E+02  0.12112132134E+02  0.51100000000E-03 0.  1.
         12    1    3    3    0    0  0.19968348113E+02 -0.14974295076E+01 -0.17600773641E+01  0.20101619184E+02  0.00000000000E+00 0. -1.
</event>
<event>
 7    1  0.3331850E-011  0.5052886E+02  0.7816164E-02  0.1300439E+00
        -11   -1    0    0    0    0  0.00000000000E+00  0.00000000000E+00  0.45593999997E+02  0.45594000000E+02  0.51100000000E-03 0.  1.
         11   -1    0    0    0    0 -0.00000000000E+00 -0.00000000000E+00 -0.45593999997E+02  0.45594000000E+02  0.51100000000E-03 0. -1.
    9900012    2    1    2    0    0  0.30701555590E+02 -0.11347810876E+02  0.24120678969E+02  0.50528862266E+02  0.30000007344E+02 0.  0.
         12    1    1    2    0    0 -0.30701555590E+02  0.11347810876E+02 -0.24120678969E+02  0.40659137734E+02  0.00000000000E+00 0. -1.
         11    1    3    3    0    0  0.18883577455E+02 -0.86303776823E+00  0.71465503672E+01  0.20209094837E+02  0.51100000000E-03 0. -1.
        -11    1    3    3    0    0  0.20266900689E+01  0.18391488258E+01  0.14045449197E+02  0.14309597634E+02  0.51100000000E-03 0.  1.
        -12    1    3    3    0    0  0.97912880657E+01 -0.12323921934E+02  0.29286794048E+01  0.16010169795E+02  0.00000000000E+00 0.  1.
</event>
<event>
 7    1  0.3331850E-011  0.5052886E+02  0.7816164E-02  0.1300439E+00
        -11   -1    0    0    0    0  0.00000000000E+00  0.00000000000E+00  0.45593999997E+02  0.45594000000E+02  0.51100000000E-03 0.  1.
         11   -1    0    0    0    0 -0.00000000000E+00 -0.00000000000E+00 -0.45593999997E+02  0.45594000000E+02  0.51100000000E-03 0. -1.
    9900012    2    1    2    0    0 -0.36194665270E+01  0.97348627580E+00  0.40486011938E+02  0.50528863559E+02  0.30000011274E+02 0.  0.
         12    1    1    2    0    0  0.36194665270E+01 -0.97348627580E+00 -0.40486011938E+02  0.40659136441E+02  0.00000000000E+00 0. -1.
         11    1    3    3    0    0  0.66283285183E+01  0.94403924009E+01  0.18586566644E+02  0.21875013314E+02  0.51100000000E-03 0. -1.
        -11    1    3    3    0    0  0.43817123873E+00  0.20290996675E+01  0.78416230655E+01  0.81117379184E+01  0.51100000000E-03 0.  1.
        -12    1    3    3    0    0 -0.10685966284E+02 -0.10496005793E+02  0.14057822228E+02  0.20542112326E+02  0.00000000000E+00 0.  1.
</event>
<event>
 7    1  0.3331850E-011  0.5052888E+02  0.7816164E-02  0.1300439E+00
        -11   -1    0    0    0    0  0.00000000000E+00  0.00000000000E+00  0.45593999997E+02  0.45594000000E+02  0.51100000000E-03 0.  1.
         11   -1    0    0    0    0 -0.00000000000E+00 -0.00000000000E+00 -0.45593999997E+02  0.45594000000E+02  0.51100000000E-03 0. -1.
    9900012    2    1    2    0    0 -0.19999162406E+00  0.38571187959E+02  0.12860321283E+02  0.50528875554E+02  0.30000047734E+02 0.  0.
         12    1    1    2    0    0  0.19999162406E+00 -0.38571187959E+02 -0.12860321283E+02  0.40659124446E+02  0.00000000000E+00 0. -1.
         11    1    3    3    0    0 -0.38924202181E+01  0.15152916244E+02  0.74837733631E+01  0.17342683468E+02  0.51100000000E-03 0. -1.
        -11    1    3    3    0    0  0.35100449065E+01  0.20201961087E+02  0.13430682830E+02  0.24511688814E+02  0.51100000000E-03 0.  1.
        -12    1    3    3    0    0  0.18238368751E+00  0.32163106285E+01 -0.80541349103E+01  0.86745032723E+01  0.00000000000E+00 0.  1.
</event>
<event>
 7    1  0.4083085E-011  0.5052885E+02  0.7816164E-02  0.1300439E+00
        -11   -1    0    0    0    0  0.00000000000E+00  0.00000000000E+00  0.45593999997E+02  0.45594000000E+02  0.51100000000E-03 0.  1.
         11   -1    0    0    0    0 -0.00000000000E+00 -0.00000000000E+00 -0.45593999997E+02  0.45594000000E+02  0.51100000000E-03 0. -1.
    9900012    2    1    2    0    0 -0.35405407768E+02 -0.14554225029E+02 -0.13703949443E+02  0.50528848561E+02  0.29999965686E+02 0.  0.
         12    1    1    2    0    0  0.35405407768E+02  0.14554225029E+02  0.13703949443E+02  0.40659151439E+02  0.00000000000E+00 0. -1.
         11    1    3    3    0    0 -0.16742791290E+02  0.20252269507E+01 -0.10750668059E+02  0.19999986709E+02  0.51100000000E-03 0. -1.
        -11    1    3    3    0    0 -0.15760671983E+02 -0.28547826918E+01 -0.38458887570E+01  0.16472383742E+02  0.51100000000E-03 0.  1.
         12    1    3    3    0    0 -0.29019444950E+01 -0.13724669288E+02  0.89260737342E+00  0.14056478109E+02  0.00000000000E+00 0. -1.
</event>
<event>
 7    1  0.3331850E-011  0.5052886E+02  0.7816164E-02  0.1300439E+00
        -11   -1    0    0    0    0  0.00000000000E+00  0.00000000000E+00  0.45593999997E+02  0.45594000000E+02  0.51100000000E-03 0. -1.
         11   -1    0    0    0    0 -0.00000000000E+00 -0.00000000000E+00 -0.45593999997E+02  0.45594000000E+02  0.51100000000E-03 0.  1.
    9900012    2    1    2    0    0 -0.73410045484E+00 -0.38421160647E+01 -0.40470543136E+02  0.50528860547E+02  0.30000002120E+02 0.  0.
         12    1    1    2    0    0  0.73410045484E+00  0.38421160647E+01  0.40470543136E+02  0.40659139453E+02  0.00000000000E+00 0. -1.
         11    1    3    3    0    0  0.47996063080E+01 -0.26931866685E+01 -0.56887997282E+00  0.55329106109E+01  0.51100000000E-03 0. -1.
        -11    1    3    3    0    0  0.64968449135E+01 -0.17248720177E+01 -0.59707560630E+01  0.89907789169E+01  0.51100000000E-03 0.  1.
         12    1    3    3    0    0 -0.12030551676E+02  0.57594262147E+00 -0.33930907100E+02  0.36005171020E+02  0.00000000000E+00 0. -1.
</event>
<event>
 7    1  0.3331850E-011  0.5052885E+02  0.7816164E-02  0.1300439E+00
        -11   -1    0    0    0    0  0.00000000000E+00  0.00000000000E+00  0.45593999997E+02  0.45594000000E+02  0.51100000000E-03 0.  1.
         11   -1    0    0    0    0 -0.00000000000E+00 -0.00000000000E+00 -0.45593999997E+02  0.45594000000E+02  0.51100000000E-03 0. -1.
    9900012    2    1    2    0    0  0.27726619868E+02  0.67751059566E+00  0.29731158958E+02  0.50528852408E+02  0.29999977381E+02 0.  0.
         12    1    1    2    0    0 -0.27726619868E+02 -0.67751059566E+00 -0.29731158958E+02  0.40659147592E+02  0.00000000000E+00 0. -1.
         11    1    3    3    0    0 -0.26502912985E+01 -0.61975160668E+00  0.11276956164E+02  0.11600770518E+02  0.51100000000E-03 0. -1.
        -11    1    3    3    0    0  0.20761722843E+02 -0.41323632383E+01  0.18145234367E+02  0.27881447090E+02  0.51100000000E-03 0.  1.
         12    1    3    3    0    0  0.96151883237E+01  0.54296254406E+01  0.30896842632E+00  0.11046634800E+02  0.00000000000E+00 0. -1.
</event>
<event>
 7    1  0.3331850E-011  0.5052886E+02  0.7816164E-02  0.1300439E+00
        -11   -1    0    0    0    0  0.00000000000E+00  0.00000000000E+00  0.45593999997E+02  0.45594000000E+02  0.51100000000E-03 0.  1.
         11   -1    0    0    0    0 -0.00000000000E+00 -0.00000000000E+00 -0.45593999997E+02  0.45594000000E+02  0.51100000000E-03 0. -1.
    9900012    2    1    2    0    0 -0.31017976324E+02 -0.25385871840E+02  0.68270229635E+01  0.50528860968E+02  0.30000003399E+02 0.  0.
         12    1    1    2    0    0  0.31017976324E+02  0.25385871840E+02 -0.68270229635E+01  0.40659139032E+02  0.00000000000E+00 0. -1.
         11    1    3    3    0    0 -0.23282665680E+02 -0.12433969470E+02  0.14263172846E+02  0.30002070226E+02  0.51100000000E-03 0. -1.
        -11    1    3    3    0    0 -0.74209012681E+01 -0.35534149326E+01  0.46988560442E+00  0.82411968825E+01  0.51100000000E-03 0.  1.
         12    1    3    3    0    0 -0.31440937541E+00 -0.93984874370E+01 -0.79060354872E+01  0.12285593860E+02  0.00000000000E+00 0. -1.
</event>
<event>
 7    1  0.3331850E-011  0.5052886E+02  0.7816164E-02  0.1300439E+00
        -11   -1    0    0    0    0  0.00000000000E+00  0.00000000000E+00  0.45593999997E+02  0.45594000000E+02  0.51100000000E-03 0. -1.
         11   -1    0    0    0    0 -0.00000000000E+00 -0.00000000000E+00 -0.45593999997E+02  0.45594000000E+02  0.51100000000E-03 0.  1.
    9900012    2    1    2    0    0  0.36763362081E+02 -0.46880286053E+00 -0.17360897424E+02  0.50528864163E+02  0.30000013111E+02 0.  0.
         12    1    1    2    0    0 -0.36763362081E+02  0.46880286053E+00  0.17360897424E+02  0.40659135837E+02  0.00000000000E+00 0. -1.
         11    1    3    3    0    0  0.19479430395E+02 -0.24124798050E+01 -0.62332679700E+01  0.20594219994E+02  0.51100000000E-03 0. -1.
        -11    1    3    3    0    0  0.19697956650E+02 -0.36185573442E+01 -0.37340550025E+01  0.20372693009E+02  0.51100000000E-03 0.  1.
         12    1    3    3    0    0 -0.24140249642E+01  0.55622342886E+01 -0.73935744515E+01  0.95619511596E+01  0.00000000000E+00 0. -1.
</event>
<event>
 7    1  0.3331850E-011  0.5052887E+02  0.7816164E-02  0.1300439E+00
        -11   -1    0    0    0    0  0.00000000000E+00  0.00000000000E+00  0.45593999997E+02  0.45594000000E+02  0.51100000000E-03 0.  1.
         11   -1    0    0    0    0 -0.00000000000E+00 -0.00000000000E+00 -0.45593999997E+02  0.45594000000E+02  0.51100000000E-03 0. -1.
    9900012    2    1    2    0    0  0.10965802861E+02 -0.34668565993E+02  0.18193590921E+02  0.50528867557E+02  0.30000023428E+02 0.  0.
         12    1    1    2    0    0 -0.10965802861E+02  0.34668565993E+02 -0.18193590921E+02  0.40659132443E+02  0.00000000000E+00 0. -1.
         11    1    3    3    0    0  0.15793716711E+01 -0.80461201042E+01  0.88262113402E+01  0.12047259875E+02  0.51100000000E-03 0. -1.
        -11    1    3    3    0    0 -0.20339075994E+01 -0.21871832157E+02  0.13082280271E+02  0.25566772956E+02  0.51100000000E-03 0.  1.
         12    1    3    3    0    0  0.11420338789E+02 -0.47506137318E+01 -0.37149006902E+01  0.12914834727E+02  0.00000000000E+00 0. -1.
</event>
<event>
 7    1  0.3331850E-011  0.5052888E+02  0.7816164E-02  0.1300439E+00
        -11   -1    0    0    0    0  0.00000000000E+00  0.00000000000E+00  0.45593999997E+02  0.45594000000E+02  0.51100000000E-03 0. -1.
         11   -1    0    0    0    0 -0.00000000000E+00 -0.00000000000E+00 -0.45593999997E+02  0.45594000000E+02  0.51100000000E-03 0.  1.
    9900012    2    1    2    0    0  0.21619557078E+02  0.34077470315E+02  0.49482181880E+01  0.50528879319E+02  0.30000059179E+02 0.  0.
         12    1    1    2    0    0 -0.21619557078E+02 -0.34077470315E+02 -0.49482181880E+01  0.40659120681E+02  0.00000000000E+00 0. -1.
         11    1    3    3    0    0  0.33492879601E+00  0.13821461211E+01  0.32939931670E+01  0.35878818882E+01  0.51100000000E-03 0. -1.
        -11    1    3    3    0    0 -0.56450846744E+01  0.52482997205E+01  0.34553084121E+01  0.84469395299E+01  0.51100000000E-03 0.  1.
         12    1    3    3    0    0  0.26929712956E+02  0.27447024473E+02 -0.18010833911E+01  0.38494057901E+02  0.00000000000E+00 0. -1.
</event>
<event>
 7    1  0.3331850E-011  0.5052886E+02  0.7816164E-02  0.1300439E+00
        -11   -1    0    0    0    0  0.00000000000E+00  0.00000000000E+00  0.45593999997E+02  0.45594000000E+02  0.51100000000E-03 0.  1.
         11   -1    0    0    0    0 -0.00000000000E+00 -0.00000000000E+00 -0.45593999997E+02  0.45594000000E+02  0.51100000000E-03 0. -1.
    9900012    2    1    2    0    0 -0.18797037817E+02  0.18364602153E+02  0.31025453047E+02  0.50528856137E+02  0.29999988714E+02 0.  0.
         12    1    1    2    0    0  0.18797037817E+02 -0.18364602153E+02 -0.31025453047E+02  0.40659143863E+02  0.00000000000E+00 0. -1.
         11    1    3    3    0    0 -0.79829238388E+01  0.11651157935E+02  0.17251963090E+02  0.22295891661E+02  0.51100000000E-03 0. -1.
        -11    1    3    3    0    0 -0.16721866145E+02  0.75579751589E+01  0.12282407475E+02  0.22081696708E+02  0.51100000000E-03 0.  1.
         12    1    3    3    0    0  0.59077521673E+01 -0.84453094101E+00  0.14910824826E+01  0.61512677677E+01  0.00000000000E+00 0. -1.
</event>
<event>
 7    1  0.3331850E-011  0.5052886E+02  0.7816164E-02  0.1300439E+00
        -11   -1    0    0    0    0  0.00000000000E+00  0.00000000000E+00  0.45593999997E+02  0.45594000000E+02  0.51100000000E-03 0. -1.
         11   -1    0    0    0    0 -0.00000000000E+00 -0.00000000000E+00 -0.45593999997E+02  0.45594000000E+02  0.51100000000E-03 0.  1.
    9900012    2    1    2    0    0  0.20228716665E+01 -0.46209157927E+01 -0.40345019226E+02  0.50528862664E+02  0.30000008555E+02 0.  0.
         12    1    1    2    0    0 -0.20228716665E+01  0.46209157927E+01  0.40345019226E+02  0.40659137336E+02  0.00000000000E+00 0. -1.
         11    1    3    3    0    0  0.19280615261E+00  0.35687920557E+00  0.92621991815E+00  0.10111481483E+01  0.51100000000E-03 0. -1.
        -11    1    3    3    0    0 -0.82624939894E+01  0.72527716789E+01 -0.21723244011E+02  0.24346885521E+02  0.51100000000E-03 0.  1.
         12    1    3    3    0    0  0.10092559503E+02 -0.12230566677E+02 -0.19547995133E+02  0.25170828995E+02  0.00000000000E+00 0. -1.
</event>
<event>
 7    1  0.3331850E-011  0.5052887E+02  0.7816164E-02  0.1300439E+00
        -11   -1    0    0    0    0  0.00000000000E+00  0.00000000000E+00  0.45593999997E+02  0.45594000000E+02  0.51100000000E-03 0.  1.
         11   -1    0    0    0    0 -0.00000000000E+00 -0.00000000000E+00 -0.45593999997E+02  0.45594000000E+02  0.51100000000E-03 0. -1.
    9900012    2    1    2    0    0  0.14688830522E+02 -0.23178221692E+02  0.30002887731E+02  0.50528868491E+02  0.30000026265E+02 0.  0.
         12    1    1    2    0    0 -0.14688830522E+02  0.23178221692E+02 -0.30002887731E+02  0.40659131509E+02  0.00000000000E+00 0. -1.
         11    1    3    3    0    0  0.15314584524E+02 -0.15581473263E+01  0.99716103868E+01  0.18341137811E+02  0.51100000000E-03 0. -1.
        -11    1    3    3    0    0  0.43880071540E+01 -0.13512012432E+02  0.17063518218E+02  0.22203439846E+02  0.51100000000E-03 0.  1.
        -12    1    3    3    0    0 -0.50137611555E+01 -0.81080619328E+01  0.29677591259E+01  0.99842908341E+01  0.00000000000E+00 0.  1.
</event>
<event>
 7    1  0.3331850E-011  0.5052886E+02  0.7816164E-02  0.1300439E+00
        -11   -1    0    0    0    0  0.00000000000E+00  0.00000000000E+00  0.45593999997E+02  0.45594000000E+02  0.51100000000E-03 0.  1.
         11   -1    0    0    0    0 -0.00000000000E+00 -0.00000000000E+00 -0.45593999997E+02  0.45594000000E+02  0.51100000000E-03 0. -1.
    9900012    2    1    2    0    0 -0.31745802033E+02 -0.97547128458E+00  0.25385385586E+02  0.50528864590E+02  0.30000014408E+02 0.  0.
         12    1    1    2    0    0  0.31745802033E+02  0.97547128458E+00 -0.25385385586E+02  0.40659135410E+02  0.00000000000E+00 0. -1.
         11    1    3    3    0    0  0.14783032003E+01 -0.52926832786E+01  0.45461111838E+01  0.71319705409E+01  0.51100000000E-03 0. -1.
        -11    1    3    3    0    0 -0.11301335284E+02 -0.50721650083E+01  0.10952248532E+01  0.12435696796E+02  0.51100000000E-03 0.  1.
        -12    1    3    3    0    0 -0.21922769950E+02  0.93893770023E+01  0.19744049549E+02  0.30961197253E+02  0.00000000000E+00 0.  1.
</event>
<event>
 7    1  0.3331850E-011  0.5052886E+02  0.7816164E-02  0.1300439E+00
        -11   -1    0    0    0    0  0.00000000000E+00  0.00000000000E+00  0.45593999997E+02  0.45594000000E+02  0.51100000000E-03 0. -1.
         11   -1    0    0    0    0 -0.00000000000E+00 -0.00000000000E+00 -0.45593999997E+02  0.45594000000E+02  0.51100000000E-03 0.  1.
    9900012    2    1    2    0    0  0.33587404278E+02 -0.59433277334E+01 -0.22129809612E+02  0.50528863952E+02  0.30000012469E+02 0.  0.
         12    1    1    2    0    0 -0.33587404278E+02  0.59433277334E+01  0.22129809612E+02  0.40659136048E+02  0.00000000000E+00 0. -1.
         11    1    3    3    0    0  0.27597497013E+01 -0.76674792995E+01 -0.96834719557E+01  0.12656069161E+02  0.51100000000E-03 0. -1.
        -11    1    3    3    0    0 -0.51861527009E+00 -0.37073568221E+01 -0.91344877637E-01  0.37445694749E+01  0.51100000000E-03 0.  1.
         12    1    3    3    0    0  0.31346269847E+02  0.54315083882E+01 -0.12354992778E+02  0.34128225317E+02  0.00000000000E+00 0. -1.
</event>
<event>
 7    1  0.3331850E-011  0.5052886E+02  0.7816164E-02  0.1300439E+00
        -11   -1    0    0    0    0  0.00000000000E+00  0.00000000000E+00  0.45593999997E+02  0.45594000000E+02  0.51100000000E-03 0.  1.
         11   -1    0    0    0    0 -0.00000000000E+00 -0.00000000000E+00 -0.45593999997E+02  0.45594000000E+02  0.51100000000E-03 0. -1.
    9900012    2    1    2    0    0  0.19074376887E+02 -0.29427918652E+01  0.35786497745E+02  0.50528864514E+02  0.30000014177E+02 0.  0.
         12    1    1    2    0    0 -0.19074376887E+02  0.29427918652E+01 -0.35786497745E+02  0.40659135486E+02  0.00000000000E+00 0. -1.
         11    1    3    3    0    0  0.19952365788E+02 -0.41670658523E+01  0.18207500284E+02  0.27330832502E+02  0.51100000000E-03 0. -1.
        -11    1    3    3    0    0  0.60373829882E+01 -0.13146172538E+01  0.13333340654E+02  0.14695447768E+02  0.51100000000E-03 0.  1.
         12    1    3    3    0    0 -0.69153718892E+01  0.25388912409E+01  0.42456568076E+01  0.85025842440E+01  0.00000000000E+00 0. -1.
</event>
<event>
 7    1  0.3331850E-011  0.5052884E+02  0.7816164E-02  0.1300439E+00
        -11   -1    0    0    0    0  0.00000000000E+00  0.00000000000E+00  0.45593999997E+02  0.45594000000E+02  0.51100000000E-03 0. -1.
         11   -1    0    0    0    0 -0.00000000000E+00 -0.00000000000E+00 -0.45593999997E+02  0.45594000000E+02  0.51100000000E-03 0.  1.
    9900012    2    1    2    0    0 -0.25185136669E+02  0.15232994396E+02 -0.28050529448E+02  0.50528838307E+02  0.29999934518E+02 0.  0.
         12    1    1    2    0    0  0.25185136669E+02 -0.15232994396E+02  0.28050529448E+02  0.40659161693E+02  0.00000000000E+00 0. -1.
         11    1    3    3    0    0 -0.10083354609E+02 -0.56607386102E+01 -0.18325361761E+02  0.21668799822E+02  0.51100000000E-03 0. -1.
        -11    1    3    3    0    0 -0.12154570191E+00  0.25266544486E+01 -0.35648252360E+01  0.43711251738E+01  0.51100000000E-03 0.  1.
         12    1    3    3    0    0 -0.14980236358E+02  0.18367078558E+02 -0.61603424507E+01  0.24488913312E+02  0.00000000000E+00 0. -1.
</event>
<event>
 7    1  0.3331850E-011  0.5052886E+02  0.7816164E-02  0.1300439E+00
        -11   -1    0    0    0    0  0.00000000000E+00  0.00000000000E+00  0.45593999997E+02  0.45594000000E+02  0.51100000000E-03 0.  1.
         11   -1    0    0    0    0 -0.00000000000E+00 -0.00000000000E+00 -0.45593999997E+02  0.45594000000E+02  0.51100000000E-03 0. -1.
    9900012    2    1    2    0    0 -0.38511727459E+00  0.29618218051E+02  0.27852805387E+02  0.50528856824E+02  0.29999990803E+02 0.  0.
         12    1    1    2    0    0  0.38511727459E+00 -0.29618218051E+02 -0.27852805387E+02  0.40659143176E+02  0.00000000000E+00 0. -1.
         11    1    3    3    0    0 -0.70173779396E+01  0.42446999118E+00  0.89585125532E+00  0.70870528186E+01  0.51100000000E-03 0. -1.
        -11    1    3    3    0    0  0.10528896853E+01  0.10625467450E+02  0.20309903310E+02  0.22945616313E+02  0.51100000000E-03 0.  1.
        -12    1    3    3    0    0  0.55793709798E+01  0.18568280610E+02  0.66470508216E+01  0.20496187693E+02  0.00000000000E+00 0.  1.
</event>
<event>
 7    1  0.3331850E-011  0.5052888E+02  0.7816164E-02  0.1300439E+00
        -11   -1    0    0    0    0  0.00000000000E+00  0.00000000000E+00  0.45593999997E+02  0.45594000000E+02  0.51100000000E-03 0.  1.
         11   -1    0    0    0    0 -0.00000000000E+00 -0.00000000000E+00 -0.45593999997E+02  0.45594000000E+02  0.51100000000E-03 0. -1.
    9900012    2    1    2    0    0 -0.31795428290E+01  0.45891858732E+01  0.40273990428E+02  0.50528875261E+02  0.30000046843E+02 0.  0.
         12    1    1    2    0    0  0.31795428290E+01 -0.45891858732E+01 -0.40273990428E+02  0.40659124739E+02  0.00000000000E+00 0. -1.
         11    1    3    3    0    0  0.27579386834E+01 -0.30618605529E+01  0.20277827128E+02  0.20692305070E+02  0.51100000000E-03 0. -1.
        -11    1    3    3    0    0 -0.34805106691E+01 -0.15538236697E+00  0.21270553767E+02  0.21553991649E+02  0.51100000000E-03 0.  1.
         12    1    3    3    0    0 -0.24569708433E+01  0.78064287931E+01 -0.12743904674E+01  0.82825785411E+01  0.00000000000E+00 0. -1.
</event>
<event>
 7    1  0.3331850E-011  0.5052887E+02  0.7816164E-02  0.1300439E+00
        -11   -1    0    0    0    0  0.00000000000E+00  0.00000000000E+00  0.45593999997E+02  0.45594000000E+02  0.51100000000E-03 0. -1.
         11   -1    0    0    0    0 -0.00000000000E+00 -0.00000000000E+00 -0.45593999997E+02  0.45594000000E+02  0.51100000000E-03 0.  1.
    9900012    2    1    2    0    0 -0.10165061362E+02 -0.25437339970E+02 -0.30046271987E+02  0.50528865755E+02  0.30000017948E+02 0.  0.
         12    1    1    2    0    0  0.10165061362E+02  0.25437339970E+02  0.30046271987E+02  0.40659134245E+02  0.00000000000E+00 0. -1.
         11    1    3    3    0    0 -0.17452601791E+01 -0.29054914007E+01  0.12487222093E+01  0.36120798426E+01  0.51100000000E-03 0. -1.
        -11    1    3    3    0    0 -0.10234583203E+02 -0.21691128885E+02 -0.10764807099E+02  0.26289405428E+02  0.51100000000E-03 0.  1.
        -12    1    3    3    0    0  0.18147820194E+01 -0.84071968474E+00 -0.20530187098E+02  0.20627380484E+02  0.00000000000E+00 0.  1.
</event>
<event>
 7    1  0.3331850E-011  0.5052887E+02  0.7816164E-02  0.1300439E+00
        -11   -1    0    0    0    0  0.00000000000E+00  0.00000000000E+00  0.45593999997E+02  0.45594000000E+02  0.51100000000E-03 0.  1.
         11   -1    0    0    0    0 -0.00000000000E+00 -0.00000000000E+00 -0.45593999997E+02  0.45594000000E+02  0.51100000000E-03 0. -1.
    9900012    2    1    2    0    0  0.82185006737E+01  0.14564714388E+02  0.37060631595E+02  0.50528867290E+02  0.30000022613E+02 0.  0.
         12    1    1    2    0    0 -0.82185006737E+01 -0.14564714388E+02 -0.37060631595E+02  0.40659132710E+02  0.00000000000E+00 0. -1.
         11    1    3    3    0    0  0.58618239371E+01 -0.19946184200E+01 -0.19695884308E+01  0.64975965833E+01  0.51100000000E-03 0. -1.
        -11    1    3    3    0    0 -0.30265661421E+01  0.67818373935E+01  0.73766479770E+01  0.10467490467E+02  0.51100000000E-03 0.  1.
        -12    1    3    3    0    0  0.53832428787E+01  0.97774954149E+01  0.31653572049E+02  0.33563780239E+02  0.00000000000E+00 0.  1.
</event>
<event>
 7    1  0.3331850E-011  0.5052886E+02  0.7816164E-02  0.1300439E+00
        -11   -1    0    0    0    0  0.00000000000E+00  0.00000000000E+00  0.45593999997E+02  0.45594000000E+02  0.51100000000E-03 0.  1.
         11   -1    0    0    0    0 -0.00000000000E+00 -0.00000000000E+00 -0.45593999997E+02  0.45594000000E+02  0.51100000000E-03 0. -1.
    9900012    2    1    2    0    0  0.36048596776E+02  0.18449739894E+02  0.36430503980E+01  0.50528855298E+02  0.29999986163E+02 0.  0.
         12    1    1    2    0    0 -0.36048596776E+02 -0.18449739894E+02 -0.36430503980E+01  0.40659144702E+02  0.00000000000E+00 0. -1.
         11    1    3    3    0    0  0.11150351943E+02 -0.35369241379E-01  0.66345842796E+01  0.12974949259E+02  0.51100000000E-03 0. -1.
        -11    1    3    3    0    0  0.60484016079E+01  0.69763169063E+01  0.85942333763E+01  0.12614000443E+02  0.51100000000E-03 0.  1.
        -12    1    3    3    0    0  0.18849843225E+02  0.11508792229E+02 -0.11585767258E+02  0.24939905596E+02  0.00000000000E+00 0.  1.
</event>
<event>
 7    1  0.3331850E-011  0.5052885E+02  0.7816164E-02  0.1300439E+00
        -11   -1    0    0    0    0  0.00000000000E+00  0.00000000000E+00  0.45593999997E+02  0.45594000000E+02  0.51100000000E-03 0.  1.
         11   -1    0    0    0    0 -0.00000000000E+00 -0.00000000000E+00 -0.45593999997E+02  0.45594000000E+02  0.51100000000E-03 0. -1.
    9900012    2    1    2    0    0  0.26450581516E+02  0.10103513692E+02  0.29179653294E+02  0.50528850749E+02  0.29999972336E+02 0.  0.
         12    1    1    2    0    0 -0.26450581516E+02 -0.10103513692E+02 -0.29179653294E+02  0.40659149251E+02  0.00000000000E+00 0. -1.
         11    1    3    3    0    0  0.68859169850E+01 -0.46147866950E+01  0.13117394630E+02  0.15517027779E+02  0.51100000000E-03 0. -1.
        -11    1    3    3    0    0  0.15565677502E+02  0.10690262413E+02  0.20452111565E+02  0.27836323290E+02  0.51100000000E-03 0.  1.
         12    1    3    3    0    0  0.39989870284E+01  0.40280379742E+01 -0.43898529002E+01  0.71754996801E+01  0.00000000000E+00 0. -1.
</event>
<event>
 7    1  0.3331850E-011  0.5052889E+02  0.7816164E-02  0.1300439E+00
        -11   -1    0    0    0    0  0.00000000000E+00  0.00000000000E+00  0.45593999997E+02  0.45594000000E+02  0.51100000000E-03 0. -1.
         11   -1    0    0    0    0 -0.00000000000E+00 -0.00000000000E+00 -0.45593999997E+02  0.45594000000E+02  0.51100000000E-03 0.  1.
    9900012    2    1    2    0    0 -0.24717485841E+02 -0.10239889775E+02 -0.30616231538E+02  0.50528891765E+02  0.30000097009E+02 0.  0.
         12    1    1    2    0    0  0.24717485841E+02  0.10239889775E+02  0.30616231538E+02  0.40659108235E+02  0.00000000000E+00 0. -1.
         11    1    3    3    0    0 -0.52256438653E+01 -0.14751540487E+01  0.40344572204E+01  0.67646344024E+01  0.51100000000E-03 0. -1.
        -11    1    3    3    0    0  0.25040604495E+01  0.55175418085E+00 -0.17423828709E+01  0.31001047952E+01  0.51100000000E-03 0.  1.
        -12    1    3    3    0    0 -0.21995902425E+02 -0.93164899067E+01 -0.32908305887E+02  0.40664152568E+02  0.00000000000E+00 0.  1.
</event>
<event>
 7    1  0.3331850E-011  0.5052885E+02  0.7816164E-02  0.1300439E+00
        -11   -1    0    0    0    0  0.00000000000E+00  0.00000000000E+00  0.45593999997E+02  0.45594000000E+02  0.51100000000E-03 0.  1.
         11   -1    0    0    0    0 -0.00000000000E+00 -0.00000000000E+00 -0.45593999997E+02  0.45594000000E+02  0.51100000000E-03 0. -1.
    9900012    2    1    2    0    0 -0.20973163648E+02 -0.29032703364E-01  0.34832339936E+02  0.50528851685E+02  0.29999975181E+02 0.  0.
         12    1    1    2    0    0  0.20973163648E+02  0.29032703364E-01 -0.34832339936E+02  0.40659148315E+02  0.00000000000E+00 0. -1.
         11    1    3    3    0    0 -0.13961792554E+01 -0.43493651182E+01  0.36856792647E+01  0.58694569892E+01  0.51100000000E-03 0. -1.
        -11    1    3    3    0    0 -0.19870815963E+02 -0.58123254287E+01  0.14892440072E+02  0.25503278720E+02  0.51100000000E-03 0.  1.
        -12    1    3    3    0    0  0.29383157031E+00  0.10132657843E+02  0.16254220599E+02  0.19156115975E+02  0.00000000000E+00 0.  1.
</event>
<event>
 7    1  0.3331850E-011  0.5052886E+02  0.7816164E-02  0.1300439E+00
        -11   -1    0    0    0    0  0.00000000000E+00  0.00000000000E+00  0.45593999997E+02  0.45594000000E+02  0.51100000000E-03 0. -1.
         11   -1    0    0    0    0 -0.00000000000E+00 -0.00000000000E+00 -0.45593999997E+02  0.45594000000E+02  0.51100000000E-03 0.  1.
    9900012    2    1    2    0    0  0.11839701849E+02 -0.34416240838E+02 -0.18124828510E+02  0.50528861029E+02  0.30000003585E+02 0.  0.
         12    1    1    2    0    0 -0.11839701849E+02  0.34416240838E+02  0.18124828510E+02  0.40659138971E+02  0.00000000000E+00 0. -1.
         11    1    3    3    0    0 -0.34693928194E+01  0.54249780180E+00 -0.84797668481E-01  0.35125747403E+01  0.51100000000E-03 0. -1.
        -11    1    3    3    0    0 -0.13918399972E+00 -0.21736192103E+02 -0.34959355830E+01  0.22015971139E+02  0.51100000000E-03 0.  1.
        -12    1    3    3    0    0  0.15448278668E+02 -0.13222546537E+02 -0.14544095258E+02  0.25000315150E+02  0.00000000000E+00 0.  1.
</event>
<event>
 7    1  0.3331850E-011  0.5052886E+02  0.7816164E-02  0.1300439E+00
        -11   -1    0    0    0    0  0.00000000000E+00  0.00000000000E+00  0.45593999997E+02  0.45594000000E+02  0.51100000000E-03 0. -1.
         11   -1    0    0    0    0 -0.00000000000E+00 -0.00000000000E+00 -0.45593999997E+02  0.45594000000E+02  0.51100000000E-03 0.  1.
    9900012    2    1    2    0    0 -0.25760917550E+02 -0.12148729664E+02 -0.29016355531E+02  0.50528863342E+02  0.30000010613E+02 0.  0.
         12    1    1    2    0    0  0.25760917550E+02  0.12148729664E+02  0.29016355531E+02  0.40659136658E+02  0.00000000000E+00 0. -1.
         11    1    3    3    0    0  0.18361953112E+01 -0.18882800693E+01  0.35988939976E+01  0.44597368878E+01  0.51100000000E-03 0. -1.
        -11    1    3    3    0    0 -0.49998073479E+01  0.32209485526E+01 -0.85195474962E+01  0.10390152689E+02  0.51100000000E-03 0.  1.
         12    1    3    3    0    0 -0.22597305514E+02 -0.13481398147E+02 -0.24095702033E+02  0.35678973765E+02  0.00000000000E+00 0. -1.
</event>
<event>
 7    1  0.3331850E-011  0.5052888E+02  0.7816164E-02  0.1300439E+00
        -11   -1    0    0    0    0  0.00000000000E+00  0.00000000000E+00  0.45593999997E+02  0.45594000000E+02  0.51100000000E-03 0.  1.
         11   -1    0    0    0    0 -0.00000000000E+00 -0.00000000000E+00 -0.45593999997E+02  0.45594000000E+02  0.51100000000E-03 0. -1.
    9900012    2    1    2    0    0  0.28540640859E+02 -0.25122126626E+00  0.28957428806E+02  0.50528880779E+02  0.30000063617E+02 0.  0.
         12    1    1    2    0    0 -0.28540640859E+02  0.25122126626E+00 -0.28957428806E+02  0.40659119221E+02  0.00000000000E+00 0. -1.
         11    1    3    3    0    0  0.69926950667E+01 -0.46622989170E+01 -0.22301300451E+01  0.86953030865E+01  0.51100000000E-03 0. -1.
        -11    1    3    3    0    0  0.65920922161E+01  0.50280890045E+01  0.12796433257E+01  0.83889716965E+01  0.51100000000E-03 0.  1.
        -12    1    3    3    0    0  0.14955853576E+02 -0.61701135376E+00  0.29907915525E+02  0.33444605996E+02  0.00000000000E+00 0.  1.
</event>
<event>
 7    1  0.3331850E-011  0.5052884E+02  0.7816164E-02  0.1300439E+00
        -11   -1    0    0    0    0  0.00000000000E+00  0.00000000000E+00  0.45593999997E+02  0.45594000000E+02  0.51100000000E-03 0. -1.
         11   -1    0    0    0    0 -0.00000000000E+00 -0.00000000000E+00 -0.45593999997E+02  0.45594000000E+02  0.51100000000E-03 0.  1.
    9900012    2    1    2    0    0 -0.37035714148E+01  0.27877816785E+02 -0.29364570658E+02  0.50528842116E+02  0.29999946096E+02 0.  0.
         12    1    1    2    0    0  0.37035714148E+01 -0.27877816785E+02  0.29364570658E+02  0.40659157884E+02  0.00000000000E+00 0. -1.
         11    1    3    3    0    0  0.36217039860E+01 -0.82963845334E+00 -0.39970189695E+01  0.54572154648E+01  0.51100000000E-03 0. -1.
        -11    1    3    3    0    0  0.30576951111E+01  0.25807122460E+02 -0.21108981114E+02  0.33480533941E+02  0.51100000000E-03 0.  1.
        -12    1    3    3    0    0 -0.10382970512E+02  0.29003327783E+01 -0.42585705747E+01  0.11591092710E+02  0.00000000000E+00 0.  1.
</event>
<event>
 7    1  0.3331850E-011  0.5052882E+02  0.7816164E-02  0.1300439E+00
        -11   -1    0    0    0    0  0.00000000000E+00  0.00000000000E+00  0.45593999997E+02  0.45594000000E+02  0.51100000000E-03 0. -1.
         11   -1    0    0    0    0 -0.00000000000E+00 -0.00000000000E+00 -0.45593999997E+02  0.45594000000E+02  0.51100000000E-03 0.  1.
    9900012    2    1    2    0    0  0.30418000042E+02 -0.23000298204E+02 -0.14103197951E+02  0.50528823465E+02  0.29999889405E+02 0.  0.
         12    1    1    2    0    0 -0.30418000042E+02  0.23000298204E+02  0.14103197951E+02  0.40659176535E+02  0.00000000000E+00 0. -1.
         11    1    3    3    0    0  0.16607492914E+02 -0.24595380648E+01 -0.12712143360E+02  0.21058412510E+02  0.51100000000E-03 0.  1.
        -11    1    3    3    0    0  0.78587114890E+01 -0.10490491971E+02  0.72147961769E+01  0.14962053742E+02  0.51100000000E-03 0. -1.
         12    1    3    3    0    0  0.59517956395E+01 -0.10050268168E+02 -0.86058507680E+01  0.14508357213E+02  0.00000000000E+00 0. -1.
</event>
<event>
 7    1  0.3331850E-011  0.5052885E+02  0.7816164E-02  0.1300439E+00
        -11   -1    0    0    0    0  0.00000000000E+00  0.00000000000E+00  0.45593999997E+02  0.45594000000E+02  0.51100000000E-03 0.  1.
         11   -1    0    0    0    0 -0.00000000000E+00 -0.00000000000E+00 -0.45593999997E+02  0.45594000000E+02  0.51100000000E-03 0. -1.
    9900012    2    1    2    0    0 -0.29591014783E+02 -0.24264671948E+02  0.13739138414E+02  0.50528851153E+02  0.29999973565E+02 0.  0.
         12    1    1    2    0    0  0.29591014783E+02  0.24264671948E+02 -0.13739138414E+02  0.40659148847E+02  0.00000000000E+00 0. -1.
         11    1    3    3    0    0 -0.18915664386E+02 -0.18540882412E+02  0.81011367586E+01  0.27698286893E+02  0.51100000000E-03 0. -1.
        -11    1    3    3    0    0 -0.11247726998E+02 -0.79202762509E+01  0.10604835387E+02  0.17369648020E+02  0.51100000000E-03 0.  1.
         12    1    3    3    0    0  0.57237660185E+00  0.21964867152E+01 -0.49668337307E+01  0.54609162393E+01  0.00000000000E+00 0. -1.
</event>
<event>
 7    1  0.3331850E-011  0.5052885E+02  0.7816164E-02  0.1300439E+00
        -11   -1    0    0    0    0  0.00000000000E+00  0.00000000000E+00  0.45593999997E+02  0.45594000000E+02  0.51100000000E-03 0. -1.
         11   -1    0    0    0    0 -0.00000000000E+00 -0.00000000000E+00 -0.45593999997E+02  0.45594000000E+02  0.51100000000E-03 0.  1.
    9900012    2    1    2    0    0  0.32705506349E+02 -0.18197670340E+01 -0.24087436287E+02  0.50528852389E+02  0.29999977320E+02 0.  0.
         12    1    1    2    0    0 -0.32705506349E+02  0.18197670340E+01  0.24087436287E+02  0.40659147611E+02  0.00000000000E+00 0. -1.
         11    1    3    3    0    0  0.66013494263E+01 -0.32169859955E+01 -0.67959465649E+01  0.10005583597E+02  0.51100000000E-03 0. -1.
        -11    1    3    3    0    0  0.25150974121E+02 -0.85935493892E+01 -0.13325055687E+02  0.29731762472E+02  0.51100000000E-03 0.  1.
        -12    1    3    3    0    0  0.95318280133E+00  0.99907683508E+01 -0.39664340358E+01  0.10791506320E+02  0.00000000000E+00 0.  1.
</event>
<event>
 7    1  0.3331850E-011  0.5052884E+02  0.7816164E-02  0.1300439E+00
        -11   -1    0    0    0    0  0.00000000000E+00  0.00000000000E+00  0.45593999997E+02  0.45594000000E+02  0.51100000000E-03 0. -1.
         11   -1    0    0    0    0 -0.00000000000E+00 -0.00000000000E+00 -0.45593999997E+02  0.45594000000E+02  0.51100000000E-03 0.  1.
    9900012    2    1    2    0    0 -0.15614531552E+01 -0.25633334775E+02 -0.31522398482E+02  0.50528836289E+02  0.29999928384E+02 0.  0.
         12    1    1    2    0    0  0.15614531552E+01  0.25633334775E+02  0.31522398482E+02  0.40659163711E+02  0.00000000000E+00 0. -1.
         11    1    3    3    0    0 -0.17058542996E+01 -0.57556466798E+01 -0.46162527641E+01  0.75727932388E+01  0.51100000000E-03 0.  1.
        -11    1    3    3    0    0 -0.51942927771E+00 -0.26021120338E+02 -0.25859204948E+02  0.36688785633E+02  0.51100000000E-03 0. -1.
         12    1    3    3    0    0  0.66383042211E+00  0.61434322432E+01 -0.10469407690E+01  0.62672574169E+01  0.00000000000E+00 0. -1.
</event>
<event>
 7    1  0.3331850E-011  0.5052887E+02  0.7816164E-02  0.1300439E+00
        -11   -1    0    0    0    0  0.00000000000E+00  0.00000000000E+00  0.45593999997E+02  0.45594000000E+02  0.51100000000E-03 0.  1.
         11   -1    0    0    0    0 -0.00000000000E+00 -0.00000000000E+00 -0.45593999997E+02  0.45594000000E+02  0.51100000000E-03 0. -1.
    9900012    2    1    2    0    0  0.10881491826E+02  0.29730538050E+02  0.25511830152E+02  0.50528865297E+02  0.30000016557E+02 0.  0.
         12    1    1    2    0    0 -0.10881491826E+02 -0.29730538050E+02 -0.25511830152E+02  0.40659134703E+02  0.00000000000E+00 0. -1.
         11    1    3    3    0    0 -0.20948622040E+01  0.71595408748E+01 -0.10782583831E+01  0.75372484763E+01  0.51100000000E-03 0. -1.
        -11    1    3    3    0    0  0.11608119053E+02  0.45262625611E+00  0.94885031883E+01  0.14999499708E+02  0.51100000000E-03 0.  1.
        -12    1    3    3    0    0  0.13682349766E+01  0.22118370919E+02  0.17101585347E+02  0.27992117113E+02  0.00000000000E+00 0.  1.
</event>
<event>
 7    1  0.3331850E-011  0.5052886E+02  0.7816164E-02  0.1300439E+00
        -11   -1    0    0    0    0  0.00000000000E+00  0.00000000000E+00  0.45593999997E+02  0.45594000000E+02  0.51100000000E-03 0.  1.
         11   -1    0    0    0    0 -0.00000000000E+00 -0.00000000000E+00 -0.45593999997E+02  0.45594000000E+02  0.51100000000E-03 0. -1.
    9900012    2    1    2    0    0  0.23527099189E+02 -0.13347095271E+02  0.30356158973E+02  0.50528859133E+02  0.29999997820E+02 0.  0.
         12    1    1    2    0    0 -0.23527099189E+02  0.13347095271E+02 -0.30356158973E+02  0.40659140867E+02  0.00000000000E+00 0. -1.
         11    1    3    3    0    0  0.79240057747E+01  0.58261723697E+00  0.20256272646E+02  0.21758811827E+02  0.51100000000E-03 0.  1.
        -11    1    3    3    0    0  0.44658735203E+01 -0.76206115602E+00  0.10588636936E+02  0.11517117519E+02  0.51100000000E-03 0. -1.
         12    1    3    3    0    0  0.11137219894E+02 -0.13167651352E+02 -0.48875060859E+00  0.17252929787E+02  0.00000000000E+00 0. -1.
</event>
<event>
 7    1  0.3331850E-011  0.5052888E+02  0.7816164E-02  0.1300439E+00
        -11   -1    0    0    0    0  0.00000000000E+00  0.00000000000E+00  0.45593999997E+02  0.45594000000E+02  0.51100000000E-03 0.  1.
         11   -1    0    0    0    0 -0.00000000000E+00 -0.00000000000E+00 -0.45593999997E+02  0.45594000000E+02  0.51100000000E-03 0. -1.
    9900012    2    1    2    0    0  0.20314544649E+02 -0.47079125216E+01  0.34904420623E+02  0.50528883634E+02  0.30000072295E+02 0.  0.
         12    1    1    2    0    0 -0.20314544649E+02  0.47079125216E+01 -0.34904420623E+02  0.40659116366E+02  0.00000000000E+00 0. -1.
         11    1    3    3    0    0  0.12782773132E+02 -0.14926119713E+01  0.66512461909E+01  0.14486761391E+02  0.51100000000E-03 0. -1.
        -11    1    3    3    0    0  0.96059697671E-02 -0.41764147474E+01 -0.21570965658E+01  0.47005955232E+01  0.51100000000E-03 0.  1.
         12    1    3    3    0    0  0.75221655475E+01  0.96111419717E+00  0.30410270998E+02  0.31341526720E+02  0.00000000000E+00 0. -1.
</event>
<event>
 7    1  0.3331850E-011  0.5052888E+02  0.7816164E-02  0.1300439E+00
        -11   -1    0    0    0    0  0.00000000000E+00  0.00000000000E+00  0.45593999997E+02  0.45594000000E+02  0.51100000000E-03 0. -1.
         11   -1    0    0    0    0 -0.00000000000E+00 -0.00000000000E+00 -0.45593999997E+02  0.45594000000E+02  0.51100000000E-03 0.  1.
    9900012    2    1    2    0    0 -0.37016520987E+02  0.99871129061E+01 -0.13535097389E+02  0.50528879111E+02  0.30000058544E+02 0.  0.
         12    1    1    2    0    0  0.37016520987E+02 -0.99871129061E+01  0.13535097389E+02  0.40659120889E+02  0.00000000000E+00 0. -1.
         11    1    3    3    0    0  0.13982745323E+01  0.14382445639E+01  0.19361106216E+01  0.27878744042E+01  0.51100000000E-03 0. -1.
        -11    1    3    3    0    0 -0.20736937407E+02  0.59917253685E+00 -0.18891680780E+02  0.28058424469E+02  0.51100000000E-03 0.  1.
         12    1    3    3    0    0 -0.17677858112E+02  0.79496958054E+01  0.34204727687E+01  0.19682580237E+02  0.00000000000E+00 0. -1.
</event>
<event>
 7    1  0.3331850E-011  0.5052886E+02  0.7816164E-02  0.1300439E+00
        -11   -1    0    0    0    0  0.00000000000E+00  0.00000000000E+00  0.45593999997E+02  0.45594000000E+02  0.51100000000E-03 0. -1.
         11   -1    0    0    0    0 -0.00000000000E+00 -0.00000000000E+00 -0.45593999997E+02  0.45594000000E+02  0.51100000000E-03 0.  1.
    9900012    2    1    2    0    0  0.25231434543E+02  0.12449623282E+01 -0.31858914232E+02  0.50528860359E+02  0.30000001549E+02 0.  0.
         12    1    1    2    0    0 -0.25231434543E+02 -0.12449623282E+01  0.31858914232E+02  0.40659139641E+02  0.00000000000E+00 0. -1.
         11    1    3    3    0    0  0.19890455805E+01  0.26300464324E+01  0.19893050876E+01  0.38510753759E+01  0.51100000000E-03 0. -1.
        -11    1    3    3    0    0  0.62155869560E+01 -0.82925314957E+01 -0.30293809791E+01  0.10797071325E+02  0.51100000000E-03 0.  1.
         12    1    3    3    0    0  0.17026802006E+02  0.69074473915E+01 -0.30818838340E+02  0.35880713659E+02  0.00000000000E+00 0. -1.
</event>
<event>
 7    1  0.3331850E-011  0.5052886E+02  0.7816164E-02  0.1300439E+00
        -11   -1    0    0    0    0  0.00000000000E+00  0.00000000000E+00  0.45593999997E+02  0.45594000000E+02  0.51100000000E-03 0. -1.
         11   -1    0    0    0    0 -0.00000000000E+00 -0.00000000000E+00 -0.45593999997E+02  0.45594000000E+02  0.51100000000E-03 0.  1.
    9900012    2    1    2    0    0  0.21194842240E+02 -0.31522816120E+02  0.14500230976E+02  0.50528856230E+02  0.29999988997E+02 0.  0.
         12    1    1    2    0    0 -0.21194842240E+02  0.31522816120E+02 -0.14500230976E+02  0.40659143770E+02  0.00000000000E+00 0. -1.
         11    1    3    3    0    0  0.10030534087E+02 -0.17701763686E+02 -0.46640827862E+01  0.20873852547E+02  0.51100000000E-03 0. -1.
        -11    1    3    3    0    0  0.57824250987E+01 -0.11436889342E+02  0.40585334352E+01  0.13442863227E+02  0.51100000000E-03 0.  1.
         12    1    3    3    0    0  0.53818830551E+01 -0.23841630921E+01  0.15105780327E+02  0.16212140456E+02  0.00000000000E+00 0. -1.
</event>
<event>
 7    1  0.3331850E-011  0.5052886E+02  0.7816164E-02  0.1300439E+00
        -11   -1    0    0    0    0  0.00000000000E+00  0.00000000000E+00  0.45593999997E+02  0.45594000000E+02  0.51100000000E-03 0. -1.
         11   -1    0    0    0    0 -0.00000000000E+00 -0.00000000000E+00 -0.45593999997E+02  0.45594000000E+02  0.51100000000E-03 0.  1.
    9900012    2    1    2    0    0  0.35983910521E+02 -0.17641872829E+02 -0.68620734602E+01  0.50528861477E+02  0.30000004944E+02 0.  0.
         12    1    1    2    0    0 -0.35983910521E+02  0.17641872829E+02  0.68620734602E+01  0.40659138523E+02  0.00000000000E+00 0. -1.
         11    1    3    3    0    0  0.22569598415E+02 -0.87281346179E+01 -0.36165967630E+01  0.24467261370E+02  0.51100000000E-03 0. -1.
        -11    1    3    3    0    0  0.81421037671E+01 -0.15440607618E+02 -0.18097070785E+01  0.17549394786E+02  0.51100000000E-03 0.  1.
         12    1    3    3    0    0  0.52722083385E+01  0.65268694075E+01 -0.14357696187E+01  0.85122053209E+01  0.00000000000E+00 0. -1.
</event>
<event>
 7    1  0.3331850E-011  0.5052886E+02  0.7816164E-02  0.1300439E+00
        -11   -1    0    0    0    0  0.00000000000E+00  0.00000000000E+00  0.45593999997E+02  0.45594000000E+02  0.51100000000E-03 0.  1.
         11   -1    0    0    0    0 -0.00000000000E+00 -0.00000000000E+00 -0.45593999997E+02  0.45594000000E+02  0.51100000000E-03 0. -1.
    9900012    2    1    2    0    0  0.25658030804E+02  0.97635174607E+01  0.29991739932E+02  0.50528864715E+02  0.30000014788E+02 0.  0.
         12    1    1    2    0    0 -0.25658030804E+02 -0.97635174607E+01 -0.29991739932E+02  0.40659135285E+02  0.00000000000E+00 0. -1.
         11    1    3    3    0    0  0.13011451243E+02  0.52485869796E+01  0.22962811569E+02  0.26909779712E+02  0.51100000000E-03 0. -1.
        -11    1    3    3    0    0  0.73446256864E+01 -0.14929573621E+01  0.12029978153E+02  0.14173666526E+02  0.51100000000E-03 0.  1.
         12    1    3    3    0    0  0.53019538744E+01  0.60078878431E+01 -0.50010497893E+01  0.94454184776E+01  0.00000000000E+00 0. -1.
</event>
<event>
 7    1  0.3331850E-011  0.5052886E+02  0.7816164E-02  0.1300439E+00
        -11   -1    0    0    0    0  0.00000000000E+00  0.00000000000E+00  0.45593999997E+02  0.45594000000E+02  0.51100000000E-03 0.  1.
         11   -1    0    0    0    0 -0.00000000000E+00 -0.00000000000E+00 -0.45593999997E+02  0.45594000000E+02  0.51100000000E-03 0. -1.
    9900012    2    1    2    0    0  0.21563278228E+02 -0.31178866795E+02  0.14699272943E+02  0.50528864156E+02  0.30000013088E+02 0.  0.
         12    1    1    2    0    0 -0.21563278228E+02  0.31178866795E+02 -0.14699272943E+02  0.40659135844E+02  0.00000000000E+00 0. -1.
         11    1    3    3    0    0 -0.12203042529E+01 -0.11018961648E+02  0.67373924120E+01  0.12973014879E+02  0.51100000000E-03 0.  1.
        -11    1    3    3    0    0  0.25189989732E+02 -0.18077262434E+02  0.11246907361E+02  0.32982054594E+02  0.51100000000E-03 0. -1.
         12    1    3    3    0    0 -0.24064072515E+01 -0.20826427134E+01 -0.32850268294E+01  0.45737946829E+01  0.00000000000E+00 0. -1.
</event>
<event>
 7    1  0.3331850E-011  0.5052886E+02  0.7816164E-02  0.1300439E+00
        -11   -1    0    0    0    0  0.00000000000E+00  0.00000000000E+00  0.45593999997E+02  0.45594000000E+02  0.51100000000E-03 0.  1.
         11   -1    0    0    0    0 -0.00000000000E+00 -0.00000000000E+00 -0.45593999997E+02  0.45594000000E+02  0.51100000000E-03 0. -1.
    9900012    2    1    2    0    0 -0.15783492151E+01 -0.28392220564E+02  0.29061253727E+02  0.50528857818E+02  0.29999993822E+02 0.  0.
         12    1    1    2    0    0  0.15783492151E+01  0.28392220564E+02 -0.29061253727E+02  0.40659142182E+02  0.00000000000E+00 0. -1.
         11    1    3    3    0    0 -0.22344662764E+01 -0.12975861557E+01  0.90366111042E+01  0.93987717219E+01  0.51100000000E-03 0. -1.
        -11    1    3    3    0    0 -0.52326166176E+01 -0.15804849469E+02  0.22668391666E+02  0.28125247099E+02  0.51100000000E-03 0.  1.
        -12    1    3    3    0    0  0.58887336789E+01 -0.11289784940E+02 -0.26437490429E+01  0.13004838996E+02  0.00000000000E+00 0.  1.
</event>
<event>
 7    1  0.3331850E-011  0.5052886E+02  0.7816164E-02  0.1300439E+00
        -11   -1    0    0    0    0  0.00000000000E+00  0.00000000000E+00  0.45593999997E+02  0.45594000000E+02  0.51100000000E-03 0. -1.
         11   -1    0    0    0    0 -0.00000000000E+00 -0.00000000000E+00 -0.45593999997E+02  0.45594000000E+02  0.51100000000E-03 0.  1.
    9900012    2    1    2    0    0  0.26643664812E+02 -0.30567005236E+02  0.29897690404E+01  0.50528863233E+02  0.30000010283E+02 0.  0.
         12    1    1    2    0    0 -0.26643664812E+02  0.30567005236E+02 -0.29897690404E+01  0.40659136767E+02  0.00000000000E+00 0. -1.
         11    1    3    3    0    0  0.20978873323E+02 -0.27467628432E+02  0.49741283706E+01  0.34918844352E+02  0.51100000000E-03 0. -1.
        -11    1    3    3    0    0  0.75429854256E+01 -0.32688191045E+00  0.41541701512E+01  0.86174596501E+01  0.51100000000E-03 0.  1.
        -12    1    3    3    0    0 -0.18781939364E+01 -0.27724948932E+01 -0.61385294815E+01  0.69925592304E+01  0.00000000000E+00 0.  1.
</event>
<event>
 7    1  0.3331850E-011  0.5052886E+02  0.7816164E-02  0.1300439E+00
        -11   -1    0    0    0    0  0.00000000000E+00  0.00000000000E+00  0.45593999997E+02  0.45594000000E+02  0.51100000000E-03 0.  1.
         11   -1    0    0    0    0 -0.00000000000E+00 -0.00000000000E+00 -0.45593999997E+02  0.45594000000E+02  0.51100000000E-03 0. -1.
    9900012    2    1    2    0    0  0.29842719322E+02 -0.16884460432E+02  0.21851615071E+02  0.50528856111E+02  0.29999988634E+02 0.  0.
         12    1    1    2    0    0 -0.29842719322E+02  0.16884460432E+02 -0.21851615071E+02  0.40659143889E+02  0.00000000000E+00 0. -1.
         11    1    3    3    0    0  0.13299301853E+01 -0.10535835859E+01 -0.17400994769E+00  0.17055885768E+01  0.51100000000E-03 0. -1.
        -11    1    3    3    0    0  0.70773797404E+00 -0.15751483889E+02  0.80405972747E+01  0.17699190449E+02  0.51100000000E-03 0.  1.
        -12    1    3    3    0    0  0.27805051163E+02 -0.79392957384E-01  0.13985027744E+02  0.31124077085E+02  0.00000000000E+00 0.  1.
</event>
<event>
 7    1  0.3331850E-011  0.5052886E+02  0.7816164E-02  0.1300439E+00
        -11   -1    0    0    0    0  0.00000000000E+00  0.00000000000E+00  0.45593999997E+02  0.45594000000E+02  0.51100000000E-03 0. -1.
         11   -1    0    0    0    0 -0.00000000000E+00 -0.00000000000E+00 -0.45593999997E+02  0.45594000000E+02  0.51100000000E-03 0.  1.
    9900012    2    1    2    0    0  0.40627139692E+02 -0.19541156823E+00 -0.16010430101E+01  0.50528855838E+02  0.29999987805E+02 0.  0.
         12    1    1    2    0    0 -0.40627139692E+02  0.19541156823E+00  0.16010430101E+01  0.40659144162E+02  0.00000000000E+00 0. -1.
         11    1    3    3    0    0  0.18402039721E+02 -0.10913887949E+01  0.11099969452E+01  0.18467763505E+02  0.51100000000E-03 0. -1.
        -11    1    3    3    0    0  0.26488039738E+02 -0.76766021321E-01  0.72805712727E+00  0.26498154834E+02  0.51100000000E-03 0.  1.
         12    1    3    3    0    0 -0.42629397663E+01  0.97274324795E+00 -0.34390970826E+01  0.55629374992E+01  0.00000000000E+00 0. -1.
</event>
<event>
 7    1  0.3331850E-011  0.5052886E+02  0.7816164E-02  0.1300439E+00
        -11   -1    0    0    0    0  0.00000000000E+00  0.00000000000E+00  0.45593999997E+02  0.45594000000E+02  0.51100000000E-03 0.  1.
         11   -1    0    0    0    0 -0.00000000000E+00 -0.00000000000E+00 -0.45593999997E+02  0.45594000000E+02  0.51100000000E-03 0. -1.
    9900012    2    1    2    0    0 -0.32750821108E+02 -0.66156548081E+01  0.23168574523E+02  0.50528855675E+02  0.29999987310E+02 0.  0.
         12    1    1    2    0    0  0.32750821108E+02  0.66156548081E+01 -0.23168574523E+02  0.40659144325E+02  0.00000000000E+00 0. -1.
         11    1    3    3    0    0 -0.41416224351E+01 -0.60622640448E+01 -0.52295405967E+00  0.73605409416E+01  0.51100000000E-03 0. -1.
        -11    1    3    3    0    0 -0.60270568139E+01 -0.55578332896E+01  0.17342513331E+02  0.19182744684E+02  0.51100000000E-03 0.  1.
         12    1    3    3    0    0 -0.22582141859E+02  0.50044425263E+01  0.63490152520E+01  0.23985570050E+02  0.00000000000E+00 0. -1.
</event>
<event>
 7    1  0.3331850E-011  0.5052886E+02  0.7816164E-02  0.1300439E+00
        -11   -1    0    0    0    0  0.00000000000E+00  0.00000000000E+00  0.45593999997E+02  0.45594000000E+02  0.51100000000E-03 0. -1.
         11   -1    0    0    0    0 -0.00000000000E+00 -0.00000000000E+00 -0.45593999997E+02  0.45594000000E+02  0.51100000000E-03 0.  1.
    9900012    2    1    2    0    0  0.73738139947E+01  0.46645078962E+00 -0.39982180271E+02  0.50528862670E+02  0.30000008573E+02 0.  0.
         12    1    1    2    0    0 -0.73738139947E+01 -0.46645078962E+00  0.39982180271E+02  0.40659137330E+02  0.00000000000E+00 0. -1.
         11    1    3    3    0    0 -0.31410719835E+01  0.23628552100E+01 -0.68665415956E+00  0.39901017713E+01  0.51100000000E-03 0. -1.
        -11    1    3    3    0    0 -0.68205869474E+01 -0.31919546634E+01 -0.11035528858E+02  0.13360085266E+02  0.51100000000E-03 0.  1.
        -12    1    3    3    0    0  0.17335472926E+02  0.12955502429E+01 -0.28259997254E+02  0.33178675633E+02  0.00000000000E+00 0.  1.
</event>
<event>
 7    1  0.3331850E-011  0.5052891E+02  0.7816164E-02  0.1300439E+00
        -11   -1    0    0    0    0  0.00000000000E+00  0.00000000000E+00  0.45593999997E+02  0.45594000000E+02  0.51100000000E-03 0.  1.
         11   -1    0    0    0    0 -0.00000000000E+00 -0.00000000000E+00 -0.45593999997E+02  0.45594000000E+02  0.51100000000E-03 0. -1.
    9900012    2    1    2    0    0 -0.91634664292E+01  0.30056845545E+02  0.25802683517E+02  0.50528910515E+02  0.30000154001E+02 0.  0.
         12    1    1    2    0    0  0.91634664292E+01 -0.30056845545E+02 -0.25802683517E+02  0.40659089485E+02  0.00000000000E+00 0. -1.
         11    1    3    3    0    0 -0.93519129840E+01  0.68143674691E+01 -0.15586635674E+01  0.11675757485E+02  0.51100000000E-03 0.  1.
        -11    1    3    3    0    0  0.17689129000E+01  0.32712446583E+00 -0.12290011300E+01  0.21786480447E+01  0.51100000000E-03 0. -1.
        -12    1    3    3    0    0 -0.15804663451E+01  0.22915353610E+02  0.28590348214E+02  0.36674504985E+02  0.00000000000E+00 0.  1.
</event>
<event>
 7    1  0.3331850E-011  0.5052885E+02  0.7816164E-02  0.1300439E+00
        -11   -1    0    0    0    0  0.00000000000E+00  0.00000000000E+00  0.45593999997E+02  0.45594000000E+02  0.51100000000E-03 0.  1.
         11   -1    0    0    0    0 -0.00000000000E+00 -0.00000000000E+00 -0.45593999997E+02  0.45594000000E+02  0.51100000000E-03 0. -1.
    9900012    2    1    2    0    0 -0.13324850224E+02 -0.40475651685E+01  0.38199892660E+02  0.50528853224E+02  0.29999979861E+02 0.  0.
         12    1    1    2    0    0  0.13324850224E+02  0.40475651685E+01 -0.38199892660E+02  0.40659146776E+02  0.00000000000E+00 0. -1.
         11    1    3    3    0    0  0.20063303143E+00 -0.76159219919E+01  0.56901230417E+01  0.95089443100E+01  0.51100000000E-03 0. -1.
        -11    1    3    3    0    0  0.41083253343E+01 -0.26959103814E+01  0.13403711973E+02  0.14276055644E+02  0.51100000000E-03 0.  1.
        -12    1    3    3    0    0 -0.17633808590E+02  0.62642672048E+01  0.19106057645E+02  0.26743853270E+02  0.00000000000E+00 0.  1.
</event>
<event>
 7    1  0.3331850E-011  0.5052884E+02  0.7816164E-02  0.1300439E+00
        -11   -1    0    0    0    0  0.00000000000E+00  0.00000000000E+00  0.45593999997E+02  0.45594000000E+02  0.51100000000E-03 0. -1.
         11   -1    0    0    0    0 -0.00000000000E+00 -0.00000000000E+00 -0.45593999997E+02  0.45594000000E+02  0.51100000000E-03 0.  1.
    9900012    2    1    2    0    0  0.36021821387E+02  0.18601718534E+02 -0.30937724640E+01  0.50528843878E+02  0.29999951453E+02 0.  0.
         12    1    1    2    0    0 -0.36021821387E+02 -0.18601718534E+02  0.30937724640E+01  0.40659156122E+02  0.00000000000E+00 0. -1.
         11    1    3    3    0    0  0.10268385423E+02 -0.37296584560E+01  0.13149659208E+01  0.11003600639E+02  0.51100000000E-03 0. -1.
        -11    1    3    3    0    0  0.96089338227E+01  0.76599838401E+00 -0.77650162368E+01  0.12377957834E+02  0.51100000000E-03 0.  1.
         12    1    3    3    0    0  0.16144502141E+02  0.21565378606E+02  0.33562778520E+01  0.27147285405E+02  0.00000000000E+00 0. -1.
</event>
<event>
 7    1  0.3331850E-011  0.5052887E+02  0.7816164E-02  0.1300439E+00
        -11   -1    0    0    0    0  0.00000000000E+00  0.00000000000E+00  0.45593999997E+02  0.45594000000E+02  0.51100000000E-03 0. -1.
         11   -1    0    0    0    0 -0.00000000000E+00 -0.00000000000E+00 -0.45593999997E+02  0.45594000000E+02  0.51100000000E-03 0.  1.
    9900012    2    1    2    0    0 -0.12326760831E+02  0.14349020236E+02 -0.35990571961E+02  0.50528872065E+02  0.30000037130E+02 0.  0.
         12    1    1    2    0    0  0.12326760831E+02 -0.14349020236E+02  0.35990571961E+02  0.40659127935E+02  0.00000000000E+00 0. -1.
         11    1    3    3    0    0 -0.11800589404E+02  0.18319574408E+02 -0.16748871872E+02  0.27484275978E+02  0.51100000000E-03 0. -1.
        -11    1    3    3    0    0 -0.25521874976E+00  0.25653693986E+01 -0.15063618367E+02  0.15282632474E+02  0.51100000000E-03 0.  1.
        -12    1    3    3    0    0 -0.27095267758E+00 -0.65359235702E+01 -0.41780817220E+01  0.77619636140E+01  0.00000000000E+00 0.  1.
</event>
<event>
 7    1  0.3331850E-011  0.5052886E+02  0.7816164E-02  0.1300439E+00
        -11   -1    0    0    0    0  0.00000000000E+00  0.00000000000E+00  0.45593999997E+02  0.45594000000E+02  0.51100000000E-03 0. -1.
         11   -1    0    0    0    0 -0.00000000000E+00 -0.00000000000E+00 -0.45593999997E+02  0.45594000000E+02  0.51100000000E-03 0.  1.
    9900012    2    1    2    0    0  0.14069848848E+02  0.20881433979E+01 -0.38089958475E+02  0.50528856796E+02  0.29999990718E+02 0.  0.
         12    1    1    2    0    0 -0.14069848848E+02 -0.20881433979E+01  0.38089958475E+02  0.40659143204E+02  0.00000000000E+00 0. -1.
         11    1    3    3    0    0  0.49207327439E+01 -0.11659242914E+02 -0.78540438103E+01  0.14894212316E+02  0.51100000000E-03 0. -1.
        -11    1    3    3    0    0 -0.15982022365E+01  0.38158612604E+01 -0.53197244632E+01  0.67390293198E+01  0.51100000000E-03 0.  1.
        -12    1    3    3    0    0  0.10747318341E+02  0.99315250517E+01 -0.24916190201E+02  0.28895615161E+02  0.00000000000E+00 0.  1.
</event>
<event>
 7    1  0.3331850E-011  0.5052888E+02  0.7816164E-02  0.1300439E+00
        -11   -1    0    0    0    0  0.00000000000E+00  0.00000000000E+00  0.45593999997E+02  0.45594000000E+02  0.51100000000E-03 0. -1.
         11   -1    0    0    0    0 -0.00000000000E+00 -0.00000000000E+00 -0.45593999997E+02  0.45594000000E+02  0.51100000000E-03 0.  1.
    9900012    2    1    2    0    0 -0.31158468237E+02  0.24545228794E+02 -0.89356379996E+01  0.50528880163E+02  0.30000061744E+02 0.  0.
         12    1    1    2    0    0  0.31158468237E+02 -0.24545228794E+02  0.89356379996E+01  0.40659119837E+02  0.00000000000E+00 0. -1.
         11    1    3    3    0    0 -0.12620415757E+02 -0.12822610826E+01  0.24769834994E+01  0.12924957829E+02  0.51100000000E-03 0. -1.
        -11    1    3    3    0    0 -0.80185911656E+01  0.47894234820E+00 -0.43316703783E+00  0.80445524424E+01  0.51100000000E-03 0.  1.
        -12    1    3    3    0    0 -0.10519461315E+02  0.25348547529E+02 -0.10979454461E+02  0.29559369892E+02  0.00000000000E+00 0.  1.
</event>
<event>
 7    1  0.3331850E-011  0.5052884E+02  0.7816164E-02  0.1300439E+00
        -11   -1    0    0    0    0  0.00000000000E+00  0.00000000000E+00  0.45593999997E+02  0.45594000000E+02  0.51100000000E-03 0.  1.
         11   -1    0    0    0    0 -0.00000000000E+00 -0.00000000000E+00 -0.45593999997E+02  0.45594000000E+02  0.51100000000E-03 0. -1.
    9900012    2    1    2    0    0  0.21486598694E+02 -0.28792464660E+02  0.19039091675E+02  0.50528844125E+02  0.29999952203E+02 0.  0.
         12    1    1    2    0    0 -0.21486598694E+02  0.28792464660E+02 -0.19039091675E+02  0.40659155875E+02  0.00000000000E+00 0. -1.
         11    1    3    3    0    0  0.70170422192E+01 -0.50293900627E+01  0.13454547439E+02  0.15986196951E+02  0.51100000000E-03 0. -1.
        -11    1    3    3    0    0  0.15560408625E+02 -0.90132461341E+01  0.77749969038E+01  0.19591209752E+02  0.51100000000E-03 0.  1.
        -12    1    3    3    0    0 -0.10908521499E+01 -0.14749828463E+02 -0.21904526672E+01  0.14951437422E+02  0.00000000000E+00 0.  1.
</event>
<event>
 7    1  0.3331850E-011  0.5052886E+02  0.7816164E-02  0.1300439E+00
        -11   -1    0    0    0    0  0.00000000000E+00  0.00000000000E+00  0.45593999997E+02  0.45594000000E+02  0.51100000000E-03 0.  1.
         11   -1    0    0    0    0 -0.00000000000E+00 -0.00000000000E+00 -0.45593999997E+02  0.45594000000E+02  0.51100000000E-03 0. -1.
    9900012    2    1    2    0    0 -0.23047919019E+02 -0.28148752527E+02  0.18155077851E+02  0.50528859679E+02  0.29999999480E+02 0.  0.
         12    1    1    2    0    0  0.23047919019E+02  0.28148752527E+02 -0.18155077851E+02  0.40659140321E+02  0.00000000000E+00 0. -1.
         11    1    3    3    0    0  0.23963129871E+01  0.30168001118E+00  0.95027529346E+00  0.25954479682E+01  0.51100000000E-03 0. -1.
        -11    1    3    3    0    0 -0.89115626171E+00  0.32915565993E+01  0.48803100179E+01  0.59536485000E+01  0.51100000000E-03 0.  1.
        -12    1    3    3    0    0 -0.24553075744E+02 -0.31741989137E+02  0.12324492539E+02  0.41979763211E+02  0.00000000000E+00 0.  1.
</event>
<event>
 7    1  0.3331850E-011  0.5052886E+02  0.7816164E-02  0.1300439E+00
        -11   -1    0    0    0    0  0.00000000000E+00  0.00000000000E+00  0.45593999997E+02  0.45594000000E+02  0.51100000000E-03 0. -1.
         11   -1    0    0    0    0 -0.00000000000E+00 -0.00000000000E+00 -0.45593999997E+02  0.45594000000E+02  0.51100000000E-03 0.  1.
    9900012    2    1    2    0    0 -0.21358849395E+02 -0.24248848582E+02  0.24677089760E+02  0.50528857559E+02  0.29999993035E+02 0.  0.
         12    1    1    2    0    0  0.21358849395E+02  0.24248848582E+02 -0.24677089760E+02  0.40659142441E+02  0.00000000000E+00 0. -1.
         11    1    3    3    0    0  0.17509634710E+01 -0.10897828806E+01 -0.28991411534E+01  0.35578813207E+01  0.51100000000E-03 0. -1.
        -11    1    3    3    0    0 -0.21762748331E+02 -0.24307978370E+02  0.18060172205E+02  0.37291619001E+02  0.51100000000E-03 0.  1.
         12    1    3    3    0    0 -0.13470645350E+01  0.11489126685E+01  0.95160587086E+01  0.96793572372E+01  0.00000000000E+00 0. -1.
</event>
<event>
 7    1  0.3331850E-011  0.5052886E+02  0.7816164E-02  0.1300439E+00
        -11   -1    0    0    0    0  0.00000000000E+00  0.00000000000E+00  0.45593999997E+02  0.45594000000E+02  0.51100000000E-03 0. -1.
         11   -1    0    0    0    0 -0.00000000000E+00 -0.00000000000E+00 -0.45593999997E+02  0.45594000000E+02  0.51100000000E-03 0.  1.
    9900012    2    1    2    0    0  0.16397563808E+02 -0.14578238613E+02 -0.34230991164E+02  0.50528857166E+02  0.29999991842E+02 0.  0.
         12    1    1    2    0    0 -0.16397563808E+02  0.14578238613E+02  0.34230991164E+02  0.40659142834E+02  0.00000000000E+00 0. -1.
         11    1    3    3    0    0  0.34792787195E+01 -0.81044753128E+00  0.20985895752E+00  0.35785816537E+01  0.51100000000E-03 0. -1.
        -11    1    3    3    0    0  0.19298502626E+02 -0.15255070465E+02 -0.22536446809E+02  0.33362266313E+02  0.51100000000E-03 0.  1.
         12    1    3    3    0    0 -0.63802175369E+01  0.14872793836E+01 -0.11904403312E+02  0.13588009199E+02  0.00000000000E+00 0. -1.
</event>
<event>
 7    1  0.3331850E-011  0.5052886E+02  0.7816164E-02  0.1300439E+00
        -11   -1    0    0    0    0  0.00000000000E+00  0.00000000000E+00  0.45593999997E+02  0.45594000000E+02  0.51100000000E-03 0. -1.
         11   -1    0    0    0    0 -0.00000000000E+00 -0.00000000000E+00 -0.45593999997E+02  0.45594000000E+02  0.51100000000E-03 0.  1.
    9900012    2    1    2    0    0  0.62457535292E+01 -0.27680889498E+02 -0.29119150176E+02  0.50528856040E+02  0.29999988420E+02 0.  0.
         12    1    1    2    0    0 -0.62457535292E+01  0.27680889498E+02  0.29119150176E+02  0.40659143960E+02  0.00000000000E+00 0. -1.
         11    1    3    3    0    0 -0.22534512352E+01 -0.14813730903E+02 -0.99722190640E+01  0.17999161621E+02  0.51100000000E-03 0. -1.
        -11    1    3    3    0    0 -0.49194095249E+01 -0.10874991332E+02 -0.50337359801E+01  0.12953938579E+02  0.51100000000E-03 0.  1.
        -12    1    3    3    0    0  0.13418614289E+02 -0.19921672629E+01 -0.14113195132E+02  0.19575755840E+02  0.00000000000E+00 0.  1.
</event>
<event>
 7    1  0.3331850E-011  0.5052886E+02  0.7816164E-02  0.1300439E+00
        -11   -1    0    0    0    0  0.00000000000E+00  0.00000000000E+00  0.45593999997E+02  0.45594000000E+02  0.51100000000E-03 0.  1.
         11   -1    0    0    0    0 -0.00000000000E+00 -0.00000000000E+00 -0.45593999997E+02  0.45594000000E+02  0.51100000000E-03 0. -1.
    9900012    2    1    2    0    0 -0.15152983264E+02  0.27860908640E+02  0.25442537671E+02  0.50528857668E+02  0.29999993368E+02 0.  0.
         12    1    1    2    0    0  0.15152983264E+02 -0.27860908640E+02 -0.25442537671E+02  0.40659142332E+02  0.00000000000E+00 0. -1.
         11    1    3    3    0    0 -0.43568182370E+01 -0.76059821443E+00  0.67133174796E+01  0.80392167925E+01  0.51100000000E-03 0. -1.
        -11    1    3    3    0    0 -0.10686926844E+02  0.18383182011E+01  0.86544367441E+01  0.13874043924E+02  0.51100000000E-03 0.  1.
        -12    1    3    3    0    0 -0.10923818284E+00  0.26783188653E+02  0.10074783447E+02  0.28615596952E+02  0.00000000000E+00 0.  1.
</event>
<event>
 7    1  0.3331850E-011  0.5052892E+02  0.7816164E-02  0.1300439E+00
        -11   -1    0    0    0    0  0.00000000000E+00  0.00000000000E+00  0.45593999997E+02  0.45594000000E+02  0.51100000000E-03 0. -1.
         11   -1    0    0    0    0 -0.00000000000E+00 -0.00000000000E+00 -0.45593999997E+02  0.45594000000E+02  0.51100000000E-03 0.  1.
    9900012    2    1    2    0    0 -0.11836258687E+02  0.27129590872E+02 -0.27875598420E+02  0.50528920966E+02  0.30000185769E+02 0.  0.
         12    1    1    2    0    0  0.11836258687E+02 -0.27129590872E+02  0.27875598420E+02  0.40659079034E+02  0.00000000000E+00 0. -1.
         11    1    3    3    0    0 -0.56758914659E+01  0.57601459303E+01  0.34032784171E+01  0.87736725103E+01  0.51100000000E-03 0. -1.
        -11    1    3    3    0    0 -0.56645719451E+00  0.20792775770E+02 -0.18675391042E+02  0.27954080719E+02  0.51100000000E-03 0.  1.
         12    1    3    3    0    0 -0.55939100269E+01  0.57666917097E+00 -0.12603485796E+02  0.13801167738E+02  0.00000000000E+00 0. -1.
</event>
<event>
 7    1  0.3331850E-011  0.5052886E+02  0.7816164E-02  0.1300439E+00
        -11   -1    0    0    0    0  0.00000000000E+00  0.00000000000E+00  0.45593999997E+02  0.45594000000E+02  0.51100000000E-03 0.  1.
         11   -1    0    0    0    0 -0.00000000000E+00 -0.00000000000E+00 -0.45593999997E+02  0.45594000000E+02  0.51100000000E-03 0. -1.
    9900012    2    1    2    0    0  0.25246842299E-01  0.90095868146E+01  0.39648359715E+02  0.50528859330E+02  0.29999998418E+02 0.  0.
         12    1    1    2    0    0 -0.25246842299E-01 -0.90095868146E+01 -0.39648359715E+02  0.40659140670E+02  0.00000000000E+00 0. -1.
         11    1    3    3    0    0 -0.45071001966E+01 -0.17777064656E+01  0.39907207169E+01  0.62769454802E+01  0.51100000000E-03 0. -1.
        -11    1    3    3    0    0 -0.91986063879E+01  0.33413261550E+01  0.86934733996E+01  0.13090275015E+02  0.51100000000E-03 0.  1.
         12    1    3    3    0    0  0.13730953427E+02  0.74459671252E+01  0.26964165598E+02  0.31161638835E+02  0.00000000000E+00 0. -1.
</event>
<event>
 7    1  0.3331850E-011  0.5052885E+02  0.7816164E-02  0.1300439E+00
        -11   -1    0    0    0    0  0.00000000000E+00  0.00000000000E+00  0.45593999997E+02  0.45594000000E+02  0.51100000000E-03 0.  1.
         11   -1    0    0    0    0 -0.00000000000E+00 -0.00000000000E+00 -0.45593999997E+02  0.45594000000E+02  0.51100000000E-03 0. -1.
    9900012    2    1    2    0    0 -0.31930179275E+02  0.23379694477E+02  0.93284523514E+01  0.50528849915E+02  0.29999969802E+02 0.  0.
         12    1    1    2    0    0  0.31930179275E+02 -0.23379694477E+02 -0.93284523514E+01  0.40659150085E+02  0.00000000000E+00 0. -1.
         11    1    3    3    0    0 -0.35191088627E+01 -0.77866413878E+00 -0.26683836680E+01  0.44844973731E+01  0.51100000000E-03 0. -1.
        -11    1    3    3    0    0  0.41960434398E+01  0.62858171033E+00  0.12244833934E+01  0.44160225721E+01  0.51100000000E-03 0.  1.
        -12    1    3    3    0    0 -0.32607113852E+02  0.23529776905E+02  0.10772352626E+02  0.41628329970E+02  0.00000000000E+00 0.  1.
</event>
<event>
 7    1  0.3331850E-011  0.5052886E+02  0.7816164E-02  0.1300439E+00
        -11   -1    0    0    0    0  0.00000000000E+00  0.00000000000E+00  0.45593999997E+02  0.45594000000E+02  0.51100000000E-03 0.  1.
         11   -1    0    0    0    0 -0.00000000000E+00 -0.00000000000E+00 -0.45593999997E+02  0.45594000000E+02  0.51100000000E-03 0. -1.
    9900012    2    1    2    0    0  0.34575250872E+02  0.12425748534E+02  0.17416038280E+02  0.50528860943E+02  0.30000003321E+02 0.  0.
         12    1    1    2    0    0 -0.34575250872E+02 -0.12425748534E+02 -0.17416038280E+02  0.40659139057E+02  0.00000000000E+00 0. -1.
         11    1    3    3    0    0  0.35727116587E+01 -0.28533594156E+01  0.11374112276E+01  0.47116486619E+01  0.51100000000E-03 0. -1.
        -11    1    3    3    0    0  0.23706764516E+02  0.69279895898E+01 -0.16313495332E+01  0.24752151929E+02  0.51100000000E-03 0.  1.
         12    1    3    3    0    0  0.72957746975E+01  0.83511183595E+01  0.17909976586E+02  0.21065060351E+02  0.00000000000E+00 0. -1.
</event>
<event>
 7    1  0.3331850E-011  0.5052887E+02  0.7816164E-02  0.1300439E+00
        -11   -1    0    0    0    0  0.00000000000E+00  0.00000000000E+00  0.45593999997E+02  0.45594000000E+02  0.51100000000E-03 0. -1.
         11   -1    0    0    0    0 -0.00000000000E+00 -0.00000000000E+00 -0.45593999997E+02  0.45594000000E+02  0.51100000000E-03 0.  1.
    9900012    2    1    2    0    0 -0.17570140905E+02 -0.36042577297E+02 -0.67370193145E+01  0.50528872379E+02  0.30000038084E+02 0.  0.
         12    1    1    2    0    0  0.17570140905E+02  0.36042577297E+02  0.67370193145E+01  0.40659127621E+02  0.00000000000E+00 0. -1.
         11    1    3    3    0    0 -0.20571394422E+01 -0.60891203932E+01 -0.59169224764E+01  0.87360850328E+01  0.51100000000E-03 0. -1.
        -11    1    3    3    0    0  0.38008686938E+01 -0.11439653929E+02 -0.75259652981E+01  0.14210997107E+02  0.51100000000E-03 0.  1.
         12    1    3    3    0    0 -0.19313870157E+02 -0.18513802975E+02  0.67058684600E+01  0.27581790240E+02  0.00000000000E+00 0. -1.
</event>
<event>
 7    1  0.3331850E-011  0.5052886E+02  0.7816164E-02  0.1300439E+00
        -11   -1    0    0    0    0  0.00000000000E+00  0.00000000000E+00  0.45593999997E+02  0.45594000000E+02  0.51100000000E-03 0.  1.
         11   -1    0    0    0    0 -0.00000000000E+00 -0.00000000000E+00 -0.45593999997E+02  0.45594000000E+02  0.51100000000E-03 0. -1.
    9900012    2    1    2    0    0 -0.33272557310E+02 -0.12483098685E+02  0.19755379193E+02  0.50528857981E+02  0.29999994318E+02 0.  0.
         12    1    1    2    0    0  0.33272557310E+02  0.12483098685E+02 -0.19755379193E+02  0.40659142019E+02  0.00000000000E+00 0. -1.
         11    1    3    3    0    0 -0.31531363796E+01 -0.29958653770E+01 -0.60042924389E+01  0.74141086004E+01  0.51100000000E-03 0. -1.
        -11    1    3    3    0    0 -0.10500867874E+02  0.28021836585E+01  0.11974838101E+02  0.16171493659E+02  0.51100000000E-03 0.  1.
        -12    1    3    3    0    0 -0.19618553056E+02 -0.12289416966E+02  0.13784833531E+02  0.26943255721E+02  0.00000000000E+00 0.  1.
</event>
<event>
 7    1  0.3331850E-011  0.5052887E+02  0.7816164E-02  0.1300439E+00
        -11   -1    0    0    0    0  0.00000000000E+00  0.00000000000E+00  0.45593999997E+02  0.45594000000E+02  0.51100000000E-03 0. -1.
         11   -1    0    0    0    0 -0.00000000000E+00 -0.00000000000E+00 -0.45593999997E+02  0.45594000000E+02  0.51100000000E-03 0.  1.
    9900012    2    1    2    0    0 -0.22991352599E+02  0.33065244296E+02  0.55903807379E+01  0.50528867797E+02  0.30000024157E+02 0.  0.
         12    1    1    2    0    0  0.22991352599E+02 -0.33065244296E+02 -0.55903807379E+01  0.40659132203E+02  0.00000000000E+00 0. -1.
         11    1    3    3    0    0 -0.42886441207E+01  0.92244146304E+01  0.10529283671E+01  0.10226971794E+02  0.51100000000E-03 0. -1.
        -11    1    3    3    0    0 -0.18229142886E+02  0.21825560844E+02  0.13231729689E+02  0.31364556865E+02  0.51100000000E-03 0.  1.
         12    1    3    3    0    0 -0.47356559157E+00  0.20152688218E+01 -0.86942773181E+01  0.89373391385E+01  0.00000000000E+00 0. -1.
</event>
<event>
 7    1  0.3331850E-011  0.5052886E+02  0.7816164E-02  0.1300439E+00
        -11   -1    0    0    0    0  0.00000000000E+00  0.00000000000E+00  0.45593999997E+02  0.45594000000E+02  0.51100000000E-03 0.  1.
         11   -1    0    0    0    0 -0.00000000000E+00 -0.00000000000E+00 -0.45593999997E+02  0.45594000000E+02  0.51100000000E-03 0. -1.
    9900012    2    1    2    0    0  0.17760246140E+01 -0.30599179482E+02  0.26715196694E+02  0.50528858558E+02  0.29999996073E+02 0.  0.
         12    1    1    2    0    0 -0.17760246140E+01  0.30599179482E+02 -0.26715196694E+02  0.40659141442E+02  0.00000000000E+00 0. -1.
         11    1    3    3    0    0  0.21346738461E+01 -0.49660069190E+01 -0.36742387620E-01  0.54054978876E+01  0.51100000000E-03 0. -1.
        -11    1    3    3    0    0  0.57433853867E+01 -0.24864787502E+02  0.10229528519E+02  0.27493406250E+02  0.51100000000E-03 0.  1.
         12    1    3    3    0    0 -0.61020346188E+01 -0.76838506065E+00  0.16522410562E+02  0.17629954421E+02  0.00000000000E+00 0. -1.
</event>
<event>
 7    1  0.3331850E-011  0.5052886E+02  0.7816164E-02  0.1300439E+00
        -11   -1    0    0    0    0  0.00000000000E+00  0.00000000000E+00  0.45593999997E+02  0.45594000000E+02  0.51100000000E-03 0.  1.
         11   -1    0    0    0    0 -0.00000000000E+00 -0.00000000000E+00 -0.45593999997E+02  0.45594000000E+02  0.51100000000E-03 0. -1.
    9900012    2    1    2    0    0  0.16894283475E+02 -0.58531558031E+01  0.36516978014E+02  0.50528856744E+02  0.29999990560E+02 0.  0.
         12    1    1    2    0    0 -0.16894283475E+02  0.58531558031E+01 -0.36516978014E+02  0.40659143256E+02  0.00000000000E+00 0. -1.
         11    1    3    3    0    0  0.14634177284E+01  0.20650406580E+00  0.29210669418E+00  0.15065065413E+01  0.51100000000E-03 0. -1.
        -11    1    3    3    0    0  0.18963210150E+02 -0.88253514622E+01  0.11451218765E+02  0.23845766481E+02  0.51100000000E-03 0.  1.
         12    1    3    3    0    0 -0.35323444035E+01  0.27656915933E+01  0.24773652556E+02  0.25176583722E+02  0.00000000000E+00 0. -1.
</event>
<event>
 7    1  0.3331850E-011  0.5052887E+02  0.7816164E-02  0.1300439E+00
        -11   -1    0    0    0    0  0.00000000000E+00  0.00000000000E+00  0.45593999997E+02  0.45594000000E+02  0.51100000000E-03 0.  1.
         11   -1    0    0    0    0 -0.00000000000E+00 -0.00000000000E+00 -0.45593999997E+02  0.45594000000E+02  0.51100000000E-03 0. -1.
    9900012    2    1    2    0    0  0.21944490642E+00 -0.23516267305E+02  0.33167787785E+02  0.50528866578E+02  0.30000020452E+02 0.  0.
         12    1    1    2    0    0 -0.21944490642E+00  0.23516267305E+02 -0.33167787785E+02  0.40659133422E+02  0.00000000000E+00 0. -1.
         11    1    3    3    0    0  0.78508881507E+01 -0.39927824352E+01  0.88702434499E+01  0.12500399012E+02  0.51100000000E-03 0. -1.
        -11    1    3    3    0    0 -0.88130200480E+01 -0.14374700146E+01  0.15484731049E+02  0.17874913659E+02  0.51100000000E-03 0.  1.
         12    1    3    3    0    0  0.11815768037E+01 -0.18086014855E+02  0.88128132868E+01  0.20153553908E+02  0.00000000000E+00 0. -1.
</event>
<event>
 7    1  0.3331850E-011  0.5052886E+02  0.7816164E-02  0.1300439E+00
        -11   -1    0    0    0    0  0.00000000000E+00  0.00000000000E+00  0.45593999997E+02  0.45594000000E+02  0.51100000000E-03 0. -1.
         11   -1    0    0    0    0 -0.00000000000E+00 -0.00000000000E+00 -0.45593999997E+02  0.45594000000E+02  0.51100000000E-03 0.  1.
    9900012    2    1    2    0    0 -0.19959759141E+02  0.22566642535E+02  0.27304212341E+02  0.50528863858E+02  0.30000012183E+02 0.  0.
         12    1    1    2    0    0  0.19959759141E+02 -0.22566642535E+02 -0.27304212341E+02  0.40659136142E+02  0.00000000000E+00 0. -1.
         11    1    3    3    0    0 -0.31668864897E+01 -0.11391877888E+00 -0.55307662511E+01  0.63742860865E+01  0.51100000000E-03 0. -1.
        -11    1    3    3    0    0 -0.20415160788E+01  0.61397012933E+01  0.12503901279E+02  0.14078752336E+02  0.51100000000E-03 0.  1.
        -12    1    3    3    0    0 -0.14751356572E+02  0.16540860021E+02  0.20331077313E+02  0.30075825436E+02  0.00000000000E+00 0.  1.
</event>
<event>
 7    1  0.3331850E-011  0.5052886E+02  0.7816164E-02  0.1300439E+00
        -11   -1    0    0    0    0  0.00000000000E+00  0.00000000000E+00  0.45593999997E+02  0.45594000000E+02  0.51100000000E-03 0.  1.
         11   -1    0    0    0    0 -0.00000000000E+00 -0.00000000000E+00 -0.45593999997E+02  0.45594000000E+02  0.51100000000E-03 0. -1.
    9900012    2    1    2    0    0 -0.34509148164E+02  0.18307740107E+02  0.11274356488E+02  0.50528858727E+02  0.29999996587E+02 0.  0.
         12    1    1    2    0    0  0.34509148164E+02 -0.18307740107E+02 -0.11274356488E+02  0.40659141273E+02  0.00000000000E+00 0. -1.
         11    1    3    3    0    0 -0.82093725710E+01 -0.63895887602E+01  0.52764618576E+01  0.11664548535E+02  0.51100000000E-03 0. -1.
        -11    1    3    3    0    0 -0.17575870646E+02  0.83196396776E+01  0.58537205765E+01  0.20307478380E+02  0.51100000000E-03 0.  1.
        -12    1    3    3    0    0 -0.87239049472E+01  0.16377689190E+02  0.14417405444E+00  0.18556831812E+02  0.00000000000E+00 0.  1.
</event>
<event>
 7    1  0.3331850E-011  0.5052886E+02  0.7816164E-02  0.1300439E+00
        -11   -1    0    0    0    0  0.00000000000E+00  0.00000000000E+00  0.45593999997E+02  0.45594000000E+02  0.51100000000E-03 0. -1.
         11   -1    0    0    0    0 -0.00000000000E+00 -0.00000000000E+00 -0.45593999997E+02  0.45594000000E+02  0.51100000000E-03 0.  1.
    9900012    2    1    2    0    0  0.26124243827E+02 -0.25378802957E+02  0.18072235147E+02  0.50528862795E+02  0.30000008951E+02 0.  0.
         12    1    1    2    0    0 -0.26124243827E+02  0.25378802957E+02 -0.18072235147E+02  0.40659137205E+02  0.00000000000E+00 0. -1.
         11    1    3    3    0    0  0.44075448025E+01 -0.15532559434E+02  0.68016526817E+01  0.17519969555E+02  0.51100000000E-03 0. -1.
        -11    1    3    3    0    0  0.16392262263E+02 -0.15802967835E+02  0.63992665419E+01  0.23651441120E+02  0.51100000000E-03 0.  1.
        -12    1    3    3    0    0  0.53244367612E+01  0.59567243116E+01  0.48713159233E+01  0.93574521197E+01  0.00000000000E+00 0.  1.
</event>
<event>
 7    1  0.3331850E-011  0.5052886E+02  0.7816164E-02  0.1300439E+00
        -11   -1    0    0    0    0  0.00000000000E+00  0.00000000000E+00  0.45593999997E+02  0.45594000000E+02  0.51100000000E-03 0.  1.
         11   -1    0    0    0    0 -0.00000000000E+00 -0.00000000000E+00 -0.45593999997E+02  0.45594000000E+02  0.51100000000E-03 0. -1.
    9900012    2    1    2    0    0 -0.34095775514E+02  0.36318635935E+01  0.21850705313E+02  0.50528860022E+02  0.30000000523E+02 0.  0.
         12    1    1    2    0    0  0.34095775514E+02 -0.36318635935E+01 -0.21850705313E+02  0.40659139978E+02  0.00000000000E+00 0. -1.
         11    1    3    3    0    0  0.28698890328E+01 -0.12136827334E+01  0.81349052264E+01  0.87112554860E+01  0.51100000000E-03 0. -1.
        -11    1    3    3    0    0  0.60513938609E+00  0.71532431222E+00 -0.89409677640E+00  0.12951030287E+01  0.51100000000E-03 0.  1.
        -12    1    3    3    0    0 -0.37570803933E+02  0.41302220146E+01  0.14609896863E+02  0.40522501507E+02  0.00000000000E+00 0.  1.
</event>
<event>
 7    1  0.3331850E-011  0.5052888E+02  0.7816164E-02  0.1300439E+00
        -11   -1    0    0    0    0  0.00000000000E+00  0.00000000000E+00  0.45593999997E+02  0.45594000000E+02  0.51100000000E-03 0. -1.
         11   -1    0    0    0    0 -0.00000000000E+00 -0.00000000000E+00 -0.45593999997E+02  0.45594000000E+02  0.51100000000E-03 0.  1.
    9900012    2    1    2    0    0  0.14716561946E+02  0.35708658304E+02  0.12707414804E+02  0.50528882149E+02  0.30000067780E+02 0.  0.
         12    1    1    2    0    0 -0.14716561946E+02 -0.35708658304E+02 -0.12707414804E+02  0.40659117851E+02  0.00000000000E+00 0. -1.
         11    1    3    3    0    0  0.10708632923E+02  0.10183045618E+02  0.13168465525E+02  0.19793375702E+02  0.51100000000E-03 0. -1.
        -11    1    3    3    0    0  0.44860848292E+01  0.26167458818E+01  0.49682657222E+01  0.71872095177E+01  0.51100000000E-03 0.  1.
        -12    1    3    3    0    0 -0.47815580618E+00  0.22908866805E+02 -0.54293164427E+01  0.23548296930E+02  0.00000000000E+00 0.  1.
</event>
<event>
 7    1  0.3331850E-011  0.5052886E+02  0.7816164E-02  0.1300439E+00
        -11   -1    0    0    0    0  0.00000000000E+00  0.00000000000E+00  0.45593999997E+02  0.45594000000E+02  0.51100000000E-03 0.  1.
         11   -1    0    0    0    0 -0.00000000000E+00 -0.00000000000E+00 -0.45593999997E+02  0.45594000000E+02  0.51100000000E-03 0. -1.
    9900012    2    1    2    0    0 -0.21120428568E+02 -0.14786716661E+02  0.31439562860E+02  0.50528860741E+02  0.30000002707E+02 0.  0.
         12    1    1    2    0    0  0.21120428568E+02  0.14786716661E+02 -0.31439562860E+02  0.40659139259E+02  0.00000000000E+00 0. -1.
         11    1    3    3    0    0 -0.47389339153E+01 -0.12220778535E+02  0.30720010864E+01  0.13462619121E+02  0.51100000000E-03 0. -1.
        -11    1    3    3    0    0 -0.68283519797E+01 -0.87291922527E+01  0.77553360438E+01  0.13526656111E+02  0.51100000000E-03 0.  1.
         12    1    3    3    0    0 -0.95531426727E+01  0.61632541271E+01  0.20612225730E+02  0.23539585508E+02  0.00000000000E+00 0. -1.
</event>
<event>
 7    1  0.3331850E-011  0.5052886E+02  0.7816164E-02  0.1300439E+00
        -11   -1    0    0    0    0  0.00000000000E+00  0.00000000000E+00  0.45593999997E+02  0.45594000000E+02  0.51100000000E-03 0.  1.
         11   -1    0    0    0    0 -0.00000000000E+00 -0.00000000000E+00 -0.45593999997E+02  0.45594000000E+02  0.51100000000E-03 0. -1.
    9900012    2    1    2    0    0 -0.10850285655E+02  0.37300173487E+02  0.12005598317E+02  0.50528855495E+02  0.29999986763E+02 0.  0.
         12    1    1    2    0    0  0.10850285655E+02 -0.37300173487E+02 -0.12005598317E+02  0.40659144505E+02  0.00000000000E+00 0. -1.
         11    1    3    3    0    0 -0.41639139659E+01  0.19714649394E+02  0.14350328915E+02  0.24737370929E+02  0.51100000000E-03 0.  1.
        -11    1    3    3    0    0  0.30233641025E+01  0.34738661748E+01  0.53105522721E+01  0.70292561763E+01  0.51100000000E-03 0. -1.
         12    1    3    3    0    0 -0.97097357913E+01  0.14111657918E+02 -0.76552828704E+01  0.18762228390E+02  0.00000000000E+00 0. -1.
</event>
<event>
 7    1  0.3331850E-011  0.5052886E+02  0.7816164E-02  0.1300439E+00
        -11   -1    0    0    0    0  0.00000000000E+00  0.00000000000E+00  0.45593999997E+02  0.45594000000E+02  0.51100000000E-03 0.  1.
         11   -1    0    0    0    0 -0.00000000000E+00 -0.00000000000E+00 -0.45593999997E+02  0.45594000000E+02  0.51100000000E-03 0. -1.
    9900012    2    1    2    0    0 -0.11339322594E+02 -0.33576487296E+02  0.19930005918E+02  0.50528857462E+02  0.29999992741E+02 0.  0.
         12    1    1    2    0    0  0.11339322594E+02  0.33576487296E+02 -0.19930005918E+02  0.40659142538E+02  0.00000000000E+00 0. -1.
         11    1    3    3    0    0 -0.82954779605E+00 -0.31020611081E+01  0.28675616763E+01  0.43050949923E+01  0.51100000000E-03 0.  1.
        -11    1    3    3    0    0 -0.13333547524E+02 -0.27967087526E+02  0.23920382168E+01  0.31075123834E+02  0.51100000000E-03 0. -1.
         12    1    3    3    0    0  0.28237727258E+01 -0.25073386627E+01  0.14670406024E+02  0.15148638635E+02  0.00000000000E+00 0. -1.
</event>
<event>
 7    1  0.3331850E-011  0.5052885E+02  0.7816164E-02  0.1300439E+00
        -11   -1    0    0    0    0  0.00000000000E+00  0.00000000000E+00  0.45593999997E+02  0.45594000000E+02  0.51100000000E-03 0. -1.
         11   -1    0    0    0    0 -0.00000000000E+00 -0.00000000000E+00 -0.45593999997E+02  0.45594000000E+02  0.51100000000E-03 0.  1.
    9900012    2    1    2    0    0  0.31091366185E+02 -0.16528840809E+02 -0.20329558407E+02  0.50528848819E+02  0.29999966470E+02 0.  0.
         12    1    1    2    0    0 -0.31091366185E+02  0.16528840809E+02  0.20329558407E+02  0.40659151181E+02  0.00000000000E+00 0. -1.
         11    1    3    3    0    0  0.13084335080E+01 -0.20872136617E+01  0.29531882506E+01  0.38457483302E+01  0.51100000000E-03 0. -1.
        -11    1    3    3    0    0  0.42791214479E+01 -0.71079532715E+01  0.34773102248E+01  0.89958638682E+01  0.51100000000E-03 0.  1.
        -12    1    3    3    0    0  0.25503811229E+02 -0.73336738754E+01 -0.26760056883E+02  0.37687236621E+02  0.00000000000E+00 0.  1.
</event>
<event>
 7    1  0.3331850E-011  0.5052884E+02  0.7816164E-02  0.1300439E+00
        -11   -1    0    0    0    0  0.00000000000E+00  0.00000000000E+00  0.45593999997E+02  0.45594000000E+02  0.51100000000E-03 0.  1.
         11   -1    0    0    0    0 -0.00000000000E+00 -0.00000000000E+00 -0.45593999997E+02  0.45594000000E+02  0.51100000000E-03 0. -1.
    9900012    2    1    2    0    0  0.12911572283E+02 -0.19362540018E+02  0.33339922395E+02  0.50528842605E+02  0.29999947581E+02 0.  0.
         12    1    1    2    0    0 -0.12911572283E+02  0.19362540018E+02 -0.33339922395E+02  0.40659157395E+02  0.00000000000E+00 0. -1.
         11    1    3    3    0    0 -0.32116570113E+01 -0.78684468618E+01  0.16513416876E+02  0.18572025575E+02  0.51100000000E-03 0. -1.
        -11    1    3    3    0    0 -0.13826080035E+01  0.58105974103E-01  0.97104318936E+01  0.98085406161E+01  0.51100000000E-03 0.  1.
         12    1    3    3    0    0  0.17505837298E+02 -0.11552199131E+02  0.71160736262E+01  0.22148276414E+02  0.00000000000E+00 0. -1.
</event>
<event>
 7    1  0.3331850E-011  0.5052885E+02  0.7816164E-02  0.1300439E+00
        -11   -1    0    0    0    0  0.00000000000E+00  0.00000000000E+00  0.45593999997E+02  0.45594000000E+02  0.51100000000E-03 0.  1.
         11   -1    0    0    0    0 -0.00000000000E+00 -0.00000000000E+00 -0.45593999997E+02  0.45594000000E+02  0.51100000000E-03 0. -1.
    9900012    2    1    2    0    0 -0.31980860489E+02  0.21606642323E+02 -0.12788428478E+02  0.50528851791E+02  0.29999975505E+02 0.  0.
         12    1    1    2    0    0  0.31980860489E+02 -0.21606642323E+02  0.12788428478E+02  0.40659148209E+02  0.00000000000E+00 0. -1.
         11    1    3    3    0    0 -0.27678932945E+01  0.45271370950E+01 -0.58537117251E+01  0.79007686201E+01  0.51100000000E-03 0. -1.
        -11    1    3    3    0    0 -0.33745196527E+01 -0.49237062527E+01 -0.63081055236E+01  0.86846106249E+01  0.51100000000E-03 0.  1.
         12    1    3    3    0    0 -0.25838447542E+02  0.22003211481E+02 -0.62661122954E+00  0.33943472546E+02  0.00000000000E+00 0. -1.
</event>
<event>
 7    1  0.3331850E-011  0.5052886E+02  0.7816164E-02  0.1300439E+00
        -11   -1    0    0    0    0  0.00000000000E+00  0.00000000000E+00  0.45593999997E+02  0.45594000000E+02  0.51100000000E-03 0. -1.
         11   -1    0    0    0    0 -0.00000000000E+00 -0.00000000000E+00 -0.45593999997E+02  0.45594000000E+02  0.51100000000E-03 0.  1.
    9900012    2    1    2    0    0  0.10156610017E+02 -0.55213201844E+01 -0.38981071490E+02  0.50528860337E+02  0.30000001480E+02 0.  0.
         12    1    1    2    0    0 -0.10156610017E+02  0.55213201844E+01  0.38981071490E+02  0.40659139663E+02  0.00000000000E+00 0. -1.
         11    1    3    3    0    0  0.80763405612E+01  0.40258923874E+01  0.94401886933E+00  0.90733818536E+01  0.51100000000E-03 0. -1.
        -11    1    3    3    0    0  0.10650514945E+01 -0.98848930453E+00 -0.15238567154E+02  0.15307690060E+02  0.51100000000E-03 0.  1.
        -12    1    3    3    0    0  0.10152179618E+01 -0.85587232673E+01 -0.24686523205E+02  0.26147788423E+02  0.00000000000E+00 0.  1.
</event>
<event>
 7    1  0.3331850E-011  0.5052886E+02  0.7816164E-02  0.1300439E+00
        -11   -1    0    0    0    0  0.00000000000E+00  0.00000000000E+00  0.45593999997E+02  0.45594000000E+02  0.51100000000E-03 0.  1.
         11   -1    0    0    0    0 -0.00000000000E+00 -0.00000000000E+00 -0.45593999997E+02  0.45594000000E+02  0.51100000000E-03 0. -1.
    9900012    2    1    2    0    0  0.36993836631E+00 -0.96112407607E+01  0.39505100059E+02  0.50528859158E+02  0.29999997895E+02 0.  0.
         12    1    1    2    0    0 -0.36993836631E+00  0.96112407607E+01 -0.39505100059E+02  0.40659140842E+02  0.00000000000E+00 0. -1.
         11    1    3    3    0    0  0.28547881518E+01 -0.64032856868E+01  0.17211564036E+02  0.18584666255E+02  0.51100000000E-03 0. -1.
        -11    1    3    3    0    0  0.58531137900E+01 -0.55164483947E+01  0.13166821126E-01  0.80430291281E+01  0.51100000000E-03 0.  1.
         12    1    3    3    0    0 -0.83379635755E+01  0.23084933207E+01  0.22280369202E+02  0.23901163775E+02  0.00000000000E+00 0. -1.
</event>
<event>
 7    1  0.3331850E-011  0.5052886E+02  0.7816164E-02  0.1300439E+00
        -11   -1    0    0    0    0  0.00000000000E+00  0.00000000000E+00  0.45593999997E+02  0.45594000000E+02  0.51100000000E-03 0.  1.
         11   -1    0    0    0    0 -0.00000000000E+00 -0.00000000000E+00 -0.45593999997E+02  0.45594000000E+02  0.51100000000E-03 0. -1.
    9900012    2    1    2    0    0  0.28875737437E+02 -0.16909774435E+02  0.23095829405E+02  0.50528855642E+02  0.29999987209E+02 0.  0.
         12    1    1    2    0    0 -0.28875737437E+02  0.16909774435E+02 -0.23095829405E+02  0.40659144358E+02  0.00000000000E+00 0. -1.
         11    1    3    3    0    0  0.12232045295E+02 -0.46878488826E+01  0.19777918225E+01  0.13248038345E+02  0.51100000000E-03 0. -1.
        -11    1    3    3    0    0  0.17203581802E+02 -0.13726245278E+00  0.67073602194E+01  0.18465393285E+02  0.51100000000E-03 0.  1.
        -12    1    3    3    0    0 -0.55988965938E+00 -0.12084663100E+02  0.14410677364E+02  0.18815424012E+02  0.00000000000E+00 0.  1.
</event>
<event>
 7    1  0.3331850E-011  0.5052887E+02  0.7816164E-02  0.1300439E+00
        -11   -1    0    0    0    0  0.00000000000E+00  0.00000000000E+00  0.45593999997E+02  0.45594000000E+02  0.51100000000E-03 0.  1.
         11   -1    0    0    0    0 -0.00000000000E+00 -0.00000000000E+00 -0.45593999997E+02  0.45594000000E+02  0.51100000000E-03 0. -1.
    9900012    2    1    2    0    0  0.93900541790E+00 -0.81435089607E+01  0.39824193961E+02  0.50528869488E+02  0.30000029296E+02 0.  0.
         12    1    1    2    0    0 -0.93900541790E+00  0.81435089607E+01 -0.39824193961E+02  0.40659130512E+02  0.00000000000E+00 0. -1.
         11    1    3    3    0    0  0.12559393297E+02 -0.45501665348E+01  0.20558145522E+02  0.24516927276E+02  0.51100000000E-03 0. -1.
        -11    1    3    3    0    0 -0.54992499070E+00 -0.31091791992E+01  0.12797075459E+02  0.13180840389E+02  0.51100000000E-03 0.  1.
         12    1    3    3    0    0 -0.11070462889E+02 -0.48416322670E+00  0.64689729796E+01  0.12831101824E+02  0.00000000000E+00 0. -1.
</event>
<event>
 7    1  0.3331850E-011  0.5052886E+02  0.7816164E-02  0.1300439E+00
        -11   -1    0    0    0    0  0.00000000000E+00  0.00000000000E+00  0.45593999997E+02  0.45594000000E+02  0.51100000000E-03 0.  1.
         11   -1    0    0    0    0 -0.00000000000E+00 -0.00000000000E+00 -0.45593999997E+02  0.45594000000E+02  0.51100000000E-03 0. -1.
    9900012    2    1    2    0    0 -0.23747939395E+02 -0.27782187897E+02  0.17814358599E+02  0.50528856353E+02  0.29999989369E+02 0.  0.
         12    1    1    2    0    0  0.23747939395E+02  0.27782187897E+02 -0.17814358599E+02  0.40659143647E+02  0.00000000000E+00 0. -1.
         11    1    3    3    0    0 -0.65198497125E+01 -0.40026098627E+01 -0.16862467915E+01  0.78340764924E+01  0.51100000000E-03 0. -1.
        -11    1    3    3    0    0 -0.20763543968E+02 -0.17438863517E+02  0.66239858712E+01  0.27912647814E+02  0.51100000000E-03 0.  1.
         12    1    3    3    0    0  0.35354542856E+01 -0.63407145166E+01  0.12876619519E+02  0.14782132046E+02  0.00000000000E+00 0. -1.
</event>
<event>
 7    1  0.3331850E-011  0.5052886E+02  0.7816164E-02  0.1300439E+00
        -11   -1    0    0    0    0  0.00000000000E+00  0.00000000000E+00  0.45593999997E+02  0.45594000000E+02  0.51100000000E-03 0.  1.
         11   -1    0    0    0    0 -0.00000000000E+00 -0.00000000000E+00 -0.45593999997E+02  0.45594000000E+02  0.51100000000E-03 0. -1.
    9900012    2    1    2    0    0  0.47432200790E+01  0.39858731716E+02  0.64768366467E+01  0.50528855350E+02  0.29999986321E+02 0.  0.
         12    1    1    2    0    0 -0.47432200790E+01 -0.39858731716E+02 -0.64768366467E+01  0.40659144650E+02  0.00000000000E+00 0. -1.
         11    1    3    3    0    0 -0.49812206353E+00  0.34206683208E+02  0.14433109058E+00  0.34210614338E+02  0.51100000000E-03 0. -1.
        -11    1    3    3    0    0 -0.28881323403E+01  0.62257218506E+01  0.33802621413E+01  0.76503002151E+01  0.51100000000E-03 0.  1.
         12    1    3    3    0    0  0.81294744828E+01 -0.57367334234E+00  0.29522434148E+01  0.86679407964E+01  0.00000000000E+00 0. -1.
</event>
<event>
 7    1  0.3432173E-011  0.5052889E+02  0.7816164E-02  0.1300439E+00
        -11   -1    0    0    0    0  0.00000000000E+00  0.00000000000E+00  0.45593999997E+02  0.45594000000E+02  0.51100000000E-03 0.  1.
         11   -1    0    0    0    0 -0.00000000000E+00 -0.00000000000E+00 -0.45593999997E+02  0.45594000000E+02  0.51100000000E-03 0. -1.
    9900012    2    1    2    0    0 -0.20294475501E+02 -0.30385045103E+02  0.17833865175E+02  0.50528887259E+02  0.30000083313E+02 0.  0.
         12    1    1    2    0    0  0.20294475501E+02  0.30385045103E+02 -0.17833865175E+02  0.40659112741E+02  0.00000000000E+00 0. -1.
         11    1    3    3    0    0 -0.48832972022E+01 -0.13494037496E+01  0.95585841099E+01  0.10818225940E+02  0.51100000000E-03 0. -1.
        -11    1    3    3    0    0 -0.13651841152E+02 -0.15328263384E+02  0.13900164696E+02  0.24789977895E+02  0.51100000000E-03 0.  1.
         12    1    3    3    0    0 -0.17593371470E+01 -0.13707377969E+02 -0.56248836301E+01  0.14920683424E+02  0.00000000000E+00 0. -1.
</event>
<event>
 7    1  0.3331850E-011  0.5052886E+02  0.7816164E-02  0.1300439E+00
        -11   -1    0    0    0    0  0.00000000000E+00  0.00000000000E+00  0.45593999997E+02  0.45594000000E+02  0.51100000000E-03 0. -1.
         11   -1    0    0    0    0 -0.00000000000E+00 -0.00000000000E+00 -0.45593999997E+02  0.45594000000E+02  0.51100000000E-03 0.  1.
    9900012    2    1    2    0    0  0.15517668834E+02 -0.32039098014E+02 -0.19643408613E+02  0.50528863886E+02  0.30000012267E+02 0.  0.
         12    1    1    2    0    0 -0.15517668834E+02  0.32039098014E+02  0.19643408613E+02  0.40659136114E+02  0.00000000000E+00 0. -1.
         11    1    3    3    0    0 -0.42369888599E+01 -0.31720458723E+01  0.49105168391E+01  0.72199117379E+01  0.51100000000E-03 0. -1.
        -11    1    3    3    0    0  0.33467051208E+01 -0.22609973024E+01 -0.97599937845E+00  0.41551316483E+01  0.51100000000E-03 0.  1.
         12    1    3    3    0    0  0.16407952573E+02 -0.26606054840E+02 -0.23577926074E+02  0.39153820500E+02  0.00000000000E+00 0. -1.
</event>
<event>
 7    1  0.3331850E-011  0.5052885E+02  0.7816164E-02  0.1300439E+00
        -11   -1    0    0    0    0  0.00000000000E+00  0.00000000000E+00  0.45593999997E+02  0.45594000000E+02  0.51100000000E-03 0.  1.
         11   -1    0    0    0    0 -0.00000000000E+00 -0.00000000000E+00 -0.45593999997E+02  0.45594000000E+02  0.51100000000E-03 0. -1.
    9900012    2    1    2    0    0 -0.22981618173E+01  0.55747527663E+01  0.40209540296E+02  0.50528849161E+02  0.29999967511E+02 0.  0.
         12    1    1    2    0    0  0.22981618173E+01 -0.55747527663E+01 -0.40209540296E+02  0.40659150839E+02  0.00000000000E+00 0. -1.
         11    1    3    3    0    0  0.12104727289E+01 -0.31569853979E+01 -0.83251608170E+00  0.34820804582E+01  0.51100000000E-03 0. -1.
        -11    1    3    3    0    0  0.17367142545E+01 -0.48969014637E+01  0.24217296114E+02  0.24768392190E+02  0.51100000000E-03 0.  1.
        -12    1    3    3    0    0 -0.52453488007E+01  0.13628639628E+02  0.16824760263E+02  0.22278376513E+02  0.00000000000E+00 0.  1.
</event>
<event>
 7    1  0.3331850E-011  0.5052886E+02  0.7816164E-02  0.1300439E+00
        -11   -1    0    0    0    0  0.00000000000E+00  0.00000000000E+00  0.45593999997E+02  0.45594000000E+02  0.51100000000E-03 0. -1.
         11   -1    0    0    0    0 -0.00000000000E+00 -0.00000000000E+00 -0.45593999997E+02  0.45594000000E+02  0.51100000000E-03 0.  1.
    9900012    2    1    2    0    0 -0.36459874880E+02  0.77902528848E+01 -0.16222057382E+02  0.50528860044E+02  0.30000000589E+02 0.  0.
         12    1    1    2    0    0  0.36459874880E+02 -0.77902528848E+01  0.16222057382E+02  0.40659139956E+02  0.00000000000E+00 0. -1.
         11    1    3    3    0    0 -0.30653122431E+01  0.45363038465E+01  0.36123278365E+01  0.65591999813E+01  0.51100000000E-03 0.  1.
        -11    1    3    3    0    0  0.26802492613E+01  0.95041576754E+00 -0.24406116158E+00  0.28542235977E+01  0.51100000000E-03 0. -1.
        -12    1    3    3    0    0 -0.36074811898E+02  0.23035332708E+01 -0.19590324057E+02  0.41115436465E+02  0.00000000000E+00 0.  1.
</event>
<event>
 7    1  0.3331850E-011  0.5052886E+02  0.7816164E-02  0.1300439E+00
        -11   -1    0    0    0    0  0.00000000000E+00  0.00000000000E+00  0.45593999997E+02  0.45594000000E+02  0.51100000000E-03 0.  1.
         11   -1    0    0    0    0 -0.00000000000E+00 -0.00000000000E+00 -0.45593999997E+02  0.45594000000E+02  0.51100000000E-03 0. -1.
    9900012    2    1    2    0    0 -0.40587536985E+01 -0.58369112219E+01  0.40032772044E+02  0.50528857711E+02  0.29999993497E+02 0.  0.
         12    1    1    2    0    0  0.40587536985E+01  0.58369112219E+01 -0.40032772044E+02  0.40659142289E+02  0.00000000000E+00 0. -1.
         11    1    3    3    0    0 -0.27481515384E+01  0.13278330894E+01  0.83133166211E+01  0.88558856753E+01  0.51100000000E-03 0.  1.
        -11    1    3    3    0    0 -0.86019016260E+01 -0.12850224357E+02  0.27412119448E+02  0.31472929170E+02  0.51100000000E-03 0. -1.
        -12    1    3    3    0    0  0.72912994659E+01  0.56854800461E+01  0.43073359743E+01  0.10200042865E+02  0.00000000000E+00 0.  1.
</event>
<event>
 7    1  0.3331850E-011  0.5052886E+02  0.7816164E-02  0.1300439E+00
        -11   -1    0    0    0    0  0.00000000000E+00  0.00000000000E+00  0.45593999997E+02  0.45594000000E+02  0.51100000000E-03 0. -1.
         11   -1    0    0    0    0 -0.00000000000E+00 -0.00000000000E+00 -0.45593999997E+02  0.45594000000E+02  0.51100000000E-03 0.  1.
    9900012    2    1    2    0    0 -0.29721346843E+02  0.19786396737E+02 -0.19450084328E+02  0.50528859154E+02  0.29999997885E+02 0.  0.
         12    1    1    2    0    0  0.29721346843E+02 -0.19786396737E+02  0.19450084328E+02  0.40659140846E+02  0.00000000000E+00 0. -1.
         11    1    3    3    0    0 -0.94312586399E+01 -0.26615764709E+01 -0.10968743414E+02  0.14708703586E+02  0.51100000000E-03 0. -1.
        -11    1    3    3    0    0  0.22755448991E+01  0.55204104879E+00 -0.31559260278E+01  0.39297230515E+01  0.51100000000E-03 0.  1.
        -12    1    3    3    0    0 -0.22565633102E+02  0.21895932159E+02 -0.53254148856E+01  0.31890432517E+02  0.00000000000E+00 0.  1.
</event>
<event>
 7    1  0.3331850E-011  0.5052886E+02  0.7816164E-02  0.1300439E+00
        -11   -1    0    0    0    0  0.00000000000E+00  0.00000000000E+00  0.45593999997E+02  0.45594000000E+02  0.51100000000E-03 0. -1.
         11   -1    0    0    0    0 -0.00000000000E+00 -0.00000000000E+00 -0.45593999997E+02  0.45594000000E+02  0.51100000000E-03 0.  1.
    9900012    2    1    2    0    0 -0.28803076422E+02 -0.28552784290E+02  0.28786948892E+01  0.50528860974E+02  0.30000003416E+02 0.  0.
         12    1    1    2    0    0  0.28803076422E+02  0.28552784290E+02 -0.28786948892E+01  0.40659139026E+02  0.00000000000E+00 0. -1.
         11    1    3    3    0    0 -0.22788752062E+01  0.65568839945E+00  0.15306344571E+00  0.23762634875E+01  0.51100000000E-03 0. -1.
        -11    1    3    3    0    0 -0.27815744056E+02 -0.15865065533E+02  0.91262474872E+01  0.33297211823E+02  0.51100000000E-03 0.  1.
         12    1    3    3    0    0  0.12915428400E+01 -0.13343407157E+02 -0.64006160437E+01  0.14855385663E+02  0.00000000000E+00 0. -1.
</event>
<event>
 7    1  0.3331850E-011  0.5052886E+02  0.7816164E-02  0.1300439E+00
        -11   -1    0    0    0    0  0.00000000000E+00  0.00000000000E+00  0.45593999997E+02  0.45594000000E+02  0.51100000000E-03 0.  1.
         11   -1    0    0    0    0 -0.00000000000E+00 -0.00000000000E+00 -0.45593999997E+02  0.45594000000E+02  0.51100000000E-03 0. -1.
    9900012    2    1    2    0    0 -0.11970709069E+02 -0.41504699537E+01  0.38634717395E+02  0.50528860012E+02  0.30000000491E+02 0.  0.
         12    1    1    2    0    0  0.11970709069E+02  0.41504699537E+01 -0.38634717395E+02  0.40659139988E+02  0.00000000000E+00 0. -1.
         11    1    3    3    0    0  0.47703503760E+00  0.89188676843E+01  0.71411298879E+01  0.11435449249E+02  0.51100000000E-03 0. -1.
        -11    1    3    3    0    0  0.32401928288E+01 -0.11661267221E+01  0.53603061569E+01  0.63711524433E+01  0.51100000000E-03 0.  1.
         12    1    3    3    0    0 -0.15687936935E+02 -0.11903210916E+02  0.26133281350E+02  0.32722258319E+02  0.00000000000E+00 0. -1.
</event>
<event>
 7    1  0.3331850E-011  0.5052887E+02  0.7816164E-02  0.1300439E+00
        -11   -1    0    0    0    0  0.00000000000E+00  0.00000000000E+00  0.45593999997E+02  0.45594000000E+02  0.51100000000E-03 0.  1.
         11   -1    0    0    0    0 -0.00000000000E+00 -0.00000000000E+00 -0.45593999997E+02  0.45594000000E+02  0.51100000000E-03 0. -1.
    9900012    2    1    2    0    0 -0.11861655503E+02  0.28877433114E+02  0.26049182564E+02  0.50528869085E+02  0.30000028071E+02 0.  0.
         12    1    1    2    0    0  0.11861655503E+02 -0.28877433114E+02 -0.26049182564E+02  0.40659130915E+02  0.00000000000E+00 0. -1.
         11    1    3    3    0    0 -0.34086942104E+01  0.21821061591E+02  0.75145815463E+01  0.23329099024E+02  0.51100000000E-03 0.  1.
        -11    1    3    3    0    0 -0.18708496501E+01  0.97256896114E+01  0.33827972611E+01  0.10465774429E+02  0.51100000000E-03 0. -1.
         12    1    3    3    0    0 -0.65821116428E+01 -0.26693180889E+01  0.15151803756E+02  0.16733995632E+02  0.00000000000E+00 0. -1.
</event>
<event>
 7    1  0.3331850E-011  0.5052887E+02  0.7816164E-02  0.1300439E+00
        -11   -1    0    0    0    0  0.00000000000E+00  0.00000000000E+00  0.45593999997E+02  0.45594000000E+02  0.51100000000E-03 0. -1.
         11   -1    0    0    0    0 -0.00000000000E+00 -0.00000000000E+00 -0.45593999997E+02  0.45594000000E+02  0.51100000000E-03 0.  1.
    9900012    2    1    2    0    0 -0.23872381924E+01  0.40546369909E+02 -0.18595129434E+01  0.50528870553E+02  0.30000032532E+02 0.  0.
         12    1    1    2    0    0  0.23872381924E+01 -0.40546369909E+02  0.18595129434E+01  0.40659129447E+02  0.00000000000E+00 0. -1.
         11    1    3    3    0    0 -0.43018788451E+01  0.47083757153E+01  0.29462745029E+01  0.70253467660E+01  0.51100000000E-03 0.  1.
        -11    1    3    3    0    0  0.23555112916E+00 -0.35685907597E+01 -0.16396559874E+01  0.39343101509E+01  0.51100000000E-03 0. -1.
        -12    1    3    3    0    0  0.16790895236E+01  0.39406584954E+02 -0.31661314589E+01  0.39569213636E+02  0.00000000000E+00 0.  1.
</event>
<event>
 7    1  0.3331850E-011  0.5052886E+02  0.7816164E-02  0.1300439E+00
        -11   -1    0    0    0    0  0.00000000000E+00  0.00000000000E+00  0.45593999997E+02  0.45594000000E+02  0.51100000000E-03 0.  1.
         11   -1    0    0    0    0 -0.00000000000E+00 -0.00000000000E+00 -0.45593999997E+02  0.45594000000E+02  0.51100000000E-03 0. -1.
    9900012    2    1    2    0    0 -0.13566473369E+02  0.14071811652E+02  0.35652498096E+02  0.50528859535E+02  0.29999999043E+02 0.  0.
         12    1    1    2    0    0  0.13566473369E+02 -0.14071811652E+02 -0.35652498096E+02  0.40659140465E+02  0.00000000000E+00 0. -1.
         11    1    3    3    0    0 -0.18629050551E+01 -0.20426112650E+01  0.12486287040E+01  0.30334386306E+01  0.51100000000E-03 0. -1.
        -11    1    3    3    0    0 -0.15444621393E+02  0.27863372887E+01  0.28312674925E+02  0.32371400451E+02  0.51100000000E-03 0.  1.
        -12    1    3    3    0    0  0.37410530790E+01  0.13328085628E+02  0.60911944672E+01  0.15124020454E+02  0.00000000000E+00 0.  1.
</event>
<event>
 7    1  0.3331850E-011  0.5052888E+02  0.7816164E-02  0.1300439E+00
        -11   -1    0    0    0    0  0.00000000000E+00  0.00000000000E+00  0.45593999997E+02  0.45594000000E+02  0.51100000000E-03 0. -1.
         11   -1    0    0    0    0 -0.00000000000E+00 -0.00000000000E+00 -0.45593999997E+02  0.45594000000E+02  0.51100000000E-03 0.  1.
    9900012    2    1    2    0    0  0.20739470590E+02  0.77102853240E+01 -0.34111434140E+02  0.50528879508E+02  0.30000059751E+02 0.  0.
         12    1    1    2    0    0 -0.20739470590E+02 -0.77102853240E+01  0.34111434140E+02  0.40659120492E+02  0.00000000000E+00 0. -1.
         11    1    3    3    0    0  0.53129938288E+01 -0.37621996915E+01 -0.11388640916E+02  0.13118048335E+02  0.51100000000E-03 0. -1.
        -11    1    3    3    0    0  0.18243355005E+01 -0.16547053121E+01 -0.17673940194E+02  0.17844730649E+02  0.51100000000E-03 0.  1.
        -12    1    3    3    0    0  0.13602141261E+02  0.13127190328E+02 -0.50488530296E+01  0.19566100523E+02  0.00000000000E+00 0.  1.
</event>
<event>
 7    1  0.3331850E-011  0.5052887E+02  0.7816164E-02  0.1300439E+00
        -11   -1    0    0    0    0  0.00000000000E+00  0.00000000000E+00  0.45593999997E+02  0.45594000000E+02  0.51100000000E-03 0.  1.
         11   -1    0    0    0    0 -0.00000000000E+00 -0.00000000000E+00 -0.45593999997E+02  0.45594000000E+02  0.51100000000E-03 0. -1.
    9900012    2    1    2    0    0  0.38816494617E+02 -0.11835098563E+02  0.25248441780E+01  0.50528872483E+02  0.30000038399E+02 0.  0.
         12    1    1    2    0    0 -0.38816494617E+02  0.11835098563E+02 -0.25248441780E+01  0.40659127517E+02  0.00000000000E+00 0. -1.
         11    1    3    3    0    0  0.15903538442E+02 -0.65920400898E+01  0.88375862929E+01  0.19351497597E+02  0.51100000000E-03 0. -1.
        -11    1    3    3    0    0  0.14222045603E+02 -0.10234708861E+02  0.26632599290E+01  0.17723114859E+02  0.51100000000E-03 0.  1.
         12    1    3    3    0    0  0.86909105719E+01  0.49916503882E+01 -0.89760020439E+01  0.13454260026E+02  0.00000000000E+00 0. -1.
</event>
<event>
 7    1  0.3331850E-011  0.5052884E+02  0.7816164E-02  0.1300439E+00
        -11   -1    0    0    0    0  0.00000000000E+00  0.00000000000E+00  0.45593999997E+02  0.45594000000E+02  0.51100000000E-03 0. -1.
         11   -1    0    0    0    0 -0.00000000000E+00 -0.00000000000E+00 -0.45593999997E+02  0.45594000000E+02  0.51100000000E-03 0.  1.
    9900012    2    1    2    0    0 -0.29139743446E+02 -0.18258324512E+02 -0.21695081278E+02  0.50528836042E+02  0.29999927633E+02 0.  0.
         12    1    1    2    0    0  0.29139743446E+02  0.18258324512E+02  0.21695081278E+02  0.40659163958E+02  0.00000000000E+00 0. -1.
         11    1    3    3    0    0 -0.18863698510E+02 -0.19171788503E+02 -0.15544291606E+02  0.31064796759E+02  0.51100000000E-03 0. -1.
        -11    1    3    3    0    0 -0.39317890561E+01 -0.71460570072E+01 -0.34611416247E+01  0.88602820237E+01  0.51100000000E-03 0.  1.
         12    1    3    3    0    0 -0.63442558800E+01  0.80595209983E+01 -0.26896480470E+01  0.10603757259E+02  0.00000000000E+00 0. -1.
</event>
<event>
 7    1  0.3331850E-011  0.5052887E+02  0.7816164E-02  0.1300439E+00
        -11   -1    0    0    0    0  0.00000000000E+00  0.00000000000E+00  0.45593999997E+02  0.45594000000E+02  0.51100000000E-03 0.  1.
         11   -1    0    0    0    0 -0.00000000000E+00 -0.00000000000E+00 -0.45593999997E+02  0.45594000000E+02  0.51100000000E-03 0. -1.
    9900012    2    1    2    0    0 -0.36856135830E+02 -0.14114891185E+02  0.97754871099E+01  0.50528867573E+02  0.30000023476E+02 0.  0.
         12    1    1    2    0    0  0.36856135830E+02  0.14114891185E+02 -0.97754871099E+01  0.40659132427E+02  0.00000000000E+00 0. -1.
         11    1    3    3    0    0 -0.27371860952E+02 -0.55932220749E+01  0.13441641095E+02  0.31002913101E+02  0.51100000000E-03 0. -1.
        -11    1    3    3    0    0 -0.20154655404E+00  0.31830212745E+01  0.17471214925E+01  0.36365752045E+01  0.51100000000E-03 0.  1.
        -12    1    3    3    0    0 -0.92827283235E+01 -0.11704690384E+02 -0.54132754778E+01  0.15889379268E+02  0.00000000000E+00 0.  1.
</event>
<event>
 7    1  0.3331850E-011  0.5052887E+02  0.7816164E-02  0.1300439E+00
        -11   -1    0    0    0    0  0.00000000000E+00  0.00000000000E+00  0.45593999997E+02  0.45594000000E+02  0.51100000000E-03 0.  1.
         11   -1    0    0    0    0 -0.00000000000E+00 -0.00000000000E+00 -0.45593999997E+02  0.45594000000E+02  0.51100000000E-03 0. -1.
    9900012    2    1    2    0    0  0.10270959438E+02  0.22785181546E+02  0.32070357521E+02  0.50528868954E+02  0.30000027674E+02 0.  0.
         12    1    1    2    0    0 -0.10270959438E+02 -0.22785181546E+02 -0.32070357521E+02  0.40659131046E+02  0.00000000000E+00 0. -1.
         11    1    3    3    0    0  0.16692499930E+02  0.12463784440E+02  0.16015060686E+02  0.26276751046E+02  0.51100000000E-03 0. -1.
        -11    1    3    3    0    0  0.21385169961E+01  0.39269369339E+00 -0.12762151087E+01  0.25211482591E+01  0.51100000000E-03 0.  1.
        -12    1    3    3    0    0 -0.85600574879E+01  0.99287034124E+01  0.17331511944E+02  0.21730969650E+02  0.00000000000E+00 0.  1.
</event>
<event>
 7    1  0.3331850E-011  0.5052888E+02  0.7816164E-02  0.1300439E+00
        -11   -1    0    0    0    0  0.00000000000E+00  0.00000000000E+00  0.45593999997E+02  0.45594000000E+02  0.51100000000E-03 0.  1.
         11   -1    0    0    0    0 -0.00000000000E+00 -0.00000000000E+00 -0.45593999997E+02  0.45594000000E+02  0.51100000000E-03 0. -1.
    9900012    2    1    2    0    0  0.98247350934E+01  0.85390294441E+01  0.38519133637E+02  0.50528879256E+02  0.30000058987E+02 0.  0.
         12    1    1    2    0    0 -0.98247350934E+01 -0.85390294441E+01 -0.38519133637E+02  0.40659120744E+02  0.00000000000E+00 0. -1.
         11    1    3    3    0    0  0.53973755394E+01 -0.40145838838E+01  0.30256003077E+02  0.30994745828E+02  0.51100000000E-03 0. -1.
        -11    1    3    3    0    0  0.43705034200E+01  0.61628461963E+00  0.58946641316E+01  0.73639780256E+01  0.51100000000E-03 0.  1.
        -12    1    3    3    0    0  0.56856134046E-01  0.11937328708E+02  0.23684664287E+01  0.12170155403E+02  0.00000000000E+00 0.  1.
</event>
<event>
 7    1  0.3331850E-011  0.5052887E+02  0.7816164E-02  0.1300439E+00
        -11   -1    0    0    0    0  0.00000000000E+00  0.00000000000E+00  0.45593999997E+02  0.45594000000E+02  0.51100000000E-03 0.  1.
         11   -1    0    0    0    0 -0.00000000000E+00 -0.00000000000E+00 -0.45593999997E+02  0.45594000000E+02  0.51100000000E-03 0. -1.
    9900012    2    1    2    0    0  0.22170450711E+02  0.15883670208E+01  0.34045751174E+02  0.50528868584E+02  0.30000026547E+02 0.  0.
         12    1    1    2    0    0 -0.22170450711E+02 -0.15883670208E+01 -0.34045751174E+02  0.40659131416E+02  0.00000000000E+00 0. -1.
         11    1    3    3    0    0  0.16935645927E+02 -0.31958808379E+01  0.14557882347E+02  0.22560179431E+02  0.51100000000E-03 0. -1.
        -11    1    3    3    0    0 -0.13544534487E+00 -0.52657302480E+01  0.14688446733E+02  0.15604381698E+02  0.51100000000E-03 0.  1.
        -12    1    3    3    0    0  0.53702501289E+01  0.10049978107E+02  0.47994220943E+01  0.12364307454E+02  0.00000000000E+00 0.  1.
</event>
<event>
 7    1  0.3331850E-011  0.5052886E+02  0.7816164E-02  0.1300439E+00
        -11   -1    0    0    0    0  0.00000000000E+00  0.00000000000E+00  0.45593999997E+02  0.45594000000E+02  0.51100000000E-03 0. -1.
         11   -1    0    0    0    0 -0.00000000000E+00 -0.00000000000E+00 -0.45593999997E+02  0.45594000000E+02  0.51100000000E-03 0.  1.
    9900012    2    1    2    0    0 -0.97942693144E+01  0.39358499384E+02 -0.28542243716E+01  0.50528858569E+02  0.29999996107E+02 0.  0.
         12    1    1    2    0    0  0.97942693144E+01 -0.39358499384E+02  0.28542243716E+01  0.40659141431E+02  0.00000000000E+00 0. -1.
         11    1    3    3    0    0  0.21436870328E+01  0.17945548828E+02  0.32598291205E+01  0.18364765258E+02  0.51100000000E-03 0. -1.
        -11    1    3    3    0    0 -0.46701454409E+01  0.22965535355E+02 -0.16476233312E+01  0.23493418983E+02  0.51100000000E-03 0.  1.
        -12    1    3    3    0    0 -0.72678109063E+01 -0.15525847993E+01 -0.44664301609E+01  0.86706743285E+01  0.00000000000E+00 0.  1.
</event>
<event>
 7    1  0.3331850E-011  0.5052886E+02  0.7816164E-02  0.1300439E+00
        -11   -1    0    0    0    0  0.00000000000E+00  0.00000000000E+00  0.45593999997E+02  0.45594000000E+02  0.51100000000E-03 0.  1.
         11   -1    0    0    0    0 -0.00000000000E+00 -0.00000000000E+00 -0.45593999997E+02  0.45594000000E+02  0.51100000000E-03 0. -1.
    9900012    2    1    2    0    0 -0.23584871375E+02 -0.24837439595E+01  0.33026514704E+02  0.50528858158E+02  0.29999994857E+02 0.  0.
         12    1    1    2    0    0  0.23584871375E+02  0.24837439595E+01 -0.33026514704E+02  0.40659141842E+02  0.00000000000E+00 0. -1.
         11    1    3    3    0    0 -0.14243338212E+01 -0.28289173475E+01  0.64520017981E+00  0.32323031612E+01  0.51100000000E-03 0. -1.
        -11    1    3    3    0    0 -0.15873655012E+02 -0.82981720360E+01  0.60949002238E+01  0.18920369753E+02  0.51100000000E-03 0.  1.
        -12    1    3    3    0    0 -0.62868825412E+01  0.86433454239E+01  0.26286414301E+02  0.28376185244E+02  0.00000000000E+00 0.  1.
</event>
<event>
 7    1  0.3331850E-011  0.5052885E+02  0.7816164E-02  0.1300439E+00
        -11   -1    0    0    0    0  0.00000000000E+00  0.00000000000E+00  0.45593999997E+02  0.45594000000E+02  0.51100000000E-03 0.  1.
         11   -1    0    0    0    0 -0.00000000000E+00 -0.00000000000E+00 -0.45593999997E+02  0.45594000000E+02  0.51100000000E-03 0. -1.
    9900012    2    1    2    0    0  0.67764286608E-01 -0.12841120101E+02  0.38578066963E+02  0.50528853328E+02  0.29999980176E+02 0.  0.
         12    1    1    2    0    0 -0.67764286608E-01  0.12841120101E+02 -0.38578066963E+02  0.40659146672E+02  0.00000000000E+00 0. -1.
         11    1    3    3    0    0  0.13004744015E+01  0.31118778809E+01  0.22108007118E+02  0.22363787617E+02  0.51100000000E-03 0. -1.
        -11    1    3    3    0    0  0.26896311131E+00 -0.16425774317E+01  0.13335030345E+02  0.13438505733E+02  0.51100000000E-03 0.  1.
        -12    1    3    3    0    0 -0.15016732262E+01 -0.14310420551E+02  0.31350295012E+01  0.14726559978E+02  0.00000000000E+00 0.  1.
</event>
<event>
 7    1  0.3739004E-011  0.5052886E+02  0.7816164E-02  0.1300439E+00
        -11   -1    0    0    0    0  0.00000000000E+00  0.00000000000E+00  0.45593999997E+02  0.45594000000E+02  0.51100000000E-03 0. -1.
         11   -1    0    0    0    0 -0.00000000000E+00 -0.00000000000E+00 -0.45593999997E+02  0.45594000000E+02  0.51100000000E-03 0.  1.
    9900012    2    1    2    0    0  0.38797465083E+02  0.69161948922E+00  0.12142667309E+02  0.50528855841E+02  0.29999987815E+02 0.  0.
         12    1    1    2    0    0 -0.38797465083E+02 -0.69161948922E+00 -0.12142667309E+02  0.40659144159E+02  0.00000000000E+00 0. -1.
         11    1    3    3    0    0 -0.19674037195E+01  0.12663233851E+01 -0.21945166282E+01  0.32078272714E+01  0.51100000000E-03 0. -1.
        -11    1    3    3    0    0  0.28785242706E+02  0.10093878727E+01  0.30727647335E+00  0.28804573953E+02  0.51100000000E-03 0.  1.
         12    1    3    3    0    0  0.11979626096E+02 -0.15840917685E+01  0.14029907463E+02  0.18516454616E+02  0.00000000000E+00 0. -1.
</event>
<event>
 7    1  0.3438514E-011  0.5052885E+02  0.7816164E-02  0.1300439E+00
        -11   -1    0    0    0    0  0.00000000000E+00  0.00000000000E+00  0.45593999997E+02  0.45594000000E+02  0.51100000000E-03 0. -1.
         11   -1    0    0    0    0 -0.00000000000E+00 -0.00000000000E+00 -0.45593999997E+02  0.45594000000E+02  0.51100000000E-03 0.  1.
    9900012    2    1    2    0    0 -0.35003847018E+02 -0.17617195584E+02 -0.10841180384E+02  0.50528854923E+02  0.29999985023E+02 0.  0.
         12    1    1    2    0    0  0.35003847018E+02  0.17617195584E+02  0.10841180384E+02  0.40659145077E+02  0.00000000000E+00 0. -1.
         11    1    3    3    0    0 -0.74065331415E+01  0.24955583346E+01 -0.67382420861E+01  0.10319324166E+02  0.51100000000E-03 0. -1.
        -11    1    3    3    0    0 -0.19358743432E+02 -0.64919976244E+01 -0.10612381508E+02  0.23011510640E+02  0.51100000000E-03 0.  1.
         12    1    3    3    0    0 -0.82385704446E+01 -0.13620756294E+02  0.65094432102E+01  0.17198020116E+02  0.00000000000E+00 0. -1.
</event>
<event>
 7    1  0.3331850E-011  0.5052885E+02  0.7816164E-02  0.1300439E+00
        -11   -1    0    0    0    0  0.00000000000E+00  0.00000000000E+00  0.45593999997E+02  0.45594000000E+02  0.51100000000E-03 0.  1.
         11   -1    0    0    0    0 -0.00000000000E+00 -0.00000000000E+00 -0.45593999997E+02  0.45594000000E+02  0.51100000000E-03 0. -1.
    9900012    2    1    2    0    0 -0.20379574496E+02  0.29693302457E+02  0.18871857129E+02  0.50528852703E+02  0.29999978276E+02 0.  0.
         12    1    1    2    0    0  0.20379574496E+02 -0.29693302457E+02 -0.18871857129E+02  0.40659147297E+02  0.00000000000E+00 0. -1.
         11    1    3    3    0    0 -0.10516119278E+02  0.50765839758E+01 -0.47008573088E+01  0.12588031190E+02  0.51100000000E-03 0. -1.
        -11    1    3    3    0    0 -0.38019051091E+01 -0.27333255682E+00  0.14010918920E+01  0.40610653647E+01  0.51100000000E-03 0.  1.
        -12    1    3    3    0    0 -0.60615501086E+01  0.24890051038E+02  0.22171622546E+02  0.33879756149E+02  0.00000000000E+00 0.  1.
</event>
<event>
 7    1  0.3331850E-011  0.5052882E+02  0.7816164E-02  0.1300439E+00
        -11   -1    0    0    0    0  0.00000000000E+00  0.00000000000E+00  0.45593999997E+02  0.45594000000E+02  0.51100000000E-03 0.  1.
         11   -1    0    0    0    0 -0.00000000000E+00 -0.00000000000E+00 -0.45593999997E+02  0.45594000000E+02  0.51100000000E-03 0. -1.
    9900012    2    1    2    0    0 -0.33483031381E+02  0.21052852448E+02  0.94251116366E+01  0.50528822487E+02  0.29999886431E+02 0.  0.
         12    1    1    2    0    0  0.33483031381E+02 -0.21052852448E+02 -0.94251116366E+01  0.40659177513E+02  0.00000000000E+00 0. -1.
         11    1    3    3    0    0 -0.65566375440E+01  0.29760157000E+01 -0.71151875328E+01  0.10122848375E+02  0.51100000000E-03 0. -1.
        -11    1    3    3    0    0  0.24207347665E+01  0.50129230473E+00  0.15574247984E+00  0.24769955118E+01  0.51100000000E-03 0.  1.
        -12    1    3    3    0    0 -0.29347128604E+02  0.17575544443E+02  0.16384556690E+02  0.37928978600E+02  0.00000000000E+00 0.  1.
</event>
<event>
 7    1  0.3331850E-011  0.5052886E+02  0.7816164E-02  0.1300439E+00
        -11   -1    0    0    0    0  0.00000000000E+00  0.00000000000E+00  0.45593999997E+02  0.45594000000E+02  0.51100000000E-03 0.  1.
         11   -1    0    0    0    0 -0.00000000000E+00 -0.00000000000E+00 -0.45593999997E+02  0.45594000000E+02  0.51100000000E-03 0. -1.
    9900012    2    1    2    0    0 -0.34313604339E+01 -0.34866828084E+02  0.20632395668E+02  0.50528859748E+02  0.29999999689E+02 0.  0.
         12    1    1    2    0    0  0.34313604339E+01  0.34866828084E+02 -0.20632395668E+02  0.40659140252E+02  0.00000000000E+00 0. -1.
         11    1    3    3    0    0  0.12354766039E+01 -0.71060453136E+01  0.16071246190E+02  0.17615539640E+02  0.51100000000E-03 0. -1.
        -11    1    3    3    0    0 -0.71873995391E+01 -0.15843700052E+02  0.94376700373E+01  0.19792704704E+02  0.51100000000E-03 0.  1.
         12    1    3    3    0    0  0.25205625013E+01 -0.11917082718E+02 -0.48765205592E+01  0.13120615404E+02  0.00000000000E+00 0. -1.
</event>
<event>
 7    1  0.3331850E-011  0.5052886E+02  0.7816164E-02  0.1300439E+00
        -11   -1    0    0    0    0  0.00000000000E+00  0.00000000000E+00  0.45593999997E+02  0.45594000000E+02  0.51100000000E-03 0.  1.
         11   -1    0    0    0    0 -0.00000000000E+00 -0.00000000000E+00 -0.45593999997E+02  0.45594000000E+02  0.51100000000E-03 0. -1.
    9900012    2    1    2    0    0  0.21627676588E+02  0.33012290879E+02 -0.97774152652E+01  0.50528860893E+02  0.30000003169E+02 0.  0.
         12    1    1    2    0    0 -0.21627676588E+02 -0.33012290879E+02  0.97774152652E+01  0.40659139107E+02  0.00000000000E+00 0. -1.
         11    1    3    3    0    0  0.91953667787E+01  0.11921542686E+02 -0.12040933462E+02  0.19278538044E+02  0.51100000000E-03 0. -1.
        -11    1    3    3    0    0  0.12354234386E+02  0.38538036561E+01  0.48498017957E+01  0.13820256423E+02  0.51100000000E-03 0.  1.
         12    1    3    3    0    0  0.78075423477E-01  0.17236944537E+02 -0.25862835989E+01  0.17430066426E+02  0.00000000000E+00 0. -1.
</event>
<event>
 7    1  0.3331850E-011  0.5052889E+02  0.7816164E-02  0.1300439E+00
        -11   -1    0    0    0    0  0.00000000000E+00  0.00000000000E+00  0.45593999997E+02  0.45594000000E+02  0.51100000000E-03 0.  1.
         11   -1    0    0    0    0 -0.00000000000E+00 -0.00000000000E+00 -0.45593999997E+02  0.45594000000E+02  0.51100000000E-03 0. -1.
    9900012    2    1    2    0    0 -0.33164864553E+02 -0.19611821581E+02  0.12985823148E+02  0.50528887991E+02  0.30000085538E+02 0.  0.
         12    1    1    2    0    0  0.33164864553E+02  0.19611821581E+02 -0.12985823148E+02  0.40659112009E+02  0.00000000000E+00 0. -1.
         11    1    3    3    0    0 -0.59423207982E+00 -0.46169366653E+01  0.61564799880E+01  0.77182551163E+01  0.51100000000E-03 0. -1.
        -11    1    3    3    0    0 -0.12825220690E+02  0.53566162454E+01  0.26245336509E+01  0.14144532530E+02  0.51100000000E-03 0.  1.
        -12    1    3    3    0    0 -0.19745411783E+02 -0.20351501161E+02  0.42048095094E+01  0.28666100345E+02  0.00000000000E+00 0.  1.
</event>
<event>
 7    1  0.3331850E-011  0.5052886E+02  0.7816164E-02  0.1300439E+00
        -11   -1    0    0    0    0  0.00000000000E+00  0.00000000000E+00  0.45593999997E+02  0.45594000000E+02  0.51100000000E-03 0. -1.
         11   -1    0    0    0    0 -0.00000000000E+00 -0.00000000000E+00 -0.45593999997E+02  0.45594000000E+02  0.51100000000E-03 0.  1.
    9900012    2    1    2    0    0  0.16474115177E+02 -0.30461302725E+02  0.21304425122E+02  0.50528856326E+02  0.29999989288E+02 0.  0.
         12    1    1    2    0    0 -0.16474115177E+02  0.30461302725E+02 -0.21304425122E+02  0.40659143674E+02  0.00000000000E+00 0. -1.
         11    1    3    3    0    0  0.10854692787E+02 -0.20633247262E+02  0.19256017969E+02  0.30238212189E+02  0.51100000000E-03 0. -1.
        -11    1    3    3    0    0  0.11564556859E+02 -0.75244876427E+01  0.10469270321E+01  0.13836652272E+02  0.51100000000E-03 0.  1.
        -12    1    3    3    0    0 -0.59451344691E+01 -0.23035678198E+01  0.10014801209E+01  0.64539918646E+01  0.00000000000E+00 0.  1.
</event>
<event>
 7    1  0.3331850E-011  0.5052885E+02  0.7816164E-02  0.1300439E+00
        -11   -1    0    0    0    0  0.00000000000E+00  0.00000000000E+00  0.45593999997E+02  0.45594000000E+02  0.51100000000E-03 0.  1.
         11   -1    0    0    0    0 -0.00000000000E+00 -0.00000000000E+00 -0.45593999997E+02  0.45594000000E+02  0.51100000000E-03 0. -1.
    9900012    2    1    2    0    0  0.22759034563E+02 -0.79352271029E+01  0.32744849526E+02  0.50528847846E+02  0.29999963512E+02 0.  0.
         12    1    1    2    0    0 -0.22759034563E+02  0.79352271029E+01 -0.32744849526E+02  0.40659152154E+02  0.00000000000E+00 0. -1.
         11    1    3    3    0    0  0.12588948062E+02 -0.11594974265E+02  0.22756328486E+02  0.28474120319E+02  0.51100000000E-03 0. -1.
        -11    1    3    3    0    0  0.10211686685E+02  0.25867143009E+01  0.14215645917E+02  0.17693338434E+02  0.51100000000E-03 0.  1.
         12    1    3    3    0    0 -0.41600184941E-01  0.10730328609E+01 -0.42271248767E+01  0.43613890929E+01  0.00000000000E+00 0. -1.
</event>
<event>
 7    1  0.3331850E-011  0.5052886E+02  0.7816164E-02  0.1300439E+00
        -11   -1    0    0    0    0  0.00000000000E+00  0.00000000000E+00  0.45593999997E+02  0.45594000000E+02  0.51100000000E-03 0.  1.
         11   -1    0    0    0    0 -0.00000000000E+00 -0.00000000000E+00 -0.45593999997E+02  0.45594000000E+02  0.51100000000E-03 0. -1.
    9900012    2    1    2    0    0 -0.18405719495E+01 -0.34654866847E+02 -0.21185336984E+02  0.50528855833E+02  0.29999987789E+02 0.  0.
         12    1    1    2    0    0  0.18405719495E+01  0.34654866847E+02  0.21185336984E+02  0.40659144167E+02  0.00000000000E+00 0. -1.
         11    1    3    3    0    0  0.25815517144E+01 -0.10343281619E+02 -0.87723089783E+01  0.13805842567E+02  0.51100000000E-03 0. -1.
        -11    1    3    3    0    0 -0.77909060472E+01 -0.22669220188E+02 -0.18013214238E+02  0.29984456780E+02  0.51100000000E-03 0.  1.
        -12    1    3    3    0    0  0.33687823833E+01 -0.16423650399E+01  0.56001862322E+01  0.67385564853E+01  0.00000000000E+00 0.  1.
</event>
<event>
 7    1  0.3331850E-011  0.5052888E+02  0.7816164E-02  0.1300439E+00
        -11   -1    0    0    0    0  0.00000000000E+00  0.00000000000E+00  0.45593999997E+02  0.45594000000E+02  0.51100000000E-03 0. -1.
         11   -1    0    0    0    0 -0.00000000000E+00 -0.00000000000E+00 -0.45593999997E+02  0.45594000000E+02  0.51100000000E-03 0.  1.
    9900012    2    1    2    0    0 -0.98288080162E+01 -0.17518541431E+01 -0.39414327789E+02  0.50528884232E+02  0.30000074112E+02 0.  0.
         12    1    1    2    0    0  0.98288080162E+01  0.17518541431E+01  0.39414327789E+02  0.40659115768E+02  0.00000000000E+00 0. -1.
         11    1    3    3    0    0  0.21804792717E+00  0.80854362248E+00  0.29998417852E+01  0.31145366727E+01  0.51100000000E-03 0. -1.
        -11    1    3    3    0    0 -0.33429095374E+01  0.75424582673E+01 -0.23894443848E+02  0.25278610879E+02  0.51100000000E-03 0.  1.
        -12    1    3    3    0    0 -0.67039464061E+01 -0.10102856033E+02 -0.18519725726E+02  0.22135736681E+02  0.00000000000E+00 0.  1.
</event>
<event>
 7    1  0.3331850E-011  0.5052885E+02  0.7816164E-02  0.1300439E+00
        -11   -1    0    0    0    0  0.00000000000E+00  0.00000000000E+00  0.45593999997E+02  0.45594000000E+02  0.51100000000E-03 0. -1.
         11   -1    0    0    0    0 -0.00000000000E+00 -0.00000000000E+00 -0.45593999997E+02  0.45594000000E+02  0.51100000000E-03 0.  1.
    9900012    2    1    2    0    0  0.21695507452E+02 -0.14196614478E+02 -0.31319764571E+02  0.50528849013E+02  0.29999967060E+02 0.  0.
         12    1    1    2    0    0 -0.21695507452E+02  0.14196614478E+02  0.31319764571E+02  0.40659150987E+02  0.00000000000E+00 0. -1.
         11    1    3    3    0    0  0.52020456365E+00 -0.33535947837E+01  0.34922908591E+01  0.48696310401E+01  0.51100000000E-03 0. -1.
        -11    1    3    3    0    0  0.68026867518E+01 -0.90861075463E+01 -0.47744088488E+01  0.12313767803E+02  0.51100000000E-03 0.  1.
         12    1    3    3    0    0  0.14372616136E+02 -0.17569121475E+01 -0.30037646581E+02  0.33345450170E+02  0.00000000000E+00 0. -1.
</event>
<event>
 7    1  0.3331850E-011  0.5052888E+02  0.7816164E-02  0.1300439E+00
        -11   -1    0    0    0    0  0.00000000000E+00  0.00000000000E+00  0.45593999997E+02  0.45594000000E+02  0.51100000000E-03 0.  1.
         11   -1    0    0    0    0 -0.00000000000E+00 -0.00000000000E+00 -0.45593999997E+02  0.45594000000E+02  0.51100000000E-03 0. -1.
    9900012    2    1    2    0    0  0.19928975944E+02 -0.22910171834E+02  0.27039311330E+02  0.50528875404E+02  0.30000047279E+02 0.  0.
         12    1    1    2    0    0 -0.19928975944E+02  0.22910171834E+02 -0.27039311330E+02  0.40659124596E+02  0.00000000000E+00 0. -1.
         11    1    3    3    0    0  0.12887225172E+02 -0.45092669979E+01  0.97193320913E+01  0.16759459360E+02  0.51100000000E-03 0. -1.
        -11    1    3    3    0    0  0.13907214450E+02 -0.91818095275E+01  0.14107504355E+02  0.21834328919E+02  0.51100000000E-03 0.  1.
         12    1    3    3    0    0 -0.68654636770E+01 -0.92190953088E+01  0.32124748839E+01  0.11935087125E+02  0.00000000000E+00 0. -1.
</event>
<event>
 7    1  0.3331850E-011  0.5052886E+02  0.7816164E-02  0.1300439E+00
        -11   -1    0    0    0    0  0.00000000000E+00  0.00000000000E+00  0.45593999997E+02  0.45594000000E+02  0.51100000000E-03 0. -1.
         11   -1    0    0    0    0 -0.00000000000E+00 -0.00000000000E+00 -0.45593999997E+02  0.45594000000E+02  0.51100000000E-03 0.  1.
    9900012    2    1    2    0    0 -0.43798349907E+01 -0.13962190139E+02 -0.37934675015E+02  0.50528864784E+02  0.30000014998E+02 0.  0.
         12    1    1    2    0    0  0.43798349907E+01  0.13962190139E+02  0.37934675015E+02  0.40659135216E+02  0.00000000000E+00 0. -1.
         11    1    3    3    0    0 -0.91306636311E+01  0.45463223619E+01 -0.12778362629E+02  0.16350064743E+02  0.51100000000E-03 0. -1.
        -11    1    3    3    0    0 -0.31729041179E+00 -0.95839378800E+01 -0.21037600037E+02  0.23119973055E+02  0.51100000000E-03 0.  1.
         12    1    3    3    0    0  0.50681190522E+01 -0.89245746213E+01 -0.41187123489E+01  0.11058826986E+02  0.00000000000E+00 0. -1.
</event>
<event>
 7    1  0.3331850E-011  0.5052886E+02  0.7816164E-02  0.1300439E+00
        -11   -1    0    0    0    0  0.00000000000E+00  0.00000000000E+00  0.45593999997E+02  0.45594000000E+02  0.51100000000E-03 0.  1.
         11   -1    0    0    0    0 -0.00000000000E+00 -0.00000000000E+00 -0.45593999997E+02  0.45594000000E+02  0.51100000000E-03 0. -1.
    9900012    2    1    2    0    0 -0.26393552049E+01 -0.29760307544E+02  0.27577587624E+02  0.50528862771E+02  0.30000008880E+02 0.  0.
         12    1    1    2    0    0  0.26393552049E+01  0.29760307544E+02 -0.27577587624E+02  0.40659137229E+02  0.00000000000E+00 0. -1.
         11    1    3    3    0    0  0.38414236705E+01 -0.68055627215E+01 -0.22497273545E+01  0.81322501931E+01  0.51100000000E-03 0. -1.
        -11    1    3    3    0    0  0.36770199974E+01  0.95656527873E+00  0.18794376890E+01  0.42388417618E+01  0.51100000000E-03 0.  1.
        -12    1    3    3    0    0 -0.10157798873E+02 -0.23911310101E+02  0.27947877290E+02  0.38157770817E+02  0.00000000000E+00 0.  1.
</event>
<event>
 7    1  0.3331850E-011  0.5052886E+02  0.7816164E-02  0.1300439E+00
        -11   -1    0    0    0    0  0.00000000000E+00  0.00000000000E+00  0.45593999997E+02  0.45594000000E+02  0.51100000000E-03 0.  1.
         11   -1    0    0    0    0 -0.00000000000E+00 -0.00000000000E+00 -0.45593999997E+02  0.45594000000E+02  0.51100000000E-03 0. -1.
    9900012    2    1    2    0    0  0.19820301370E+01 -0.99733963769E+01  0.39367104980E+02  0.50528855478E+02  0.29999986711E+02 0.  0.
         12    1    1    2    0    0 -0.19820301370E+01  0.99733963769E+01 -0.39367104980E+02  0.40659144522E+02  0.00000000000E+00 0. -1.
         11    1    3    3    0    0  0.14566052105E+01  0.21884197104E+01  0.14386060040E+02  0.14624281292E+02  0.51100000000E-03 0. -1.
        -11    1    3    3    0    0 -0.49369728836E+00  0.66947518555E+01  0.85685090750E+01  0.10884979901E+02  0.51100000000E-03 0.  1.
        -12    1    3    3    0    0  0.10191222149E+01 -0.18856567943E+02  0.16412535865E+02  0.25019594285E+02  0.00000000000E+00 0.  1.
</event>
<event>
 7    1  0.3331850E-011  0.5052883E+02  0.7816164E-02  0.1300439E+00
        -11   -1    0    0    0    0  0.00000000000E+00  0.00000000000E+00  0.45593999997E+02  0.45594000000E+02  0.51100000000E-03 0.  1.
         11   -1    0    0    0    0 -0.00000000000E+00 -0.00000000000E+00 -0.45593999997E+02  0.45594000000E+02  0.51100000000E-03 0. -1.
    9900012    2    1    2    0    0  0.33484530940E-01  0.11634311827E+02  0.38959081551E+02  0.50528826765E+02  0.29999899434E+02 0.  0.
         12    1    1    2    0    0 -0.33484530940E-01 -0.11634311827E+02 -0.38959081551E+02  0.40659173235E+02  0.00000000000E+00 0. -1.
         11    1    3    3    0    0 -0.46498506610E+00 -0.65980329308E+01  0.97196997960E+01  0.11756819895E+02  0.51100000000E-03 0. -1.
        -11    1    3    3    0    0 -0.80061690351E+01  0.76298224942E+01  0.18040896517E+02  0.21160975434E+02  0.51100000000E-03 0.  1.
        -12    1    3    3    0    0  0.85046386321E+01  0.10602522263E+02  0.11198485238E+02  0.17611031436E+02  0.00000000000E+00 0.  1.
</event>
<event>
 7    1  0.3331850E-011  0.5052886E+02  0.7816164E-02  0.1300439E+00
        -11   -1    0    0    0    0  0.00000000000E+00  0.00000000000E+00  0.45593999997E+02  0.45594000000E+02  0.51100000000E-03 0.  1.
         11   -1    0    0    0    0 -0.00000000000E+00 -0.00000000000E+00 -0.45593999997E+02  0.45594000000E+02  0.51100000000E-03 0. -1.
    9900012    2    1    2    0    0  0.29771314744E+02 -0.61981405943E+00  0.27684836812E+02  0.50528861540E+02  0.30000005136E+02 0.  0.
         12    1    1    2    0    0 -0.29771314744E+02  0.61981405943E+00 -0.27684836812E+02  0.40659138460E+02  0.00000000000E+00 0. -1.
         11    1    3    3    0    0  0.98538409042E+01 -0.59120797091E+01  0.92969829193E+01  0.14781229946E+02  0.51100000000E-03 0. -1.
        -11    1    3    3    0    0  0.22702339539E+02  0.87083169602E+01  0.19538326607E+02  0.31192582639E+02  0.51100000000E-03 0.  1.
         12    1    3    3    0    0 -0.27848656988E+01 -0.34160513105E+01 -0.11504727145E+01  0.45550489550E+01  0.00000000000E+00 0. -1.
</event>
<event>
 7    1  0.3331850E-011  0.5052887E+02  0.7816164E-02  0.1300439E+00
        -11   -1    0    0    0    0  0.00000000000E+00  0.00000000000E+00  0.45593999997E+02  0.45594000000E+02  0.51100000000E-03 0.  1.
         11   -1    0    0    0    0 -0.00000000000E+00 -0.00000000000E+00 -0.45593999997E+02  0.45594000000E+02  0.51100000000E-03 0. -1.
    9900012    2    1    2    0    0 -0.31216031604E+01  0.28259651909E+02  0.29065663300E+02  0.50528866766E+02  0.30000021021E+02 0.  0.
         12    1    1    2    0    0  0.31216031604E+01 -0.28259651909E+02 -0.29065663300E+02  0.40659133234E+02  0.00000000000E+00 0. -1.
         11    1    3    3    0    0  0.66312411595E+01  0.46781759401E+01 -0.70335916348E+00  0.81457598673E+01  0.51100000000E-03 0. -1.
        -11    1    3    3    0    0 -0.11172383481E+02  0.11931574465E+02  0.93483233105E+01  0.18830182443E+02  0.51100000000E-03 0.  1.
        -12    1    3    3    0    0  0.14195391616E+01  0.11649901504E+02  0.20420699153E+02  0.23552924455E+02  0.00000000000E+00 0.  1.
</event>
<event>
 7    1  0.3331850E-011  0.5052884E+02  0.7816164E-02  0.1300439E+00
        -11   -1    0    0    0    0  0.00000000000E+00  0.00000000000E+00  0.45593999997E+02  0.45594000000E+02  0.51100000000E-03 0.  1.
         11   -1    0    0    0    0 -0.00000000000E+00 -0.00000000000E+00 -0.45593999997E+02  0.45594000000E+02  0.51100000000E-03 0. -1.
    9900012    2    1    2    0    0 -0.20440965360E+02 -0.50068306367E+00  0.35143760167E+02  0.50528835878E+02  0.29999927136E+02 0.  0.
         12    1    1    2    0    0  0.20440965360E+02  0.50068306367E+00 -0.35143760167E+02  0.40659164122E+02  0.00000000000E+00 0. -1.
         11    1    3    3    0    0 -0.44714334483E+01 -0.59893007920E+01  0.73835338327E+01  0.10506284461E+02  0.51100000000E-03 0. -1.
        -11    1    3    3    0    0 -0.85558801642E+01  0.27597506354E+01  0.30393599411E+02  0.31695270852E+02  0.51100000000E-03 0.  1.
        -12    1    3    3    0    0 -0.74136517479E+01  0.27288670929E+01 -0.26333730771E+01  0.83272805652E+01  0.00000000000E+00 0.  1.
</event>
<event>
 7    1  0.3331850E-011  0.5052886E+02  0.7816164E-02  0.1300439E+00
        -11   -1    0    0    0    0  0.00000000000E+00  0.00000000000E+00  0.45593999997E+02  0.45594000000E+02  0.51100000000E-03 0.  1.
         11   -1    0    0    0    0 -0.00000000000E+00 -0.00000000000E+00 -0.45593999997E+02  0.45594000000E+02  0.51100000000E-03 0. -1.
    9900012    2    1    2    0    0 -0.23425116896E+02  0.27557556301E+02  0.18574469199E+02  0.50528856909E+02  0.29999991060E+02 0.  0.
         12    1    1    2    0    0  0.23425116896E+02 -0.27557556301E+02 -0.18574469199E+02  0.40659143091E+02  0.00000000000E+00 0. -1.
         11    1    3    3    0    0 -0.77546929578E+01  0.22848898162E+01 -0.24915162225E+01  0.84595294012E+01  0.51100000000E-03 0. -1.
        -11    1    3    3    0    0  0.11616514627E-01  0.15992778385E+02  0.27398824959E+01  0.16225783549E+02  0.51100000000E-03 0.  1.
        -12    1    3    3    0    0 -0.15682040453E+02  0.92798881000E+01  0.18326102925E+02  0.25843543959E+02  0.00000000000E+00 0.  1.
</event>
<event>
 7    1  0.3331850E-011  0.5052885E+02  0.7816164E-02  0.1300439E+00
        -11   -1    0    0    0    0  0.00000000000E+00  0.00000000000E+00  0.45593999997E+02  0.45594000000E+02  0.51100000000E-03 0.  1.
         11   -1    0    0    0    0 -0.00000000000E+00 -0.00000000000E+00 -0.45593999997E+02  0.45594000000E+02  0.51100000000E-03 0. -1.
    9900012    2    1    2    0    0  0.37254875751E+02  0.60330664810E-01  0.16286092874E+02  0.50528853082E+02  0.29999979429E+02 0.  0.
         12    1    1    2    0    0 -0.37254875751E+02 -0.60330664810E-01 -0.16286092874E+02  0.40659146918E+02  0.00000000000E+00 0. -1.
         11    1    3    3    0    0 -0.13545280443E+01  0.23834580642E+01 -0.31567039310E+01  0.41809566531E+01  0.51100000000E-03 0. -1.
        -11    1    3    3    0    0  0.63384541168E+01 -0.28546204053E+01 -0.24245506103E+01  0.73622893296E+01  0.51100000000E-03 0.  1.
        -12    1    3    3    0    0  0.32270949678E+02  0.53149300596E+00  0.21867347415E+02  0.38985607100E+02  0.00000000000E+00 0.  1.
</event>
<event>
 7    1  0.3331850E-011  0.5052885E+02  0.7816164E-02  0.1300439E+00
        -11   -1    0    0    0    0  0.00000000000E+00  0.00000000000E+00  0.45593999997E+02  0.45594000000E+02  0.51100000000E-03 0. -1.
         11   -1    0    0    0    0 -0.00000000000E+00 -0.00000000000E+00 -0.45593999997E+02  0.45594000000E+02  0.51100000000E-03 0.  1.
    9900012    2    1    2    0    0  0.14317113628E+01 -0.37908059709E+02 -0.14632003415E+02  0.50528852047E+02  0.29999976282E+02 0.  0.
         12    1    1    2    0    0 -0.14317113628E+01  0.37908059709E+02  0.14632003415E+02  0.40659147953E+02  0.00000000000E+00 0. -1.
         11    1    3    3    0    0  0.26699541459E+01 -0.37220315223E+01  0.41234652415E+01  0.61632085518E+01  0.51100000000E-03 0. -1.
        -11    1    3    3    0    0 -0.81000831479E+01 -0.18556812779E+02 -0.18342154486E+01  0.20330543379E+02  0.51100000000E-03 0.  1.
         12    1    3    3    0    0  0.68618403648E+01 -0.15629215408E+02 -0.16921253208E+02  0.24035100116E+02  0.00000000000E+00 0. -1.
</event>
<event>
 7    1  0.3331850E-011  0.5052885E+02  0.7816164E-02  0.1300439E+00
        -11   -1    0    0    0    0  0.00000000000E+00  0.00000000000E+00  0.45593999997E+02  0.45594000000E+02  0.51100000000E-03 0.  1.
         11   -1    0    0    0    0 -0.00000000000E+00 -0.00000000000E+00 -0.45593999997E+02  0.45594000000E+02  0.51100000000E-03 0. -1.
    9900012    2    1    2    0    0 -0.40163615627E+01  0.11962403343E+02  0.38651467089E+02  0.50528853894E+02  0.29999981897E+02 0.  0.
         12    1    1    2    0    0  0.40163615627E+01 -0.11962403343E+02 -0.38651467089E+02  0.40659146106E+02  0.00000000000E+00 0. -1.
         11    1    3    3    0    0 -0.98228263004E-01  0.10647375185E+02  0.37235942402E+01  0.11280133042E+02  0.51100000000E-03 0. -1.
        -11    1    3    3    0    0 -0.38866762478E+01  0.86856366389E+01  0.12966190589E+02  0.16083178626E+02  0.51100000000E-03 0.  1.
        -12    1    3    3    0    0 -0.31457051883E-01 -0.73706084812E+01  0.21961682260E+02  0.23165542226E+02  0.00000000000E+00 0.  1.
</event>
<event>
 7    1  0.3331850E-011  0.5052893E+02  0.7816164E-02  0.1300439E+00
        -11   -1    0    0    0    0  0.00000000000E+00  0.00000000000E+00  0.45593999997E+02  0.45594000000E+02  0.51100000000E-03 0.  1.
         11   -1    0    0    0    0 -0.00000000000E+00 -0.00000000000E+00 -0.45593999997E+02  0.45594000000E+02  0.51100000000E-03 0. -1.
    9900012    2    1    2    0    0  0.22708539020E+02 -0.16928749746E+02  0.29170186591E+02  0.50528928464E+02  0.30000208559E+02 0.  0.
         12    1    1    2    0    0 -0.22708539020E+02  0.16928749746E+02 -0.29170186591E+02  0.40659071536E+02  0.00000000000E+00 0. -1.
         11    1    3    3    0    0 -0.14403468279E+01 -0.59484958670E+01  0.14423295688E+02  0.15668141588E+02  0.51100000000E-03 0. -1.
        -11    1    3    3    0    0  0.12294650286E+01 -0.84389955651E+01  0.40140556687E+01  0.94255436754E+01  0.51100000000E-03 0.  1.
        -12    1    3    3    0    0  0.22919420819E+02 -0.25412583140E+01  0.10732835234E+02  0.25435243201E+02  0.00000000000E+00 0.  1.
</event>
<event>
 7    1  0.3331850E-011  0.5052886E+02  0.7816164E-02  0.1300439E+00
        -11   -1    0    0    0    0  0.00000000000E+00  0.00000000000E+00  0.45593999997E+02  0.45594000000E+02  0.51100000000E-03 0.  1.
         11   -1    0    0    0    0 -0.00000000000E+00 -0.00000000000E+00 -0.45593999997E+02  0.45594000000E+02  0.51100000000E-03 0. -1.
    9900012    2    1    2    0    0  0.31573960533E+02 -0.14240053825E+02  0.21294875318E+02  0.50528857960E+02  0.29999994254E+02 0.  0.
         12    1    1    2    0    0 -0.31573960533E+02  0.14240053825E+02 -0.21294875318E+02  0.40659142040E+02  0.00000000000E+00 0. -1.
         11    1    3    3    0    0  0.88009804062E+01  0.25425502428E+00  0.20199414408E+01  0.90333861543E+01  0.51100000000E-03 0. -1.
        -11    1    3    3    0    0  0.24978168401E+02 -0.15050424356E+02  0.83465656989E+01  0.30332974288E+02  0.51100000000E-03 0.  1.
         12    1    3    3    0    0 -0.22051882742E+01  0.55611550695E+00  0.10928368178E+02  0.11162497517E+02  0.00000000000E+00 0. -1.
</event>
<event>
 7    1  0.3331850E-011  0.5052887E+02  0.7816164E-02  0.1300439E+00
        -11   -1    0    0    0    0  0.00000000000E+00  0.00000000000E+00  0.45593999997E+02  0.45594000000E+02  0.51100000000E-03 0.  1.
         11   -1    0    0    0    0 -0.00000000000E+00 -0.00000000000E+00 -0.45593999997E+02  0.45594000000E+02  0.51100000000E-03 0. -1.
    9900012    2    1    2    0    0  0.33066247127E+02  0.97170753845E+01  0.21572363183E+02  0.50528866876E+02  0.30000021357E+02 0.  0.
         12    1    1    2    0    0 -0.33066247127E+02 -0.97170753845E+01 -0.21572363183E+02  0.40659133124E+02  0.00000000000E+00 0. -1.
         11    1    3    3    0    0  0.30561956305E+01  0.16731955776E+01  0.88873950977E+01  0.95459785804E+01  0.51100000000E-03 0. -1.
        -11    1    3    3    0    0  0.28958173305E+01  0.55218828681E+01  0.12252991138E+02  0.13748190445E+02  0.51100000000E-03 0.  1.
         12    1    3    3    0    0  0.27114234166E+02  0.25219969389E+01  0.43197694771E+00  0.27234697851E+02  0.00000000000E+00 0. -1.
</event>
<event>
 7    1  0.3331850E-011  0.5052886E+02  0.7816164E-02  0.1300439E+00
        -11   -1    0    0    0    0  0.00000000000E+00  0.00000000000E+00  0.45593999997E+02  0.45594000000E+02  0.51100000000E-03 0.  1.
         11   -1    0    0    0    0 -0.00000000000E+00 -0.00000000000E+00 -0.45593999997E+02  0.45594000000E+02  0.51100000000E-03 0. -1.
    9900012    2    1    2    0    0  0.47414355568E+01 -0.18940946701E+02  0.35664061617E+02  0.50528856328E+02  0.29999989296E+02 0.  0.
         12    1    1    2    0    0 -0.47414355568E+01  0.18940946701E+02 -0.35664061617E+02  0.40659143672E+02  0.00000000000E+00 0. -1.
         11    1    3    3    0    0  0.12708790174E+01 -0.14454224130E+02  0.24448836611E+02  0.28430359488E+02  0.51100000000E-03 0.  1.
        -11    1    3    3    0    0  0.57725542777E+01 -0.27892918352E+01 -0.33648781209E+01  0.72405066715E+01  0.51100000000E-03 0. -1.
         12    1    3    3    0    0 -0.23019977383E+01 -0.16974307356E+01  0.14580103127E+02  0.14857990169E+02  0.00000000000E+00 0. -1.
</event>
<event>
 7    1  0.3331850E-011  0.5052886E+02  0.7816164E-02  0.1300439E+00
        -11   -1    0    0    0    0  0.00000000000E+00  0.00000000000E+00  0.45593999997E+02  0.45594000000E+02  0.51100000000E-03 0.  1.
         11   -1    0    0    0    0 -0.00000000000E+00 -0.00000000000E+00 -0.45593999997E+02  0.45594000000E+02  0.51100000000E-03 0. -1.
    9900012    2    1    2    0    0  0.33008671151E+02  0.23388002573E+02  0.40736154885E+01  0.50528863528E+02  0.30000011179E+02 0.  0.
         12    1    1    2    0    0 -0.33008671151E+02 -0.23388002573E+02 -0.40736154885E+01  0.40659136472E+02  0.00000000000E+00 0. -1.
         11    1    3    3    0    0  0.37364530892E+01  0.87795329847E+01 -0.55863446593E+00  0.95578948438E+01  0.51100000000E-03 0. -1.
        -11    1    3    3    0    0 -0.62141618676E+00  0.80246660746E+01  0.64393649839E+01  0.10307611040E+02  0.51100000000E-03 0.  1.
         12    1    3    3    0    0  0.29893634248E+02  0.65838035142E+01 -0.18071150294E+01  0.30663357644E+02  0.00000000000E+00 0. -1.
</event>
<event>
 7    1  0.3331850E-011  0.5052880E+02  0.7816164E-02  0.1300439E+00
        -11   -1    0    0    0    0  0.00000000000E+00  0.00000000000E+00  0.45593999997E+02  0.45594000000E+02  0.51100000000E-03 0.  1.
         11   -1    0    0    0    0 -0.00000000000E+00 -0.00000000000E+00 -0.45593999997E+02  0.45594000000E+02  0.51100000000E-03 0. -1.
    9900012    2    1    2    0    0  0.16193501894E+01 -0.25350861846E+02  0.31747154588E+02  0.50528802814E+02  0.29999826632E+02 0.  0.
         12    1    1    2    0    0 -0.16193501894E+01  0.25350861846E+02 -0.31747154588E+02  0.40659197186E+02  0.00000000000E+00 0. -1.
         11    1    3    3    0    0 -0.29921103104E+01 -0.61429778146E+01  0.10394952286E+02  0.12439611482E+02  0.51100000000E-03 0. -1.
        -11    1    3    3    0    0 -0.82355834180E+01 -0.10553501693E+02  0.17668541936E+02  0.22167061299E+02  0.51100000000E-03 0.  1.
         12    1    3    3    0    0  0.12847043918E+02 -0.86543823384E+01  0.36836603661E+01  0.15922130033E+02  0.00000000000E+00 0. -1.
</event>
<event>
 7    1  0.3331850E-011  0.5052887E+02  0.7816164E-02  0.1300439E+00
        -11   -1    0    0    0    0  0.00000000000E+00  0.00000000000E+00  0.45593999997E+02  0.45594000000E+02  0.51100000000E-03 0.  1.
         11   -1    0    0    0    0 -0.00000000000E+00 -0.00000000000E+00 -0.45593999997E+02  0.45594000000E+02  0.51100000000E-03 0. -1.
    9900012    2    1    2    0    0 -0.13764962398E+02 -0.25694990054E+02  0.28345333430E+02  0.50528872723E+02  0.30000039128E+02 0.  0.
         12    1    1    2    0    0  0.13764962398E+02  0.25694990054E+02 -0.28345333430E+02  0.40659127277E+02  0.00000000000E+00 0. -1.
         11    1    3    3    0    0  0.49991337233E+00 -0.75694248283E+01  0.21611538558E+01  0.78877558190E+01  0.51100000000E-03 0. -1.
        -11    1    3    3    0    0 -0.13751511270E+02 -0.21109132251E+02  0.11581280542E+02  0.27727704302E+02  0.51100000000E-03 0.  1.
        -12    1    3    3    0    0 -0.51336450060E+00  0.29835670251E+01  0.14602899032E+02  0.14913412602E+02  0.00000000000E+00 0.  1.
</event>
<event>
 7    1  0.3331850E-011  0.5052886E+02  0.7816164E-02  0.1300439E+00
        -11   -1    0    0    0    0  0.00000000000E+00  0.00000000000E+00  0.45593999997E+02  0.45594000000E+02  0.51100000000E-03 0.  1.
         11   -1    0    0    0    0 -0.00000000000E+00 -0.00000000000E+00 -0.45593999997E+02  0.45594000000E+02  0.51100000000E-03 0. -1.
    9900012    2    1    2    0    0 -0.29813782396E+02 -0.20023697389E+02  0.19061891015E+02  0.50528858753E+02  0.29999996665E+02 0.  0.
         12    1    1    2    0    0  0.29813782396E+02  0.20023697389E+02 -0.19061891015E+02  0.40659141247E+02  0.00000000000E+00 0. -1.
         11    1    3    3    0    0 -0.12447155861E+02 -0.89561490967E+01  0.13160226838E+02  0.20207322098E+02  0.51100000000E-03 0. -1.
        -11    1    3    3    0    0 -0.67113126943E+01 -0.60607648905E+01  0.13544103741E+02  0.16285494636E+02  0.51100000000E-03 0.  1.
         12    1    3    3    0    0 -0.10655313841E+02 -0.50067834015E+01 -0.76424395636E+01  0.14036042019E+02  0.00000000000E+00 0. -1.
</event>
<event>
 7    1  0.3331850E-011  0.5052887E+02  0.7816164E-02  0.1300439E+00
        -11   -1    0    0    0    0  0.00000000000E+00  0.00000000000E+00  0.45593999997E+02  0.45594000000E+02  0.51100000000E-03 0.  1.
         11   -1    0    0    0    0 -0.00000000000E+00 -0.00000000000E+00 -0.45593999997E+02  0.45594000000E+02  0.51100000000E-03 0. -1.
    9900012    2    1    2    0    0 -0.43049609849E+01 -0.24371065807E+02  0.32259624744E+02  0.50528869091E+02  0.30000028089E+02 0.  0.
         12    1    1    2    0    0  0.43049609849E+01  0.24371065807E+02 -0.32259624744E+02  0.40659130909E+02  0.00000000000E+00 0. -1.
         11    1    3    3    0    0  0.52785452029E+01 -0.45365116527E+01  0.53818520868E+00  0.69808753759E+01  0.51100000000E-03 0. -1.
        -11    1    3    3    0    0 -0.41079058181E+01 -0.52049895902E+01 -0.15346321307E+01  0.68060196064E+01  0.51100000000E-03 0.  1.
        -12    1    3    3    0    0 -0.54756003697E+01 -0.14629564564E+02  0.33256071666E+02  0.36741974109E+02  0.00000000000E+00 0.  1.
</event>
<event>
 7    1  0.3603077E-011  0.5052886E+02  0.7816164E-02  0.1300439E+00
        -11   -1    0    0    0    0  0.00000000000E+00  0.00000000000E+00  0.45593999997E+02  0.45594000000E+02  0.51100000000E-03 0.  1.
         11   -1    0    0    0    0 -0.00000000000E+00 -0.00000000000E+00 -0.45593999997E+02  0.45594000000E+02  0.51100000000E-03 0. -1.
    9900012    2    1    2    0    0 -0.10352035976E+02  0.38763154973E+02  0.65892806885E+01  0.50528862622E+02  0.30000008426E+02 0.  0.
         12    1    1    2    0    0  0.10352035976E+02 -0.38763154973E+02 -0.65892806885E+01  0.40659137378E+02  0.00000000000E+00 0. -1.
         11    1    3    3    0    0 -0.51638997829E+01  0.11366490577E+02  0.10978023818E+02  0.16624679733E+02  0.51100000000E-03 0. -1.
        -11    1    3    3    0    0 -0.96693042764E+01  0.11598569941E+02  0.37755529277E+01  0.15565252006E+02  0.51100000000E-03 0.  1.
         12    1    3    3    0    0  0.44811680830E+01  0.15798094456E+02 -0.81642960570E+01  0.18338930883E+02  0.00000000000E+00 0. -1.
</event>
<event>
 7    1  0.3331850E-011  0.5052886E+02  0.7816164E-02  0.1300439E+00
        -11   -1    0    0    0    0  0.00000000000E+00  0.00000000000E+00  0.45593999997E+02  0.45594000000E+02  0.51100000000E-03 0.  1.
         11   -1    0    0    0    0 -0.00000000000E+00 -0.00000000000E+00 -0.45593999997E+02  0.45594000000E+02  0.51100000000E-03 0. -1.
    9900012    2    1    2    0    0 -0.40608173972E+02 -0.86305797206E+00 -0.18431447857E+01  0.50528857792E+02  0.29999993745E+02 0.  0.
         12    1    1    2    0    0  0.40608173972E+02  0.86305797206E+00  0.18431447857E+01  0.40659142208E+02  0.00000000000E+00 0. -1.
         11    1    3    3    0    0 -0.17424512186E+02  0.11810609583E+01 -0.96256711565E+01  0.19941466230E+02  0.51100000000E-03 0. -1.
        -11    1    3    3    0    0  0.25255355042E+01 -0.13455985578E+01 -0.15172237093E+01  0.32389709951E+01  0.51100000000E-03 0.  1.
        -12    1    3    3    0    0 -0.25709197289E+02 -0.69852037256E+00  0.92997500801E+01  0.27348420567E+02  0.00000000000E+00 0.  1.
</event>
<event>
 7    1  0.3331850E-011  0.5052883E+02  0.7816164E-02  0.1300439E+00
        -11   -1    0    0    0    0  0.00000000000E+00  0.00000000000E+00  0.45593999997E+02  0.45594000000E+02  0.51100000000E-03 0. -1.
         11   -1    0    0    0    0 -0.00000000000E+00 -0.00000000000E+00 -0.45593999997E+02  0.45594000000E+02  0.51100000000E-03 0.  1.
    9900012    2    1    2    0    0 -0.34622314048E+02  0.12895181929E+02 -0.16975799553E+02  0.50528829848E+02  0.29999908804E+02 0.  0.
         12    1    1    2    0    0  0.34622314048E+02 -0.12895181929E+02  0.16975799553E+02  0.40659170152E+02  0.00000000000E+00 0. -1.
         11    1    3    3    0    0 -0.18816736722E+01  0.63395339352E+01  0.11978468272E+01  0.67205076897E+01  0.51100000000E-03 0.  1.
        -11    1    3    3    0    0 -0.14227624644E+02  0.62803313144E+01  0.28316496891E+01  0.15807786204E+02  0.51100000000E-03 0. -1.
        -12    1    3    3    0    0 -0.18513015732E+02  0.27531667896E+00 -0.21005296070E+02  0.28000535954E+02  0.00000000000E+00 0.  1.
</event>
<event>
 7    1  0.3331850E-011  0.5052887E+02  0.7816164E-02  0.1300439E+00
        -11   -1    0    0    0    0  0.00000000000E+00  0.00000000000E+00  0.45593999997E+02  0.45594000000E+02  0.51100000000E-03 0.  1.
         11   -1    0    0    0    0 -0.00000000000E+00 -0.00000000000E+00 -0.45593999997E+02  0.45594000000E+02  0.51100000000E-03 0. -1.
    9900012    2    1    2    0    0 -0.18820532978E+01 -0.37032158785E+02 -0.16680586825E+02  0.50528869589E+02  0.30000029604E+02 0.  0.
         12    1    1    2    0    0  0.18820532978E+01  0.37032158785E+02  0.16680586825E+02  0.40659130411E+02  0.00000000000E+00 0. -1.
         11    1    3    3    0    0  0.39622717706E+01 -0.69978346213E+00  0.12466466056E+01  0.42122942085E+01  0.51100000000E-03 0. -1.
        -11    1    3    3    0    0 -0.91827646264E+00  0.24887349404E+01 -0.39597164540E+01  0.47661712016E+01  0.51100000000E-03 0.  1.
        -12    1    3    3    0    0 -0.49260486058E+01 -0.38821110264E+02 -0.13967516977E+02  0.41550404179E+02  0.00000000000E+00 0.  1.
</event>
<event>
 7    1  0.3331850E-011  0.5052887E+02  0.7816164E-02  0.1300439E+00
        -11   -1    0    0    0    0  0.00000000000E+00  0.00000000000E+00  0.45593999997E+02  0.45594000000E+02  0.51100000000E-03 0. -1.
         11   -1    0    0    0    0 -0.00000000000E+00 -0.00000000000E+00 -0.45593999997E+02  0.45594000000E+02  0.51100000000E-03 0.  1.
    9900012    2    1    2    0    0 -0.16351348943E+02 -0.48396128232E+01 -0.36910381698E+02  0.50528871362E+02  0.30000034993E+02 0.  0.
         12    1    1    2    0    0  0.16351348943E+02  0.48396128232E+01  0.36910381698E+02  0.40659128638E+02  0.00000000000E+00 0. -1.
         11    1    3    3    0    0  0.93093048837E+00 -0.26555961275E+01 -0.15448002822E+00  0.28182772587E+01  0.51100000000E-03 0. -1.
        -11    1    3    3    0    0 -0.52101113732E+01 -0.46339495216E+01  0.18277417462E+01  0.72082861237E+01  0.51100000000E-03 0.  1.
        -12    1    3    3    0    0 -0.12072168058E+02  0.24499328259E+01 -0.38583643415E+02  0.40502307980E+02  0.00000000000E+00 0.  1.
</event>
<event>
 7    1  0.3331850E-011  0.5052886E+02  0.7816164E-02  0.1300439E+00
        -11   -1    0    0    0    0  0.00000000000E+00  0.00000000000E+00  0.45593999997E+02  0.45594000000E+02  0.51100000000E-03 0.  1.
         11   -1    0    0    0    0 -0.00000000000E+00 -0.00000000000E+00 -0.45593999997E+02  0.45594000000E+02  0.51100000000E-03 0. -1.
    9900012    2    1    2    0    0 -0.35717925921E+02 -0.20026041766E+01  0.19323164449E+02  0.50528864004E+02  0.30000012628E+02 0.  0.
         12    1    1    2    0    0  0.35717925921E+02  0.20026041766E+01 -0.19323164449E+02  0.40659135996E+02  0.00000000000E+00 0. -1.
         11    1    3    3    0    0 -0.21020823018E+02 -0.83347286159E+01  0.78075954281E+01  0.23922818565E+02  0.51100000000E-03 0.  1.
        -11    1    3    3    0    0 -0.69467197645E+01  0.35725248106E-01 -0.41031186226E+01  0.80680712981E+01  0.51100000000E-03 0. -1.
        -12    1    3    3    0    0 -0.77503831383E+01  0.62963991912E+01  0.15618687643E+02  0.18537974141E+02  0.00000000000E+00 0.  1.
</event>
<event>
 7    1  0.3331850E-011  0.5052890E+02  0.7816164E-02  0.1300439E+00
        -11   -1    0    0    0    0  0.00000000000E+00  0.00000000000E+00  0.45593999997E+02  0.45594000000E+02  0.51100000000E-03 0. -1.
         11   -1    0    0    0    0 -0.00000000000E+00 -0.00000000000E+00 -0.45593999997E+02  0.45594000000E+02  0.51100000000E-03 0.  1.
    9900012    2    1    2    0    0 -0.25445698357E+01  0.56164539895E+01 -0.40188839264E+02  0.50528902710E+02  0.30000130277E+02 0.  0.
         12    1    1    2    0    0  0.25445698357E+01 -0.56164539895E+01  0.40188839264E+02  0.40659097290E+02  0.00000000000E+00 0. -1.
         11    1    3    3    0    0  0.16611141852E+01  0.57185353849E+00 -0.15604480141E+02  0.15703060770E+02  0.51100000000E-03 0. -1.
        -11    1    3    3    0    0  0.47519864177E+01  0.10333747217E+02 -0.20891781106E+02  0.23787270220E+02  0.51100000000E-03 0.  1.
         12    1    3    3    0    0 -0.89576704386E+01 -0.52891467665E+01 -0.36925780159E+01  0.11038571720E+02  0.00000000000E+00 0. -1.
</event>
<event>
 7    1  0.3331850E-011  0.5052886E+02  0.7816164E-02  0.1300439E+00
        -11   -1    0    0    0    0  0.00000000000E+00  0.00000000000E+00  0.45593999997E+02  0.45594000000E+02  0.51100000000E-03 0.  1.
         11   -1    0    0    0    0 -0.00000000000E+00 -0.00000000000E+00 -0.45593999997E+02  0.45594000000E+02  0.51100000000E-03 0. -1.
    9900012    2    1    2    0    0  0.13900554676E+02  0.22292317014E+02  0.31032124116E+02  0.50528861479E+02  0.30000004951E+02 0.  0.
         12    1    1    2    0    0 -0.13900554676E+02 -0.22292317014E+02 -0.31032124116E+02  0.40659138521E+02  0.00000000000E+00 0. -1.
         11    1    3    3    0    0  0.83470193496E+01 -0.19310892406E+00  0.50430167849E+00  0.83644691119E+01  0.51100000000E-03 0. -1.
        -11    1    3    3    0    0 -0.88305273069E+00 -0.20893155732E+01 -0.22109348824E+00  0.22790138836E+01  0.51100000000E-03 0.  1.
        -12    1    3    3    0    0  0.64365880567E+01  0.24574741511E+02  0.30748915926E+02  0.39885378483E+02  0.00000000000E+00 0.  1.
</event>
<event>
 7    1  0.3331850E-011  0.5052886E+02  0.7816164E-02  0.1300439E+00
        -11   -1    0    0    0    0  0.00000000000E+00  0.00000000000E+00  0.45593999997E+02  0.45594000000E+02  0.51100000000E-03 0.  1.
         11   -1    0    0    0    0 -0.00000000000E+00 -0.00000000000E+00 -0.45593999997E+02  0.45594000000E+02  0.51100000000E-03 0. -1.
    9900012    2    1    2    0    0  0.28895052739E+02  0.12258945211E+01  0.28578636225E+02  0.50528864020E+02  0.30000012676E+02 0.  0.
         12    1    1    2    0    0 -0.28895052739E+02 -0.12258945211E+01 -0.28578636225E+02  0.40659135980E+02  0.00000000000E+00 0. -1.
         11    1    3    3    0    0  0.31454134848E+01 -0.17196044601E+01  0.80139262669E+01  0.87791616890E+01  0.51100000000E-03 0. -1.
        -11    1    3    3    0    0  0.17736757539E+02 -0.12428229718E+01  0.25776257365E+02  0.31313776856E+02  0.51100000000E-03 0.  1.
        -12    1    3    3    0    0  0.80128817147E+01  0.41883219531E+01 -0.52115474070E+01  0.10435925476E+02  0.00000000000E+00 0.  1.
</event>
<event>
 7    1  0.3331850E-011  0.5052885E+02  0.7816164E-02  0.1300439E+00
        -11   -1    0    0    0    0  0.00000000000E+00  0.00000000000E+00  0.45593999997E+02  0.45594000000E+02  0.51100000000E-03 0.  1.
         11   -1    0    0    0    0 -0.00000000000E+00 -0.00000000000E+00 -0.45593999997E+02  0.45594000000E+02  0.51100000000E-03 0. -1.
    9900012    2    1    2    0    0  0.36493869057E+02  0.53718317185E+01  0.17102842174E+02  0.50528852626E+02  0.29999978041E+02 0.  0.
         12    1    1    2    0    0 -0.36493869057E+02 -0.53718317185E+01 -0.17102842174E+02  0.40659147374E+02  0.00000000000E+00 0. -1.
         11    1    3    3    0    0  0.62848865129E+01 -0.66604761825E+00  0.15303457468E+02  0.16557150378E+02  0.51100000000E-03 0. -1.
        -11    1    3    3    0    0  0.15233416691E+01 -0.25107505636E+01 -0.23393341673E+01  0.37545869068E+01  0.51100000000E-03 0.  1.
        -12    1    3    3    0    0  0.28685640875E+02  0.85486299003E+01  0.41387188730E+01  0.30217115341E+02  0.00000000000E+00 0.  1.
</event>
<event>
 7    1  0.3331850E-011  0.5052886E+02  0.7816164E-02  0.1300439E+00
        -11   -1    0    0    0    0  0.00000000000E+00  0.00000000000E+00  0.45593999997E+02  0.45594000000E+02  0.51100000000E-03 0. -1.
         11   -1    0    0    0    0 -0.00000000000E+00 -0.00000000000E+00 -0.45593999997E+02  0.45594000000E+02  0.51100000000E-03 0.  1.
    9900012    2    1    2    0    0 -0.25148037245E+02  0.28923493731E+02  0.13571058648E+02  0.50528857120E+02  0.29999991702E+02 0.  0.
         12    1    1    2    0    0  0.25148037245E+02 -0.28923493731E+02 -0.13571058648E+02  0.40659142880E+02  0.00000000000E+00 0. -1.
         11    1    3    3    0    0 -0.93437581479E+01  0.10807880517E+02  0.15027965716E+02  0.20735376809E+02  0.51100000000E-03 0. -1.
        -11    1    3    3    0    0 -0.83137569054E-01  0.34199299308E+01  0.60927567554E+01  0.69874543096E+01  0.51100000000E-03 0.  1.
        -12    1    3    3    0    0 -0.15721141528E+02  0.14695683284E+02 -0.75496638234E+01  0.22806026001E+02  0.00000000000E+00 0.  1.
</event>
<event>
 7    1  0.3331850E-011  0.5052886E+02  0.7816164E-02  0.1300439E+00
        -11   -1    0    0    0    0  0.00000000000E+00  0.00000000000E+00  0.45593999997E+02  0.45594000000E+02  0.51100000000E-03 0.  1.
         11   -1    0    0    0    0 -0.00000000000E+00 -0.00000000000E+00 -0.45593999997E+02  0.45594000000E+02  0.51100000000E-03 0. -1.
    9900012    2    1    2    0    0  0.22546834310E+02 -0.32005999216E+02 -0.10973707169E+02  0.50528856229E+02  0.29999988993E+02 0.  0.
         12    1    1    2    0    0 -0.22546834310E+02  0.32005999216E+02  0.10973707169E+02  0.40659143771E+02  0.00000000000E+00 0. -1.
         11    1    3    3    0    0  0.26902479644E+02 -0.24035342360E+02 -0.44886342065E+01  0.36353664611E+02  0.51100000000E-03 0. -1.
        -11    1    3    3    0    0 -0.24167323043E+01 -0.46515530801E+01  0.13804568552E+01  0.54206274986E+01  0.51100000000E-03 0.  1.
        -12    1    3    3    0    0 -0.19389130296E+01 -0.33191037752E+01 -0.78655298172E+01  0.87545641190E+01  0.00000000000E+00 0.  1.
</event>
<event>
 7    1  0.3331850E-011  0.5052886E+02  0.7816164E-02  0.1300439E+00
        -11   -1    0    0    0    0  0.00000000000E+00  0.00000000000E+00  0.45593999997E+02  0.45594000000E+02  0.51100000000E-03 0.  1.
         11   -1    0    0    0    0 -0.00000000000E+00 -0.00000000000E+00 -0.45593999997E+02  0.45594000000E+02  0.51100000000E-03 0. -1.
    9900012    2    1    2    0    0 -0.27175804351E+02 -0.78401344105E+01  0.29209134317E+02  0.50528861086E+02  0.30000003756E+02 0.  0.
         12    1    1    2    0    0  0.27175804351E+02  0.78401344105E+01 -0.29209134317E+02  0.40659138914E+02  0.00000000000E+00 0. -1.
         11    1    3    3    0    0 -0.43958149056E+01  0.87794247786E+01  0.50591464933E+01  0.11045200389E+02  0.51100000000E-03 0. -1.
        -11    1    3    3    0    0 -0.36533404256E+01 -0.82989224432E+00 -0.12823280574E+01  0.39597958168E+01  0.51100000000E-03 0.  1.
        -12    1    3    3    0    0 -0.19126649020E+02 -0.15789666945E+02  0.25432315881E+02  0.35523864880E+02  0.00000000000E+00 0.  1.
</event>
<event>
 7    1  0.3331850E-011  0.5052888E+02  0.7816164E-02  0.1300439E+00
        -11   -1    0    0    0    0  0.00000000000E+00  0.00000000000E+00  0.45593999997E+02  0.45594000000E+02  0.51100000000E-03 0. -1.
         11   -1    0    0    0    0 -0.00000000000E+00 -0.00000000000E+00 -0.45593999997E+02  0.45594000000E+02  0.51100000000E-03 0.  1.
    9900012    2    1    2    0    0 -0.40505777911E+02 -0.33547617217E+01 -0.10916156373E+01  0.50528879313E+02  0.30000059159E+02 0.  0.
         12    1    1    2    0    0  0.40505777911E+02  0.33547617217E+01  0.10916156373E+01  0.40659120687E+02  0.00000000000E+00 0. -1.
         11    1    3    3    0    0 -0.14847100509E+02  0.52730374716E+01 -0.52867142789E+01  0.16618985103E+02  0.51100000000E-03 0. -1.
        -11    1    3    3    0    0 -0.10141152426E+02 -0.24027336316E+01 -0.80641058197E+01  0.13177477162E+02  0.51100000000E-03 0.  1.
         12    1    3    3    0    0 -0.15517524976E+02 -0.62250655618E+01  0.12259204461E+02  0.20732417048E+02  0.00000000000E+00 0. -1.
</event>
<event>
 7    1  0.3331850E-011  0.5052886E+02  0.7816164E-02  0.1300439E+00
        -11   -1    0    0    0    0  0.00000000000E+00  0.00000000000E+00  0.45593999997E+02  0.45594000000E+02  0.51100000000E-03 0.  1.
         11   -1    0    0    0    0 -0.00000000000E+00 -0.00000000000E+00 -0.45593999997E+02  0.45594000000E+02  0.51100000000E-03 0. -1.
    9900012    2    1    2    0    0 -0.70049831188E+01  0.40048098280E+02 -0.49561218888E+00  0.50528860858E+02  0.30000003064E+02 0.  0.
         12    1    1    2    0    0  0.70049831188E+01 -0.40048098280E+02  0.49561218888E+00  0.40659139142E+02  0.00000000000E+00 0. -1.
         11    1    3    3    0    0  0.30866146224E+01  0.86164509586E+00  0.13173340213E+01  0.34648219699E+01  0.51100000000E-03 0. -1.
        -11    1    3    3    0    0  0.50751564979E+01  0.14001538092E+01  0.30074038271E+01  0.60631775669E+01  0.51100000000E-03 0.  1.
         12    1    3    3    0    0 -0.15166754239E+02  0.37786299375E+02 -0.48203500372E+01  0.41000861321E+02  0.00000000000E+00 0. -1.
</event>
<event>
 7    1  0.3703239E-011  0.5052886E+02  0.7816164E-02  0.1300439E+00
        -11   -1    0    0    0    0  0.00000000000E+00  0.00000000000E+00  0.45593999997E+02  0.45594000000E+02  0.51100000000E-03 0. -1.
         11   -1    0    0    0    0 -0.00000000000E+00 -0.00000000000E+00 -0.45593999997E+02  0.45594000000E+02  0.51100000000E-03 0.  1.
    9900012    2    1    2    0    0  0.54399764121E+01 -0.40134143274E+02  0.35809336306E+01  0.50528857297E+02  0.29999992239E+02 0.  0.
         12    1    1    2    0    0 -0.54399764121E+01  0.40134143274E+02 -0.35809336306E+01  0.40659142703E+02  0.00000000000E+00 0. -1.
         11    1    3    3    0    0 -0.55698506703E+01 -0.47721669055E+01 -0.33375274661E+01  0.80582816600E+01  0.51100000000E-03 0. -1.
        -11    1    3    3    0    0  0.12322662931E+02 -0.31757290028E+02 -0.55633423569E+00  0.34068798037E+02  0.51100000000E-03 0.  1.
         12    1    3    3    0    0 -0.13128358484E+01 -0.36046863406E+01  0.74747953324E+01  0.84017776000E+01  0.00000000000E+00 0. -1.
</event>
<event>
 7    1  0.3331850E-011  0.5052888E+02  0.7816164E-02  0.1300439E+00
        -11   -1    0    0    0    0  0.00000000000E+00  0.00000000000E+00  0.45593999997E+02  0.45594000000E+02  0.51100000000E-03 0.  1.
         11   -1    0    0    0    0 -0.00000000000E+00 -0.00000000000E+00 -0.45593999997E+02  0.45594000000E+02  0.51100000000E-03 0. -1.
    9900012    2    1    2    0    0  0.20292045008E+01  0.51167228668E+01  0.40284807507E+02  0.50528877534E+02  0.30000053753E+02 0.  0.
         12    1    1    2    0    0 -0.20292045008E+01 -0.51167228668E+01 -0.40284807507E+02  0.40659122466E+02  0.00000000000E+00 0. -1.
         11    1    3    3    0    0 -0.52113285640E+01 -0.14896705950E+01  0.12173227507E+01  0.55550822518E+01  0.51100000000E-03 0. -1.
        -11    1    3    3    0    0 -0.55269434683E+01  0.51691516571E+01  0.65441857649E+01  0.10004678932E+02  0.51100000000E-03 0.  1.
        -12    1    3    3    0    0  0.12767476533E+02  0.14372418047E+01  0.32523298991E+02  0.34969116350E+02  0.00000000000E+00 0.  1.
</event>
<event>
 7    1  0.3331850E-011  0.5052886E+02  0.7816164E-02  0.1300439E+00
        -11   -1    0    0    0    0  0.00000000000E+00  0.00000000000E+00  0.45593999997E+02  0.45594000000E+02  0.51100000000E-03 0.  1.
         11   -1    0    0    0    0 -0.00000000000E+00 -0.00000000000E+00 -0.45593999997E+02  0.45594000000E+02  0.51100000000E-03 0. -1.
    9900012    2    1    2    0    0  0.19900207274E+02 -0.11564202905E+02  0.33517409159E+02  0.50528858899E+02  0.29999997108E+02 0.  0.
         12    1    1    2    0    0 -0.19900207274E+02  0.11564202905E+02 -0.33517409159E+02  0.40659141101E+02  0.00000000000E+00 0. -1.
         11    1    3    3    0    0  0.11301568597E+02 -0.12961875634E+02  0.15759634014E+02  0.23325988451E+02  0.51100000000E-03 0. -1.
        -11    1    3    3    0    0  0.11603925115E+02 -0.34987581828E+01  0.17706822339E+02  0.21457491571E+02  0.51100000000E-03 0.  1.
        -12    1    3    3    0    0 -0.30052864380E+01  0.48964309118E+01  0.50952805762E-01  0.57453788767E+01  0.00000000000E+00 0.  1.
</event>
<event>
 7    1  0.3331850E-011  0.5052886E+02  0.7816164E-02  0.1300439E+00
        -11   -1    0    0    0    0  0.00000000000E+00  0.00000000000E+00  0.45593999997E+02  0.45594000000E+02  0.51100000000E-03 0.  1.
         11   -1    0    0    0    0 -0.00000000000E+00 -0.00000000000E+00 -0.45593999997E+02  0.45594000000E+02  0.51100000000E-03 0. -1.
    9900012    2    1    2    0    0  0.11578854823E+02 -0.86475591935E-01  0.38975478240E+02  0.50528864974E+02  0.30000015575E+02 0.  0.
         12    1    1    2    0    0 -0.11578854823E+02  0.86475591935E-01 -0.38975478240E+02  0.40659135026E+02  0.00000000000E+00 0. -1.
         11    1    3    3    0    0  0.54733871085E+01 -0.29181591187E+01  0.11853332236E+02  0.13378157737E+02  0.51100000000E-03 0. -1.
        -11    1    3    3    0    0  0.14197230857E+02  0.20044704654E+01  0.24876106817E+02  0.28712365916E+02  0.51100000000E-03 0.  1.
        -12    1    3    3    0    0 -0.80917631430E+01  0.82721306139E+00  0.22460391867E+01  0.84383413204E+01  0.00000000000E+00 0.  1.
</event>
<event>
 7    1  0.3331850E-011  0.5052886E+02  0.7816164E-02  0.1300439E+00
        -11   -1    0    0    0    0  0.00000000000E+00  0.00000000000E+00  0.45593999997E+02  0.45594000000E+02  0.51100000000E-03 0. -1.
         11   -1    0    0    0    0 -0.00000000000E+00 -0.00000000000E+00 -0.45593999997E+02  0.45594000000E+02  0.51100000000E-03 0.  1.
    9900012    2    1    2    0    0 -0.30948660535E+02  0.86273221984E+01 -0.24918171835E+02  0.50528861239E+02  0.30000004221E+02 0.  0.
         12    1    1    2    0    0  0.30948660535E+02 -0.86273221984E+01  0.24918171835E+02  0.40659138761E+02  0.00000000000E+00 0. -1.
         11    1    3    3    0    0  0.17493650029E+00  0.11893135892E+01 -0.69887891960E+01  0.70914204698E+01  0.51100000000E-03 0. -1.
        -11    1    3    3    0    0 -0.13599884860E+01  0.65939604244E+01 -0.10950876655E+02  0.12855021686E+02  0.51100000000E-03 0.  1.
         12    1    3    3    0    0 -0.29763608549E+02  0.84404818472E+00 -0.69785059839E+01  0.30582419083E+02  0.00000000000E+00 0. -1.
</event>
<event>
 7    1  0.3331850E-011  0.5052886E+02  0.7816164E-02  0.1300439E+00
        -11   -1    0    0    0    0  0.00000000000E+00  0.00000000000E+00  0.45593999997E+02  0.45594000000E+02  0.51100000000E-03 0.  1.
         11   -1    0    0    0    0 -0.00000000000E+00 -0.00000000000E+00 -0.45593999997E+02  0.45594000000E+02  0.51100000000E-03 0. -1.
    9900012    2    1    2    0    0 -0.23501688868E+02  0.93413950272E+01  0.31836689707E+02  0.50528857705E+02  0.29999993479E+02 0.  0.
         12    1    1    2    0    0  0.23501688868E+02 -0.93413950272E+01 -0.31836689707E+02  0.40659142295E+02  0.00000000000E+00 0. -1.
         11    1    3    3    0    0 -0.27742871509E+01  0.10753569490E+02  0.12353894133E+02  0.16611882087E+02  0.51100000000E-03 0. -1.
        -11    1    3    3    0    0 -0.18449851117E+01  0.18036237330E+01  0.13653714774E+02  0.13895357355E+02  0.51100000000E-03 0.  1.
         12    1    3    3    0    0 -0.18882416605E+02 -0.32157981956E+01  0.58290808007E+01  0.20021618263E+02  0.00000000000E+00 0. -1.
</event>
<event>
 7    1  0.3331850E-011  0.5052889E+02  0.7816164E-02  0.1300439E+00
        -11   -1    0    0    0    0  0.00000000000E+00  0.00000000000E+00  0.45593999997E+02  0.45594000000E+02  0.51100000000E-03 0.  1.
         11   -1    0    0    0    0 -0.00000000000E+00 -0.00000000000E+00 -0.45593999997E+02  0.45594000000E+02  0.51100000000E-03 0. -1.
    9900012    2    1    2    0    0 -0.23452121319E+02  0.24467768250E+02  0.22460842597E+02  0.50528891209E+02  0.30000095320E+02 0.  0.
         12    1    1    2    0    0  0.23452121319E+02 -0.24467768250E+02 -0.22460842597E+02  0.40659108791E+02  0.00000000000E+00 0. -1.
         11    1    3    3    0    0 -0.54748197921E+01 -0.45728160439E+01  0.93071897122E+00  0.71937845667E+01  0.51100000000E-03 0. -1.
        -11    1    3    3    0    0 -0.25254438298E+01 -0.81251296538E-01  0.67477995266E+01  0.72053637676E+01  0.51100000000E-03 0.  1.
        -12    1    3    3    0    0 -0.15451857697E+02  0.29121835590E+02  0.14782324099E+02  0.36129742875E+02  0.00000000000E+00 0.  1.
</event>
<event>
 7    1  0.3331850E-011  0.5052884E+02  0.7816164E-02  0.1300439E+00
        -11   -1    0    0    0    0  0.00000000000E+00  0.00000000000E+00  0.45593999997E+02  0.45594000000E+02  0.51100000000E-03 0.  1.
         11   -1    0    0    0    0 -0.00000000000E+00 -0.00000000000E+00 -0.45593999997E+02  0.45594000000E+02  0.51100000000E-03 0. -1.
    9900012    2    1    2    0    0 -0.22715874605E+02 -0.29855107070E+02  0.15678928459E+02  0.50528841440E+02  0.29999944040E+02 0.  0.
         12    1    1    2    0    0  0.22715874605E+02  0.29855107070E+02 -0.15678928459E+02  0.40659158560E+02  0.00000000000E+00 0. -1.
         11    1    3    3    0    0  0.25859188291E+00 -0.10591196431E+01 -0.15474868428E+01  0.18929659189E+01  0.51100000000E-03 0. -1.
        -11    1    3    3    0    0 -0.23119545901E+02 -0.96472655429E+01  0.40147939878E+01  0.25371277188E+02  0.51100000000E-03 0.  1.
         12    1    3    3    0    0  0.14507941344E+00 -0.19148721884E+02  0.13211621314E+02  0.23264598332E+02  0.00000000000E+00 0. -1.
</event>
<event>
 7    1  0.3331850E-011  0.5052886E+02  0.7816164E-02  0.1300439E+00
        -11   -1    0    0    0    0  0.00000000000E+00  0.00000000000E+00  0.45593999997E+02  0.45594000000E+02  0.51100000000E-03 0.  1.
         11   -1    0    0    0    0 -0.00000000000E+00 -0.00000000000E+00 -0.45593999997E+02  0.45594000000E+02  0.51100000000E-03 0. -1.
    9900012    2    1    2    0    0 -0.31696892617E+02 -0.99923084777E+01  0.23422777222E+02  0.50528859292E+02  0.29999998304E+02 0.  0.
         12    1    1    2    0    0  0.31696892617E+02  0.99923084777E+01 -0.23422777222E+02  0.40659140708E+02  0.00000000000E+00 0. -1.
         11    1    3    3    0    0  0.26069753390E+01  0.26068213948E+00 -0.28640025095E+01  0.38815958357E+01  0.51100000000E-03 0. -1.
        -11    1    3    3    0    0 -0.15597507753E+02 -0.20411438275E+01  0.19641493440E+02  0.25164196411E+02  0.51100000000E-03 0.  1.
        -12    1    3    3    0    0 -0.18706360204E+02 -0.82118467896E+01  0.66452862920E+01  0.21483067045E+02  0.00000000000E+00 0.  1.
</event>
<event>
 7    1  0.3331850E-011  0.5052885E+02  0.7816164E-02  0.1300439E+00
        -11   -1    0    0    0    0  0.00000000000E+00  0.00000000000E+00  0.45593999997E+02  0.45594000000E+02  0.51100000000E-03 0. -1.
         11   -1    0    0    0    0 -0.00000000000E+00 -0.00000000000E+00 -0.45593999997E+02  0.45594000000E+02  0.51100000000E-03 0.  1.
    9900012    2    1    2    0    0 -0.34845019512E+02 -0.96553040048E+01  0.18594780392E+02  0.50528854189E+02  0.29999982793E+02 0.  0.
         12    1    1    2    0    0  0.34845019512E+02  0.96553040048E+01 -0.18594780392E+02  0.40659145811E+02  0.00000000000E+00 0. -1.
         11    1    3    3    0    0 -0.13448389394E+02  0.17675447077E+01  0.52608668488E+01  0.14548543290E+02  0.51100000000E-03 0. -1.
        -11    1    3    3    0    0 -0.89814883126E+01  0.44228397304E+01 -0.25581635462E+01  0.10333094627E+02  0.51100000000E-03 0.  1.
         12    1    3    3    0    0 -0.12415141806E+02 -0.15845688443E+02  0.15892077089E+02  0.25647216272E+02  0.00000000000E+00 0. -1.
</event>
<event>
 7    1  0.3331850E-011  0.5052885E+02  0.7816164E-02  0.1300439E+00
        -11   -1    0    0    0    0  0.00000000000E+00  0.00000000000E+00  0.45593999997E+02  0.45594000000E+02  0.51100000000E-03 0.  1.
         11   -1    0    0    0    0 -0.00000000000E+00 -0.00000000000E+00 -0.45593999997E+02  0.45594000000E+02  0.51100000000E-03 0. -1.
    9900012    2    1    2    0    0  0.67555687694E+01 -0.32397791363E+02 -0.23620151146E+02  0.50528854230E+02  0.29999982916E+02 0.  0.
         12    1    1    2    0    0 -0.67555687694E+01  0.32397791363E+02  0.23620151146E+02  0.40659145770E+02  0.00000000000E+00 0. -1.
         11    1    3    3    0    0  0.48517628906E+00 -0.42790837677E+01 -0.10769084983E+02  0.11598238899E+02  0.51100000000E-03 0. -1.
        -11    1    3    3    0    0  0.16626606676E+01 -0.10619828410E+02 -0.17234504716E+02  0.20311901660E+02  0.51100000000E-03 0.  1.
        -12    1    3    3    0    0  0.46077318128E+01 -0.17498879185E+02  0.43834385536E+01  0.18618713671E+02  0.00000000000E+00 0.  1.
</event>
<event>
 7    1  0.3331850E-011  0.5052885E+02  0.7816164E-02  0.1300439E+00
        -11   -1    0    0    0    0  0.00000000000E+00  0.00000000000E+00  0.45593999997E+02  0.45594000000E+02  0.51100000000E-03 0.  1.
         11   -1    0    0    0    0 -0.00000000000E+00 -0.00000000000E+00 -0.45593999997E+02  0.45594000000E+02  0.51100000000E-03 0. -1.
    9900012    2    1    2    0    0  0.55221259630E+01 -0.37929683245E+02  0.13565090339E+02  0.50528850696E+02  0.29999972176E+02 0.  0.
         12    1    1    2    0    0 -0.55221259630E+01  0.37929683245E+02 -0.13565090339E+02  0.40659149304E+02  0.00000000000E+00 0. -1.
         11    1    3    3    0    0  0.33029242994E+01 -0.23340314427E+01  0.92268188829E+01  0.10074284027E+02  0.51100000000E-03 0. -1.
        -11    1    3    3    0    0 -0.35580986590E+00 -0.95533544708E+00  0.56036576750E+01  0.56956339487E+01  0.51100000000E-03 0.  1.
         12    1    3    3    0    0  0.25750115295E+01 -0.34640316355E+02 -0.12653862192E+01  0.34758932720E+02  0.00000000000E+00 0. -1.
</event>
<event>
 7    1  0.3331850E-011  0.5052886E+02  0.7816164E-02  0.1300439E+00
        -11   -1    0    0    0    0  0.00000000000E+00  0.00000000000E+00  0.45593999997E+02  0.45594000000E+02  0.51100000000E-03 0.  1.
         11   -1    0    0    0    0 -0.00000000000E+00 -0.00000000000E+00 -0.45593999997E+02  0.45594000000E+02  0.51100000000E-03 0. -1.
    9900012    2    1    2    0    0 -0.38327722639E+01 -0.30850378710E+01  0.40360349780E+02  0.50528862819E+02  0.30000009025E+02 0.  0.
         12    1    1    2    0    0  0.38327722639E+01  0.30850378710E+01 -0.40360349780E+02  0.40659137181E+02  0.00000000000E+00 0. -1.
         11    1    3    3    0    0 -0.76023854855E+00 -0.74321869658E+01  0.11688816691E+02  0.13872411530E+02  0.51100000000E-03 0. -1.
        -11    1    3    3    0    0  0.85971653044E+01 -0.25047042790E+01  0.83650625792E+01  0.12253940877E+02  0.51100000000E-03 0.  1.
        -12    1    3    3    0    0 -0.11669699020E+02  0.68518533737E+01  0.20306470510E+02  0.24402510413E+02  0.00000000000E+00 0.  1.
</event>
<event>
 7    1  0.3331850E-011  0.5052886E+02  0.7816164E-02  0.1300439E+00
        -11   -1    0    0    0    0  0.00000000000E+00  0.00000000000E+00  0.45593999997E+02  0.45594000000E+02  0.51100000000E-03 0.  1.
         11   -1    0    0    0    0 -0.00000000000E+00 -0.00000000000E+00 -0.45593999997E+02  0.45594000000E+02  0.51100000000E-03 0. -1.
    9900012    2    1    2    0    0  0.34462347305E+02 -0.26949059414E+01  0.21406767912E+02  0.50528860656E+02  0.30000002449E+02 0.  0.
         12    1    1    2    0    0 -0.34462347305E+02  0.26949059414E+01 -0.21406767912E+02  0.40659139344E+02  0.00000000000E+00 0. -1.
         11    1    3    3    0    0  0.19127367179E+02  0.48995874889E+01  0.99286705325E+01  0.22100693011E+02  0.51100000000E-03 0. -1.
        -11    1    3    3    0    0  0.17253589275E+02 -0.12106395920E+02  0.98189120400E+01  0.23252143965E+02  0.51100000000E-03 0.  1.
         12    1    3    3    0    0 -0.19186091494E+01  0.45119024898E+01  0.16591853392E+01  0.51760236800E+01  0.00000000000E+00 0. -1.
</event>
<event>
 7    1  0.3331850E-011  0.5052885E+02  0.7816164E-02  0.1300439E+00
        -11   -1    0    0    0    0  0.00000000000E+00  0.00000000000E+00  0.45593999997E+02  0.45594000000E+02  0.51100000000E-03 0.  1.
         11   -1    0    0    0    0 -0.00000000000E+00 -0.00000000000E+00 -0.45593999997E+02  0.45594000000E+02  0.51100000000E-03 0. -1.
    9900012    2    1    2    0    0 -0.33883907800E+02 -0.12648755389E+01 -0.22437629199E+02  0.50528851927E+02  0.29999975917E+02 0.  0.
         12    1    1    2    0    0  0.33883907800E+02  0.12648755389E+01  0.22437629199E+02  0.40659148073E+02  0.00000000000E+00 0. -1.
         11    1    3    3    0    0 -0.28910860342E+01  0.57944151769E+01 -0.81892704541E+01  0.10440200024E+02  0.51100000000E-03 0. -1.
        -11    1    3    3    0    0 -0.44037681826E+01  0.26700210528E+01 -0.10281128161E+02  0.11498860081E+02  0.51100000000E-03 0.  1.
        -12    1    3    3    0    0 -0.26589053583E+02 -0.97293117686E+01 -0.39672305839E+01  0.28589791822E+02  0.00000000000E+00 0.  1.
</event>
<event>
 7    1  0.3331850E-011  0.5052885E+02  0.7816164E-02  0.1300439E+00
        -11   -1    0    0    0    0  0.00000000000E+00  0.00000000000E+00  0.45593999997E+02  0.45594000000E+02  0.51100000000E-03 0.  1.
         11   -1    0    0    0    0 -0.00000000000E+00 -0.00000000000E+00 -0.45593999997E+02  0.45594000000E+02  0.51100000000E-03 0. -1.
    9900012    2    1    2    0    0  0.36120102893E+02  0.18245210691E+02 -0.39517939888E+01  0.50528853158E+02  0.29999979660E+02 0.  0.
         12    1    1    2    0    0 -0.36120102893E+02 -0.18245210691E+02  0.39517939888E+01  0.40659146842E+02  0.00000000000E+00 0. -1.
         11    1    3    3    0    0  0.17665691277E+01  0.73697117289E+01  0.60047142220E+00  0.76022354370E+01  0.51100000000E-03 0. -1.
        -11    1    3    3    0    0  0.15174441213E+02  0.10963443545E+02  0.76186554800E+01  0.20211498512E+02  0.51100000000E-03 0.  1.
         12    1    3    3    0    0  0.19179092552E+02 -0.87944583475E-01 -0.12170920891E+02  0.22715119210E+02  0.00000000000E+00 0. -1.
</event>
<event>
 7    1  0.3331850E-011  0.5052879E+02  0.7816164E-02  0.1300439E+00
        -11   -1    0    0    0    0  0.00000000000E+00  0.00000000000E+00  0.45593999997E+02  0.45594000000E+02  0.51100000000E-03 0.  1.
         11   -1    0    0    0    0 -0.00000000000E+00 -0.00000000000E+00 -0.45593999997E+02  0.45594000000E+02  0.51100000000E-03 0. -1.
    9900012    2    1    2    0    0 -0.55484119821E+01  0.28355361370E+02  0.28606986096E+02  0.50528793817E+02  0.29999799284E+02 0.  0.
         12    1    1    2    0    0  0.55484119821E+01 -0.28355361370E+02 -0.28606986096E+02  0.40659206183E+02  0.00000000000E+00 0. -1.
         11    1    3    3    0    0 -0.47660014205E+00  0.40107448013E+01  0.14794347198E+02  0.15335772913E+02  0.51100000000E-03 0. -1.
        -11    1    3    3    0    0 -0.43957956200E+01  0.14039893835E+01  0.11176341094E+02  0.12091517929E+02  0.51100000000E-03 0.  1.
        -12    1    3    3    0    0 -0.67601622008E+00  0.22940627185E+02  0.26362978046E+01  0.23101502975E+02  0.00000000000E+00 0.  1.
</event>
<event>
 7    1  0.3331850E-011  0.5052886E+02  0.7816164E-02  0.1300439E+00
        -11   -1    0    0    0    0  0.00000000000E+00  0.00000000000E+00  0.45593999997E+02  0.45594000000E+02  0.51100000000E-03 0.  1.
         11   -1    0    0    0    0 -0.00000000000E+00 -0.00000000000E+00 -0.45593999997E+02  0.45594000000E+02  0.51100000000E-03 0. -1.
    9900012    2    1    2    0    0  0.83216437945E+01  0.34534522188E+02  0.19780857792E+02  0.50528864333E+02  0.30000013627E+02 0.  0.
         12    1    1    2    0    0 -0.83216437945E+01 -0.34534522188E+02 -0.19780857792E+02  0.40659135667E+02  0.00000000000E+00 0. -1.
         11    1    3    3    0    0  0.43199094884E+01  0.77426985554E+01  0.67390076296E+00  0.88918581527E+01  0.51100000000E-03 0. -1.
        -11    1    3    3    0    0  0.13859635544E+02  0.13735254391E+02  0.15411232527E+02  0.24864689800E+02  0.51100000000E-03 0.  1.
         12    1    3    3    0    0 -0.98579012377E+01  0.13056569242E+02  0.36957245024E+01  0.16772316381E+02  0.00000000000E+00 0. -1.
</event>
<event>
 7    1  0.3331850E-011  0.5052885E+02  0.7816164E-02  0.1300439E+00
        -11   -1    0    0    0    0  0.00000000000E+00  0.00000000000E+00  0.45593999997E+02  0.45594000000E+02  0.51100000000E-03 0.  1.
         11   -1    0    0    0    0 -0.00000000000E+00 -0.00000000000E+00 -0.45593999997E+02  0.45594000000E+02  0.51100000000E-03 0. -1.
    9900012    2    1    2    0    0 -0.11718081839E+02 -0.34339643474E+02  0.18347809996E+02  0.50528847432E+02  0.29999962254E+02 0.  0.
         12    1    1    2    0    0  0.11718081839E+02  0.34339643474E+02 -0.18347809996E+02  0.40659152568E+02  0.00000000000E+00 0. -1.
         11    1    3    3    0    0  0.30247222876E+01 -0.38747024758E+01 -0.52534792550E+00  0.49435063363E+01  0.51100000000E-03 0. -1.
        -11    1    3    3    0    0  0.11872738473E+01 -0.23384030844E+02  0.14745506556E+02  0.27670426118E+02  0.51100000000E-03 0.  1.
        -12    1    3    3    0    0 -0.15930077973E+02 -0.70809101541E+01  0.41276513651E+01  0.17914914977E+02  0.00000000000E+00 0.  1.
</event>
<event>
 7    1  0.3331850E-011  0.5052886E+02  0.7816164E-02  0.1300439E+00
        -11   -1    0    0    0    0  0.00000000000E+00  0.00000000000E+00  0.45593999997E+02  0.45594000000E+02  0.51100000000E-03 0. -1.
         11   -1    0    0    0    0 -0.00000000000E+00 -0.00000000000E+00 -0.45593999997E+02  0.45594000000E+02  0.51100000000E-03 0.  1.
    9900012    2    1    2    0    0 -0.24861188722E+02 -0.32143089579E+02 -0.13814847610E+01  0.50528863112E+02  0.30000009916E+02 0.  0.
         12    1    1    2    0    0  0.24861188722E+02  0.32143089579E+02  0.13814847610E+01  0.40659136888E+02  0.00000000000E+00 0. -1.
         11    1    3    3    0    0  0.24369432032E+01 -0.51881665463E+01 -0.30577077917E+00  0.57401446252E+01  0.51100000000E-03 0. -1.
        -11    1    3    3    0    0 -0.47464088035E+01 -0.55700171747E+01 -0.10057420584E+02  0.12438054386E+02  0.51100000000E-03 0.  1.
        -12    1    3    3    0    0 -0.22551723121E+02 -0.21384905858E+02  0.89817066019E+01  0.32350664101E+02  0.00000000000E+00 0.  1.
</event>
<event>
 7    1  0.3331850E-011  0.5052886E+02  0.7816164E-02  0.1300439E+00
        -11   -1    0    0    0    0  0.00000000000E+00  0.00000000000E+00  0.45593999997E+02  0.45594000000E+02  0.51100000000E-03 0.  1.
         11   -1    0    0    0    0 -0.00000000000E+00 -0.00000000000E+00 -0.45593999997E+02  0.45594000000E+02  0.51100000000E-03 0. -1.
    9900012    2    1    2    0    0  0.10650637093E+02 -0.58816934831E+01  0.38796075547E+02  0.50528857528E+02  0.29999992941E+02 0.  0.
         12    1    1    2    0    0 -0.10650637093E+02  0.58816934831E+01 -0.38796075547E+02  0.40659142472E+02  0.00000000000E+00 0. -1.
         11    1    3    3    0    0  0.75343206343E+01 -0.37636181789E+01  0.36158832531E+02  0.37126701705E+02  0.51100000000E-03 0.  1.
        -11    1    3    3    0    0 -0.22244265099E+01  0.42047450913E+01  0.14732704862E+00  0.47591659040E+01  0.51100000000E-03 0. -1.
        -12    1    3    3    0    0  0.53407429689E+01 -0.63228203956E+01  0.24899159677E+01  0.86429899190E+01  0.00000000000E+00 0.  1.
</event>
<event>
 7    1  0.3331850E-011  0.5052886E+02  0.7816164E-02  0.1300439E+00
        -11   -1    0    0    0    0  0.00000000000E+00  0.00000000000E+00  0.45593999997E+02  0.45594000000E+02  0.51100000000E-03 0.  1.
         11   -1    0    0    0    0 -0.00000000000E+00 -0.00000000000E+00 -0.45593999997E+02  0.45594000000E+02  0.51100000000E-03 0. -1.
    9900012    2    1    2    0    0 -0.22185944770E+02  0.32347077727E+02  0.10705898746E+02  0.50528857722E+02  0.29999993530E+02 0.  0.
         12    1    1    2    0    0  0.22185944770E+02 -0.32347077727E+02 -0.10705898746E+02  0.40659142278E+02  0.00000000000E+00 0. -1.
         11    1    3    3    0    0  0.25247256638E+01  0.77294904160E+01 -0.13900810213E+01  0.82493385962E+01  0.51100000000E-03 0. -1.
        -11    1    3    3    0    0 -0.46892062427E+01  0.18302699592E+02  0.20462191001E+01  0.19004327939E+02  0.51100000000E-03 0.  1.
        -12    1    3    3    0    0 -0.20021464191E+02  0.63148877189E+01  0.10049760667E+02  0.23275191186E+02  0.00000000000E+00 0.  1.
</event>
<event>
 7    1  0.3331850E-011  0.5052886E+02  0.7816164E-02  0.1300439E+00
        -11   -1    0    0    0    0  0.00000000000E+00  0.00000000000E+00  0.45593999997E+02  0.45594000000E+02  0.51100000000E-03 0. -1.
         11   -1    0    0    0    0 -0.00000000000E+00 -0.00000000000E+00 -0.45593999997E+02  0.45594000000E+02  0.51100000000E-03 0.  1.
    9900012    2    1    2    0    0  0.78156108172E+01  0.39798040442E+02  0.28631823330E+01  0.50528860701E+02  0.30000002587E+02 0.  0.
         12    1    1    2    0    0 -0.78156108172E+01 -0.39798040442E+02 -0.28631823330E+01  0.40659139299E+02  0.00000000000E+00 0. -1.
         11    1    3    3    0    0  0.30008733193E+00  0.21713439214E+01 -0.28627959331E+01  0.36056050321E+01  0.51100000000E-03 0. -1.
        -11    1    3    3    0    0  0.57043016701E+01  0.36578396227E+02 -0.37583469584E+01  0.37210795480E+02  0.51100000000E-03 0.  1.
         12    1    3    3    0    0  0.18112218152E+01  0.10483002931E+01  0.94843252244E+01  0.97124601894E+01  0.00000000000E+00 0. -1.
</event>
<event>
 7    1  0.3331850E-011  0.5052882E+02  0.7816164E-02  0.1300439E+00
        -11   -1    0    0    0    0  0.00000000000E+00  0.00000000000E+00  0.45593999997E+02  0.45594000000E+02  0.51100000000E-03 0. -1.
         11   -1    0    0    0    0 -0.00000000000E+00 -0.00000000000E+00 -0.45593999997E+02  0.45594000000E+02  0.51100000000E-03 0.  1.
    9900012    2    1    2    0    0  0.23063548840E+02  0.26290663458E+02  0.20737477222E+02  0.50528816146E+02  0.29999867157E+02 0.  0.
         12    1    1    2    0    0 -0.23063548840E+02 -0.26290663458E+02 -0.20737477222E+02  0.40659183854E+02  0.00000000000E+00 0. -1.
         11    1    3    3    0    0 -0.29694677518E+01  0.10085614075E+02  0.57514618070E+01  0.11984016988E+02  0.51100000000E-03 0. -1.
        -11    1    3    3    0    0  0.18281650183E+01 -0.27212310202E+01  0.54734142402E+01  0.63800900703E+01  0.51100000000E-03 0.  1.
        -12    1    3    3    0    0  0.24204851573E+02  0.18926280403E+02  0.95126011751E+01  0.32164709087E+02  0.00000000000E+00 0.  1.
</event>
<event>
 7    1  0.4079050E-011  0.5052885E+02  0.7816164E-02  0.1300439E+00
        -11   -1    0    0    0    0  0.00000000000E+00  0.00000000000E+00  0.45593999997E+02  0.45594000000E+02  0.51100000000E-03 0. -1.
         11   -1    0    0    0    0 -0.00000000000E+00 -0.00000000000E+00 -0.45593999997E+02  0.45594000000E+02  0.51100000000E-03 0.  1.
    9900012    2    1    2    0    0 -0.32264348962E+02 -0.17677614715E+02 -0.17311265979E+02  0.50528853357E+02  0.29999980264E+02 0.  0.
         12    1    1    2    0    0  0.32264348962E+02  0.17677614715E+02  0.17311265979E+02  0.40659146643E+02  0.00000000000E+00 0. -1.
         11    1    3    3    0    0 -0.14617964724E+02 -0.48035826909E+01 -0.78333963655E+01  0.17266192349E+02  0.51100000000E-03 0. -1.
        -11    1    3    3    0    0 -0.16753446562E+02 -0.12777181226E+02 -0.16139427164E+02  0.26540825933E+02  0.51100000000E-03 0.  1.
         12    1    3    3    0    0 -0.89293767503E+00 -0.96850798855E-01  0.66615575506E+01  0.67218350745E+01  0.00000000000E+00 0. -1.
</event>
<event>
 7    1  0.3331850E-011  0.5052886E+02  0.7816164E-02  0.1300439E+00
        -11   -1    0    0    0    0  0.00000000000E+00  0.00000000000E+00  0.45593999997E+02  0.45594000000E+02  0.51100000000E-03 0.  1.
         11   -1    0    0    0    0 -0.00000000000E+00 -0.00000000000E+00 -0.45593999997E+02  0.45594000000E+02  0.51100000000E-03 0. -1.
    9900012    2    1    2    0    0  0.43383157760E+00 -0.37234451473E+02  0.16327062625E+02  0.50528861295E+02  0.30000004391E+02 0.  0.
         12    1    1    2    0    0 -0.43383157760E+00  0.37234451473E+02 -0.16327062625E+02  0.40659138705E+02  0.00000000000E+00 0. -1.
         11    1    3    3    0    0  0.64733811482E+01 -0.61235332761E+01  0.33107180459E+00  0.89169463425E+01  0.51100000000E-03 0.  1.
        -11    1    3    3    0    0  0.66197135769E-01 -0.72700954900E+01 -0.53559070582E+01  0.90301944149E+01  0.51100000000E-03 0. -1.
         12    1    3    3    0    0 -0.61057467064E+01 -0.23840822707E+02  0.21351897878E+02  0.32581720537E+02  0.00000000000E+00 0. -1.
</event>
<event>
 7    1  0.3331850E-011  0.5052883E+02  0.7816164E-02  0.1300439E+00
        -11   -1    0    0    0    0  0.00000000000E+00  0.00000000000E+00  0.45593999997E+02  0.45594000000E+02  0.51100000000E-03 0.  1.
         11   -1    0    0    0    0 -0.00000000000E+00 -0.00000000000E+00 -0.45593999997E+02  0.45594000000E+02  0.51100000000E-03 0. -1.
    9900012    2    1    2    0    0 -0.19744580918E+02  0.67615154327E+01  0.34894141981E+02  0.50528834845E+02  0.29999923994E+02 0.  0.
         12    1    1    2    0    0  0.19744580918E+02 -0.67615154327E+01 -0.34894141981E+02  0.40659165155E+02  0.00000000000E+00 0. -1.
         11    1    3    3    0    0 -0.54217212827E+00  0.27046163948E+01 -0.10860641552E+01  0.29645296541E+01  0.51100000000E-03 0. -1.
        -11    1    3    3    0    0 -0.35444922389E+01  0.67237858501E+01 -0.66007842845E+00  0.76294446182E+01  0.51100000000E-03 0.  1.
        -12    1    3    3    0    0 -0.15657916550E+02 -0.26668868123E+01  0.36640284564E+02  0.39934860572E+02  0.00000000000E+00 0.  1.
</event>
<event>
 7    1  0.3331850E-011  0.5052888E+02  0.7816164E-02  0.1300439E+00
        -11   -1    0    0    0    0  0.00000000000E+00  0.00000000000E+00  0.45593999997E+02  0.45594000000E+02  0.51100000000E-03 0.  1.
         11   -1    0    0    0    0 -0.00000000000E+00 -0.00000000000E+00 -0.45593999997E+02  0.45594000000E+02  0.51100000000E-03 0. -1.
    9900012    2    1    2    0    0  0.87088429947E+01  0.13952117897E+02  0.37184115544E+02  0.50528880618E+02  0.30000063127E+02 0.  0.
         12    1    1    2    0    0 -0.87088429947E+01 -0.13952117897E+02 -0.37184115544E+02  0.40659119382E+02  0.00000000000E+00 0. -1.
         11    1    3    3    0    0 -0.14954011959E+01  0.12610176097E+01 -0.52925513565E+00  0.20264504456E+01  0.51100000000E-03 0. -1.
        -11    1    3    3    0    0  0.37617058998E+00 -0.75279735840E+01  0.60252211533E+01  0.96496207594E+01  0.51100000000E-03 0.  1.
        -12    1    3    3    0    0  0.98280736006E+01  0.20219073871E+02  0.31688149526E+02  0.38852809413E+02  0.00000000000E+00 0.  1.
</event>
<event>
 7    1  0.3331850E-011  0.5052886E+02  0.7816164E-02  0.1300439E+00
        -11   -1    0    0    0    0  0.00000000000E+00  0.00000000000E+00  0.45593999997E+02  0.45594000000E+02  0.51100000000E-03 0.  1.
         11   -1    0    0    0    0 -0.00000000000E+00 -0.00000000000E+00 -0.45593999997E+02  0.45594000000E+02  0.51100000000E-03 0. -1.
    9900012    2    1    2    0    0 -0.22733274664E+02 -0.23367900379E+02  0.24296193749E+02  0.50528861104E+02  0.30000003812E+02 0.  0.
         12    1    1    2    0    0  0.22733274664E+02  0.23367900379E+02 -0.24296193749E+02  0.40659138896E+02  0.00000000000E+00 0. -1.
         11    1    3    3    0    0 -0.11710400132E+02 -0.17731315672E+02  0.72659770484E+01  0.22457236015E+02  0.51100000000E-03 0. -1.
        -11    1    3    3    0    0  0.44638710760E+01 -0.37603033620E+01  0.84438656301E+01  0.10264740299E+02  0.51100000000E-03 0.  1.
        -12    1    3    3    0    0 -0.15486745609E+02 -0.18762813448E+01  0.85863510700E+01  0.17806884790E+02  0.00000000000E+00 0.  1.
</event>
<event>
 7    1  0.3331850E-011  0.5052886E+02  0.7816164E-02  0.1300439E+00
        -11   -1    0    0    0    0  0.00000000000E+00  0.00000000000E+00  0.45593999997E+02  0.45594000000E+02  0.51100000000E-03 0.  1.
         11   -1    0    0    0    0 -0.00000000000E+00 -0.00000000000E+00 -0.45593999997E+02  0.45594000000E+02  0.51100000000E-03 0. -1.
    9900012    2    1    2    0    0 -0.35897904206E+02  0.82722951831E+01  0.17206833486E+02  0.50528861880E+02  0.30000006172E+02 0.  0.
         12    1    1    2    0    0  0.35897904206E+02 -0.82722951831E+01 -0.17206833486E+02  0.40659138120E+02  0.00000000000E+00 0. -1.
         11    1    3    3    0    0  0.16802973490E+01 -0.22585132221E+01  0.12177979542E+01  0.30671343750E+01  0.51100000000E-03 0. -1.
        -11    1    3    3    0    0 -0.32180329939E+00  0.27089338586E+01  0.81499088820E+01  0.85943525096E+01  0.51100000000E-03 0.  1.
        -12    1    3    3    0    0 -0.37256398256E+02  0.78218745466E+01  0.78391266498E+01  0.38867374996E+02  0.00000000000E+00 0.  1.
</event>
<event>
 7    1  0.3331850E-011  0.5052886E+02  0.7816164E-02  0.1300439E+00
        -11   -1    0    0    0    0  0.00000000000E+00  0.00000000000E+00  0.45593999997E+02  0.45594000000E+02  0.51100000000E-03 0.  1.
         11   -1    0    0    0    0 -0.00000000000E+00 -0.00000000000E+00 -0.45593999997E+02  0.45594000000E+02  0.51100000000E-03 0. -1.
    9900012    2    1    2    0    0  0.34982592864E+02 -0.13975166499E+02  0.15299633222E+02  0.50528857622E+02  0.29999993228E+02 0.  0.
         12    1    1    2    0    0 -0.34982592864E+02  0.13975166499E+02 -0.15299633222E+02  0.40659142378E+02  0.00000000000E+00 0. -1.
         11    1    3    3    0    0  0.13602991800E+01  0.35327872636E+01  0.36153318188E+01  0.52346560661E+01  0.51100000000E-03 0. -1.
        -11    1    3    3    0    0 -0.39230809843E+00 -0.85566259779E+00 -0.41425242629E+01  0.42481256638E+01  0.51100000000E-03 0.  1.
        -12    1    3    3    0    0  0.34014601783E+02 -0.16652291165E+02  0.15826825666E+02  0.41046075892E+02  0.00000000000E+00 0.  1.
</event>
<event>
 7    1  0.3331850E-011  0.5052886E+02  0.7816164E-02  0.1300439E+00
        -11   -1    0    0    0    0  0.00000000000E+00  0.00000000000E+00  0.45593999997E+02  0.45594000000E+02  0.51100000000E-03 0.  1.
         11   -1    0    0    0    0 -0.00000000000E+00 -0.00000000000E+00 -0.45593999997E+02  0.45594000000E+02  0.51100000000E-03 0. -1.
    9900012    2    1    2    0    0 -0.24724710095E+02 -0.30971793289E+02 -0.90885943817E+01  0.50528858142E+02  0.29999994809E+02 0.  0.
         12    1    1    2    0    0  0.24724710095E+02  0.30971793289E+02  0.90885943817E+01  0.40659141858E+02  0.00000000000E+00 0. -1.
         11    1    3    3    0    0  0.54963585176E+01 -0.26251563060E+01 -0.46147577490E+01  0.76418186270E+01  0.51100000000E-03 0.  1.
        -11    1    3    3    0    0 -0.13694562449E+02 -0.10709292453E+02 -0.66629177049E+01  0.18617853209E+02  0.51100000000E-03 0. -1.
        -12    1    3    3    0    0 -0.16526506164E+02 -0.17637344529E+02  0.21890810722E+01  0.24269186306E+02  0.00000000000E+00 0.  1.
</event>
<event>
 7    1  0.3331850E-011  0.5052884E+02  0.7816164E-02  0.1300439E+00
        -11   -1    0    0    0    0  0.00000000000E+00  0.00000000000E+00  0.45593999997E+02  0.45594000000E+02  0.51100000000E-03 0.  1.
         11   -1    0    0    0    0 -0.00000000000E+00 -0.00000000000E+00 -0.45593999997E+02  0.45594000000E+02  0.51100000000E-03 0. -1.
    9900012    2    1    2    0    0  0.95652641314E+01  0.13796064777E+00  0.39517765369E+02  0.50528842473E+02  0.29999947182E+02 0.  0.
         12    1    1    2    0    0 -0.95652641314E+01 -0.13796064777E+00 -0.39517765369E+02  0.40659157527E+02  0.00000000000E+00 0. -1.
         11    1    3    3    0    0 -0.35895890297E+00  0.72969542463E+01  0.14326240940E+02  0.16081528923E+02  0.51100000000E-03 0. -1.
        -11    1    3    3    0    0 -0.22965896888E+01  0.54133793725E+01  0.76124792440E+01  0.96191912826E+01  0.51100000000E-03 0.  1.
         12    1    3    3    0    0  0.12220812723E+02 -0.12572372971E+02  0.17579045185E+02  0.24828122268E+02  0.00000000000E+00 0. -1.
</event>
<event>
 7    1  0.3331850E-011  0.5052887E+02  0.7816164E-02  0.1300439E+00
        -11   -1    0    0    0    0  0.00000000000E+00  0.00000000000E+00  0.45593999997E+02  0.45594000000E+02  0.51100000000E-03 0. -1.
         11   -1    0    0    0    0 -0.00000000000E+00 -0.00000000000E+00 -0.45593999997E+02  0.45594000000E+02  0.51100000000E-03 0.  1.
    9900012    2    1    2    0    0 -0.17102273717E+02  0.95922542702E+00  0.36874887064E+02  0.50528866024E+02  0.30000018765E+02 0.  0.
         12    1    1    2    0    0  0.17102273717E+02 -0.95922542702E+00 -0.36874887064E+02  0.40659133976E+02  0.00000000000E+00 0. -1.
         11    1    3    3    0    0  0.55780624643E+01  0.49768236311E+01  0.11336439288E+02  0.13579337623E+02  0.51100000000E-03 0. -1.
        -11    1    3    3    0    0 -0.36524832313E+01  0.38310095786E+01  0.94243829265E+01  0.10809082383E+02  0.51100000000E-03 0.  1.
         12    1    3    3    0    0 -0.19027852950E+02 -0.78486077827E+01  0.16114064850E+02  0.26140446018E+02  0.00000000000E+00 0. -1.
</event>
<event>
 7    1  0.3331850E-011  0.5052886E+02  0.7816164E-02  0.1300439E+00
        -11   -1    0    0    0    0  0.00000000000E+00  0.00000000000E+00  0.45593999997E+02  0.45594000000E+02  0.51100000000E-03 0.  1.
         11   -1    0    0    0    0 -0.00000000000E+00 -0.00000000000E+00 -0.45593999997E+02  0.45594000000E+02  0.51100000000E-03 0. -1.
    9900012    2    1    2    0    0 -0.38470332584E+02  0.32046562488E+01 -0.12764386958E+02  0.50528857298E+02  0.29999992243E+02 0.  0.
         12    1    1    2    0    0  0.38470332584E+02 -0.32046562488E+01  0.12764386958E+02  0.40659142702E+02  0.00000000000E+00 0. -1.
         11    1    3    3    0    0 -0.13694852665E+01  0.57959530600E+01  0.85090287236E+00  0.60160284016E+01  0.51100000000E-03 0. -1.
        -11    1    3    3    0    0 -0.85185271478E+01  0.81852439310E+01 -0.44026513767E+01  0.12607412993E+02  0.51100000000E-03 0.  1.
        -12    1    3    3    0    0 -0.28582320170E+02 -0.10776540742E+02 -0.92126384539E+01  0.31905415903E+02  0.00000000000E+00 0.  1.
</event>
<event>
 7    1  0.3331850E-011  0.5052889E+02  0.7816164E-02  0.1300439E+00
        -11   -1    0    0    0    0  0.00000000000E+00  0.00000000000E+00  0.45593999997E+02  0.45594000000E+02  0.51100000000E-03 0.  1.
         11   -1    0    0    0    0 -0.00000000000E+00 -0.00000000000E+00 -0.45593999997E+02  0.45594000000E+02  0.51100000000E-03 0. -1.
    9900012    2    1    2    0    0 -0.11149963112E+02  0.38849167234E+02 -0.44253387917E+01  0.50528891604E+02  0.30000096518E+02 0.  0.
         12    1    1    2    0    0  0.11149963112E+02 -0.38849167234E+02  0.44253387917E+01  0.40659108396E+02  0.00000000000E+00 0. -1.
         11    1    3    3    0    0  0.19959231879E+01  0.14941177654E+02 -0.65257756474E+01  0.16425840834E+02  0.51100000000E-03 0. -1.
        -11    1    3    3    0    0  0.55473234169E+00  0.18557332973E+01 -0.64775634871E+01  0.67609395081E+01  0.51100000000E-03 0.  1.
        -12    1    3    3    0    0 -0.13700618642E+02  0.22052256283E+02  0.85780003428E+01  0.27342111261E+02  0.00000000000E+00 0.  1.
</event>
<event>
 7    1  0.3331850E-011  0.5052888E+02  0.7816164E-02  0.1300439E+00
        -11   -1    0    0    0    0  0.00000000000E+00  0.00000000000E+00  0.45593999997E+02  0.45594000000E+02  0.51100000000E-03 0.  1.
         11   -1    0    0    0    0 -0.00000000000E+00 -0.00000000000E+00 -0.45593999997E+02  0.45594000000E+02  0.51100000000E-03 0. -1.
    9900012    2    1    2    0    0  0.84069095604E+01 -0.33966696929E+02  0.20706309399E+02  0.50528881988E+02  0.30000067289E+02 0.  0.
         12    1    1    2    0    0 -0.84069095604E+01  0.33966696929E+02 -0.20706309399E+02  0.40659118012E+02  0.00000000000E+00 0. -1.
         11    1    3    3    0    0 -0.10108402883E+02 -0.77424309031E+01  0.33369070080E+01  0.13162826207E+02  0.51100000000E-03 0. -1.
        -11    1    3    3    0    0  0.17790222898E+01 -0.73851819209E+01  0.61855629329E+01  0.97962758930E+01  0.51100000000E-03 0.  1.
         12    1    3    3    0    0  0.16736290153E+02 -0.18839084105E+02  0.11183839458E+02  0.27569779887E+02  0.00000000000E+00 0. -1.
</event>
<event>
 7    1  0.3331850E-011  0.5052886E+02  0.7816164E-02  0.1300439E+00
        -11   -1    0    0    0    0  0.00000000000E+00  0.00000000000E+00  0.45593999997E+02  0.45594000000E+02  0.51100000000E-03 0.  1.
         11   -1    0    0    0    0 -0.00000000000E+00 -0.00000000000E+00 -0.45593999997E+02  0.45594000000E+02  0.51100000000E-03 0. -1.
    9900012    2    1    2    0    0  0.22073533290E+02  0.33998747646E+02 -0.31638163314E+01  0.50528862686E+02  0.30000008620E+02 0.  0.
         12    1    1    2    0    0 -0.22073533290E+02 -0.33998747646E+02  0.31638163314E+01  0.40659137314E+02  0.00000000000E+00 0. -1.
         11    1    3    3    0    0 -0.29713469293E+00  0.11341011625E+02 -0.85205823099E+01  0.14188275331E+02  0.51100000000E-03 0. -1.
        -11    1    3    3    0    0 -0.24619536898E+01  0.27491544330E+01 -0.11278195204E+01  0.38588914469E+01  0.51100000000E-03 0.  1.
         12    1    3    3    0    0  0.24832621672E+02  0.19908581587E+02  0.64845854990E+01  0.32481695908E+02  0.00000000000E+00 0. -1.
</event>
<event>
 7    1  0.3331850E-011  0.5052885E+02  0.7816164E-02  0.1300439E+00
        -11   -1    0    0    0    0  0.00000000000E+00  0.00000000000E+00  0.45593999997E+02  0.45594000000E+02  0.51100000000E-03 0. -1.
         11   -1    0    0    0    0 -0.00000000000E+00 -0.00000000000E+00 -0.45593999997E+02  0.45594000000E+02  0.51100000000E-03 0.  1.
    9900012    2    1    2    0    0  0.82067794431E+01  0.38147380401E+02 -0.11427723854E+02  0.50528846876E+02  0.29999960563E+02 0.  0.
         12    1    1    2    0    0 -0.82067794431E+01 -0.38147380401E+02  0.11427723854E+02  0.40659153124E+02  0.00000000000E+00 0. -1.
         11    1    3    3    0    0 -0.62280375337E+00  0.30332404379E+01 -0.10018785495E+02  0.10486395716E+02  0.51100000000E-03 0. -1.
        -11    1    3    3    0    0  0.39875061627E+01  0.37664765456E+01 -0.58434869901E+01  0.80145424966E+01  0.51100000000E-03 0.  1.
        -12    1    3    3    0    0  0.48420770338E+01  0.31347663418E+02  0.44345486307E+01  0.32027908663E+02  0.00000000000E+00 0.  1.
</event>
<event>
 7    1  0.3331850E-011  0.5052886E+02  0.7816164E-02  0.1300439E+00
        -11   -1    0    0    0    0  0.00000000000E+00  0.00000000000E+00  0.45593999997E+02  0.45594000000E+02  0.51100000000E-03 0.  1.
         11   -1    0    0    0    0 -0.00000000000E+00 -0.00000000000E+00 -0.45593999997E+02  0.45594000000E+02  0.51100000000E-03 0. -1.
    9900012    2    1    2    0    0 -0.79545982024E+01 -0.13757125276E+02  0.37425012735E+02  0.50528859495E+02  0.29999998920E+02 0.  0.
         12    1    1    2    0    0  0.79545982024E+01  0.13757125276E+02 -0.37425012735E+02  0.40659140505E+02  0.00000000000E+00 0. -1.
         11    1    3    3    0    0 -0.66467389088E+01 -0.98391877928E+01  0.56835947428E+01  0.13164042085E+02  0.51100000000E-03 0. -1.
        -11    1    3    3    0    0 -0.31287434461E+01  0.66372023538E+00 -0.16586221105E+01  0.36028582638E+01  0.51100000000E-03 0.  1.
        -12    1    3    3    0    0  0.18208841524E+01 -0.45816577183E+01  0.33400040103E+02  0.33761959146E+02  0.00000000000E+00 0.  1.
</event>
<event>
 7    1  0.3331850E-011  0.5052886E+02  0.7816164E-02  0.1300439E+00
        -11   -1    0    0    0    0  0.00000000000E+00  0.00000000000E+00  0.45593999997E+02  0.45594000000E+02  0.51100000000E-03 0.  1.
         11   -1    0    0    0    0 -0.00000000000E+00 -0.00000000000E+00 -0.45593999997E+02  0.45594000000E+02  0.51100000000E-03 0. -1.
    9900012    2    1    2    0    0  0.28616584348E+02  0.14104178248E+02  0.25205724220E+02  0.50528864775E+02  0.30000014969E+02 0.  0.
         12    1    1    2    0    0 -0.28616584348E+02 -0.14104178248E+02 -0.25205724220E+02  0.40659135225E+02  0.00000000000E+00 0. -1.
         11    1    3    3    0    0  0.69522606295E+01 -0.54560178199E+00  0.29877172862E+01  0.75867031053E+01  0.51100000000E-03 0. -1.
        -11    1    3    3    0    0  0.84556658980E+01 -0.70760905178E+01  0.92920896719E+01  0.14419163413E+02  0.51100000000E-03 0.  1.
        -12    1    3    3    0    0  0.13208657821E+02  0.21725870548E+02  0.12925917262E+02  0.28522998257E+02  0.00000000000E+00 0.  1.
</event>
<event>
 7    1  0.3331850E-011  0.5052886E+02  0.7816164E-02  0.1300439E+00
        -11   -1    0    0    0    0  0.00000000000E+00  0.00000000000E+00  0.45593999997E+02  0.45594000000E+02  0.51100000000E-03 0.  1.
         11   -1    0    0    0    0 -0.00000000000E+00 -0.00000000000E+00 -0.45593999997E+02  0.45594000000E+02  0.51100000000E-03 0. -1.
    9900012    2    1    2    0    0 -0.37009655477E+02 -0.16826583559E+02 -0.56304001390E+00  0.50528861705E+02  0.30000005639E+02 0.  0.
         12    1    1    2    0    0  0.37009655477E+02  0.16826583559E+02  0.56304001390E+00  0.40659138295E+02  0.00000000000E+00 0. -1.
         11    1    3    3    0    0 -0.20576108648E+02 -0.54520290185E+01 -0.87837968862E+00  0.21304281698E+02  0.51100000000E-03 0. -1.
        -11    1    3    3    0    0 -0.14647478134E+02  0.24023021172E+01  0.28193791956E+01  0.15108559510E+02  0.51100000000E-03 0.  1.
         12    1    3    3    0    0 -0.17860686949E+01 -0.13776856658E+02 -0.25040395209E+01  0.14116020497E+02  0.00000000000E+00 0. -1.
</event>
<event>
 7    1  0.3331850E-011  0.5052886E+02  0.7816164E-02  0.1300439E+00
        -11   -1    0    0    0    0  0.00000000000E+00  0.00000000000E+00  0.45593999997E+02  0.45594000000E+02  0.51100000000E-03 0.  1.
         11   -1    0    0    0    0 -0.00000000000E+00 -0.00000000000E+00 -0.45593999997E+02  0.45594000000E+02  0.51100000000E-03 0. -1.
    9900012    2    1    2    0    0 -0.20711725584E+02  0.34529583510E+02 -0.56478174250E+01  0.50528861351E+02  0.30000004562E+02 0.  0.
         12    1    1    2    0    0  0.20711725584E+02 -0.34529583510E+02  0.56478174250E+01  0.40659138649E+02  0.00000000000E+00 0. -1.
         11    1    3    3    0    0  0.29725078040E+01 -0.87995698855E+00  0.17047348028E+01  0.35378309676E+01  0.51100000000E-03 0. -1.
        -11    1    3    3    0    0 -0.72668545805E+01  0.21999967331E+02  0.30663752852E+01  0.23371101722E+02  0.51100000000E-03 0.  1.
        -12    1    3    3    0    0 -0.16417378807E+02  0.13409573167E+02 -0.10418927513E+02  0.23619928661E+02  0.00000000000E+00 0.  1.
</event>
<event>
 7    1  0.3331850E-011  0.5052887E+02  0.7816164E-02  0.1300439E+00
        -11   -1    0    0    0    0  0.00000000000E+00  0.00000000000E+00  0.45593999997E+02  0.45594000000E+02  0.51100000000E-03 0.  1.
         11   -1    0    0    0    0 -0.00000000000E+00 -0.00000000000E+00 -0.45593999997E+02  0.45594000000E+02  0.51100000000E-03 0. -1.
    9900012    2    1    2    0    0 -0.39071143883E+02 -0.67786721426E+01  0.89810844334E+01  0.50528873621E+02  0.30000041858E+02 0.  0.
         12    1    1    2    0    0  0.39071143883E+02  0.67786721426E+01 -0.89810844334E+01  0.40659126379E+02  0.00000000000E+00 0. -1.
         11    1    3    3    0    0 -0.25798740456E+02 -0.78134959939E+01  0.97703824938E+01  0.28672043930E+02  0.51100000000E-03 0. -1.
        -11    1    3    3    0    0 -0.63336105445E+01 -0.40685243111E+01  0.69735302581E+01  0.10261463693E+02  0.51100000000E-03 0.  1.
         12    1    3    3    0    0 -0.69387928819E+01  0.51033481625E+01 -0.77628283185E+01  0.11595365998E+02  0.00000000000E+00 0. -1.
</event>
<event>
 7    1  0.3331850E-011  0.5052885E+02  0.7816164E-02  0.1300439E+00
        -11   -1    0    0    0    0  0.00000000000E+00  0.00000000000E+00  0.45593999997E+02  0.45594000000E+02  0.51100000000E-03 0. -1.
         11   -1    0    0    0    0 -0.00000000000E+00 -0.00000000000E+00 -0.45593999997E+02  0.45594000000E+02  0.51100000000E-03 0.  1.
    9900012    2    1    2    0    0 -0.19268772841E+02 -0.33206605938E+02 -0.13386639994E+02  0.50528850783E+02  0.29999972440E+02 0.  0.
         12    1    1    2    0    0  0.19268772841E+02  0.33206605938E+02  0.13386639994E+02  0.40659149217E+02  0.00000000000E+00 0. -1.
         11    1    3    3    0    0  0.14631992011E+01 -0.17882878695E+02  0.10407664616E+01  0.17972798820E+02  0.51100000000E-03 0. -1.
        -11    1    3    3    0    0  0.10155493657E-01 -0.59566486568E+01 -0.55035537268E+01  0.81099241821E+01  0.51100000000E-03 0.  1.
         12    1    3    3    0    0 -0.20742127536E+02 -0.93670785855E+01 -0.89238527293E+01  0.24446127781E+02  0.00000000000E+00 0. -1.
</event>
<event>
 7    1  0.3331850E-011  0.5052886E+02  0.7816164E-02  0.1300439E+00
        -11   -1    0    0    0    0  0.00000000000E+00  0.00000000000E+00  0.45593999997E+02  0.45594000000E+02  0.51100000000E-03 0. -1.
         11   -1    0    0    0    0 -0.00000000000E+00 -0.00000000000E+00 -0.45593999997E+02  0.45594000000E+02  0.51100000000E-03 0.  1.
    9900012    2    1    2    0    0  0.25917740888E+02 -0.29258749824E+02 -0.11196509348E+02  0.50528861353E+02  0.30000004568E+02 0.  0.
         12    1    1    2    0    0 -0.25917740888E+02  0.29258749824E+02  0.11196509348E+02  0.40659138647E+02  0.00000000000E+00 0. -1.
         11    1    3    3    0    0  0.92718347701E+01 -0.29115957089E+01  0.44790938602E+01  0.10700775282E+02  0.51100000000E-03 0. -1.
        -11    1    3    3    0    0  0.36131046680E+01 -0.55679240814E+00  0.35696969862E+01  0.51095283503E+01  0.51100000000E-03 0.  1.
        -12    1    3    3    0    0  0.13032801450E+02 -0.25790361707E+02 -0.19245300194E+02  0.34718557720E+02  0.00000000000E+00 0.  1.
</event>
<event>
 7    1  0.3331850E-011  0.5052888E+02  0.7816164E-02  0.1300439E+00
        -11   -1    0    0    0    0  0.00000000000E+00  0.00000000000E+00  0.45593999997E+02  0.45594000000E+02  0.51100000000E-03 0.  1.
         11   -1    0    0    0    0 -0.00000000000E+00 -0.00000000000E+00 -0.45593999997E+02  0.45594000000E+02  0.51100000000E-03 0. -1.
    9900012    2    1    2    0    0  0.43407239102E+01  0.18829028634E+02  0.35774152809E+02  0.50528877868E+02  0.30000054767E+02 0.  0.
         12    1    1    2    0    0 -0.43407239102E+01 -0.18829028634E+02 -0.35774152809E+02  0.40659122132E+02  0.00000000000E+00 0. -1.
         11    1    3    3    0    0 -0.35804504581E+01 -0.34015228719E+01  0.14595030152E+01  0.51497701544E+01  0.51100000000E-03 0. -1.
        -11    1    3    3    0    0 -0.10101918455E+01 -0.16320219777E+01  0.99221526746E+01  0.10106092086E+02  0.51100000000E-03 0.  1.
         12    1    3    3    0    0  0.89313662138E+01  0.23862573483E+02  0.24392497119E+02  0.35273015627E+02  0.00000000000E+00 0. -1.
</event>
<event>
 7    1  0.3331850E-011  0.5052885E+02  0.7816164E-02  0.1300439E+00
        -11   -1    0    0    0    0  0.00000000000E+00  0.00000000000E+00  0.45593999997E+02  0.45594000000E+02  0.51100000000E-03 0.  1.
         11   -1    0    0    0    0 -0.00000000000E+00 -0.00000000000E+00 -0.45593999997E+02  0.45594000000E+02  0.51100000000E-03 0. -1.
    9900012    2    1    2    0    0 -0.14210324119E+02  0.37847406279E+02 -0.43366673401E+01  0.50528853954E+02  0.29999982078E+02 0.  0.
         12    1    1    2    0    0  0.14210324119E+02 -0.37847406279E+02  0.43366673401E+01  0.40659146046E+02  0.00000000000E+00 0. -1.
         11    1    3    3    0    0  0.32526522267E+01  0.10137821170E+02 -0.55864174456E+01  0.12023444794E+02  0.51100000000E-03 0. -1.
        -11    1    3    3    0    0 -0.16175482541E+02  0.30550421749E+02 -0.11227638398E+01  0.34586631859E+02  0.51100000000E-03 0.  1.
        -12    1    3    3    0    0 -0.12874938046E+01 -0.28408366401E+01  0.23725139452E+01  0.39187773007E+01  0.00000000000E+00 0.  1.
</event>
<event>
 7    1  0.3331850E-011  0.5052886E+02  0.7816164E-02  0.1300439E+00
        -11   -1    0    0    0    0  0.00000000000E+00  0.00000000000E+00  0.45593999997E+02  0.45594000000E+02  0.51100000000E-03 0.  1.
         11   -1    0    0    0    0 -0.00000000000E+00 -0.00000000000E+00 -0.45593999997E+02  0.45594000000E+02  0.51100000000E-03 0. -1.
    9900012    2    1    2    0    0 -0.49415058089E+01  0.30225932075E+02  0.26742107781E+02  0.50528858617E+02  0.29999996251E+02 0.  0.
         12    1    1    2    0    0  0.49415058089E+01 -0.30225932075E+02 -0.26742107781E+02  0.40659141383E+02  0.00000000000E+00 0. -1.
         11    1    3    3    0    0  0.49012527481E+01  0.43526823513E+01 -0.17715463250E+01  0.67901766394E+01  0.51100000000E-03 0. -1.
        -11    1    3    3    0    0  0.21759026971E+01  0.67405648968E+01 -0.33992549007E+00  0.70912140903E+01  0.51100000000E-03 0.  1.
        -12    1    3    3    0    0 -0.12018661254E+02  0.19132684827E+02  0.28853579596E+02  0.36647467887E+02  0.00000000000E+00 0.  1.
</event>
<event>
 7    1  0.5097165E-011  0.5052886E+02  0.7816164E-02  0.1300439E+00
        -11   -1    0    0    0    0  0.00000000000E+00  0.00000000000E+00  0.45593999997E+02  0.45594000000E+02  0.51100000000E-03 0. -1.
         11   -1    0    0    0    0 -0.00000000000E+00 -0.00000000000E+00 -0.45593999997E+02  0.45594000000E+02  0.51100000000E-03 0.  1.
    9900012    2    1    2    0    0 -0.16164970668E+02 -0.18719431791E+02 -0.32271385813E+02  0.50528859016E+02  0.29999997466E+02 0.  0.
         12    1    1    2    0    0  0.16164970668E+02  0.18719431791E+02  0.32271385813E+02  0.40659140984E+02  0.00000000000E+00 0. -1.
         11    1    3    3    0    0 -0.96899381689E+01  0.36629223680E+00 -0.12063673691E+02  0.15477767763E+02  0.51100000000E-03 0. -1.
        -11    1    3    3    0    0 -0.13608876374E+02 -0.14785261947E+02 -0.12269644406E+02  0.23544631259E+02  0.51100000000E-03 0.  1.
         12    1    3    3    0    0  0.71338438755E+01 -0.43004620806E+01 -0.79380677159E+01  0.11506459995E+02  0.00000000000E+00 0. -1.
</event>
<event>
 7    1  0.3331850E-011  0.5052887E+02  0.7816164E-02  0.1300439E+00
        -11   -1    0    0    0    0  0.00000000000E+00  0.00000000000E+00  0.45593999997E+02  0.45594000000E+02  0.51100000000E-03 0.  1.
         11   -1    0    0    0    0 -0.00000000000E+00 -0.00000000000E+00 -0.45593999997E+02  0.45594000000E+02  0.51100000000E-03 0. -1.
    9900012    2    1    2    0    0  0.31796475949E+02 -0.24803160333E+02 -0.51915761064E+01  0.50528866859E+02  0.30000021306E+02 0.  0.
         12    1    1    2    0    0 -0.31796475949E+02  0.24803160333E+02  0.51915761064E+01  0.40659133141E+02  0.00000000000E+00 0. -1.
         11    1    3    3    0    0 -0.11424927351E+01  0.20571541250E+01 -0.51932076748E+01  0.57014541092E+01  0.51100000000E-03 0. -1.
        -11    1    3    3    0    0  0.37810591161E+01  0.13159719081E+01  0.14398620086E+01  0.42545731827E+01  0.51100000000E-03 0.  1.
        -12    1    3    3    0    0  0.29157909568E+02 -0.28176286366E+02 -0.14382304401E+01  0.40572839567E+02  0.00000000000E+00 0.  1.
</event>
<event>
 7    1  0.3331850E-011  0.5052886E+02  0.7816164E-02  0.1300439E+00
        -11   -1    0    0    0    0  0.00000000000E+00  0.00000000000E+00  0.45593999997E+02  0.45594000000E+02  0.51100000000E-03 0.  1.
         11   -1    0    0    0    0 -0.00000000000E+00 -0.00000000000E+00 -0.45593999997E+02  0.45594000000E+02  0.51100000000E-03 0. -1.
    9900012    2    1    2    0    0 -0.24671278345E+02  0.23015769481E+02  0.22688499289E+02  0.50528860561E+02  0.30000002160E+02 0.  0.
         12    1    1    2    0    0  0.24671278345E+02 -0.23015769481E+02 -0.22688499289E+02  0.40659139439E+02  0.00000000000E+00 0. -1.
         11    1    3    3    0    0 -0.87874653380E+01  0.16836987555E+02  0.35515114753E+01  0.19321411207E+02  0.51100000000E-03 0. -1.
        -11    1    3    3    0    0 -0.13699858508E+02  0.10607678959E+02  0.81209938618E+01  0.19135295075E+02  0.51100000000E-03 0.  1.
        -12    1    3    3    0    0 -0.21839544989E+01 -0.44288970338E+01  0.11015993952E+02  0.12072154279E+02  0.00000000000E+00 0.  1.
</event>
<event>
 7    1  0.3331850E-011  0.5052888E+02  0.7816164E-02  0.1300439E+00
        -11   -1    0    0    0    0  0.00000000000E+00  0.00000000000E+00  0.45593999997E+02  0.45594000000E+02  0.51100000000E-03 0.  1.
         11   -1    0    0    0    0 -0.00000000000E+00 -0.00000000000E+00 -0.45593999997E+02  0.45594000000E+02  0.51100000000E-03 0. -1.
    9900012    2    1    2    0    0 -0.51727492874E+01 -0.29523009999E+02  0.27473593095E+02  0.50528883284E+02  0.30000071229E+02 0.  0.
         12    1    1    2    0    0  0.51727492874E+01  0.29523009999E+02 -0.27473593095E+02  0.40659116716E+02  0.00000000000E+00 0. -1.
         11    1    3    3    0    0 -0.45478216463E+00  0.96875786347E+00  0.11411074490E+00  0.10762621142E+01  0.51100000000E-03 0. -1.
        -11    1    3    3    0    0 -0.12291082632E+02 -0.29653079692E+01  0.81755861678E+01  0.15056691970E+02  0.51100000000E-03 0.  1.
         12    1    3    3    0    0  0.75731155096E+01 -0.27526459894E+02  0.19183896182E+02  0.34395929200E+02  0.00000000000E+00 0. -1.
</event>
<event>
 7    1  0.3331850E-011  0.5052887E+02  0.7816164E-02  0.1300439E+00
        -11   -1    0    0    0    0  0.00000000000E+00  0.00000000000E+00  0.45593999997E+02  0.45594000000E+02  0.51100000000E-03 0.  1.
         11   -1    0    0    0    0 -0.00000000000E+00 -0.00000000000E+00 -0.45593999997E+02  0.45594000000E+02  0.51100000000E-03 0. -1.
    9900012    2    1    2    0    0  0.29904273235E+02  0.21794862369E+02  0.16848839101E+02  0.50528868646E+02  0.30000026735E+02 0.  0.
         12    1    1    2    0    0 -0.29904273235E+02 -0.21794862369E+02 -0.16848839101E+02  0.40659131354E+02  0.00000000000E+00 0. -1.
         11    1    3    3    0    0  0.54948836885E+01  0.16056945681E+02  0.32655493104E+01  0.17282449592E+02  0.51100000000E-03 0. -1.
        -11    1    3    3    0    0  0.15011652796E+02  0.10613036916E+02  0.13236557767E+02  0.22653757614E+02  0.51100000000E-03 0.  1.
        -12    1    3    3    0    0  0.93977367509E+01 -0.48751202280E+01  0.34673202406E+00  0.10592661440E+02  0.00000000000E+00 0.  1.
</event>
<event>
 7    1  0.3331850E-011  0.5052888E+02  0.7816164E-02  0.1300439E+00
        -11   -1    0    0    0    0  0.00000000000E+00  0.00000000000E+00  0.45593999997E+02  0.45594000000E+02  0.51100000000E-03 0. -1.
         11   -1    0    0    0    0 -0.00000000000E+00 -0.00000000000E+00 -0.45593999997E+02  0.45594000000E+02  0.51100000000E-03 0.  1.
    9900012    2    1    2    0    0 -0.29399820194E+02  0.17334367182E+02 -0.22098296849E+02  0.50528875112E+02  0.30000046390E+02 0.  0.
         12    1    1    2    0    0  0.29399820194E+02 -0.17334367182E+02  0.22098296849E+02  0.40659124888E+02  0.00000000000E+00 0. -1.
         11    1    3    3    0    0 -0.67932476801E+01  0.26707265517E+01 -0.81020866167E+01  0.10905264883E+02  0.51100000000E-03 0. -1.
        -11    1    3    3    0    0 -0.28288336488E+02  0.13066421739E+02 -0.12049349880E+02  0.33408804096E+02  0.51100000000E-03 0.  1.
        -12    1    3    3    0    0  0.56817639738E+01  0.15972188913E+01 -0.19468603524E+01  0.62148061332E+01  0.00000000000E+00 0.  1.
</event>
<event>
 7    1  0.3331850E-011  0.5052888E+02  0.7816164E-02  0.1300439E+00
        -11   -1    0    0    0    0  0.00000000000E+00  0.00000000000E+00  0.45593999997E+02  0.45594000000E+02  0.51100000000E-03 0. -1.
         11   -1    0    0    0    0 -0.00000000000E+00 -0.00000000000E+00 -0.45593999997E+02  0.45594000000E+02  0.51100000000E-03 0.  1.
    9900012    2    1    2    0    0  0.33685108606E+02  0.21751374877E+02  0.67346081864E+01  0.50528882963E+02  0.30000070253E+02 0.  0.
         12    1    1    2    0    0 -0.33685108606E+02 -0.21751374877E+02 -0.67346081864E+01  0.40659117037E+02  0.00000000000E+00 0. -1.
         11    1    3    3    0    0  0.19289853794E+02  0.75900921118E+01  0.38263981622E+01  0.21079593943E+02  0.51100000000E-03 0. -1.
        -11    1    3    3    0    0  0.14163478056E+02  0.19381852671E+02  0.15796655861E+01  0.24057341233E+02  0.51100000000E-03 0.  1.
        -12    1    3    3    0    0  0.23177675572E+00 -0.52205699053E+01  0.13285444381E+01  0.53919477858E+01  0.00000000000E+00 0.  1.
</event>
<event>
 7    1  0.3331850E-011  0.5052885E+02  0.7816164E-02  0.1300439E+00
        -11   -1    0    0    0    0  0.00000000000E+00  0.00000000000E+00  0.45593999997E+02  0.45594000000E+02  0.51100000000E-03 0.  1.
         11   -1    0    0    0    0 -0.00000000000E+00 -0.00000000000E+00 -0.45593999997E+02  0.45594000000E+02  0.51100000000E-03 0. -1.
    9900012    2    1    2    0    0  0.24268012822E+02  0.56273491472E+01  0.32133514898E+02  0.50528852389E+02  0.29999977323E+02 0.  0.
         12    1    1    2    0    0 -0.24268012822E+02 -0.56273491472E+01 -0.32133514898E+02  0.40659147611E+02  0.00000000000E+00 0. -1.
         11    1    3    3    0    0  0.21548696215E+02 -0.27099151317E+01  0.23903563430E+02  0.32296598791E+02  0.51100000000E-03 0. -1.
        -11    1    3    3    0    0  0.49474633144E+01  0.56757218330E+01 -0.16950367565E+01  0.77177951152E+01  0.51100000000E-03 0.  1.
        -12    1    3    3    0    0 -0.22281467070E+01  0.26615424459E+01  0.99249882240E+01  0.10514458483E+02  0.00000000000E+00 0.  1.
</event>
<event>
 7    1  0.3331850E-011  0.5052890E+02  0.7816164E-02  0.1300439E+00
        -11   -1    0    0    0    0  0.00000000000E+00  0.00000000000E+00  0.45593999997E+02  0.45594000000E+02  0.51100000000E-03 0. -1.
         11   -1    0    0    0    0 -0.00000000000E+00 -0.00000000000E+00 -0.45593999997E+02  0.45594000000E+02  0.51100000000E-03 0.  1.
    9900012    2    1    2    0    0 -0.18078798006E+02  0.17553710130E+02 -0.31909035299E+02  0.50528902490E+02  0.30000129608E+02 0.  0.
         12    1    1    2    0    0  0.18078798006E+02 -0.17553710130E+02  0.31909035299E+02  0.40659097510E+02  0.00000000000E+00 0. -1.
         11    1    3    3    0    0 -0.29488651773E+01 -0.72030658012E+00 -0.10791417565E+01  0.32216757433E+01  0.51100000000E-03 0. -1.
        -11    1    3    3    0    0 -0.37323514610E+01  0.97524393880E+01  0.27822658024E+01  0.10806550083E+02  0.51100000000E-03 0.  1.
        -12    1    3    3    0    0 -0.11397581368E+02  0.85215773219E+01 -0.33612159344E+02  0.36500676663E+02  0.00000000000E+00 0.  1.
</event>
<event>
 7    1  0.3331850E-011  0.5052887E+02  0.7816164E-02  0.1300439E+00
        -11   -1    0    0    0    0  0.00000000000E+00  0.00000000000E+00  0.45593999997E+02  0.45594000000E+02  0.51100000000E-03 0. -1.
         11   -1    0    0    0    0 -0.00000000000E+00 -0.00000000000E+00 -0.45593999997E+02  0.45594000000E+02  0.51100000000E-03 0.  1.
    9900012    2    1    2    0    0 -0.16028914326E+02 -0.36758699755E+02 -0.67109680708E+01  0.50528865792E+02  0.30000018060E+02 0.  0.
         12    1    1    2    0    0  0.16028914326E+02  0.36758699755E+02  0.67109680708E+01  0.40659134208E+02  0.00000000000E+00 0. -1.
         11    1    3    3    0    0  0.36032339593E+01 -0.38363530200E+01  0.77519929144E+00  0.53199467725E+01  0.51100000000E-03 0.  1.
        -11    1    3    3    0    0 -0.81967643924E+00 -0.20329037942E+01 -0.87492720801E+01  0.90196634911E+01  0.51100000000E-03 0. -1.
         12    1    3    3    0    0 -0.18812471846E+02 -0.30889442941E+02  0.12631047179E+01  0.36189255528E+02  0.00000000000E+00 0. -1.
</event>
<event>
 7    1  0.3331850E-011  0.5052887E+02  0.7816164E-02  0.1300439E+00
        -11   -1    0    0    0    0  0.00000000000E+00  0.00000000000E+00  0.45593999997E+02  0.45594000000E+02  0.51100000000E-03 0.  1.
         11   -1    0    0    0    0 -0.00000000000E+00 -0.00000000000E+00 -0.45593999997E+02  0.45594000000E+02  0.51100000000E-03 0. -1.
    9900012    2    1    2    0    0 -0.58682181369E+01  0.40138052554E+02  0.27687430829E+01  0.50528865907E+02  0.30000018411E+02 0.  0.
         12    1    1    2    0    0  0.58682181369E+01 -0.40138052554E+02 -0.27687430829E+01  0.40659134093E+02  0.00000000000E+00 0. -1.
         11    1    3    3    0    0  0.38504721468E+01  0.33130217599E+02 -0.63211196513E+01  0.33946929284E+02  0.51100000000E-03 0. -1.
        -11    1    3    3    0    0 -0.25839469376E+01  0.48946297284E+01  0.10618703892E+01  0.56357564655E+01  0.51100000000E-03 0.  1.
         12    1    3    3    0    0 -0.71347433462E+01  0.21132052263E+01  0.80279923450E+01  0.10946180157E+02  0.00000000000E+00 0. -1.
</event>
<event>
 7    1  0.3331850E-011  0.5052886E+02  0.7816164E-02  0.1300439E+00
        -11   -1    0    0    0    0  0.00000000000E+00  0.00000000000E+00  0.45593999997E+02  0.45594000000E+02  0.51100000000E-03 0. -1.
         11   -1    0    0    0    0 -0.00000000000E+00 -0.00000000000E+00 -0.45593999997E+02  0.45594000000E+02  0.51100000000E-03 0.  1.
    9900012    2    1    2    0    0  0.63333593941E+01  0.36244929383E+02 -0.17302003448E+02  0.50528859939E+02  0.30000000270E+02 0.  0.
         12    1    1    2    0    0 -0.63333593941E+01 -0.36244929383E+02  0.17302003448E+02  0.40659140061E+02  0.00000000000E+00 0. -1.
         11    1    3    3    0    0 -0.84107490005E+01  0.95279086426E+01 -0.44494706844E+01  0.13465494105E+02  0.51100000000E-03 0. -1.
        -11    1    3    3    0    0 -0.20001517603E+01  0.11086411009E+02 -0.75202883166E+01  0.13544882899E+02  0.51100000000E-03 0.  1.
         12    1    3    3    0    0  0.16744260155E+02  0.15630609732E+02 -0.53322444465E+01  0.23518482935E+02  0.00000000000E+00 0. -1.
</event>
<event>
 7    1  0.3331850E-011  0.5052882E+02  0.7816164E-02  0.1300439E+00
        -11   -1    0    0    0    0  0.00000000000E+00  0.00000000000E+00  0.45593999997E+02  0.45594000000E+02  0.51100000000E-03 0.  1.
         11   -1    0    0    0    0 -0.00000000000E+00 -0.00000000000E+00 -0.45593999997E+02  0.45594000000E+02  0.51100000000E-03 0. -1.
    9900012    2    1    2    0    0 -0.22172079174E+02 -0.63813034284E+01  0.33479048997E+02  0.50528820838E+02  0.29999881420E+02 0.  0.
         12    1    1    2    0    0  0.22172079174E+02  0.63813034284E+01 -0.33479048997E+02  0.40659179162E+02  0.00000000000E+00 0. -1.
         11    1    3    3    0    0 -0.34666550027E+00 -0.79874566671E+01 -0.34051690556E+00  0.80022242534E+01  0.51100000000E-03 0.  1.
        -11    1    3    3    0    0 -0.39350691240E+01 -0.23411316902E+01  0.17172284429E+02  0.17772254201E+02  0.51100000000E-03 0. -1.
         12    1    3    3    0    0 -0.17890344550E+02  0.39472849289E+01  0.16647281473E+02  0.24754342384E+02  0.00000000000E+00 0. -1.
</event>
<event>
 7    1  0.3331850E-011  0.5052886E+02  0.7816164E-02  0.1300439E+00
        -11   -1    0    0    0    0  0.00000000000E+00  0.00000000000E+00  0.45593999997E+02  0.45594000000E+02  0.51100000000E-03 0. -1.
         11   -1    0    0    0    0 -0.00000000000E+00 -0.00000000000E+00 -0.45593999997E+02  0.45594000000E+02  0.51100000000E-03 0.  1.
    9900012    2    1    2    0    0  0.27618940043E+00  0.70022932609E+01 -0.40050685120E+02  0.50528858714E+02  0.29999996548E+02 0.  0.
         12    1    1    2    0    0 -0.27618940043E+00 -0.70022932609E+01  0.40050685120E+02  0.40659141286E+02  0.00000000000E+00 0. -1.
         11    1    3    3    0    0 -0.13231188826E+01 -0.11103224355E+01  0.11899749573E+01  0.20974985455E+01  0.51100000000E-03 0. -1.
        -11    1    3    3    0    0  0.31703737921E+01  0.96132865574E+01 -0.36235914456E+01  0.10751602841E+02  0.51100000000E-03 0.  1.
         12    1    3    3    0    0 -0.15710655091E+01 -0.15006708610E+01 -0.37617068632E+02  0.37679757328E+02  0.00000000000E+00 0. -1.
</event>
<event>
 7    1  0.3331850E-011  0.5052884E+02  0.7816164E-02  0.1300439E+00
        -11   -1    0    0    0    0  0.00000000000E+00  0.00000000000E+00  0.45593999997E+02  0.45594000000E+02  0.51100000000E-03 0. -1.
         11   -1    0    0    0    0 -0.00000000000E+00 -0.00000000000E+00 -0.45593999997E+02  0.45594000000E+02  0.51100000000E-03 0.  1.
    9900012    2    1    2    0    0 -0.36934797955E+02  0.16282396873E+02 -0.48858398127E+01  0.50528841394E+02  0.29999943901E+02 0.  0.
         12    1    1    2    0    0  0.36934797955E+02 -0.16282396873E+02  0.48858398127E+01  0.40659158606E+02  0.00000000000E+00 0. -1.
         11    1    3    3    0    0 -0.14669076739E+01  0.47774364026E+01 -0.50057133130E+01  0.70733925904E+01  0.51100000000E-03 0. -1.
        -11    1    3    3    0    0 -0.19128450704E+02  0.14970837172E+02 -0.70289157086E+01  0.25286938294E+02  0.51100000000E-03 0.  1.
        -12    1    3    3    0    0 -0.16339439577E+02 -0.34658767020E+01  0.71487892089E+01  0.18168510510E+02  0.00000000000E+00 0.  1.
</event>
<event>
 7    1  0.3331850E-011  0.5052891E+02  0.7816164E-02  0.1300439E+00
        -11   -1    0    0    0    0  0.00000000000E+00  0.00000000000E+00  0.45593999997E+02  0.45594000000E+02  0.51100000000E-03 0.  1.
         11   -1    0    0    0    0 -0.00000000000E+00 -0.00000000000E+00 -0.45593999997E+02  0.45594000000E+02  0.51100000000E-03 0. -1.
    9900012    2    1    2    0    0 -0.27031776695E+02  0.26933091000E+02  0.14037571196E+02  0.50528908185E+02  0.30000146918E+02 0.  0.
         12    1    1    2    0    0  0.27031776695E+02 -0.26933091000E+02 -0.14037571196E+02  0.40659091815E+02  0.00000000000E+00 0. -1.
         11    1    3    3    0    0  0.23960281273E+01  0.11131135556E+02  0.10046984854E+02  0.15185026654E+02  0.51100000000E-03 0. -1.
        -11    1    3    3    0    0 -0.39244825982E+01  0.50501916098E+01  0.42259610593E+01  0.76658167272E+01  0.51100000000E-03 0.  1.
         12    1    3    3    0    0 -0.25503322225E+02  0.10751763834E+02 -0.23537471671E+00  0.27678064804E+02  0.00000000000E+00 0. -1.
</event>
<event>
 7    1  0.3331850E-011  0.5052885E+02  0.7816164E-02  0.1300439E+00
        -11   -1    0    0    0    0  0.00000000000E+00  0.00000000000E+00  0.45593999997E+02  0.45594000000E+02  0.51100000000E-03 0. -1.
         11   -1    0    0    0    0 -0.00000000000E+00 -0.00000000000E+00 -0.45593999997E+02  0.45594000000E+02  0.51100000000E-03 0.  1.
    9900012    2    1    2    0    0 -0.19051015117E+02  0.33328619222E+02 -0.13395082900E+02  0.50528852417E+02  0.29999977408E+02 0.  0.
         12    1    1    2    0    0  0.19051015117E+02 -0.33328619222E+02  0.13395082900E+02  0.40659147583E+02  0.00000000000E+00 0. -1.
         11    1    3    3    0    0  0.26716303273E+01  0.60312863243E+01 -0.43499948393E+01  0.79016756891E+01  0.51100000000E-03 0. -1.
        -11    1    3    3    0    0 -0.16618922584E+02  0.25260089484E+02 -0.15640516374E+02  0.34042421496E+02  0.51100000000E-03 0.  1.
        -12    1    3    3    0    0 -0.51037228605E+01  0.20372434139E+01  0.65954283137E+01  0.85847552327E+01  0.00000000000E+00 0.  1.
</event>
<event>
 7    1  0.3331850E-011  0.5052885E+02  0.7816164E-02  0.1300439E+00
        -11   -1    0    0    0    0  0.00000000000E+00  0.00000000000E+00  0.45593999997E+02  0.45594000000E+02  0.51100000000E-03 0.  1.
         11   -1    0    0    0    0 -0.00000000000E+00 -0.00000000000E+00 -0.45593999997E+02  0.45594000000E+02  0.51100000000E-03 0. -1.
    9900012    2    1    2    0    0  0.19057886263E+02  0.11482455740E+02  0.34031107278E+02  0.50528854889E+02  0.29999984920E+02 0.  0.
         12    1    1    2    0    0 -0.19057886263E+02 -0.11482455740E+02 -0.34031107278E+02  0.40659145111E+02  0.00000000000E+00 0. -1.
         11    1    3    3    0    0  0.58653518266E+01  0.13616617403E+02  0.79056922063E+01  0.16802219825E+02  0.51100000000E-03 0. -1.
        -11    1    3    3    0    0 -0.24667465288E+01  0.38067836633E+01  0.47015403749E+01  0.65330637877E+01  0.51100000000E-03 0.  1.
        -12    1    3    3    0    0  0.15659280965E+02 -0.59409453262E+01  0.21423874697E+02  0.27193571276E+02  0.00000000000E+00 0.  1.
</event>
<event>
 7    1  0.3331850E-011  0.5052885E+02  0.7816164E-02  0.1300439E+00
        -11   -1    0    0    0    0  0.00000000000E+00  0.00000000000E+00  0.45593999997E+02  0.45594000000E+02  0.51100000000E-03 0.  1.
         11   -1    0    0    0    0 -0.00000000000E+00 -0.00000000000E+00 -0.45593999997E+02  0.45594000000E+02  0.51100000000E-03 0. -1.
    9900012    2    1    2    0    0 -0.71570548602E+01  0.15930524466E+02  0.36717316413E+02  0.50528851354E+02  0.29999974176E+02 0.  0.
         12    1    1    2    0    0  0.71570548602E+01 -0.15930524466E+02 -0.36717316413E+02  0.40659148646E+02  0.00000000000E+00 0. -1.
         11    1    3    3    0    0  0.63467202635E+01  0.13143226645E+02  0.14388031030E+02  0.20494894533E+02  0.51100000000E-03 0.  1.
        -11    1    3    3    0    0  0.31894626080E+01  0.24031703640E+00  0.36622751255E+01  0.48623742515E+01  0.51100000000E-03 0. -1.
         12    1    3    3    0    0 -0.16693237732E+02  0.25469807843E+01  0.18667010258E+02  0.25171582569E+02  0.00000000000E+00 0. -1.
</event>
<event>
 7    1  0.3331850E-011  0.5052887E+02  0.7816164E-02  0.1300439E+00
        -11   -1    0    0    0    0  0.00000000000E+00  0.00000000000E+00  0.45593999997E+02  0.45594000000E+02  0.51100000000E-03 0.  1.
         11   -1    0    0    0    0 -0.00000000000E+00 -0.00000000000E+00 -0.45593999997E+02  0.45594000000E+02  0.51100000000E-03 0. -1.
    9900012    2    1    2    0    0  0.98678603482E+01 -0.30227296992E+02  0.25339708273E+02  0.50528868595E+02  0.30000026581E+02 0.  0.
         12    1    1    2    0    0 -0.98678603482E+01  0.30227296992E+02 -0.25339708273E+02  0.40659131405E+02  0.00000000000E+00 0. -1.
         11    1    3    3    0    0 -0.18466413524E+01 -0.87455469317E+00  0.42509158270E+01  0.47164834172E+01  0.51100000000E-03 0. -1.
        -11    1    3    3    0    0 -0.97098225632E+00 -0.22928131807E+02  0.21694410946E+02  0.31579890774E+02  0.51100000000E-03 0.  1.
         12    1    3    3    0    0  0.12685483957E+02 -0.64246104912E+01 -0.60561850071E+00  0.14232494404E+02  0.00000000000E+00 0. -1.
</event>
<event>
 7    1  0.3331850E-011  0.5052889E+02  0.7816164E-02  0.1300439E+00
        -11   -1    0    0    0    0  0.00000000000E+00  0.00000000000E+00  0.45593999997E+02  0.45594000000E+02  0.51100000000E-03 0.  1.
         11   -1    0    0    0    0 -0.00000000000E+00 -0.00000000000E+00 -0.45593999997E+02  0.45594000000E+02  0.51100000000E-03 0. -1.
    9900012    2    1    2    0    0  0.67942642150E+01 -0.28994162703E+02  0.27682846435E+02  0.50528886829E+02  0.30000082006E+02 0.  0.
         12    1    1    2    0    0 -0.67942642150E+01  0.28994162703E+02 -0.27682846435E+02  0.40659113171E+02  0.00000000000E+00 0. -1.
         11    1    3    3    0    0 -0.26910154129E+01  0.90553906713E+00 -0.13156794264E+01  0.31293094396E+01  0.51100000000E-03 0. -1.
        -11    1    3    3    0    0 -0.41771766934E+01 -0.18636580545E+02  0.19545920277E+02  0.27327896722E+02  0.51100000000E-03 0.  1.
        -12    1    3    3    0    0  0.13662456321E+02 -0.11263121226E+02  0.94526055846E+01  0.20071680668E+02  0.00000000000E+00 0.  1.
</event>
<event>
 7    1  0.3331850E-011  0.5052886E+02  0.7816164E-02  0.1300439E+00
        -11   -1    0    0    0    0  0.00000000000E+00  0.00000000000E+00  0.45593999997E+02  0.45594000000E+02  0.51100000000E-03 0. -1.
         11   -1    0    0    0    0 -0.00000000000E+00 -0.00000000000E+00 -0.45593999997E+02  0.45594000000E+02  0.51100000000E-03 0.  1.
    9900012    2    1    2    0    0 -0.43661150037E+01 -0.41852556268E+01 -0.40206796933E+02  0.50528857799E+02  0.29999993767E+02 0.  0.
         12    1    1    2    0    0  0.43661150037E+01  0.41852556268E+01  0.40206796933E+02  0.40659142201E+02  0.00000000000E+00 0. -1.
         11    1    3    3    0    0 -0.82646160081E+01 -0.11311272648E+02 -0.22058709147E+02  0.26131119688E+02  0.51100000000E-03 0. -1.
        -11    1    3    3    0    0 -0.23718040434E+01 -0.20425878433E+01 -0.11637390085E-01  0.31301366117E+01  0.51100000000E-03 0.  1.
        -12    1    3    3    0    0  0.62703050478E+01  0.91686048648E+01 -0.18136450396E+02  0.21267601499E+02  0.00000000000E+00 0.  1.
</event>
<event>
 7    1  0.3331850E-011  0.5052886E+02  0.7816164E-02  0.1300439E+00
        -11   -1    0    0    0    0  0.00000000000E+00  0.00000000000E+00  0.45593999997E+02  0.45594000000E+02  0.51100000000E-03 0. -1.
         11   -1    0    0    0    0 -0.00000000000E+00 -0.00000000000E+00 -0.45593999997E+02  0.45594000000E+02  0.51100000000E-03 0.  1.
    9900012    2    1    2    0    0  0.24071487978E+02  0.32407256336E+02  0.48475816096E+01  0.50528857803E+02  0.29999993779E+02 0.  0.
         12    1    1    2    0    0 -0.24071487978E+02 -0.32407256336E+02 -0.48475816096E+01  0.40659142197E+02  0.00000000000E+00 0. -1.
         11    1    3    3    0    0  0.62394158927E+01 -0.14723535481E+01 -0.22136300344E+01  0.67822042024E+01  0.51100000000E-03 0. -1.
        -11    1    3    3    0    0  0.13364320250E+02  0.20858039412E+02 -0.51991593185E+01  0.25311936349E+02  0.51100000000E-03 0.  1.
        -12    1    3    3    0    0  0.44677518348E+01  0.13021570472E+02  0.12260370963E+02  0.18434717252E+02  0.00000000000E+00 0.  1.
</event>
<event>
 7    1  0.3331850E-011  0.5052872E+02  0.7816164E-02  0.1300439E+00
        -11   -1    0    0    0    0  0.00000000000E+00  0.00000000000E+00  0.45593999997E+02  0.45594000000E+02  0.51100000000E-03 0.  1.
         11   -1    0    0    0    0 -0.00000000000E+00 -0.00000000000E+00 -0.45593999997E+02  0.45594000000E+02  0.51100000000E-03 0. -1.
    9900012    2    1    2    0    0  0.27848314304E+02  0.64386286894E+01  0.28916992611E+02  0.50528720486E+02  0.29999576387E+02 0.  0.
         12    1    1    2    0    0 -0.27848314304E+02 -0.64386286894E+01 -0.28916992611E+02  0.40659279514E+02  0.00000000000E+00 0. -1.
         11    1    3    3    0    0 -0.18194005235E+01 -0.44298610223E+01  0.31679811236E+01  0.57419501567E+01  0.51100000000E-03 0. -1.
        -11    1    3    3    0    0  0.11462602050E+02  0.69584207262E+00  0.20151869301E+02  0.23194250980E+02  0.51100000000E-03 0.  1.
        -12    1    3    3    0    0  0.18205112777E+02  0.10172647639E+02  0.55971421862E+01  0.21592519349E+02  0.00000000000E+00 0.  1.
</event>
<event>
 7    1  0.3331850E-011  0.5052887E+02  0.7816164E-02  0.1300439E+00
        -11   -1    0    0    0    0  0.00000000000E+00  0.00000000000E+00  0.45593999997E+02  0.45594000000E+02  0.51100000000E-03 0. -1.
         11   -1    0    0    0    0 -0.00000000000E+00 -0.00000000000E+00 -0.45593999997E+02  0.45594000000E+02  0.51100000000E-03 0.  1.
    9900012    2    1    2    0    0 -0.23165324696E+01 -0.18529086155E+02 -0.36117468609E+02  0.50528869474E+02  0.30000029252E+02 0.  0.
         12    1    1    2    0    0  0.23165324696E+01  0.18529086155E+02  0.36117468609E+02  0.40659130526E+02  0.00000000000E+00 0. -1.
         11    1    3    3    0    0  0.13583817377E+01  0.84239860612E+00 -0.82809904091E+00  0.18001623925E+01  0.51100000000E-03 0. -1.
        -11    1    3    3    0    0 -0.11340762115E+02 -0.22287425726E+02 -0.29587893717E+02  0.38739975293E+02  0.51100000000E-03 0.  1.
        -12    1    3    3    0    0  0.76658479073E+01  0.29159409650E+01 -0.57014758517E+01  0.99887317883E+01  0.00000000000E+00 0.  1.
</event>
<event>
 7    1  0.3331850E-011  0.5052887E+02  0.7816164E-02  0.1300439E+00
        -11   -1    0    0    0    0  0.00000000000E+00  0.00000000000E+00  0.45593999997E+02  0.45594000000E+02  0.51100000000E-03 0. -1.
         11   -1    0    0    0    0 -0.00000000000E+00 -0.00000000000E+00 -0.45593999997E+02  0.45594000000E+02  0.51100000000E-03 0.  1.
    9900012    2    1    2    0    0 -0.25230770023E+01  0.40498964051E+02 -0.25754571160E+01  0.50528868355E+02  0.30000025853E+02 0.  0.
         12    1    1    2    0    0  0.25230770023E+01 -0.40498964051E+02  0.25754571160E+01  0.40659131645E+02  0.00000000000E+00 0. -1.
         11    1    3    3    0    0 -0.10637312888E+01 -0.30716977796E+01  0.28863346270E+01  0.43471576167E+01  0.51100000000E-03 0. -1.
        -11    1    3    3    0    0  0.44789234784E+01  0.16370145248E+02  0.26624824353E+01  0.17179383689E+02  0.51100000000E-03 0.  1.
        -12    1    3    3    0    0 -0.59382691919E+01  0.27200516583E+02 -0.81242741783E+01  0.29002327049E+02  0.00000000000E+00 0.  1.
</event>
<event>
 7    1  0.3331850E-011  0.5052886E+02  0.7816164E-02  0.1300439E+00
        -11   -1    0    0    0    0  0.00000000000E+00  0.00000000000E+00  0.45593999997E+02  0.45594000000E+02  0.51100000000E-03 0.  1.
         11   -1    0    0    0    0 -0.00000000000E+00 -0.00000000000E+00 -0.45593999997E+02  0.45594000000E+02  0.51100000000E-03 0. -1.
    9900012    2    1    2    0    0  0.33033888946E+02  0.11849063275E+02  0.20531135771E+02  0.50528860124E+02  0.30000000833E+02 0.  0.
         12    1    1    2    0    0 -0.33033888946E+02 -0.11849063275E+02 -0.20531135771E+02  0.40659139876E+02  0.00000000000E+00 0. -1.
         11    1    3    3    0    0  0.13405467735E+02 -0.21438189254E+01 -0.35503056101E+00  0.13580448142E+02  0.51100000000E-03 0. -1.
        -11    1    3    3    0    0  0.12147533112E+02 -0.24469414108E+01  0.92415927120E+01  0.15458237904E+02  0.51100000000E-03 0.  1.
        -12    1    3    3    0    0  0.74808880989E+01  0.16439823611E+02  0.11644573620E+02  0.21490174078E+02  0.00000000000E+00 0.  1.
</event>
<event>
 7    1  0.3331850E-011  0.5052883E+02  0.7816164E-02  0.1300439E+00
        -11   -1    0    0    0    0  0.00000000000E+00  0.00000000000E+00  0.45593999997E+02  0.45594000000E+02  0.51100000000E-03 0. -1.
         11   -1    0    0    0    0 -0.00000000000E+00 -0.00000000000E+00 -0.45593999997E+02  0.45594000000E+02  0.51100000000E-03 0.  1.
    9900012    2    1    2    0    0 -0.60422140601E+01 -0.36366467877E+02 -0.17150504614E+02  0.50528829507E+02  0.29999907771E+02 0.  0.
         12    1    1    2    0    0  0.60422140601E+01  0.36366467877E+02  0.17150504614E+02  0.40659170493E+02  0.00000000000E+00 0. -1.
         11    1    3    3    0    0  0.11601925546E+01  0.23514542516E+01 -0.92734436034E+00  0.27812500220E+01  0.51100000000E-03 0. -1.
        -11    1    3    3    0    0 -0.14427306585E+01 -0.12993857346E+02 -0.16913836925E+02  0.21377550848E+02  0.51100000000E-03 0.  1.
         12    1    3    3    0    0 -0.57596759562E+01 -0.25724064783E+02  0.69067667078E+00  0.26370028638E+02  0.00000000000E+00 0. -1.
</event>
<event>
 7    1  0.3331850E-011  0.5052886E+02  0.7816164E-02  0.1300439E+00
        -11   -1    0    0    0    0  0.00000000000E+00  0.00000000000E+00  0.45593999997E+02  0.45594000000E+02  0.51100000000E-03 0.  1.
         11   -1    0    0    0    0 -0.00000000000E+00 -0.00000000000E+00 -0.45593999997E+02  0.45594000000E+02  0.51100000000E-03 0. -1.
    9900012    2    1    2    0    0 -0.72523257740E+01  0.21141697914E+02  0.33964662544E+02  0.50528856852E+02  0.29999990888E+02 0.  0.
         12    1    1    2    0    0  0.72523257740E+01 -0.21141697914E+02 -0.33964662544E+02  0.40659143148E+02  0.00000000000E+00 0. -1.
         11    1    3    3    0    0  0.56802835632E+01  0.46729647800E+01  0.26712261190E+01  0.78254501745E+01  0.51100000000E-03 0. -1.
        -11    1    3    3    0    0  0.26706805740E+01  0.12290117927E+02  0.16911678541E+02  0.21075682782E+02  0.51100000000E-03 0.  1.
         12    1    3    3    0    0 -0.15603289911E+02  0.41786152067E+01  0.14381757884E+02  0.21627723896E+02  0.00000000000E+00 0. -1.
</event>
<event>
 7    1  0.3331850E-011  0.5052885E+02  0.7816164E-02  0.1300439E+00
        -11   -1    0    0    0    0  0.00000000000E+00  0.00000000000E+00  0.45593999997E+02  0.45594000000E+02  0.51100000000E-03 0. -1.
         11   -1    0    0    0    0 -0.00000000000E+00 -0.00000000000E+00 -0.45593999997E+02  0.45594000000E+02  0.51100000000E-03 0.  1.
    9900012    2    1    2    0    0  0.31868898562E+02  0.11328306335E+02 -0.22565657268E+02  0.50528854560E+02  0.29999983921E+02 0.  0.
         12    1    1    2    0    0 -0.31868898562E+02 -0.11328306335E+02  0.22565657268E+02  0.40659145440E+02  0.00000000000E+00 0. -1.
         11    1    3    3    0    0  0.16283546790E+02 -0.21022706268E+01 -0.16007783721E+02  0.22930821568E+02  0.51100000000E-03 0. -1.
        -11    1    3    3    0    0  0.92597202552E+01  0.13636372013E+02 -0.11043497797E+02  0.19840662910E+02  0.51100000000E-03 0.  1.
        -12    1    3    3    0    0  0.63256315167E+01 -0.20579505078E+00  0.44856242494E+01  0.77573700823E+01  0.00000000000E+00 0.  1.
</event>
<event>
 7    1  0.3331850E-011  0.5052886E+02  0.7816164E-02  0.1300439E+00
        -11   -1    0    0    0    0  0.00000000000E+00  0.00000000000E+00  0.45593999997E+02  0.45594000000E+02  0.51100000000E-03 0.  1.
         11   -1    0    0    0    0 -0.00000000000E+00 -0.00000000000E+00 -0.45593999997E+02  0.45594000000E+02  0.51100000000E-03 0. -1.
    9900012    2    1    2    0    0 -0.30979268031E+02  0.58824558617E+01  0.25668021412E+02  0.50528860094E+02  0.30000000741E+02 0.  0.
         12    1    1    2    0    0  0.30979268031E+02 -0.58824558617E+01 -0.25668021412E+02  0.40659139906E+02  0.00000000000E+00 0. -1.
         11    1    3    3    0    0 -0.21764905405E+02 -0.60079086750E+01  0.13732604183E+02  0.26427078760E+02  0.51100000000E-03 0.  1.
        -11    1    3    3    0    0 -0.10198607641E+02  0.15140377731E+01  0.42508891052E+01  0.11152307682E+02  0.51100000000E-03 0. -1.
        -12    1    3    3    0    0  0.98424501425E+00  0.10376326764E+02  0.76845281237E+01  0.12949473651E+02  0.00000000000E+00 0.  1.
</event>
<event>
 7    1  0.3331850E-011  0.5052885E+02  0.7816164E-02  0.1300439E+00
        -11   -1    0    0    0    0  0.00000000000E+00  0.00000000000E+00  0.45593999997E+02  0.45594000000E+02  0.51100000000E-03 0.  1.
         11   -1    0    0    0    0 -0.00000000000E+00 -0.00000000000E+00 -0.45593999997E+02  0.45594000000E+02  0.51100000000E-03 0. -1.
    9900012    2    1    2    0    0 -0.99698540659E+01 -0.34379468846E+02  0.19282654569E+02  0.50528848073E+02  0.29999964201E+02 0.  0.
         12    1    1    2    0    0  0.99698540659E+01  0.34379468846E+02 -0.19282654569E+02  0.40659151927E+02  0.00000000000E+00 0. -1.
         11    1    3    3    0    0  0.28966561873E+01 -0.16862368565E+02  0.17532601382E+01  0.17198953808E+02  0.51100000000E-03 0.  1.
        -11    1    3    3    0    0 -0.86664353485E+01 -0.49772523754E+01 -0.15519832619E+01  0.10113792324E+02  0.51100000000E-03 0. -1.
         12    1    3    3    0    0 -0.42000749046E+01 -0.12539847905E+02  0.19081377693E+02  0.23216101941E+02  0.00000000000E+00 0. -1.
</event>
<event>
 7    1  0.3331850E-011  0.5052882E+02  0.7816164E-02  0.1300439E+00
        -11   -1    0    0    0    0  0.00000000000E+00  0.00000000000E+00  0.45593999997E+02  0.45594000000E+02  0.51100000000E-03 0.  1.
         11   -1    0    0    0    0 -0.00000000000E+00 -0.00000000000E+00 -0.45593999997E+02  0.45594000000E+02  0.51100000000E-03 0. -1.
    9900012    2    1    2    0    0 -0.35087189406E+02 -0.19436623041E+02 -0.66540065097E+01  0.50528819262E+02  0.29999876629E+02 0.  0.
         12    1    1    2    0    0  0.35087189406E+02  0.19436623041E+02  0.66540065097E+01  0.40659180738E+02  0.00000000000E+00 0. -1.
         11    1    3    3    0    0 -0.15233424635E+02 -0.58707150842E+00 -0.86583983269E+01  0.17531963407E+02  0.51100000000E-03 0. -1.
        -11    1    3    3    0    0 -0.12911899306E+02 -0.21619947940E+01 -0.44162026304E+01  0.13816447123E+02  0.51100000000E-03 0.  1.
         12    1    3    3    0    0 -0.69418654650E+01 -0.16687556739E+02  0.64205944477E+01  0.19180408731E+02  0.00000000000E+00 0. -1.
</event>
<event>
 7    1  0.3331850E-011  0.5052886E+02  0.7816164E-02  0.1300439E+00
        -11   -1    0    0    0    0  0.00000000000E+00  0.00000000000E+00  0.45593999997E+02  0.45594000000E+02  0.51100000000E-03 0.  1.
         11   -1    0    0    0    0 -0.00000000000E+00 -0.00000000000E+00 -0.45593999997E+02  0.45594000000E+02  0.51100000000E-03 0. -1.
    9900012    2    1    2    0    0 -0.34178265532E+02  0.18621092653E+02  0.11758679354E+02  0.50528862447E+02  0.30000007894E+02 0.  0.
         12    1    1    2    0    0  0.34178265532E+02 -0.18621092653E+02 -0.11758679354E+02  0.40659137553E+02  0.00000000000E+00 0. -1.
         11    1    3    3    0    0 -0.33988558357E+01 -0.26933586000E+01  0.33497378563E+01  0.54797030492E+01  0.51100000000E-03 0. -1.
        -11    1    3    3    0    0 -0.14109989126E+02 -0.14567541881E+01 -0.31878472675E+01  0.14538785932E+02  0.51100000000E-03 0.  1.
        -12    1    3    3    0    0 -0.16669420571E+02  0.22771205441E+02  0.11596788765E+02  0.30510373466E+02  0.00000000000E+00 0.  1.
</event>
<event>
 7    1  0.3331850E-011  0.5052886E+02  0.7816164E-02  0.1300439E+00
        -11   -1    0    0    0    0  0.00000000000E+00  0.00000000000E+00  0.45593999997E+02  0.45594000000E+02  0.51100000000E-03 0. -1.
         11   -1    0    0    0    0 -0.00000000000E+00 -0.00000000000E+00 -0.45593999997E+02  0.45594000000E+02  0.51100000000E-03 0.  1.
    9900012    2    1    2    0    0  0.34102924523E+02  0.54412002346E+01 -0.21460416228E+02  0.50528860982E+02  0.30000003439E+02 0.  0.
         12    1    1    2    0    0 -0.34102924523E+02 -0.54412002346E+01  0.21460416228E+02  0.40659139018E+02  0.00000000000E+00 0. -1.
         11    1    3    3    0    0  0.86540043270E+01  0.11502304562E+02 -0.46709360586E+01  0.15133157141E+02  0.51100000000E-03 0. -1.
        -11    1    3    3    0    0  0.31108784786E+01  0.59708312923E+00  0.33360114970E+01  0.46003310904E+01  0.51100000000E-03 0.  1.
        -12    1    3    3    0    0  0.22338041718E+02 -0.66581874569E+01 -0.20125491666E+02  0.30795372750E+02  0.00000000000E+00 0.  1.
</event>
<event>
 7    1  0.3331850E-011  0.5052886E+02  0.7816164E-02  0.1300439E+00
        -11   -1    0    0    0    0  0.00000000000E+00  0.00000000000E+00  0.45593999997E+02  0.45594000000E+02  0.51100000000E-03 0.  1.
         11   -1    0    0    0    0 -0.00000000000E+00 -0.00000000000E+00 -0.45593999997E+02  0.45594000000E+02  0.51100000000E-03 0. -1.
    9900012    2    1    2    0    0  0.11991879253E+02  0.38499764456E+02  0.52084891446E+01  0.50528863384E+02  0.30000010741E+02 0.  0.
         12    1    1    2    0    0 -0.11991879253E+02 -0.38499764456E+02 -0.52084891446E+01  0.40659136616E+02  0.00000000000E+00 0. -1.
         11    1    3    3    0    0  0.52328480595E+01  0.24389681339E+02 -0.64099852440E+01  0.25755138628E+02  0.51100000000E-03 0. -1.
        -11    1    3    3    0    0  0.11186319700E+02  0.79275879298E+01  0.47017690464E+01  0.14494379298E+02  0.51100000000E-03 0.  1.
        -12    1    3    3    0    0 -0.44272885064E+01  0.61824951874E+01  0.69167053421E+01  0.10279345458E+02  0.00000000000E+00 0.  1.
</event>
<event>
 7    1  0.3331850E-011  0.5052886E+02  0.7816164E-02  0.1300439E+00
        -11   -1    0    0    0    0  0.00000000000E+00  0.00000000000E+00  0.45593999997E+02  0.45594000000E+02  0.51100000000E-03 0. -1.
         11   -1    0    0    0    0 -0.00000000000E+00 -0.00000000000E+00 -0.45593999997E+02  0.45594000000E+02  0.51100000000E-03 0.  1.
    9900012    2    1    2    0    0  0.18450217496E+02 -0.60344381910E+01 -0.35725915609E+02  0.50528855690E+02  0.29999987356E+02 0.  0.
         12    1    1    2    0    0 -0.18450217496E+02  0.60344381910E+01  0.35725915609E+02  0.40659144310E+02  0.00000000000E+00 0. -1.
         11    1    3    3    0    0  0.36292483031E+01 -0.26015679569E+01 -0.98857403011E+01  0.10847463327E+02  0.51100000000E-03 0. -1.
        -11    1    3    3    0    0  0.22701694916E+00  0.42449090739E+01 -0.22446463170E+02  0.22845448099E+02  0.51100000000E-03 0.  1.
         12    1    3    3    0    0  0.14593952244E+02 -0.76777793079E+01 -0.33937121379E+01  0.16835944264E+02  0.00000000000E+00 0. -1.
</event>
<event>
 7    1  0.3331850E-011  0.5052878E+02  0.7816164E-02  0.1300439E+00
        -11   -1    0    0    0    0  0.00000000000E+00  0.00000000000E+00  0.45593999997E+02  0.45594000000E+02  0.51100000000E-03 0.  1.
         11   -1    0    0    0    0 -0.00000000000E+00 -0.00000000000E+00 -0.45593999997E+02  0.45594000000E+02  0.51100000000E-03 0. -1.
    9900012    2    1    2    0    0 -0.11953097507E+02  0.23539232940E+02  0.30922491081E+02  0.50528776175E+02  0.29999745659E+02 0.  0.
         12    1    1    2    0    0  0.11953097507E+02 -0.23539232940E+02 -0.30922491081E+02  0.40659223825E+02  0.00000000000E+00 0. -1.
         11    1    3    3    0    0 -0.90991557195E+01  0.20062988225E+01  0.28204556283E+01  0.97352370277E+01  0.51100000000E-03 0.  1.
        -11    1    3    3    0    0  0.27386392909E+00  0.11318065751E+01 -0.31403160677E+01  0.33492645225E+01  0.51100000000E-03 0. -1.
        -12    1    3    3    0    0 -0.31278057162E+01  0.20401127542E+02  0.31242351521E+02  0.37444274624E+02  0.00000000000E+00 0.  1.
</event>
<event>
 7    1  0.3331850E-011  0.5052886E+02  0.7816164E-02  0.1300439E+00
        -11   -1    0    0    0    0  0.00000000000E+00  0.00000000000E+00  0.45593999997E+02  0.45594000000E+02  0.51100000000E-03 0.  1.
         11   -1    0    0    0    0 -0.00000000000E+00 -0.00000000000E+00 -0.45593999997E+02  0.45594000000E+02  0.51100000000E-03 0. -1.
    9900012    2    1    2    0    0  0.81782222269E+01 -0.51126188179E+01  0.39498649714E+02  0.50528861800E+02  0.30000005927E+02 0.  0.
         12    1    1    2    0    0 -0.81782222269E+01  0.51126188179E+01 -0.39498649714E+02  0.40659138200E+02  0.00000000000E+00 0. -1.
         11    1    3    3    0    0 -0.45927443656E+01 -0.73205021653E+01  0.12126517677E+02  0.14890785204E+02  0.51100000000E-03 0. -1.
        -11    1    3    3    0    0  0.87851994680E+01 -0.79558382662E+01  0.15450889451E+02  0.19473188678E+02  0.51100000000E-03 0.  1.
        -12    1    3    3    0    0  0.39857671245E+01  0.10163721614E+02  0.11921242585E+02  0.16164887918E+02  0.00000000000E+00 0.  1.
</event>
<event>
 7    1  0.3331850E-011  0.5052892E+02  0.7816164E-02  0.1300439E+00
        -11   -1    0    0    0    0  0.00000000000E+00  0.00000000000E+00  0.45593999997E+02  0.45594000000E+02  0.51100000000E-03 0. -1.
         11   -1    0    0    0    0 -0.00000000000E+00 -0.00000000000E+00 -0.45593999997E+02  0.45594000000E+02  0.51100000000E-03 0.  1.
    9900012    2    1    2    0    0  0.34766781658E+02 -0.55575343974E+00 -0.21074224304E+02  0.50528918619E+02  0.30000178634E+02 0.  0.
         12    1    1    2    0    0 -0.34766781658E+02  0.55575343974E+00  0.21074224304E+02  0.40659081381E+02  0.00000000000E+00 0. -1.
         11    1    3    3    0    0 -0.16129562217E+01  0.22729593851E+01 -0.39563250500E+01  0.48394710767E+01  0.51100000000E-03 0. -1.
        -11    1    3    3    0    0  0.64932327544E+01  0.62336554520E+01 -0.10382612151E+02  0.13741148687E+02  0.51100000000E-03 0.  1.
         12    1    3    3    0    0  0.29886505125E+02 -0.90623682768E+01 -0.67352871029E+01  0.31948298855E+02  0.00000000000E+00 0. -1.
</event>
<event>
 7    1  0.3331850E-011  0.5052886E+02  0.7816164E-02  0.1300439E+00
        -11   -1    0    0    0    0  0.00000000000E+00  0.00000000000E+00  0.45593999997E+02  0.45594000000E+02  0.51100000000E-03 0. -1.
         11   -1    0    0    0    0 -0.00000000000E+00 -0.00000000000E+00 -0.45593999997E+02  0.45594000000E+02  0.51100000000E-03 0.  1.
    9900012    2    1    2    0    0 -0.21137157213E+02  0.73268625993E+01 -0.33951480824E+02  0.50528863502E+02  0.30000011100E+02 0.  0.
         12    1    1    2    0    0  0.21137157213E+02 -0.73268625993E+01  0.33951480824E+02  0.40659136498E+02  0.00000000000E+00 0. -1.
         11    1    3    3    0    0 -0.18871428592E+01  0.52982934188E+01  0.13555695582E+01  0.57853945769E+01  0.51100000000E-03 0. -1.
        -11    1    3    3    0    0 -0.35712814538E+01 -0.40433790612E+00  0.20634074994E+01  0.41442962170E+01  0.51100000000E-03 0.  1.
        -12    1    3    3    0    0 -0.15678732900E+02  0.24329070866E+01 -0.37370457882E+02  0.40599172708E+02  0.00000000000E+00 0.  1.
</event>
<event>
 7    1  0.3331850E-011  0.5052886E+02  0.7816164E-02  0.1300439E+00
        -11   -1    0    0    0    0  0.00000000000E+00  0.00000000000E+00  0.45593999997E+02  0.45594000000E+02  0.51100000000E-03 0.  1.
         11   -1    0    0    0    0 -0.00000000000E+00 -0.00000000000E+00 -0.45593999997E+02  0.45594000000E+02  0.51100000000E-03 0. -1.
    9900012    2    1    2    0    0  0.13644373700E+01  0.21781634169E+02  0.34305462395E+02  0.50528855561E+02  0.29999986962E+02 0.  0.
         12    1    1    2    0    0 -0.13644373700E+01 -0.21781634169E+02 -0.34305462395E+02  0.40659144439E+02  0.00000000000E+00 0. -1.
         11    1    3    3    0    0 -0.55991540055E+01  0.16025521379E+01  0.61587074352E+01  0.84763421630E+01  0.51100000000E-03 0. -1.
        -11    1    3    3    0    0  0.31153374336E+01  0.17322117593E+02  0.48334844486E+01  0.18251675468E+02  0.51100000000E-03 0.  1.
         12    1    3    3    0    0  0.38482539419E+01  0.28569644379E+01  0.23313270511E+02  0.23800837929E+02  0.00000000000E+00 0. -1.
</event>
<event>
 7    1  0.3331850E-011  0.5052887E+02  0.7816164E-02  0.1300439E+00
        -11   -1    0    0    0    0  0.00000000000E+00  0.00000000000E+00  0.45593999997E+02  0.45594000000E+02  0.51100000000E-03 0.  1.
         11   -1    0    0    0    0 -0.00000000000E+00 -0.00000000000E+00 -0.45593999997E+02  0.45594000000E+02  0.51100000000E-03 0. -1.
    9900012    2    1    2    0    0 -0.26778128180E+02  0.30463058573E+02  0.28457929309E+01  0.50528872810E+02  0.30000039393E+02 0.  0.
         12    1    1    2    0    0  0.26778128180E+02 -0.30463058573E+02 -0.28457929309E+01  0.40659127190E+02  0.00000000000E+00 0. -1.
         11    1    3    3    0    0 -0.36532879304E+01  0.10759086371E+02  0.21552474073E+01  0.11565013786E+02  0.51100000000E-03 0.  1.
        -11    1    3    3    0    0 -0.13971055881E+02 -0.28581169495E+01  0.27699253534E+01  0.14526930910E+02  0.51100000000E-03 0. -1.
         12    1    3    3    0    0 -0.91537843680E+01  0.22562089152E+02 -0.20793798298E+01  0.24436928114E+02  0.00000000000E+00 0. -1.
</event>
<event>
 7    1  0.3331850E-011  0.5052886E+02  0.7816164E-02  0.1300439E+00
        -11   -1    0    0    0    0  0.00000000000E+00  0.00000000000E+00  0.45593999997E+02  0.45594000000E+02  0.51100000000E-03 0.  1.
         11   -1    0    0    0    0 -0.00000000000E+00 -0.00000000000E+00 -0.45593999997E+02  0.45594000000E+02  0.51100000000E-03 0. -1.
    9900012    2    1    2    0    0  0.12058650599E+02 -0.29711405325E+02  0.24999737087E+02  0.50528861850E+02  0.30000006080E+02 0.  0.
         12    1    1    2    0    0 -0.12058650599E+02  0.29711405325E+02 -0.24999737087E+02  0.40659138150E+02  0.00000000000E+00 0. -1.
         11    1    3    3    0    0 -0.14693725860E+01  0.48378451434E+00 -0.78846858188E+00  0.17363139747E+01  0.51100000000E-03 0. -1.
        -11    1    3    3    0    0  0.11417778010E+02 -0.14124724494E+02 -0.20071143731E+00  0.18163528899E+02  0.51100000000E-03 0.  1.
        -12    1    3    3    0    0  0.21102451747E+01 -0.16070465345E+02  0.25988917106E+02  0.30629018977E+02  0.00000000000E+00 0.  1.
</event>
<event>
 7    1  0.3331850E-011  0.5052889E+02  0.7816164E-02  0.1300439E+00
        -11   -1    0    0    0    0  0.00000000000E+00  0.00000000000E+00  0.45593999997E+02  0.45594000000E+02  0.51100000000E-03 0.  1.
         11   -1    0    0    0    0 -0.00000000000E+00 -0.00000000000E+00 -0.45593999997E+02  0.45594000000E+02  0.51100000000E-03 0. -1.
    9900012    2    1    2    0    0  0.33168821491E+02  0.61908329242E+01  0.22686254076E+02  0.50528889638E+02  0.30000090544E+02 0.  0.
         12    1    1    2    0    0 -0.33168821491E+02 -0.61908329242E+01 -0.22686254076E+02  0.40659110362E+02  0.00000000000E+00 0. -1.
         11    1    3    3    0    0  0.10558372182E+02 -0.84321675244E+01  0.63316473298E+01  0.14922145638E+02  0.51100000000E-03 0. -1.
        -11    1    3    3    0    0  0.18007878005E+01  0.33260494950E+01  0.10578156022E+02  0.11234003162E+02  0.51100000000E-03 0.  1.
         12    1    3    3    0    0  0.20809661509E+02  0.11296950954E+02  0.57764507236E+01  0.24372740838E+02  0.00000000000E+00 0. -1.
</event>
<event>
 7    1  0.3331850E-011  0.5052873E+02  0.7816164E-02  0.1300439E+00
        -11   -1    0    0    0    0  0.00000000000E+00  0.00000000000E+00  0.45593999997E+02  0.45594000000E+02  0.51100000000E-03 0.  1.
         11   -1    0    0    0    0 -0.00000000000E+00 -0.00000000000E+00 -0.45593999997E+02  0.45594000000E+02  0.51100000000E-03 0. -1.
    9900012    2    1    2    0    0 -0.11164149349E+02  0.32830410905E+02 -0.21229751151E+02  0.50528727443E+02  0.29999597534E+02 0.  0.
         12    1    1    2    0    0  0.11164149349E+02 -0.32830410905E+02  0.21229751151E+02  0.40659272557E+02  0.00000000000E+00 0. -1.
         11    1    3    3    0    0 -0.89105735492E+01  0.67737443125E+01 -0.23988003268E+01  0.11447103400E+02  0.51100000000E-03 0. -1.
        -11    1    3    3    0    0 -0.52347336637E+01  0.32386738242E+01  0.34450013908E+01  0.70540399426E+01  0.51100000000E-03 0.  1.
         12    1    3    3    0    0  0.29811578639E+01  0.22817992769E+02 -0.22275952215E+02  0.32027584100E+02  0.00000000000E+00 0. -1.
</event>
<event>
 7    1  0.3331850E-011  0.5052887E+02  0.7816164E-02  0.1300439E+00
        -11   -1    0    0    0    0  0.00000000000E+00  0.00000000000E+00  0.45593999997E+02  0.45594000000E+02  0.51100000000E-03 0.  1.
         11   -1    0    0    0    0 -0.00000000000E+00 -0.00000000000E+00 -0.45593999997E+02  0.45594000000E+02  0.51100000000E-03 0. -1.
    9900012    2    1    2    0    0  0.99054992638E+01  0.14320086354E+02  0.36742087853E+02  0.50528870537E+02  0.30000032485E+02 0.  0.
         12    1    1    2    0    0 -0.99054992638E+01 -0.14320086354E+02 -0.36742087853E+02  0.40659129463E+02  0.00000000000E+00 0. -1.
         11    1    3    3    0    0  0.90978116576E+01  0.16373589589E+02  0.71921284020E+01  0.20064678522E+02  0.51100000000E-03 0. -1.
        -11    1    3    3    0    0  0.18829755836E+01  0.22709330084E+01  0.11518903361E+02  0.11890663088E+02  0.51100000000E-03 0.  1.
        -12    1    3    3    0    0 -0.10752879774E+01 -0.43244362433E+01  0.18031056090E+02  0.18573528927E+02  0.00000000000E+00 0.  1.
</event>
<event>
 7    1  0.3331850E-011  0.5052886E+02  0.7816164E-02  0.1300439E+00
        -11   -1    0    0    0    0  0.00000000000E+00  0.00000000000E+00  0.45593999997E+02  0.45594000000E+02  0.51100000000E-03 0.  1.
         11   -1    0    0    0    0 -0.00000000000E+00 -0.00000000000E+00 -0.45593999997E+02  0.45594000000E+02  0.51100000000E-03 0. -1.
    9900012    2    1    2    0    0 -0.18099818163E+02  0.11694326324E+02  0.34479051848E+02  0.50528859551E+02  0.29999999093E+02 0.  0.
         12    1    1    2    0    0  0.18099818163E+02 -0.11694326324E+02 -0.34479051848E+02  0.40659140449E+02  0.00000000000E+00 0. -1.
         11    1    3    3    0    0  0.16103492374E+01  0.37334671584E+01  0.21455441878E+02  0.21837307254E+02  0.51100000000E-03 0. -1.
        -11    1    3    3    0    0  0.10709409320E+00  0.45345207631E+01  0.57087301541E+01  0.72912926103E+01  0.51100000000E-03 0.  1.
        -12    1    3    3    0    0 -0.19817261493E+02  0.34263384022E+01  0.73148798161E+01  0.21400259687E+02  0.00000000000E+00 0.  1.
</event>
<event>
 7    1  0.3331850E-011  0.5052887E+02  0.7816164E-02  0.1300439E+00
        -11   -1    0    0    0    0  0.00000000000E+00  0.00000000000E+00  0.45593999997E+02  0.45594000000E+02  0.51100000000E-03 0.  1.
         11   -1    0    0    0    0 -0.00000000000E+00 -0.00000000000E+00 -0.45593999997E+02  0.45594000000E+02  0.51100000000E-03 0. -1.
    9900012    2    1    2    0    0 -0.21937361818E+02 -0.32199739525E+02  0.11622976849E+02  0.50528872367E+02  0.30000038047E+02 0.  0.
         12    1    1    2    0    0  0.21937361818E+02  0.32199739525E+02 -0.11622976849E+02  0.40659127633E+02  0.00000000000E+00 0. -1.
         11    1    3    3    0    0 -0.10641268347E+01  0.46511942531E+01  0.61673892290E+00  0.48110644415E+01  0.51100000000E-03 0. -1.
        -11    1    3    3    0    0 -0.20278005532E+01 -0.11817484216E+02 -0.12858239805E+01  0.12058949036E+02  0.51100000000E-03 0.  1.
        -12    1    3    3    0    0 -0.18845434430E+02 -0.25033449562E+02  0.12292061907E+02  0.33658858890E+02  0.00000000000E+00 0.  1.
</event>
<event>
 7    1  0.3331850E-011  0.5052886E+02  0.7816164E-02  0.1300439E+00
        -11   -1    0    0    0    0  0.00000000000E+00  0.00000000000E+00  0.45593999997E+02  0.45594000000E+02  0.51100000000E-03 0.  1.
         11   -1    0    0    0    0 -0.00000000000E+00 -0.00000000000E+00 -0.45593999997E+02  0.45594000000E+02  0.51100000000E-03 0. -1.
    9900012    2    1    2    0    0  0.30399639879E+01 -0.25228785886E+02  0.31740085908E+02  0.50528855004E+02  0.29999985270E+02 0.  0.
         12    1    1    2    0    0 -0.30399639879E+01  0.25228785886E+02 -0.31740085908E+02  0.40659144996E+02  0.00000000000E+00 0. -1.
         11    1    3    3    0    0 -0.63083765150E+01 -0.12974576001E+02  0.17533534805E+02  0.22705948113E+02  0.51100000000E-03 0. -1.
        -11    1    3    3    0    0 -0.46583387820E+01  0.56433404279E+00  0.44886977905E+01  0.64936123410E+01  0.51100000000E-03 0.  1.
        -12    1    3    3    0    0  0.14006679285E+02 -0.12818543927E+02  0.97178533126E+01  0.21329294550E+02  0.00000000000E+00 0.  1.
</event>
<event>
 7    1  0.3331850E-011  0.5052886E+02  0.7816164E-02  0.1300439E+00
        -11   -1    0    0    0    0  0.00000000000E+00  0.00000000000E+00  0.45593999997E+02  0.45594000000E+02  0.51100000000E-03 0.  1.
         11   -1    0    0    0    0 -0.00000000000E+00 -0.00000000000E+00 -0.45593999997E+02  0.45594000000E+02  0.51100000000E-03 0. -1.
    9900012    2    1    2    0    0  0.24637200504E+02  0.19024298480E+02 -0.26158179382E+02  0.50528856749E+02  0.29999990574E+02 0.  0.
         12    1    1    2    0    0 -0.24637200504E+02 -0.19024298480E+02  0.26158179382E+02  0.40659143251E+02  0.00000000000E+00 0. -1.
         11    1    3    3    0    0  0.11652211504E+02  0.35534975904E+01 -0.12723228973E+02  0.17614821425E+02  0.51100000000E-03 0. -1.
        -11    1    3    3    0    0  0.96544215023E+01 -0.36791250766E+01 -0.68295899562E+01  0.12384955192E+02  0.51100000000E-03 0.  1.
        -12    1    3    3    0    0  0.33305674976E+01  0.19149925966E+02 -0.66053604524E+01  0.20529080132E+02  0.00000000000E+00 0.  1.
</event>
<event>
 7    1  0.3331850E-011  0.5052890E+02  0.7816164E-02  0.1300439E+00
        -11   -1    0    0    0    0  0.00000000000E+00  0.00000000000E+00  0.45593999997E+02  0.45594000000E+02  0.51100000000E-03 0.  1.
         11   -1    0    0    0    0 -0.00000000000E+00 -0.00000000000E+00 -0.45593999997E+02  0.45594000000E+02  0.51100000000E-03 0. -1.
    9900012    2    1    2    0    0  0.20202979350E+01  0.25263897744E+02  0.31793335231E+02  0.50528901411E+02  0.30000126329E+02 0.  0.
         12    1    1    2    0    0 -0.20202979350E+01 -0.25263897744E+02 -0.31793335231E+02  0.40659098589E+02  0.00000000000E+00 0. -1.
         11    1    3    3    0    0  0.22963289111E+00 -0.37087770294E+01  0.71826835050E+01  0.80869463281E+01  0.51100000000E-03 0. -1.
        -11    1    3    3    0    0  0.58110492243E+01  0.17135660056E+01  0.96863136992E+00  0.61353768046E+01  0.51100000000E-03 0.  1.
        -12    1    3    3    0    0 -0.40203841805E+01  0.27259108767E+02  0.23642020356E+02  0.36306578278E+02  0.00000000000E+00 0.  1.
</event>
<event>
 7    1  0.3331850E-011  0.5052886E+02  0.7816164E-02  0.1300439E+00
        -11   -1    0    0    0    0  0.00000000000E+00  0.00000000000E+00  0.45593999997E+02  0.45594000000E+02  0.51100000000E-03 0.  1.
         11   -1    0    0    0    0 -0.00000000000E+00 -0.00000000000E+00 -0.45593999997E+02  0.45594000000E+02  0.51100000000E-03 0. -1.
    9900012    2    1    2    0    0  0.67183155062E+01  0.60688673059E+01  0.39638345281E+02  0.50528864124E+02  0.30000012991E+02 0.  0.
         12    1    1    2    0    0 -0.67183155062E+01 -0.60688673059E+01 -0.39638345281E+02  0.40659135876E+02  0.00000000000E+00 0. -1.
         11    1    3    3    0    0 -0.24871708143E+01  0.12357008557E+01  0.34293591365E+01  0.44128765689E+01  0.51100000000E-03 0.  1.
        -11    1    3    3    0    0 -0.61906090438E+01 -0.26502310735E+01  0.79394902049E+00  0.67806873091E+01  0.51100000000E-03 0. -1.
        -12    1    3    3    0    0  0.15396095364E+02  0.74833975237E+01  0.35415037124E+02  0.39335300246E+02  0.00000000000E+00 0.  1.
</event>
<event>
 7    1  0.3331850E-011  0.5052887E+02  0.7816164E-02  0.1300439E+00
        -11   -1    0    0    0    0  0.00000000000E+00  0.00000000000E+00  0.45593999997E+02  0.45594000000E+02  0.51100000000E-03 0. -1.
         11   -1    0    0    0    0 -0.00000000000E+00 -0.00000000000E+00 -0.45593999997E+02  0.45594000000E+02  0.51100000000E-03 0.  1.
    9900012    2    1    2    0    0  0.12876026770E+02 -0.38224339148E+02 -0.51256625562E+01  0.50528873284E+02  0.30000040835E+02 0.  0.
         12    1    1    2    0    0 -0.12876026770E+02  0.38224339148E+02  0.51256625562E+01  0.40659126716E+02  0.00000000000E+00 0. -1.
         11    1    3    3    0    0 -0.18467411825E+01 -0.50894008148E+01 -0.58548189223E+01  0.79744190085E+01  0.51100000000E-03 0. -1.
        -11    1    3    3    0    0  0.57860215716E+01 -0.25629855340E+02 -0.85649628154E+01  0.27635595138E+02  0.51100000000E-03 0.  1.
         12    1    3    3    0    0  0.89367463806E+01 -0.75050829932E+01  0.92941191816E+01  0.14918859138E+02  0.00000000000E+00 0. -1.
</event>
<event>
 7    1  0.3331850E-011  0.5052887E+02  0.7816164E-02  0.1300439E+00
        -11   -1    0    0    0    0  0.00000000000E+00  0.00000000000E+00  0.45593999997E+02  0.45594000000E+02  0.51100000000E-03 0.  1.
         11   -1    0    0    0    0 -0.00000000000E+00 -0.00000000000E+00 -0.45593999997E+02  0.45594000000E+02  0.51100000000E-03 0. -1.
    9900012    2    1    2    0    0 -0.41409830656E+01 -0.41107553339E+01  0.40238280003E+02  0.50528865384E+02  0.30000016820E+02 0.  0.
         12    1    1    2    0    0  0.41409830656E+01  0.41107553339E+01 -0.40238280003E+02  0.40659134616E+02  0.00000000000E+00 0. -1.
         11    1    3    3    0    0 -0.38412343586E+01 -0.89968921820E+01  0.33385223240E+02  0.34788967811E+02  0.51100000000E-03 0.  1.
        -11    1    3    3    0    0 -0.21738226838E+01 -0.41939360171E+01  0.35061724741E+01  0.58828437048E+01  0.51100000000E-03 0. -1.
         12    1    3    3    0    0  0.18740739768E+01  0.90800728652E+01  0.33468842889E+01  0.98570538677E+01  0.00000000000E+00 0. -1.
</event>
<event>
 7    1  0.3331850E-011  0.5052887E+02  0.7816164E-02  0.1300439E+00
        -11   -1    0    0    0    0  0.00000000000E+00  0.00000000000E+00  0.45593999997E+02  0.45594000000E+02  0.51100000000E-03 0.  1.
         11   -1    0    0    0    0 -0.00000000000E+00 -0.00000000000E+00 -0.45593999997E+02  0.45594000000E+02  0.51100000000E-03 0. -1.
    9900012    2    1    2    0    0 -0.35881506502E+02 -0.15582353832E+02  0.11084797776E+02  0.50528868165E+02  0.30000025275E+02 0.  0.
         12    1    1    2    0    0  0.35881506502E+02  0.15582353832E+02 -0.11084797776E+02  0.40659131835E+02  0.00000000000E+00 0. -1.
         11    1    3    3    0    0 -0.37719841440E+01 -0.11128133405E+02  0.70958075011E+01  0.13726387064E+02  0.51100000000E-03 0. -1.
        -11    1    3    3    0    0 -0.58710060168E+01 -0.36707366922E+00  0.80171674743E+01  0.99437633368E+01  0.51100000000E-03 0.  1.
        -12    1    3    3    0    0 -0.26238516341E+02 -0.40871467579E+01 -0.40281771996E+01  0.26858717765E+02  0.00000000000E+00 0.  1.
</event>
<event>
 7    1  0.3331850E-011  0.5052886E+02  0.7816164E-02  0.1300439E+00
        -11   -1    0    0    0    0  0.00000000000E+00  0.00000000000E+00  0.45593999997E+02  0.45594000000E+02  0.51100000000E-03 0. -1.
         11   -1    0    0    0    0 -0.00000000000E+00 -0.00000000000E+00 -0.45593999997E+02  0.45594000000E+02  0.51100000000E-03 0.  1.
    9900012    2    1    2    0    0 -0.38195268899E+02 -0.13877199467E+02 -0.13078405549E+01  0.50528859844E+02  0.29999999981E+02 0.  0.
         12    1    1    2    0    0  0.38195268899E+02  0.13877199467E+02  0.13078405549E+01  0.40659140156E+02  0.00000000000E+00 0. -1.
         11    1    3    3    0    0 -0.30310365558E+02  0.40422992300E+00  0.22008997312E+01  0.30392854785E+02  0.51100000000E-03 0. -1.
        -11    1    3    3    0    0 -0.92868620750E+01 -0.70294641705E+01  0.63912189619E+00  0.11664803933E+02  0.51100000000E-03 0.  1.
         12    1    3    3    0    0  0.14019587340E+01 -0.72519652194E+01 -0.41478621823E+01  0.84712011261E+01  0.00000000000E+00 0. -1.
</event>
<event>
 7    1  0.3331850E-011  0.5052886E+02  0.7816164E-02  0.1300439E+00
        -11   -1    0    0    0    0  0.00000000000E+00  0.00000000000E+00  0.45593999997E+02  0.45594000000E+02  0.51100000000E-03 0.  1.
         11   -1    0    0    0    0 -0.00000000000E+00 -0.00000000000E+00 -0.45593999997E+02  0.45594000000E+02  0.51100000000E-03 0. -1.
    9900012    2    1    2    0    0 -0.33707671948E-01 -0.31137780716E+01  0.40539720435E+02  0.50528859784E+02  0.29999999801E+02 0.  0.
         12    1    1    2    0    0  0.33707671948E-01  0.31137780716E+01 -0.40539720435E+02  0.40659140216E+02  0.00000000000E+00 0. -1.
         11    1    3    3    0    0 -0.60683582781E+01  0.41243132835E+01  0.11915814721E+02  0.13993626156E+02  0.51100000000E-03 0. -1.
        -11    1    3    3    0    0  0.73678290824E+01 -0.30852077268E+01  0.42285651059E+00  0.79988886725E+01  0.51100000000E-03 0.  1.
         12    1    3    3    0    0 -0.13331784763E+01 -0.41528836283E+01  0.28201049204E+02  0.28536344956E+02  0.00000000000E+00 0. -1.
</event>
<event>
 7    1  0.3331850E-011  0.5052885E+02  0.7816164E-02  0.1300439E+00
        -11   -1    0    0    0    0  0.00000000000E+00  0.00000000000E+00  0.45593999997E+02  0.45594000000E+02  0.51100000000E-03 0. -1.
         11   -1    0    0    0    0 -0.00000000000E+00 -0.00000000000E+00 -0.45593999997E+02  0.45594000000E+02  0.51100000000E-03 0.  1.
    9900012    2    1    2    0    0  0.17706359692E+02 -0.24938962058E+00 -0.36600403040E+02  0.50528845171E+02  0.29999955382E+02 0.  0.
         12    1    1    2    0    0 -0.17706359692E+02  0.24938962058E+00  0.36600403040E+02  0.40659154829E+02  0.00000000000E+00 0. -1.
         11    1    3    3    0    0  0.17652622787E+02  0.14884013335E+01 -0.19242469433E+02  0.26155363885E+02  0.51100000000E-03 0. -1.
        -11    1    3    3    0    0  0.70553365071E+01  0.20534897126E+01 -0.29625180830E+01  0.79228219014E+01  0.51100000000E-03 0.  1.
         12    1    3    3    0    0 -0.70015996027E+01 -0.37912806667E+01 -0.14395415524E+02  0.16450659385E+02  0.00000000000E+00 0. -1.
</event>
<event>
 7    1  0.3331850E-011  0.5052886E+02  0.7816164E-02  0.1300439E+00
        -11   -1    0    0    0    0  0.00000000000E+00  0.00000000000E+00  0.45593999997E+02  0.45594000000E+02  0.51100000000E-03 0.  1.
         11   -1    0    0    0    0 -0.00000000000E+00 -0.00000000000E+00 -0.45593999997E+02  0.45594000000E+02  0.51100000000E-03 0. -1.
    9900012    2    1    2    0    0  0.12468134456E+02 -0.38443922007E+02  0.44470508732E+01  0.50528858622E+02  0.29999996268E+02 0.  0.
         12    1    1    2    0    0 -0.12468134456E+02  0.38443922007E+02 -0.44470508732E+01  0.40659141378E+02  0.00000000000E+00 0. -1.
         11    1    3    3    0    0  0.17308837749E+01 -0.10340188891E+02  0.20935509428E+01  0.10691043951E+02  0.51100000000E-03 0. -1.
        -11    1    3    3    0    0 -0.19137074082E+01 -0.16075441303E+02  0.11758900055E+02  0.20008843542E+02  0.51100000000E-03 0.  1.
         12    1    3    3    0    0  0.12650958090E+02 -0.12028291813E+02 -0.94054001250E+01  0.19828971129E+02  0.00000000000E+00 0. -1.
</event>
<event>
 7    1  0.3331850E-011  0.5052886E+02  0.7816164E-02  0.1300439E+00
        -11   -1    0    0    0    0  0.00000000000E+00  0.00000000000E+00  0.45593999997E+02  0.45594000000E+02  0.51100000000E-03 0.  1.
         11   -1    0    0    0    0 -0.00000000000E+00 -0.00000000000E+00 -0.45593999997E+02  0.45594000000E+02  0.51100000000E-03 0. -1.
    9900012    2    1    2    0    0 -0.21209919252E+02  0.15839855706E+02  0.30861037390E+02  0.50528864099E+02  0.30000012914E+02 0.  0.
         12    1    1    2    0    0  0.21209919252E+02 -0.15839855706E+02 -0.30861037390E+02  0.40659135901E+02  0.00000000000E+00 0. -1.
         11    1    3    3    0    0  0.28619822048E+00 -0.30908584730E+01  0.34075759592E+01  0.46094348569E+01  0.51100000000E-03 0. -1.
        -11    1    3    3    0    0 -0.14983038689E+01 -0.73570153861E+00  0.15234352370E+02  0.15325523275E+02  0.51100000000E-03 0.  1.
        -12    1    3    3    0    0 -0.19997813603E+02  0.19666415718E+02  0.12219109060E+02  0.30593905967E+02  0.00000000000E+00 0.  1.
</event>
<event>
 7    1  0.3331850E-011  0.5052887E+02  0.7816164E-02  0.1300439E+00
        -11   -1    0    0    0    0  0.00000000000E+00  0.00000000000E+00  0.45593999997E+02  0.45594000000E+02  0.51100000000E-03 0.  1.
         11   -1    0    0    0    0 -0.00000000000E+00 -0.00000000000E+00 -0.45593999997E+02  0.45594000000E+02  0.51100000000E-03 0. -1.
    9900012    2    1    2    0    0  0.40104588367E+02 -0.16098861357E+01  0.64958031843E+01  0.50528865719E+02  0.30000017839E+02 0.  0.
         12    1    1    2    0    0 -0.40104588367E+02  0.16098861357E+01 -0.64958031843E+01  0.40659134281E+02  0.00000000000E+00 0. -1.
         11    1    3    3    0    0  0.18902879156E+01  0.27074222004E+01 -0.50151701375E+01  0.60046028299E+01  0.51100000000E-03 0. -1.
        -11    1    3    3    0    0 -0.99098294332E+00 -0.28736021778E+01 -0.12245355711E+01  0.32770603132E+01  0.51100000000E-03 0.  1.
        -12    1    3    3    0    0  0.39205283395E+02 -0.14437061583E+01  0.12735508893E+02  0.41247202576E+02  0.00000000000E+00 0.  1.
</event>
<event>
 7    1  0.3331850E-011  0.5052889E+02  0.7816164E-02  0.1300439E+00
        -11   -1    0    0    0    0  0.00000000000E+00  0.00000000000E+00  0.45593999997E+02  0.45594000000E+02  0.51100000000E-03 0.  1.
         11   -1    0    0    0    0 -0.00000000000E+00 -0.00000000000E+00 -0.45593999997E+02  0.45594000000E+02  0.51100000000E-03 0. -1.
    9900012    2    1    2    0    0 -0.13839488401E+02 -0.24663655667E+01  0.38151659762E+02  0.50528886127E+02  0.30000079872E+02 0.  0.
         12    1    1    2    0    0  0.13839488401E+02  0.24663655667E+01 -0.38151659762E+02  0.40659113873E+02  0.00000000000E+00 0. -1.
         11    1    3    3    0    0 -0.42396650030E+01  0.29814355611E+01  0.25403329692E+01  0.57720888073E+01  0.51100000000E-03 0. -1.
        -11    1    3    3    0    0  0.84362570395E+01 -0.14923051033E+01  0.97348481740E+01  0.12967832378E+02  0.51100000000E-03 0.  1.
         12    1    3    3    0    0 -0.18036080438E+02 -0.39554960245E+01  0.25876478619E+02  0.31788964942E+02  0.00000000000E+00 0. -1.
</event>
<event>
 7    1  0.3331850E-011  0.5052886E+02  0.7816164E-02  0.1300439E+00
        -11   -1    0    0    0    0  0.00000000000E+00  0.00000000000E+00  0.45593999997E+02  0.45594000000E+02  0.51100000000E-03 0. -1.
         11   -1    0    0    0    0 -0.00000000000E+00 -0.00000000000E+00 -0.45593999997E+02  0.45594000000E+02  0.51100000000E-03 0.  1.
    9900012    2    1    2    0    0 -0.34843232506E+02 -0.19155551887E+02  0.84958672109E+01  0.50528858602E+02  0.29999996206E+02 0.  0.
         12    1    1    2    0    0  0.34843232506E+02  0.19155551887E+02 -0.84958672109E+01  0.40659141398E+02  0.00000000000E+00 0. -1.
         11    1    3    3    0    0 -0.22814982913E+02 -0.96292551742E+01 -0.53148379061E+01  0.25327722021E+02  0.51100000000E-03 0. -1.
        -11    1    3    3    0    0 -0.90699666397E+01 -0.79155464829E+01  0.11420487677E+01  0.12092330074E+02  0.51100000000E-03 0.  1.
         12    1    3    3    0    0 -0.29582829532E+01 -0.16107502303E+01  0.12668656349E+02  0.13108806507E+02  0.00000000000E+00 0. -1.
</event>
<event>
 7    1  0.3331850E-011  0.5052885E+02  0.7816164E-02  0.1300439E+00
        -11   -1    0    0    0    0  0.00000000000E+00  0.00000000000E+00  0.45593999997E+02  0.45594000000E+02  0.51100000000E-03 0.  1.
         11   -1    0    0    0    0 -0.00000000000E+00 -0.00000000000E+00 -0.45593999997E+02  0.45594000000E+02  0.51100000000E-03 0. -1.
    9900012    2    1    2    0    0  0.94629897500E+01  0.10255003215E+02  0.38189695304E+02  0.50528854739E+02  0.29999984465E+02 0.  0.
         12    1    1    2    0    0 -0.94629897500E+01 -0.10255003215E+02 -0.38189695304E+02  0.40659145261E+02  0.00000000000E+00 0. -1.
         11    1    3    3    0    0  0.34816480028E+01  0.12402717305E+02  0.67140902951E+01  0.14526812386E+02  0.51100000000E-03 0. -1.
        -11    1    3    3    0    0 -0.24680210484E+00  0.19589257397E+01  0.27457865551E+02  0.27528761000E+02  0.51100000000E-03 0.  1.
         12    1    3    3    0    0  0.62281438520E+01 -0.41066398295E+01  0.40177394583E+01  0.84732813528E+01  0.00000000000E+00 0. -1.
</event>
<event>
 7    1  0.3331850E-011  0.5052886E+02  0.7816164E-02  0.1300439E+00
        -11   -1    0    0    0    0  0.00000000000E+00  0.00000000000E+00  0.45593999997E+02  0.45594000000E+02  0.51100000000E-03 0. -1.
         11   -1    0    0    0    0 -0.00000000000E+00 -0.00000000000E+00 -0.45593999997E+02  0.45594000000E+02  0.51100000000E-03 0.  1.
    9900012    2    1    2    0    0  0.36295522588E+02 -0.14709117209E+01  0.18265735292E+02  0.50528860474E+02  0.30000001898E+02 0.  0.
         12    1    1    2    0    0 -0.36295522588E+02  0.14709117209E+01 -0.18265735292E+02  0.40659139526E+02  0.00000000000E+00 0. -1.
         11    1    3    3    0    0 -0.24542288449E+00 -0.82904180929E+00  0.52253371455E+01  0.52963847348E+01  0.51100000000E-03 0. -1.
        -11    1    3    3    0    0  0.95993391176E+01  0.64328730392E+01  0.12978613881E+02  0.17377387190E+02  0.51100000000E-03 0.  1.
        -12    1    3    3    0    0  0.26941606355E+02 -0.70747429508E+01  0.61784265723E-01  0.27855088549E+02  0.00000000000E+00 0.  1.
</event>
<event>
 7    1  0.3331850E-011  0.5052885E+02  0.7816164E-02  0.1300439E+00
        -11   -1    0    0    0    0  0.00000000000E+00  0.00000000000E+00  0.45593999997E+02  0.45594000000E+02  0.51100000000E-03 0. -1.
         11   -1    0    0    0    0 -0.00000000000E+00 -0.00000000000E+00 -0.45593999997E+02  0.45594000000E+02  0.51100000000E-03 0.  1.
    9900012    2    1    2    0    0 -0.20931144988E+02 -0.20853616959E+02 -0.27931710731E+02  0.50528848076E+02  0.29999964212E+02 0.  0.
         12    1    1    2    0    0  0.20931144988E+02  0.20853616959E+02  0.27931710731E+02  0.40659151924E+02  0.00000000000E+00 0. -1.
         11    1    3    3    0    0  0.26940225846E+00 -0.11496777615E+02 -0.25390630265E+00  0.11502736273E+02  0.51100000000E-03 0. -1.
        -11    1    3    3    0    0 -0.36074755740E+01 -0.28287250494E+01  0.10590299121E+01  0.47050090370E+01  0.51100000000E-03 0.  1.
         12    1    3    3    0    0 -0.17593071673E+02 -0.65281142947E+01 -0.28736834341E+02  0.34321102766E+02  0.00000000000E+00 0. -1.
</event>
<event>
 7    1  0.3331850E-011  0.5052885E+02  0.7816164E-02  0.1300439E+00
        -11   -1    0    0    0    0  0.00000000000E+00  0.00000000000E+00  0.45593999997E+02  0.45594000000E+02  0.51100000000E-03 0. -1.
         11   -1    0    0    0    0 -0.00000000000E+00 -0.00000000000E+00 -0.45593999997E+02  0.45594000000E+02  0.51100000000E-03 0.  1.
    9900012    2    1    2    0    0 -0.38639914941E+02  0.12640153556E+02  0.59143148601E+00  0.50528852200E+02  0.29999976748E+02 0.  0.
         12    1    1    2    0    0  0.38639914941E+02 -0.12640153556E+02 -0.59143148601E+00  0.40659147800E+02  0.00000000000E+00 0. -1.
         11    1    3    3    0    0 -0.70906582834E+01  0.65256687578E+01  0.97813563709E+01  0.13730867429E+02  0.51100000000E-03 0. -1.
        -11    1    3    3    0    0 -0.13966376647E+02 -0.43346579149E+01 -0.66381150769E+00  0.14638633197E+02  0.51100000000E-03 0.  1.
        -12    1    3    3    0    0 -0.17582880011E+02  0.10449142713E+02 -0.85261133772E+01  0.22159351575E+02  0.00000000000E+00 0.  1.
</event>
<event>
 7    1  0.3331850E-011  0.5052887E+02  0.7816164E-02  0.1300439E+00
        -11   -1    0    0    0    0  0.00000000000E+00  0.00000000000E+00  0.45593999997E+02  0.45594000000E+02  0.51100000000E-03 0.  1.
         11   -1    0    0    0    0 -0.00000000000E+00 -0.00000000000E+00 -0.45593999997E+02  0.45594000000E+02  0.51100000000E-03 0. -1.
    9900012    2    1    2    0    0  0.11832771345E+02  0.59483728613E+01  0.38441736349E+02  0.50528871739E+02  0.30000036139E+02 0.  0.
         12    1    1    2    0    0 -0.11832771345E+02 -0.59483728613E+01 -0.38441736349E+02  0.40659128261E+02  0.00000000000E+00 0. -1.
         11    1    3    3    0    0  0.19856013389E+01  0.20739723233E+01 -0.28848261499E+01  0.40701592169E+01  0.51100000000E-03 0. -1.
        -11    1    3    3    0    0  0.28391975769E+00  0.58074409882E+01  0.23361961709E+01  0.62661626271E+01  0.51100000000E-03 0.  1.
         12    1    3    3    0    0  0.95632502488E+01 -0.19330404502E+01  0.38990366328E+02  0.40192549895E+02  0.00000000000E+00 0. -1.
</event>
<event>
 7    1  0.3331850E-011  0.5052880E+02  0.7816164E-02  0.1300439E+00
        -11   -1    0    0    0    0  0.00000000000E+00  0.00000000000E+00  0.45593999997E+02  0.45594000000E+02  0.51100000000E-03 0. -1.
         11   -1    0    0    0    0 -0.00000000000E+00 -0.00000000000E+00 -0.45593999997E+02  0.45594000000E+02  0.51100000000E-03 0.  1.
    9900012    2    1    2    0    0 -0.20146712755E+01  0.40321334788E+02  0.48271840045E+01  0.50528798768E+02  0.29999814334E+02 0.  0.
         12    1    1    2    0    0  0.20146712755E+01 -0.40321334788E+02 -0.48271840045E+01  0.40659201232E+02  0.00000000000E+00 0. -1.
         11    1    3    3    0    0  0.81850099002E+01  0.97726517840E+01  0.29553828289E+01  0.13085617979E+02  0.51100000000E-03 0. -1.
        -11    1    3    3    0    0  0.55625729100E+01  0.56568697756E+01  0.37596811716E+00  0.79425276407E+01  0.51100000000E-03 0.  1.
         12    1    3    3    0    0 -0.15762254086E+02  0.24891813228E+02  0.14958330584E+01  0.29500653148E+02  0.00000000000E+00 0. -1.
</event>
<event>
 7    1  0.3331850E-011  0.5052886E+02  0.7816164E-02  0.1300439E+00
        -11   -1    0    0    0    0  0.00000000000E+00  0.00000000000E+00  0.45593999997E+02  0.45594000000E+02  0.51100000000E-03 0. -1.
         11   -1    0    0    0    0 -0.00000000000E+00 -0.00000000000E+00 -0.45593999997E+02  0.45594000000E+02  0.51100000000E-03 0.  1.
    9900012    2    1    2    0    0  0.17915993695E+02  0.29608438318E+02 -0.21342986125E+02  0.50528861957E+02  0.30000006404E+02 0.  0.
         12    1    1    2    0    0 -0.17915993695E+02 -0.29608438318E+02  0.21342986125E+02  0.40659138043E+02  0.00000000000E+00 0. -1.
         11    1    3    3    0    0 -0.25612283998E+01  0.16120057686E+02 -0.14697349685E+02  0.21964249105E+02  0.51100000000E-03 0.  1.
        -11    1    3    3    0    0 -0.71392643789E+00  0.47350525495E+01 -0.42214294889E+00  0.48071424502E+01  0.51100000000E-03 0. -1.
        -12    1    3    3    0    0  0.21191148532E+02  0.87533280823E+01 -0.62234934904E+01  0.23757470401E+02  0.00000000000E+00 0.  1.
</event>
<event>
 7    1  0.3331850E-011  0.5052887E+02  0.7816164E-02  0.1300439E+00
        -11   -1    0    0    0    0  0.00000000000E+00  0.00000000000E+00  0.45593999997E+02  0.45594000000E+02  0.51100000000E-03 0.  1.
         11   -1    0    0    0    0 -0.00000000000E+00 -0.00000000000E+00 -0.45593999997E+02  0.45594000000E+02  0.51100000000E-03 0. -1.
    9900012    2    1    2    0    0  0.23339127956E+02  0.28753957591E+02  0.16782736120E+02  0.50528865693E+02  0.30000017760E+02 0.  0.
         12    1    1    2    0    0 -0.23339127956E+02 -0.28753957591E+02 -0.16782736120E+02  0.40659134307E+02  0.00000000000E+00 0. -1.
         11    1    3    3    0    0 -0.32340386128E+01  0.80346181585E+01  0.11447608999E+01  0.87363935627E+01  0.51100000000E-03 0. -1.
        -11    1    3    3    0    0  0.11438966921E+02 -0.36563096377E+00 -0.89060632789E-01  0.11445155406E+02  0.51100000000E-03 0.  1.
        -12    1    3    3    0    0  0.15134199649E+02  0.21084970396E+02  0.15727035853E+02  0.30347316724E+02  0.00000000000E+00 0.  1.
</event>
<event>
 7    1  0.3331850E-011  0.5052886E+02  0.7816164E-02  0.1300439E+00
        -11   -1    0    0    0    0  0.00000000000E+00  0.00000000000E+00  0.45593999997E+02  0.45594000000E+02  0.51100000000E-03 0. -1.
         11   -1    0    0    0    0 -0.00000000000E+00 -0.00000000000E+00 -0.45593999997E+02  0.45594000000E+02  0.51100000000E-03 0.  1.
    9900012    2    1    2    0    0  0.38804866865E+02  0.12094026633E+02 -0.10404421565E+01  0.50528859668E+02  0.29999999448E+02 0.  0.
         12    1    1    2    0    0 -0.38804866865E+02 -0.12094026633E+02  0.10404421565E+01  0.40659140332E+02  0.00000000000E+00 0. -1.
         11    1    3    3    0    0  0.95278537423E+01  0.24257380617E+00 -0.24532035836E+01  0.98415977905E+01  0.51100000000E-03 0. -1.
        -11    1    3    3    0    0  0.14622574166E+02  0.51564291654E+01 -0.12093406299E+02  0.19663644453E+02  0.51100000000E-03 0.  1.
        -12    1    3    3    0    0  0.14654438957E+02  0.66950236617E+01  0.13506167727E+02  0.21023617425E+02  0.00000000000E+00 0.  1.
</event>
<event>
 7    1  0.3331850E-011  0.5052886E+02  0.7816164E-02  0.1300439E+00
        -11   -1    0    0    0    0  0.00000000000E+00  0.00000000000E+00  0.45593999997E+02  0.45594000000E+02  0.51100000000E-03 0. -1.
         11   -1    0    0    0    0 -0.00000000000E+00 -0.00000000000E+00 -0.45593999997E+02  0.45594000000E+02  0.51100000000E-03 0.  1.
    9900012    2    1    2    0    0  0.54762671260E+01  0.22686267257E+02 -0.33294286522E+02  0.50528859100E+02  0.29999997721E+02 0.  0.
         12    1    1    2    0    0 -0.54762671260E+01 -0.22686267257E+02  0.33294286522E+02  0.40659140900E+02  0.00000000000E+00 0. -1.
         11    1    3    3    0    0 -0.10247252931E+02  0.74897449919E+01 -0.72503702155E+01  0.14617466990E+02  0.51100000000E-03 0.  1.
        -11    1    3    3    0    0 -0.13483085412E+01 -0.57680769088E+00 -0.12576409900E+01  0.19319172227E+01  0.51100000000E-03 0. -1.
        -12    1    3    3    0    0  0.17071828598E+02  0.15773329956E+02 -0.24786275317E+02  0.33979474888E+02  0.00000000000E+00 0.  1.
</event>
<event>
 7    1  0.3331850E-011  0.5052881E+02  0.7816164E-02  0.1300439E+00
        -11   -1    0    0    0    0  0.00000000000E+00  0.00000000000E+00  0.45593999997E+02  0.45594000000E+02  0.51100000000E-03 0.  1.
         11   -1    0    0    0    0 -0.00000000000E+00 -0.00000000000E+00 -0.45593999997E+02  0.45594000000E+02  0.51100000000E-03 0. -1.
    9900012    2    1    2    0    0 -0.27088884846E+02  0.14597710096E+02  0.26575723554E+02  0.50528807870E+02  0.29999842001E+02 0.  0.
         12    1    1    2    0    0  0.27088884846E+02 -0.14597710096E+02 -0.26575723554E+02  0.40659192130E+02  0.00000000000E+00 0. -1.
         11    1    3    3    0    0 -0.12075799305E+02  0.14172000707E+02  0.39784434479E+01  0.19039394565E+02  0.51100000000E-03 0.  1.
        -11    1    3    3    0    0 -0.28434260589E+01  0.72085450367E+01  0.58786441065E+01  0.97265949895E+01  0.51100000000E-03 0. -1.
        -12    1    3    3    0    0 -0.12169659482E+02 -0.67828356474E+01  0.16718636000E+02  0.21762818315E+02  0.00000000000E+00 0.  1.
</event>
<event>
 7    1  0.3331850E-011  0.5052887E+02  0.7816164E-02  0.1300439E+00
        -11   -1    0    0    0    0  0.00000000000E+00  0.00000000000E+00  0.45593999997E+02  0.45594000000E+02  0.51100000000E-03 0.  1.
         11   -1    0    0    0    0 -0.00000000000E+00 -0.00000000000E+00 -0.45593999997E+02  0.45594000000E+02  0.51100000000E-03 0. -1.
    9900012    2    1    2    0    0 -0.16658507807E+02 -0.25223568608E+02 -0.27192468803E+02  0.50528872423E+02  0.30000038217E+02 0.  0.
         12    1    1    2    0    0  0.16658507807E+02  0.25223568608E+02  0.27192468803E+02  0.40659127577E+02  0.00000000000E+00 0. -1.
         11    1    3    3    0    0 -0.90050428924E+01 -0.12900824869E+02 -0.99152846178E+01  0.18596638113E+02  0.51100000000E-03 0. -1.
        -11    1    3    3    0    0 -0.12229744951E+02 -0.15588820059E+02 -0.86150992570E+01  0.21605506425E+02  0.51100000000E-03 0.  1.
         12    1    3    3    0    0  0.45762800364E+01  0.32660763200E+01 -0.86620849286E+01  0.10326727885E+02  0.00000000000E+00 0. -1.
</event>
<event>
 7    1  0.3331850E-011  0.5052888E+02  0.7816164E-02  0.1300439E+00
        -11   -1    0    0    0    0  0.00000000000E+00  0.00000000000E+00  0.45593999997E+02  0.45594000000E+02  0.51100000000E-03 0.  1.
         11   -1    0    0    0    0 -0.00000000000E+00 -0.00000000000E+00 -0.45593999997E+02  0.45594000000E+02  0.51100000000E-03 0. -1.
    9900012    2    1    2    0    0 -0.14512712710E+02  0.37412993465E+02 -0.65431592315E+01  0.50528882414E+02  0.30000068584E+02 0.  0.
         12    1    1    2    0    0  0.14512712710E+02 -0.37412993465E+02  0.65431592315E+01  0.40659117586E+02  0.00000000000E+00 0. -1.
         11    1    3    3    0    0 -0.14679889610E+01 -0.22258624153E+01 -0.11474435716E+01  0.29027714503E+01  0.51100000000E-03 0. -1.
        -11    1    3    3    0    0 -0.14104508435E+01  0.22361086143E+02  0.68926811484E+01  0.23441770385E+02  0.51100000000E-03 0.  1.
         12    1    3    3    0    0 -0.11634272905E+02  0.17277769736E+02 -0.12288396808E+02  0.24184340579E+02  0.00000000000E+00 0. -1.
</event>
<event>
 7    1  0.3331850E-011  0.5052886E+02  0.7816164E-02  0.1300439E+00
        -11   -1    0    0    0    0  0.00000000000E+00  0.00000000000E+00  0.45593999997E+02  0.45594000000E+02  0.51100000000E-03 0.  1.
         11   -1    0    0    0    0 -0.00000000000E+00 -0.00000000000E+00 -0.45593999997E+02  0.45594000000E+02  0.51100000000E-03 0. -1.
    9900012    2    1    2    0    0 -0.20480808409E+02 -0.34994049153E+02  0.30197460010E+01  0.50528857669E+02  0.29999993369E+02 0.  0.
         12    1    1    2    0    0  0.20480808409E+02  0.34994049153E+02 -0.30197460010E+01  0.40659142331E+02  0.00000000000E+00 0. -1.
         11    1    3    3    0    0  0.50807830277E+00 -0.93956232053E+01  0.33943229689E+01  0.10002864972E+02  0.51100000000E-03 0. -1.
        -11    1    3    3    0    0 -0.14157656396E+02 -0.24141472862E+02  0.84845820884E+01  0.29244453834E+02  0.51100000000E-03 0.  1.
         12    1    3    3    0    0 -0.68312303153E+01 -0.14569530862E+01 -0.88591590563E+01  0.11281538862E+02  0.00000000000E+00 0. -1.
</event>
<event>
 7    1  0.3331850E-011  0.5052887E+02  0.7816164E-02  0.1300439E+00
        -11   -1    0    0    0    0  0.00000000000E+00  0.00000000000E+00  0.45593999997E+02  0.45594000000E+02  0.51100000000E-03 0. -1.
         11   -1    0    0    0    0 -0.00000000000E+00 -0.00000000000E+00 -0.45593999997E+02  0.45594000000E+02  0.51100000000E-03 0.  1.
    9900012    2    1    2    0    0  0.13945044886E+02 -0.32370397396E+02 -0.20269640051E+02  0.50528865574E+02  0.30000017399E+02 0.  0.
         12    1    1    2    0    0 -0.13945044886E+02  0.32370397396E+02  0.20269640051E+02  0.40659134426E+02  0.00000000000E+00 0. -1.
         11    1    3    3    0    0  0.55955717581E+01 -0.15709757539E+02  0.48843201400E+01  0.17377096671E+02  0.51100000000E-03 0. -1.
        -11    1    3    3    0    0  0.73948826353E+01 -0.31886785171E+01 -0.84860476375E+01  0.11698930064E+02  0.51100000000E-03 0.  1.
        -12    1    3    3    0    0  0.95459049293E+00 -0.13471961340E+02 -0.16667912554E+02  0.21452838839E+02  0.00000000000E+00 0.  1.
</event>
<event>
 7    1  0.3331850E-011  0.5052886E+02  0.7816164E-02  0.1300439E+00
        -11   -1    0    0    0    0  0.00000000000E+00  0.00000000000E+00  0.45593999997E+02  0.45594000000E+02  0.51100000000E-03 0. -1.
         11   -1    0    0    0    0 -0.00000000000E+00 -0.00000000000E+00 -0.45593999997E+02  0.45594000000E+02  0.51100000000E-03 0.  1.
    9900012    2    1    2    0    0  0.30009096889E+02 -0.97928699781E+01 -0.25626542223E+02  0.50528857550E+02  0.29999993008E+02 0.  0.
         12    1    1    2    0    0 -0.30009096889E+02  0.97928699781E+01  0.25626542223E+02  0.40659142450E+02  0.00000000000E+00 0. -1.
         11    1    3    3    0    0  0.84348134479E+01 -0.19974034037E+00  0.58055396559E+00  0.84571281930E+01  0.51100000000E-03 0. -1.
        -11    1    3    3    0    0  0.19355404300E+02 -0.25114930850E+01 -0.58062022257E+01  0.20362987445E+02  0.51100000000E-03 0.  1.
        -12    1    3    3    0    0  0.22188791411E+01 -0.70816365528E+01 -0.20400893962E+02  0.21708741911E+02  0.00000000000E+00 0.  1.
</event>
<event>
 7    1  0.3963201E-011  0.5052886E+02  0.7816164E-02  0.1300439E+00
        -11   -1    0    0    0    0  0.00000000000E+00  0.00000000000E+00  0.45593999997E+02  0.45594000000E+02  0.51100000000E-03 0. -1.
         11   -1    0    0    0    0 -0.00000000000E+00 -0.00000000000E+00 -0.45593999997E+02  0.45594000000E+02  0.51100000000E-03 0.  1.
    9900012    2    1    2    0    0  0.13994681621E+02  0.44519045548E+01 -0.37914312191E+02  0.50528860354E+02  0.30000001532E+02 0.  0.
         12    1    1    2    0    0 -0.13994681621E+02 -0.44519045548E+01  0.37914312191E+02  0.40659139646E+02  0.00000000000E+00 0. -1.
         11    1    3    3    0    0  0.20695542784E+01  0.75278882214E+00 -0.24287705317E+02  0.24387340482E+02  0.51100000000E-03 0.  1.
        -11    1    3    3    0    0 -0.12150202551E+01  0.82438595039E+01 -0.61353045483E+01  0.10347920366E+02  0.51100000000E-03 0. -1.
         12    1    3    3    0    0  0.13140147598E+02 -0.45447437712E+01 -0.74913023252E+01  0.15793599506E+02  0.00000000000E+00 0. -1.
</event>
<event>
 7    1  0.3331850E-011  0.5052887E+02  0.7816164E-02  0.1300439E+00
        -11   -1    0    0    0    0  0.00000000000E+00  0.00000000000E+00  0.45593999997E+02  0.45594000000E+02  0.51100000000E-03 0.  1.
         11   -1    0    0    0    0 -0.00000000000E+00 -0.00000000000E+00 -0.45593999997E+02  0.45594000000E+02  0.51100000000E-03 0. -1.
    9900012    2    1    2    0    0  0.29514797630E+02  0.85550428039E+01  0.26624290757E+02  0.50528869478E+02  0.30000029265E+02 0.  0.
         12    1    1    2    0    0 -0.29514797630E+02 -0.85550428039E+01 -0.26624290757E+02  0.40659130522E+02  0.00000000000E+00 0. -1.
         11    1    3    3    0    0 -0.24150831744E+01  0.61360934147E+01  0.43280630108E+01  0.78877372433E+01  0.51100000000E-03 0. -1.
        -11    1    3    3    0    0  0.33235203639E+01  0.43589167317E+01  0.10082224980E+02  0.11475940201E+02  0.51100000000E-03 0.  1.
        -12    1    3    3    0    0  0.28606360440E+02 -0.19399673425E+01  0.12214002766E+02  0.31165192034E+02  0.00000000000E+00 0.  1.
</event>
<event>
 7    1  0.3331850E-011  0.5052886E+02  0.7816164E-02  0.1300439E+00
        -11   -1    0    0    0    0  0.00000000000E+00  0.00000000000E+00  0.45593999997E+02  0.45594000000E+02  0.51100000000E-03 0.  1.
         11   -1    0    0    0    0 -0.00000000000E+00 -0.00000000000E+00 -0.45593999997E+02  0.45594000000E+02  0.51100000000E-03 0. -1.
    9900012    2    1    2    0    0 -0.23283818527E+02 -0.28992935425E+02  0.16445025310E+02  0.50528863669E+02  0.30000011607E+02 0.  0.
         12    1    1    2    0    0  0.23283818527E+02  0.28992935425E+02 -0.16445025310E+02  0.40659136331E+02  0.00000000000E+00 0. -1.
         11    1    3    3    0    0 -0.57190748937E+01 -0.10359483608E+02  0.11380448306E+02  0.16417713671E+02  0.51100000000E-03 0. -1.
        -11    1    3    3    0    0 -0.37242256406E+01 -0.16716258334E+02  0.93291046799E+01  0.19502188177E+02  0.51100000000E-03 0.  1.
         12    1    3    3    0    0 -0.13840517993E+02 -0.19171934831E+01 -0.42645276766E+01  0.14608961820E+02  0.00000000000E+00 0. -1.
</event>
<event>
 7    1  0.3331850E-011  0.5052886E+02  0.7816164E-02  0.1300439E+00
        -11   -1    0    0    0    0  0.00000000000E+00  0.00000000000E+00  0.45593999997E+02  0.45594000000E+02  0.51100000000E-03 0. -1.
         11   -1    0    0    0    0 -0.00000000000E+00 -0.00000000000E+00 -0.45593999997E+02  0.45594000000E+02  0.51100000000E-03 0.  1.
    9900012    2    1    2    0    0 -0.10214031438E+02  0.33676127152E+02 -0.20365609308E+02  0.50528855632E+02  0.29999987180E+02 0.  0.
         12    1    1    2    0    0  0.10214031438E+02 -0.33676127152E+02  0.20365609308E+02  0.40659144368E+02  0.00000000000E+00 0. -1.
         11    1    3    3    0    0 -0.43207272743E+00  0.19366424932E+02 -0.13328473771E+02  0.23513683566E+02  0.51100000000E-03 0. -1.
        -11    1    3    3    0    0 -0.73502906794E+01  0.15571022548E+02 -0.12246410872E+02  0.21129555030E+02  0.51100000000E-03 0.  1.
        -12    1    3    3    0    0 -0.24316680313E+01 -0.12613203278E+01  0.52092753351E+01  0.58856170365E+01  0.00000000000E+00 0.  1.
</event>
<event>
 7    1  0.3331850E-011  0.5052886E+02  0.7816164E-02  0.1300439E+00
        -11   -1    0    0    0    0  0.00000000000E+00  0.00000000000E+00  0.45593999997E+02  0.45594000000E+02  0.51100000000E-03 0.  1.
         11   -1    0    0    0    0 -0.00000000000E+00 -0.00000000000E+00 -0.45593999997E+02  0.45594000000E+02  0.51100000000E-03 0. -1.
    9900012    2    1    2    0    0 -0.39035558761E+02 -0.83081326915E+01  0.77695488790E+01  0.50528858268E+02  0.29999995191E+02 0.  0.
         12    1    1    2    0    0  0.39035558761E+02  0.83081326915E+01 -0.77695488790E+01  0.40659141732E+02  0.00000000000E+00 0. -1.
         11    1    3    3    0    0  0.15076308237E+01 -0.36729151383E+01 -0.29795296921E+01  0.49639554552E+01  0.51100000000E-03 0. -1.
        -11    1    3    3    0    0 -0.47836305806E+01 -0.38272830210E+01 -0.35079834843E+01  0.70595442659E+01  0.51100000000E-03 0.  1.
        -12    1    3    3    0    0 -0.35759559004E+02 -0.80793453215E+00  0.14257062055E+02  0.38505358547E+02  0.00000000000E+00 0.  1.
</event>
<event>
 7    1  0.3331850E-011  0.5052890E+02  0.7816164E-02  0.1300439E+00
        -11   -1    0    0    0    0  0.00000000000E+00  0.00000000000E+00  0.45593999997E+02  0.45594000000E+02  0.51100000000E-03 0.  1.
         11   -1    0    0    0    0 -0.00000000000E+00 -0.00000000000E+00 -0.45593999997E+02  0.45594000000E+02  0.51100000000E-03 0. -1.
    9900012    2    1    2    0    0 -0.18526292132E+02 -0.31463656958E+02  0.17887909908E+02  0.50528898556E+02  0.30000117650E+02 0.  0.
         12    1    1    2    0    0  0.18526292132E+02  0.31463656958E+02 -0.17887909908E+02  0.40659101444E+02  0.00000000000E+00 0. -1.
         11    1    3    3    0    0 -0.11080068839E+02 -0.19247512223E+02  0.90751390453E+01  0.23991515192E+02  0.51100000000E-03 0. -1.
        -11    1    3    3    0    0 -0.14103029311E+02 -0.10837643160E+02  0.85492859340E+01  0.19734240174E+02  0.51100000000E-03 0.  1.
         12    1    3    3    0    0  0.66568060177E+01 -0.13785015751E+01  0.26348492913E+00  0.68031431896E+01  0.00000000000E+00 0. -1.
</event>
<event>
 7    1  0.3331850E-011  0.5052886E+02  0.7816164E-02  0.1300439E+00
        -11   -1    0    0    0    0  0.00000000000E+00  0.00000000000E+00  0.45593999997E+02  0.45594000000E+02  0.51100000000E-03 0.  1.
         11   -1    0    0    0    0 -0.00000000000E+00 -0.00000000000E+00 -0.45593999997E+02  0.45594000000E+02  0.51100000000E-03 0. -1.
    9900012    2    1    2    0    0  0.31815492998E+02  0.23728855464E+02  0.88250534925E+01  0.50528859017E+02  0.29999997469E+02 0.  0.
         12    1    1    2    0    0 -0.31815492998E+02 -0.23728855464E+02 -0.88250534925E+01  0.40659140983E+02  0.00000000000E+00 0. -1.
         11    1    3    3    0    0 -0.11919800459E+01  0.24950163510E+00  0.35053399029E+01  0.37108591447E+01  0.51100000000E-03 0. -1.
        -11    1    3    3    0    0  0.50928808198E+01  0.31724700527E+01  0.10320724968E+02  0.11938147486E+02  0.51100000000E-03 0.  1.
         12    1    3    3    0    0  0.27914592224E+02  0.20306883776E+02 -0.50010113780E+01  0.34879852387E+02  0.00000000000E+00 0. -1.
</event>
<event>
 7    1  0.3331850E-011  0.5052893E+02  0.7816164E-02  0.1300439E+00
        -11   -1    0    0    0    0  0.00000000000E+00  0.00000000000E+00  0.45593999997E+02  0.45594000000E+02  0.51100000000E-03 0.  1.
         11   -1    0    0    0    0 -0.00000000000E+00 -0.00000000000E+00 -0.45593999997E+02  0.45594000000E+02  0.51100000000E-03 0. -1.
    9900012    2    1    2    0    0 -0.39404647879E+02  0.60862274465E+01  0.79618665087E+01  0.50528932655E+02  0.30000221299E+02 0.  0.
         12    1    1    2    0    0  0.39404647879E+02 -0.60862274465E+01 -0.79618665087E+01  0.40659067345E+02  0.00000000000E+00 0. -1.
         11    1    3    3    0    0 -0.46986599586E+01 -0.32470851605E+01  0.84617681311E+01  0.10208941552E+02  0.51100000000E-03 0. -1.
        -11    1    3    3    0    0 -0.30715323901E+01  0.47849552865E+01  0.53754384089E+01  0.78246691091E+01  0.51100000000E-03 0.  1.
        -12    1    3    3    0    0 -0.31634455531E+02  0.45483573205E+01 -0.58753400313E+01  0.32495321994E+02  0.00000000000E+00 0.  1.
</event>
<event>
 7    1  0.3331850E-011  0.5052887E+02  0.7816164E-02  0.1300439E+00
        -11   -1    0    0    0    0  0.00000000000E+00  0.00000000000E+00  0.45593999997E+02  0.45594000000E+02  0.51100000000E-03 0. -1.
         11   -1    0    0    0    0 -0.00000000000E+00 -0.00000000000E+00 -0.45593999997E+02  0.45594000000E+02  0.51100000000E-03 0.  1.
    9900012    2    1    2    0    0  0.31435129665E+01 -0.31202359873E+02 -0.25878489271E+02  0.50528866434E+02  0.30000020012E+02 0.  0.
         12    1    1    2    0    0 -0.31435129665E+01  0.31202359873E+02  0.25878489271E+02  0.40659133566E+02  0.00000000000E+00 0. -1.
         11    1    3    3    0    0  0.28938626480E+01 -0.31894595329E+01 -0.21247397818E+02  0.21679460497E+02  0.51100000000E-03 0. -1.
        -11    1    3    3    0    0 -0.30012103954E+00 -0.93324089991E+01 -0.39783144937E+01  0.10149429385E+02  0.51100000000E-03 0.  1.
        -12    1    3    3    0    0  0.54977135805E+00 -0.18680491341E+02 -0.65277695946E+00  0.18699976552E+02  0.00000000000E+00 0.  1.
</event>
<event>
 7    1  0.3331850E-011  0.5052886E+02  0.7816164E-02  0.1300439E+00
        -11   -1    0    0    0    0  0.00000000000E+00  0.00000000000E+00  0.45593999997E+02  0.45594000000E+02  0.51100000000E-03 0. -1.
         11   -1    0    0    0    0 -0.00000000000E+00 -0.00000000000E+00 -0.45593999997E+02  0.45594000000E+02  0.51100000000E-03 0.  1.
    9900012    2    1    2    0    0  0.39411950945E+02 -0.28947404626E+01 -0.95647402815E+01  0.50528860114E+02  0.30000000802E+02 0.  0.
         12    1    1    2    0    0 -0.39411950945E+02  0.28947404626E+01  0.95647402815E+01  0.40659139886E+02  0.00000000000E+00 0. -1.
         11    1    3    3    0    0  0.53779421534E+01 -0.20876719967E+01  0.25227134814E+00  0.57744503864E+01  0.51100000000E-03 0. -1.
        -11    1    3    3    0    0  0.29402581196E+02  0.88854044597E+01 -0.13285865152E+02  0.33466048564E+02  0.51100000000E-03 0.  1.
        -12    1    3    3    0    0  0.46314275958E+01 -0.96924729257E+01  0.34688535227E+01  0.11288361163E+02  0.00000000000E+00 0.  1.
</event>
<event>
 7    1  0.3331850E-011  0.5052886E+02  0.7816164E-02  0.1300439E+00
        -11   -1    0    0    0    0  0.00000000000E+00  0.00000000000E+00  0.45593999997E+02  0.45594000000E+02  0.51100000000E-03 0. -1.
         11   -1    0    0    0    0 -0.00000000000E+00 -0.00000000000E+00 -0.45593999997E+02  0.45594000000E+02  0.51100000000E-03 0.  1.
    9900012    2    1    2    0    0 -0.27021896795E+02 -0.17853305457E+02 -0.24581337783E+02  0.50528860937E+02  0.30000003305E+02 0.  0.
         12    1    1    2    0    0  0.27021896795E+02  0.17853305457E+02  0.24581337783E+02  0.40659139063E+02  0.00000000000E+00 0. -1.
         11    1    3    3    0    0 -0.59603766207E+01 -0.43176150007E+01 -0.61478602203E+01  0.95897901074E+01  0.51100000000E-03 0. -1.
        -11    1    3    3    0    0 -0.19836765670E+02  0.15000622411E+01 -0.16269488139E+02  0.25699099275E+02  0.51100000000E-03 0.  1.
         12    1    3    3    0    0 -0.12247545041E+01 -0.15035752697E+02 -0.21639894238E+01  0.15239971555E+02  0.00000000000E+00 0. -1.
</event>
<event>
 7    1  0.3331850E-011  0.5052886E+02  0.7816164E-02  0.1300439E+00
        -11   -1    0    0    0    0  0.00000000000E+00  0.00000000000E+00  0.45593999997E+02  0.45594000000E+02  0.51100000000E-03 0.  1.
         11   -1    0    0    0    0 -0.00000000000E+00 -0.00000000000E+00 -0.45593999997E+02  0.45594000000E+02  0.51100000000E-03 0. -1.
    9900012    2    1    2    0    0 -0.34794806746E+02  0.20981996600E+02  0.14975873265E+01  0.50528861720E+02  0.30000005685E+02 0.  0.
         12    1    1    2    0    0  0.34794806746E+02 -0.20981996600E+02 -0.14975873265E+01  0.40659138280E+02  0.00000000000E+00 0. -1.
         11    1    3    3    0    0  0.45155216049E+01  0.15672410949E+01 -0.11629755851E+01  0.49192166538E+01  0.51100000000E-03 0. -1.
        -11    1    3    3    0    0 -0.19903944170E+02  0.32172781040E+01  0.26202424188E+01  0.20331835690E+02  0.51100000000E-03 0.  1.
        -12    1    3    3    0    0 -0.19406384181E+02  0.16197477401E+02  0.40320492827E-01  0.25277809377E+02  0.00000000000E+00 0.  1.
</event>
<event>
 7    1  0.3331850E-011  0.5052886E+02  0.7816164E-02  0.1300439E+00
        -11   -1    0    0    0    0  0.00000000000E+00  0.00000000000E+00  0.45593999997E+02  0.45594000000E+02  0.51100000000E-03 0.  1.
         11   -1    0    0    0    0 -0.00000000000E+00 -0.00000000000E+00 -0.45593999997E+02  0.45594000000E+02  0.51100000000E-03 0. -1.
    9900012    2    1    2    0    0 -0.37183324448E+00 -0.26449857828E+02  0.30877699291E+02  0.50528861389E+02  0.30000004679E+02 0.  0.
         12    1    1    2    0    0  0.37183324448E+00  0.26449857828E+02 -0.30877699291E+02  0.40659138611E+02  0.00000000000E+00 0. -1.
         11    1    3    3    0    0  0.28307283348E+01  0.19221361516E+01  0.32730510199E+01  0.47350283559E+01  0.51100000000E-03 0. -1.
        -11    1    3    3    0    0 -0.67522737633E+01 -0.75886200579E+00  0.30429548810E+00  0.68015930872E+01  0.51100000000E-03 0.  1.
        -12    1    3    3    0    0  0.35497121840E+01 -0.27613131974E+02  0.27300352783E+02  0.38992239946E+02  0.00000000000E+00 0.  1.
</event>
<event>
 7    1  0.3331850E-011  0.5052886E+02  0.7816164E-02  0.1300439E+00
        -11   -1    0    0    0    0  0.00000000000E+00  0.00000000000E+00  0.45593999997E+02  0.45594000000E+02  0.51100000000E-03 0.  1.
         11   -1    0    0    0    0 -0.00000000000E+00 -0.00000000000E+00 -0.45593999997E+02  0.45594000000E+02  0.51100000000E-03 0. -1.
    9900012    2    1    2    0    0 -0.33759508589E+02  0.14274131380E+02  0.17598586599E+02  0.50528862071E+02  0.30000006751E+02 0.  0.
         12    1    1    2    0    0  0.33759508589E+02 -0.14274131380E+02 -0.17598586599E+02  0.40659137929E+02  0.00000000000E+00 0. -1.
         11    1    3    3    0    0 -0.19634019511E+02  0.11197488415E+02  0.18165122310E+02  0.28997416053E+02  0.51100000000E-03 0. -1.
        -11    1    3    3    0    0 -0.88167281631E+01  0.19651308468E+01  0.75477223201E+01  0.11771344325E+02  0.51100000000E-03 0.  1.
         12    1    3    3    0    0 -0.53087609150E+01  0.11115121185E+01 -0.81142580314E+01  0.97601016922E+01  0.00000000000E+00 0. -1.
</event>
<event>
 7    1  0.3331850E-011  0.5052885E+02  0.7816164E-02  0.1300439E+00
        -11   -1    0    0    0    0  0.00000000000E+00  0.00000000000E+00  0.45593999997E+02  0.45594000000E+02  0.51100000000E-03 0. -1.
         11   -1    0    0    0    0 -0.00000000000E+00 -0.00000000000E+00 -0.45593999997E+02  0.45594000000E+02  0.51100000000E-03 0.  1.
    9900012    2    1    2    0    0 -0.34002300545E+02 -0.21463412084E+02  0.60276143252E+01  0.50528848077E+02  0.29999964215E+02 0.  0.
         12    1    1    2    0    0  0.34002300545E+02  0.21463412084E+02 -0.60276143252E+01  0.40659151923E+02  0.00000000000E+00 0. -1.
         11    1    3    3    0    0  0.19223792502E+01 -0.59740192994E+01  0.29038240620E+01  0.69149579186E+01  0.51100000000E-03 0. -1.
        -11    1    3    3    0    0 -0.68839060677E+01 -0.50203255730E+01  0.87748988114E+01  0.12230726921E+02  0.51100000000E-03 0.  1.
        -12    1    3    3    0    0 -0.29040773727E+02 -0.10469067211E+02 -0.56511085482E+01  0.31383163237E+02  0.00000000000E+00 0.  1.
</event>
<event>
 7    1  0.3331850E-011  0.5052878E+02  0.7816164E-02  0.1300439E+00
        -11   -1    0    0    0    0  0.00000000000E+00  0.00000000000E+00  0.45593999997E+02  0.45594000000E+02  0.51100000000E-03 0.  1.
         11   -1    0    0    0    0 -0.00000000000E+00 -0.00000000000E+00 -0.45593999997E+02  0.45594000000E+02  0.51100000000E-03 0. -1.
    9900012    2    1    2    0    0 -0.16289836775E+02 -0.18732621581E+02  0.32200969169E+02  0.50528778305E+02  0.29999752134E+02 0.  0.
         12    1    1    2    0    0  0.16289836775E+02  0.18732621581E+02 -0.32200969169E+02  0.40659221695E+02  0.00000000000E+00 0. -1.
         11    1    3    3    0    0  0.38402040571E+01 -0.32586311334E+01 -0.10181695848E+01  0.51383376327E+01  0.51100000000E-03 0. -1.
        -11    1    3    3    0    0  0.21691596565E+01 -0.64125354935E+01  0.58942827963E+01  0.89759921465E+01  0.51100000000E-03 0.  1.
         12    1    3    3    0    0 -0.22299200488E+02 -0.90614549538E+01  0.27324855958E+02  0.36414448525E+02  0.00000000000E+00 0. -1.
</event>
<event>
 7    1  0.3331850E-011  0.5052885E+02  0.7816164E-02  0.1300439E+00
        -11   -1    0    0    0    0  0.00000000000E+00  0.00000000000E+00  0.45593999997E+02  0.45594000000E+02  0.51100000000E-03 0.  1.
         11   -1    0    0    0    0 -0.00000000000E+00 -0.00000000000E+00 -0.45593999997E+02  0.45594000000E+02  0.51100000000E-03 0. -1.
    9900012    2    1    2    0    0 -0.14957330809E+02 -0.13681818329E+02  0.35245603781E+02  0.50528849940E+02  0.29999969879E+02 0.  0.
         12    1    1    2    0    0  0.14957330809E+02  0.13681818329E+02 -0.35245603781E+02  0.40659150060E+02  0.00000000000E+00 0. -1.
         11    1    3    3    0    0  0.67259544916E-01  0.11889885451E+01  0.39852947766E+01  0.41594221143E+01  0.51100000000E-03 0. -1.
        -11    1    3    3    0    0 -0.18668670114E+02 -0.35478633989E+00  0.21619893604E+02  0.28566849964E+02  0.51100000000E-03 0.  1.
         12    1    3    3    0    0  0.36440797601E+01 -0.14516020534E+02  0.96404154000E+01  0.17802577862E+02  0.00000000000E+00 0. -1.
</event>
<event>
 7    1  0.3331850E-011  0.5052885E+02  0.7816164E-02  0.1300439E+00
        -11   -1    0    0    0    0  0.00000000000E+00  0.00000000000E+00  0.45593999997E+02  0.45594000000E+02  0.51100000000E-03 0.  1.
         11   -1    0    0    0    0 -0.00000000000E+00 -0.00000000000E+00 -0.45593999997E+02  0.45594000000E+02  0.51100000000E-03 0. -1.
    9900012    2    1    2    0    0  0.34966363887E+02 -0.18769215382E+02  0.88451284059E+01  0.50528851631E+02  0.29999975018E+02 0.  0.
         12    1    1    2    0    0 -0.34966363887E+02  0.18769215382E+02 -0.88451284059E+01  0.40659148369E+02  0.00000000000E+00 0. -1.
         11    1    3    3    0    0  0.22133889458E+02 -0.75955911680E+01  0.13496021697E+02  0.27013786659E+02  0.51100000000E-03 0. -1.
        -11    1    3    3    0    0  0.79920823739E+01 -0.45253840232E+01  0.53015138631E+01  0.10604646658E+02  0.51100000000E-03 0.  1.
         12    1    3    3    0    0  0.48403920549E+01 -0.66482401910E+01 -0.99524071546E+01  0.12910418314E+02  0.00000000000E+00 0. -1.
</event>
<event>
 7    1  0.3331850E-011  0.5052885E+02  0.7816164E-02  0.1300439E+00
        -11   -1    0    0    0    0  0.00000000000E+00  0.00000000000E+00  0.45593999997E+02  0.45594000000E+02  0.51100000000E-03 0. -1.
         11   -1    0    0    0    0 -0.00000000000E+00 -0.00000000000E+00 -0.45593999997E+02  0.45594000000E+02  0.51100000000E-03 0.  1.
    9900012    2    1    2    0    0 -0.97650634777E+01 -0.39356761866E+02  0.29758282384E+01  0.50528846996E+02  0.29999960928E+02 0.  0.
         12    1    1    2    0    0  0.97650634777E+01  0.39356761866E+02 -0.29758282384E+01  0.40659153004E+02  0.00000000000E+00 0. -1.
         11    1    3    3    0    0 -0.32108088029E+01 -0.78314369862E+00  0.26388380216E+01  0.42291930184E+01  0.51100000000E-03 0. -1.
        -11    1    3    3    0    0  0.17827769026E+01  0.19043419610E+01 -0.39677469013E+01  0.47484552776E+01  0.51100000000E-03 0.  1.
        -12    1    3    3    0    0 -0.83370315774E+01 -0.40477960129E+02  0.43047371181E+01  0.41551198700E+02  0.00000000000E+00 0.  1.
</event>
<event>
 7    1  0.3331850E-011  0.5052886E+02  0.7816164E-02  0.1300439E+00
        -11   -1    0    0    0    0  0.00000000000E+00  0.00000000000E+00  0.45593999997E+02  0.45594000000E+02  0.51100000000E-03 0.  1.
         11   -1    0    0    0    0 -0.00000000000E+00 -0.00000000000E+00 -0.45593999997E+02  0.45594000000E+02  0.51100000000E-03 0. -1.
    9900012    2    1    2    0    0  0.19297870152E+01 -0.35963457323E+02  0.18869852306E+02  0.50528859987E+02  0.30000000415E+02 0.  0.
         12    1    1    2    0    0 -0.19297870152E+01  0.35963457323E+02 -0.18869852306E+02  0.40659140013E+02  0.00000000000E+00 0. -1.
         11    1    3    3    0    0  0.80180175948E+01 -0.40489789413E+01 -0.54614532266E+00  0.89989505828E+01  0.51100000000E-03 0. -1.
        -11    1    3    3    0    0  0.50514243527E+01 -0.33849209852E+01  0.34409314214E+01  0.69867436890E+01  0.51100000000E-03 0.  1.
        -12    1    3    3    0    0 -0.11139654932E+02 -0.28529557397E+02  0.15975066208E+02  0.34543165715E+02  0.00000000000E+00 0.  1.
</event>
<event>
 7    1  0.3331850E-011  0.5052886E+02  0.7816164E-02  0.1300439E+00
        -11   -1    0    0    0    0  0.00000000000E+00  0.00000000000E+00  0.45593999997E+02  0.45594000000E+02  0.51100000000E-03 0.  1.
         11   -1    0    0    0    0 -0.00000000000E+00 -0.00000000000E+00 -0.45593999997E+02  0.45594000000E+02  0.51100000000E-03 0. -1.
    9900012    2    1    2    0    0  0.32165276439E+02  0.21247896867E+02 -0.12926226102E+02  0.50528862639E+02  0.30000008478E+02 0.  0.
         12    1    1    2    0    0 -0.32165276439E+02 -0.21247896867E+02  0.12926226102E+02  0.40659137361E+02  0.00000000000E+00 0. -1.
         11    1    3    3    0    0  0.40766278444E+01 -0.57994383486E+00  0.21557121452E+01  0.46478300901E+01  0.51100000000E-03 0. -1.
        -11    1    3    3    0    0  0.32501594798E+02  0.20338410276E+02 -0.15143952954E+02  0.41223099208E+02  0.51100000000E-03 0.  1.
         12    1    3    3    0    0 -0.44129462033E+01  0.14894304261E+01  0.62014706202E-01  0.46579333413E+01  0.00000000000E+00 0. -1.
</event>
<event>
 7    1  0.3331850E-011  0.5052885E+02  0.7816164E-02  0.1300439E+00
        -11   -1    0    0    0    0  0.00000000000E+00  0.00000000000E+00  0.45593999997E+02  0.45594000000E+02  0.51100000000E-03 0.  1.
         11   -1    0    0    0    0 -0.00000000000E+00 -0.00000000000E+00 -0.45593999997E+02  0.45594000000E+02  0.51100000000E-03 0. -1.
    9900012    2    1    2    0    0  0.38699109590E+01 -0.26016293873E+02  0.31005525664E+02  0.50528851221E+02  0.29999973772E+02 0.  0.
         12    1    1    2    0    0 -0.38699109590E+01  0.26016293873E+02 -0.31005525664E+02  0.40659148779E+02  0.00000000000E+00 0. -1.
         11    1    3    3    0    0 -0.64366960658E+01 -0.62679861753E+01  0.21660369695E+01  0.92417759847E+01  0.51100000000E-03 0. -1.
        -11    1    3    3    0    0 -0.46219390104E+01 -0.10012269213E+02  0.68505648658E+01  0.12982222239E+02  0.51100000000E-03 0.  1.
        -12    1    3    3    0    0  0.14928546035E+02 -0.97360384841E+01  0.21988923829E+02  0.28304852998E+02  0.00000000000E+00 0.  1.
</event>
<event>
 7    1  0.3331850E-011  0.5052886E+02  0.7816164E-02  0.1300439E+00
        -11   -1    0    0    0    0  0.00000000000E+00  0.00000000000E+00  0.45593999997E+02  0.45594000000E+02  0.51100000000E-03 0. -1.
         11   -1    0    0    0    0 -0.00000000000E+00 -0.00000000000E+00 -0.45593999997E+02  0.45594000000E+02  0.51100000000E-03 0.  1.
    9900012    2    1    2    0    0 -0.12564960484E+02 -0.38150662452E+02 -0.63098660126E+01  0.50528859742E+02  0.29999999670E+02 0.  0.
         12    1    1    2    0    0  0.12564960484E+02  0.38150662452E+02  0.63098660126E+01  0.40659140258E+02  0.00000000000E+00 0. -1.
         11    1    3    3    0    0  0.42542501097E+01 -0.39552162929E+01 -0.91579190491E+01  0.10844808043E+02  0.51100000000E-03 0. -1.
        -11    1    3    3    0    0  0.94418403879E+00 -0.70264327043E+01 -0.95386406621E-01  0.70902284078E+01  0.51100000000E-03 0.  1.
         12    1    3    3    0    0 -0.17763394632E+02 -0.27169013455E+02  0.29434394431E+01  0.32593823291E+02  0.00000000000E+00 0. -1.
</event>
<event>
 7    1  0.3331850E-011  0.5052886E+02  0.7816164E-02  0.1300439E+00
        -11   -1    0    0    0    0  0.00000000000E+00  0.00000000000E+00  0.45593999997E+02  0.45594000000E+02  0.51100000000E-03 0.  1.
         11   -1    0    0    0    0 -0.00000000000E+00 -0.00000000000E+00 -0.45593999997E+02  0.45594000000E+02  0.51100000000E-03 0. -1.
    9900012    2    1    2    0    0  0.20217037780E+02 -0.17955728462E+02  0.30364925317E+02  0.50528862150E+02  0.30000006991E+02 0.  0.
         12    1    1    2    0    0 -0.20217037780E+02  0.17955728462E+02 -0.30364925317E+02  0.40659137850E+02  0.00000000000E+00 0. -1.
         11    1    3    3    0    0  0.17208805628E+02 -0.11196355345E+02  0.19303629922E+02  0.28180338760E+02  0.51100000000E-03 0. -1.
        -11    1    3    3    0    0  0.19955100338E+01  0.24537122359E+01  0.12566620170E+02  0.12958499403E+02  0.51100000000E-03 0.  1.
         12    1    3    3    0    0  0.10127221182E+01 -0.92130853523E+01 -0.15053247752E+01  0.93900239870E+01  0.00000000000E+00 0. -1.
</event>
<event>
 7    1  0.3661584E-011  0.5052884E+02  0.7816164E-02  0.1300439E+00
        -11   -1    0    0    0    0  0.00000000000E+00  0.00000000000E+00  0.45593999997E+02  0.45594000000E+02  0.51100000000E-03 0. -1.
         11   -1    0    0    0    0 -0.00000000000E+00 -0.00000000000E+00 -0.45593999997E+02  0.45594000000E+02  0.51100000000E-03 0.  1.
    9900012    2    1    2    0    0  0.35499815444E+02  0.11714393099E+02 -0.15990731910E+02  0.50528838557E+02  0.29999935277E+02 0.  0.
         12    1    1    2    0    0 -0.35499815444E+02 -0.11714393099E+02  0.15990731910E+02  0.40659161443E+02  0.00000000000E+00 0. -1.
         11    1    3    3    0    0  0.99572861727E+01  0.86784361994E+01 -0.11401011421E+02  0.17448377130E+02  0.51100000000E-03 0. -1.
        -11    1    3    3    0    0  0.14273656967E+02  0.13687027081E+00 -0.12529982113E+02  0.18993590200E+02  0.51100000000E-03 0.  1.
         12    1    3    3    0    0  0.11268872304E+02  0.28990866289E+01  0.79402616240E+01  0.14086871226E+02  0.00000000000E+00 0. -1.
</event>
<event>
 7    1  0.3331850E-011  0.5052886E+02  0.7816164E-02  0.1300439E+00
        -11   -1    0    0    0    0  0.00000000000E+00  0.00000000000E+00  0.45593999997E+02  0.45594000000E+02  0.51100000000E-03 0. -1.
         11   -1    0    0    0    0 -0.00000000000E+00 -0.00000000000E+00 -0.45593999997E+02  0.45594000000E+02  0.51100000000E-03 0.  1.
    9900012    2    1    2    0    0  0.25920782474E+02 -0.28924576283E+02 -0.12026954983E+02  0.50528859289E+02  0.29999998293E+02 0.  0.
         12    1    1    2    0    0 -0.25920782474E+02  0.28924576283E+02  0.12026954983E+02  0.40659140711E+02  0.00000000000E+00 0. -1.
         11    1    3    3    0    0  0.26305723911E+00 -0.29479940915E+01  0.40796374531E+01  0.50401696682E+01  0.51100000000E-03 0. -1.
        -11    1    3    3    0    0  0.19189998673E+02 -0.26232847522E+02 -0.53575043071E+01  0.32941177739E+02  0.51100000000E-03 0.  1.
        -12    1    3    3    0    0  0.64677265616E+01  0.25626533007E+00 -0.10749088129E+02  0.12547511881E+02  0.00000000000E+00 0.  1.
</event>
<event>
 7    1  0.3331850E-011  0.5052886E+02  0.7816164E-02  0.1300439E+00
        -11   -1    0    0    0    0  0.00000000000E+00  0.00000000000E+00  0.45593999997E+02  0.45594000000E+02  0.51100000000E-03 0.  1.
         11   -1    0    0    0    0 -0.00000000000E+00 -0.00000000000E+00 -0.45593999997E+02  0.45594000000E+02  0.51100000000E-03 0. -1.
    9900012    2    1    2    0    0 -0.33159610428E+02  0.19070071371E+02  0.13781797152E+02  0.50528864266E+02  0.30000013424E+02 0.  0.
         12    1    1    2    0    0  0.33159610428E+02 -0.19070071371E+02 -0.13781797152E+02  0.40659135734E+02  0.00000000000E+00 0. -1.
         11    1    3    3    0    0  0.17066793798E+01  0.43732712917E+00  0.42624976849E+00  0.18126496213E+01  0.51100000000E-03 0. -1.
        -11    1    3    3    0    0 -0.35665943347E-01  0.10046542646E+02  0.70984035720E+01  0.12301285491E+02  0.51100000000E-03 0.  1.
        -12    1    3    3    0    0 -0.34830623865E+02  0.85862015967E+01  0.62571438116E+01  0.36414929155E+02  0.00000000000E+00 0.  1.
</event>
<event>
 7    1  0.3331850E-011  0.5052886E+02  0.7816164E-02  0.1300439E+00
        -11   -1    0    0    0    0  0.00000000000E+00  0.00000000000E+00  0.45593999997E+02  0.45594000000E+02  0.51100000000E-03 0.  1.
         11   -1    0    0    0    0 -0.00000000000E+00 -0.00000000000E+00 -0.45593999997E+02  0.45594000000E+02  0.51100000000E-03 0. -1.
    9900012    2    1    2    0    0  0.28662835304E+02 -0.21358276388E+01  0.28758400591E+02  0.50528862135E+02  0.30000006944E+02 0.  0.
         12    1    1    2    0    0 -0.28662835304E+02  0.21358276388E+01 -0.28758400591E+02  0.40659137865E+02  0.00000000000E+00 0. -1.
         11    1    3    3    0    0 -0.65380809041E+00  0.56531282208E+01  0.92827683529E+01  0.10888301624E+02  0.51100000000E-03 0. -1.
        -11    1    3    3    0    0  0.13821058758E+02 -0.11790664742E+02  0.13172631557E+02  0.22440135086E+02  0.51100000000E-03 0.  1.
         12    1    3    3    0    0  0.15495584637E+02  0.40017088826E+01  0.63030006809E+01  0.17200425425E+02  0.00000000000E+00 0. -1.
</event>
<event>
 7    1  0.3331850E-011  0.5052886E+02  0.7816164E-02  0.1300439E+00
        -11   -1    0    0    0    0  0.00000000000E+00  0.00000000000E+00  0.45593999997E+02  0.45594000000E+02  0.51100000000E-03 0.  1.
         11   -1    0    0    0    0 -0.00000000000E+00 -0.00000000000E+00 -0.45593999997E+02  0.45594000000E+02  0.51100000000E-03 0. -1.
    9900012    2    1    2    0    0 -0.11521716553E+02  0.81324938300E+01  0.38134999267E+02  0.50528861085E+02  0.30000003754E+02 0.  0.
         12    1    1    2    0    0  0.11521716553E+02 -0.81324938300E+01 -0.38134999267E+02  0.40659138915E+02  0.00000000000E+00 0. -1.
         11    1    3    3    0    0 -0.58737984709E+00 -0.59374337457E+01 -0.50761413138E+00  0.59879718550E+01  0.51100000000E-03 0. -1.
        -11    1    3    3    0    0 -0.92002087120E+00  0.11162482636E+02  0.15174883549E+02  0.18860661388E+02  0.51100000000E-03 0.  1.
        -12    1    3    3    0    0 -0.10014315834E+02  0.29074449392E+01  0.23467729850E+02  0.25680227842E+02  0.00000000000E+00 0.  1.
</event>
<event>
 7    1  0.3331850E-011  0.5052886E+02  0.7816164E-02  0.1300439E+00
        -11   -1    0    0    0    0  0.00000000000E+00  0.00000000000E+00  0.45593999997E+02  0.45594000000E+02  0.51100000000E-03 0.  1.
         11   -1    0    0    0    0 -0.00000000000E+00 -0.00000000000E+00 -0.45593999997E+02  0.45594000000E+02  0.51100000000E-03 0. -1.
    9900012    2    1    2    0    0  0.24665271993E+02  0.33145790959E+01  0.32152819899E+02  0.50528857061E+02  0.29999991522E+02 0.  0.
         12    1    1    2    0    0 -0.24665271993E+02 -0.33145790959E+01 -0.32152819899E+02  0.40659142939E+02  0.00000000000E+00 0. -1.
         11    1    3    3    0    0  0.84466795316E+01  0.11814663735E+02  0.23652039368E+02  0.27755209256E+02  0.51100000000E-03 0.  1.
        -11    1    3    3    0    0  0.66944761210E+00  0.24253505257E+00 -0.19661758302E+01  0.20911315151E+01  0.51100000000E-03 0. -1.
        -12    1    3    3    0    0  0.15549144849E+02 -0.87426196917E+01  0.10466956361E+02  0.20682516290E+02  0.00000000000E+00 0.  1.
</event>
<event>
 7    1  0.3331850E-011  0.5052886E+02  0.7816164E-02  0.1300439E+00
        -11   -1    0    0    0    0  0.00000000000E+00  0.00000000000E+00  0.45593999997E+02  0.45594000000E+02  0.51100000000E-03 0.  1.
         11   -1    0    0    0    0 -0.00000000000E+00 -0.00000000000E+00 -0.45593999997E+02  0.45594000000E+02  0.51100000000E-03 0. -1.
    9900012    2    1    2    0    0 -0.37173839415E+02  0.15859159862E+02  0.44450529574E+01  0.50528858541E+02  0.29999996022E+02 0.  0.
         12    1    1    2    0    0  0.37173839415E+02 -0.15859159862E+02 -0.44450529574E+01  0.40659141459E+02  0.00000000000E+00 0. -1.
         11    1    3    3    0    0 -0.81465945284E+01  0.16852717222E+02  0.34428299240E+01  0.19032450140E+02  0.51100000000E-03 0.  1.
        -11    1    3    3    0    0 -0.10200340936E+02  0.10544635138E+01 -0.52922343239E+01  0.11539783053E+02  0.51100000000E-03 0. -1.
        -12    1    3    3    0    0 -0.18826903950E+02 -0.20480208742E+01  0.62944573573E+01  0.19956625348E+02  0.00000000000E+00 0.  1.
</event>
<event>
 7    1  0.3331850E-011  0.5052887E+02  0.7816164E-02  0.1300439E+00
        -11   -1    0    0    0    0  0.00000000000E+00  0.00000000000E+00  0.45593999997E+02  0.45594000000E+02  0.51100000000E-03 0. -1.
         11   -1    0    0    0    0 -0.00000000000E+00 -0.00000000000E+00 -0.45593999997E+02  0.45594000000E+02  0.51100000000E-03 0.  1.
    9900012    2    1    2    0    0  0.31003895623E+02  0.24467673098E+02 -0.96569343796E+01  0.50528868771E+02  0.30000027117E+02 0.  0.
         12    1    1    2    0    0 -0.31003895623E+02 -0.24467673098E+02  0.96569343796E+01  0.40659131229E+02  0.00000000000E+00 0. -1.
         11    1    3    3    0    0  0.16417124410E+02  0.22575003627E+02 -0.56132142643E+01  0.28472108058E+02  0.51100000000E-03 0.  1.
        -11    1    3    3    0    0  0.22852524336E+01  0.63091514922E+01 -0.57993753496E+01  0.88690769499E+01  0.51100000000E-03 0. -1.
         12    1    3    3    0    0  0.12301518780E+02 -0.44164820207E+01  0.17556552343E+01  0.13187683763E+02  0.00000000000E+00 0. -1.
</event>
<event>
 7    1  0.3331850E-011  0.5052886E+02  0.7816164E-02  0.1300439E+00
        -11   -1    0    0    0    0  0.00000000000E+00  0.00000000000E+00  0.45593999997E+02  0.45594000000E+02  0.51100000000E-03 0.  1.
         11   -1    0    0    0    0 -0.00000000000E+00 -0.00000000000E+00 -0.45593999997E+02  0.45594000000E+02  0.51100000000E-03 0. -1.
    9900012    2    1    2    0    0 -0.91638425462E+01  0.24544271530E+02  0.31092896308E+02  0.50528862331E+02  0.30000007542E+02 0.  0.
         12    1    1    2    0    0  0.91638425462E+01 -0.24544271530E+02 -0.31092896308E+02  0.40659137669E+02  0.00000000000E+00 0. -1.
         11    1    3    3    0    0  0.31861660498E+01 -0.25343986642E+00  0.82253850612E+00  0.33003720575E+01  0.51100000000E-03 0. -1.
        -11    1    3    3    0    0 -0.68373958309E+01 -0.27624188307E+01  0.10640625711E+02  0.12946190765E+02  0.51100000000E-03 0.  1.
        -12    1    3    3    0    0 -0.55126127651E+01  0.27560130227E+02  0.19629732091E+02  0.34282299509E+02  0.00000000000E+00 0.  1.
</event>
<event>
 7    1  0.3331850E-011  0.5052886E+02  0.7816164E-02  0.1300439E+00
        -11   -1    0    0    0    0  0.00000000000E+00  0.00000000000E+00  0.45593999997E+02  0.45594000000E+02  0.51100000000E-03 0.  1.
         11   -1    0    0    0    0 -0.00000000000E+00 -0.00000000000E+00 -0.45593999997E+02  0.45594000000E+02  0.51100000000E-03 0. -1.
    9900012    2    1    2    0    0  0.15155935335E+02  0.14397331969E+02  0.34873775612E+02  0.50528858726E+02  0.29999996583E+02 0.  0.
         12    1    1    2    0    0 -0.15155935335E+02 -0.14397331969E+02 -0.34873775612E+02  0.40659141274E+02  0.00000000000E+00 0. -1.
         11    1    3    3    0    0 -0.32757180420E+01  0.84576035009E+00  0.44351411012E+01  0.55781821510E+01  0.51100000000E-03 0. -1.
        -11    1    3    3    0    0  0.48192601848E+01 -0.67358875488E+01  0.10768480384E+02  0.13585198557E+02  0.51100000000E-03 0.  1.
        -12    1    3    3    0    0  0.13612393193E+02  0.20287459168E+02  0.19670154127E+02  0.31365478018E+02  0.00000000000E+00 0.  1.
</event>
<event>
 7    1  0.3331850E-011  0.5052887E+02  0.7816164E-02  0.1300439E+00
        -11   -1    0    0    0    0  0.00000000000E+00  0.00000000000E+00  0.45593999997E+02  0.45594000000E+02  0.51100000000E-03 0.  1.
         11   -1    0    0    0    0 -0.00000000000E+00 -0.00000000000E+00 -0.45593999997E+02  0.45594000000E+02  0.51100000000E-03 0. -1.
    9900012    2    1    2    0    0 -0.60560808254E+01 -0.89670671168E+01  0.39192862480E+02  0.50528869697E+02  0.30000029931E+02 0.  0.
         12    1    1    2    0    0  0.60560808254E+01  0.89670671168E+01 -0.39192862480E+02  0.40659130303E+02  0.00000000000E+00 0. -1.
         11    1    3    3    0    0 -0.87063503048E+01 -0.29173715363E+01  0.38260175248E+01  0.99473615935E+01  0.51100000000E-03 0. -1.
        -11    1    3    3    0    0 -0.36505270537E+01 -0.73446125543E+01  0.51433999952E+01  0.96811282976E+01  0.51100000000E-03 0.  1.
         12    1    3    3    0    0  0.63007965330E+01  0.12949169738E+01  0.30223444960E+02  0.30900379806E+02  0.00000000000E+00 0. -1.
</event>
<event>
 7    1  0.3331850E-011  0.5052887E+02  0.7816164E-02  0.1300439E+00
        -11   -1    0    0    0    0  0.00000000000E+00  0.00000000000E+00  0.45593999997E+02  0.45594000000E+02  0.51100000000E-03 0.  1.
         11   -1    0    0    0    0 -0.00000000000E+00 -0.00000000000E+00 -0.45593999997E+02  0.45594000000E+02  0.51100000000E-03 0. -1.
    9900012    2    1    2    0    0  0.46010404643E+00 -0.40313768427E+02 -0.52681336713E+01  0.50528869994E+02  0.30000030832E+02 0.  0.
         12    1    1    2    0    0 -0.46010404643E+00  0.40313768427E+02  0.52681336713E+01  0.40659130006E+02  0.00000000000E+00 0. -1.
         11    1    3    3    0    0 -0.39018829396E+00 -0.37071903042E+00 -0.12886130425E+01  0.13964968094E+01  0.51100000000E-03 0. -1.
        -11    1    3    3    0    0 -0.10460431768E+02 -0.31772938848E+02 -0.84125490312E+01  0.34492191251E+02  0.51100000000E-03 0.  1.
         12    1    3    3    0    0  0.11310724108E+02 -0.81701105480E+01  0.44330284024E+01  0.14640181933E+02  0.00000000000E+00 0. -1.
</event>
<event>
 7    1  0.3331850E-011  0.5052888E+02  0.7816164E-02  0.1300439E+00
        -11   -1    0    0    0    0  0.00000000000E+00  0.00000000000E+00  0.45593999997E+02  0.45594000000E+02  0.51100000000E-03 0.  1.
         11   -1    0    0    0    0 -0.00000000000E+00 -0.00000000000E+00 -0.45593999997E+02  0.45594000000E+02  0.51100000000E-03 0. -1.
    9900012    2    1    2    0    0  0.13587910661E+02  0.29985411203E+02 -0.23862265906E+02  0.50528881277E+02  0.30000065130E+02 0.  0.
         12    1    1    2    0    0 -0.13587910661E+02 -0.29985411203E+02  0.23862265906E+02  0.40659118723E+02  0.00000000000E+00 0. -1.
         11    1    3    3    0    0 -0.56767945158E+00 -0.14701638945E+01 -0.90594202320E+01  0.91954737256E+01  0.51100000000E-03 0. -1.
        -11    1    3    3    0    0 -0.18880246990E+01  0.44437957415E+01 -0.77554504067E+01  0.91355880560E+01  0.51100000000E-03 0.  1.
        -12    1    3    3    0    0  0.16043614812E+02  0.27011779356E+02 -0.70473952668E+01  0.32197819496E+02  0.00000000000E+00 0.  1.
</event>
<event>
 7    1  0.3331850E-011  0.5052884E+02  0.7816164E-02  0.1300439E+00
        -11   -1    0    0    0    0  0.00000000000E+00  0.00000000000E+00  0.45593999997E+02  0.45594000000E+02  0.51100000000E-03 0.  1.
         11   -1    0    0    0    0 -0.00000000000E+00 -0.00000000000E+00 -0.45593999997E+02  0.45594000000E+02  0.51100000000E-03 0. -1.
    9900012    2    1    2    0    0 -0.82809970492E+01 -0.35538205445E+02  0.17933994709E+02  0.50528842057E+02  0.29999945918E+02 0.  0.
         12    1    1    2    0    0  0.82809970492E+01  0.35538205445E+02 -0.17933994709E+02  0.40659157943E+02  0.00000000000E+00 0. -1.
         11    1    3    3    0    0  0.21843330504E+01 -0.16723493930E+01 -0.14411673912E+01  0.31056443901E+01  0.51100000000E-03 0. -1.
        -11    1    3    3    0    0  0.81907702860E+01 -0.11975851081E+02  0.70730958544E+01  0.16141202317E+02  0.51100000000E-03 0.  1.
        -12    1    3    3    0    0 -0.18656100386E+02 -0.21890004971E+02  0.12302066246E+02  0.31281995351E+02  0.00000000000E+00 0.  1.
</event>
<event>
 7    1  0.3331850E-011  0.5052884E+02  0.7816164E-02  0.1300439E+00
        -11   -1    0    0    0    0  0.00000000000E+00  0.00000000000E+00  0.45593999997E+02  0.45594000000E+02  0.51100000000E-03 0. -1.
         11   -1    0    0    0    0 -0.00000000000E+00 -0.00000000000E+00 -0.45593999997E+02  0.45594000000E+02  0.51100000000E-03 0.  1.
    9900012    2    1    2    0    0 -0.32151514673E+02  0.32382066124E+01 -0.24677138685E+02  0.50528842957E+02  0.29999948651E+02 0.  0.
         12    1    1    2    0    0  0.32151514673E+02 -0.32382066124E+01  0.24677138685E+02  0.40659157043E+02  0.00000000000E+00 0. -1.
         11    1    3    3    0    0 -0.19144056167E+02 -0.50722405035E+01 -0.23732978304E+02  0.30910787271E+02  0.51100000000E-03 0.  1.
        -11    1    3    3    0    0 -0.13139656457E-02  0.31824988262E+01  0.37055185902E+01  0.48845848123E+01  0.51100000000E-03 0. -1.
        -12    1    3    3    0    0 -0.13006144539E+02  0.51279482897E+01 -0.46496789716E+01  0.14733470874E+02  0.00000000000E+00 0.  1.
</event>
<event>
 7    1  0.3331850E-011  0.5052887E+02  0.7816164E-02  0.1300439E+00
        -11   -1    0    0    0    0  0.00000000000E+00  0.00000000000E+00  0.45593999997E+02  0.45594000000E+02  0.51100000000E-03 0.  1.
         11   -1    0    0    0    0 -0.00000000000E+00 -0.00000000000E+00 -0.45593999997E+02  0.45594000000E+02  0.51100000000E-03 0. -1.
    9900012    2    1    2    0    0 -0.12938634725E+02  0.36801938701E+02 -0.11461828378E+02  0.50528874696E+02  0.30000045126E+02 0.  0.
         12    1    1    2    0    0  0.12938634725E+02 -0.36801938701E+02  0.11461828378E+02  0.40659125304E+02  0.00000000000E+00 0. -1.
         11    1    3    3    0    0 -0.58968044647E+01  0.44124644566E+01 -0.26400341772E+01  0.78238050969E+01  0.51100000000E-03 0. -1.
        -11    1    3    3    0    0 -0.93340356987E+01  0.93558101004E+01 -0.13714911754E+02  0.19046107469E+02  0.51100000000E-03 0.  1.
         12    1    3    3    0    0  0.22922054385E+01  0.23033664144E+02  0.48931175531E+01  0.23658962130E+02  0.00000000000E+00 0. -1.
</event>
<event>
 7    1  0.3331850E-011  0.5052885E+02  0.7816164E-02  0.1300439E+00
        -11   -1    0    0    0    0  0.00000000000E+00  0.00000000000E+00  0.45593999997E+02  0.45594000000E+02  0.51100000000E-03 0.  1.
         11   -1    0    0    0    0 -0.00000000000E+00 -0.00000000000E+00 -0.45593999997E+02  0.45594000000E+02  0.51100000000E-03 0. -1.
    9900012    2    1    2    0    0 -0.33233731252E+02  0.16966737472E+02  0.16149770864E+02  0.50528853768E+02  0.29999981513E+02 0.  0.
         12    1    1    2    0    0  0.33233731252E+02 -0.16966737472E+02 -0.16149770864E+02  0.40659146232E+02  0.00000000000E+00 0. -1.
         11    1    3    3    0    0 -0.64257155269E+01 -0.12616725799E+01  0.30450926308E-01  0.65484780866E+01  0.51100000000E-03 0. -1.
        -11    1    3    3    0    0 -0.30762364675E+01  0.16240487644E+02  0.30276519612E+01  0.16804265720E+02  0.51100000000E-03 0.  1.
         12    1    3    3    0    0 -0.23731779257E+02  0.19879224074E+01  0.13091667976E+02  0.27176109961E+02  0.00000000000E+00 0. -1.
</event>
<event>
 7    1  0.3331850E-011  0.5052886E+02  0.7816164E-02  0.1300439E+00
        -11   -1    0    0    0    0  0.00000000000E+00  0.00000000000E+00  0.45593999997E+02  0.45594000000E+02  0.51100000000E-03 0. -1.
         11   -1    0    0    0    0 -0.00000000000E+00 -0.00000000000E+00 -0.45593999997E+02  0.45594000000E+02  0.51100000000E-03 0.  1.
    9900012    2    1    2    0    0  0.28873043077E+02 -0.63037361291E+01 -0.27924467830E+02  0.50528860692E+02  0.30000002558E+02 0.  0.
         12    1    1    2    0    0 -0.28873043077E+02  0.63037361291E+01  0.27924467830E+02  0.40659139308E+02  0.00000000000E+00 0. -1.
         11    1    3    3    0    0  0.77606836050E+01 -0.93153572869E+01 -0.15139059260E+02  0.19395752291E+02  0.51100000000E-03 0. -1.
        -11    1    3    3    0    0  0.55645989934E+01 -0.53261571952E-01 -0.14172178895E+02  0.15225578927E+02  0.51100000000E-03 0.  1.
         12    1    3    3    0    0  0.15547760478E+02  0.30648827298E+01  0.13867703245E+01  0.15907529474E+02  0.00000000000E+00 0. -1.
</event>
<event>
 7    1  0.3331850E-011  0.5052886E+02  0.7816164E-02  0.1300439E+00
        -11   -1    0    0    0    0  0.00000000000E+00  0.00000000000E+00  0.45593999997E+02  0.45594000000E+02  0.51100000000E-03 0. -1.
         11   -1    0    0    0    0 -0.00000000000E+00 -0.00000000000E+00 -0.45593999997E+02  0.45594000000E+02  0.51100000000E-03 0.  1.
    9900012    2    1    2    0    0 -0.38589973704E+02  0.54551894402E+01 -0.11585347017E+02  0.50528862924E+02  0.30000009343E+02 0.  0.
         12    1    1    2    0    0  0.38589973704E+02 -0.54551894402E+01  0.11585347017E+02  0.40659137076E+02  0.00000000000E+00 0. -1.
         11    1    3    3    0    0 -0.17314523410E+02 -0.38156309982E+01  0.13114187749E+00  0.17730452879E+02  0.51100000000E-03 0. -1.
        -11    1    3    3    0    0 -0.95168444145E+01 -0.55755636199E+01 -0.76633250182E+01  0.13430703179E+02  0.51100000000E-03 0.  1.
        -12    1    3    3    0    0 -0.11758605879E+02  0.14846384058E+02 -0.40531638764E+01  0.19367706865E+02  0.00000000000E+00 0.  1.
</event>
<event>
 7    1  0.3331850E-011  0.5052885E+02  0.7816164E-02  0.1300439E+00
        -11   -1    0    0    0    0  0.00000000000E+00  0.00000000000E+00  0.45593999997E+02  0.45594000000E+02  0.51100000000E-03 0.  1.
         11   -1    0    0    0    0 -0.00000000000E+00 -0.00000000000E+00 -0.45593999997E+02  0.45594000000E+02  0.51100000000E-03 0. -1.
    9900012    2    1    2    0    0  0.22804916447E+02 -0.15497581819E+02  0.29881882096E+02  0.50528854239E+02  0.29999982946E+02 0.  0.
         12    1    1    2    0    0 -0.22804916447E+02  0.15497581819E+02 -0.29881882096E+02  0.40659145761E+02  0.00000000000E+00 0. -1.
         11    1    3    3    0    0  0.11085659638E+00  0.41746172217E+00  0.10456847831E+02  0.10465764678E+02  0.51100000000E-03 0. -1.
        -11    1    3    3    0    0  0.17226826180E+02 -0.14286413436E+02  0.23951954658E+02  0.32780501541E+02  0.51100000000E-03 0.  1.
         12    1    3    3    0    0  0.54672336708E+01 -0.16286301059E+01 -0.45269203931E+01  0.72825880206E+01  0.00000000000E+00 0. -1.
</event>
<event>
 7    1  0.3331850E-011  0.5052885E+02  0.7816164E-02  0.1300439E+00
        -11   -1    0    0    0    0  0.00000000000E+00  0.00000000000E+00  0.45593999997E+02  0.45594000000E+02  0.51100000000E-03 0.  1.
         11   -1    0    0    0    0 -0.00000000000E+00 -0.00000000000E+00 -0.45593999997E+02  0.45594000000E+02  0.51100000000E-03 0. -1.
    9900012    2    1    2    0    0  0.10621931933E+02 -0.25889507173E+02  0.29497019855E+02  0.50528853428E+02  0.29999980480E+02 0.  0.
         12    1    1    2    0    0 -0.10621931933E+02  0.25889507173E+02 -0.29497019855E+02  0.40659146572E+02  0.00000000000E+00 0. -1.
         11    1    3    3    0    0 -0.70197869089E+00 -0.14496371746E+02  0.24513876700E+01  0.14718928958E+02  0.51100000000E-03 0. -1.
        -11    1    3    3    0    0  0.25891758157E+01 -0.13778803218E+02  0.13133041103E+02  0.19210310211E+02  0.51100000000E-03 0.  1.
        -12    1    3    3    0    0  0.87347348079E+01  0.23856677911E+01  0.13912591081E+02  0.16599614260E+02  0.00000000000E+00 0.  1.
</event>
<event>
 7    1  0.3331850E-011  0.5052887E+02  0.7816164E-02  0.1300439E+00
        -11   -1    0    0    0    0  0.00000000000E+00  0.00000000000E+00  0.45593999997E+02  0.45594000000E+02  0.51100000000E-03 0. -1.
         11   -1    0    0    0    0 -0.00000000000E+00 -0.00000000000E+00 -0.45593999997E+02  0.45594000000E+02  0.51100000000E-03 0.  1.
    9900012    2    1    2    0    0  0.20980673365E+02 -0.32792403961E+02 -0.11731778505E+02  0.50528867701E+02  0.30000023864E+02 0.  0.
         12    1    1    2    0    0 -0.20980673365E+02  0.32792403961E+02  0.11731778505E+02  0.40659132299E+02  0.00000000000E+00 0. -1.
         11    1    3    3    0    0  0.10320506111E+01  0.15317994642E+01 -0.13498683781E+00  0.18519610606E+01  0.51100000000E-03 0. -1.
        -11    1    3    3    0    0 -0.41407220905E+01 -0.54339297208E+01 -0.85410915902E+01  0.10937249081E+02  0.51100000000E-03 0.  1.
        -12    1    3    3    0    0  0.24089344844E+02 -0.28890273705E+02 -0.30557000767E+01  0.37739657560E+02  0.00000000000E+00 0.  1.
</event>
<event>
 7    1  0.3331850E-011  0.5052885E+02  0.7816164E-02  0.1300439E+00
        -11   -1    0    0    0    0  0.00000000000E+00  0.00000000000E+00  0.45593999997E+02  0.45594000000E+02  0.51100000000E-03 0.  1.
         11   -1    0    0    0    0 -0.00000000000E+00 -0.00000000000E+00 -0.45593999997E+02  0.45594000000E+02  0.51100000000E-03 0. -1.
    9900012    2    1    2    0    0 -0.31565181771E+02  0.17194604413E+02  0.19003990955E+02  0.50528846130E+02  0.29999958298E+02 0.  0.
         12    1    1    2    0    0  0.31565181771E+02 -0.17194604413E+02 -0.19003990955E+02  0.40659153870E+02  0.00000000000E+00 0. -1.
         11    1    3    3    0    0 -0.11489736944E+02 -0.24979794364E+01  0.65013844527E+01  0.13435845949E+02  0.51100000000E-03 0. -1.
        -11    1    3    3    0    0 -0.17208807101E+02  0.35582014181E+01  0.10779566320E+02  0.20615598208E+02  0.51100000000E-03 0.  1.
        -12    1    3    3    0    0 -0.28666377257E+01  0.16134382431E+02  0.17230401822E+01  0.16477401972E+02  0.00000000000E+00 0.  1.
</event>
<event>
 7    1  0.3331850E-011  0.5052886E+02  0.7816164E-02  0.1300439E+00
        -11   -1    0    0    0    0  0.00000000000E+00  0.00000000000E+00  0.45593999997E+02  0.45594000000E+02  0.51100000000E-03 0. -1.
         11   -1    0    0    0    0 -0.00000000000E+00 -0.00000000000E+00 -0.45593999997E+02  0.45594000000E+02  0.51100000000E-03 0.  1.
    9900012    2    1    2    0    0 -0.20208753483E+02  0.34512850537E+02 -0.73235960791E+01  0.50528860448E+02  0.30000001819E+02 0.  0.
         12    1    1    2    0    0  0.20208753483E+02 -0.34512850537E+02  0.73235960791E+01  0.40659139552E+02  0.00000000000E+00 0. -1.
         11    1    3    3    0    0 -0.10049705453E+02  0.56950620808E+01  0.68654561483E+01  0.13437440239E+02  0.51100000000E-03 0. -1.
        -11    1    3    3    0    0 -0.67175306963E+00 -0.19480982805E+01 -0.11113032184E+01  0.23412249361E+01  0.51100000000E-03 0.  1.
        -12    1    3    3    0    0 -0.94872949597E+01  0.30765886737E+02 -0.13077749009E+02  0.34750195273E+02  0.00000000000E+00 0.  1.
</event>
<event>
 7    1  0.3331850E-011  0.5052881E+02  0.7816164E-02  0.1300439E+00
        -11   -1    0    0    0    0  0.00000000000E+00  0.00000000000E+00  0.45593999997E+02  0.45594000000E+02  0.51100000000E-03 0.  1.
         11   -1    0    0    0    0 -0.00000000000E+00 -0.00000000000E+00 -0.45593999997E+02  0.45594000000E+02  0.51100000000E-03 0. -1.
    9900012    2    1    2    0    0  0.96972533479E+01  0.12113892673E+02  0.37581729775E+02  0.50528812464E+02  0.29999855967E+02 0.  0.
         12    1    1    2    0    0 -0.96972533479E+01 -0.12113892673E+02 -0.37581729775E+02  0.40659187536E+02  0.00000000000E+00 0. -1.
         11    1    3    3    0    0  0.38357991139E+01  0.44968956892E+01  0.34302070831E+01  0.68338676148E+01  0.51100000000E-03 0. -1.
        -11    1    3    3    0    0  0.82865123292E+01  0.15693770017E+02  0.28393766336E+02  0.33483827005E+02  0.51100000000E-03 0.  1.
         12    1    3    3    0    0 -0.24250580953E+01 -0.80767730325E+01  0.57577563561E+01  0.10211117845E+02  0.00000000000E+00 0. -1.
</event>
<event>
 7    1  0.3331850E-011  0.5052887E+02  0.7816164E-02  0.1300439E+00
        -11   -1    0    0    0    0  0.00000000000E+00  0.00000000000E+00  0.45593999997E+02  0.45594000000E+02  0.51100000000E-03 0.  1.
         11   -1    0    0    0    0 -0.00000000000E+00 -0.00000000000E+00 -0.45593999997E+02  0.45594000000E+02  0.51100000000E-03 0. -1.
    9900012    2    1    2    0    0  0.15937243655E+02  0.34532670144E+02 -0.14375807467E+02  0.50528869624E+02  0.30000029710E+02 0.  0.
         12    1    1    2    0    0 -0.15937243655E+02 -0.34532670144E+02  0.14375807467E+02  0.40659130376E+02  0.00000000000E+00 0. -1.
         11    1    3    3    0    0  0.58189600309E+01 -0.20743687210E+01 -0.52751556688E+01  0.81234579474E+01  0.51100000000E-03 0. -1.
        -11    1    3    3    0    0  0.48480863294E+01  0.27620133482E+01  0.26712094804E+01  0.61861150282E+01  0.51100000000E-03 0.  1.
         12    1    3    3    0    0  0.52701972947E+01  0.33845025517E+02 -0.11771861278E+02  0.36219296649E+02  0.00000000000E+00 0. -1.
</event>
<event>
 7    1  0.3331850E-011  0.5052886E+02  0.7816164E-02  0.1300439E+00
        -11   -1    0    0    0    0  0.00000000000E+00  0.00000000000E+00  0.45593999997E+02  0.45594000000E+02  0.51100000000E-03 0.  1.
         11   -1    0    0    0    0 -0.00000000000E+00 -0.00000000000E+00 -0.45593999997E+02  0.45594000000E+02  0.51100000000E-03 0. -1.
    9900012    2    1    2    0    0 -0.34757344291E+02 -0.10708628582E+02  0.18177401577E+02  0.50528860359E+02  0.30000001547E+02 0.  0.
         12    1    1    2    0    0  0.34757344291E+02  0.10708628582E+02 -0.18177401577E+02  0.40659139641E+02  0.00000000000E+00 0. -1.
         11    1    3    3    0    0 -0.87256738367E+00  0.75793510153E+00 -0.30759122912E+01  0.32858904640E+01  0.51100000000E-03 0. -1.
        -11    1    3    3    0    0 -0.18040620177E+02 -0.21806616073E+01 -0.12288650100E+01  0.18213439293E+02  0.51100000000E-03 0.  1.
        -12    1    3    3    0    0 -0.15844156731E+02 -0.92859020759E+01  0.22482178878E+02  0.29029530602E+02  0.00000000000E+00 0.  1.
</event>
<event>
 7    1  0.3331850E-011  0.5052885E+02  0.7816164E-02  0.1300439E+00
        -11   -1    0    0    0    0  0.00000000000E+00  0.00000000000E+00  0.45593999997E+02  0.45594000000E+02  0.51100000000E-03 0. -1.
         11   -1    0    0    0    0 -0.00000000000E+00 -0.00000000000E+00 -0.45593999997E+02  0.45594000000E+02  0.51100000000E-03 0.  1.
    9900012    2    1    2    0    0 -0.24276748687E+02  0.93743057876E+01  0.31239848031E+02  0.50528852925E+02  0.29999978952E+02 0.  0.
         12    1    1    2    0    0  0.24276748687E+02 -0.93743057876E+01 -0.31239848031E+02  0.40659147075E+02  0.00000000000E+00 0. -1.
         11    1    3    3    0    0 -0.10113740687E+02  0.81244654959E+01  0.15788893990E+02  0.20434868827E+02  0.51100000000E-03 0. -1.
        -11    1    3    3    0    0 -0.32853499058E+01  0.10833616756E+02  0.71126818510E+01  0.13369780080E+02  0.51100000000E-03 0.  1.
        -12    1    3    3    0    0 -0.10877658095E+02 -0.95837764641E+01  0.83382721897E+01  0.16724204019E+02  0.00000000000E+00 0.  1.
</event>
<event>
 7    1  0.3331850E-011  0.5052887E+02  0.7816164E-02  0.1300439E+00
        -11   -1    0    0    0    0  0.00000000000E+00  0.00000000000E+00  0.45593999997E+02  0.45594000000E+02  0.51100000000E-03 0.  1.
         11   -1    0    0    0    0 -0.00000000000E+00 -0.00000000000E+00 -0.45593999997E+02  0.45594000000E+02  0.51100000000E-03 0. -1.
    9900012    2    1    2    0    0 -0.24937933054E+02 -0.31065216486E+02 -0.81373779211E+01  0.50528866957E+02  0.30000021604E+02 0.  0.
         12    1    1    2    0    0  0.24937933054E+02  0.31065216486E+02  0.81373779211E+01  0.40659133043E+02  0.00000000000E+00 0. -1.
         11    1    3    3    0    0  0.26375904008E+01 -0.51639751754E+01 -0.58337769581E+01  0.82253557122E+01  0.51100000000E-03 0. -1.
        -11    1    3    3    0    0 -0.14675053567E+01 -0.13062974313E+02 -0.53666025066E+00  0.13156096471E+02  0.51100000000E-03 0.  1.
         12    1    3    3    0    0 -0.26108018098E+02 -0.12838266998E+02 -0.17669407123E+01  0.29147414774E+02  0.00000000000E+00 0. -1.
</event>
<event>
 7    1  0.3331850E-011  0.5052886E+02  0.7816164E-02  0.1300439E+00
        -11   -1    0    0    0    0  0.00000000000E+00  0.00000000000E+00  0.45593999997E+02  0.45594000000E+02  0.51100000000E-03 0.  1.
         11   -1    0    0    0    0 -0.00000000000E+00 -0.00000000000E+00 -0.45593999997E+02  0.45594000000E+02  0.51100000000E-03 0. -1.
    9900012    2    1    2    0    0 -0.35877876117E+02 -0.87897477574E+01  0.16990705603E+02  0.50528859119E+02  0.29999997779E+02 0.  0.
         12    1    1    2    0    0  0.35877876117E+02  0.87897477574E+01 -0.16990705603E+02  0.40659140881E+02  0.00000000000E+00 0. -1.
         11    1    3    3    0    0  0.79839326769E+00 -0.49171895686E+01 -0.14797926193E+01  0.51967270008E+01  0.51100000000E-03 0.  1.
        -11    1    3    3    0    0 -0.13400337029E+00  0.37850403137E+01  0.27226166776E+00  0.37971849779E+01  0.51100000000E-03 0. -1.
        -12    1    3    3    0    0 -0.36542266014E+02 -0.76575985024E+01  0.18198236554E+02  0.41534947140E+02  0.00000000000E+00 0.  1.
</event>
<event>
 7    1  0.3331850E-011  0.5052886E+02  0.7816164E-02  0.1300439E+00
        -11   -1    0    0    0    0  0.00000000000E+00  0.00000000000E+00  0.45593999997E+02  0.45594000000E+02  0.51100000000E-03 0.  1.
         11   -1    0    0    0    0 -0.00000000000E+00 -0.00000000000E+00 -0.45593999997E+02  0.45594000000E+02  0.51100000000E-03 0. -1.
    9900012    2    1    2    0    0 -0.10180394529E+02  0.15442720778E+02  0.36208386672E+02  0.50528864210E+02  0.30000013253E+02 0.  0.
         12    1    1    2    0    0  0.10180394529E+02 -0.15442720778E+02 -0.36208386672E+02  0.40659135790E+02  0.00000000000E+00 0. -1.
         11    1    3    3    0    0  0.12216050754E+00  0.90362576376E+01  0.51493649979E+01  0.10401193942E+02  0.51100000000E-03 0. -1.
        -11    1    3    3    0    0 -0.81019267737E+01  0.13950618989E+02  0.14058367338E+02  0.21398567244E+02  0.51100000000E-03 0.  1.
        -12    1    3    3    0    0 -0.22006282625E+01 -0.75441558483E+01  0.17000654336E+02  0.18729103024E+02  0.00000000000E+00 0.  1.
</event>
<event>
 7    1  0.3331850E-011  0.5052885E+02  0.7816164E-02  0.1300439E+00
        -11   -1    0    0    0    0  0.00000000000E+00  0.00000000000E+00  0.45593999997E+02  0.45594000000E+02  0.51100000000E-03 0.  1.
         11   -1    0    0    0    0 -0.00000000000E+00 -0.00000000000E+00 -0.45593999997E+02  0.45594000000E+02  0.51100000000E-03 0. -1.
    9900012    2    1    2    0    0  0.11166110156E+01 -0.13571385723E+02  0.38311056746E+02  0.50528850973E+02  0.29999973019E+02 0.  0.
         12    1    1    2    0    0 -0.11166110156E+01  0.13571385723E+02 -0.38311056746E+02  0.40659149027E+02  0.00000000000E+00 0. -1.
         11    1    3    3    0    0 -0.14797444435E+00  0.77649178046E+00 -0.26447130372E+01  0.27603157848E+01  0.51100000000E-03 0. -1.
        -11    1    3    3    0    0 -0.45116819654E+01  0.33918086751E+00  0.76301345711E+00  0.45883011687E+01  0.51100000000E-03 0.  1.
        -12    1    3    3    0    0  0.57762674253E+01 -0.14687058371E+02  0.40192756326E+02  0.43180234020E+02  0.00000000000E+00 0.  1.
</event>
<event>
 7    1  0.3331850E-011  0.5052886E+02  0.7816164E-02  0.1300439E+00
        -11   -1    0    0    0    0  0.00000000000E+00  0.00000000000E+00  0.45593999997E+02  0.45594000000E+02  0.51100000000E-03 0.  1.
         11   -1    0    0    0    0 -0.00000000000E+00 -0.00000000000E+00 -0.45593999997E+02  0.45594000000E+02  0.51100000000E-03 0. -1.
    9900012    2    1    2    0    0 -0.14060656965E+02 -0.33363274594E+01  0.38004378866E+02  0.50528856278E+02  0.29999989142E+02 0.  0.
         12    1    1    2    0    0  0.14060656965E+02  0.33363274594E+01 -0.38004378866E+02  0.40659143722E+02  0.00000000000E+00 0. -1.
         11    1    3    3    0    0  0.12364995722E+01 -0.75440258015E+01  0.90856398301E-01  0.76452280301E+01  0.51100000000E-03 0. -1.
        -11    1    3    3    0    0 -0.12968249717E+02 -0.10162817222E+01  0.18292926957E+02  0.22446369555E+02  0.51100000000E-03 0.  1.
        -12    1    3    3    0    0 -0.23289068203E+01  0.52239800643E+01  0.19620595511E+02  0.20437258693E+02  0.00000000000E+00 0.  1.
</event>
<event>
 7    1  0.3331850E-011  0.5052886E+02  0.7816164E-02  0.1300439E+00
        -11   -1    0    0    0    0  0.00000000000E+00  0.00000000000E+00  0.45593999997E+02  0.45594000000E+02  0.51100000000E-03 0. -1.
         11   -1    0    0    0    0 -0.00000000000E+00 -0.00000000000E+00 -0.45593999997E+02  0.45594000000E+02  0.51100000000E-03 0.  1.
    9900012    2    1    2    0    0  0.79880401800E+01  0.14070713987E+02 -0.37301093820E+02  0.50528863534E+02  0.30000011197E+02 0.  0.
         12    1    1    2    0    0 -0.79880401800E+01 -0.14070713987E+02  0.37301093820E+02  0.40659136466E+02  0.00000000000E+00 0. -1.
         11    1    3    3    0    0  0.44539259238E+01  0.31949504261E+01  0.41397901859E+01  0.68689902755E+01  0.51100000000E-03 0. -1.
        -11    1    3    3    0    0  0.37190029681E+00 -0.12007474239E+01 -0.36316179393E+01  0.38430135733E+01  0.51100000000E-03 0.  1.
        -12    1    3    3    0    0  0.31622139594E+01  0.12076510984E+02 -0.37809266067E+02  0.39816859685E+02  0.00000000000E+00 0.  1.
</event>
<event>
 7    1  0.3331850E-011  0.5052885E+02  0.7816164E-02  0.1300439E+00
        -11   -1    0    0    0    0  0.00000000000E+00  0.00000000000E+00  0.45593999997E+02  0.45594000000E+02  0.51100000000E-03 0. -1.
         11   -1    0    0    0    0 -0.00000000000E+00 -0.00000000000E+00 -0.45593999997E+02  0.45594000000E+02  0.51100000000E-03 0.  1.
    9900012    2    1    2    0    0  0.25915649049E+02  0.18796233318E+02  0.25064858381E+02  0.50528851236E+02  0.29999973816E+02 0.  0.
         12    1    1    2    0    0 -0.25915649049E+02 -0.18796233318E+02 -0.25064858381E+02  0.40659148764E+02  0.00000000000E+00 0. -1.
         11    1    3    3    0    0  0.19612894696E+02  0.52595145099E+01  0.77926812384E+01  0.21749804882E+02  0.51100000000E-03 0. -1.
        -11    1    3    3    0    0  0.69674092774E+01 -0.21527023116E+01  0.60926775475E+01  0.95026122324E+01  0.51100000000E-03 0.  1.
         12    1    3    3    0    0 -0.66465492453E+00  0.15689421120E+02  0.11179499595E+02  0.19276434122E+02  0.00000000000E+00 0. -1.
</event>
<event>
 7    1  0.3331850E-011  0.5052886E+02  0.7816164E-02  0.1300439E+00
        -11   -1    0    0    0    0  0.00000000000E+00  0.00000000000E+00  0.45593999997E+02  0.45594000000E+02  0.51100000000E-03 0.  1.
         11   -1    0    0    0    0 -0.00000000000E+00 -0.00000000000E+00 -0.45593999997E+02  0.45594000000E+02  0.51100000000E-03 0. -1.
    9900012    2    1    2    0    0 -0.38114186686E+02  0.53922625441E+01  0.13091909690E+02  0.50528858083E+02  0.29999994629E+02 0.  0.
         12    1    1    2    0    0  0.38114186686E+02 -0.53922625441E+01 -0.13091909690E+02  0.40659141917E+02  0.00000000000E+00 0. -1.
         11    1    3    3    0    0 -0.17299259403E+02  0.27010802350E+01 -0.14755976696E+01  0.17570930513E+02  0.51100000000E-03 0. -1.
        -11    1    3    3    0    0 -0.21970592741E+02 -0.43625699541E+01  0.11509173772E+02  0.25183328675E+02  0.51100000000E-03 0.  1.
        -12    1    3    3    0    0  0.11556654580E+01  0.70537522632E+01  0.30583335879E+01  0.77745988948E+01  0.00000000000E+00 0.  1.
</event>
<event>
 7    1  0.3331850E-011  0.5052886E+02  0.7816164E-02  0.1300439E+00
        -11   -1    0    0    0    0  0.00000000000E+00  0.00000000000E+00  0.45593999997E+02  0.45594000000E+02  0.51100000000E-03 0. -1.
         11   -1    0    0    0    0 -0.00000000000E+00 -0.00000000000E+00 -0.45593999997E+02  0.45594000000E+02  0.51100000000E-03 0.  1.
    9900012    2    1    2    0    0  0.16332193603E+02 -0.33358567786E+02 -0.16541794617E+02  0.50528861277E+02  0.30000004336E+02 0.  0.
         12    1    1    2    0    0 -0.16332193603E+02  0.33358567786E+02  0.16541794617E+02  0.40659138723E+02  0.00000000000E+00 0. -1.
         11    1    3    3    0    0 -0.20233299893E+01 -0.12874176384E+02 -0.30544117666E+01  0.13385354434E+02  0.51100000000E-03 0. -1.
        -11    1    3    3    0    0  0.79125799466E+00 -0.11499857388E+02 -0.13047161641E+02  0.17409802879E+02  0.51100000000E-03 0.  1.
         12    1    3    3    0    0  0.17564265597E+02 -0.89845340134E+01 -0.44022120946E+00  0.19733703964E+02  0.00000000000E+00 0. -1.
</event>
<event>
 7    1  0.3331850E-011  0.5052886E+02  0.7816164E-02  0.1300439E+00
        -11   -1    0    0    0    0  0.00000000000E+00  0.00000000000E+00  0.45593999997E+02  0.45594000000E+02  0.51100000000E-03 0.  1.
         11   -1    0    0    0    0 -0.00000000000E+00 -0.00000000000E+00 -0.45593999997E+02  0.45594000000E+02  0.51100000000E-03 0. -1.
    9900012    2    1    2    0    0 -0.26313471880E+01 -0.37497385889E+02  0.15497983980E+02  0.50528862724E+02  0.30000008736E+02 0.  0.
         12    1    1    2    0    0  0.26313471880E+01  0.37497385889E+02 -0.15497983980E+02  0.40659137276E+02  0.00000000000E+00 0. -1.
         11    1    3    3    0    0 -0.89393795796E+01 -0.57372013465E+01  0.79539290120E+01  0.13270002771E+02  0.51100000000E-03 0. -1.
        -11    1    3    3    0    0 -0.43332338946E+01 -0.22442648714E+01 -0.39061635922E+00  0.48955308394E+01  0.51100000000E-03 0.  1.
        -12    1    3    3    0    0  0.10641266286E+02 -0.29515919672E+02  0.79346713275E+01  0.32363329113E+02  0.00000000000E+00 0.  1.
</event>
<event>
 7    1  0.3331850E-011  0.5052887E+02  0.7816164E-02  0.1300439E+00
        -11   -1    0    0    0    0  0.00000000000E+00  0.00000000000E+00  0.45593999997E+02  0.45594000000E+02  0.51100000000E-03 0.  1.
         11   -1    0    0    0    0 -0.00000000000E+00 -0.00000000000E+00 -0.45593999997E+02  0.45594000000E+02  0.51100000000E-03 0. -1.
    9900012    2    1    2    0    0 -0.38280265237E+02  0.13064551830E+02  0.41356298339E+01  0.50528872424E+02  0.30000038219E+02 0.  0.
         12    1    1    2    0    0  0.38280265237E+02 -0.13064551830E+02 -0.41356298339E+01  0.40659127576E+02  0.00000000000E+00 0. -1.
         11    1    3    3    0    0 -0.73139379043E+01 -0.19508666871E-01  0.89648040938E+01  0.11569865209E+02  0.51100000000E-03 0. -1.
        -11    1    3    3    0    0 -0.25318364190E+01  0.52204241927E+01  0.52079422477E+01  0.77965176278E+01  0.51100000000E-03 0.  1.
         12    1    3    3    0    0 -0.28434490914E+02  0.78636363043E+01 -0.10037116508E+02  0.31162489587E+02  0.00000000000E+00 0. -1.
</event>
<event>
 7    1  0.3331850E-011  0.5052886E+02  0.7816164E-02  0.1300439E+00
        -11   -1    0    0    0    0  0.00000000000E+00  0.00000000000E+00  0.45593999997E+02  0.45594000000E+02  0.51100000000E-03 0. -1.
         11   -1    0    0    0    0 -0.00000000000E+00 -0.00000000000E+00 -0.45593999997E+02  0.45594000000E+02  0.51100000000E-03 0.  1.
    9900012    2    1    2    0    0  0.10852404877E+02 -0.39066386564E+02  0.30345396512E+01  0.50528859802E+02  0.29999999853E+02 0.  0.
         12    1    1    2    0    0 -0.10852404877E+02  0.39066386564E+02 -0.30345396512E+01  0.40659140198E+02  0.00000000000E+00 0. -1.
         11    1    3    3    0    0  0.37424697352E+01 -0.29803318806E+02 -0.80978965891E+01  0.31109802652E+02  0.51100000000E-03 0. -1.
        -11    1    3    3    0    0 -0.86366795133E+00 -0.50729160123E+01  0.61001659210E-01  0.51462725017E+01  0.51100000000E-03 0.  1.
         12    1    3    3    0    0  0.79736030935E+01 -0.41901517450E+01  0.11071434581E+02  0.14272784648E+02  0.00000000000E+00 0. -1.
</event>
<event>
 7    1  0.3331850E-011  0.5052884E+02  0.7816164E-02  0.1300439E+00
        -11   -1    0    0    0    0  0.00000000000E+00  0.00000000000E+00  0.45593999997E+02  0.45594000000E+02  0.51100000000E-03 0.  1.
         11   -1    0    0    0    0 -0.00000000000E+00 -0.00000000000E+00 -0.45593999997E+02  0.45594000000E+02  0.51100000000E-03 0. -1.
    9900012    2    1    2    0    0 -0.43606797175E+01  0.11650951553E+02  0.38709259864E+02  0.50528843603E+02  0.29999950617E+02 0.  0.
         12    1    1    2    0    0  0.43606797175E+01 -0.11650951553E+02 -0.38709259864E+02  0.40659156397E+02  0.00000000000E+00 0. -1.
         11    1    3    3    0    0 -0.66065608933E+01  0.44477201034E+01  0.75605907485E+00  0.80000304088E+01  0.51100000000E-03 0.  1.
        -11    1    3    3    0    0 -0.72264365984E+01  0.49177166315E+01  0.23723285630E+02  0.25282397120E+02  0.51100000000E-03 0. -1.
         12    1    3    3    0    0  0.94723177743E+01  0.22855148178E+01  0.14229915159E+02  0.17246416075E+02  0.00000000000E+00 0. -1.
</event>
<event>
 7    1  0.3331850E-011  0.5052885E+02  0.7816164E-02  0.1300439E+00
        -11   -1    0    0    0    0  0.00000000000E+00  0.00000000000E+00  0.45593999997E+02  0.45594000000E+02  0.51100000000E-03 0. -1.
         11   -1    0    0    0    0 -0.00000000000E+00 -0.00000000000E+00 -0.45593999997E+02  0.45594000000E+02  0.51100000000E-03 0.  1.
    9900012    2    1    2    0    0  0.40902640022E+01 -0.99963680169E+01 -0.39198326371E+02  0.50528850680E+02  0.29999972128E+02 0.  0.
         12    1    1    2    0    0 -0.40902640022E+01  0.99963680169E+01  0.39198326371E+02  0.40659149320E+02  0.00000000000E+00 0. -1.
         11    1    3    3    0    0 -0.39732833380E+01 -0.77366984821E+01 -0.10081926819E+02  0.13314981507E+02  0.51100000000E-03 0. -1.
        -11    1    3    3    0    0 -0.49623591386E+01  0.16329027858E+01 -0.20414485342E+02  0.21072318140E+02  0.51100000000E-03 0.  1.
         12    1    3    3    0    0  0.13025906479E+02 -0.38925723207E+01 -0.87019142096E+01  0.16141551034E+02  0.00000000000E+00 0. -1.
</event>
<event>
 7    1  0.3331850E-011  0.5052886E+02  0.7816164E-02  0.1300439E+00
        -11   -1    0    0    0    0  0.00000000000E+00  0.00000000000E+00  0.45593999997E+02  0.45594000000E+02  0.51100000000E-03 0.  1.
         11   -1    0    0    0    0 -0.00000000000E+00 -0.00000000000E+00 -0.45593999997E+02  0.45594000000E+02  0.51100000000E-03 0. -1.
    9900012    2    1    2    0    0  0.16052202941E+02 -0.19748772726E+02  0.31709282132E+02  0.50528858141E+02  0.29999994804E+02 0.  0.
         12    1    1    2    0    0 -0.16052202941E+02  0.19748772726E+02 -0.31709282132E+02  0.40659141859E+02  0.00000000000E+00 0. -1.
         11    1    3    3    0    0  0.72499957997E+01  0.46930155870E+01  0.56607530553E+01  0.10326226794E+02  0.51100000000E-03 0. -1.
        -11    1    3    3    0    0  0.45552077034E+01 -0.35561310713E+01 -0.89580037529E+00  0.58479435694E+01  0.51100000000E-03 0.  1.
        -12    1    3    3    0    0  0.42469994381E+01 -0.20885657241E+02  0.26944329452E+02  0.34354687777E+02  0.00000000000E+00 0.  1.
</event>
<event>
 7    1  0.3331850E-011  0.5052885E+02  0.7816164E-02  0.1300439E+00
        -11   -1    0    0    0    0  0.00000000000E+00  0.00000000000E+00  0.45593999997E+02  0.45594000000E+02  0.51100000000E-03 0.  1.
         11   -1    0    0    0    0 -0.00000000000E+00 -0.00000000000E+00 -0.45593999997E+02  0.45594000000E+02  0.51100000000E-03 0. -1.
    9900012    2    1    2    0    0  0.37702572656E+02  0.68727076051E+01 -0.13581171668E+02  0.50528851969E+02  0.29999976044E+02 0.  0.
         12    1    1    2    0    0 -0.37702572656E+02 -0.68727076051E+01  0.13581171668E+02  0.40659148031E+02  0.00000000000E+00 0. -1.
         11    1    3    3    0    0  0.31650407169E+00 -0.17855803187E+01 -0.39038557624E+01  0.43044816153E+01  0.51100000000E-03 0. -1.
        -11    1    3    3    0    0  0.27137215746E+02  0.88276446221E+01  0.43337742598E+01  0.28864119380E+02  0.51100000000E-03 0.  1.
         12    1    3    3    0    0  0.10248852839E+02 -0.16935669832E+00 -0.14011090166E+02  0.17360250973E+02  0.00000000000E+00 0. -1.
</event>
<event>
 7    1  0.3331850E-011  0.5052886E+02  0.7816164E-02  0.1300439E+00
        -11   -1    0    0    0    0  0.00000000000E+00  0.00000000000E+00  0.45593999997E+02  0.45594000000E+02  0.51100000000E-03 0. -1.
         11   -1    0    0    0    0 -0.00000000000E+00 -0.00000000000E+00 -0.45593999997E+02  0.45594000000E+02  0.51100000000E-03 0.  1.
    9900012    2    1    2    0    0 -0.20086291723E+02  0.27281333973E+02 -0.22481894265E+02  0.50528857507E+02  0.29999992878E+02 0.  0.
         12    1    1    2    0    0  0.20086291723E+02 -0.27281333973E+02  0.22481894265E+02  0.40659142493E+02  0.00000000000E+00 0. -1.
         11    1    3    3    0    0 -0.31533900753E+01  0.45890840119E+01 -0.19405658250E+01  0.58965546735E+01  0.51100000000E-03 0. -1.
        -11    1    3    3    0    0 -0.98130948143E+01 -0.22978182437E+01 -0.14987217469E+02  0.18060827396E+02  0.51100000000E-03 0.  1.
        -12    1    3    3    0    0 -0.71198068333E+01  0.24990068205E+02 -0.55541109715E+01  0.26571475437E+02  0.00000000000E+00 0.  1.
</event>
<event>
 7    1  0.3331850E-011  0.5052886E+02  0.7816164E-02  0.1300439E+00
        -11   -1    0    0    0    0  0.00000000000E+00  0.00000000000E+00  0.45593999997E+02  0.45594000000E+02  0.51100000000E-03 0. -1.
         11   -1    0    0    0    0 -0.00000000000E+00 -0.00000000000E+00 -0.45593999997E+02  0.45594000000E+02  0.51100000000E-03 0.  1.
    9900012    2    1    2    0    0  0.76062728019E+01 -0.35917784345E+02  0.17470645208E+02  0.50528855122E+02  0.29999985630E+02 0.  0.
         12    1    1    2    0    0 -0.76062728019E+01  0.35917784345E+02 -0.17470645208E+02  0.40659144878E+02  0.00000000000E+00 0. -1.
         11    1    3    3    0    0  0.14231450928E+02 -0.20892982007E+02 -0.59496550012E+00  0.25286456392E+02  0.51100000000E-03 0. -1.
        -11    1    3    3    0    0 -0.13645453130E+01 -0.66261956280E+01  0.34778807556E+01  0.76068460759E+01  0.51100000000E-03 0.  1.
         12    1    3    3    0    0 -0.52606328128E+01 -0.83986067098E+01  0.14587729953E+02  0.17635552655E+02  0.00000000000E+00 0. -1.
</event>
<event>
 7    1  0.3331850E-011  0.5052890E+02  0.7816164E-02  0.1300439E+00
        -11   -1    0    0    0    0  0.00000000000E+00  0.00000000000E+00  0.45593999997E+02  0.45594000000E+02  0.51100000000E-03 0.  1.
         11   -1    0    0    0    0 -0.00000000000E+00 -0.00000000000E+00 -0.45593999997E+02  0.45594000000E+02  0.51100000000E-03 0. -1.
    9900012    2    1    2    0    0  0.29476916019E+02 -0.13722706406E+02  0.24412318148E+02  0.50528898602E+02  0.30000117791E+02 0.  0.
         12    1    1    2    0    0 -0.29476916019E+02  0.13722706406E+02 -0.24412318148E+02  0.40659101398E+02  0.00000000000E+00 0. -1.
         11    1    3    3    0    0  0.16846451039E+02 -0.85740012160E+01  0.21224220586E+02  0.28421540233E+02  0.51100000000E-03 0.  1.
        -11    1    3    3    0    0 -0.16965982460E+01 -0.64997219952E+01  0.37735423641E+01  0.77048331493E+01  0.51100000000E-03 0. -1.
        -12    1    3    3    0    0  0.14327063226E+02  0.13510168051E+01 -0.58544480254E+00  0.14402525220E+02  0.00000000000E+00 0.  1.
</event>
<event>
 7    1  0.3331850E-011  0.5052886E+02  0.7816164E-02  0.1300439E+00
        -11   -1    0    0    0    0  0.00000000000E+00  0.00000000000E+00  0.45593999997E+02  0.45594000000E+02  0.51100000000E-03 0.  1.
         11   -1    0    0    0    0 -0.00000000000E+00 -0.00000000000E+00 -0.45593999997E+02  0.45594000000E+02  0.51100000000E-03 0. -1.
    9900012    2    1    2    0    0  0.86043721617E+01 -0.31238940984E+02  0.24561327721E+02  0.50528862362E+02  0.30000007634E+02 0.  0.
         12    1    1    2    0    0 -0.86043721617E+01  0.31238940984E+02 -0.24561327721E+02  0.40659137638E+02  0.00000000000E+00 0. -1.
         11    1    3    3    0    0  0.30773332374E+01 -0.26326528411E+01  0.38977388605E+01  0.56207836929E+01  0.51100000000E-03 0. -1.
        -11    1    3    3    0    0  0.74229540670E+01 -0.31571875587E+02  0.23772279963E+02  0.40211999081E+02  0.51100000000E-03 0.  1.
         12    1    3    3    0    0 -0.18959151427E+01  0.29655874448E+01 -0.31086911027E+01  0.46960795876E+01  0.00000000000E+00 0. -1.
</event>
<event>
 7    1  0.3331850E-011  0.5052886E+02  0.7816164E-02  0.1300439E+00
        -11   -1    0    0    0    0  0.00000000000E+00  0.00000000000E+00  0.45593999997E+02  0.45594000000E+02  0.51100000000E-03 0.  1.
         11   -1    0    0    0    0 -0.00000000000E+00 -0.00000000000E+00 -0.45593999997E+02  0.45594000000E+02  0.51100000000E-03 0. -1.
    9900012    2    1    2    0    0 -0.51942769558E+01  0.35853795396E+02  0.18457792721E+02  0.50528864870E+02  0.30000015259E+02 0.  0.
         12    1    1    2    0    0  0.51942769558E+01 -0.35853795396E+02 -0.18457792721E+02  0.40659135130E+02  0.00000000000E+00 0. -1.
         11    1    3    3    0    0  0.83211647867E+00 -0.14776044889E+01 -0.12318627149E+01  0.20960006844E+01  0.51100000000E-03 0. -1.
        -11    1    3    3    0    0 -0.71273578553E+00  0.49989740710E+01 -0.52280219241E+01  0.72684212565E+01  0.51100000000E-03 0.  1.
        -12    1    3    3    0    0 -0.53136576490E+01  0.32332425814E+02  0.24917677360E+02  0.41164442929E+02  0.00000000000E+00 0.  1.
</event>
<event>
 7    1  0.3331850E-011  0.5052884E+02  0.7816164E-02  0.1300439E+00
        -11   -1    0    0    0    0  0.00000000000E+00  0.00000000000E+00  0.45593999997E+02  0.45594000000E+02  0.51100000000E-03 0.  1.
         11   -1    0    0    0    0 -0.00000000000E+00 -0.00000000000E+00 -0.45593999997E+02  0.45594000000E+02  0.51100000000E-03 0. -1.
    9900012    2    1    2    0    0 -0.10125292963E+02  0.11701134573E+02  0.37599593658E+02  0.50528836812E+02  0.29999929974E+02 0.  0.
         12    1    1    2    0    0  0.10125292963E+02 -0.11701134573E+02 -0.37599593658E+02  0.40659163188E+02  0.00000000000E+00 0. -1.
         11    1    3    3    0    0 -0.47444483157E+00 -0.14878911615E+01  0.32578208534E+01  0.36127987739E+01  0.51100000000E-03 0. -1.
        -11    1    3    3    0    0 -0.98915981913E+01  0.11259085103E+02  0.39047167455E+02  0.41824538236E+02  0.51100000000E-03 0.  1.
         12    1    3    3    0    0  0.24075006007E+00  0.19299406309E+01 -0.47053946497E+01  0.50914998026E+01  0.00000000000E+00 0. -1.
</event>
<event>
 7    1  0.3331850E-011  0.5052886E+02  0.7816164E-02  0.1300439E+00
        -11   -1    0    0    0    0  0.00000000000E+00  0.00000000000E+00  0.45593999997E+02  0.45594000000E+02  0.51100000000E-03 0. -1.
         11   -1    0    0    0    0 -0.00000000000E+00 -0.00000000000E+00 -0.45593999997E+02  0.45594000000E+02  0.51100000000E-03 0.  1.
    9900012    2    1    2    0    0 -0.17240576783E+02  0.35806743993E+02  0.85910150690E+01  0.50528856587E+02  0.29999990081E+02 0.  0.
         12    1    1    2    0    0  0.17240576783E+02 -0.35806743993E+02 -0.85910150690E+01  0.40659143413E+02  0.00000000000E+00 0. -1.
         11    1    3    3    0    0  0.55182800257E+01  0.73708650501E+00  0.10064666487E+01  0.56575335911E+01  0.51100000000E-03 0. -1.
        -11    1    3    3    0    0 -0.68760204072E+01  0.15621099126E+02  0.97707318789E+01  0.19666356964E+02  0.51100000000E-03 0.  1.
         12    1    3    3    0    0 -0.15882836402E+02  0.19448558362E+02 -0.21861834586E+01  0.25204966031E+02  0.00000000000E+00 0. -1.
</event>
<event>
 7    1  0.3331850E-011  0.5052886E+02  0.7816164E-02  0.1300439E+00
        -11   -1    0    0    0    0  0.00000000000E+00  0.00000000000E+00  0.45593999997E+02  0.45594000000E+02  0.51100000000E-03 0. -1.
         11   -1    0    0    0    0 -0.00000000000E+00 -0.00000000000E+00 -0.45593999997E+02  0.45594000000E+02  0.51100000000E-03 0.  1.
    9900012    2    1    2    0    0 -0.33053020109E+02  0.22297065322E+02 -0.79689546601E+01  0.50528862051E+02  0.30000006691E+02 0.  0.
         12    1    1    2    0    0  0.33053020109E+02 -0.22297065322E+02  0.79689546601E+01  0.40659137949E+02  0.00000000000E+00 0. -1.
         11    1    3    3    0    0 -0.41868323869E+01 -0.23056022354E+01 -0.86154040431E+00  0.48567086832E+01  0.51100000000E-03 0. -1.
        -11    1    3    3    0    0 -0.16598231529E+02 -0.10900189889E+01 -0.21478376140E+01  0.16772079119E+02  0.51100000000E-03 0.  1.
         12    1    3    3    0    0 -0.12267956193E+02  0.25692686547E+02 -0.49595766417E+01  0.28900074249E+02  0.00000000000E+00 0. -1.
</event>
<event>
 7    1  0.3331850E-011  0.5052886E+02  0.7816164E-02  0.1300439E+00
        -11   -1    0    0    0    0  0.00000000000E+00  0.00000000000E+00  0.45593999997E+02  0.45594000000E+02  0.51100000000E-03 0.  1.
         11   -1    0    0    0    0 -0.00000000000E+00 -0.00000000000E+00 -0.45593999997E+02  0.45594000000E+02  0.51100000000E-03 0. -1.
    9900012    2    1    2    0    0 -0.11704071535E+02  0.27218356571E+02  0.27844956783E+02  0.50528857816E+02  0.29999993818E+02 0.  0.
         12    1    1    2    0    0  0.11704071535E+02 -0.27218356571E+02 -0.27844956783E+02  0.40659142184E+02  0.00000000000E+00 0. -1.
         11    1    3    3    0    0  0.62341182878E+00  0.11459568447E+02  0.27524883843E+02  0.29821629434E+02  0.51100000000E-03 0. -1.
        -11    1    3    3    0    0 -0.43353687667E+01  0.19664386662E+01  0.23744422685E+00  0.47664120041E+01  0.51100000000E-03 0.  1.
        -12    1    3    3    0    0 -0.79921145969E+01  0.13792349458E+02  0.82628712940E-01  0.15940816378E+02  0.00000000000E+00 0.  1.
</event>
<event>
 7    1  0.3331850E-011  0.5052886E+02  0.7816164E-02  0.1300439E+00
        -11   -1    0    0    0    0  0.00000000000E+00  0.00000000000E+00  0.45593999997E+02  0.45594000000E+02  0.51100000000E-03 0.  1.
         11   -1    0    0    0    0 -0.00000000000E+00 -0.00000000000E+00 -0.45593999997E+02  0.45594000000E+02  0.51100000000E-03 0. -1.
    9900012    2    1    2    0    0  0.20521178258E+02 -0.22338073467E+01  0.35029372622E+02  0.50528860822E+02  0.30000002956E+02 0.  0.
         12    1    1    2    0    0 -0.20521178258E+02  0.22338073467E+01 -0.35029372622E+02  0.40659139178E+02  0.00000000000E+00 0. -1.
         11    1    3    3    0    0  0.92484941680E+01  0.87145208710E+01  0.12046741961E+02  0.17510040278E+02  0.51100000000E-03 0. -1.
        -11    1    3    3    0    0 -0.18833271909E+01  0.27455446337E+01  0.16566203427E+00  0.33335237833E+01  0.51100000000E-03 0.  1.
         12    1    3    3    0    0  0.13156011281E+02 -0.13693872851E+02  0.22816968627E+02  0.29685296762E+02  0.00000000000E+00 0. -1.
</event>
<event>
 7    1  0.3331850E-011  0.5052886E+02  0.7816164E-02  0.1300439E+00
        -11   -1    0    0    0    0  0.00000000000E+00  0.00000000000E+00  0.45593999997E+02  0.45594000000E+02  0.51100000000E-03 0.  1.
         11   -1    0    0    0    0 -0.00000000000E+00 -0.00000000000E+00 -0.45593999997E+02  0.45594000000E+02  0.51100000000E-03 0. -1.
    9900012    2    1    2    0    0 -0.28600841211E+02  0.10448061289E+02  0.26944307826E+02  0.50528858016E+02  0.29999994424E+02 0.  0.
         12    1    1    2    0    0  0.28600841211E+02 -0.10448061289E+02 -0.26944307826E+02  0.40659141984E+02  0.00000000000E+00 0. -1.
         11    1    3    3    0    0 -0.12948437921E+02 -0.64755202027E+01  0.14964074008E+01  0.14554505895E+02  0.51100000000E-03 0. -1.
        -11    1    3    3    0    0 -0.67480548340E+01  0.53455658177E+00  0.64178780755E+01  0.93279769529E+01  0.51100000000E-03 0.  1.
         12    1    3    3    0    0 -0.89043484562E+01  0.16389024910E+02  0.19030022350E+02  0.26646375167E+02  0.00000000000E+00 0. -1.
</event>
<event>
 7    1  0.3331850E-011  0.5052880E+02  0.7816164E-02  0.1300439E+00
        -11   -1    0    0    0    0  0.00000000000E+00  0.00000000000E+00  0.45593999997E+02  0.45594000000E+02  0.51100000000E-03 0.  1.
         11   -1    0    0    0    0 -0.00000000000E+00 -0.00000000000E+00 -0.45593999997E+02  0.45594000000E+02  0.51100000000E-03 0. -1.
    9900012    2    1    2    0    0 -0.36026486670E+02 -0.17868047188E+01  0.18763525261E+02  0.50528803093E+02  0.29999827482E+02 0.  0.
         12    1    1    2    0    0  0.36026486670E+02  0.17868047188E+01 -0.18763525261E+02  0.40659196907E+02  0.00000000000E+00 0. -1.
         11    1    3    3    0    0 -0.23625619327E+01  0.10828124285E+01  0.98613550367E+01  0.10198063790E+02  0.51100000000E-03 0. -1.
        -11    1    3    3    0    0 -0.13774787402E+02 -0.43647296348E+01  0.13596087232E+02  0.19840595279E+02  0.51100000000E-03 0.  1.
         12    1    3    3    0    0 -0.19889137334E+02  0.14951124874E+01 -0.46939170071E+01  0.20490144024E+02  0.00000000000E+00 0. -1.
</event>
<event>
 7    1  0.3331850E-011  0.5052886E+02  0.7816164E-02  0.1300439E+00
        -11   -1    0    0    0    0  0.00000000000E+00  0.00000000000E+00  0.45593999997E+02  0.45594000000E+02  0.51100000000E-03 0.  1.
         11   -1    0    0    0    0 -0.00000000000E+00 -0.00000000000E+00 -0.45593999997E+02  0.45594000000E+02  0.51100000000E-03 0. -1.
    9900012    2    1    2    0    0  0.14739764409E+02  0.23974746704E+02  0.29344788069E+02  0.50528859316E+02  0.29999998377E+02 0.  0.
         12    1    1    2    0    0 -0.14739764409E+02 -0.23974746704E+02 -0.29344788069E+02  0.40659140684E+02  0.00000000000E+00 0. -1.
         11    1    3    3    0    0  0.14340573009E+02  0.11594722435E+02  0.17575132762E+02  0.25474986054E+02  0.51100000000E-03 0. -1.
        -11    1    3    3    0    0  0.75686169346E+01 -0.25399382534E+00  0.45138737799E+01  0.88160950498E+01  0.51100000000E-03 0.  1.
         12    1    3    3    0    0 -0.71694255351E+01  0.12634018095E+02  0.72557815266E+01  0.16237778213E+02  0.00000000000E+00 0. -1.
</event>
<event>
 7    1  0.3331850E-011  0.5052886E+02  0.7816164E-02  0.1300439E+00
        -11   -1    0    0    0    0  0.00000000000E+00  0.00000000000E+00  0.45593999997E+02  0.45594000000E+02  0.51100000000E-03 0.  1.
         11   -1    0    0    0    0 -0.00000000000E+00 -0.00000000000E+00 -0.45593999997E+02  0.45594000000E+02  0.51100000000E-03 0. -1.
    9900012    2    1    2    0    0  0.33692895790E+02  0.53493618038E+01  0.22120997660E+02  0.50528862824E+02  0.30000009039E+02 0.  0.
         12    1    1    2    0    0 -0.33692895790E+02 -0.53493618038E+01 -0.22120997660E+02  0.40659137176E+02  0.00000000000E+00 0. -1.
         11    1    3    3    0    0 -0.50542396069E+00  0.12239829749E+01  0.51536449003E-01  0.13252335528E+01  0.51100000000E-03 0. -1.
        -11    1    3    3    0    0  0.12938231025E+02 -0.18776267066E+01  0.23684573467E+02  0.27053323727E+02  0.51100000000E-03 0.  1.
         12    1    3    3    0    0  0.21260088726E+02  0.60030055356E+01 -0.16151122556E+01  0.22150305544E+02  0.00000000000E+00 0. -1.
</event>
<event>
 7    1  0.3331850E-011  0.5052890E+02  0.7816164E-02  0.1300439E+00
        -11   -1    0    0    0    0  0.00000000000E+00  0.00000000000E+00  0.45593999997E+02  0.45594000000E+02  0.51100000000E-03 0.  1.
         11   -1    0    0    0    0 -0.00000000000E+00 -0.00000000000E+00 -0.45593999997E+02  0.45594000000E+02  0.51100000000E-03 0. -1.
    9900012    2    1    2    0    0  0.31701679334E+02  0.18188090573E+02  0.17814592282E+02  0.50528895122E+02  0.30000107213E+02 0.  0.
         12    1    1    2    0    0 -0.31701679334E+02 -0.18188090573E+02 -0.17814592282E+02  0.40659104878E+02  0.00000000000E+00 0. -1.
         11    1    3    3    0    0  0.29306502109E+02  0.16457573445E+02  0.17995974392E+02  0.38125816504E+02  0.51100000000E-03 0.  1.
        -11    1    3    3    0    0  0.10266480415E+01  0.69336880662E+01  0.17152961231E+00  0.70113806821E+01  0.51100000000E-03 0. -1.
        -12    1    3    3    0    0  0.13685291843E+01 -0.52031709387E+01 -0.35291172208E+00  0.53916979356E+01  0.00000000000E+00 0.  1.
</event>
<event>
 7    1  0.3331850E-011  0.5052886E+02  0.7816164E-02  0.1300439E+00
        -11   -1    0    0    0    0  0.00000000000E+00  0.00000000000E+00  0.45593999997E+02  0.45594000000E+02  0.51100000000E-03 0.  1.
         11   -1    0    0    0    0 -0.00000000000E+00 -0.00000000000E+00 -0.45593999997E+02  0.45594000000E+02  0.51100000000E-03 0. -1.
    9900012    2    1    2    0    0 -0.37683939483E+02 -0.15012751298E+02  0.27754919348E+01  0.50528863856E+02  0.30000012177E+02 0.  0.
         12    1    1    2    0    0  0.37683939483E+02  0.15012751298E+02 -0.27754919348E+01  0.40659136144E+02  0.00000000000E+00 0. -1.
         11    1    3    3    0    0 -0.61559973095E+01  0.35658371778E+01 -0.67695235652E+00  0.71463111048E+01  0.51100000000E-03 0. -1.
        -11    1    3    3    0    0 -0.10840254294E+02 -0.74667394065E+00 -0.82758626663E+01  0.13658643353E+02  0.51100000000E-03 0.  1.
         12    1    3    3    0    0 -0.20687687880E+02 -0.17831914535E+02  0.11728306958E+02  0.29723909398E+02  0.00000000000E+00 0. -1.
</event>
<event>
 7    1  0.3331850E-011  0.5052887E+02  0.7816164E-02  0.1300439E+00
        -11   -1    0    0    0    0  0.00000000000E+00  0.00000000000E+00  0.45593999997E+02  0.45594000000E+02  0.51100000000E-03 0.  1.
         11   -1    0    0    0    0 -0.00000000000E+00 -0.00000000000E+00 -0.45593999997E+02  0.45594000000E+02  0.51100000000E-03 0. -1.
    9900012    2    1    2    0    0 -0.24160867587E+02 -0.29332205926E+02  0.14458191731E+02  0.50528866522E+02  0.30000020280E+02 0.  0.
         12    1    1    2    0    0  0.24160867587E+02  0.29332205926E+02 -0.14458191731E+02  0.40659133478E+02  0.00000000000E+00 0. -1.
         11    1    3    3    0    0  0.26295473287E+01 -0.17818958645E+01  0.27311560631E+01  0.41891390199E+01  0.51100000000E-03 0. -1.
        -11    1    3    3    0    0 -0.17700342273E+02 -0.24866626150E+02  0.17557073269E+02  0.35212242682E+02  0.51100000000E-03 0.  1.
         12    1    3    3    0    0 -0.90900726425E+01 -0.26836839116E+01 -0.58300376013E+01  0.11127484820E+02  0.00000000000E+00 0. -1.
</event>
<event>
 7    1  0.3331850E-011  0.5052886E+02  0.7816164E-02  0.1300439E+00
        -11   -1    0    0    0    0  0.00000000000E+00  0.00000000000E+00  0.45593999997E+02  0.45594000000E+02  0.51100000000E-03 0. -1.
         11   -1    0    0    0    0 -0.00000000000E+00 -0.00000000000E+00 -0.45593999997E+02  0.45594000000E+02  0.51100000000E-03 0.  1.
    9900012    2    1    2    0    0  0.27343582615E+02  0.14885847380E+01 -0.30054586882E+02  0.50528860961E+02  0.30000003377E+02 0.  0.
         12    1    1    2    0    0 -0.27343582615E+02 -0.14885847380E+01  0.30054586882E+02  0.40659139039E+02  0.00000000000E+00 0. -1.
         11    1    3    3    0    0  0.12401452895E+02 -0.10548429622E+02 -0.97389216223E+01  0.18971346711E+02  0.51100000000E-03 0. -1.
        -11    1    3    3    0    0  0.44654154694E+01 -0.24131909852E+01 -0.92669984141E+01  0.10566015612E+02  0.51100000000E-03 0.  1.
        -12    1    3    3    0    0  0.10476714251E+02  0.14450205345E+02 -0.11048666846E+02  0.20991498638E+02  0.00000000000E+00 0.  1.
</event>
<event>
 7    1  0.3815064E-011  0.5052886E+02  0.7816164E-02  0.1300439E+00
        -11   -1    0    0    0    0  0.00000000000E+00  0.00000000000E+00  0.45593999997E+02  0.45594000000E+02  0.51100000000E-03 0.  1.
         11   -1    0    0    0    0 -0.00000000000E+00 -0.00000000000E+00 -0.45593999997E+02  0.45594000000E+02  0.51100000000E-03 0. -1.
    9900012    2    1    2    0    0 -0.19615646793E+02  0.31417567979E+02  0.16772848629E+02  0.50528860462E+02  0.30000001862E+02 0.  0.
         12    1    1    2    0    0  0.19615646793E+02 -0.31417567979E+02 -0.16772848629E+02  0.40659139538E+02  0.00000000000E+00 0. -1.
         11    1    3    3    0    0  0.22312594772E+01  0.89665649666E+01  0.10298582601E+02  0.13836134215E+02  0.51100000000E-03 0. -1.
        -11    1    3    3    0    0 -0.97224629824E+01  0.21570556469E+02  0.64974259049E+01  0.24536335026E+02  0.51100000000E-03 0.  1.
         12    1    3    3    0    0 -0.12124443288E+02  0.88044654280E+00 -0.23159877282E-01  0.12156391222E+02  0.00000000000E+00 0. -1.
</event>
<event>
 7    1  0.3331850E-011  0.5052886E+02  0.7816164E-02  0.1300439E+00
        -11   -1    0    0    0    0  0.00000000000E+00  0.00000000000E+00  0.45593999997E+02  0.45594000000E+02  0.51100000000E-03 0.  1.
         11   -1    0    0    0    0 -0.00000000000E+00 -0.00000000000E+00 -0.45593999997E+02  0.45594000000E+02  0.51100000000E-03 0. -1.
    9900012    2    1    2    0    0 -0.31750110762E+02 -0.98001020217E+01  0.23431907269E+02  0.50528858207E+02  0.29999995006E+02 0.  0.
         12    1    1    2    0    0  0.31750110762E+02  0.98001020217E+01 -0.23431907269E+02  0.40659141793E+02  0.00000000000E+00 0. -1.
         11    1    3    3    0    0  0.12880094132E+00  0.28039198718E+01 -0.30513287943E+01  0.41459816693E+01  0.51100000000E-03 0. -1.
        -11    1    3    3    0    0 -0.12072107002E+02 -0.20055293949E+00  0.14895015595E+01  0.12165303289E+02  0.51100000000E-03 0.  1.
        -12    1    3    3    0    0 -0.19806804701E+02 -0.12403468954E+02  0.24993734504E+02  0.34217573249E+02  0.00000000000E+00 0.  1.
</event>
<event>
 7    1  0.3331850E-011  0.5052882E+02  0.7816164E-02  0.1300439E+00
        -11   -1    0    0    0    0  0.00000000000E+00  0.00000000000E+00  0.45593999997E+02  0.45594000000E+02  0.51100000000E-03 0. -1.
         11   -1    0    0    0    0 -0.00000000000E+00 -0.00000000000E+00 -0.45593999997E+02  0.45594000000E+02  0.51100000000E-03 0.  1.
    9900012    2    1    2    0    0  0.18940748151E+02 -0.13614471325E+02 -0.33302593650E+02  0.50528824974E+02  0.29999893991E+02 0.  0.
         12    1    1    2    0    0 -0.18940748151E+02  0.13614471325E+02  0.33302593650E+02  0.40659175026E+02  0.00000000000E+00 0. -1.
         11    1    3    3    0    0 -0.29305670636E+01  0.10657575112E+01  0.78207485499E+00  0.32149189300E+01  0.51100000000E-03 0. -1.
        -11    1    3    3    0    0  0.25272245838E+02 -0.14866600394E+02 -0.29399157816E+02  0.41521231888E+02  0.51100000000E-03 0.  1.
         12    1    3    3    0    0 -0.34009306233E+01  0.18637155749E+00 -0.46855106891E+01  0.57926741562E+01  0.00000000000E+00 0. -1.
</event>
<event>
 7    1  0.3331850E-011  0.5052888E+02  0.7816164E-02  0.1300439E+00
        -11   -1    0    0    0    0  0.00000000000E+00  0.00000000000E+00  0.45593999997E+02  0.45594000000E+02  0.51100000000E-03 0. -1.
         11   -1    0    0    0    0 -0.00000000000E+00 -0.00000000000E+00 -0.45593999997E+02  0.45594000000E+02  0.51100000000E-03 0.  1.
    9900012    2    1    2    0    0 -0.33229895599E+02 -0.12348102575E+02 -0.19911368140E+02  0.50528878269E+02  0.30000055987E+02 0.  0.
         12    1    1    2    0    0  0.33229895599E+02  0.12348102575E+02  0.19911368140E+02  0.40659121731E+02  0.00000000000E+00 0. -1.
         11    1    3    3    0    0 -0.21994237287E+00  0.65713671275E+00  0.31516345006E+01  0.32269185910E+01  0.51100000000E-03 0. -1.
        -11    1    3    3    0    0  0.19930262889E+01  0.63776606695E+00  0.13577267290E+01  0.24944581528E+01  0.51100000000E-03 0.  1.
        -12    1    3    3    0    0 -0.35002979515E+02 -0.13643005355E+02 -0.24420729369E+02  0.44807501525E+02  0.00000000000E+00 0.  1.
</event>
<event>
 7    1  0.3331850E-011  0.5052886E+02  0.7816164E-02  0.1300439E+00
        -11   -1    0    0    0    0  0.00000000000E+00  0.00000000000E+00  0.45593999997E+02  0.45594000000E+02  0.51100000000E-03 0. -1.
         11   -1    0    0    0    0 -0.00000000000E+00 -0.00000000000E+00 -0.45593999997E+02  0.45594000000E+02  0.51100000000E-03 0.  1.
    9900012    2    1    2    0    0 -0.28841946604E+02  0.26814130856E+02 -0.10114845282E+02  0.50528860898E+02  0.30000003185E+02 0.  0.
         12    1    1    2    0    0  0.28841946604E+02 -0.26814130856E+02  0.10114845282E+02  0.40659139102E+02  0.00000000000E+00 0. -1.
         11    1    3    3    0    0 -0.14819634349E+01  0.38884531711E+01 -0.47091247630E+01  0.62842772044E+01  0.51100000000E-03 0. -1.
        -11    1    3    3    0    0 -0.23133748533E+02  0.21411631988E+02 -0.14044429248E+02  0.34509046622E+02  0.51100000000E-03 0.  1.
         12    1    3    3    0    0 -0.42262346356E+01  0.15140456972E+01  0.86387087291E+01  0.97355370717E+01  0.00000000000E+00 0. -1.
</event>
<event>
 7    1  0.3331850E-011  0.5052888E+02  0.7816164E-02  0.1300439E+00
        -11   -1    0    0    0    0  0.00000000000E+00  0.00000000000E+00  0.45593999997E+02  0.45594000000E+02  0.51100000000E-03 0. -1.
         11   -1    0    0    0    0 -0.00000000000E+00 -0.00000000000E+00 -0.45593999997E+02  0.45594000000E+02  0.51100000000E-03 0.  1.
    9900012    2    1    2    0    0 -0.70139231086E+01  0.61975259752E+00 -0.40044788486E+02  0.50528876847E+02  0.30000051664E+02 0.  0.
         12    1    1    2    0    0  0.70139231086E+01 -0.61975259752E+00  0.40044788486E+02  0.40659123153E+02  0.00000000000E+00 0. -1.
         11    1    3    3    0    0 -0.73530597044E+01  0.12418694067E+01 -0.22101506223E+01  0.77778205606E+01  0.51100000000E-03 0. -1.
        -11    1    3    3    0    0 -0.77495601827E+01  0.10696732465E+01 -0.59934881410E+01  0.98550385203E+01  0.51100000000E-03 0.  1.
         12    1    3    3    0    0  0.80886967784E+01 -0.16917900557E+01 -0.31841149723E+02  0.32896017766E+02  0.00000000000E+00 0. -1.
</event>
<event>
 7    1  0.3331850E-011  0.5052885E+02  0.7816164E-02  0.1300439E+00
        -11   -1    0    0    0    0  0.00000000000E+00  0.00000000000E+00  0.45593999997E+02  0.45594000000E+02  0.51100000000E-03 0.  1.
         11   -1    0    0    0    0 -0.00000000000E+00 -0.00000000000E+00 -0.45593999997E+02  0.45594000000E+02  0.51100000000E-03 0. -1.
    9900012    2    1    2    0    0  0.36245286340E+02  0.26553183455E+01  0.18231698117E+02  0.50528852031E+02  0.29999976233E+02 0.  0.
         12    1    1    2    0    0 -0.36245286340E+02 -0.26553183455E+01 -0.18231698117E+02  0.40659147969E+02  0.00000000000E+00 0. -1.
         11    1    3    3    0    0  0.17764172902E+02  0.16211444923E+01 -0.31555524970E+01  0.18114951288E+02  0.51100000000E-03 0. -1.
        -11    1    3    3    0    0  0.10046876445E+02 -0.17421677653E+01  0.10844708607E+01  0.10254313831E+02  0.51100000000E-03 0.  1.
        -12    1    3    3    0    0  0.84342369930E+01  0.27763416185E+01  0.20302779753E+02  0.22159586912E+02  0.00000000000E+00 0.  1.
</event>
<event>
 7    1  0.3331850E-011  0.5052887E+02  0.7816164E-02  0.1300439E+00
        -11   -1    0    0    0    0  0.00000000000E+00  0.00000000000E+00  0.45593999997E+02  0.45594000000E+02  0.51100000000E-03 0.  1.
         11   -1    0    0    0    0 -0.00000000000E+00 -0.00000000000E+00 -0.45593999997E+02  0.45594000000E+02  0.51100000000E-03 0. -1.
    9900012    2    1    2    0    0  0.25929234954E+02  0.19042572430E+01  0.31260407414E+02  0.50528874424E+02  0.30000044298E+02 0.  0.
         12    1    1    2    0    0 -0.25929234954E+02 -0.19042572430E+01 -0.31260407414E+02  0.40659125576E+02  0.00000000000E+00 0. -1.
         11    1    3    3    0    0  0.50864358729E+01 -0.36038471469E+00 -0.28268921531E+01  0.58303538947E+01  0.51100000000E-03 0. -1.
        -11    1    3    3    0    0  0.11888491614E+02 -0.43586306578E+01  0.51100420749E+01  0.13654538599E+02  0.51100000000E-03 0.  1.
        -12    1    3    3    0    0  0.89543074672E+01  0.66232726155E+01  0.28977257492E+02  0.31043981930E+02  0.00000000000E+00 0.  1.
</event>
<event>
 7    1  0.3331850E-011  0.5052887E+02  0.7816164E-02  0.1300439E+00
        -11   -1    0    0    0    0  0.00000000000E+00  0.00000000000E+00  0.45593999997E+02  0.45594000000E+02  0.51100000000E-03 0.  1.
         11   -1    0    0    0    0 -0.00000000000E+00 -0.00000000000E+00 -0.45593999997E+02  0.45594000000E+02  0.51100000000E-03 0. -1.
    9900012    2    1    2    0    0 -0.19238527077E+02 -0.13331108971E+02  0.33246434084E+02  0.50528871015E+02  0.30000033938E+02 0.  0.
         12    1    1    2    0    0  0.19238527077E+02  0.13331108971E+02 -0.33246434084E+02  0.40659128985E+02  0.00000000000E+00 0. -1.
         11    1    3    3    0    0 -0.11517089842E+02 -0.13010566496E+00  0.42910630108E+01  0.12291196359E+02  0.51100000000E-03 0. -1.
        -11    1    3    3    0    0 -0.52125734201E+01  0.46019261767E+01  0.90907610466E+01  0.11445111745E+02  0.51100000000E-03 0.  1.
        -12    1    3    3    0    0 -0.25088638151E+01 -0.17802929483E+02  0.19864610027E+02  0.26792562911E+02  0.00000000000E+00 0.  1.
</event>
<event>
 7    1  0.3331850E-011  0.5052886E+02  0.7816164E-02  0.1300439E+00
        -11   -1    0    0    0    0  0.00000000000E+00  0.00000000000E+00  0.45593999997E+02  0.45594000000E+02  0.51100000000E-03 0.  1.
         11   -1    0    0    0    0 -0.00000000000E+00 -0.00000000000E+00 -0.45593999997E+02  0.45594000000E+02  0.51100000000E-03 0. -1.
    9900012    2    1    2    0    0 -0.87137580372E+01  0.24287684451E+02  0.31422042408E+02  0.50528856573E+02  0.29999990041E+02 0.  0.
         12    1    1    2    0    0  0.87137580372E+01 -0.24287684451E+02 -0.31422042408E+02  0.40659143427E+02  0.00000000000E+00 0. -1.
         11    1    3    3    0    0 -0.71800789785E+01 -0.10513151428E+01 -0.90246252533E+00  0.73125396776E+01  0.51100000000E-03 0. -1.
        -11    1    3    3    0    0  0.86057576676E+00  0.29881001401E+01 -0.77568830902E+00  0.32048441010E+01  0.51100000000E-03 0.  1.
        -12    1    3    3    0    0 -0.23942548255E+01  0.22350899453E+02  0.33100193242E+02  0.40011472795E+02  0.00000000000E+00 0.  1.
</event>
<event>
 7    1  0.3331850E-011  0.5052878E+02  0.7816164E-02  0.1300439E+00
        -11   -1    0    0    0    0  0.00000000000E+00  0.00000000000E+00  0.45593999997E+02  0.45594000000E+02  0.51100000000E-03 0. -1.
         11   -1    0    0    0    0 -0.00000000000E+00 -0.00000000000E+00 -0.45593999997E+02  0.45594000000E+02  0.51100000000E-03 0.  1.
    9900012    2    1    2    0    0 -0.30153101524E+02  0.23535746541E+02 -0.13785192155E+02  0.50528776944E+02  0.29999747997E+02 0.  0.
         12    1    1    2    0    0  0.30153101524E+02 -0.23535746541E+02  0.13785192155E+02  0.40659223056E+02  0.00000000000E+00 0. -1.
         11    1    3    3    0    0 -0.16792524210E+01  0.15315763259E+01  0.46338577846E+01  0.51612259168E+01  0.51100000000E-03 0. -1.
        -11    1    3    3    0    0 -0.88320687727E+01  0.88669167078E+01  0.36478690740E+01  0.13035896584E+02  0.51100000000E-03 0.  1.
        -12    1    3    3    0    0 -0.19641780331E+02  0.13137253508E+02 -0.22066919013E+02  0.32331654443E+02  0.00000000000E+00 0.  1.
</event>
<event>
 7    1  0.3331850E-011  0.5052885E+02  0.7816164E-02  0.1300439E+00
        -11   -1    0    0    0    0  0.00000000000E+00  0.00000000000E+00  0.45593999997E+02  0.45594000000E+02  0.51100000000E-03 0.  1.
         11   -1    0    0    0    0 -0.00000000000E+00 -0.00000000000E+00 -0.45593999997E+02  0.45594000000E+02  0.51100000000E-03 0. -1.
    9900012    2    1    2    0    0  0.87108550434E+01  0.32262758818E+01  0.39583814534E+02  0.50528853124E+02  0.29999979555E+02 0.  0.
         12    1    1    2    0    0 -0.87108550434E+01 -0.32262758818E+01 -0.39583814534E+02  0.40659146876E+02  0.00000000000E+00 0. -1.
         11    1    3    3    0    0  0.66003612784E+00  0.23514479929E+00 -0.28579323580E+01  0.29425700316E+01  0.51100000000E-03 0. -1.
        -11    1    3    3    0    0 -0.65834346215E+01  0.62307476210E+00  0.15090685196E+02  0.16476001139E+02  0.51100000000E-03 0.  1.
         12    1    3    3    0    0  0.14634253537E+02  0.23680563204E+01  0.27351061696E+02  0.31110281954E+02  0.00000000000E+00 0. -1.
</event>
<event>
 7    1  0.3331850E-011  0.5052886E+02  0.7816164E-02  0.1300439E+00
        -11   -1    0    0    0    0  0.00000000000E+00  0.00000000000E+00  0.45593999997E+02  0.45594000000E+02  0.51100000000E-03 0. -1.
         11   -1    0    0    0    0 -0.00000000000E+00 -0.00000000000E+00 -0.45593999997E+02  0.45594000000E+02  0.51100000000E-03 0.  1.
    9900012    2    1    2    0    0  0.35713818491E+02 -0.17697084464E+02 -0.80313121903E+01  0.50528860741E+02  0.30000002709E+02 0.  0.
         12    1    1    2    0    0 -0.35713818491E+02  0.17697084464E+02  0.80313121903E+01  0.40659139259E+02  0.00000000000E+00 0. -1.
         11    1    3    3    0    0  0.24664841651E+00 -0.53249806202E+01 -0.46112008078E+01  0.70483634411E+01  0.51100000000E-03 0. -1.
        -11    1    3    3    0    0  0.68962641437E+01 -0.21778920221E+01 -0.10096504045E+02  0.12419382713E+02  0.51100000000E-03 0.  1.
        -12    1    3    3    0    0  0.28570905931E+02 -0.10194211822E+02  0.66763926621E+01  0.31061114587E+02  0.00000000000E+00 0.  1.
</event>
<event>
 7    1  0.3331850E-011  0.5052881E+02  0.7816164E-02  0.1300439E+00
        -11   -1    0    0    0    0  0.00000000000E+00  0.00000000000E+00  0.45593999997E+02  0.45594000000E+02  0.51100000000E-03 0.  1.
         11   -1    0    0    0    0 -0.00000000000E+00 -0.00000000000E+00 -0.45593999997E+02  0.45594000000E+02  0.51100000000E-03 0. -1.
    9900012    2    1    2    0    0 -0.31661320481E+02 -0.19440608021E+02  0.16516443294E+02  0.50528814642E+02  0.29999862587E+02 0.  0.
         12    1    1    2    0    0  0.31661320481E+02  0.19440608021E+02 -0.16516443294E+02  0.40659185358E+02  0.00000000000E+00 0. -1.
         11    1    3    3    0    0 -0.20051030693E+02 -0.39997567243E+01  0.14767675066E+02  0.25221540652E+02  0.51100000000E-03 0. -1.
        -11    1    3    3    0    0 -0.87485981541E+01 -0.10695013069E+01  0.52263441955E+01  0.10246778841E+02  0.51100000000E-03 0.  1.
         12    1    3    3    0    0 -0.28616916341E+01 -0.14371349990E+02 -0.34775759678E+01  0.15060495150E+02  0.00000000000E+00 0. -1.
</event>
<event>
 7    1  0.3331850E-011  0.5052886E+02  0.7816164E-02  0.1300439E+00
        -11   -1    0    0    0    0  0.00000000000E+00  0.00000000000E+00  0.45593999997E+02  0.45594000000E+02  0.51100000000E-03 0.  1.
         11   -1    0    0    0    0 -0.00000000000E+00 -0.00000000000E+00 -0.45593999997E+02  0.45594000000E+02  0.51100000000E-03 0. -1.
    9900012    2    1    2    0    0  0.35429496634E+02  0.19944762018E+02 -0.35103615398E+00  0.50528856009E+02  0.29999988326E+02 0.  0.
         12    1    1    2    0    0 -0.35429496634E+02 -0.19944762018E+02  0.35103615398E+00  0.40659143991E+02  0.00000000000E+00 0. -1.
         11    1    3    3    0    0  0.16266030675E+02 -0.15053247693E+01  0.42231744488E+00  0.16340994733E+02  0.51100000000E-03 0. -1.
        -11    1    3    3    0    0  0.20013866070E+02  0.10159868604E+02  0.19908623731E+01  0.22533115594E+02  0.51100000000E-03 0.  1.
         12    1    3    3    0    0 -0.85040011172E+00  0.11290218183E+02 -0.27642159720E+01  0.11654745682E+02  0.00000000000E+00 0. -1.
</event>
<event>
 7    1  0.3331850E-011  0.5052887E+02  0.7816164E-02  0.1300439E+00
        -11   -1    0    0    0    0  0.00000000000E+00  0.00000000000E+00  0.45593999997E+02  0.45594000000E+02  0.51100000000E-03 0.  1.
         11   -1    0    0    0    0 -0.00000000000E+00 -0.00000000000E+00 -0.45593999997E+02  0.45594000000E+02  0.51100000000E-03 0. -1.
    9900012    2    1    2    0    0 -0.13347836625E+02 -0.26954964078E+02  0.27357454752E+02  0.50528866198E+02  0.30000019295E+02 0.  0.
         12    1    1    2    0    0  0.13347836625E+02  0.26954964078E+02 -0.27357454752E+02  0.40659133802E+02  0.00000000000E+00 0. -1.
         11    1    3    3    0    0  0.17578183521E+01 -0.19803305581E+01  0.50044352349E+01  0.56618024303E+01  0.51100000000E-03 0. -1.
        -11    1    3    3    0    0 -0.83455708868E+01 -0.29206888215E+02  0.14445023524E+02  0.33635540392E+02  0.51100000000E-03 0.  1.
         12    1    3    3    0    0 -0.67600840901E+01  0.42322546943E+01  0.79079959929E+01  0.11231523375E+02  0.00000000000E+00 0. -1.
</event>
<event>
 7    1  0.3331850E-011  0.5052886E+02  0.7816164E-02  0.1300439E+00
        -11   -1    0    0    0    0  0.00000000000E+00  0.00000000000E+00  0.45593999997E+02  0.45594000000E+02  0.51100000000E-03 0.  1.
         11   -1    0    0    0    0 -0.00000000000E+00 -0.00000000000E+00 -0.45593999997E+02  0.45594000000E+02  0.51100000000E-03 0. -1.
    9900012    2    1    2    0    0  0.15301016452E+02 -0.82542516300E+00  0.37661160998E+02  0.50528862296E+02  0.30000007434E+02 0.  0.
         12    1    1    2    0    0 -0.15301016452E+02  0.82542516300E+00 -0.37661160998E+02  0.40659137704E+02  0.00000000000E+00 0. -1.
         11    1    3    3    0    0  0.22729944024E+01 -0.41513598803E+01  0.31981450824E+02  0.32329761667E+02  0.51100000000E-03 0. -1.
        -11    1    3    3    0    0 -0.59779341917E+00 -0.20822194626E+01  0.22903062235E+01  0.31525382981E+01  0.51100000000E-03 0.  1.
         12    1    3    3    0    0  0.13625815469E+02  0.54081541798E+01  0.33894039502E+01  0.15046562330E+02  0.00000000000E+00 0. -1.
</event>
<event>
 7    1  0.3331850E-011  0.5052885E+02  0.7816164E-02  0.1300439E+00
        -11   -1    0    0    0    0  0.00000000000E+00  0.00000000000E+00  0.45593999997E+02  0.45594000000E+02  0.51100000000E-03 0.  1.
         11   -1    0    0    0    0 -0.00000000000E+00 -0.00000000000E+00 -0.45593999997E+02  0.45594000000E+02  0.51100000000E-03 0. -1.
    9900012    2    1    2    0    0  0.31932957838E+02 -0.22478748544E+02  0.11320707045E+02  0.50528851701E+02  0.29999975230E+02 0.  0.
         12    1    1    2    0    0 -0.31932957838E+02  0.22478748544E+02 -0.11320707045E+02  0.40659148299E+02  0.00000000000E+00 0. -1.
         11    1    3    3    0    0  0.16208160634E+02 -0.96985901814E+01  0.29551996995E-01  0.18888303159E+02  0.51100000000E-03 0. -1.
        -11    1    3    3    0    0  0.50340109441E+01 -0.14919739860E+02 -0.27121047860E+00  0.15748443067E+02  0.51100000000E-03 0.  1.
         12    1    3    3    0    0  0.10690786260E+02  0.21395814966E+01  0.11562365527E+02  0.15892105474E+02  0.00000000000E+00 0. -1.
</event>
<event>
 7    1  0.3331850E-011  0.5052886E+02  0.7816164E-02  0.1300439E+00
        -11   -1    0    0    0    0  0.00000000000E+00  0.00000000000E+00  0.45593999997E+02  0.45594000000E+02  0.51100000000E-03 0.  1.
         11   -1    0    0    0    0 -0.00000000000E+00 -0.00000000000E+00 -0.45593999997E+02  0.45594000000E+02  0.51100000000E-03 0. -1.
    9900012    2    1    2    0    0 -0.27482785746E+02 -0.16569747880E+02  0.24966089320E+02  0.50528859907E+02  0.30000000173E+02 0.  0.
         12    1    1    2    0    0  0.27482785746E+02  0.16569747880E+02 -0.24966089320E+02  0.40659140093E+02  0.00000000000E+00 0. -1.
         11    1    3    3    0    0 -0.75847349737E+01 -0.61521032900E+01 -0.10170951567E+01  0.98189135006E+01  0.51100000000E-03 0. -1.
        -11    1    3    3    0    0 -0.98582873964E+01 -0.13883498993E+02  0.59533127637E+01  0.18038273415E+02  0.51100000000E-03 0.  1.
         12    1    3    3    0    0 -0.10039763376E+02  0.34658544028E+01  0.20029871713E+02  0.22671672991E+02  0.00000000000E+00 0. -1.
</event>
<event>
 7    1  0.3331850E-011  0.5052886E+02  0.7816164E-02  0.1300439E+00
        -11   -1    0    0    0    0  0.00000000000E+00  0.00000000000E+00  0.45593999997E+02  0.45594000000E+02  0.51100000000E-03 0. -1.
         11   -1    0    0    0    0 -0.00000000000E+00 -0.00000000000E+00 -0.45593999997E+02  0.45594000000E+02  0.51100000000E-03 0.  1.
    9900012    2    1    2    0    0 -0.12822814835E+02 -0.65611980689E+01 -0.38022250518E+02  0.50528862837E+02  0.30000009079E+02 0.  0.
         12    1    1    2    0    0  0.12822814835E+02  0.65611980689E+01  0.38022250518E+02  0.40659137163E+02  0.00000000000E+00 0. -1.
         11    1    3    3    0    0 -0.18018614653E+01 -0.11954208298E+02 -0.96918860818E+01  0.15494594440E+02  0.51100000000E-03 0. -1.
        -11    1    3    3    0    0 -0.58683953787E+01 -0.35781419161E+01 -0.26819233005E+01  0.73779317389E+01  0.51100000000E-03 0.  1.
        -12    1    3    3    0    0 -0.51525579914E+01  0.89711521452E+01 -0.25648441136E+02  0.27656336658E+02  0.00000000000E+00 0.  1.
</event>
<event>
 7    1  0.3331850E-011  0.5052886E+02  0.7816164E-02  0.1300439E+00
        -11   -1    0    0    0    0  0.00000000000E+00  0.00000000000E+00  0.45593999997E+02  0.45594000000E+02  0.51100000000E-03 0.  1.
         11   -1    0    0    0    0 -0.00000000000E+00 -0.00000000000E+00 -0.45593999997E+02  0.45594000000E+02  0.51100000000E-03 0. -1.
    9900012    2    1    2    0    0 -0.33592134558E+02 -0.22116454209E+02 -0.59662578650E+01  0.50528864694E+02  0.30000014723E+02 0.  0.
         12    1    1    2    0    0  0.33592134558E+02  0.22116454209E+02  0.59662578650E+01  0.40659135306E+02  0.00000000000E+00 0. -1.
         11    1    3    3    0    0 -0.22066148587E+02 -0.59979048990E+01 -0.33787942670E+01  0.23115060623E+02  0.51100000000E-03 0.  1.
        -11    1    3    3    0    0 -0.10718614434E+02  0.27964191834E+00  0.38344517518E+00  0.10729115781E+02  0.51100000000E-03 0. -1.
        -12    1    3    3    0    0 -0.80737153629E+00 -0.16398191229E+02 -0.29709087732E+01  0.16684688289E+02  0.00000000000E+00 0.  1.
</event>
<event>
 7    1  0.3331850E-011  0.5052886E+02  0.7816164E-02  0.1300439E+00
        -11   -1    0    0    0    0  0.00000000000E+00  0.00000000000E+00  0.45593999997E+02  0.45594000000E+02  0.51100000000E-03 0.  1.
         11   -1    0    0    0    0 -0.00000000000E+00 -0.00000000000E+00 -0.45593999997E+02  0.45594000000E+02  0.51100000000E-03 0. -1.
    9900012    2    1    2    0    0 -0.19271387228E+02 -0.19308877821E+02  0.30148744665E+02  0.50528856708E+02  0.29999990448E+02 0.  0.
         12    1    1    2    0    0  0.19271387228E+02  0.19308877821E+02 -0.30148744665E+02  0.40659143292E+02  0.00000000000E+00 0. -1.
         11    1    3    3    0    0  0.41224048645E+01 -0.18211915212E+01  0.21684313964E+01  0.50013053702E+01  0.51100000000E-03 0. -1.
        -11    1    3    3    0    0 -0.43316127844E+00  0.29241035911E+01 -0.11679397156E+01  0.31783791380E+01  0.51100000000E-03 0.  1.
        -12    1    3    3    0    0 -0.22960630814E+02 -0.20411789891E+02  0.29148252985E+02  0.42349172199E+02  0.00000000000E+00 0.  1.
</event>
<event>
 7    1  0.3331850E-011  0.5052886E+02  0.7816164E-02  0.1300439E+00
        -11   -1    0    0    0    0  0.00000000000E+00  0.00000000000E+00  0.45593999997E+02  0.45594000000E+02  0.51100000000E-03 0.  1.
         11   -1    0    0    0    0 -0.00000000000E+00 -0.00000000000E+00 -0.45593999997E+02  0.45594000000E+02  0.51100000000E-03 0. -1.
    9900012    2    1    2    0    0  0.20520354831E+02 -0.24142847464E+02  0.25479475296E+02  0.50528859485E+02  0.29999998890E+02 0.  0.
         12    1    1    2    0    0 -0.20520354831E+02  0.24142847464E+02 -0.25479475296E+02  0.40659140515E+02  0.00000000000E+00 0. -1.
         11    1    3    3    0    0  0.98274843473E+01 -0.38846402595E+01  0.20699388088E+02  0.23240794866E+02  0.51100000000E-03 0. -1.
        -11    1    3    3    0    0 -0.18260311536E+01  0.16172898804E+00  0.26762282291E+01  0.32438779007E+01  0.51100000000E-03 0.  1.
         12    1    3    3    0    0  0.12518901638E+02 -0.20419936192E+02  0.21038589793E+01  0.24044186718E+02  0.00000000000E+00 0. -1.
</event>
<event>
 7    1  0.3331850E-011  0.5052886E+02  0.7816164E-02  0.1300439E+00
        -11   -1    0    0    0    0  0.00000000000E+00  0.00000000000E+00  0.45593999997E+02  0.45594000000E+02  0.51100000000E-03 0.  1.
         11   -1    0    0    0    0 -0.00000000000E+00 -0.00000000000E+00 -0.45593999997E+02  0.45594000000E+02  0.51100000000E-03 0. -1.
    9900012    2    1    2    0    0 -0.16921767151E+02  0.62639615358E+01  0.36435999762E+02  0.50528862081E+02  0.30000006781E+02 0.  0.
         12    1    1    2    0    0  0.16921767151E+02 -0.62639615358E+01 -0.36435999762E+02  0.40659137919E+02  0.00000000000E+00 0. -1.
         11    1    3    3    0    0 -0.45347057014E+01  0.10664248726E+01  0.12475569906E+02  0.13316931424E+02  0.51100000000E-03 0. -1.
        -11    1    3    3    0    0  0.36990379401E+01  0.25193954632E+01  0.19912863400E+02  0.20409614504E+02  0.51100000000E-03 0.  1.
         12    1    3    3    0    0 -0.16086099390E+02  0.26781412001E+01  0.40475664565E+01  0.16802316152E+02  0.00000000000E+00 0. -1.
</event>
<event>
 7    1  0.3331850E-011  0.5052885E+02  0.7816164E-02  0.1300439E+00
        -11   -1    0    0    0    0  0.00000000000E+00  0.00000000000E+00  0.45593999997E+02  0.45594000000E+02  0.51100000000E-03 0.  1.
         11   -1    0    0    0    0 -0.00000000000E+00 -0.00000000000E+00 -0.45593999997E+02  0.45594000000E+02  0.51100000000E-03 0. -1.
    9900012    2    1    2    0    0 -0.93183152117E+01 -0.24817348387E+02  0.30829121977E+02  0.50528849231E+02  0.29999967722E+02 0.  0.
         12    1    1    2    0    0  0.93183152117E+01  0.24817348387E+02 -0.30829121977E+02  0.40659150769E+02  0.00000000000E+00 0. -1.
         11    1    3    3    0    0  0.61211766406E+01 -0.61412616408E+01  0.33716757888E+01  0.93033378898E+01  0.51100000000E-03 0. -1.
        -11    1    3    3    0    0 -0.95654112245E+01  0.70297974587E+00  0.44418452925E+01  0.10569827921E+02  0.51100000000E-03 0.  1.
        -12    1    3    3    0    0 -0.58740806279E+01 -0.19379066493E+02  0.23015600896E+02  0.30655683420E+02  0.00000000000E+00 0.  1.
</event>
<event>
 7    1  0.3331850E-011  0.5052886E+02  0.7816164E-02  0.1300439E+00
        -11   -1    0    0    0    0  0.00000000000E+00  0.00000000000E+00  0.45593999997E+02  0.45594000000E+02  0.51100000000E-03 0.  1.
         11   -1    0    0    0    0 -0.00000000000E+00 -0.00000000000E+00 -0.45593999997E+02  0.45594000000E+02  0.51100000000E-03 0. -1.
    9900012    2    1    2    0    0 -0.26589361120E+02  0.19384518210E+02  0.23883300412E+02  0.50528859458E+02  0.29999998809E+02 0.  0.
         12    1    1    2    0    0  0.26589361120E+02 -0.19384518210E+02 -0.23883300412E+02  0.40659140542E+02  0.00000000000E+00 0. -1.
         11    1    3    3    0    0 -0.39691481906E+01  0.19658433420E+01  0.10190308031E+02  0.11111303048E+02  0.51100000000E-03 0. -1.
        -11    1    3    3    0    0 -0.27134948626E+02  0.13886956566E+02  0.84065709775E+01  0.31619984748E+02  0.51100000000E-03 0.  1.
         12    1    3    3    0    0  0.45147356960E+01  0.35317183014E+01  0.52864214038E+01  0.77975716620E+01  0.00000000000E+00 0. -1.
</event>
<event>
 7    1  0.3331850E-011  0.5052886E+02  0.7816164E-02  0.1300439E+00
        -11   -1    0    0    0    0  0.00000000000E+00  0.00000000000E+00  0.45593999997E+02  0.45594000000E+02  0.51100000000E-03 0.  1.
         11   -1    0    0    0    0 -0.00000000000E+00 -0.00000000000E+00 -0.45593999997E+02  0.45594000000E+02  0.51100000000E-03 0. -1.
    9900012    2    1    2    0    0 -0.37965507936E+02  0.14004608956E+02 -0.39569015863E+01  0.50528856686E+02  0.29999990383E+02 0.  0.
         12    1    1    2    0    0  0.37965507936E+02 -0.14004608956E+02  0.39569015863E+01  0.40659143314E+02  0.00000000000E+00 0. -1.
         11    1    3    3    0    0 -0.52450323291E-01 -0.26704900176E+01  0.28685391035E+01  0.39195388529E+01  0.51100000000E-03 0. -1.
        -11    1    3    3    0    0  0.11346672072E+01 -0.20097093201E+01 -0.19987612000E+01  0.30531046196E+01  0.51100000000E-03 0.  1.
        -12    1    3    3    0    0 -0.39047724820E+02  0.18684808293E+02 -0.48266794897E+01  0.43556213213E+02  0.00000000000E+00 0.  1.
</event>
<event>
 7    1  0.3331850E-011  0.5052885E+02  0.7816164E-02  0.1300439E+00
        -11   -1    0    0    0    0  0.00000000000E+00  0.00000000000E+00  0.45593999997E+02  0.45594000000E+02  0.51100000000E-03 0. -1.
         11   -1    0    0    0    0 -0.00000000000E+00 -0.00000000000E+00 -0.45593999997E+02  0.45594000000E+02  0.51100000000E-03 0.  1.
    9900012    2    1    2    0    0  0.87846602747E+01  0.22960430498E+01 -0.39632362233E+02  0.50528853354E+02  0.29999980254E+02 0.  0.
         12    1    1    2    0    0 -0.87846602747E+01 -0.22960430498E+01  0.39632362233E+02  0.40659146646E+02  0.00000000000E+00 0. -1.
         11    1    3    3    0    0 -0.38902964809E+01 -0.47407615453E+01 -0.41224299243E+01  0.73894286302E+01  0.51100000000E-03 0. -1.
        -11    1    3    3    0    0  0.17610170608E+02  0.27277117035E+01 -0.23955289153E+02  0.29856563745E+02  0.51100000000E-03 0.  1.
         12    1    3    3    0    0 -0.49352138524E+01  0.43090928915E+01 -0.11554643156E+02  0.13282860979E+02  0.00000000000E+00 0. -1.
</event>
<event>
 7    1  0.3810523E-011  0.5052886E+02  0.7816164E-02  0.1300439E+00
        -11   -1    0    0    0    0  0.00000000000E+00  0.00000000000E+00  0.45593999997E+02  0.45594000000E+02  0.51100000000E-03 0. -1.
         11   -1    0    0    0    0 -0.00000000000E+00 -0.00000000000E+00 -0.45593999997E+02  0.45594000000E+02  0.51100000000E-03 0.  1.
    9900012    2    1    2    0    0  0.56335452266E+01 -0.35922697581E+02 -0.18193093617E+02  0.50528859716E+02  0.29999999593E+02 0.  0.
         12    1    1    2    0    0 -0.56335452266E+01  0.35922697581E+02  0.18193093617E+02  0.40659140284E+02  0.00000000000E+00 0. -1.
         11    1    3    3    0    0 -0.45301765754E+01 -0.17612128816E+02 -0.13998747764E+02  0.22949390416E+02  0.51100000000E-03 0. -1.
        -11    1    3    3    0    0  0.24883741444E+01 -0.50527385106E+01 -0.97698802537E+01  0.11277088843E+02  0.51100000000E-03 0.  1.
         12    1    3    3    0    0  0.76753476577E+01 -0.13257830254E+02  0.55755344013E+01  0.16302380457E+02  0.00000000000E+00 0. -1.
</event>
<event>
 7    1  0.3331850E-011  0.5052887E+02  0.7816164E-02  0.1300439E+00
        -11   -1    0    0    0    0  0.00000000000E+00  0.00000000000E+00  0.45593999997E+02  0.45594000000E+02  0.51100000000E-03 0. -1.
         11   -1    0    0    0    0 -0.00000000000E+00 -0.00000000000E+00 -0.45593999997E+02  0.45594000000E+02  0.51100000000E-03 0.  1.
    9900012    2    1    2    0    0  0.34178066505E+02 -0.12935363762E+02 -0.17824171618E+02  0.50528868682E+02  0.30000026845E+02 0.  0.
         12    1    1    2    0    0 -0.34178066505E+02  0.12935363762E+02  0.17824171618E+02  0.40659131318E+02  0.00000000000E+00 0. -1.
         11    1    3    3    0    0  0.91357317504E+01 -0.58283352477E+01 -0.14174383451E+02  0.17842203699E+02  0.51100000000E-03 0. -1.
        -11    1    3    3    0    0  0.15709688765E+02 -0.51091610252E+01 -0.11665307687E+02  0.20223185980E+02  0.51100000000E-03 0.  1.
         12    1    3    3    0    0  0.93326459901E+01 -0.19978674892E+01  0.80155195199E+01  0.12463479003E+02  0.00000000000E+00 0. -1.
</event>
<event>
 7    1  0.3331850E-011  0.5052888E+02  0.7816164E-02  0.1300439E+00
        -11   -1    0    0    0    0  0.00000000000E+00  0.00000000000E+00  0.45593999997E+02  0.45594000000E+02  0.51100000000E-03 0. -1.
         11   -1    0    0    0    0 -0.00000000000E+00 -0.00000000000E+00 -0.45593999997E+02  0.45594000000E+02  0.51100000000E-03 0.  1.
    9900012    2    1    2    0    0 -0.24581620978E+02 -0.19260474939E+02 -0.26037318372E+02  0.50528881308E+02  0.30000065224E+02 0.  0.
         12    1    1    2    0    0  0.24581620978E+02  0.19260474939E+02  0.26037318372E+02  0.40659118692E+02  0.00000000000E+00 0. -1.
         11    1    3    3    0    0 -0.67091633160E+01 -0.63877253444E+01 -0.12761900110E+02  0.15769654472E+02  0.51100000000E-03 0. -1.
        -11    1    3    3    0    0 -0.11106084639E+02 -0.16838277992E+02 -0.16713761675E+02  0.26195849887E+02  0.51100000000E-03 0.  1.
         12    1    3    3    0    0 -0.67663730227E+01  0.39655283972E+01  0.34383434123E+01  0.85633769491E+01  0.00000000000E+00 0. -1.
</event>
<event>
 7    1  0.3331850E-011  0.5052886E+02  0.7816164E-02  0.1300439E+00
        -11   -1    0    0    0    0  0.00000000000E+00  0.00000000000E+00  0.45593999997E+02  0.45594000000E+02  0.51100000000E-03 0.  1.
         11   -1    0    0    0    0 -0.00000000000E+00 -0.00000000000E+00 -0.45593999997E+02  0.45594000000E+02  0.51100000000E-03 0. -1.
    9900012    2    1    2    0    0 -0.27645807042E+02 -0.31222634482E+01  0.29650074041E+02  0.50528855067E+02  0.29999985461E+02 0.  0.
         12    1    1    2    0    0  0.27645807042E+02  0.31222634482E+01 -0.29650074041E+02  0.40659144933E+02  0.00000000000E+00 0. -1.
         11    1    3    3    0    0 -0.13789409618E+02 -0.39093249230E+01  0.18369774793E+02  0.23299769637E+02  0.51100000000E-03 0.  1.
        -11    1    3    3    0    0 -0.14304692223E+02  0.80316133146E+01  0.11387076959E+02  0.19969891186E+02  0.51100000000E-03 0. -1.
         12    1    3    3    0    0  0.44829479858E+00 -0.72445518397E+01 -0.10677771103E+00  0.72591942434E+01  0.00000000000E+00 0. -1.
</event>
<event>
 7    1  0.3331850E-011  0.5052886E+02  0.7816164E-02  0.1300439E+00
        -11   -1    0    0    0    0  0.00000000000E+00  0.00000000000E+00  0.45593999997E+02  0.45594000000E+02  0.51100000000E-03 0. -1.
         11   -1    0    0    0    0 -0.00000000000E+00 -0.00000000000E+00 -0.45593999997E+02  0.45594000000E+02  0.51100000000E-03 0.  1.
    9900012    2    1    2    0    0 -0.74180483022E+01 -0.13966462922E+02 -0.37457659773E+02  0.50528858312E+02  0.29999995325E+02 0.  0.
         12    1    1    2    0    0  0.74180483022E+01  0.13966462922E+02  0.37457659773E+02  0.40659141688E+02  0.00000000000E+00 0. -1.
         11    1    3    3    0    0 -0.30367285545E+00 -0.86407457824E+01 -0.23713270406E+02  0.25240322868E+02  0.51100000000E-03 0. -1.
        -11    1    3    3    0    0  0.62503354834E+01  0.11097921545E+01 -0.33698273489E+01  0.71870765199E+01  0.51100000000E-03 0.  1.
         12    1    3    3    0    0 -0.13364710930E+02 -0.64355092937E+01 -0.10374562018E+02  0.18101458924E+02  0.00000000000E+00 0. -1.
</event>
<event>
 7    1  0.3331850E-011  0.5052889E+02  0.7816164E-02  0.1300439E+00
        -11   -1    0    0    0    0  0.00000000000E+00  0.00000000000E+00  0.45593999997E+02  0.45594000000E+02  0.51100000000E-03 0.  1.
         11   -1    0    0    0    0 -0.00000000000E+00 -0.00000000000E+00 -0.45593999997E+02  0.45594000000E+02  0.51100000000E-03 0. -1.
    9900012    2    1    2    0    0 -0.21560760640E+02 -0.97082968501E+00  0.34458010141E+02  0.50528888198E+02  0.30000086168E+02 0.  0.
         12    1    1    2    0    0  0.21560760640E+02  0.97082968501E+00 -0.34458010141E+02  0.40659111802E+02  0.00000000000E+00 0. -1.
         11    1    3    3    0    0 -0.83098443365E+01  0.69951844238E+01  0.23342807641E+01  0.11110129836E+02  0.51100000000E-03 0. -1.
        -11    1    3    3    0    0 -0.71290511010E+01  0.20625233065E+01  0.29829118894E+01  0.79984458235E+01  0.51100000000E-03 0.  1.
         12    1    3    3    0    0 -0.61218652022E+01 -0.10028537415E+02  0.29140817487E+02  0.31420312539E+02  0.00000000000E+00 0. -1.
</event>
<event>
 7    1  0.3331850E-011  0.5052881E+02  0.7816164E-02  0.1300439E+00
        -11   -1    0    0    0    0  0.00000000000E+00  0.00000000000E+00  0.45593999997E+02  0.45594000000E+02  0.51100000000E-03 0. -1.
         11   -1    0    0    0    0 -0.00000000000E+00 -0.00000000000E+00 -0.45593999997E+02  0.45594000000E+02  0.51100000000E-03 0.  1.
    9900012    2    1    2    0    0  0.37146782617E+02  0.11481911804E+02 -0.11893371696E+02  0.50528806110E+02  0.29999836652E+02 0.  0.
         12    1    1    2    0    0 -0.37146782617E+02 -0.11481911804E+02  0.11893371696E+02  0.40659193890E+02  0.00000000000E+00 0. -1.
         11    1    3    3    0    0  0.10719771641E+01 -0.18777853034E+01  0.19001123441E-01  0.21623075614E+01  0.51100000000E-03 0. -1.
        -11    1    3    3    0    0  0.33936790567E+02  0.10767656830E+01 -0.11647416036E+02  0.35896064950E+02  0.51100000000E-03 0.  1.
         12    1    3    3    0    0  0.21380148858E+01  0.12282931425E+02 -0.26495678398E+00  0.12470433598E+02  0.00000000000E+00 0. -1.
</event>
<event>
 7    1  0.3331850E-011  0.5052886E+02  0.7816164E-02  0.1300439E+00
        -11   -1    0    0    0    0  0.00000000000E+00  0.00000000000E+00  0.45593999997E+02  0.45594000000E+02  0.51100000000E-03 0.  1.
         11   -1    0    0    0    0 -0.00000000000E+00 -0.00000000000E+00 -0.45593999997E+02  0.45594000000E+02  0.51100000000E-03 0. -1.
    9900012    2    1    2    0    0 -0.33104063747E+01  0.40039224861E+02 -0.62503740292E+01  0.50528862118E+02  0.30000006893E+02 0.  0.
         12    1    1    2    0    0  0.33104063747E+01 -0.40039224861E+02  0.62503740292E+01  0.40659137882E+02  0.00000000000E+00 0. -1.
         11    1    3    3    0    0  0.15760104444E+01  0.20607706968E+02  0.39464239143E+00  0.20671650594E+02  0.51100000000E-03 0. -1.
        -11    1    3    3    0    0 -0.10889279513E+02  0.10344769778E+02  0.29922661375E+01  0.15314840090E+02  0.51100000000E-03 0.  1.
         12    1    3    3    0    0  0.60028626938E+01  0.90867481146E+01 -0.96372825581E+01  0.14542371434E+02  0.00000000000E+00 0. -1.
</event>
<event>
 7    1  0.3331850E-011  0.5052886E+02  0.7816164E-02  0.1300439E+00
        -11   -1    0    0    0    0  0.00000000000E+00  0.00000000000E+00  0.45593999997E+02  0.45594000000E+02  0.51100000000E-03 0.  1.
         11   -1    0    0    0    0 -0.00000000000E+00 -0.00000000000E+00 -0.45593999997E+02  0.45594000000E+02  0.51100000000E-03 0. -1.
    9900012    2    1    2    0    0  0.64282368577E+01 -0.39600626561E+02 -0.66055832013E+01  0.50528861021E+02  0.30000003559E+02 0.  0.
         12    1    1    2    0    0 -0.64282368577E+01  0.39600626561E+02  0.66055832013E+01  0.40659138979E+02  0.00000000000E+00 0. -1.
         11    1    3    3    0    0 -0.17907883658E+01 -0.15352525819E+01  0.28242593965E+01  0.36797234761E+01  0.51100000000E-03 0. -1.
        -11    1    3    3    0    0 -0.58872378782E+00 -0.23146486341E+02  0.57028256213E+01  0.23845935628E+02  0.51100000000E-03 0.  1.
        -12    1    3    3    0    0  0.88077490113E+01 -0.14918887638E+02 -0.15132668219E+02  0.23003201917E+02  0.00000000000E+00 0.  1.
</event>
<event>
 7    1  0.3331850E-011  0.5052881E+02  0.7816164E-02  0.1300439E+00
        -11   -1    0    0    0    0  0.00000000000E+00  0.00000000000E+00  0.45593999997E+02  0.45594000000E+02  0.51100000000E-03 0.  1.
         11   -1    0    0    0    0 -0.00000000000E+00 -0.00000000000E+00 -0.45593999997E+02  0.45594000000E+02  0.51100000000E-03 0. -1.
    9900012    2    1    2    0    0 -0.30450477200E+02  0.24774857779E+02  0.10589837601E+02  0.50528809156E+02  0.29999845909E+02 0.  0.
         12    1    1    2    0    0  0.30450477200E+02 -0.24774857779E+02 -0.10589837601E+02  0.40659190844E+02  0.00000000000E+00 0. -1.
         11    1    3    3    0    0 -0.13935944749E+02  0.17343598181E+01 -0.19492052659E+01  0.14178080316E+02  0.51100000000E-03 0. -1.
        -11    1    3    3    0    0 -0.80108410813E+01  0.37337190870E+01 -0.38458976736E+01  0.96387323973E+01  0.51100000000E-03 0.  1.
        -12    1    3    3    0    0 -0.85036913700E+01  0.19306778874E+02  0.16384940541E+02  0.26711996442E+02  0.00000000000E+00 0.  1.
</event>
<event>
 7    1  0.3331850E-011  0.5052885E+02  0.7816164E-02  0.1300439E+00
        -11   -1    0    0    0    0  0.00000000000E+00  0.00000000000E+00  0.45593999997E+02  0.45594000000E+02  0.51100000000E-03 0.  1.
         11   -1    0    0    0    0 -0.00000000000E+00 -0.00000000000E+00 -0.45593999997E+02  0.45594000000E+02  0.51100000000E-03 0. -1.
    9900012    2    1    2    0    0 -0.10945334605E+02 -0.34960104137E+02  0.17639641473E+02  0.50528853647E+02  0.29999981145E+02 0.  0.
         12    1    1    2    0    0  0.10945334605E+02  0.34960104137E+02 -0.17639641473E+02  0.40659146353E+02  0.00000000000E+00 0. -1.
         11    1    3    3    0    0 -0.21134459784E+01 -0.25176267272E+01 -0.12130202919E+01  0.35037860567E+01  0.51100000000E-03 0. -1.
        -11    1    3    3    0    0  0.82600449242E+01 -0.83114575795E+01 -0.42463673641E+00  0.11725569746E+02  0.51100000000E-03 0.  1.
        -12    1    3    3    0    0 -0.17091933551E+02 -0.24131019830E+02  0.19277298502E+02  0.35299497844E+02  0.00000000000E+00 0.  1.
</event>
<event>
 7    1  0.3331850E-011  0.5052887E+02  0.7816164E-02  0.1300439E+00
        -11   -1    0    0    0    0  0.00000000000E+00  0.00000000000E+00  0.45593999997E+02  0.45594000000E+02  0.51100000000E-03 0.  1.
         11   -1    0    0    0    0 -0.00000000000E+00 -0.00000000000E+00 -0.45593999997E+02  0.45594000000E+02  0.51100000000E-03 0. -1.
    9900012    2    1    2    0    0 -0.31166066168E+02 -0.32644802904E+01  0.25907221869E+02  0.50528872403E+02  0.30000038157E+02 0.  0.
         12    1    1    2    0    0  0.31166066168E+02  0.32644802904E+01 -0.25907221869E+02  0.40659127597E+02  0.00000000000E+00 0. -1.
         11    1    3    3    0    0 -0.21638658753E+02  0.52601036126E+00  0.14676880635E+02  0.26151846301E+02  0.51100000000E-03 0. -1.
        -11    1    3    3    0    0 -0.14179646779E+02  0.75266253461E+00  0.10837078908E+02  0.17862563175E+02  0.51100000000E-03 0.  1.
         12    1    3    3    0    0  0.46522393641E+01 -0.45431531862E+01  0.39326232661E+00  0.65144629274E+01  0.00000000000E+00 0. -1.
</event>
<event>
 7    1  0.3331850E-011  0.5052887E+02  0.7816164E-02  0.1300439E+00
        -11   -1    0    0    0    0  0.00000000000E+00  0.00000000000E+00  0.45593999997E+02  0.45594000000E+02  0.51100000000E-03 0.  1.
         11   -1    0    0    0    0 -0.00000000000E+00 -0.00000000000E+00 -0.45593999997E+02  0.45594000000E+02  0.51100000000E-03 0. -1.
    9900012    2    1    2    0    0 -0.11407238864E+02 -0.29963596792E+01  0.38910948843E+02  0.50528865605E+02  0.30000017494E+02 0.  0.
         12    1    1    2    0    0  0.11407238864E+02  0.29963596792E+01 -0.38910948843E+02  0.40659134395E+02  0.00000000000E+00 0. -1.
         11    1    3    3    0    0  0.41785249611E+01  0.14846775074E+01  0.14753471850E+02  0.15405494801E+02  0.51100000000E-03 0. -1.
        -11    1    3    3    0    0  0.79921174605E+00 -0.22629763375E+01  0.16894441653E+02  0.17064054628E+02  0.51100000000E-03 0.  1.
         12    1    3    3    0    0 -0.16384975572E+02 -0.22180608491E+01  0.72630353400E+01  0.18059316176E+02  0.00000000000E+00 0. -1.
</event>
<event>
 7    1  0.3331850E-011  0.5052885E+02  0.7816164E-02  0.1300439E+00
        -11   -1    0    0    0    0  0.00000000000E+00  0.00000000000E+00  0.45593999997E+02  0.45594000000E+02  0.51100000000E-03 0.  1.
         11   -1    0    0    0    0 -0.00000000000E+00 -0.00000000000E+00 -0.45593999997E+02  0.45594000000E+02  0.51100000000E-03 0. -1.
    9900012    2    1    2    0    0 -0.38741847447E+02  0.45166749150E+01  0.11481945311E+02  0.50528853870E+02  0.29999981824E+02 0.  0.
         12    1    1    2    0    0  0.38741847447E+02 -0.45166749150E+01 -0.11481945311E+02  0.40659146130E+02  0.00000000000E+00 0. -1.
         11    1    3    3    0    0 -0.52235033609E+01  0.42382980191E+00  0.63331877693E+01  0.82203337307E+01  0.51100000000E-03 0. -1.
        -11    1    3    3    0    0 -0.45125596307E+01 -0.11415701214E+01  0.11280535567E+02  0.12203149581E+02  0.51100000000E-03 0.  1.
         12    1    3    3    0    0 -0.29005784455E+02  0.52344152345E+01 -0.61317780252E+01  0.30105370559E+02  0.00000000000E+00 0. -1.
</event>
<event>
 7    1  0.3331850E-011  0.5052886E+02  0.7816164E-02  0.1300439E+00
        -11   -1    0    0    0    0  0.00000000000E+00  0.00000000000E+00  0.45593999997E+02  0.45594000000E+02  0.51100000000E-03 0.  1.
         11   -1    0    0    0    0 -0.00000000000E+00 -0.00000000000E+00 -0.45593999997E+02  0.45594000000E+02  0.51100000000E-03 0. -1.
    9900012    2    1    2    0    0  0.11618817462E+02 -0.37042984328E+02 -0.12082469612E+02  0.50528859833E+02  0.29999999950E+02 0.  0.
         12    1    1    2    0    0 -0.11618817462E+02  0.37042984328E+02  0.12082469612E+02  0.40659140167E+02  0.00000000000E+00 0. -1.
         11    1    3    3    0    0 -0.16387125452E+01 -0.26942186878E+02 -0.17035933837E+02  0.31918487661E+02  0.51100000000E-03 0. -1.
        -11    1    3    3    0    0 -0.39397629142E+00 -0.13460815425E+00 -0.67711661202E+00  0.79487347470E+00  0.51100000000E-03 0.  1.
        -12    1    3    3    0    0  0.13651506299E+02 -0.99661892955E+01  0.56305808366E+01  0.17815498698E+02  0.00000000000E+00 0.  1.
</event>
<event>
 7    1  0.3331850E-011  0.5052886E+02  0.7816164E-02  0.1300439E+00
        -11   -1    0    0    0    0  0.00000000000E+00  0.00000000000E+00  0.45593999997E+02  0.45594000000E+02  0.51100000000E-03 0. -1.
         11   -1    0    0    0    0 -0.00000000000E+00 -0.00000000000E+00 -0.45593999997E+02  0.45594000000E+02  0.51100000000E-03 0.  1.
    9900012    2    1    2    0    0  0.59874715996E+01 -0.32533591840E+02 -0.23640677654E+02  0.50528855222E+02  0.29999985932E+02 0.  0.
         12    1    1    2    0    0 -0.59874715996E+01  0.32533591840E+02  0.23640677654E+02  0.40659144778E+02  0.00000000000E+00 0. -1.
         11    1    3    3    0    0  0.51178856022E+01 -0.31311881653E+01  0.81955227526E+00  0.60554734379E+01  0.51100000000E-03 0. -1.
        -11    1    3    3    0    0  0.10693935352E+02 -0.20180645387E+02 -0.10722948153E+02  0.25230939715E+02  0.51100000000E-03 0.  1.
        -12    1    3    3    0    0 -0.98243493547E+01 -0.92217582876E+01 -0.13737281777E+02  0.19242442069E+02  0.00000000000E+00 0.  1.
</event>
<event>
 7    1  0.3331850E-011  0.5052886E+02  0.7816164E-02  0.1300439E+00
        -11   -1    0    0    0    0  0.00000000000E+00  0.00000000000E+00  0.45593999997E+02  0.45594000000E+02  0.51100000000E-03 0.  1.
         11   -1    0    0    0    0 -0.00000000000E+00 -0.00000000000E+00 -0.45593999997E+02  0.45594000000E+02  0.51100000000E-03 0. -1.
    9900012    2    1    2    0    0 -0.20307195637E+02 -0.29644936000E+02  0.19025274944E+02  0.50528861891E+02  0.30000006203E+02 0.  0.
         12    1    1    2    0    0  0.20307195637E+02  0.29644936000E+02 -0.19025274944E+02  0.40659138109E+02  0.00000000000E+00 0. -1.
         11    1    3    3    0    0 -0.10269592631E+02 -0.12238152781E+02  0.45440152133E+01  0.16609785995E+02  0.51100000000E-03 0. -1.
        -11    1    3    3    0    0  0.38092080835E+01 -0.16165127800E+02  0.61410463691E+01  0.17706887750E+02  0.51100000000E-03 0.  1.
         12    1    3    3    0    0 -0.13846811089E+02 -0.12416554189E+01  0.83402133621E+01  0.16212188145E+02  0.00000000000E+00 0. -1.
</event>
<event>
 7    1  0.3331850E-011  0.5052885E+02  0.7816164E-02  0.1300439E+00
        -11   -1    0    0    0    0  0.00000000000E+00  0.00000000000E+00  0.45593999997E+02  0.45594000000E+02  0.51100000000E-03 0.  1.
         11   -1    0    0    0    0 -0.00000000000E+00 -0.00000000000E+00 -0.45593999997E+02  0.45594000000E+02  0.51100000000E-03 0. -1.
    9900012    2    1    2    0    0  0.17082794470E+02  0.76710453098E+01  0.36090156194E+02  0.50528853709E+02  0.29999981334E+02 0.  0.
         12    1    1    2    0    0 -0.17082794470E+02 -0.76710453098E+01 -0.36090156194E+02  0.40659146291E+02  0.00000000000E+00 0. -1.
         11    1    3    3    0    0  0.18321763098E+01  0.12370834405E+02  0.11392354858E+02  0.16916860328E+02  0.51100000000E-03 0. -1.
        -11    1    3    3    0    0  0.56677617222E+01 -0.16178504507E+01 -0.10314151623E+01  0.59837095951E+01  0.51100000000E-03 0.  1.
        -12    1    3    3    0    0  0.95828564378E+01 -0.30819386446E+01  0.25729216498E+02  0.27628283785E+02  0.00000000000E+00 0.  1.
</event>
<event>
 7    1  0.5409725E-011  0.5052886E+02  0.7816164E-02  0.1300439E+00
        -11   -1    0    0    0    0  0.00000000000E+00  0.00000000000E+00  0.45593999997E+02  0.45594000000E+02  0.51100000000E-03 0. -1.
         11   -1    0    0    0    0 -0.00000000000E+00 -0.00000000000E+00 -0.45593999997E+02  0.45594000000E+02  0.51100000000E-03 0.  1.
    9900012    2    1    2    0    0  0.17271200951E+02  0.24434218272E+02 -0.27528892980E+02  0.50528863837E+02  0.30000012117E+02 0.  0.
         12    1    1    2    0    0 -0.17271200951E+02 -0.24434218272E+02  0.27528892980E+02  0.40659136163E+02  0.00000000000E+00 0. -1.
         11    1    3    3    0    0  0.93194105869E+01  0.57459062612E+01 -0.25152181522E+01  0.11233573566E+02  0.51100000000E-03 0. -1.
        -11    1    3    3    0    0  0.15748556829E+02  0.10715668034E+02 -0.17339095976E+02  0.25758238160E+02  0.51100000000E-03 0.  1.
         12    1    3    3    0    0 -0.77967664643E+01  0.79726439770E+01 -0.76745788518E+01  0.13537052110E+02  0.00000000000E+00 0. -1.
</event>
<event>
 7    1  0.3331850E-011  0.5052884E+02  0.7816164E-02  0.1300439E+00
        -11   -1    0    0    0    0  0.00000000000E+00  0.00000000000E+00  0.45593999997E+02  0.45594000000E+02  0.51100000000E-03 0. -1.
         11   -1    0    0    0    0 -0.00000000000E+00 -0.00000000000E+00 -0.45593999997E+02  0.45594000000E+02  0.51100000000E-03 0.  1.
    9900012    2    1    2    0    0  0.26094188295E+02 -0.23607792258E+02 -0.20369895819E+02  0.50528841453E+02  0.29999944079E+02 0.  0.
         12    1    1    2    0    0 -0.26094188295E+02  0.23607792258E+02  0.20369895819E+02  0.40659158547E+02  0.00000000000E+00 0. -1.
         11    1    3    3    0    0 -0.24884928941E+01 -0.32238265200E+01  0.12417975923E+01  0.42576655383E+01  0.51100000000E-03 0. -1.
        -11    1    3    3    0    0  0.11677147618E+02  0.28794655848E+00  0.36514609643E+00  0.11686403281E+02  0.51100000000E-03 0.  1.
        -12    1    3    3    0    0  0.16905533571E+02 -0.20671912297E+02 -0.21976839508E+02  0.34584772633E+02  0.00000000000E+00 0.  1.
</event>
<event>
 7    1  0.3331850E-011  0.5052886E+02  0.7816164E-02  0.1300439E+00
        -11   -1    0    0    0    0  0.00000000000E+00  0.00000000000E+00  0.45593999997E+02  0.45594000000E+02  0.51100000000E-03 0.  1.
         11   -1    0    0    0    0 -0.00000000000E+00 -0.00000000000E+00 -0.45593999997E+02  0.45594000000E+02  0.51100000000E-03 0. -1.
    9900012    2    1    2    0    0  0.22725925710E+02  0.33704149586E+02 -0.85355360460E+00  0.50528856471E+02  0.29999989730E+02 0.  0.
         12    1    1    2    0    0 -0.22725925710E+02 -0.33704149586E+02  0.85355360460E+00  0.40659143529E+02  0.00000000000E+00 0. -1.
         11    1    3    3    0    0  0.13071411559E+02  0.14828887300E+02  0.62068117308E+01  0.20719126691E+02  0.51100000000E-03 0. -1.
        -11    1    3    3    0    0  0.73301514784E+01  0.16080211685E+02  0.40410483712E+01  0.18128276276E+02  0.51100000000E-03 0.  1.
         12    1    3    3    0    0  0.23243626735E+01  0.27950506008E+01 -0.11101413707E+02  0.11681453505E+02  0.00000000000E+00 0. -1.
</event>
<event>
 7    1  0.3331850E-011  0.5052887E+02  0.7816164E-02  0.1300439E+00
        -11   -1    0    0    0    0  0.00000000000E+00  0.00000000000E+00  0.45593999997E+02  0.45594000000E+02  0.51100000000E-03 0.  1.
         11   -1    0    0    0    0 -0.00000000000E+00 -0.00000000000E+00 -0.45593999997E+02  0.45594000000E+02  0.51100000000E-03 0. -1.
    9900012    2    1    2    0    0  0.72917588313E+01  0.26728452724E+02  0.29758784009E+02  0.50528866247E+02  0.30000019443E+02 0.  0.
         12    1    1    2    0    0 -0.72917588313E+01 -0.26728452724E+02 -0.29758784009E+02  0.40659133753E+02  0.00000000000E+00 0. -1.
         11    1    3    3    0    0  0.25830152926E+01  0.71376922685E+00  0.52623281286E+01  0.59053816223E+01  0.51100000000E-03 0. -1.
        -11    1    3    3    0    0  0.68991824031E+01 -0.31880100254E+01  0.25102251893E+01  0.80039588027E+01  0.51100000000E-03 0.  1.
        -12    1    3    3    0    0 -0.21904388643E+01  0.29202693523E+02  0.21986230691E+02  0.36619525822E+02  0.00000000000E+00 0.  1.
</event>
<event>
 7    1  0.3331850E-011  0.5052886E+02  0.7816164E-02  0.1300439E+00
        -11   -1    0    0    0    0  0.00000000000E+00  0.00000000000E+00  0.45593999997E+02  0.45594000000E+02  0.51100000000E-03 0. -1.
         11   -1    0    0    0    0 -0.00000000000E+00 -0.00000000000E+00 -0.45593999997E+02  0.45594000000E+02  0.51100000000E-03 0.  1.
    9900012    2    1    2    0    0  0.26492635541E+02  0.25064342078E+02 -0.17974549717E+02  0.50528863029E+02  0.30000009663E+02 0.  0.
         12    1    1    2    0    0 -0.26492635541E+02 -0.25064342078E+02  0.17974549717E+02  0.40659136971E+02  0.00000000000E+00 0. -1.
         11    1    3    3    0    0  0.28075308536E+01  0.43026511887E+00 -0.33240981564E+01  0.43722976089E+01  0.51100000000E-03 0. -1.
        -11    1    3    3    0    0  0.28489556199E+02  0.14336003925E+02 -0.76095861056E+01  0.32788437320E+02  0.51100000000E-03 0.  1.
         12    1    3    3    0    0 -0.48044515118E+01  0.10298073034E+02 -0.70408654552E+01  0.13368128100E+02  0.00000000000E+00 0. -1.
</event>
<event>
 7    1  0.3331850E-011  0.5052886E+02  0.7816164E-02  0.1300439E+00
        -11   -1    0    0    0    0  0.00000000000E+00  0.00000000000E+00  0.45593999997E+02  0.45594000000E+02  0.51100000000E-03 0.  1.
         11   -1    0    0    0    0 -0.00000000000E+00 -0.00000000000E+00 -0.45593999997E+02  0.45594000000E+02  0.51100000000E-03 0. -1.
    9900012    2    1    2    0    0  0.37502149868E+01  0.34700917455E+01  0.40336831822E+02  0.50528860184E+02  0.30000001015E+02 0.  0.
         12    1    1    2    0    0 -0.37502149868E+01 -0.34700917455E+01 -0.40336831822E+02  0.40659139816E+02  0.00000000000E+00 0. -1.
         11    1    3    3    0    0  0.55238415946E+01 -0.42622871919E+01  0.69576772383E+01  0.98533847424E+01  0.51100000000E-03 0. -1.
        -11    1    3    3    0    0  0.94996532794E+01 -0.11762037081E+00  0.13144461222E+02  0.16218326302E+02  0.51100000000E-03 0.  1.
         12    1    3    3    0    0 -0.11273279887E+02  0.78499993082E+01  0.20234693362E+02  0.24457149139E+02  0.00000000000E+00 0. -1.
</event>
<event>
 7    1  0.3331850E-011  0.5052886E+02  0.7816164E-02  0.1300439E+00
        -11   -1    0    0    0    0  0.00000000000E+00  0.00000000000E+00  0.45593999997E+02  0.45594000000E+02  0.51100000000E-03 0.  1.
         11   -1    0    0    0    0 -0.00000000000E+00 -0.00000000000E+00 -0.45593999997E+02  0.45594000000E+02  0.51100000000E-03 0. -1.
    9900012    2    1    2    0    0  0.39959423751E+02  0.29546768830E+01  0.69050665458E+01  0.50528860732E+02  0.30000002681E+02 0.  0.
         12    1    1    2    0    0 -0.39959423751E+02 -0.29546768830E+01 -0.69050665458E+01  0.40659139268E+02  0.00000000000E+00 0. -1.
         11    1    3    3    0    0  0.12061097239E+01 -0.78160982966E+01 -0.14777747782E+01  0.80454901532E+01  0.51100000000E-03 0. -1.
        -11    1    3    3    0    0  0.26948762315E+02  0.63669516518E+01  0.64593412285E+00  0.27698214650E+02  0.51100000000E-03 0.  1.
        -12    1    3    3    0    0  0.11804551712E+02  0.44038235278E+01  0.77369072011E+01  0.14785155929E+02  0.00000000000E+00 0.  1.
</event>
<event>
 7    1  0.3331850E-011  0.5052886E+02  0.7816164E-02  0.1300439E+00
        -11   -1    0    0    0    0  0.00000000000E+00  0.00000000000E+00  0.45593999997E+02  0.45594000000E+02  0.51100000000E-03 0. -1.
         11   -1    0    0    0    0 -0.00000000000E+00 -0.00000000000E+00 -0.45593999997E+02  0.45594000000E+02  0.51100000000E-03 0.  1.
    9900012    2    1    2    0    0 -0.11878752116E+02  0.40953169252E+01 -0.38668970436E+02  0.50528860227E+02  0.30000001145E+02 0.  0.
         12    1    1    2    0    0  0.11878752116E+02 -0.40953169252E+01  0.38668970436E+02  0.40659139773E+02  0.00000000000E+00 0. -1.
         11    1    3    3    0    0 -0.48610462479E+01 -0.41550503424E+00 -0.37470182986E+02  0.37786466206E+02  0.51100000000E-03 0. -1.
        -11    1    3    3    0    0 -0.16724675971E+01  0.28130703682E+01 -0.49938311296E+01  0.59706668280E+01  0.51100000000E-03 0.  1.
         12    1    3    3    0    0 -0.53452382713E+01  0.16977515912E+01  0.37950436799E+01  0.67717271929E+01  0.00000000000E+00 0. -1.
</event>
<event>
 7    1  0.3331850E-011  0.5052886E+02  0.7816164E-02  0.1300439E+00
        -11   -1    0    0    0    0  0.00000000000E+00  0.00000000000E+00  0.45593999997E+02  0.45594000000E+02  0.51100000000E-03 0.  1.
         11   -1    0    0    0    0 -0.00000000000E+00 -0.00000000000E+00 -0.45593999997E+02  0.45594000000E+02  0.51100000000E-03 0. -1.
    9900012    2    1    2    0    0  0.28810760488E+02  0.25316990230E+02 -0.13496505877E+02  0.50528860989E+02  0.30000003463E+02 0.  0.
         12    1    1    2    0    0 -0.28810760488E+02 -0.25316990230E+02  0.13496505877E+02  0.40659139011E+02  0.00000000000E+00 0. -1.
         11    1    3    3    0    0  0.11218756133E+02  0.10964052504E+01 -0.15227914123E+02  0.18946027616E+02  0.51100000000E-03 0. -1.
        -11    1    3    3    0    0  0.16544936648E+02  0.15389784146E+02  0.20146789895E+01  0.22685663236E+02  0.51100000000E-03 0.  1.
        -12    1    3    3    0    0  0.10470677066E+01  0.88308008334E+01 -0.28327074431E+00  0.88971701375E+01  0.00000000000E+00 0.  1.
</event>
<event>
 7    1  0.3331850E-011  0.5052886E+02  0.7816164E-02  0.1300439E+00
        -11   -1    0    0    0    0  0.00000000000E+00  0.00000000000E+00  0.45593999997E+02  0.45594000000E+02  0.51100000000E-03 0. -1.
         11   -1    0    0    0    0 -0.00000000000E+00 -0.00000000000E+00 -0.45593999997E+02  0.45594000000E+02  0.51100000000E-03 0.  1.
    9900012    2    1    2    0    0 -0.38539667639E+02  0.44488710984E+01 -0.12168286096E+02  0.50528860531E+02  0.30000002071E+02 0.  0.
         12    1    1    2    0    0  0.38539667639E+02 -0.44488710984E+01  0.12168286096E+02  0.40659139469E+02  0.00000000000E+00 0. -1.
         11    1    3    3    0    0 -0.16037765462E+02  0.13466207534E+01 -0.14083206113E+02  0.21385976787E+02  0.51100000000E-03 0. -1.
        -11    1    3    3    0    0 -0.21672601567E+01  0.14639430560E+01 -0.65522972261E+01  0.70549801600E+01  0.51100000000E-03 0.  1.
         12    1    3    3    0    0 -0.20334642021E+02  0.16383072890E+01  0.84672172430E+01  0.22087903584E+02  0.00000000000E+00 0. -1.
</event>
<event>
 7    1  0.3360437E-011  0.5052887E+02  0.7816164E-02  0.1300439E+00
        -11   -1    0    0    0    0  0.00000000000E+00  0.00000000000E+00  0.45593999997E+02  0.45594000000E+02  0.51100000000E-03 0. -1.
         11   -1    0    0    0    0 -0.00000000000E+00 -0.00000000000E+00 -0.45593999997E+02  0.45594000000E+02  0.51100000000E-03 0.  1.
    9900012    2    1    2    0    0  0.89276479220E+01  0.35280308600E+02 -0.18131799424E+02  0.50528865446E+02  0.30000017008E+02 0.  0.
         12    1    1    2    0    0 -0.89276479220E+01 -0.35280308600E+02  0.18131799424E+02  0.40659134554E+02  0.00000000000E+00 0. -1.
         11    1    3    3    0    0  0.31723422718E+01  0.65311992225E+00  0.26391166136E+01  0.41779490045E+01  0.51100000000E-03 0. -1.
        -11    1    3    3    0    0 -0.66720726038E+01  0.13687159415E+02 -0.14897877171E+02  0.21302620265E+02  0.51100000000E-03 0.  1.
         12    1    3    3    0    0  0.12427378254E+02  0.20940029263E+02 -0.58730388668E+01  0.25048296176E+02  0.00000000000E+00 0. -1.
</event>
<event>
 7    1  0.3331850E-011  0.5052886E+02  0.7816164E-02  0.1300439E+00
        -11   -1    0    0    0    0  0.00000000000E+00  0.00000000000E+00  0.45593999997E+02  0.45594000000E+02  0.51100000000E-03 0.  1.
         11   -1    0    0    0    0 -0.00000000000E+00 -0.00000000000E+00 -0.45593999997E+02  0.45594000000E+02  0.51100000000E-03 0. -1.
    9900012    2    1    2    0    0 -0.23744382691E+01  0.35851783488E+02  0.19030955561E+02  0.50528860733E+02  0.30000002685E+02 0.  0.
         12    1    1    2    0    0  0.23744382691E+01 -0.35851783488E+02 -0.19030955561E+02  0.40659139267E+02  0.00000000000E+00 0. -1.
         11    1    3    3    0    0  0.21133585339E+01  0.10988463628E+02  0.22794392107E+01  0.11419652384E+02  0.51100000000E-03 0. -1.
        -11    1    3    3    0    0  0.36759544573E+00  0.28646223672E+02  0.16243576255E+02  0.32933190354E+02  0.51100000000E-03 0.  1.
         12    1    3    3    0    0 -0.48553922488E+01 -0.37829038117E+01  0.50794009474E+00  0.61760179953E+01  0.00000000000E+00 0. -1.
</event>
<event>
 7    1  0.3331850E-011  0.5052885E+02  0.7816164E-02  0.1300439E+00
        -11   -1    0    0    0    0  0.00000000000E+00  0.00000000000E+00  0.45593999997E+02  0.45594000000E+02  0.51100000000E-03 0.  1.
         11   -1    0    0    0    0 -0.00000000000E+00 -0.00000000000E+00 -0.45593999997E+02  0.45594000000E+02  0.51100000000E-03 0. -1.
    9900012    2    1    2    0    0  0.32229122128E+01 -0.31651212413E+02  0.25317582216E+02  0.50528851219E+02  0.29999973766E+02 0.  0.
         12    1    1    2    0    0 -0.32229122128E+01  0.31651212413E+02 -0.25317582216E+02  0.40659148781E+02  0.00000000000E+00 0. -1.
         11    1    3    3    0    0 -0.27922254854E+01 -0.40324345829E+01  0.12230058250E+02  0.13176925927E+02  0.51100000000E-03 0. -1.
        -11    1    3    3    0    0 -0.21813139200E+01  0.17483533608E+01  0.51281697984E+01  0.58406331536E+01  0.51100000000E-03 0.  1.
         12    1    3    3    0    0  0.81964516182E+01 -0.29367131191E+02  0.79593541670E+01  0.31511292139E+02  0.00000000000E+00 0. -1.
</event>
<event>
 7    1  0.3331850E-011  0.5052887E+02  0.7816164E-02  0.1300439E+00
        -11   -1    0    0    0    0  0.00000000000E+00  0.00000000000E+00  0.45593999997E+02  0.45594000000E+02  0.51100000000E-03 0.  1.
         11   -1    0    0    0    0 -0.00000000000E+00 -0.00000000000E+00 -0.45593999997E+02  0.45594000000E+02  0.51100000000E-03 0. -1.
    9900012    2    1    2    0    0 -0.26898800346E+02 -0.30175745799E+02  0.43638881179E+01  0.50528872930E+02  0.30000039758E+02 0.  0.
         12    1    1    2    0    0  0.26898800346E+02  0.30175745799E+02 -0.43638881179E+01  0.40659127070E+02  0.00000000000E+00 0. -1.
         11    1    3    3    0    0  0.27685088863E+01 -0.30928008884E+01  0.41753611778E+01  0.58875886418E+01  0.51100000000E-03 0. -1.
        -11    1    3    3    0    0 -0.10928115417E+01 -0.12400912663E+02 -0.10376381260E+01  0.12492140132E+02  0.51100000000E-03 0.  1.
        -12    1    3    3    0    0 -0.28574497690E+02 -0.14682032248E+02  0.12261650662E+01  0.32149144156E+02  0.00000000000E+00 0.  1.
</event>
<event>
 7    1  0.3331850E-011  0.5052885E+02  0.7816164E-02  0.1300439E+00
        -11   -1    0    0    0    0  0.00000000000E+00  0.00000000000E+00  0.45593999997E+02  0.45594000000E+02  0.51100000000E-03 0.  1.
         11   -1    0    0    0    0 -0.00000000000E+00 -0.00000000000E+00 -0.45593999997E+02  0.45594000000E+02  0.51100000000E-03 0. -1.
    9900012    2    1    2    0    0  0.16535248621E+02  0.36217631566E+02  0.82483278937E+01  0.50528853474E+02  0.29999980620E+02 0.  0.
         12    1    1    2    0    0 -0.16535248621E+02 -0.36217631566E+02 -0.82483278937E+01  0.40659146526E+02  0.00000000000E+00 0. -1.
         11    1    3    3    0    0  0.12609690357E+01  0.19526173229E+02  0.59372810805E+01  0.20447806502E+02  0.51100000000E-03 0. -1.
        -11    1    3    3    0    0  0.19008632350E+01  0.15051363462E+02  0.56686500604E+01  0.16195382578E+02  0.51100000000E-03 0.  1.
        -12    1    3    3    0    0  0.13373416350E+02  0.16400948750E+01 -0.33576032472E+01  0.13885664393E+02  0.00000000000E+00 0.  1.
</event>
<event>
 7    1  0.3331850E-011  0.5052886E+02  0.7816164E-02  0.1300439E+00
        -11   -1    0    0    0    0  0.00000000000E+00  0.00000000000E+00  0.45593999997E+02  0.45594000000E+02  0.51100000000E-03 0.  1.
         11   -1    0    0    0    0 -0.00000000000E+00 -0.00000000000E+00 -0.45593999997E+02  0.45594000000E+02  0.51100000000E-03 0. -1.
    9900012    2    1    2    0    0 -0.32641961780E+02  0.18932434188E+02  0.15140384950E+02  0.50528856016E+02  0.29999988346E+02 0.  0.
         12    1    1    2    0    0  0.32641961780E+02 -0.18932434188E+02 -0.15140384950E+02  0.40659143984E+02  0.00000000000E+00 0. -1.
         11    1    3    3    0    0 -0.14416018704E+02  0.74957560850E+01 -0.91182344498E+00  0.16273886347E+02  0.51100000000E-03 0.  1.
        -11    1    3    3    0    0 -0.15934779025E+02 -0.39704596448E-01  0.21443478172E+01  0.16078463448E+02  0.51100000000E-03 0. -1.
         12    1    3    3    0    0 -0.22911640503E+01  0.11476382699E+02  0.13907860577E+02  0.18176506221E+02  0.00000000000E+00 0. -1.
</event>
<event>
 7    1  0.3331850E-011  0.5052886E+02  0.7816164E-02  0.1300439E+00
        -11   -1    0    0    0    0  0.00000000000E+00  0.00000000000E+00  0.45593999997E+02  0.45594000000E+02  0.51100000000E-03 0.  1.
         11   -1    0    0    0    0 -0.00000000000E+00 -0.00000000000E+00 -0.45593999997E+02  0.45594000000E+02  0.51100000000E-03 0. -1.
    9900012    2    1    2    0    0  0.16433265351E+02 -0.79214314900E+01  0.36336818345E+02  0.50528860137E+02  0.30000000874E+02 0.  0.
         12    1    1    2    0    0 -0.16433265351E+02  0.79214314900E+01 -0.36336818345E+02  0.40659139863E+02  0.00000000000E+00 0. -1.
         11    1    3    3    0    0  0.12360166365E+02  0.19871896626E+01  0.47687854454E+01  0.13396415573E+02  0.51100000000E-03 0. -1.
        -11    1    3    3    0    0  0.16990696599E+01  0.36046643255E+01  0.18365025963E+01  0.43878451040E+01  0.51100000000E-03 0.  1.
        -12    1    3    3    0    0  0.23740293264E+01 -0.13513285478E+02  0.29731530303E+02  0.32744599460E+02  0.00000000000E+00 0.  1.
</event>
<event>
 7    1  0.3331850E-011  0.5052887E+02  0.7816164E-02  0.1300439E+00
        -11   -1    0    0    0    0  0.00000000000E+00  0.00000000000E+00  0.45593999997E+02  0.45594000000E+02  0.51100000000E-03 0.  1.
         11   -1    0    0    0    0 -0.00000000000E+00 -0.00000000000E+00 -0.45593999997E+02  0.45594000000E+02  0.51100000000E-03 0. -1.
    9900012    2    1    2    0    0  0.31153815422E+02 -0.13397206943E+02  0.22430331098E+02  0.50528866679E+02  0.30000020757E+02 0.  0.
         12    1    1    2    0    0 -0.31153815422E+02  0.13397206943E+02 -0.22430331098E+02  0.40659133321E+02  0.00000000000E+00 0. -1.
         11    1    3    3    0    0  0.34176842008E+01  0.60317479120E+01  0.65708230394E+01  0.95518722692E+01  0.51100000000E-03 0. -1.
        -11    1    3    3    0    0  0.15686013580E+01  0.28490607859E+01  0.25124495623E+01  0.41097518959E+01  0.51100000000E-03 0.  1.
        -12    1    3    3    0    0  0.26167529864E+02 -0.22278015641E+02  0.13347058496E+02  0.36867242514E+02  0.00000000000E+00 0.  1.
</event>
<event>
 7    1  0.3331850E-011  0.5052889E+02  0.7816164E-02  0.1300439E+00
        -11   -1    0    0    0    0  0.00000000000E+00  0.00000000000E+00  0.45593999997E+02  0.45594000000E+02  0.51100000000E-03 0. -1.
         11   -1    0    0    0    0 -0.00000000000E+00 -0.00000000000E+00 -0.45593999997E+02  0.45594000000E+02  0.51100000000E-03 0.  1.
    9900012    2    1    2    0    0 -0.24096799684E+02  0.31210377246E+02 -0.99206773685E+01  0.50528889800E+02  0.30000091035E+02 0.  0.
         12    1    1    2    0    0  0.24096799684E+02 -0.31210377246E+02  0.99206773685E+01  0.40659110200E+02  0.00000000000E+00 0. -1.
         11    1    3    3    0    0  0.16646007811E+01  0.44905847463E+01  0.34521391763E+01  0.59036863296E+01  0.51100000000E-03 0. -1.
        -11    1    3    3    0    0 -0.43510981652E+01 -0.16152419531E+01 -0.72179608359E+01  0.85813763873E+01  0.51100000000E-03 0.  1.
        -12    1    3    3    0    0 -0.21410302300E+02  0.28335034452E+02 -0.61548557089E+01  0.36043827083E+02  0.00000000000E+00 0.  1.
</event>
<event>
 7    1  0.3331850E-011  0.5052887E+02  0.7816164E-02  0.1300439E+00
        -11   -1    0    0    0    0  0.00000000000E+00  0.00000000000E+00  0.45593999997E+02  0.45594000000E+02  0.51100000000E-03 0. -1.
         11   -1    0    0    0    0 -0.00000000000E+00 -0.00000000000E+00 -0.45593999997E+02  0.45594000000E+02  0.51100000000E-03 0.  1.
    9900012    2    1    2    0    0  0.10638843826E+02 -0.37675307586E+02  0.10979585402E+02  0.50528867013E+02  0.30000021772E+02 0.  0.
         12    1    1    2    0    0 -0.10638843826E+02  0.37675307586E+02 -0.10979585402E+02  0.40659132987E+02  0.00000000000E+00 0. -1.
         11    1    3    3    0    0  0.12861811035E+01 -0.13318916515E+02  0.95002707390E+01  0.16410452259E+02  0.51100000000E-03 0. -1.
        -11    1    3    3    0    0 -0.70515238549E+01 -0.72105410665E+01  0.24156572535E+01  0.10370693871E+02  0.51100000000E-03 0.  1.
        -12    1    3    3    0    0  0.16404186577E+02 -0.17145850005E+02 -0.93634259056E+00  0.23747720882E+02  0.00000000000E+00 0.  1.
</event>
<event>
 7    1  0.3331850E-011  0.5052885E+02  0.7816164E-02  0.1300439E+00
        -11   -1    0    0    0    0  0.00000000000E+00  0.00000000000E+00  0.45593999997E+02  0.45594000000E+02  0.51100000000E-03 0.  1.
         11   -1    0    0    0    0 -0.00000000000E+00 -0.00000000000E+00 -0.45593999997E+02  0.45594000000E+02  0.51100000000E-03 0. -1.
    9900012    2    1    2    0    0 -0.21862471381E+01  0.10791838166E+02  0.39139783355E+02  0.50528854798E+02  0.29999984643E+02 0.  0.
         12    1    1    2    0    0  0.21862471381E+01 -0.10791838166E+02 -0.39139783355E+02  0.40659145202E+02  0.00000000000E+00 0. -1.
         11    1    3    3    0    0 -0.54968416645E+01  0.39542528786E+01  0.34117314738E+01  0.75823014991E+01  0.51100000000E-03 0. -1.
        -11    1    3    3    0    0 -0.44881107595E+01 -0.53825573545E+01  0.21583016848E+02  0.22692326421E+02  0.51100000000E-03 0.  1.
         12    1    3    3    0    0  0.77987052859E+01  0.12220142642E+02  0.14145035033E+02  0.20254226877E+02  0.00000000000E+00 0. -1.
</event>
<event>
 7    1  0.3331850E-011  0.5052885E+02  0.7816164E-02  0.1300439E+00
        -11   -1    0    0    0    0  0.00000000000E+00  0.00000000000E+00  0.45593999997E+02  0.45594000000E+02  0.51100000000E-03 0. -1.
         11   -1    0    0    0    0 -0.00000000000E+00 -0.00000000000E+00 -0.45593999997E+02  0.45594000000E+02  0.51100000000E-03 0.  1.
    9900012    2    1    2    0    0  0.34452652476E+01 -0.66702489660E+01 -0.39960035264E+02  0.50528849834E+02  0.29999969555E+02 0.  0.
         12    1    1    2    0    0 -0.34452652476E+01  0.66702489660E+01  0.39960035264E+02  0.40659150166E+02  0.00000000000E+00 0. -1.
         11    1    3    3    0    0  0.12847924343E+01 -0.67752394224E+01  0.21564217615E+01  0.72252831020E+01  0.51100000000E-03 0. -1.
        -11    1    3    3    0    0 -0.18772975924E+01  0.40172243831E+01 -0.17465274945E+02  0.18019383096E+02  0.51100000000E-03 0.  1.
        -12    1    3    3    0    0  0.40377704057E+01 -0.39122339268E+01 -0.24651182081E+02  0.25284183636E+02  0.00000000000E+00 0.  1.
</event>
<event>
 7    1  0.3331850E-011  0.5052886E+02  0.7816164E-02  0.1300439E+00
        -11   -1    0    0    0    0  0.00000000000E+00  0.00000000000E+00  0.45593999997E+02  0.45594000000E+02  0.51100000000E-03 0.  1.
         11   -1    0    0    0    0 -0.00000000000E+00 -0.00000000000E+00 -0.45593999997E+02  0.45594000000E+02  0.51100000000E-03 0. -1.
    9900012    2    1    2    0    0 -0.27716997229E+02  0.12353814938E+02  0.27061352076E+02  0.50528862588E+02  0.30000008323E+02 0.  0.
         12    1    1    2    0    0  0.27716997229E+02 -0.12353814938E+02 -0.27061352076E+02  0.40659137412E+02  0.00000000000E+00 0. -1.
         11    1    3    3    0    0 -0.10303092845E+02  0.97805825381E+01  0.21755419051E+02  0.25982913141E+02  0.51100000000E-03 0.  1.
        -11    1    3    3    0    0 -0.18518708939E+02  0.65605257666E+01  0.32069779819E+01  0.19906476010E+02  0.51100000000E-03 0. -1.
         12    1    3    3    0    0  0.11048045547E+01 -0.39872933671E+01  0.20989550430E+01  0.46394734369E+01  0.00000000000E+00 0. -1.
</event>
<event>
 7    1  0.3331850E-011  0.5052886E+02  0.7816164E-02  0.1300439E+00
        -11   -1    0    0    0    0  0.00000000000E+00  0.00000000000E+00  0.45593999997E+02  0.45594000000E+02  0.51100000000E-03 0.  1.
         11   -1    0    0    0    0 -0.00000000000E+00 -0.00000000000E+00 -0.45593999997E+02  0.45594000000E+02  0.51100000000E-03 0. -1.
    9900012    2    1    2    0    0 -0.30731669889E+02 -0.51694015656E+00  0.26616970910E+02  0.50528857095E+02  0.29999991627E+02 0.  0.
         12    1    1    2    0    0  0.30731669889E+02  0.51694015656E+00 -0.26616970910E+02  0.40659142905E+02  0.00000000000E+00 0. -1.
         11    1    3    3    0    0 -0.14338984003E+02 -0.88311150684E+01  0.84205303870E+01  0.18828180683E+02  0.51100000000E-03 0. -1.
        -11    1    3    3    0    0 -0.12169123889E+02  0.60709009101E+01  0.76034721741E+00  0.13620629289E+02  0.51100000000E-03 0.  1.
        -12    1    3    3    0    0 -0.42235619975E+01  0.22432740017E+01  0.17436093306E+02  0.18080047123E+02  0.00000000000E+00 0.  1.
</event>
<event>
 7    1  0.3331850E-011  0.5052886E+02  0.7816164E-02  0.1300439E+00
        -11   -1    0    0    0    0  0.00000000000E+00  0.00000000000E+00  0.45593999997E+02  0.45594000000E+02  0.51100000000E-03 0.  1.
         11   -1    0    0    0    0 -0.00000000000E+00 -0.00000000000E+00 -0.45593999997E+02  0.45594000000E+02  0.51100000000E-03 0. -1.
    9900012    2    1    2    0    0  0.27357146447E+02  0.23807681441E+01  0.29984730623E+02  0.50528860939E+02  0.30000003310E+02 0.  0.
         12    1    1    2    0    0 -0.27357146447E+02 -0.23807681441E+01 -0.29984730623E+02  0.40659139061E+02  0.00000000000E+00 0. -1.
         11    1    3    3    0    0 -0.36164012216E+00  0.67744956653E+00 -0.35555198291E+01  0.36375050529E+01  0.51100000000E-03 0. -1.
        -11    1    3    3    0    0 -0.17295494099E+01 -0.21742472614E+01  0.13421921251E+01  0.30854776416E+01  0.51100000000E-03 0.  1.
        -12    1    3    3    0    0  0.29448335979E+02  0.38775658390E+01  0.32198058327E+02  0.43805878244E+02  0.00000000000E+00 0.  1.
</event>
<event>
 7    1  0.3331850E-011  0.5052886E+02  0.7816164E-02  0.1300439E+00
        -11   -1    0    0    0    0  0.00000000000E+00  0.00000000000E+00  0.45593999997E+02  0.45594000000E+02  0.51100000000E-03 0.  1.
         11   -1    0    0    0    0 -0.00000000000E+00 -0.00000000000E+00 -0.45593999997E+02  0.45594000000E+02  0.51100000000E-03 0. -1.
    9900012    2    1    2    0    0  0.18539125222E+02 -0.13173868510E+02  0.33703351941E+02  0.50528857023E+02  0.29999991407E+02 0.  0.
         12    1    1    2    0    0 -0.18539125222E+02  0.13173868510E+02 -0.33703351941E+02  0.40659142977E+02  0.00000000000E+00 0. -1.
         11    1    3    3    0    0  0.36305527842E+01 -0.31823223119E+00  0.14522090268E+01  0.39231488106E+01  0.51100000000E-03 0. -1.
        -11    1    3    3    0    0  0.12907102687E+02 -0.14294865362E+02  0.36741347577E+02  0.41483286966E+02  0.51100000000E-03 0.  1.
         12    1    3    3    0    0  0.20014697508E+01  0.14392290829E+01 -0.44902046621E+01  0.51224212463E+01  0.00000000000E+00 0. -1.
</event>
<event>
 7    1  0.3331850E-011  0.5052886E+02  0.7816164E-02  0.1300439E+00
        -11   -1    0    0    0    0  0.00000000000E+00  0.00000000000E+00  0.45593999997E+02  0.45594000000E+02  0.51100000000E-03 0.  1.
         11   -1    0    0    0    0 -0.00000000000E+00 -0.00000000000E+00 -0.45593999997E+02  0.45594000000E+02  0.51100000000E-03 0. -1.
    9900012    2    1    2    0    0 -0.28408458643E+02  0.22509534700E+01  0.29001008710E+02  0.50528858098E+02  0.29999994674E+02 0.  0.
         12    1    1    2    0    0  0.28408458643E+02 -0.22509534700E+01 -0.29001008710E+02  0.40659141902E+02  0.00000000000E+00 0. -1.
         11    1    3    3    0    0 -0.11191355519E+02  0.95395338011E+00  0.60136767480E+01  0.12740517010E+02  0.51100000000E-03 0. -1.
        -11    1    3    3    0    0 -0.17186487109E+02 -0.83644096810E+01  0.99127878478E+01  0.21531420103E+02  0.51100000000E-03 0.  1.
         12    1    3    3    0    0 -0.30616015117E-01  0.96614097709E+01  0.13074544115E+02  0.16256920985E+02  0.00000000000E+00 0. -1.
</event>
<event>
 7    1  0.3331850E-011  0.5052885E+02  0.7816164E-02  0.1300439E+00
        -11   -1    0    0    0    0  0.00000000000E+00  0.00000000000E+00  0.45593999997E+02  0.45594000000E+02  0.51100000000E-03 0.  1.
         11   -1    0    0    0    0 -0.00000000000E+00 -0.00000000000E+00 -0.45593999997E+02  0.45594000000E+02  0.51100000000E-03 0. -1.
    9900012    2    1    2    0    0  0.29825922795E+01  0.84764466508E+01  0.39653757996E+02  0.50528849397E+02  0.29999968227E+02 0.  0.
         12    1    1    2    0    0 -0.29825922795E+01 -0.84764466508E+01 -0.39653757996E+02  0.40659150603E+02  0.00000000000E+00 0. -1.
         11    1    3    3    0    0  0.51864859361E+01  0.12226082785E+02  0.21127101986E+02  0.24954582249E+02  0.51100000000E-03 0. -1.
        -11    1    3    3    0    0  0.30246255095E+01  0.45557123945E+01  0.13462312561E+02  0.14530544884E+02  0.51100000000E-03 0.  1.
        -12    1    3    3    0    0 -0.52285191661E+01 -0.83053485290E+01  0.50643434499E+01  0.11043722264E+02  0.00000000000E+00 0.  1.
</event>
<event>
 7    1  0.3331850E-011  0.5052886E+02  0.7816164E-02  0.1300439E+00
        -11   -1    0    0    0    0  0.00000000000E+00  0.00000000000E+00  0.45593999997E+02  0.45594000000E+02  0.51100000000E-03 0.  1.
         11   -1    0    0    0    0 -0.00000000000E+00 -0.00000000000E+00 -0.45593999997E+02  0.45594000000E+02  0.51100000000E-03 0. -1.
    9900012    2    1    2    0    0  0.14093288934E+01  0.38749790036E+02  0.12232468416E+02  0.50528859339E+02  0.29999998447E+02 0.  0.
         12    1    1    2    0    0 -0.14093288934E+01 -0.38749790036E+02 -0.12232468416E+02  0.40659140661E+02  0.00000000000E+00 0. -1.
         11    1    3    3    0    0  0.49831068206E+01  0.17612353589E+02  0.57177056326E+01  0.19175987863E+02  0.51100000000E-03 0. -1.
        -11    1    3    3    0    0 -0.56709683772E+00  0.25049465975E+02  0.78223822546E+01  0.26248562034E+02  0.51100000000E-03 0.  1.
         12    1    3    3    0    0 -0.30066810894E+01 -0.39120295282E+01 -0.13076194715E+01  0.51043094426E+01  0.00000000000E+00 0. -1.
</event>
<event>
 7    1  0.3331850E-011  0.5052886E+02  0.7816164E-02  0.1300439E+00
        -11   -1    0    0    0    0  0.00000000000E+00  0.00000000000E+00  0.45593999997E+02  0.45594000000E+02  0.51100000000E-03 0.  1.
         11   -1    0    0    0    0 -0.00000000000E+00 -0.00000000000E+00 -0.45593999997E+02  0.45594000000E+02  0.51100000000E-03 0. -1.
    9900012    2    1    2    0    0  0.54661325614E+01 -0.11641195775E+02  0.38571613556E+02  0.50528863062E+02  0.30000009763E+02 0.  0.
         12    1    1    2    0    0 -0.54661325614E+01  0.11641195775E+02 -0.38571613556E+02  0.40659136938E+02  0.00000000000E+00 0. -1.
         11    1    3    3    0    0 -0.64003445329E+01 -0.17110443047E+01  0.85691048224E+01  0.10831511458E+02  0.51100000000E-03 0. -1.
        -11    1    3    3    0    0 -0.28195031798E+01  0.27944817495E+01  0.13915502784E+02  0.14470658050E+02  0.51100000000E-03 0.  1.
        -12    1    3    3    0    0  0.14685980274E+02 -0.12724633220E+02  0.16087005950E+02  0.25226693553E+02  0.00000000000E+00 0.  1.
</event>
<event>
 7    1  0.3331850E-011  0.5052892E+02  0.7816164E-02  0.1300439E+00
        -11   -1    0    0    0    0  0.00000000000E+00  0.00000000000E+00  0.45593999997E+02  0.45594000000E+02  0.51100000000E-03 0. -1.
         11   -1    0    0    0    0 -0.00000000000E+00 -0.00000000000E+00 -0.45593999997E+02  0.45594000000E+02  0.51100000000E-03 0.  1.
    9900012    2    1    2    0    0  0.24330237417E+02 -0.79140361445E+01 -0.31600133345E+02  0.50528919239E+02  0.30000180520E+02 0.  0.
         12    1    1    2    0    0 -0.24330237417E+02  0.79140361445E+01  0.31600133345E+02  0.40659080761E+02  0.00000000000E+00 0. -1.
         11    1    3    3    0    0  0.90336499035E+01  0.90724035052E+01 -0.18189973617E+02  0.22243886270E+02  0.51100000000E-03 0. -1.
        -11    1    3    3    0    0  0.17377724140E+01 -0.13866091619E+01 -0.58818000255E+01  0.62879336615E+01  0.51100000000E-03 0.  1.
        -12    1    3    3    0    0  0.13558815100E+02 -0.15599830488E+02 -0.75283597028E+01  0.21997099308E+02  0.00000000000E+00 0.  1.
</event>
<event>
 7    1  0.3331850E-011  0.5052887E+02  0.7816164E-02  0.1300439E+00
        -11   -1    0    0    0    0  0.00000000000E+00  0.00000000000E+00  0.45593999997E+02  0.45594000000E+02  0.51100000000E-03 0.  1.
         11   -1    0    0    0    0 -0.00000000000E+00 -0.00000000000E+00 -0.45593999997E+02  0.45594000000E+02  0.51100000000E-03 0. -1.
    9900012    2    1    2    0    0  0.20410761239E+02 -0.34409761486E+02  0.72480255283E+01  0.50528871457E+02  0.30000035279E+02 0.  0.
         12    1    1    2    0    0 -0.20410761239E+02  0.34409761486E+02 -0.72480255283E+01  0.40659128543E+02  0.00000000000E+00 0. -1.
         11    1    3    3    0    0 -0.24525669070E+01 -0.90621477066E+01 -0.41881430970E+01  0.10279987760E+02  0.51100000000E-03 0. -1.
        -11    1    3    3    0    0 -0.10865410461E+01  0.19422663988E+01  0.11814267466E+01  0.25196705394E+01  0.51100000000E-03 0.  1.
        -12    1    3    3    0    0  0.23949869192E+02 -0.27289880178E+02  0.10254741879E+02  0.37729213157E+02  0.00000000000E+00 0.  1.
</event>
<event>
 7    1  0.3331850E-011  0.5052886E+02  0.7816164E-02  0.1300439E+00
        -11   -1    0    0    0    0  0.00000000000E+00  0.00000000000E+00  0.45593999997E+02  0.45594000000E+02  0.51100000000E-03 0. -1.
         11   -1    0    0    0    0 -0.00000000000E+00 -0.00000000000E+00 -0.45593999997E+02  0.45594000000E+02  0.51100000000E-03 0.  1.
    9900012    2    1    2    0    0  0.39380534392E+02 -0.91078835613E+01 -0.44029229048E+01  0.50528858813E+02  0.29999996847E+02 0.  0.
         12    1    1    2    0    0 -0.39380534392E+02  0.91078835613E+01  0.44029229048E+01  0.40659141187E+02  0.00000000000E+00 0. -1.
         11    1    3    3    0    0  0.15141265324E+02 -0.68472961382E+01  0.10176130811E+02  0.19485815830E+02  0.51100000000E-03 0. -1.
        -11    1    3    3    0    0  0.15559038971E+01 -0.24993390248E+01 -0.61944301133E+01  0.68584617217E+01  0.51100000000E-03 0.  1.
        -12    1    3    3    0    0  0.22683365171E+02  0.23875160170E+00 -0.83846236027E+01  0.24184581261E+02  0.00000000000E+00 0.  1.
</event>
<event>
 7    1  0.3331850E-011  0.5052886E+02  0.7816164E-02  0.1300439E+00
        -11   -1    0    0    0    0  0.00000000000E+00  0.00000000000E+00  0.45593999997E+02  0.45594000000E+02  0.51100000000E-03 0.  1.
         11   -1    0    0    0    0 -0.00000000000E+00 -0.00000000000E+00 -0.45593999997E+02  0.45594000000E+02  0.51100000000E-03 0. -1.
    9900012    2    1    2    0    0 -0.22944772298E+01  0.36208799011E+02  0.18352765394E+02  0.50528858971E+02  0.29999997330E+02 0.  0.
         12    1    1    2    0    0  0.22944772298E+01 -0.36208799011E+02 -0.18352765394E+02  0.40659141029E+02  0.00000000000E+00 0. -1.
         11    1    3    3    0    0  0.23346071693E+01 -0.23577128475E+01  0.28774626320E+01  0.43919234927E+01  0.51100000000E-03 0. -1.
        -11    1    3    3    0    0  0.54717662733E+01  0.44291778976E+01  0.61196176004E+01  0.93277844547E+01  0.51100000000E-03 0.  1.
         12    1    3    3    0    0 -0.10100850672E+02  0.34137333961E+02  0.93556851618E+01  0.36809151024E+02  0.00000000000E+00 0. -1.
</event>
<event>
 7    1  0.3331850E-011  0.5052890E+02  0.7816164E-02  0.1300439E+00
        -11   -1    0    0    0    0  0.00000000000E+00  0.00000000000E+00  0.45593999997E+02  0.45594000000E+02  0.51100000000E-03 0. -1.
         11   -1    0    0    0    0 -0.00000000000E+00 -0.00000000000E+00 -0.45593999997E+02  0.45594000000E+02  0.51100000000E-03 0.  1.
    9900012    2    1    2    0    0  0.17491352848E+02  0.16024349536E+02 -0.33021744011E+02  0.50528895484E+02  0.30000108313E+02 0.  0.
         12    1    1    2    0    0 -0.17491352848E+02 -0.16024349536E+02  0.33021744011E+02  0.40659104516E+02  0.00000000000E+00 0. -1.
         11    1    3    3    0    0  0.49199539390E+01  0.13633471730E+02 -0.20895649140E+02  0.25430408007E+02  0.51100000000E-03 0. -1.
        -11    1    3    3    0    0  0.25010476866E+01  0.71766209463E+01 -0.11686243978E+02  0.13940137242E+02  0.51100000000E-03 0.  1.
         12    1    3    3    0    0  0.10070351223E+02 -0.47857431408E+01 -0.43985089313E+00  0.11158350235E+02  0.00000000000E+00 0. -1.
</event>
<event>
 7    1  0.3331850E-011  0.5052886E+02  0.7816164E-02  0.1300439E+00
        -11   -1    0    0    0    0  0.00000000000E+00  0.00000000000E+00  0.45593999997E+02  0.45594000000E+02  0.51100000000E-03 0.  1.
         11   -1    0    0    0    0 -0.00000000000E+00 -0.00000000000E+00 -0.45593999997E+02  0.45594000000E+02  0.51100000000E-03 0. -1.
    9900012    2    1    2    0    0  0.27383079567E+02  0.98673180863E+00  0.30039292055E+02  0.50528858919E+02  0.29999997171E+02 0.  0.
         12    1    1    2    0    0 -0.27383079567E+02 -0.98673180863E+00 -0.30039292055E+02  0.40659141081E+02  0.00000000000E+00 0. -1.
         11    1    3    3    0    0  0.63543462000E+00  0.39892754250E+00 -0.32837460202E+01  0.33683688228E+01  0.51100000000E-03 0. -1.
        -11    1    3    3    0    0  0.67389379470E+01 -0.88292204445E+01  0.13304988214E+02  0.17331795347E+02  0.51100000000E-03 0.  1.
        -12    1    3    3    0    0  0.20008707000E+02  0.94170247106E+01  0.20018049861E+02  0.29828694750E+02  0.00000000000E+00 0.  1.
</event>
<event>
 7    1  0.3607181E-011  0.5052885E+02  0.7816164E-02  0.1300439E+00
        -11   -1    0    0    0    0  0.00000000000E+00  0.00000000000E+00  0.45593999997E+02  0.45594000000E+02  0.51100000000E-03 0. -1.
         11   -1    0    0    0    0 -0.00000000000E+00 -0.00000000000E+00 -0.45593999997E+02  0.45594000000E+02  0.51100000000E-03 0.  1.
    9900012    2    1    2    0    0  0.23785685675E+02 -0.26383415026E+02 -0.19781882059E+02  0.50528852330E+02  0.29999977142E+02 0.  0.
         12    1    1    2    0    0 -0.23785685675E+02  0.26383415026E+02  0.19781882059E+02  0.40659147670E+02  0.00000000000E+00 0. -1.
         11    1    3    3    0    0  0.98593740691E+01 -0.83127920428E+00 -0.78562949371E+01  0.12634067142E+02  0.51100000000E-03 0.  1.
        -11    1    3    3    0    0  0.55671321327E+01 -0.49700227272E+01 -0.13708785530E+02  0.15608487661E+02  0.51100000000E-03 0. -1.
         12    1    3    3    0    0  0.83591794732E+01 -0.20582113095E+02  0.17831984077E+01  0.22286297527E+02  0.00000000000E+00 0. -1.
</event>
<event>
 7    1  0.3331850E-011  0.5052886E+02  0.7816164E-02  0.1300439E+00
        -11   -1    0    0    0    0  0.00000000000E+00  0.00000000000E+00  0.45593999997E+02  0.45594000000E+02  0.51100000000E-03 0.  1.
         11   -1    0    0    0    0 -0.00000000000E+00 -0.00000000000E+00 -0.45593999997E+02  0.45594000000E+02  0.51100000000E-03 0. -1.
    9900012    2    1    2    0    0  0.13692436809E+02 -0.17220618332E+02  0.34192589247E+02  0.50528859811E+02  0.29999999882E+02 0.  0.
         12    1    1    2    0    0 -0.13692436809E+02  0.17220618332E+02 -0.34192589247E+02  0.40659140189E+02  0.00000000000E+00 0. -1.
         11    1    3    3    0    0  0.36861108142E+00 -0.12498317337E+02  0.68583488905E+01  0.14261162651E+02  0.51100000000E-03 0. -1.
        -11    1    3    3    0    0 -0.34843414777E+01  0.25698625314E+01  0.10615062755E+02  0.11464047563E+02  0.51100000000E-03 0.  1.
         12    1    3    3    0    0  0.16808167205E+02 -0.72921635258E+01  0.16719177601E+02  0.24803649597E+02  0.00000000000E+00 0. -1.
</event>
<event>
 7    1  0.3331850E-011  0.5052884E+02  0.7816164E-02  0.1300439E+00
        -11   -1    0    0    0    0  0.00000000000E+00  0.00000000000E+00  0.45593999997E+02  0.45594000000E+02  0.51100000000E-03 0.  1.
         11   -1    0    0    0    0 -0.00000000000E+00 -0.00000000000E+00 -0.45593999997E+02  0.45594000000E+02  0.51100000000E-03 0. -1.
    9900012    2    1    2    0    0 -0.19553119268E+02  0.34366196575E+02  0.94766620659E+01  0.50528842802E+02  0.29999948182E+02 0.  0.
         12    1    1    2    0    0  0.19553119268E+02 -0.34366196575E+02 -0.94766620659E+01  0.40659157198E+02  0.00000000000E+00 0. -1.
         11    1    3    3    0    0 -0.20026203771E+02  0.57692689377E+01  0.49303557731E+01  0.21415921877E+02  0.51100000000E-03 0. -1.
        -11    1    3    3    0    0 -0.38077844825E+00  0.24185653827E+01  0.11376794138E+01  0.26997713694E+01  0.51100000000E-03 0.  1.
         12    1    3    3    0    0  0.85386295106E+00  0.26178362254E+02  0.34086268790E+01  0.26413149556E+02  0.00000000000E+00 0. -1.
</event>
<event>
 7    1  0.3331850E-011  0.5052886E+02  0.7816164E-02  0.1300439E+00
        -11   -1    0    0    0    0  0.00000000000E+00  0.00000000000E+00  0.45593999997E+02  0.45594000000E+02  0.51100000000E-03 0.  1.
         11   -1    0    0    0    0 -0.00000000000E+00 -0.00000000000E+00 -0.45593999997E+02  0.45594000000E+02  0.51100000000E-03 0. -1.
    9900012    2    1    2    0    0  0.19914940260E+02 -0.13953307184E+02  0.32586283817E+02  0.50528861791E+02  0.30000005900E+02 0.  0.
         12    1    1    2    0    0 -0.19914940260E+02  0.13953307184E+02 -0.32586283817E+02  0.40659138209E+02  0.00000000000E+00 0. -1.
         11    1    3    3    0    0  0.17152030386E+02 -0.44496726197E+01  0.13003557434E+02  0.21979177396E+02  0.51100000000E-03 0. -1.
        -11    1    3    3    0    0  0.67715704809E+01 -0.11606977514E+02  0.19899340957E+02  0.24011661013E+02  0.51100000000E-03 0.  1.
         12    1    3    3    0    0 -0.40086606074E+01  0.21033429500E+01 -0.31661457511E+00  0.45380233825E+01  0.00000000000E+00 0. -1.
</event>
<event>
 7    1  0.3331850E-011  0.5052887E+02  0.7816164E-02  0.1300439E+00
        -11   -1    0    0    0    0  0.00000000000E+00  0.00000000000E+00  0.45593999997E+02  0.45594000000E+02  0.51100000000E-03 0.  1.
         11   -1    0    0    0    0 -0.00000000000E+00 -0.00000000000E+00 -0.45593999997E+02  0.45594000000E+02  0.51100000000E-03 0. -1.
    9900012    2    1    2    0    0 -0.39648986534E+02  0.89715390854E+01 -0.79621681459E+00  0.50528873006E+02  0.30000039989E+02 0.  0.
         12    1    1    2    0    0  0.39648986534E+02 -0.89715390854E+01  0.79621681459E+00  0.40659126994E+02  0.00000000000E+00 0. -1.
         11    1    3    3    0    0 -0.43407898711E+01  0.18526023957E+01 -0.68177272979E+01  0.82919236677E+01  0.51100000000E-03 0. -1.
        -11    1    3    3    0    0 -0.27762637877E+01  0.80628475566E+01 -0.19101570972E+01  0.87387557316E+01  0.51100000000E-03 0.  1.
        -12    1    3    3    0    0 -0.32531932875E+02 -0.94391086686E+00  0.79316675806E+01  0.33498193607E+02  0.00000000000E+00 0.  1.
</event>
<event>
 7    1  0.3331850E-011  0.5052883E+02  0.7816164E-02  0.1300439E+00
        -11   -1    0    0    0    0  0.00000000000E+00  0.00000000000E+00  0.45593999997E+02  0.45594000000E+02  0.51100000000E-03 0.  1.
         11   -1    0    0    0    0 -0.00000000000E+00 -0.00000000000E+00 -0.45593999997E+02  0.45594000000E+02  0.51100000000E-03 0. -1.
    9900012    2    1    2    0    0 -0.17276283501E+02  0.52329191528E+00  0.36802507292E+02  0.50528827001E+02  0.29999900151E+02 0.  0.
         12    1    1    2    0    0  0.17276283501E+02 -0.52329191528E+00 -0.36802507292E+02  0.40659172999E+02  0.00000000000E+00 0. -1.
         11    1    3    3    0    0 -0.18798433888E+01  0.30380464767E+00  0.12216194627E+02  0.12363717881E+02  0.51100000000E-03 0. -1.
        -11    1    3    3    0    0 -0.12120853921E+02  0.29137980103E+01  0.29289440543E+02  0.31832006632E+02  0.51100000000E-03 0.  1.
         12    1    3    3    0    0 -0.32755861915E+01 -0.26943107427E+01 -0.47031278782E+01  0.63331024873E+01  0.00000000000E+00 0. -1.
</event>
<event>
 7    1  0.3331850E-011  0.5052886E+02  0.7816164E-02  0.1300439E+00
        -11   -1    0    0    0    0  0.00000000000E+00  0.00000000000E+00  0.45593999997E+02  0.45594000000E+02  0.51100000000E-03 0. -1.
         11   -1    0    0    0    0 -0.00000000000E+00 -0.00000000000E+00 -0.45593999997E+02  0.45594000000E+02  0.51100000000E-03 0.  1.
    9900012    2    1    2    0    0  0.37439768410E+02 -0.74349232893E+01 -0.14005392619E+02  0.50528863692E+02  0.30000011678E+02 0.  0.
         12    1    1    2    0    0 -0.37439768410E+02  0.74349232893E+01  0.14005392619E+02  0.40659136308E+02  0.00000000000E+00 0. -1.
         11    1    3    3    0    0  0.20763791303E+01 -0.21305029120E+01 -0.64464109380E+01  0.70997610659E+01  0.51100000000E-03 0. -1.
        -11    1    3    3    0    0  0.61867632474E+01 -0.17665273967E+01 -0.12086248333E+02  0.13692116621E+02  0.51100000000E-03 0.  1.
        -12    1    3    3    0    0  0.29176626032E+02 -0.35378929806E+01  0.45272666520E+01  0.29736986006E+02  0.00000000000E+00 0.  1.
</event>
<event>
 7    1  0.3331850E-011  0.5052885E+02  0.7816164E-02  0.1300439E+00
        -11   -1    0    0    0    0  0.00000000000E+00  0.00000000000E+00  0.45593999997E+02  0.45594000000E+02  0.51100000000E-03 0. -1.
         11   -1    0    0    0    0 -0.00000000000E+00 -0.00000000000E+00 -0.45593999997E+02  0.45594000000E+02  0.51100000000E-03 0.  1.
    9900012    2    1    2    0    0  0.22854926099E+02 -0.19236781039E+02 -0.27581963035E+02  0.50528854945E+02  0.29999985090E+02 0.  0.
         12    1    1    2    0    0 -0.22854926099E+02  0.19236781039E+02  0.27581963035E+02  0.40659145055E+02  0.00000000000E+00 0. -1.
         11    1    3    3    0    0 -0.24457053589E+01 -0.10274457411E+01  0.21329844700E+00  0.26613184593E+01  0.51100000000E-03 0. -1.
        -11    1    3    3    0    0  0.54581599598E+01 -0.17860357483E+02 -0.98621916027E+01  0.21119817779E+02  0.51100000000E-03 0.  1.
        -12    1    3    3    0    0  0.19842471498E+02 -0.34897781514E+00 -0.17933069879E+02  0.26747718706E+02  0.00000000000E+00 0.  1.
</event>
<event>
 7    1  0.3331850E-011  0.5052887E+02  0.7816164E-02  0.1300439E+00
        -11   -1    0    0    0    0  0.00000000000E+00  0.00000000000E+00  0.45593999997E+02  0.45594000000E+02  0.51100000000E-03 0.  1.
         11   -1    0    0    0    0 -0.00000000000E+00 -0.00000000000E+00 -0.45593999997E+02  0.45594000000E+02  0.51100000000E-03 0. -1.
    9900012    2    1    2    0    0  0.32438503029E+02  0.16026796987E+02  0.18548593040E+02  0.50528868132E+02  0.30000025175E+02 0.  0.
         12    1    1    2    0    0 -0.32438503029E+02 -0.16026796987E+02 -0.18548593040E+02  0.40659131868E+02  0.00000000000E+00 0. -1.
         11    1    3    3    0    0  0.14581195827E+01  0.13559898136E+02  0.34862990576E+01  0.14076620033E+02  0.51100000000E-03 0. -1.
        -11    1    3    3    0    0 -0.84640955665E+00 -0.75132354302E+00  0.97771904978E-01  0.11359823108E+01  0.51100000000E-03 0.  1.
        -12    1    3    3    0    0  0.31826793003E+02  0.32182223946E+01  0.14964522078E+02  0.35316265789E+02  0.00000000000E+00 0.  1.
</event>
<event>
 7    1  0.3331850E-011  0.5052886E+02  0.7816164E-02  0.1300439E+00
        -11   -1    0    0    0    0  0.00000000000E+00  0.00000000000E+00  0.45593999997E+02  0.45594000000E+02  0.51100000000E-03 0.  1.
         11   -1    0    0    0    0 -0.00000000000E+00 -0.00000000000E+00 -0.45593999997E+02  0.45594000000E+02  0.51100000000E-03 0. -1.
    9900012    2    1    2    0    0  0.12954206268E+02  0.12955974131E+02  0.36297342631E+02  0.50528858250E+02  0.29999995138E+02 0.  0.
         12    1    1    2    0    0 -0.12954206268E+02 -0.12955974131E+02 -0.36297342631E+02  0.40659141750E+02  0.00000000000E+00 0. -1.
         11    1    3    3    0    0  0.14797716692E+01 -0.28313160219E+00 -0.20784480058E+01  0.25670672120E+01  0.51100000000E-03 0. -1.
        -11    1    3    3    0    0  0.83356030542E+01  0.45074280993E+01  0.10898888246E+01  0.95387129246E+01  0.51100000000E-03 0.  1.
        -12    1    3    3    0    0  0.31388315442E+01  0.87316776339E+01  0.37285901813E+02  0.38423078114E+02  0.00000000000E+00 0.  1.
</event>
<event>
 7    1  0.3331850E-011  0.5052887E+02  0.7816164E-02  0.1300439E+00
        -11   -1    0    0    0    0  0.00000000000E+00  0.00000000000E+00  0.45593999997E+02  0.45594000000E+02  0.51100000000E-03 0. -1.
         11   -1    0    0    0    0 -0.00000000000E+00 -0.00000000000E+00 -0.45593999997E+02  0.45594000000E+02  0.51100000000E-03 0.  1.
    9900012    2    1    2    0    0 -0.15408371601E+01  0.18909460156E+02 -0.35961414715E+02  0.50528865591E+02  0.30000017452E+02 0.  0.
         12    1    1    2    0    0  0.15408371601E+01 -0.18909460156E+02  0.35961414715E+02  0.40659134409E+02  0.00000000000E+00 0. -1.
         11    1    3    3    0    0 -0.21257687959E+01  0.65751807467E+01 -0.31228772935E+01  0.75831561817E+01  0.51100000000E-03 0. -1.
        -11    1    3    3    0    0  0.42534440273E+01  0.15688934794E+02 -0.89719539123E+01  0.18566917309E+02  0.51100000000E-03 0.  1.
        -12    1    3    3    0    0 -0.36685123916E+01 -0.33546553847E+01 -0.23866583509E+02  0.24378792101E+02  0.00000000000E+00 0.  1.
</event>
<event>
 7    1  0.3331850E-011  0.5052883E+02  0.7816164E-02  0.1300439E+00
        -11   -1    0    0    0    0  0.00000000000E+00  0.00000000000E+00  0.45593999997E+02  0.45594000000E+02  0.51100000000E-03 0.  1.
         11   -1    0    0    0    0 -0.00000000000E+00 -0.00000000000E+00 -0.45593999997E+02  0.45594000000E+02  0.51100000000E-03 0. -1.
    9900012    2    1    2    0    0  0.27857411039E+02 -0.15460664405E+02  0.25260646883E+02  0.50528834064E+02  0.29999921622E+02 0.  0.
         12    1    1    2    0    0 -0.27857411039E+02  0.15460664405E+02 -0.25260646883E+02  0.40659165936E+02  0.00000000000E+00 0. -1.
         11    1    3    3    0    0  0.13244492035E+01  0.33820560610E+01  0.43745949430E+01  0.56859080249E+01  0.51100000000E-03 0. -1.
        -11    1    3    3    0    0  0.19683824242E+02 -0.15562954322E+01  0.16516941823E+02  0.25742656423E+02  0.51100000000E-03 0.  1.
        -12    1    3    3    0    0  0.68491375941E+01 -0.17286425033E+02  0.43691101173E+01  0.19100269617E+02  0.00000000000E+00 0.  1.
</event>
<event>
 7    1  0.3331850E-011  0.5052886E+02  0.7816164E-02  0.1300439E+00
        -11   -1    0    0    0    0  0.00000000000E+00  0.00000000000E+00  0.45593999997E+02  0.45594000000E+02  0.51100000000E-03 0.  1.
         11   -1    0    0    0    0 -0.00000000000E+00 -0.00000000000E+00 -0.45593999997E+02  0.45594000000E+02  0.51100000000E-03 0. -1.
    9900012    2    1    2    0    0  0.17822246010E+02 -0.73878005416E+01  0.35790408016E+02  0.50528863811E+02  0.30000012039E+02 0.  0.
         12    1    1    2    0    0 -0.17822246010E+02  0.73878005416E+01 -0.35790408016E+02  0.40659136189E+02  0.00000000000E+00 0. -1.
         11    1    3    3    0    0 -0.11560850800E+01 -0.66473101898E+00  0.12846522088E+02  0.12915553803E+02  0.51100000000E-03 0. -1.
        -11    1    3    3    0    0 -0.21501283798E+01 -0.69906590611E+01  0.11375005283E+02  0.13523428249E+02  0.51100000000E-03 0.  1.
        -12    1    3    3    0    0  0.21128459470E+02  0.26758953843E+00  0.11568880646E+02  0.24089881759E+02  0.00000000000E+00 0.  1.
</event>
<event>
 7    1  0.3331850E-011  0.5052886E+02  0.7816164E-02  0.1300439E+00
        -11   -1    0    0    0    0  0.00000000000E+00  0.00000000000E+00  0.45593999997E+02  0.45594000000E+02  0.51100000000E-03 0.  1.
         11   -1    0    0    0    0 -0.00000000000E+00 -0.00000000000E+00 -0.45593999997E+02  0.45594000000E+02  0.51100000000E-03 0. -1.
    9900012    2    1    2    0    0 -0.65000650074E+01  0.13619911904E+02  0.37754636280E+02  0.50528863191E+02  0.30000010157E+02 0.  0.
         12    1    1    2    0    0  0.65000650074E+01 -0.13619911904E+02 -0.37754636280E+02  0.40659136809E+02  0.00000000000E+00 0. -1.
         11    1    3    3    0    0  0.19671021041E+01 -0.26085404926E+01  0.10887361712E+02  0.11366996943E+02  0.51100000000E-03 0. -1.
        -11    1    3    3    0    0 -0.14460739805E+02  0.42103792627E+01  0.14023151844E+02  0.20578850238E+02  0.51100000000E-03 0.  1.
         12    1    3    3    0    0  0.59935726934E+01  0.12018073134E+02  0.12844122724E+02  0.18583016010E+02  0.00000000000E+00 0. -1.
</event>
<event>
 7    1  0.3331850E-011  0.5052886E+02  0.7816164E-02  0.1300439E+00
        -11   -1    0    0    0    0  0.00000000000E+00  0.00000000000E+00  0.45593999997E+02  0.45594000000E+02  0.51100000000E-03 0.  1.
         11   -1    0    0    0    0 -0.00000000000E+00 -0.00000000000E+00 -0.45593999997E+02  0.45594000000E+02  0.51100000000E-03 0. -1.
    9900012    2    1    2    0    0 -0.10630367402E+02  0.17876743906E+02  0.34936841587E+02  0.50528861004E+02  0.30000003509E+02 0.  0.
         12    1    1    2    0    0  0.10630367402E+02 -0.17876743906E+02 -0.34936841587E+02  0.40659138996E+02  0.00000000000E+00 0. -1.
         11    1    3    3    0    0 -0.57173861754E+01  0.31706310262E+01  0.34509938998E+01  0.73926155683E+01  0.51100000000E-03 0. -1.
        -11    1    3    3    0    0 -0.14891758368E+02  0.78635166481E+01  0.14152233439E+02  0.21997387867E+02  0.51100000000E-03 0.  1.
         12    1    3    3    0    0  0.99787771419E+01  0.68425962314E+01  0.17333614248E+02  0.21138857569E+02  0.00000000000E+00 0. -1.
</event>
<event>
 7    1  0.3331850E-011  0.5052886E+02  0.7816164E-02  0.1300439E+00
        -11   -1    0    0    0    0  0.00000000000E+00  0.00000000000E+00  0.45593999997E+02  0.45594000000E+02  0.51100000000E-03 0.  1.
         11   -1    0    0    0    0 -0.00000000000E+00 -0.00000000000E+00 -0.45593999997E+02  0.45594000000E+02  0.51100000000E-03 0. -1.
    9900012    2    1    2    0    0  0.13220072627E+02  0.23821712415E+02  0.30181468956E+02  0.50528863622E+02  0.30000011466E+02 0.  0.
         12    1    1    2    0    0 -0.13220072627E+02 -0.23821712415E+02 -0.30181468956E+02  0.40659136378E+02  0.00000000000E+00 0. -1.
         11    1    3    3    0    0  0.51874438924E+01 -0.35570496868E+01  0.97665909052E+00  0.63652211157E+01  0.51100000000E-03 0. -1.
        -11    1    3    3    0    0  0.53439531814E+01  0.95913229134E+00  0.10041213541E+02  0.11415066360E+02  0.51100000000E-03 0.  1.
        -12    1    3    3    0    0  0.26886755529E+01  0.26419629810E+02  0.19163596324E+02  0.32748576147E+02  0.00000000000E+00 0.  1.
</event>
<event>
 7    1  0.3331850E-011  0.5052885E+02  0.7816164E-02  0.1300439E+00
        -11   -1    0    0    0    0  0.00000000000E+00  0.00000000000E+00  0.45593999997E+02  0.45594000000E+02  0.51100000000E-03 0.  1.
         11   -1    0    0    0    0 -0.00000000000E+00 -0.00000000000E+00 -0.45593999997E+02  0.45594000000E+02  0.51100000000E-03 0. -1.
    9900012    2    1    2    0    0 -0.14028811394E+02  0.53691961504E+01  0.37782673426E+02  0.50528853088E+02  0.29999979446E+02 0.  0.
         12    1    1    2    0    0  0.14028811394E+02 -0.53691961504E+01 -0.37782673426E+02  0.40659146912E+02  0.00000000000E+00 0. -1.
         11    1    3    3    0    0 -0.37636130592E-01  0.56249817082E+01  0.50391198706E+01  0.75521232132E+01  0.51100000000E-03 0. -1.
        -11    1    3    3    0    0  0.41919228602E+01  0.21466033432E+01  0.20236056615E+02  0.20776864796E+02  0.51100000000E-03 0.  1.
         12    1    3    3    0    0 -0.18183098123E+02 -0.24023889010E+01  0.12507496941E+02  0.22199865079E+02  0.00000000000E+00 0. -1.
</event>
<event>
 7    1  0.3331850E-011  0.5052886E+02  0.7816164E-02  0.1300439E+00
        -11   -1    0    0    0    0  0.00000000000E+00  0.00000000000E+00  0.45593999997E+02  0.45594000000E+02  0.51100000000E-03 0.  1.
         11   -1    0    0    0    0 -0.00000000000E+00 -0.00000000000E+00 -0.45593999997E+02  0.45594000000E+02  0.51100000000E-03 0. -1.
    9900012    2    1    2    0    0 -0.13126751737E+02 -0.37146958727E+02  0.10047763786E+02  0.50528859442E+02  0.29999998759E+02 0.  0.
         12    1    1    2    0    0  0.13126751737E+02  0.37146958727E+02 -0.10047763786E+02  0.40659140558E+02  0.00000000000E+00 0. -1.
         11    1    3    3    0    0 -0.10472139095E+01  0.32431957233E+01  0.16290570325E+01  0.37774068550E+01  0.51100000000E-03 0. -1.
        -11    1    3    3    0    0 -0.86710206625E+01 -0.19119155886E+02  0.13047069846E+02  0.24717498922E+02  0.51100000000E-03 0.  1.
        -12    1    3    3    0    0 -0.34085171650E+01 -0.21270998564E+02 -0.46283630923E+01  0.22033953665E+02  0.00000000000E+00 0.  1.
</event>
<event>
 7    1  0.3331850E-011  0.5052886E+02  0.7816164E-02  0.1300439E+00
        -11   -1    0    0    0    0  0.00000000000E+00  0.00000000000E+00  0.45593999997E+02  0.45594000000E+02  0.51100000000E-03 0.  1.
         11   -1    0    0    0    0 -0.00000000000E+00 -0.00000000000E+00 -0.45593999997E+02  0.45594000000E+02  0.51100000000E-03 0. -1.
    9900012    2    1    2    0    0  0.77545188320E+01 -0.85022841233E+01  0.38996718906E+02  0.50528862244E+02  0.30000007276E+02 0.  0.
         12    1    1    2    0    0 -0.77545188320E+01  0.85022841233E+01 -0.38996718906E+02  0.40659137756E+02  0.00000000000E+00 0. -1.
         11    1    3    3    0    0 -0.53391340025E-01  0.76537437213E+00 -0.37532623174E+01  0.38308780781E+01  0.51100000000E-03 0. -1.
        -11    1    3    3    0    0 -0.56236971977E+00 -0.26635826765E+01  0.87812763403E-01  0.27237187297E+01  0.51100000000E-03 0.  1.
        -12    1    3    3    0    0  0.83702798917E+01 -0.66040758190E+01  0.42662168460E+02  0.43974265436E+02  0.00000000000E+00 0.  1.
</event>
<event>
 7    1  0.3331850E-011  0.5052886E+02  0.7816164E-02  0.1300439E+00
        -11   -1    0    0    0    0  0.00000000000E+00  0.00000000000E+00  0.45593999997E+02  0.45594000000E+02  0.51100000000E-03 0.  1.
         11   -1    0    0    0    0 -0.00000000000E+00 -0.00000000000E+00 -0.45593999997E+02  0.45594000000E+02  0.51100000000E-03 0. -1.
    9900012    2    1    2    0    0 -0.99425227472E+01 -0.88503715459E+01  0.38418518597E+02  0.50528863188E+02  0.30000010146E+02 0.  0.
         12    1    1    2    0    0  0.99425227472E+01  0.88503715459E+01 -0.38418518597E+02  0.40659136812E+02  0.00000000000E+00 0. -1.
         11    1    3    3    0    0 -0.22738469900E+01  0.61477069274E+01  0.14040359302E+02  0.15495043407E+02  0.51100000000E-03 0.  1.
        -11    1    3    3    0    0 -0.13798798302E+02 -0.90293978110E+01  0.14431089887E+02  0.21913311365E+02  0.51100000000E-03 0. -1.
         12    1    3    3    0    0  0.61301225447E+01 -0.59686806623E+01  0.99470694082E+01  0.13120508415E+02  0.00000000000E+00 0. -1.
</event>
<event>
 7    1  0.3331850E-011  0.5052886E+02  0.7816164E-02  0.1300439E+00
        -11   -1    0    0    0    0  0.00000000000E+00  0.00000000000E+00  0.45593999997E+02  0.45594000000E+02  0.51100000000E-03 0.  1.
         11   -1    0    0    0    0 -0.00000000000E+00 -0.00000000000E+00 -0.45593999997E+02  0.45594000000E+02  0.51100000000E-03 0. -1.
    9900012    2    1    2    0    0 -0.29188461055E+02  0.27802861104E+02 -0.53103680269E+01  0.50528863844E+02  0.30000012141E+02 0.  0.
         12    1    1    2    0    0  0.29188461055E+02 -0.27802861104E+02  0.53103680269E+01  0.40659136156E+02  0.00000000000E+00 0. -1.
         11    1    3    3    0    0 -0.28105558450E+01  0.11537352919E+02  0.56073129573E-01  0.11874884462E+02  0.51100000000E-03 0. -1.
        -11    1    3    3    0    0 -0.38917700469E+01  0.14499192398E+02  0.14727915542E+01  0.15084481082E+02  0.51100000000E-03 0.  1.
         12    1    3    3    0    0 -0.22486135163E+02  0.17663157872E+01 -0.68392327107E+01  0.23569498300E+02  0.00000000000E+00 0. -1.
</event>
<event>
 7    1  0.3331850E-011  0.5052886E+02  0.7816164E-02  0.1300439E+00
        -11   -1    0    0    0    0  0.00000000000E+00  0.00000000000E+00  0.45593999997E+02  0.45594000000E+02  0.51100000000E-03 0.  1.
         11   -1    0    0    0    0 -0.00000000000E+00 -0.00000000000E+00 -0.45593999997E+02  0.45594000000E+02  0.51100000000E-03 0. -1.
    9900012    2    1    2    0    0  0.38335885109E+02 -0.11841483698E+02 -0.65806164426E+01  0.50528864052E+02  0.30000012774E+02 0.  0.
         12    1    1    2    0    0 -0.38335885109E+02  0.11841483698E+02  0.65806164426E+01  0.40659135948E+02  0.00000000000E+00 0. -1.
         11    1    3    3    0    0  0.18746666188E+01 -0.64904024488E+01  0.98869903394E+00  0.68276807863E+01  0.51100000000E-03 0. -1.
        -11    1    3    3    0    0 -0.29804969023E+00 -0.25305574491E+01 -0.63181910789E+01  0.68126421740E+01  0.51100000000E-03 0.  1.
        -12    1    3    3    0    0  0.36759268180E+02 -0.28205238001E+01 -0.12511243976E+01  0.36888541092E+02  0.00000000000E+00 0.  1.
</event>
<event>
 7    1  0.3331850E-011  0.5052885E+02  0.7816164E-02  0.1300439E+00
        -11   -1    0    0    0    0  0.00000000000E+00  0.00000000000E+00  0.45593999997E+02  0.45594000000E+02  0.51100000000E-03 0.  1.
         11   -1    0    0    0    0 -0.00000000000E+00 -0.00000000000E+00 -0.45593999997E+02  0.45594000000E+02  0.51100000000E-03 0. -1.
    9900012    2    1    2    0    0  0.19202233492E+02  0.11996960362E+02  0.33771486315E+02  0.50528854449E+02  0.29999983583E+02 0.  0.
         12    1    1    2    0    0 -0.19202233492E+02 -0.11996960362E+02 -0.33771486315E+02  0.40659145551E+02  0.00000000000E+00 0. -1.
         11    1    3    3    0    0  0.54920714295E+01  0.77916828235E+01  0.25834458750E+02  0.27537110034E+02  0.51100000000E-03 0. -1.
        -11    1    3    3    0    0  0.80614567608E+01  0.96405339494E+01  0.84377091674E+01  0.15136773639E+02  0.51100000000E-03 0.  1.
         12    1    3    3    0    0  0.56487053018E+01 -0.54352564106E+01 -0.50068160311E+00  0.78549707767E+01  0.00000000000E+00 0. -1.
</event>
<event>
 7    1  0.3331850E-011  0.5052881E+02  0.7816164E-02  0.1300439E+00
        -11   -1    0    0    0    0  0.00000000000E+00  0.00000000000E+00  0.45593999997E+02  0.45594000000E+02  0.51100000000E-03 0.  1.
         11   -1    0    0    0    0 -0.00000000000E+00 -0.00000000000E+00 -0.45593999997E+02  0.45594000000E+02  0.51100000000E-03 0. -1.
    9900012    2    1    2    0    0  0.94839335020E+01 -0.17113146733E+02  0.35642175793E+02  0.50528813080E+02  0.29999857838E+02 0.  0.
         12    1    1    2    0    0 -0.94839335020E+01  0.17113146733E+02 -0.35642175793E+02  0.40659186920E+02  0.00000000000E+00 0. -1.
         11    1    3    3    0    0 -0.40760062205E+01  0.44223009437E+01  0.56709770780E+01  0.82662297105E+01  0.51100000000E-03 0. -1.
        -11    1    3    3    0    0 -0.32947517158E+01 -0.27626836279E+01  0.65681526785E+01  0.78503783072E+01  0.51100000000E-03 0.  1.
        -12    1    3    3    0    0  0.16854691438E+02 -0.18772764048E+02  0.23403046036E+02  0.34412205062E+02  0.00000000000E+00 0.  1.
</event>
<event>
 7    1  0.3331850E-011  0.5052885E+02  0.7816164E-02  0.1300439E+00
        -11   -1    0    0    0    0  0.00000000000E+00  0.00000000000E+00  0.45593999997E+02  0.45594000000E+02  0.51100000000E-03 0.  1.
         11   -1    0    0    0    0 -0.00000000000E+00 -0.00000000000E+00 -0.45593999997E+02  0.45594000000E+02  0.51100000000E-03 0. -1.
    9900012    2    1    2    0    0  0.18291851125E+02 -0.14680143081E+02  0.33212463537E+02  0.50528854010E+02  0.29999982249E+02 0.  0.
         12    1    1    2    0    0 -0.18291851125E+02  0.14680143081E+02 -0.33212463537E+02  0.40659145990E+02  0.00000000000E+00 0. -1.
         11    1    3    3    0    0  0.18669920485E+02 -0.18520572105E+02  0.12040520884E+02  0.28923202890E+02  0.51100000000E-03 0. -1.
        -11    1    3    3    0    0 -0.34420862130E+00 -0.10643490484E+00  0.17899949411E+01  0.18258943327E+01  0.51100000000E-03 0.  1.
         12    1    3    3    0    0 -0.33860738937E-01  0.39468639296E+01  0.19381947712E+02  0.19779756787E+02  0.00000000000E+00 0. -1.
</event>
<event>
 7    1  0.3331850E-011  0.5052888E+02  0.7816164E-02  0.1300439E+00
        -11   -1    0    0    0    0  0.00000000000E+00  0.00000000000E+00  0.45593999997E+02  0.45594000000E+02  0.51100000000E-03 0.  1.
         11   -1    0    0    0    0 -0.00000000000E+00 -0.00000000000E+00 -0.45593999997E+02  0.45594000000E+02  0.51100000000E-03 0. -1.
    9900012    2    1    2    0    0 -0.95164219196E+01 -0.18661102058E+02  0.34847735119E+02  0.50528884674E+02  0.30000075455E+02 0.  0.
         12    1    1    2    0    0  0.95164219196E+01  0.18661102058E+02 -0.34847735119E+02  0.40659115326E+02  0.00000000000E+00 0. -1.
         11    1    3    3    0    0 -0.66033304083E-01 -0.25823767395E+00  0.51482678954E+00  0.57973612777E+00  0.51100000000E-03 0. -1.
        -11    1    3    3    0    0 -0.13474283044E+02 -0.18293615353E+02  0.38149115549E+02  0.44402338718E+02  0.51100000000E-03 0.  1.
         12    1    3    3    0    0  0.40238944285E+01 -0.10924903092E+00 -0.38162072194E+01  0.55468098277E+01  0.00000000000E+00 0. -1.
</event>
<event>
 7    1  0.3331850E-011  0.5052886E+02  0.7816164E-02  0.1300439E+00
        -11   -1    0    0    0    0  0.00000000000E+00  0.00000000000E+00  0.45593999997E+02  0.45594000000E+02  0.51100000000E-03 0.  1.
         11   -1    0    0    0    0 -0.00000000000E+00 -0.00000000000E+00 -0.45593999997E+02  0.45594000000E+02  0.51100000000E-03 0. -1.
    9900012    2    1    2    0    0  0.18760254486E+02  0.32401273542E+02  0.15854845835E+02  0.50528858199E+02  0.29999994982E+02 0.  0.
         12    1    1    2    0    0 -0.18760254486E+02 -0.32401273542E+02 -0.15854845835E+02  0.40659141801E+02  0.00000000000E+00 0. -1.
         11    1    3    3    0    0  0.68706423005E+01  0.86952441986E+01 -0.86334850434E+01  0.14048133739E+02  0.51100000000E-03 0. -1.
        -11    1    3    3    0    0  0.23726505213E+01  0.74579997361E+01  0.45353174256E+01  0.90454593566E+01  0.51100000000E-03 0.  1.
        -12    1    3    3    0    0  0.95169616638E+01  0.16248029608E+02  0.19953013453E+02  0.27435265103E+02  0.00000000000E+00 0.  1.
</event>
<event>
 7    1  0.3331850E-011  0.5052886E+02  0.7816164E-02  0.1300439E+00
        -11   -1    0    0    0    0  0.00000000000E+00  0.00000000000E+00  0.45593999997E+02  0.45594000000E+02  0.51100000000E-03 0.  1.
         11   -1    0    0    0    0 -0.00000000000E+00 -0.00000000000E+00 -0.45593999997E+02  0.45594000000E+02  0.51100000000E-03 0. -1.
    9900012    2    1    2    0    0 -0.20690568945E+02 -0.13030241736E+02  0.32485059813E+02  0.50528856452E+02  0.29999989672E+02 0.  0.
         12    1    1    2    0    0  0.20690568945E+02  0.13030241736E+02 -0.32485059813E+02  0.40659143548E+02  0.00000000000E+00 0. -1.
         11    1    3    3    0    0 -0.72561132093E+01 -0.55434095289E+01 -0.11273446899E+01  0.92006235888E+01  0.51100000000E-03 0.  1.
        -11    1    3    3    0    0 -0.66326621879E+01 -0.24793962664E+01  0.43686008297E+00  0.70943964181E+01  0.51100000000E-03 0. -1.
        -12    1    3    3    0    0 -0.68017935479E+01 -0.50074359405E+01  0.33175544420E+02  0.34233836445E+02  0.00000000000E+00 0.  1.
</event>
<event>
 7    1  0.3331850E-011  0.5052885E+02  0.7816164E-02  0.1300439E+00
        -11   -1    0    0    0    0  0.00000000000E+00  0.00000000000E+00  0.45593999997E+02  0.45594000000E+02  0.51100000000E-03 0. -1.
         11   -1    0    0    0    0 -0.00000000000E+00 -0.00000000000E+00 -0.45593999997E+02  0.45594000000E+02  0.51100000000E-03 0.  1.
    9900012    2    1    2    0    0 -0.10447753661E+02  0.26054797437E+02 -0.29413571727E+02  0.50528853086E+02  0.29999979439E+02 0.  0.
         12    1    1    2    0    0  0.10447753661E+02 -0.26054797437E+02  0.29413571727E+02  0.40659146914E+02  0.00000000000E+00 0. -1.
         11    1    3    3    0    0 -0.40223151098E+00  0.20996244185E+01 -0.50375347148E+01  0.54723824017E+01  0.51100000000E-03 0. -1.
        -11    1    3    3    0    0 -0.22907413124E+01  0.26419255160E+02 -0.25563249173E+02  0.36833466406E+02  0.51100000000E-03 0.  1.
        -12    1    3    3    0    0 -0.77547808377E+01 -0.24640821410E+01  0.11872121608E+01  0.82230042778E+01  0.00000000000E+00 0.  1.
</event>
<event>
 7    1  0.3331850E-011  0.5052886E+02  0.7816164E-02  0.1300439E+00
        -11   -1    0    0    0    0  0.00000000000E+00  0.00000000000E+00  0.45593999997E+02  0.45594000000E+02  0.51100000000E-03 0.  1.
         11   -1    0    0    0    0 -0.00000000000E+00 -0.00000000000E+00 -0.45593999997E+02  0.45594000000E+02  0.51100000000E-03 0. -1.
    9900012    2    1    2    0    0  0.37666140048E+02 -0.12489600572E+02  0.88565039493E+01  0.50528857230E+02  0.29999992038E+02 0.  0.
         12    1    1    2    0    0 -0.37666140048E+02  0.12489600572E+02 -0.88565039493E+01  0.40659142770E+02  0.00000000000E+00 0. -1.
         11    1    3    3    0    0  0.10660321161E+02 -0.48787667642E+01  0.58110163388E+01  0.13084827991E+02  0.51100000000E-03 0.  1.
        -11    1    3    3    0    0  0.27912042242E+02 -0.12575839327E+02 -0.15011540166E+01  0.30651057087E+02  0.51100000000E-03 0. -1.
         12    1    3    3    0    0 -0.90622335588E+00  0.49650055192E+01  0.45466416271E+01  0.67929721523E+01  0.00000000000E+00 0. -1.
</event>
<event>
 7    1  0.3331850E-011  0.5052888E+02  0.7816164E-02  0.1300439E+00
        -11   -1    0    0    0    0  0.00000000000E+00  0.00000000000E+00  0.45593999997E+02  0.45594000000E+02  0.51100000000E-03 0.  1.
         11   -1    0    0    0    0 -0.00000000000E+00 -0.00000000000E+00 -0.45593999997E+02  0.45594000000E+02  0.51100000000E-03 0. -1.
    9900012    2    1    2    0    0  0.76698182501E+01 -0.36261356062E+02  0.16716814519E+02  0.50528881182E+02  0.30000064840E+02 0.  0.
         12    1    1    2    0    0 -0.76698182501E+01  0.36261356062E+02 -0.16716814519E+02  0.40659118818E+02  0.00000000000E+00 0. -1.
         11    1    3    3    0    0  0.25670449134E+01 -0.48009620293E+01  0.12697535423E+02  0.13815439264E+02  0.51100000000E-03 0. -1.
        -11    1    3    3    0    0 -0.13616848942E+01 -0.79936865680E+01  0.87365232393E+01  0.11919733607E+02  0.51100000000E-03 0.  1.
        -12    1    3    3    0    0  0.64644582310E+01 -0.23466707465E+02 -0.47172441435E+01  0.24793708310E+02  0.00000000000E+00 0.  1.
</event>
<event>
 7    1  0.3331850E-011  0.5052886E+02  0.7816164E-02  0.1300439E+00
        -11   -1    0    0    0    0  0.00000000000E+00  0.00000000000E+00  0.45593999997E+02  0.45594000000E+02  0.51100000000E-03 0.  1.
         11   -1    0    0    0    0 -0.00000000000E+00 -0.00000000000E+00 -0.45593999997E+02  0.45594000000E+02  0.51100000000E-03 0. -1.
    9900012    2    1    2    0    0 -0.30189625382E+02  0.27138533650E+02 -0.22917432967E+01  0.50528861092E+02  0.30000003776E+02 0.  0.
         12    1    1    2    0    0  0.30189625382E+02 -0.27138533650E+02  0.22917432967E+01  0.40659138908E+02  0.00000000000E+00 0. -1.
         11    1    3    3    0    0 -0.11884849497E+02  0.19988510941E+02 -0.89627632335E+01  0.24922306118E+02  0.51100000000E-03 0. -1.
        -11    1    3    3    0    0 -0.85042662289E+01  0.49609817748E+01 -0.42912401470E+01  0.10740047790E+02  0.51100000000E-03 0.  1.
         12    1    3    3    0    0 -0.98005096558E+01  0.21890409345E+01  0.10962260084E+02  0.14866507185E+02  0.00000000000E+00 0. -1.
</event>
<event>
 7    1  0.3331850E-011  0.5052886E+02  0.7816164E-02  0.1300439E+00
        -11   -1    0    0    0    0  0.00000000000E+00  0.00000000000E+00  0.45593999997E+02  0.45594000000E+02  0.51100000000E-03 0. -1.
         11   -1    0    0    0    0 -0.00000000000E+00 -0.00000000000E+00 -0.45593999997E+02  0.45594000000E+02  0.51100000000E-03 0.  1.
    9900012    2    1    2    0    0 -0.30672215983E+02 -0.25209990348E+02 -0.87656878169E+01  0.50528859212E+02  0.29999998062E+02 0.  0.
         12    1    1    2    0    0  0.30672215983E+02  0.25209990348E+02  0.87656878169E+01  0.40659140788E+02  0.00000000000E+00 0. -1.
         11    1    3    3    0    0  0.16881226919E+00 -0.33187625041E+01 -0.78360591866E+01  0.85115513262E+01  0.51100000000E-03 0. -1.
        -11    1    3    3    0    0 -0.15750138621E+02 -0.10702943928E+02 -0.96016703959E+01  0.21326320591E+02  0.51100000000E-03 0.  1.
         12    1    3    3    0    0 -0.15090889631E+02 -0.11188283917E+02  0.86720417656E+01  0.20690987295E+02  0.00000000000E+00 0. -1.
</event>
<event>
 7    1  0.3331850E-011  0.5052887E+02  0.7816164E-02  0.1300439E+00
        -11   -1    0    0    0    0  0.00000000000E+00  0.00000000000E+00  0.45593999997E+02  0.45594000000E+02  0.51100000000E-03 0.  1.
         11   -1    0    0    0    0 -0.00000000000E+00 -0.00000000000E+00 -0.45593999997E+02  0.45594000000E+02  0.51100000000E-03 0. -1.
    9900012    2    1    2    0    0 -0.20753203444E+01 -0.27349579860E+01  0.40513925400E+02  0.50528866942E+02  0.30000021557E+02 0.  0.
         12    1    1    2    0    0  0.20753203444E+01  0.27349579860E+01 -0.40513925400E+02  0.40659133058E+02  0.00000000000E+00 0. -1.
         11    1    3    3    0    0 -0.45772983841E+01  0.51289618445E+01  0.17433083159E+02  0.18739538382E+02  0.51100000000E-03 0. -1.
        -11    1    3    3    0    0 -0.68083530018E+01 -0.61721770283E+01  0.31299119626E+01  0.97080270405E+01  0.51100000000E-03 0.  1.
         12    1    3    3    0    0  0.93103310415E+01 -0.16917428022E+01  0.19950930278E+02  0.22081301519E+02  0.00000000000E+00 0. -1.
</event>
<event>
 7    1  0.3331850E-011  0.5052887E+02  0.7816164E-02  0.1300439E+00
        -11   -1    0    0    0    0  0.00000000000E+00  0.00000000000E+00  0.45593999997E+02  0.45594000000E+02  0.51100000000E-03 0.  1.
         11   -1    0    0    0    0 -0.00000000000E+00 -0.00000000000E+00 -0.45593999997E+02  0.45594000000E+02  0.51100000000E-03 0. -1.
    9900012    2    1    2    0    0  0.18627294568E+02 -0.92949560057E+01  0.34925533511E+02  0.50528865712E+02  0.30000017817E+02 0.  0.
         12    1    1    2    0    0 -0.18627294568E+02  0.92949560057E+01 -0.34925533511E+02  0.40659134288E+02  0.00000000000E+00 0. -1.
         11    1    3    3    0    0 -0.62999629935E+00  0.33721478399E+00 -0.45423515475E+01  0.45982134563E+01  0.51100000000E-03 0. -1.
        -11    1    3    3    0    0  0.88095932524E+01  0.59602524098E+00  0.13545275043E+02  0.16169064772E+02  0.51100000000E-03 0.  1.
        -12    1    3    3    0    0  0.10447697615E+02 -0.10228196031E+02  0.25922610016E+02  0.29761587483E+02  0.00000000000E+00 0.  1.
</event>
<event>
 7    1  0.3331850E-011  0.5052886E+02  0.7816164E-02  0.1300439E+00
        -11   -1    0    0    0    0  0.00000000000E+00  0.00000000000E+00  0.45593999997E+02  0.45594000000E+02  0.51100000000E-03 0. -1.
         11   -1    0    0    0    0 -0.00000000000E+00 -0.00000000000E+00 -0.45593999997E+02  0.45594000000E+02  0.51100000000E-03 0.  1.
    9900012    2    1    2    0    0 -0.34656639100E+02  0.82299546764E+01 -0.19604874392E+02  0.50528857269E+02  0.29999992154E+02 0.  0.
         12    1    1    2    0    0  0.34656639100E+02 -0.82299546764E+01  0.19604874392E+02  0.40659142731E+02  0.00000000000E+00 0. -1.
         11    1    3    3    0    0 -0.18184653437E+01  0.27684846872E+01 -0.10758631056E+00  0.33140456763E+01  0.51100000000E-03 0. -1.
        -11    1    3    3    0    0 -0.10863171484E+02  0.14697982995E+02 -0.13244482332E+02  0.22571121180E+02  0.51100000000E-03 0.  1.
         12    1    3    3    0    0 -0.21975002273E+02 -0.92365130062E+01 -0.62528057500E+01  0.24643690413E+02  0.00000000000E+00 0. -1.
</event>
<event>
 7    1  0.3331850E-011  0.5052886E+02  0.7816164E-02  0.1300439E+00
        -11   -1    0    0    0    0  0.00000000000E+00  0.00000000000E+00  0.45593999997E+02  0.45594000000E+02  0.51100000000E-03 0.  1.
         11   -1    0    0    0    0 -0.00000000000E+00 -0.00000000000E+00 -0.45593999997E+02  0.45594000000E+02  0.51100000000E-03 0. -1.
    9900012    2    1    2    0    0  0.20040201451E+02 -0.21642583287E+02  0.27984899446E+02  0.50528859791E+02  0.29999999820E+02 0.  0.
         12    1    1    2    0    0 -0.20040201451E+02  0.21642583287E+02 -0.27984899446E+02  0.40659140209E+02  0.00000000000E+00 0. -1.
         11    1    3    3    0    0  0.61286050330E+01 -0.16692302946E+02  0.18150162658E+02  0.25409076765E+02  0.51100000000E-03 0.  1.
        -11    1    3    3    0    0  0.16922054713E+02 -0.60946828710E+01  0.39551073634E+01  0.18415861900E+02  0.51100000000E-03 0. -1.
         12    1    3    3    0    0 -0.30104582946E+01  0.11444025294E+01  0.58796294248E+01  0.67039211261E+01  0.00000000000E+00 0. -1.
</event>
<event>
 7    1  0.3331850E-011  0.5052894E+02  0.7816164E-02  0.1300439E+00
        -11   -1    0    0    0    0  0.00000000000E+00  0.00000000000E+00  0.45593999997E+02  0.45594000000E+02  0.51100000000E-03 0.  1.
         11   -1    0    0    0    0 -0.00000000000E+00 -0.00000000000E+00 -0.45593999997E+02  0.45594000000E+02  0.51100000000E-03 0. -1.
    9900012    2    1    2    0    0 -0.30538381228E+02 -0.88298731320E+01  0.25349555282E+02  0.50528937780E+02  0.30000236876E+02 0.  0.
         12    1    1    2    0    0  0.30538381228E+02  0.88298731320E+01 -0.25349555282E+02  0.40659062220E+02  0.00000000000E+00 0. -1.
         11    1    3    3    0    0 -0.12253314277E+02 -0.90027501946E+01  0.12639093444E+01  0.15257479770E+02  0.51100000000E-03 0.  1.
        -11    1    3    3    0    0  0.36886499978E+01  0.94753449253E-01  0.24183969637E+01  0.44117752841E+01  0.51100000000E-03 0. -1.
        -12    1    3    3    0    0 -0.21973716949E+02  0.78123613321E-01  0.21667248974E+02  0.30859682726E+02  0.00000000000E+00 0.  1.
</event>
<event>
 7    1  0.3331850E-011  0.5052886E+02  0.7816164E-02  0.1300439E+00
        -11   -1    0    0    0    0  0.00000000000E+00  0.00000000000E+00  0.45593999997E+02  0.45594000000E+02  0.51100000000E-03 0. -1.
         11   -1    0    0    0    0 -0.00000000000E+00 -0.00000000000E+00 -0.45593999997E+02  0.45594000000E+02  0.51100000000E-03 0.  1.
    9900012    2    1    2    0    0  0.13489512825E+02 -0.27996503119E+02 -0.26218206353E+02  0.50528862189E+02  0.30000007110E+02 0.  0.
         12    1    1    2    0    0 -0.13489512825E+02  0.27996503119E+02  0.26218206353E+02  0.40659137811E+02  0.00000000000E+00 0. -1.
         11    1    3    3    0    0  0.49277843513E+00 -0.83032200802E+01 -0.16431020810E+01  0.84785658572E+01  0.51100000000E-03 0. -1.
        -11    1    3    3    0    0  0.82851863380E+01 -0.21896551288E+02 -0.27473765963E+02  0.36095859699E+02  0.51100000000E-03 0.  1.
         12    1    3    3    0    0  0.47115480518E+01  0.22032682484E+01  0.28986616910E+01  0.59544366331E+01  0.00000000000E+00 0. -1.
</event>
<event>
 7    1  0.3331850E-011  0.5052883E+02  0.7816164E-02  0.1300439E+00
        -11   -1    0    0    0    0  0.00000000000E+00  0.00000000000E+00  0.45593999997E+02  0.45594000000E+02  0.51100000000E-03 0. -1.
         11   -1    0    0    0    0 -0.00000000000E+00 -0.00000000000E+00 -0.45593999997E+02  0.45594000000E+02  0.51100000000E-03 0.  1.
    9900012    2    1    2    0    0 -0.33583533082E+01  0.87381608076E+01 -0.39566832936E+02  0.50528828097E+02  0.29999903485E+02 0.  0.
         12    1    1    2    0    0  0.33583533082E+01 -0.87381608076E+01  0.39566832936E+02  0.40659171903E+02  0.00000000000E+00 0. -1.
         11    1    3    3    0    0  0.36876412247E+01 -0.47334122720E+01 -0.80731513509E+01  0.10058810195E+02  0.51100000000E-03 0. -1.
        -11    1    3    3    0    0  0.37957304376E-01 -0.48296442752E+01 -0.11410833376E+02  0.12390884681E+02  0.51100000000E-03 0.  1.
        -12    1    3    3    0    0 -0.70839518373E+01  0.18301217355E+02 -0.20082848208E+02  0.28079133221E+02  0.00000000000E+00 0.  1.
</event>
<event>
 7    1  0.3331850E-011  0.5052882E+02  0.7816164E-02  0.1300439E+00
        -11   -1    0    0    0    0  0.00000000000E+00  0.00000000000E+00  0.45593999997E+02  0.45594000000E+02  0.51100000000E-03 0.  1.
         11   -1    0    0    0    0 -0.00000000000E+00 -0.00000000000E+00 -0.45593999997E+02  0.45594000000E+02  0.51100000000E-03 0. -1.
    9900012    2    1    2    0    0 -0.16915125364E+02  0.35664632840E+02  0.97509897482E+01  0.50528815272E+02  0.29999864501E+02 0.  0.
         12    1    1    2    0    0  0.16915125364E+02 -0.35664632840E+02 -0.97509897482E+01  0.40659184728E+02  0.00000000000E+00 0. -1.
         11    1    3    3    0    0 -0.19730301841E+01  0.15211430434E+02  0.23470884295E+01  0.15517386645E+02  0.51100000000E-03 0. -1.
        -11    1    3    3    0    0  0.45027538282E+01  0.11858352628E+02  0.63560006372E+00  0.12700366404E+02  0.51100000000E-03 0.  1.
        -12    1    3    3    0    0 -0.19444849008E+02  0.85948497779E+01  0.67683012550E+01  0.22311062223E+02  0.00000000000E+00 0.  1.
</event>
<event>
 7    1  0.3331850E-011  0.5052884E+02  0.7816164E-02  0.1300439E+00
        -11   -1    0    0    0    0  0.00000000000E+00  0.00000000000E+00  0.45593999997E+02  0.45594000000E+02  0.51100000000E-03 0.  1.
         11   -1    0    0    0    0 -0.00000000000E+00 -0.00000000000E+00 -0.45593999997E+02  0.45594000000E+02  0.51100000000E-03 0. -1.
    9900012    2    1    2    0    0  0.11528406614E+02  0.11009297889E+02  0.37403988609E+02  0.50528841586E+02  0.29999944486E+02 0.  0.
         12    1    1    2    0    0 -0.11528406614E+02 -0.11009297889E+02 -0.37403988609E+02  0.40659158414E+02  0.00000000000E+00 0. -1.
         11    1    3    3    0    0  0.10080937678E+02  0.63925296175E+01  0.10681104440E+02  0.16017981511E+02  0.51100000000E-03 0.  1.
        -11    1    3    3    0    0  0.10309503544E+02  0.67531030381E+01  0.18530452041E+02  0.22254615635E+02  0.51100000000E-03 0. -1.
         12    1    3    3    0    0 -0.88620346070E+01 -0.21363347669E+01  0.81924321283E+01  0.12256244441E+02  0.00000000000E+00 0. -1.
</event>
<event>
 7    1  0.3331850E-011  0.5052886E+02  0.7816164E-02  0.1300439E+00
        -11   -1    0    0    0    0  0.00000000000E+00  0.00000000000E+00  0.45593999997E+02  0.45594000000E+02  0.51100000000E-03 0. -1.
         11   -1    0    0    0    0 -0.00000000000E+00 -0.00000000000E+00 -0.45593999997E+02  0.45594000000E+02  0.51100000000E-03 0.  1.
    9900012    2    1    2    0    0 -0.25174040175E+02 -0.29755424271E+02 -0.11577928754E+02  0.50528855807E+02  0.29999987712E+02 0.  0.
         12    1    1    2    0    0  0.25174040175E+02  0.29755424271E+02  0.11577928754E+02  0.40659144193E+02  0.00000000000E+00 0. -1.
         11    1    3    3    0    0  0.26488677745E+01 -0.39114775533E+01 -0.63510611635E+01  0.79153101834E+01  0.51100000000E-03 0. -1.
        -11    1    3    3    0    0  0.18512468871E+01 -0.25840446231E+01  0.25991345629E+01  0.41060811473E+01  0.51100000000E-03 0.  1.
         12    1    3    3    0    0 -0.29674154837E+02 -0.23259902094E+02 -0.78260021531E+01  0.38507464476E+02  0.00000000000E+00 0. -1.
</event>
<event>
 7    1  0.3331850E-011  0.5052885E+02  0.7816164E-02  0.1300439E+00
        -11   -1    0    0    0    0  0.00000000000E+00  0.00000000000E+00  0.45593999997E+02  0.45594000000E+02  0.51100000000E-03 0.  1.
         11   -1    0    0    0    0 -0.00000000000E+00 -0.00000000000E+00 -0.45593999997E+02  0.45594000000E+02  0.51100000000E-03 0. -1.
    9900012    2    1    2    0    0 -0.56467957990E+01 -0.17050505130E+02  0.36476843945E+02  0.50528853770E+02  0.29999981520E+02 0.  0.
         12    1    1    2    0    0  0.56467957990E+01  0.17050505130E+02 -0.36476843945E+02  0.40659146230E+02  0.00000000000E+00 0. -1.
         11    1    3    3    0    0 -0.74728793204E+01 -0.99998634226E+01  0.19997339856E+02  0.23574027984E+02  0.51100000000E-03 0. -1.
        -11    1    3    3    0    0 -0.34140484057E+01 -0.17573088906E+01  0.18772742301E+02  0.19161412130E+02  0.51100000000E-03 0.  1.
         12    1    3    3    0    0  0.52401319271E+01 -0.52933328168E+01 -0.22932382121E+01  0.77934136565E+01  0.00000000000E+00 0. -1.
</event>
<event>
 7    1  0.3331850E-011  0.5052886E+02  0.7816164E-02  0.1300439E+00
        -11   -1    0    0    0    0  0.00000000000E+00  0.00000000000E+00  0.45593999997E+02  0.45594000000E+02  0.51100000000E-03 0.  1.
         11   -1    0    0    0    0 -0.00000000000E+00 -0.00000000000E+00 -0.45593999997E+02  0.45594000000E+02  0.51100000000E-03 0. -1.
    9900012    2    1    2    0    0  0.27992850751E+02  0.22444155010E+02  0.19126581425E+02  0.50528857064E+02  0.29999991533E+02 0.  0.
         12    1    1    2    0    0 -0.27992850751E+02 -0.22444155010E+02 -0.19126581425E+02  0.40659142936E+02  0.00000000000E+00 0. -1.
         11    1    3    3    0    0  0.25164505693E+01  0.91701807660E+00 -0.16848853506E+01  0.31642194181E+01  0.51100000000E-03 0. -1.
        -11    1    3    3    0    0  0.65806247860E+01  0.19004279374E+02  0.14037135536E+01  0.20160299331E+02  0.51100000000E-03 0.  1.
         12    1    3    3    0    0  0.18895775395E+02  0.25228575588E+01  0.19407753222E+02  0.27204338315E+02  0.00000000000E+00 0. -1.
</event>
<event>
 7    1  0.3331850E-011  0.5052886E+02  0.7816164E-02  0.1300439E+00
        -11   -1    0    0    0    0  0.00000000000E+00  0.00000000000E+00  0.45593999997E+02  0.45594000000E+02  0.51100000000E-03 0. -1.
         11   -1    0    0    0    0 -0.00000000000E+00 -0.00000000000E+00 -0.45593999997E+02  0.45594000000E+02  0.51100000000E-03 0.  1.
    9900012    2    1    2    0    0  0.97990922703E+01 -0.34484311876E+02 -0.19182696677E+02  0.50528858018E+02  0.29999994433E+02 0.  0.
         12    1    1    2    0    0 -0.97990922703E+01  0.34484311876E+02  0.19182696677E+02  0.40659141982E+02  0.00000000000E+00 0. -1.
         11    1    3    3    0    0  0.53893118280E+01 -0.58696305227E+00 -0.53498070187E+01  0.76164061737E+01  0.51100000000E-03 0. -1.
        -11    1    3    3    0    0  0.90429827869E+01 -0.14956860635E+02 -0.15475180904E+02  0.23344473479E+02  0.51100000000E-03 0.  1.
         12    1    3    3    0    0 -0.46332023446E+01 -0.18940488189E+02  0.16422912454E+01  0.19567978366E+02  0.00000000000E+00 0. -1.
</event>
<event>
 7    1  0.3331850E-011  0.5052884E+02  0.7816164E-02  0.1300439E+00
        -11   -1    0    0    0    0  0.00000000000E+00  0.00000000000E+00  0.45593999997E+02  0.45594000000E+02  0.51100000000E-03 0.  1.
         11   -1    0    0    0    0 -0.00000000000E+00 -0.00000000000E+00 -0.45593999997E+02  0.45594000000E+02  0.51100000000E-03 0. -1.
    9900012    2    1    2    0    0  0.34130610860E+02  0.39960164796E+00 -0.22093185995E+02  0.50528841787E+02  0.29999945097E+02 0.  0.
         12    1    1    2    0    0 -0.34130610860E+02 -0.39960164796E+00  0.22093185995E+02  0.40659158213E+02  0.00000000000E+00 0. -1.
         11    1    3    3    0    0  0.83660192497E+00  0.23427971386E+01 -0.76959487642E+01  0.80880299738E+01  0.51100000000E-03 0. -1.
        -11    1    3    3    0    0  0.21603884631E+01  0.61609528972E+01  0.12801967851E+01  0.66530837198E+01  0.51100000000E-03 0.  1.
         12    1    3    3    0    0  0.31133620472E+02 -0.81041483879E+01 -0.15677434016E+02  0.35787728094E+02  0.00000000000E+00 0. -1.
</event>
<event>
 7    1  0.3331850E-011  0.5052886E+02  0.7816164E-02  0.1300439E+00
        -11   -1    0    0    0    0  0.00000000000E+00  0.00000000000E+00  0.45593999997E+02  0.45594000000E+02  0.51100000000E-03 0. -1.
         11   -1    0    0    0    0 -0.00000000000E+00 -0.00000000000E+00 -0.45593999997E+02  0.45594000000E+02  0.51100000000E-03 0.  1.
    9900012    2    1    2    0    0 -0.15155674130E+02 -0.85942970941E+01 -0.36737033017E+02  0.50528855939E+02  0.29999988113E+02 0.  0.
         12    1    1    2    0    0  0.15155674130E+02  0.85942970941E+01  0.36737033017E+02  0.40659144061E+02  0.00000000000E+00 0. -1.
         11    1    3    3    0    0 -0.30547885758E+00 -0.12651969505E+01  0.11960922608E+01  0.17676757660E+01  0.51100000000E-03 0. -1.
        -11    1    3    3    0    0 -0.15691714536E+02  0.34305616928E+01 -0.10263990046E+02  0.19061693276E+02  0.51100000000E-03 0.  1.
        -12    1    3    3    0    0  0.84151926415E+00 -0.10759661836E+02 -0.27669135231E+02  0.29699486897E+02  0.00000000000E+00 0.  1.
</event>
<event>
 7    1  0.3331850E-011  0.5052886E+02  0.7816164E-02  0.1300439E+00
        -11   -1    0    0    0    0  0.00000000000E+00  0.00000000000E+00  0.45593999997E+02  0.45594000000E+02  0.51100000000E-03 0.  1.
         11   -1    0    0    0    0 -0.00000000000E+00 -0.00000000000E+00 -0.45593999997E+02  0.45594000000E+02  0.51100000000E-03 0. -1.
    9900012    2    1    2    0    0  0.60112436892E+01  0.12185943260E+02  0.38321447976E+02  0.50528860328E+02  0.30000001454E+02 0.  0.
         12    1    1    2    0    0 -0.60112436892E+01 -0.12185943260E+02 -0.38321447976E+02  0.40659139672E+02  0.00000000000E+00 0. -1.
         11    1    3    3    0    0 -0.45734966118E+01 -0.23733700538E+01 -0.16421205674E+01  0.54079863988E+01  0.51100000000E-03 0. -1.
        -11    1    3    3    0    0 -0.96652815230E+00  0.69026501582E+01  0.15718819843E+02  0.17194826355E+02  0.51100000000E-03 0.  1.
        -12    1    3    3    0    0  0.11551268453E+02  0.76566631559E+01  0.24244748701E+02  0.27926047574E+02  0.00000000000E+00 0.  1.
</event>
<event>
 7    1  0.5280446E-011  0.5052886E+02  0.7816164E-02  0.1300439E+00
        -11   -1    0    0    0    0  0.00000000000E+00  0.00000000000E+00  0.45593999997E+02  0.45594000000E+02  0.51100000000E-03 0. -1.
         11   -1    0    0    0    0 -0.00000000000E+00 -0.00000000000E+00 -0.45593999997E+02  0.45594000000E+02  0.51100000000E-03 0.  1.
    9900012    2    1    2    0    0  0.98501440928E+01  0.29091075339E+02 -0.26643002411E+02  0.50528861045E+02  0.30000003633E+02 0.  0.
         12    1    1    2    0    0 -0.98501440928E+01 -0.29091075339E+02  0.26643002411E+02  0.40659138955E+02  0.00000000000E+00 0. -1.
         11    1    3    3    0    0  0.10526536649E+02  0.53698021526E+01 -0.39565851955E+01  0.12461834362E+02  0.51100000000E-03 0. -1.
        -11    1    3    3    0    0 -0.21573342109E+01  0.93642642418E+01 -0.21542454976E+02  0.23588575674E+02  0.51100000000E-03 0.  1.
         12    1    3    3    0    0  0.14809416545E+01  0.14357008945E+02 -0.11439622402E+01  0.14478451010E+02  0.00000000000E+00 0. -1.
</event>
<event>
 7    1  0.3331850E-011  0.5052886E+02  0.7816164E-02  0.1300439E+00
        -11   -1    0    0    0    0  0.00000000000E+00  0.00000000000E+00  0.45593999997E+02  0.45594000000E+02  0.51100000000E-03 0. -1.
         11   -1    0    0    0    0 -0.00000000000E+00 -0.00000000000E+00 -0.45593999997E+02  0.45594000000E+02  0.51100000000E-03 0.  1.
    9900012    2    1    2    0    0 -0.38476170855E+02 -0.55943875257E+01  0.11893386773E+02  0.50528861490E+02  0.30000004985E+02 0.  0.
         12    1    1    2    0    0  0.38476170855E+02  0.55943875257E+01 -0.11893386773E+02  0.40659138510E+02  0.00000000000E+00 0. -1.
         11    1    3    3    0    0  0.13145248169E+00 -0.14660565608E+01  0.52123378137E+01  0.54161856818E+01  0.51100000000E-03 0. -1.
        -11    1    3    3    0    0 -0.11705712726E+02  0.84986971576E+01  0.51514391052E+01  0.15355418878E+02  0.51100000000E-03 0.  1.
         12    1    3    3    0    0 -0.26901910611E+02 -0.12627028123E+02  0.15296098542E+01  0.29757256930E+02  0.00000000000E+00 0. -1.
</event>
<event>
 7    1  0.3331850E-011  0.5052886E+02  0.7816164E-02  0.1300439E+00
        -11   -1    0    0    0    0  0.00000000000E+00  0.00000000000E+00  0.45593999997E+02  0.45594000000E+02  0.51100000000E-03 0.  1.
         11   -1    0    0    0    0 -0.00000000000E+00 -0.00000000000E+00 -0.45593999997E+02  0.45594000000E+02  0.51100000000E-03 0. -1.
    9900012    2    1    2    0    0 -0.34196646166E+01 -0.34097392262E+02  0.21882399122E+02  0.50528860111E+02  0.30000000794E+02 0.  0.
         12    1    1    2    0    0  0.34196646166E+01  0.34097392262E+02 -0.21882399122E+02  0.40659139889E+02  0.00000000000E+00 0. -1.
         11    1    3    3    0    0  0.61006544183E+00  0.17554151122E+01  0.43593235751E+01  0.47389201674E+01  0.51100000000E-03 0. -1.
        -11    1    3    3    0    0  0.91310239530E+01 -0.16246854029E+02  0.65848430872E+01  0.19766032050E+02  0.51100000000E-03 0.  1.
         12    1    3    3    0    0 -0.13160754011E+02 -0.19605953345E+02  0.10938232460E+02  0.26023907894E+02  0.00000000000E+00 0. -1.
</event>
<event>
 7    1  0.3331850E-011  0.5052886E+02  0.7816164E-02  0.1300439E+00
        -11   -1    0    0    0    0  0.00000000000E+00  0.00000000000E+00  0.45593999997E+02  0.45594000000E+02  0.51100000000E-03 0.  1.
         11   -1    0    0    0    0 -0.00000000000E+00 -0.00000000000E+00 -0.45593999997E+02  0.45594000000E+02  0.51100000000E-03 0. -1.
    9900012    2    1    2    0    0 -0.50937549393E+01  0.43482253797E+01  0.40103772648E+02  0.50528856084E+02  0.29999988554E+02 0.  0.
         12    1    1    2    0    0  0.50937549393E+01 -0.43482253797E+01 -0.40103772648E+02  0.40659143916E+02  0.00000000000E+00 0. -1.
         11    1    3    3    0    0  0.86845073974E+01  0.33622709174E+01  0.49340496190E+01  0.10538993328E+02  0.51100000000E-03 0.  1.
        -11    1    3    3    0    0  0.72942256936E+00  0.11136662176E+01 -0.54674295274E+00  0.14391795740E+01  0.51100000000E-03 0. -1.
        -12    1    3    3    0    0 -0.14507684906E+02 -0.12771175526E+00  0.35716465982E+02  0.38550683183E+02  0.00000000000E+00 0.  1.
</event>
<event>
 7    1  0.3331850E-011  0.5052887E+02  0.7816164E-02  0.1300439E+00
        -11   -1    0    0    0    0  0.00000000000E+00  0.00000000000E+00  0.45593999997E+02  0.45594000000E+02  0.51100000000E-03 0.  1.
         11   -1    0    0    0    0 -0.00000000000E+00 -0.00000000000E+00 -0.45593999997E+02  0.45594000000E+02  0.51100000000E-03 0. -1.
    9900012    2    1    2    0    0  0.33084661874E+01  0.41419500240E+01  0.40312076252E+02  0.50528865845E+02  0.30000018222E+02 0.  0.
         12    1    1    2    0    0 -0.33084661874E+01 -0.41419500240E+01 -0.40312076252E+02  0.40659134155E+02  0.00000000000E+00 0. -1.
         11    1    3    3    0    0  0.20637906630E+01  0.46916990526E+01  0.15944415447E+02  0.16748004541E+02  0.51100000000E-03 0. -1.
        -11    1    3    3    0    0  0.11120546549E-01  0.12726836063E+01  0.28802196615E+02  0.28830303109E+02  0.51100000000E-03 0.  1.
         12    1    3    3    0    0  0.12335549779E+01 -0.18224326349E+01 -0.44345358100E+01  0.49505581950E+01  0.00000000000E+00 0. -1.
</event>
<event>
 7    1  0.3331850E-011  0.5052891E+02  0.7816164E-02  0.1300439E+00
        -11   -1    0    0    0    0  0.00000000000E+00  0.00000000000E+00  0.45593999997E+02  0.45594000000E+02  0.51100000000E-03 0.  1.
         11   -1    0    0    0    0 -0.00000000000E+00 -0.00000000000E+00 -0.45593999997E+02  0.45594000000E+02  0.51100000000E-03 0. -1.
    9900012    2    1    2    0    0 -0.36530928434E+02 -0.16647130096E+01  0.17773065111E+02  0.50528906982E+02  0.30000143262E+02 0.  0.
         12    1    1    2    0    0  0.36530928434E+02  0.16647130096E+01 -0.17773065111E+02  0.40659093018E+02  0.00000000000E+00 0. -1.
         11    1    3    3    0    0 -0.15044545649E+02  0.71357215756E+01  0.10861471762E+01  0.16686419392E+02  0.51100000000E-03 0. -1.
        -11    1    3    3    0    0 -0.61022311445E+01 -0.37546118960E+00 -0.35440134272E+01  0.70666984851E+01  0.51100000000E-03 0.  1.
        -12    1    3    3    0    0 -0.15384151641E+02 -0.84249733956E+01  0.20230931362E+02  0.26775789105E+02  0.00000000000E+00 0.  1.
</event>
<event>
 7    1  0.5616232E-011  0.5052885E+02  0.7816164E-02  0.1300439E+00
        -11   -1    0    0    0    0  0.00000000000E+00  0.00000000000E+00  0.45593999997E+02  0.45594000000E+02  0.51100000000E-03 0.  1.
         11   -1    0    0    0    0 -0.00000000000E+00 -0.00000000000E+00 -0.45593999997E+02  0.45594000000E+02  0.51100000000E-03 0. -1.
    9900012    2    1    2    0    0  0.12646344227E+02  0.19462853539E+02 -0.33383131920E+02  0.50528853588E+02  0.29999980965E+02 0.  0.
         12    1    1    2    0    0 -0.12646344227E+02 -0.19462853539E+02  0.33383131920E+02  0.40659146412E+02  0.00000000000E+00 0. -1.
         11    1    3    3    0    0  0.14398154530E+01 -0.40621981159E+01 -0.12246516971E+01  0.44804345896E+01  0.51100000000E-03 0. -1.
        -11    1    3    3    0    0  0.10787910611E+02  0.76973641688E+01 -0.25764167534E+02  0.28972758920E+02  0.51100000000E-03 0.  1.
         12    1    3    3    0    0  0.41861816320E+00  0.15827687486E+02 -0.63943126898E+01  0.17075660078E+02  0.00000000000E+00 0. -1.
</event>
<event>
 7    1  0.3331850E-011  0.5052886E+02  0.7816164E-02  0.1300439E+00
        -11   -1    0    0    0    0  0.00000000000E+00  0.00000000000E+00  0.45593999997E+02  0.45594000000E+02  0.51100000000E-03 0.  1.
         11   -1    0    0    0    0 -0.00000000000E+00 -0.00000000000E+00 -0.45593999997E+02  0.45594000000E+02  0.51100000000E-03 0. -1.
    9900012    2    1    2    0    0 -0.25643606712E+02  0.96090722719E+01  0.30053905177E+02  0.50528855253E+02  0.29999986027E+02 0.  0.
         12    1    1    2    0    0  0.25643606712E+02 -0.96090722719E+01 -0.30053905177E+02  0.40659144747E+02  0.00000000000E+00 0. -1.
         11    1    3    3    0    0 -0.19702908509E+02  0.42925517085E+00  0.92342708935E+01  0.21763745608E+02  0.51100000000E-03 0. -1.
        -11    1    3    3    0    0 -0.55617663856E+01 -0.32018206935E+01  0.30539887212E+01  0.71071617719E+01  0.51100000000E-03 0.  1.
        -12    1    3    3    0    0 -0.37893181763E+00  0.12381637795E+02  0.17765645563E+02  0.21657947873E+02  0.00000000000E+00 0.  1.
</event>
<event>
 7    1  0.3331850E-011  0.5052885E+02  0.7816164E-02  0.1300439E+00
        -11   -1    0    0    0    0  0.00000000000E+00  0.00000000000E+00  0.45593999997E+02  0.45594000000E+02  0.51100000000E-03 0. -1.
         11   -1    0    0    0    0 -0.00000000000E+00 -0.00000000000E+00 -0.45593999997E+02  0.45594000000E+02  0.51100000000E-03 0.  1.
    9900012    2    1    2    0    0 -0.17321851903E+02  0.17870754197E+02 -0.32152073250E+02  0.50528853143E+02  0.29999979612E+02 0.  0.
         12    1    1    2    0    0  0.17321851903E+02 -0.17870754197E+02  0.32152073250E+02  0.40659146857E+02  0.00000000000E+00 0. -1.
         11    1    3    3    0    0 -0.16100414481E+01 -0.46969983277E+00 -0.50476278954E+01  0.53189659737E+01  0.51100000000E-03 0. -1.
        -11    1    3    3    0    0 -0.22010179065E+02  0.10620788428E+02 -0.25128663603E+02  0.35052801087E+02  0.51100000000E-03 0.  1.
         12    1    3    3    0    0  0.62983686103E+01  0.77196656015E+01 -0.19757817518E+01  0.10157086082E+02  0.00000000000E+00 0. -1.
</event>
<event>
 7    1  0.3331850E-011  0.5052886E+02  0.7816164E-02  0.1300439E+00
        -11   -1    0    0    0    0  0.00000000000E+00  0.00000000000E+00  0.45593999997E+02  0.45594000000E+02  0.51100000000E-03 0.  1.
         11   -1    0    0    0    0 -0.00000000000E+00 -0.00000000000E+00 -0.45593999997E+02  0.45594000000E+02  0.51100000000E-03 0. -1.
    9900012    2    1    2    0    0  0.12961298321E+02  0.37916574008E+02  0.68923021828E+01  0.50528859969E+02  0.30000000363E+02 0.  0.
         12    1    1    2    0    0 -0.12961298321E+02 -0.37916574008E+02 -0.68923021828E+01  0.40659140031E+02  0.00000000000E+00 0. -1.
         11    1    3    3    0    0 -0.47854563315E+01  0.78645207422E+01 -0.39745803946E+01  0.10027390906E+02  0.51100000000E-03 0. -1.
        -11    1    3    3    0    0 -0.87128619203E-01 -0.19440493983E+01 -0.73090080249E+00  0.20787341589E+01  0.51100000000E-03 0.  1.
        -12    1    3    3    0    0  0.17833883272E+02  0.31996102664E+02  0.11597783380E+02  0.38422734905E+02  0.00000000000E+00 0.  1.
</event>
<event>
 7    1  0.3331850E-011  0.5052885E+02  0.7816164E-02  0.1300439E+00
        -11   -1    0    0    0    0  0.00000000000E+00  0.00000000000E+00  0.45593999997E+02  0.45594000000E+02  0.51100000000E-03 0.  1.
         11   -1    0    0    0    0 -0.00000000000E+00 -0.00000000000E+00 -0.45593999997E+02  0.45594000000E+02  0.51100000000E-03 0. -1.
    9900012    2    1    2    0    0  0.21685249268E+02 -0.30855611864E+02  0.15193663690E+02  0.50528852990E+02  0.29999979147E+02 0.  0.
         12    1    1    2    0    0 -0.21685249268E+02  0.30855611864E+02 -0.15193663690E+02  0.40659147010E+02  0.00000000000E+00 0. -1.
         11    1    3    3    0    0  0.27679959871E+01 -0.24559332823E+02  0.11051184108E+02  0.27073073356E+02  0.51100000000E-03 0. -1.
        -11    1    3    3    0    0  0.47312714167E+01 -0.74239074708E+01  0.81359227940E+00  0.88408859291E+01  0.51100000000E-03 0.  1.
         12    1    3    3    0    0  0.14185981864E+02  0.11276284302E+01  0.33288873027E+01  0.14614893705E+02  0.00000000000E+00 0. -1.
</event>
<event>
 7    1  0.3331850E-011  0.5052888E+02  0.7816164E-02  0.1300439E+00
        -11   -1    0    0    0    0  0.00000000000E+00  0.00000000000E+00  0.45593999997E+02  0.45594000000E+02  0.51100000000E-03 0. -1.
         11   -1    0    0    0    0 -0.00000000000E+00 -0.00000000000E+00 -0.45593999997E+02  0.45594000000E+02  0.51100000000E-03 0.  1.
    9900012    2    1    2    0    0 -0.32094215738E+02 -0.21358143546E+02 -0.12921109016E+02  0.50528880017E+02  0.30000061299E+02 0.  0.
         12    1    1    2    0    0  0.32094215738E+02  0.21358143546E+02  0.12921109016E+02  0.40659119983E+02  0.00000000000E+00 0. -1.
         11    1    3    3    0    0  0.65264281978E+00  0.34217405464E+01  0.19196388244E+00  0.34887105656E+01  0.51100000000E-03 0. -1.
        -11    1    3    3    0    0 -0.20504614836E+02 -0.23953752486E+02 -0.40595727024E+01  0.31791533755E+02  0.51100000000E-03 0.  1.
         12    1    3    3    0    0 -0.12242243722E+02 -0.82613160689E+00 -0.90535001959E+01  0.15248635696E+02  0.00000000000E+00 0. -1.
</event>
<event>
 7    1  0.3331850E-011  0.5052885E+02  0.7816164E-02  0.1300439E+00
        -11   -1    0    0    0    0  0.00000000000E+00  0.00000000000E+00  0.45593999997E+02  0.45594000000E+02  0.51100000000E-03 0.  1.
         11   -1    0    0    0    0 -0.00000000000E+00 -0.00000000000E+00 -0.45593999997E+02  0.45594000000E+02  0.51100000000E-03 0. -1.
    9900012    2    1    2    0    0  0.43141100958E+01  0.11322397067E+02  0.38811826687E+02  0.50528854509E+02  0.29999983766E+02 0.  0.
         12    1    1    2    0    0 -0.43141100958E+01 -0.11322397067E+02 -0.38811826687E+02  0.40659145491E+02  0.00000000000E+00 0. -1.
         11    1    3    3    0    0 -0.90738291894E+01  0.27811034272E+01  0.89949744269E+01  0.13075873876E+02  0.51100000000E-03 0.  1.
        -11    1    3    3    0    0  0.16984955789E+02  0.81226337724E+01  0.26727840739E+02  0.32693170133E+02  0.51100000000E-03 0. -1.
         12    1    3    3    0    0 -0.35970165035E+01  0.41865986732E+00  0.30890115214E+01  0.47598104995E+01  0.00000000000E+00 0. -1.
</event>
<event>
 7    1  0.3331850E-011  0.5052885E+02  0.7816164E-02  0.1300439E+00
        -11   -1    0    0    0    0  0.00000000000E+00  0.00000000000E+00  0.45593999997E+02  0.45594000000E+02  0.51100000000E-03 0.  1.
         11   -1    0    0    0    0 -0.00000000000E+00 -0.00000000000E+00 -0.45593999997E+02  0.45594000000E+02  0.51100000000E-03 0. -1.
    9900012    2    1    2    0    0  0.28526577213E+02  0.29381287353E+01  0.28823049746E+02  0.50528850911E+02  0.29999972828E+02 0.  0.
         12    1    1    2    0    0 -0.28526577213E+02 -0.29381287353E+01 -0.28823049746E+02  0.40659149089E+02  0.00000000000E+00 0. -1.
         11    1    3    3    0    0  0.13305054406E+01 -0.18509138577E+01  0.29671542322E+01  0.37416749371E+01  0.51100000000E-03 0. -1.
        -11    1    3    3    0    0  0.32026513934E+02  0.43643959388E+00  0.24005306674E+02  0.40026776326E+02  0.51100000000E-03 0.  1.
         12    1    3    3    0    0 -0.48304421612E+01  0.43526029991E+01  0.18505888407E+01  0.67603996478E+01  0.00000000000E+00 0. -1.
</event>
<event>
 7    1  0.3331850E-011  0.5052885E+02  0.7816164E-02  0.1300439E+00
        -11   -1    0    0    0    0  0.00000000000E+00  0.00000000000E+00  0.45593999997E+02  0.45594000000E+02  0.51100000000E-03 0. -1.
         11   -1    0    0    0    0 -0.00000000000E+00 -0.00000000000E+00 -0.45593999997E+02  0.45594000000E+02  0.51100000000E-03 0.  1.
    9900012    2    1    2    0    0  0.88311361091E+01 -0.14623887527E+02 -0.36896057883E+02  0.50528854181E+02  0.29999982769E+02 0.  0.
         12    1    1    2    0    0 -0.88311361091E+01  0.14623887527E+02  0.36896057883E+02  0.40659145819E+02  0.00000000000E+00 0. -1.
         11    1    3    3    0    0  0.24305262874E+01 -0.13683748266E+02 -0.12137874107E+02  0.18452111335E+02  0.51100000000E-03 0.  1.
        -11    1    3    3    0    0 -0.59073742390E+01 -0.67625456838E+00 -0.15712600657E+02  0.16800006259E+02  0.51100000000E-03 0. -1.
        -12    1    3    3    0    0  0.12307984061E+02 -0.26388469272E+00 -0.90455831199E+01  0.15276736587E+02  0.00000000000E+00 0.  1.
</event>
<event>
 7    1  0.3331850E-011  0.5052886E+02  0.7816164E-02  0.1300439E+00
        -11   -1    0    0    0    0  0.00000000000E+00  0.00000000000E+00  0.45593999997E+02  0.45594000000E+02  0.51100000000E-03 0. -1.
         11   -1    0    0    0    0 -0.00000000000E+00 -0.00000000000E+00 -0.45593999997E+02  0.45594000000E+02  0.51100000000E-03 0.  1.
    9900012    2    1    2    0    0  0.17570456551E+02  0.35896188915E+02 -0.74772031635E+01  0.50528857250E+02  0.29999992096E+02 0.  0.
         12    1    1    2    0    0 -0.17570456551E+02 -0.35896188915E+02  0.74772031635E+01  0.40659142750E+02  0.00000000000E+00 0. -1.
         11    1    3    3    0    0  0.67756293197E+00 -0.19035492188E+01 -0.13854038835E+01  0.24498847599E+01  0.51100000000E-03 0. -1.
        -11    1    3    3    0    0  0.33231508918E+01  0.50963094814E+01 -0.10764645125E+02  0.12365002512E+02  0.51100000000E-03 0.  1.
        -12    1    3    3    0    0  0.13569742727E+02  0.32703428653E+02  0.46728458453E+01  0.35713969978E+02  0.00000000000E+00 0.  1.
</event>
<event>
 7    1  0.3331850E-011  0.5052887E+02  0.7816164E-02  0.1300439E+00
        -11   -1    0    0    0    0  0.00000000000E+00  0.00000000000E+00  0.45593999997E+02  0.45594000000E+02  0.51100000000E-03 0.  1.
         11   -1    0    0    0    0 -0.00000000000E+00 -0.00000000000E+00 -0.45593999997E+02  0.45594000000E+02  0.51100000000E-03 0. -1.
    9900012    2    1    2    0    0  0.19473052782E+02  0.67229790083E+01  0.35053769250E+02  0.50528868552E+02  0.30000026452E+02 0.  0.
         12    1    1    2    0    0 -0.19473052782E+02 -0.67229790083E+01 -0.35053769250E+02  0.40659131448E+02  0.00000000000E+00 0. -1.
         11    1    3    3    0    0  0.32835462128E+01  0.10395225866E+02  0.65049077626E+01  0.12694732049E+02  0.51100000000E-03 0. -1.
        -11    1    3    3    0    0  0.10458144289E+02  0.40015373064E+01  0.47186241410E+01  0.12151152078E+02  0.51100000000E-03 0.  1.
         12    1    3    3    0    0  0.57313622806E+01 -0.76737841640E+01  0.23830237347E+02  0.25682984425E+02  0.00000000000E+00 0. -1.
</event>
<event>
 7    1  0.3331850E-011  0.5052886E+02  0.7816164E-02  0.1300439E+00
        -11   -1    0    0    0    0  0.00000000000E+00  0.00000000000E+00  0.45593999997E+02  0.45594000000E+02  0.51100000000E-03 0. -1.
         11   -1    0    0    0    0 -0.00000000000E+00 -0.00000000000E+00 -0.45593999997E+02  0.45594000000E+02  0.51100000000E-03 0.  1.
    9900012    2    1    2    0    0  0.19422765751E+02 -0.34574212538E+02  0.89747300129E+01  0.50528858582E+02  0.29999996147E+02 0.  0.
         12    1    1    2    0    0 -0.19422765751E+02  0.34574212538E+02 -0.89747300129E+01  0.40659141418E+02  0.00000000000E+00 0. -1.
         11    1    3    3    0    0  0.42603896001E+01 -0.13715912257E+02  0.93249421110E+01  0.17124009876E+02  0.51100000000E-03 0. -1.
        -11    1    3    3    0    0  0.12881073399E+02 -0.24425693106E+02  0.33048098517E+01  0.27811118353E+02  0.51100000000E-03 0.  1.
         12    1    3    3    0    0  0.22813027512E+01  0.35673928254E+01 -0.36550219498E+01  0.55937303534E+01  0.00000000000E+00 0. -1.
</event>
<event>
 7    1  0.3331850E-011  0.5052886E+02  0.7816164E-02  0.1300439E+00
        -11   -1    0    0    0    0  0.00000000000E+00  0.00000000000E+00  0.45593999997E+02  0.45594000000E+02  0.51100000000E-03 0. -1.
         11   -1    0    0    0    0 -0.00000000000E+00 -0.00000000000E+00 -0.45593999997E+02  0.45594000000E+02  0.51100000000E-03 0.  1.
    9900012    2    1    2    0    0 -0.31496352851E+02 -0.16655320418E+02 -0.19589432299E+02  0.50528858360E+02  0.29999995471E+02 0.  0.
         12    1    1    2    0    0  0.31496352851E+02  0.16655320418E+02  0.19589432299E+02  0.40659141640E+02  0.00000000000E+00 0. -1.
         11    1    3    3    0    0 -0.12457410901E+02 -0.15632453960E+01  0.93642322663E+00  0.12589984561E+02  0.51100000000E-03 0. -1.
        -11    1    3    3    0    0 -0.16683655975E+01 -0.98260186120E+00  0.41785693964E+01  0.46053656365E+01  0.51100000000E-03 0.  1.
        -12    1    3    3    0    0 -0.17370576352E+02 -0.14109473160E+02 -0.24704424922E+02  0.33333508162E+02  0.00000000000E+00 0.  1.
</event>
<event>
 7    1  0.3331850E-011  0.5052887E+02  0.7816164E-02  0.1300439E+00
        -11   -1    0    0    0    0  0.00000000000E+00  0.00000000000E+00  0.45593999997E+02  0.45594000000E+02  0.51100000000E-03 0. -1.
         11   -1    0    0    0    0 -0.00000000000E+00 -0.00000000000E+00 -0.45593999997E+02  0.45594000000E+02  0.51100000000E-03 0.  1.
    9900012    2    1    2    0    0 -0.27209459189E+02  0.15806156866E+02 -0.25748311679E+02  0.50528870416E+02  0.30000032116E+02 0.  0.
         12    1    1    2    0    0  0.27209459189E+02 -0.15806156866E+02  0.25748311679E+02  0.40659129584E+02  0.00000000000E+00 0. -1.
         11    1    3    3    0    0  0.24344774831E+01  0.29687361575E+01 -0.77385059984E+01  0.86385502451E+01  0.51100000000E-03 0. -1.
        -11    1    3    3    0    0 -0.20658882366E+01 -0.19036398813E+01 -0.88807124858E+01  0.93144400541E+01  0.51100000000E-03 0.  1.
        -12    1    3    3    0    0 -0.27578048435E+02  0.14741060590E+02 -0.91290931946E+01  0.32575880117E+02  0.00000000000E+00 0.  1.
</event>
<event>
 7    1  0.3331850E-011  0.5052886E+02  0.7816164E-02  0.1300439E+00
        -11   -1    0    0    0    0  0.00000000000E+00  0.00000000000E+00  0.45593999997E+02  0.45594000000E+02  0.51100000000E-03 0.  1.
         11   -1    0    0    0    0 -0.00000000000E+00 -0.00000000000E+00 -0.45593999997E+02  0.45594000000E+02  0.51100000000E-03 0. -1.
    9900012    2    1    2    0    0 -0.79052077615E+01 -0.37344121647E+02 -0.14003217708E+02  0.50528857885E+02  0.29999994028E+02 0.  0.
         12    1    1    2    0    0  0.79052077615E+01  0.37344121647E+02  0.14003217708E+02  0.40659142115E+02  0.00000000000E+00 0. -1.
         11    1    3    3    0    0 -0.40817448780E+01 -0.13438015713E+02 -0.28864461585E+01  0.14337798968E+02  0.51100000000E-03 0. -1.
        -11    1    3    3    0    0 -0.14109491599E+02 -0.16617049882E+02 -0.78305520258E+01  0.23162936887E+02  0.51100000000E-03 0.  1.
         12    1    3    3    0    0  0.10286028716E+02 -0.72890560518E+01 -0.32862195241E+01  0.13028122030E+02  0.00000000000E+00 0. -1.
</event>
<event>
 7    1  0.3331850E-011  0.5052887E+02  0.7816164E-02  0.1300439E+00
        -11   -1    0    0    0    0  0.00000000000E+00  0.00000000000E+00  0.45593999997E+02  0.45594000000E+02  0.51100000000E-03 0. -1.
         11   -1    0    0    0    0 -0.00000000000E+00 -0.00000000000E+00 -0.45593999997E+02  0.45594000000E+02  0.51100000000E-03 0.  1.
    9900012    2    1    2    0    0 -0.33465064953E+02 -0.21569619403E+02  0.82465806144E+01  0.50528866397E+02  0.30000019901E+02 0.  0.
         12    1    1    2    0    0  0.33465064953E+02  0.21569619403E+02 -0.82465806144E+01  0.40659133603E+02  0.00000000000E+00 0. -1.
         11    1    3    3    0    0 -0.31246206550E+02 -0.60569056794E+01  0.88122145558E+01  0.33025242706E+02  0.51100000000E-03 0. -1.
        -11    1    3    3    0    0 -0.40941342102E+01 -0.41655304173E+01 -0.12838573328E+01  0.59801227831E+01  0.51100000000E-03 0.  1.
        -12    1    3    3    0    0  0.18752758067E+01 -0.11347183306E+02  0.71822339145E+00  0.11523500908E+02  0.00000000000E+00 0.  1.
</event>
<event>
 7    1  0.3331850E-011  0.5052886E+02  0.7816164E-02  0.1300439E+00
        -11   -1    0    0    0    0  0.00000000000E+00  0.00000000000E+00  0.45593999997E+02  0.45594000000E+02  0.51100000000E-03 0. -1.
         11   -1    0    0    0    0 -0.00000000000E+00 -0.00000000000E+00 -0.45593999997E+02  0.45594000000E+02  0.51100000000E-03 0.  1.
    9900012    2    1    2    0    0  0.22760786008E+02 -0.25625717087E+02 -0.21873154116E+02  0.50528860476E+02  0.30000001901E+02 0.  0.
         12    1    1    2    0    0 -0.22760786008E+02  0.25625717087E+02  0.21873154116E+02  0.40659139524E+02  0.00000000000E+00 0. -1.
         11    1    3    3    0    0  0.52336569521E+01 -0.35914533576E+01 -0.14437184910E+02  0.15770922950E+02  0.51100000000E-03 0. -1.
        -11    1    3    3    0    0  0.11622316205E+02 -0.49637482174E+01 -0.10507814410E+02  0.16435668354E+02  0.51100000000E-03 0.  1.
        -12    1    3    3    0    0  0.59048128512E+01 -0.17070515512E+02  0.30718452034E+01  0.18322269171E+02  0.00000000000E+00 0.  1.
</event>
<event>
 7    1  0.3331850E-011  0.5052886E+02  0.7816164E-02  0.1300439E+00
        -11   -1    0    0    0    0  0.00000000000E+00  0.00000000000E+00  0.45593999997E+02  0.45594000000E+02  0.51100000000E-03 0.  1.
         11   -1    0    0    0    0 -0.00000000000E+00 -0.00000000000E+00 -0.45593999997E+02  0.45594000000E+02  0.51100000000E-03 0. -1.
    9900012    2    1    2    0    0 -0.67099560693E+01  0.35125833143E+02  0.19347309462E+02  0.50528855298E+02  0.29999986164E+02 0.  0.
         12    1    1    2    0    0  0.67099560693E+01 -0.35125833143E+02 -0.19347309462E+02  0.40659144702E+02  0.00000000000E+00 0. -1.
         11    1    3    3    0    0 -0.13520551554E+01  0.10217011037E+02  0.16154736253E+01  0.10431928056E+02  0.51100000000E-03 0. -1.
        -11    1    3    3    0    0 -0.67167783908E+01  0.26612585444E+02  0.59103895087E+01  0.28076280387E+02  0.51100000000E-03 0.  1.
        -12    1    3    3    0    0  0.13588774769E+01 -0.17037633383E+01  0.11821446328E+02  0.12020646855E+02  0.00000000000E+00 0.  1.
</event>
<event>
 7    1  0.3679850E-011  0.5052886E+02  0.7816164E-02  0.1300439E+00
        -11   -1    0    0    0    0  0.00000000000E+00  0.00000000000E+00  0.45593999997E+02  0.45594000000E+02  0.51100000000E-03 0. -1.
         11   -1    0    0    0    0 -0.00000000000E+00 -0.00000000000E+00 -0.45593999997E+02  0.45594000000E+02  0.51100000000E-03 0.  1.
    9900012    2    1    2    0    0  0.35692566587E+02  0.11157852568E+02 -0.15959592067E+02  0.50528861268E+02  0.30000004309E+02 0.  0.
         12    1    1    2    0    0 -0.35692566587E+02 -0.11157852568E+02  0.15959592067E+02  0.40659138732E+02  0.00000000000E+00 0. -1.
         11    1    3    3    0    0  0.97906786072E+01 -0.34873287335E+01 -0.88046076441E+01  0.13621305566E+02  0.51100000000E-03 0. -1.
        -11    1    3    3    0    0  0.78619107250E+01  0.10318513212E+02 -0.12066632796E+02  0.17716799442E+02  0.51100000000E-03 0.  1.
         12    1    3    3    0    0  0.18039977255E+02  0.43266680896E+01  0.49116483728E+01  0.19190756260E+02  0.00000000000E+00 0. -1.
</event>
<event>
 7    1  0.3331850E-011  0.5052888E+02  0.7816164E-02  0.1300439E+00
        -11   -1    0    0    0    0  0.00000000000E+00  0.00000000000E+00  0.45593999997E+02  0.45594000000E+02  0.51100000000E-03 0.  1.
         11   -1    0    0    0    0 -0.00000000000E+00 -0.00000000000E+00 -0.45593999997E+02  0.45594000000E+02  0.51100000000E-03 0. -1.
    9900012    2    1    2    0    0 -0.14957100455E+02 -0.14821171196E+02  0.34781924473E+02  0.50528877534E+02  0.30000053752E+02 0.  0.
         12    1    1    2    0    0  0.14957100455E+02  0.14821171196E+02 -0.34781924473E+02  0.40659122466E+02  0.00000000000E+00 0. -1.
         11    1    3    3    0    0 -0.38199697074E+01  0.64107282511E+01  0.89662192024E+01  0.11665448655E+02  0.51100000000E-03 0. -1.
        -11    1    3    3    0    0 -0.64430250794E+01 -0.76900835490E+01  0.83996906219E+00  0.10067547142E+02  0.51100000000E-03 0.  1.
        -12    1    3    3    0    0 -0.46941056687E+01 -0.13541815899E+02  0.24975736209E+02  0.28795881737E+02  0.00000000000E+00 0.  1.
</event>
<event>
 7    1  0.3331850E-011  0.5052886E+02  0.7816164E-02  0.1300439E+00
        -11   -1    0    0    0    0  0.00000000000E+00  0.00000000000E+00  0.45593999997E+02  0.45594000000E+02  0.51100000000E-03 0.  1.
         11   -1    0    0    0    0 -0.00000000000E+00 -0.00000000000E+00 -0.45593999997E+02  0.45594000000E+02  0.51100000000E-03 0. -1.
    9900012    2    1    2    0    0 -0.11300909070E+02  0.25739891759E+02  0.29375383157E+02  0.50528859463E+02  0.29999998824E+02 0.  0.
         12    1    1    2    0    0  0.11300909070E+02 -0.25739891759E+02 -0.29375383157E+02  0.40659140537E+02  0.00000000000E+00 0. -1.
         11    1    3    3    0    0 -0.31745954323E+01 -0.13716685271E+00 -0.80475697546E+00  0.32778811685E+01  0.51100000000E-03 0. -1.
        -11    1    3    3    0    0 -0.11184070967E+02  0.32007351457E+01  0.35972504745E+01  0.12176549598E+02  0.51100000000E-03 0.  1.
        -12    1    3    3    0    0  0.30577573297E+01  0.22676323466E+02  0.26582889658E+02  0.35074428697E+02  0.00000000000E+00 0.  1.
</event>
<event>
 7    1  0.3331850E-011  0.5052885E+02  0.7816164E-02  0.1300439E+00
        -11   -1    0    0    0    0  0.00000000000E+00  0.00000000000E+00  0.45593999997E+02  0.45594000000E+02  0.51100000000E-03 0.  1.
         11   -1    0    0    0    0 -0.00000000000E+00 -0.00000000000E+00 -0.45593999997E+02  0.45594000000E+02  0.51100000000E-03 0. -1.
    9900012    2    1    2    0    0  0.15483790110E+02 -0.32074308467E+02  0.19612676879E+02  0.50528854483E+02  0.29999983686E+02 0.  0.
         12    1    1    2    0    0 -0.15483790110E+02  0.32074308467E+02 -0.19612676879E+02  0.40659145517E+02  0.00000000000E+00 0. -1.
         11    1    3    3    0    0  0.21345555525E+01 -0.15518981659E+02  0.26323535568E+00  0.15667303924E+02  0.51100000000E-03 0. -1.
        -11    1    3    3    0    0  0.83230274503E+01 -0.19909133922E+02  0.10129586854E+02  0.23838098279E+02  0.51100000000E-03 0.  1.
        -12    1    3    3    0    0  0.50262071073E+01  0.33538071138E+01  0.92198546691E+01  0.11023452280E+02  0.00000000000E+00 0.  1.
</event>
<event>
 7    1  0.3331850E-011  0.5052885E+02  0.7816164E-02  0.1300439E+00
        -11   -1    0    0    0    0  0.00000000000E+00  0.00000000000E+00  0.45593999997E+02  0.45594000000E+02  0.51100000000E-03 0.  1.
         11   -1    0    0    0    0 -0.00000000000E+00 -0.00000000000E+00 -0.45593999997E+02  0.45594000000E+02  0.51100000000E-03 0. -1.
    9900012    2    1    2    0    0 -0.27895758033E+02 -0.79380817157E+01  0.28495268729E+02  0.50528846079E+02  0.29999958143E+02 0.  0.
         12    1    1    2    0    0  0.27895758033E+02  0.79380817157E+01 -0.28495268729E+02  0.40659153921E+02  0.00000000000E+00 0. -1.
         11    1    3    3    0    0 -0.15381755981E+02 -0.60210479779E+01  0.39368399207E+01  0.16980875850E+02  0.51100000000E-03 0. -1.
        -11    1    3    3    0    0 -0.90941566036E+01 -0.84206321680E+01  0.63779904087E+01  0.13938776573E+02  0.51100000000E-03 0.  1.
         12    1    3    3    0    0 -0.34198454487E+01  0.65035984301E+01  0.18180438400E+02  0.19609193656E+02  0.00000000000E+00 0. -1.
</event>
<event>
 7    1  0.3331850E-011  0.5052885E+02  0.7816164E-02  0.1300439E+00
        -11   -1    0    0    0    0  0.00000000000E+00  0.00000000000E+00  0.45593999997E+02  0.45594000000E+02  0.51100000000E-03 0.  1.
         11   -1    0    0    0    0 -0.00000000000E+00 -0.00000000000E+00 -0.45593999997E+02  0.45594000000E+02  0.51100000000E-03 0. -1.
    9900012    2    1    2    0    0 -0.43077528204E+00 -0.11355006763E+02  0.39039010768E+02  0.50528854563E+02  0.29999983930E+02 0.  0.
         12    1    1    2    0    0  0.43077528204E+00  0.11355006763E+02 -0.39039010768E+02  0.40659145437E+02  0.00000000000E+00 0. -1.
         11    1    3    3    0    0  0.52682453950E+01 -0.82407996462E+00  0.70879832466E+01  0.88697815134E+01  0.51100000000E-03 0. -1.
        -11    1    3    3    0    0  0.60161504934E-01  0.74957446415E+01  0.63573894409E+01  0.98288457054E+01  0.51100000000E-03 0.  1.
         12    1    3    3    0    0 -0.57591821820E+01 -0.18026671440E+02  0.25593638080E+02  0.31830227344E+02  0.00000000000E+00 0. -1.
</event>
<event>
 7    1  0.3531412E-011  0.5052886E+02  0.7816164E-02  0.1300439E+00
        -11   -1    0    0    0    0  0.00000000000E+00  0.00000000000E+00  0.45593999997E+02  0.45594000000E+02  0.51100000000E-03 0. -1.
         11   -1    0    0    0    0 -0.00000000000E+00 -0.00000000000E+00 -0.45593999997E+02  0.45594000000E+02  0.51100000000E-03 0.  1.
    9900012    2    1    2    0    0 -0.35762474865E+02 -0.87063130701E+01 -0.17274582166E+02  0.50528859763E+02  0.29999999737E+02 0.  0.
         12    1    1    2    0    0  0.35762474865E+02  0.87063130701E+01  0.17274582166E+02  0.40659140237E+02  0.00000000000E+00 0. -1.
         11    1    3    3    0    0 -0.10494839598E+02 -0.99966415737E+01 -0.37145216978E+00  0.14498706078E+02  0.51100000000E-03 0.  1.
        -11    1    3    3    0    0 -0.16081473129E+02 -0.86229480741E+01 -0.86446442667E+01  0.20191554825E+02  0.51100000000E-03 0. -1.
         12    1    3    3    0    0 -0.91861621381E+01  0.99132765778E+01 -0.82584857297E+01  0.15838598861E+02  0.00000000000E+00 0. -1.
</event>
<event>
 7    1  0.3331850E-011  0.5052885E+02  0.7816164E-02  0.1300439E+00
        -11   -1    0    0    0    0  0.00000000000E+00  0.00000000000E+00  0.45593999997E+02  0.45594000000E+02  0.51100000000E-03 0.  1.
         11   -1    0    0    0    0 -0.00000000000E+00 -0.00000000000E+00 -0.45593999997E+02  0.45594000000E+02  0.51100000000E-03 0. -1.
    9900012    2    1    2    0    0 -0.98260709033E+01 -0.31484364521E+02  0.23777083734E+02  0.50528848637E+02  0.29999965917E+02 0.  0.
         12    1    1    2    0    0  0.98260709033E+01  0.31484364521E+02 -0.23777083734E+02  0.40659151363E+02  0.00000000000E+00 0. -1.
         11    1    3    3    0    0  0.75504865978E+01 -0.10379206806E+02  0.85624452304E+01  0.15428974378E+02  0.51100000000E-03 0. -1.
        -11    1    3    3    0    0 -0.96508632108E+01 -0.18819654836E+02  0.43810508632E+01  0.21598892930E+02  0.51100000000E-03 0.  1.
        -12    1    3    3    0    0 -0.77256942903E+01 -0.22855028789E+01  0.10833587641E+02  0.13500981329E+02  0.00000000000E+00 0.  1.
</event>
<event>
 7    1  0.3331850E-011  0.5052886E+02  0.7816164E-02  0.1300439E+00
        -11   -1    0    0    0    0  0.00000000000E+00  0.00000000000E+00  0.45593999997E+02  0.45594000000E+02  0.51100000000E-03 0.  1.
         11   -1    0    0    0    0 -0.00000000000E+00 -0.00000000000E+00 -0.45593999997E+02  0.45594000000E+02  0.51100000000E-03 0. -1.
    9900012    2    1    2    0    0  0.17668321049E+01 -0.53868487955E+00  0.40617162634E+02  0.50528858623E+02  0.29999996270E+02 0.  0.
         12    1    1    2    0    0 -0.17668321049E+01  0.53868487955E+00 -0.40617162634E+02  0.40659141377E+02  0.00000000000E+00 0. -1.
         11    1    3    3    0    0 -0.72473596430E+00 -0.34467778480E+01  0.31721737582E+01  0.47400639621E+01  0.51100000000E-03 0. -1.
        -11    1    3    3    0    0  0.10893875706E+02 -0.68034555574E+01  0.13603834714E+02  0.18709031365E+02  0.51100000000E-03 0.  1.
        -12    1    3    3    0    0 -0.84023076368E+01  0.97115485258E+01  0.23841154162E+02  0.27079763296E+02  0.00000000000E+00 0.  1.
</event>
<event>
 7    1  0.3674822E-011  0.5052887E+02  0.7816164E-02  0.1300439E+00
        -11   -1    0    0    0    0  0.00000000000E+00  0.00000000000E+00  0.45593999997E+02  0.45594000000E+02  0.51100000000E-03 0.  1.
         11   -1    0    0    0    0 -0.00000000000E+00 -0.00000000000E+00 -0.45593999997E+02  0.45594000000E+02  0.51100000000E-03 0. -1.
    9900012    2    1    2    0    0 -0.33744866066E+02 -0.71446433076E+01  0.21526796992E+02  0.50528869383E+02  0.30000028977E+02 0.  0.
         12    1    1    2    0    0  0.33744866066E+02  0.71446433076E+01 -0.21526796992E+02  0.40659130617E+02  0.00000000000E+00 0. -1.
         11    1    3    3    0    0 -0.15203328253E+02  0.10455378090E+00  0.13745297379E+00  0.15204309094E+02  0.51100000000E-03 0. -1.
        -11    1    3    3    0    0 -0.18518905741E+02 -0.48238519068E+01  0.64574818210E+01  0.20196992073E+02  0.51100000000E-03 0.  1.
         12    1    3    3    0    0 -0.22632071876E-01 -0.24253451816E+01  0.14931862197E+02  0.15127568216E+02  0.00000000000E+00 0. -1.
</event>
<event>
 7    1  0.3331850E-011  0.5052885E+02  0.7816164E-02  0.1300439E+00
        -11   -1    0    0    0    0  0.00000000000E+00  0.00000000000E+00  0.45593999997E+02  0.45594000000E+02  0.51100000000E-03 0. -1.
         11   -1    0    0    0    0 -0.00000000000E+00 -0.00000000000E+00 -0.45593999997E+02  0.45594000000E+02  0.51100000000E-03 0.  1.
    9900012    2    1    2    0    0 -0.20139214308E+02  0.71917407870E+01 -0.34581168757E+02  0.50528851938E+02  0.29999975952E+02 0.  0.
         12    1    1    2    0    0  0.20139214308E+02 -0.71917407870E+01  0.34581168757E+02  0.40659148062E+02  0.00000000000E+00 0. -1.
         11    1    3    3    0    0  0.48323381597E+01  0.53332802704E+01 -0.40522342824E+01  0.82592961851E+01  0.51100000000E-03 0. -1.
        -11    1    3    3    0    0 -0.35701466755E+01  0.21839020290E+01  0.86484585244E+00  0.42735622104E+01  0.51100000000E-03 0.  1.
        -12    1    3    3    0    0 -0.21401405792E+02 -0.32544151246E+00 -0.31393780327E+02  0.37995993543E+02  0.00000000000E+00 0.  1.
</event>
<event>
 7    1  0.3331850E-011  0.5052884E+02  0.7816164E-02  0.1300439E+00
        -11   -1    0    0    0    0  0.00000000000E+00  0.00000000000E+00  0.45593999997E+02  0.45594000000E+02  0.51100000000E-03 0.  1.
         11   -1    0    0    0    0 -0.00000000000E+00 -0.00000000000E+00 -0.45593999997E+02  0.45594000000E+02  0.51100000000E-03 0. -1.
    9900012    2    1    2    0    0  0.19302698780E+01  0.40322288566E+00  0.40611312918E+02  0.50528840301E+02  0.29999940578E+02 0.  0.
         12    1    1    2    0    0 -0.19302698780E+01 -0.40322288566E+00 -0.40611312918E+02  0.40659159699E+02  0.00000000000E+00 0. -1.
         11    1    3    3    0    0  0.14872320974E+01  0.18352018804E+01  0.15936764073E+02  0.16110874422E+02  0.51100000000E-03 0. -1.
        -11    1    3    3    0    0  0.77276658701E+01 -0.65934538523E+01  0.23256433587E+02  0.25378182696E+02  0.51100000000E-03 0.  1.
         12    1    3    3    0    0 -0.72846280895E+01  0.51614748576E+01  0.14181152583E+01  0.90397831828E+01  0.00000000000E+00 0. -1.
</event>
<event>
 7    1  0.3331850E-011  0.5052886E+02  0.7816164E-02  0.1300439E+00
        -11   -1    0    0    0    0  0.00000000000E+00  0.00000000000E+00  0.45593999997E+02  0.45594000000E+02  0.51100000000E-03 0.  1.
         11   -1    0    0    0    0 -0.00000000000E+00 -0.00000000000E+00 -0.45593999997E+02  0.45594000000E+02  0.51100000000E-03 0. -1.
    9900012    2    1    2    0    0 -0.21894998620E+02  0.62263533135E+01  0.33689869067E+02  0.50528859356E+02  0.29999998500E+02 0.  0.
         12    1    1    2    0    0  0.21894998620E+02 -0.62263533135E+01 -0.33689869067E+02  0.40659140644E+02  0.00000000000E+00 0. -1.
         11    1    3    3    0    0 -0.24687556420E+02 -0.48430756716E-01  0.20422272429E+02  0.32039772143E+02  0.51100000000E-03 0. -1.
        -11    1    3    3    0    0 -0.12949472992E+00  0.16639923738E+01  0.12911307842E+02  0.13018736881E+02  0.51100000000E-03 0.  1.
        -12    1    3    3    0    0  0.29220525306E+01  0.46107916964E+01  0.35628879551E+00  0.54703503329E+01  0.00000000000E+00 0.  1.
</event>
<event>
 7    1  0.3331850E-011  0.5052886E+02  0.7816164E-02  0.1300439E+00
        -11   -1    0    0    0    0  0.00000000000E+00  0.00000000000E+00  0.45593999997E+02  0.45594000000E+02  0.51100000000E-03 0.  1.
         11   -1    0    0    0    0 -0.00000000000E+00 -0.00000000000E+00 -0.45593999997E+02  0.45594000000E+02  0.51100000000E-03 0. -1.
    9900012    2    1    2    0    0 -0.40203619547E+01 -0.37633546759E+02  0.14856608433E+02  0.50528856305E+02  0.29999989224E+02 0.  0.
         12    1    1    2    0    0  0.40203619547E+01  0.37633546759E+02 -0.14856608433E+02  0.40659143695E+02  0.00000000000E+00 0. -1.
         11    1    3    3    0    0  0.17486877934E+01 -0.71421796603E+01 -0.66384489263E+01  0.99064445543E+01  0.51100000000E-03 0. -1.
        -11    1    3    3    0    0  0.21495678243E+01 -0.82478152015E+01 -0.24533240017E+00  0.85268567290E+01  0.51100000000E-03 0.  1.
        -12    1    3    3    0    0 -0.79186175724E+01 -0.22243551897E+02  0.21740389759E+02  0.32095555022E+02  0.00000000000E+00 0.  1.
</event>
<event>
 7    1  0.3331850E-011  0.5052886E+02  0.7816164E-02  0.1300439E+00
        -11   -1    0    0    0    0  0.00000000000E+00  0.00000000000E+00  0.45593999997E+02  0.45594000000E+02  0.51100000000E-03 0.  1.
         11   -1    0    0    0    0 -0.00000000000E+00 -0.00000000000E+00 -0.45593999997E+02  0.45594000000E+02  0.51100000000E-03 0. -1.
    9900012    2    1    2    0    0 -0.21526276370E+02 -0.16980354907E+02  0.30024196864E+02  0.50528862964E+02  0.30000009467E+02 0.  0.
         12    1    1    2    0    0  0.21526276370E+02  0.16980354907E+02 -0.30024196864E+02  0.40659137036E+02  0.00000000000E+00 0. -1.
         11    1    3    3    0    0 -0.38154618716E+01 -0.10530894136E+01  0.19572752082E+02  0.19968960187E+02  0.51100000000E-03 0. -1.
        -11    1    3    3    0    0  0.27962600020E+01 -0.12240989356E+01  0.29257668134E+01  0.42281910920E+01  0.51100000000E-03 0.  1.
        -12    1    3    3    0    0 -0.20507074501E+02 -0.14703166558E+02  0.75256779685E+01  0.26331711686E+02  0.00000000000E+00 0.  1.
</event>
<event>
 7    1  0.3331850E-011  0.5052886E+02  0.7816164E-02  0.1300439E+00
        -11   -1    0    0    0    0  0.00000000000E+00  0.00000000000E+00  0.45593999997E+02  0.45594000000E+02  0.51100000000E-03 0. -1.
         11   -1    0    0    0    0 -0.00000000000E+00 -0.00000000000E+00 -0.45593999997E+02  0.45594000000E+02  0.51100000000E-03 0.  1.
    9900012    2    1    2    0    0  0.38705431823E+02 -0.60435505462E+01 -0.10887189185E+02  0.50528857803E+02  0.29999993779E+02 0.  0.
         12    1    1    2    0    0 -0.38705431823E+02  0.60435505462E+01  0.10887189185E+02  0.40659142197E+02  0.00000000000E+00 0. -1.
         11    1    3    3    0    0  0.53107210284E+00 -0.45446429544E+01  0.28998474438E+00  0.45847473840E+01  0.51100000000E-03 0. -1.
        -11    1    3    3    0    0  0.88960322144E+01 -0.92285809393E+01 -0.88434748213E+01  0.15572833477E+02  0.51100000000E-03 0.  1.
         12    1    3    3    0    0  0.29278327506E+02  0.77296733475E+01 -0.23336991081E+01  0.30371276943E+02  0.00000000000E+00 0. -1.
</event>
<event>
 7    1  0.3331850E-011  0.5052889E+02  0.7816164E-02  0.1300439E+00
        -11   -1    0    0    0    0  0.00000000000E+00  0.00000000000E+00  0.45593999997E+02  0.45594000000E+02  0.51100000000E-03 0.  1.
         11   -1    0    0    0    0 -0.00000000000E+00 -0.00000000000E+00 -0.45593999997E+02  0.45594000000E+02  0.51100000000E-03 0. -1.
    9900012    2    1    2    0    0 -0.38760209183E+02 -0.83139778835E+01  0.90381077229E+01  0.50528887425E+02  0.30000083816E+02 0.  0.
         12    1    1    2    0    0  0.38760209183E+02  0.83139778835E+01 -0.90381077229E+01  0.40659112575E+02  0.00000000000E+00 0. -1.
         11    1    3    3    0    0  0.25408706062E+00 -0.37741828511E+01  0.36888702502E+01  0.52836332587E+01  0.51100000000E-03 0. -1.
        -11    1    3    3    0    0 -0.29406317595E+02 -0.47208837796E+01  0.13447773942E+02  0.32678140743E+02  0.51100000000E-03 0.  1.
         12    1    3    3    0    0 -0.96079786487E+01  0.18108874715E+00 -0.80985364688E+01  0.12567113423E+02  0.00000000000E+00 0. -1.
</event>
<event>
 7    1  0.3331850E-011  0.5052886E+02  0.7816164E-02  0.1300439E+00
        -11   -1    0    0    0    0  0.00000000000E+00  0.00000000000E+00  0.45593999997E+02  0.45594000000E+02  0.51100000000E-03 0.  1.
         11   -1    0    0    0    0 -0.00000000000E+00 -0.00000000000E+00 -0.45593999997E+02  0.45594000000E+02  0.51100000000E-03 0. -1.
    9900012    2    1    2    0    0 -0.24918528760E+02 -0.17181348480E+02  0.27148366683E+02  0.50528860502E+02  0.30000001983E+02 0.  0.
         12    1    1    2    0    0  0.24918528760E+02  0.17181348480E+02 -0.27148366683E+02  0.40659139498E+02  0.00000000000E+00 0. -1.
         11    1    3    3    0    0  0.52653762647E+00  0.42074503617E+01  0.11331421811E+02  0.12098801632E+02  0.51100000000E-03 0. -1.
        -11    1    3    3    0    0 -0.68042657712E+01 -0.35079292885E+00  0.42808226753E+01  0.80465229387E+01  0.51100000000E-03 0.  1.
        -12    1    3    3    0    0 -0.18640800615E+02 -0.21038005913E+02  0.11536122197E+02  0.30383535931E+02  0.00000000000E+00 0.  1.
</event>
<event>
 7    1  0.3331850E-011  0.5052886E+02  0.7816164E-02  0.1300439E+00
        -11   -1    0    0    0    0  0.00000000000E+00  0.00000000000E+00  0.45593999997E+02  0.45594000000E+02  0.51100000000E-03 0.  1.
         11   -1    0    0    0    0 -0.00000000000E+00 -0.00000000000E+00 -0.45593999997E+02  0.45594000000E+02  0.51100000000E-03 0. -1.
    9900012    2    1    2    0    0  0.10816345009E+01  0.33139666355E+02  0.23532070686E+02  0.50528858714E+02  0.29999996547E+02 0.  0.
         12    1    1    2    0    0 -0.10816345009E+01 -0.33139666355E+02 -0.23532070686E+02  0.40659141286E+02  0.00000000000E+00 0. -1.
         11    1    3    3    0    0 -0.27592845053E+00 -0.19166589542E+01  0.34065788801E-01  0.19367185639E+01  0.51100000000E-03 0. -1.
        -11    1    3    3    0    0  0.85864903375E+01  0.26258863002E+01  0.26305975060E+01  0.93564490421E+01  0.51100000000E-03 0.  1.
        -12    1    3    3    0    0 -0.72289273861E+01  0.32430439010E+02  0.20867407391E+02  0.39235691108E+02  0.00000000000E+00 0.  1.
</event>
<event>
 7    1  0.3331850E-011  0.5052887E+02  0.7816164E-02  0.1300439E+00
        -11   -1    0    0    0    0  0.00000000000E+00  0.00000000000E+00  0.45593999997E+02  0.45594000000E+02  0.51100000000E-03 0.  1.
         11   -1    0    0    0    0 -0.00000000000E+00 -0.00000000000E+00 -0.45593999997E+02  0.45594000000E+02  0.51100000000E-03 0. -1.
    9900012    2    1    2    0    0 -0.23959439512E+02 -0.32060803477E+02  0.71564661513E+01  0.50528869795E+02  0.30000030228E+02 0.  0.
         12    1    1    2    0    0  0.23959439512E+02  0.32060803477E+02 -0.71564661513E+01  0.40659130205E+02  0.00000000000E+00 0. -1.
         11    1    3    3    0    0 -0.29577639180E+01 -0.10467144842E+02  0.50795507402E+01  0.12004637626E+02  0.51100000000E-03 0. -1.
        -11    1    3    3    0    0  0.14365709409E+01 -0.10896596616E+02  0.72065632317E+01  0.13142834845E+02  0.51100000000E-03 0.  1.
         12    1    3    3    0    0 -0.22438246534E+02 -0.10697062018E+02 -0.51296478206E+01  0.25381397324E+02  0.00000000000E+00 0. -1.
</event>
<event>
 7    1  0.3331850E-011  0.5052886E+02  0.7816164E-02  0.1300439E+00
        -11   -1    0    0    0    0  0.00000000000E+00  0.00000000000E+00  0.45593999997E+02  0.45594000000E+02  0.51100000000E-03 0. -1.
         11   -1    0    0    0    0 -0.00000000000E+00 -0.00000000000E+00 -0.45593999997E+02  0.45594000000E+02  0.51100000000E-03 0.  1.
    9900012    2    1    2    0    0 -0.30490259525E+02 -0.24248427050E+02 -0.11641454798E+02  0.50528860681E+02  0.30000002526E+02 0.  0.
         12    1    1    2    0    0  0.30490259525E+02  0.24248427050E+02  0.11641454798E+02  0.40659139319E+02  0.00000000000E+00 0. -1.
         11    1    3    3    0    0 -0.10407672195E+01  0.10364442527E+01 -0.27175197318E+01  0.30890656917E+01  0.51100000000E-03 0. -1.
        -11    1    3    3    0    0 -0.18726456376E+02 -0.13416994885E+02 -0.17831752332E+02  0.29131895091E+02  0.51100000000E-03 0.  1.
         12    1    3    3    0    0 -0.10723035930E+02 -0.11867876418E+02  0.89078172655E+01  0.18307899898E+02  0.00000000000E+00 0. -1.
</event>
<event>
 7    1  0.4323290E-011  0.5052885E+02  0.7816164E-02  0.1300439E+00
        -11   -1    0    0    0    0  0.00000000000E+00  0.00000000000E+00  0.45593999997E+02  0.45594000000E+02  0.51100000000E-03 0. -1.
         11   -1    0    0    0    0 -0.00000000000E+00 -0.00000000000E+00 -0.45593999997E+02  0.45594000000E+02  0.51100000000E-03 0.  1.
    9900012    2    1    2    0    0  0.25354122754E+02 -0.15043190941E+02 -0.28000674112E+02  0.50528845003E+02  0.29999954872E+02 0.  0.
         12    1    1    2    0    0 -0.25354122754E+02  0.15043190941E+02  0.28000674112E+02  0.40659154997E+02  0.00000000000E+00 0. -1.
         11    1    3    3    0    0 -0.44656339519E+01 -0.62175362652E+01 -0.77532900247E+01  0.10895556446E+02  0.51100000000E-03 0. -1.
        -11    1    3    3    0    0  0.83690742589E+01 -0.49970848684E+01 -0.13827034947E+02  0.16917421695E+02  0.51100000000E-03 0.  1.
         12    1    3    3    0    0  0.21450682447E+02 -0.38285698075E+01 -0.64203491406E+01  0.22715866862E+02  0.00000000000E+00 0. -1.
</event>
<event>
 7    1  0.3331850E-011  0.5052885E+02  0.7816164E-02  0.1300439E+00
        -11   -1    0    0    0    0  0.00000000000E+00  0.00000000000E+00  0.45593999997E+02  0.45594000000E+02  0.51100000000E-03 0.  1.
         11   -1    0    0    0    0 -0.00000000000E+00 -0.00000000000E+00 -0.45593999997E+02  0.45594000000E+02  0.51100000000E-03 0. -1.
    9900012    2    1    2    0    0 -0.78857234153E+00 -0.24300490163E+02  0.32588808323E+02  0.50528854702E+02  0.29999984351E+02 0.  0.
         12    1    1    2    0    0  0.78857234153E+00  0.24300490163E+02 -0.32588808323E+02  0.40659145298E+02  0.00000000000E+00 0. -1.
         11    1    3    3    0    0  0.50159640204E+01 -0.82855621798E+01 -0.75052840578E+00  0.97146141889E+01  0.51100000000E-03 0. -1.
        -11    1    3    3    0    0  0.49520001380E+01 -0.71210085075E+01  0.75906213487E+01  0.11525996714E+02  0.51100000000E-03 0.  1.
        -12    1    3    3    0    0 -0.10756536500E+02 -0.88939194756E+01  0.25748715380E+02  0.29288243799E+02  0.00000000000E+00 0.  1.
</event>
<event>
 7    1  0.3331850E-011  0.5052886E+02  0.7816164E-02  0.1300439E+00
        -11   -1    0    0    0    0  0.00000000000E+00  0.00000000000E+00  0.45593999997E+02  0.45594000000E+02  0.51100000000E-03 0. -1.
         11   -1    0    0    0    0 -0.00000000000E+00 -0.00000000000E+00 -0.45593999997E+02  0.45594000000E+02  0.51100000000E-03 0.  1.
    9900012    2    1    2    0    0  0.16073408410E+02  0.30555427950E+02 -0.21475035062E+02  0.50528858764E+02  0.29999996700E+02 0.  0.
         12    1    1    2    0    0 -0.16073408410E+02 -0.30555427950E+02  0.21475035062E+02  0.40659141236E+02  0.00000000000E+00 0. -1.
         11    1    3    3    0    0  0.24677108242E+00  0.68473622814E+01 -0.49889925696E+01  0.84756895472E+01  0.51100000000E-03 0. -1.
        -11    1    3    3    0    0  0.17380515648E+02  0.16247907337E+02 -0.22190307873E+02  0.32534390740E+02  0.51100000000E-03 0.  1.
        -12    1    3    3    0    0 -0.15538783199E+01  0.74601583312E+01  0.57042653813E+01  0.95187784774E+01  0.00000000000E+00 0.  1.
</event>
<event>
 7    1  0.3331850E-011  0.5052886E+02  0.7816164E-02  0.1300439E+00
        -11   -1    0    0    0    0  0.00000000000E+00  0.00000000000E+00  0.45593999997E+02  0.45594000000E+02  0.51100000000E-03 0. -1.
         11   -1    0    0    0    0 -0.00000000000E+00 -0.00000000000E+00 -0.45593999997E+02  0.45594000000E+02  0.51100000000E-03 0.  1.
    9900012    2    1    2    0    0 -0.32774519461E+02 -0.21912061643E+02  0.99427403015E+01  0.50528860117E+02  0.30000000810E+02 0.  0.
         12    1    1    2    0    0  0.32774519461E+02  0.21912061643E+02 -0.99427403015E+01  0.40659139883E+02  0.00000000000E+00 0. -1.
         11    1    3    3    0    0 -0.11687989516E+02 -0.75497057410E+01  0.10089852612E+02  0.17187561831E+02  0.51100000000E-03 0. -1.
        -11    1    3    3    0    0 -0.18421972866E+02 -0.17744012845E+02 -0.58084128226E+01  0.26228929370E+02  0.51100000000E-03 0.  1.
         12    1    3    3    0    0 -0.26645570792E+01  0.33816569427E+01  0.56613005120E+01  0.71123689158E+01  0.00000000000E+00 0. -1.
</event>
<event>
 7    1  0.3331850E-011  0.5052885E+02  0.7816164E-02  0.1300439E+00
        -11   -1    0    0    0    0  0.00000000000E+00  0.00000000000E+00  0.45593999997E+02  0.45594000000E+02  0.51100000000E-03 0. -1.
         11   -1    0    0    0    0 -0.00000000000E+00 -0.00000000000E+00 -0.45593999997E+02  0.45594000000E+02  0.51100000000E-03 0.  1.
    9900012    2    1    2    0    0  0.26672390243E+02  0.25822332602E+02  0.16581824014E+02  0.50528854044E+02  0.29999982352E+02 0.  0.
         12    1    1    2    0    0 -0.26672390243E+02 -0.25822332602E+02 -0.16581824014E+02  0.40659145956E+02  0.00000000000E+00 0. -1.
         11    1    3    3    0    0  0.27901597954E+01  0.83765367042E+01  0.63546069942E+01  0.10878069183E+02  0.51100000000E-03 0.  1.
        -11    1    3    3    0    0  0.56121818104E+01  0.18625837185E+02  0.19243461950E+01  0.19547928383E+02  0.51100000000E-03 0. -1.
        -12    1    3    3    0    0  0.18270048637E+02 -0.11800412880E+01  0.83028708245E+01  0.20102856478E+02  0.00000000000E+00 0.  1.
</event>
<event>
 7    1  0.3331850E-011  0.5052886E+02  0.7816164E-02  0.1300439E+00
        -11   -1    0    0    0    0  0.00000000000E+00  0.00000000000E+00  0.45593999997E+02  0.45594000000E+02  0.51100000000E-03 0.  1.
         11   -1    0    0    0    0 -0.00000000000E+00 -0.00000000000E+00 -0.45593999997E+02  0.45594000000E+02  0.51100000000E-03 0. -1.
    9900012    2    1    2    0    0 -0.95716641613E+01 -0.33032854385E+02  0.21688230931E+02  0.50528860996E+02  0.30000003483E+02 0.  0.
         12    1    1    2    0    0  0.95716641613E+01  0.33032854385E+02 -0.21688230931E+02  0.40659139004E+02  0.00000000000E+00 0. -1.
         11    1    3    3    0    0  0.16046133781E+01 -0.56782699910E+01 -0.35119158138E+01  0.68666649203E+01  0.51100000000E-03 0. -1.
        -11    1    3    3    0    0  0.48451967904E+01 -0.12107665919E+02  0.12953278402E+02  0.18380939245E+02  0.51100000000E-03 0.  1.
        -12    1    3    3    0    0 -0.16021474330E+02 -0.15246918476E+02  0.12246868343E+02  0.25281256830E+02  0.00000000000E+00 0.  1.
</event>
<event>
 7    1  0.3331850E-011  0.5052889E+02  0.7816164E-02  0.1300439E+00
        -11   -1    0    0    0    0  0.00000000000E+00  0.00000000000E+00  0.45593999997E+02  0.45594000000E+02  0.51100000000E-03 0.  1.
         11   -1    0    0    0    0 -0.00000000000E+00 -0.00000000000E+00 -0.45593999997E+02  0.45594000000E+02  0.51100000000E-03 0. -1.
    9900012    2    1    2    0    0  0.89801448359E+01 -0.76126473670E+01  0.38917453988E+02  0.50528885080E+02  0.30000076688E+02 0.  0.
         12    1    1    2    0    0 -0.89801448359E+01  0.76126473670E+01 -0.38917453988E+02  0.40659114920E+02  0.00000000000E+00 0. -1.
         11    1    3    3    0    0  0.81321956011E+01  0.29411341732E+01 -0.31960658951E+00  0.86536133582E+01  0.51100000000E-03 0. -1.
        -11    1    3    3    0    0 -0.26789697514E+00 -0.31478780610E+01  0.16789114278E+01  0.35776596987E+01  0.51100000000E-03 0.  1.
        -12    1    3    3    0    0  0.11158462100E+01 -0.74059034793E+01  0.37558149150E+02  0.38297612023E+02  0.00000000000E+00 0.  1.
</event>
<event>
 7    1  0.3331850E-011  0.5052885E+02  0.7816164E-02  0.1300439E+00
        -11   -1    0    0    0    0  0.00000000000E+00  0.00000000000E+00  0.45593999997E+02  0.45594000000E+02  0.51100000000E-03 0.  1.
         11   -1    0    0    0    0 -0.00000000000E+00 -0.00000000000E+00 -0.45593999997E+02  0.45594000000E+02  0.51100000000E-03 0. -1.
    9900012    2    1    2    0    0 -0.27916653593E+01 -0.25609618241E+02  0.31456645837E+02  0.50528849625E+02  0.29999968919E+02 0.  0.
         12    1    1    2    0    0  0.27916653593E+01  0.25609618241E+02 -0.31456645837E+02  0.40659150375E+02  0.00000000000E+00 0. -1.
         11    1    3    3    0    0  0.17438054976E+01 -0.98086648026E+01 -0.36181482189E+01  0.10599139570E+02  0.51100000000E-03 0. -1.
        -11    1    3    3    0    0 -0.27661852408E+01 -0.22525864655E+00  0.98262394929E+01  0.10210656447E+02  0.51100000000E-03 0.  1.
        -12    1    3    3    0    0 -0.17692856162E+01 -0.15575694792E+02  0.25248554563E+02  0.29719053608E+02  0.00000000000E+00 0.  1.
</event>
<event>
 7    1  0.3331850E-011  0.5052887E+02  0.7816164E-02  0.1300439E+00
        -11   -1    0    0    0    0  0.00000000000E+00  0.00000000000E+00  0.45593999997E+02  0.45594000000E+02  0.51100000000E-03 0. -1.
         11   -1    0    0    0    0 -0.00000000000E+00 -0.00000000000E+00 -0.45593999997E+02  0.45594000000E+02  0.51100000000E-03 0.  1.
    9900012    2    1    2    0    0  0.95547916877E+01  0.39311913707E+02  0.40552008568E+01  0.50528865018E+02  0.30000015708E+02 0.  0.
         12    1    1    2    0    0 -0.95547916877E+01 -0.39311913707E+02 -0.40552008568E+01  0.40659134982E+02  0.00000000000E+00 0. -1.
         11    1    3    3    0    0 -0.43111715771E+01  0.95585380052E+01  0.82525977580E+00  0.10518217678E+02  0.51100000000E-03 0. -1.
        -11    1    3    3    0    0  0.24660391031E+01  0.21299054594E+02 -0.69555380784E+01  0.22541308429E+02  0.51100000000E-03 0.  1.
        -12    1    3    3    0    0  0.11399924162E+02  0.84543211080E+01  0.10185479159E+02  0.17469338911E+02  0.00000000000E+00 0.  1.
</event>
<event>
 7    1  0.3331850E-011  0.5052886E+02  0.7816164E-02  0.1300439E+00
        -11   -1    0    0    0    0  0.00000000000E+00  0.00000000000E+00  0.45593999997E+02  0.45594000000E+02  0.51100000000E-03 0.  1.
         11   -1    0    0    0    0 -0.00000000000E+00 -0.00000000000E+00 -0.45593999997E+02  0.45594000000E+02  0.51100000000E-03 0. -1.
    9900012    2    1    2    0    0  0.33794292600E+02 -0.19051895910E+02  0.12171150793E+02  0.50528857588E+02  0.29999993124E+02 0.  0.
         12    1    1    2    0    0 -0.33794292600E+02  0.19051895910E+02 -0.12171150793E+02  0.40659142412E+02  0.00000000000E+00 0. -1.
         11    1    3    3    0    0  0.13457210992E+02 -0.14161037485E+02  0.63620786927E+01  0.20545256287E+02  0.51100000000E-03 0. -1.
        -11    1    3    3    0    0  0.12660153568E+02 -0.86814270755E+01  0.11944555142E+02  0.19450425760E+02  0.51100000000E-03 0.  1.
         12    1    3    3    0    0  0.76769280391E+01  0.37905686509E+01 -0.61354830418E+01  0.10533175541E+02  0.00000000000E+00 0. -1.
</event>
<event>
 7    1  0.3331850E-011  0.5052886E+02  0.7816164E-02  0.1300439E+00
        -11   -1    0    0    0    0  0.00000000000E+00  0.00000000000E+00  0.45593999997E+02  0.45594000000E+02  0.51100000000E-03 0.  1.
         11   -1    0    0    0    0 -0.00000000000E+00 -0.00000000000E+00 -0.45593999997E+02  0.45594000000E+02  0.51100000000E-03 0. -1.
    9900012    2    1    2    0    0  0.25278716935E+02  0.13485177109E+01  0.31817187005E+02  0.50528863034E+02  0.30000009679E+02 0.  0.
         12    1    1    2    0    0 -0.25278716935E+02 -0.13485177109E+01 -0.31817187005E+02  0.40659136966E+02  0.00000000000E+00 0. -1.
         11    1    3    3    0    0  0.46295564876E+01  0.87086106758E+01  0.10697076027E+02  0.14549918521E+02  0.51100000000E-03 0. -1.
        -11    1    3    3    0    0  0.12190800876E+02  0.57387811802E+01  0.10956826792E+02  0.17366671790E+02  0.51100000000E-03 0.  1.
         12    1    3    3    0    0  0.84583595706E+01 -0.13098874145E+02  0.10163284187E+02  0.18612272724E+02  0.00000000000E+00 0. -1.
</event>
<event>
 7    1  0.3331850E-011  0.5052886E+02  0.7816164E-02  0.1300439E+00
        -11   -1    0    0    0    0  0.00000000000E+00  0.00000000000E+00  0.45593999997E+02  0.45594000000E+02  0.51100000000E-03 0.  1.
         11   -1    0    0    0    0 -0.00000000000E+00 -0.00000000000E+00 -0.45593999997E+02  0.45594000000E+02  0.51100000000E-03 0. -1.
    9900012    2    1    2    0    0  0.34370255639E+02  0.19480042674E+02  0.96114066162E+01  0.50528859915E+02  0.30000000198E+02 0.  0.
         12    1    1    2    0    0 -0.34370255639E+02 -0.19480042674E+02 -0.96114066162E+01  0.40659140085E+02  0.00000000000E+00 0. -1.
         11    1    3    3    0    0  0.26084988060E+01 -0.71046694652E+01  0.44579846950E+01  0.87837476075E+01  0.51100000000E-03 0. -1.
        -11    1    3    3    0    0  0.29121147763E+01  0.22015658152E+01  0.55858402952E+00  0.36931451214E+01  0.51100000000E-03 0.  1.
         12    1    3    3    0    0  0.28849642057E+02  0.24383146324E+02  0.45948378917E+01  0.38051967186E+02  0.00000000000E+00 0. -1.
</event>
<event>
 7    1  0.3331850E-011  0.5052886E+02  0.7816164E-02  0.1300439E+00
        -11   -1    0    0    0    0  0.00000000000E+00  0.00000000000E+00  0.45593999997E+02  0.45594000000E+02  0.51100000000E-03 0.  1.
         11   -1    0    0    0    0 -0.00000000000E+00 -0.00000000000E+00 -0.45593999997E+02  0.45594000000E+02  0.51100000000E-03 0. -1.
    9900012    2    1    2    0    0 -0.40302688980E+02  0.79188194574E+00  0.53133717385E+01  0.50528859143E+02  0.29999997850E+02 0.  0.
         12    1    1    2    0    0  0.40302688980E+02 -0.79188194574E+00 -0.53133717385E+01  0.40659140857E+02  0.00000000000E+00 0. -1.
         11    1    3    3    0    0 -0.16293742382E+02  0.11202895392E+02 -0.17660541307E+01  0.19852200216E+02  0.51100000000E-03 0. -1.
        -11    1    3    3    0    0 -0.12844012791E+02 -0.17878526893E+01  0.98692026616E+01  0.16296203338E+02  0.51100000000E-03 0.  1.
         12    1    3    3    0    0 -0.11164933807E+02 -0.86231607571E+01 -0.27897767924E+01  0.14380455588E+02  0.00000000000E+00 0. -1.
</event>
<event>
 7    1  0.3331850E-011  0.5052885E+02  0.7816164E-02  0.1300439E+00
        -11   -1    0    0    0    0  0.00000000000E+00  0.00000000000E+00  0.45593999997E+02  0.45594000000E+02  0.51100000000E-03 0. -1.
         11   -1    0    0    0    0 -0.00000000000E+00 -0.00000000000E+00 -0.45593999997E+02  0.45594000000E+02  0.51100000000E-03 0.  1.
    9900012    2    1    2    0    0  0.40422096017E+02  0.40206634075E+01  0.17478207640E+01  0.50528850254E+02  0.29999970833E+02 0.  0.
         12    1    1    2    0    0 -0.40422096017E+02 -0.40206634075E+01 -0.17478207640E+01  0.40659149746E+02  0.00000000000E+00 0. -1.
         11    1    3    3    0    0  0.10323289989E+02  0.10262179255E+02 -0.27688853953E+01  0.14817198313E+02  0.51100000000E-03 0. -1.
        -11    1    3    3    0    0  0.37150960346E+01  0.35895794595E+01  0.54908273538E+01  0.75389790113E+01  0.51100000000E-03 0.  1.
        -12    1    3    3    0    0  0.26383709993E+02 -0.98310953065E+01 -0.97412119453E+00  0.28172672930E+02  0.00000000000E+00 0.  1.
</event>
<event>
 7    1  0.3331850E-011  0.5052887E+02  0.7816164E-02  0.1300439E+00
        -11   -1    0    0    0    0  0.00000000000E+00  0.00000000000E+00  0.45593999997E+02  0.45594000000E+02  0.51100000000E-03 0.  1.
         11   -1    0    0    0    0 -0.00000000000E+00 -0.00000000000E+00 -0.45593999997E+02  0.45594000000E+02  0.51100000000E-03 0. -1.
    9900012    2    1    2    0    0 -0.35240776433E+02 -0.19452087661E+02 -0.57331293090E+01  0.50528870525E+02  0.30000032449E+02 0.  0.
         12    1    1    2    0    0  0.35240776433E+02  0.19452087661E+02  0.57331293090E+01  0.40659129475E+02  0.00000000000E+00 0. -1.
         11    1    3    3    0    0 -0.15841121517E+02 -0.13466880142E+02  0.42503211273E+01  0.21221762925E+02  0.51100000000E-03 0. -1.
        -11    1    3    3    0    0 -0.21716154340E+02 -0.93386100139E+00 -0.62666894549E+01  0.22621557256E+02  0.51100000000E-03 0.  1.
         12    1    3    3    0    0  0.23164994246E+01 -0.50513465168E+01 -0.37167609814E+01  0.66855503446E+01  0.00000000000E+00 0. -1.
</event>
<event>
 7    1  0.3331850E-011  0.5052888E+02  0.7816164E-02  0.1300439E+00
        -11   -1    0    0    0    0  0.00000000000E+00  0.00000000000E+00  0.45593999997E+02  0.45594000000E+02  0.51100000000E-03 0. -1.
         11   -1    0    0    0    0 -0.00000000000E+00 -0.00000000000E+00 -0.45593999997E+02  0.45594000000E+02  0.51100000000E-03 0.  1.
    9900012    2    1    2    0    0 -0.32725477181E+02  0.13152269846E+02 -0.20229311513E+02  0.50528879214E+02  0.30000058858E+02 0.  0.
         12    1    1    2    0    0  0.32725477181E+02 -0.13152269846E+02  0.20229311513E+02  0.40659120786E+02  0.00000000000E+00 0. -1.
         11    1    3    3    0    0 -0.24294491468E+02  0.72190290976E+01 -0.19686898888E+02  0.32092221564E+02  0.51100000000E-03 0. -1.
        -11    1    3    3    0    0 -0.29488110973E+01  0.21745667912E+01 -0.77863118710E+01  0.86052821238E+01  0.51100000000E-03 0.  1.
         12    1    3    3    0    0 -0.54821746161E+01  0.37586739577E+01  0.72438992469E+01  0.98313755264E+01  0.00000000000E+00 0. -1.
</event>
<event>
 7    1  0.3331850E-011  0.5052886E+02  0.7816164E-02  0.1300439E+00
        -11   -1    0    0    0    0  0.00000000000E+00  0.00000000000E+00  0.45593999997E+02  0.45594000000E+02  0.51100000000E-03 0.  1.
         11   -1    0    0    0    0 -0.00000000000E+00 -0.00000000000E+00 -0.45593999997E+02  0.45594000000E+02  0.51100000000E-03 0. -1.
    9900012    2    1    2    0    0 -0.67298011695E-01  0.59408208620E+01  0.40222728168E+02  0.50528859050E+02  0.29999997569E+02 0.  0.
         12    1    1    2    0    0  0.67298011695E-01 -0.59408208620E+01 -0.40222728168E+02  0.40659140950E+02  0.00000000000E+00 0. -1.
         11    1    3    3    0    0  0.71185817174E+01  0.65334375625E+01  0.70214871186E+01  0.11944090324E+02  0.51100000000E-03 0. -1.
        -11    1    3    3    0    0  0.39384612726E+01 -0.55318189044E+01  0.73223707272E+01  0.99864713946E+01  0.51100000000E-03 0.  1.
        -12    1    3    3    0    0 -0.11124341002E+02  0.49392022039E+01  0.25878870322E+02  0.28598297332E+02  0.00000000000E+00 0.  1.
</event>
<event>
 7    1  0.3331850E-011  0.5052884E+02  0.7816164E-02  0.1300439E+00
        -11   -1    0    0    0    0  0.00000000000E+00  0.00000000000E+00  0.45593999997E+02  0.45594000000E+02  0.51100000000E-03 0.  1.
         11   -1    0    0    0    0 -0.00000000000E+00 -0.00000000000E+00 -0.45593999997E+02  0.45594000000E+02  0.51100000000E-03 0. -1.
    9900012    2    1    2    0    0  0.10263182947E+02 -0.33456405770E+02  0.20700327478E+02  0.50528836593E+02  0.29999929307E+02 0.  0.
         12    1    1    2    0    0 -0.10263182947E+02  0.33456405770E+02 -0.20700327478E+02  0.40659163407E+02  0.00000000000E+00 0. -1.
         11    1    3    3    0    0 -0.12407972553E+01 -0.69229353762E+00  0.36240385189E+01  0.38926216896E+01  0.51100000000E-03 0. -1.
        -11    1    3    3    0    0  0.86804132078E+01 -0.12744587723E+02  0.20987988230E+02  0.26043612266E+02  0.51100000000E-03 0.  1.
        -12    1    3    3    0    0  0.28235669949E+01 -0.20019524510E+02 -0.39116992703E+01  0.20592602637E+02  0.00000000000E+00 0.  1.
</event>
<event>
 7    1  0.3358172E-011  0.5052886E+02  0.7816164E-02  0.1300439E+00
        -11   -1    0    0    0    0  0.00000000000E+00  0.00000000000E+00  0.45593999997E+02  0.45594000000E+02  0.51100000000E-03 0. -1.
         11   -1    0    0    0    0 -0.00000000000E+00 -0.00000000000E+00 -0.45593999997E+02  0.45594000000E+02  0.51100000000E-03 0.  1.
    9900012    2    1    2    0    0 -0.28205217761E+02  0.14712737320E+02 -0.25321276145E+02  0.50528856207E+02  0.29999988926E+02 0.  0.
         12    1    1    2    0    0  0.28205217761E+02 -0.14712737320E+02  0.25321276145E+02  0.40659143793E+02  0.00000000000E+00 0. -1.
         11    1    3    3    0    0 -0.12957766790E+02 -0.14750891088E+01 -0.12922177630E+02  0.18359256059E+02  0.51100000000E-03 0. -1.
        -11    1    3    3    0    0 -0.44578830033E+01  0.17371520796E+01 -0.13278205755E+02  0.14113864338E+02  0.51100000000E-03 0.  1.
         12    1    3    3    0    0 -0.10789567968E+02  0.14450674350E+02  0.87910724108E+00  0.18055735810E+02  0.00000000000E+00 0. -1.
</event>
<event>
 7    1  0.3331850E-011  0.5052886E+02  0.7816164E-02  0.1300439E+00
        -11   -1    0    0    0    0  0.00000000000E+00  0.00000000000E+00  0.45593999997E+02  0.45594000000E+02  0.51100000000E-03 0.  1.
         11   -1    0    0    0    0 -0.00000000000E+00 -0.00000000000E+00 -0.45593999997E+02  0.45594000000E+02  0.51100000000E-03 0. -1.
    9900012    2    1    2    0    0  0.37360339265E+01 -0.24845808804E+01  0.40410825027E+02  0.50528857473E+02  0.29999992776E+02 0.  0.
         12    1    1    2    0    0 -0.37360339265E+01  0.24845808804E+01 -0.40410825027E+02  0.40659142527E+02  0.00000000000E+00 0. -1.
         11    1    3    3    0    0 -0.77027528998E+01 -0.38253458026E+01  0.28997496695E+01  0.90760245235E+01  0.51100000000E-03 0.  1.
        -11    1    3    3    0    0  0.80051021219E+01  0.53493750052E+01  0.11917747582E+02  0.15320906651E+02  0.51100000000E-03 0. -1.
        -12    1    3    3    0    0  0.34336847044E+01 -0.40086100830E+01  0.25593327776E+02  0.26131926299E+02  0.00000000000E+00 0.  1.
</event>
<event>
 7    1  0.3331850E-011  0.5052886E+02  0.7816164E-02  0.1300439E+00
        -11   -1    0    0    0    0  0.00000000000E+00  0.00000000000E+00  0.45593999997E+02  0.45594000000E+02  0.51100000000E-03 0. -1.
         11   -1    0    0    0    0 -0.00000000000E+00 -0.00000000000E+00 -0.45593999997E+02  0.45594000000E+02  0.51100000000E-03 0.  1.
    9900012    2    1    2    0    0  0.90213591595E+01 -0.42580442441E+01 -0.39416367712E+02  0.50528857050E+02  0.29999991488E+02 0.  0.
         12    1    1    2    0    0 -0.90213591595E+01  0.42580442441E+01  0.39416367712E+02  0.40659142950E+02  0.00000000000E+00 0. -1.
         11    1    3    3    0    0  0.57154307412E+01 -0.67794995269E+01 -0.29654835912E+01  0.93499655392E+01  0.51100000000E-03 0. -1.
        -11    1    3    3    0    0  0.77311774089E+01 -0.42599816845E+01 -0.91978273346E+01  0.12748277375E+02  0.51100000000E-03 0.  1.
         12    1    3    3    0    0 -0.44252489906E+01  0.67814369674E+01 -0.27253056786E+02  0.28430614136E+02  0.00000000000E+00 0. -1.
</event>
<event>
 7    1  0.3331850E-011  0.5052886E+02  0.7816164E-02  0.1300439E+00
        -11   -1    0    0    0    0  0.00000000000E+00  0.00000000000E+00  0.45593999997E+02  0.45594000000E+02  0.51100000000E-03 0.  1.
         11   -1    0    0    0    0 -0.00000000000E+00 -0.00000000000E+00 -0.45593999997E+02  0.45594000000E+02  0.51100000000E-03 0. -1.
    9900012    2    1    2    0    0  0.26446947544E+02  0.16457302580E+02  0.26132006835E+02  0.50528860513E+02  0.30000002014E+02 0.  0.
         12    1    1    2    0    0 -0.26446947544E+02 -0.16457302580E+02 -0.26132006835E+02  0.40659139487E+02  0.00000000000E+00 0. -1.
         11    1    3    3    0    0  0.18086135635E+02 -0.48115557380E-01  0.14039589410E+02  0.22895866185E+02  0.51100000000E-03 0. -1.
        -11    1    3    3    0    0  0.97087575648E+00 -0.27052861897E+01  0.51732600769E+01  0.59180903328E+01  0.51100000000E-03 0.  1.
         12    1    3    3    0    0  0.73899361528E+01  0.19210704327E+02  0.69191573485E+01  0.21714903995E+02  0.00000000000E+00 0. -1.
</event>
<event>
 7    1  0.3331850E-011  0.5052882E+02  0.7816164E-02  0.1300439E+00
        -11   -1    0    0    0    0  0.00000000000E+00  0.00000000000E+00  0.45593999997E+02  0.45594000000E+02  0.51100000000E-03 0.  1.
         11   -1    0    0    0    0 -0.00000000000E+00 -0.00000000000E+00 -0.45593999997E+02  0.45594000000E+02  0.51100000000E-03 0. -1.
    9900012    2    1    2    0    0  0.19063734609E+02  0.51826830819E+01  0.35537057722E+02  0.50528823266E+02  0.29999888798E+02 0.  0.
         12    1    1    2    0    0 -0.19063734609E+02 -0.51826830819E+01 -0.35537057722E+02  0.40659176734E+02  0.00000000000E+00 0. -1.
         11    1    3    3    0    0  0.48560210582E+01  0.72606294999E+01  0.30992977902E+02  0.32200347215E+02  0.51100000000E-03 0. -1.
        -11    1    3    3    0    0  0.61345971271E+01 -0.62753200690E+00  0.74095902662E+01  0.96399744038E+01  0.51100000000E-03 0.  1.
         12    1    3    3    0    0  0.80731164241E+01 -0.14504144111E+01 -0.28655104461E+01  0.86885016474E+01  0.00000000000E+00 0. -1.
</event>
<event>
 7    1  0.3331850E-011  0.5052886E+02  0.7816164E-02  0.1300439E+00
        -11   -1    0    0    0    0  0.00000000000E+00  0.00000000000E+00  0.45593999997E+02  0.45594000000E+02  0.51100000000E-03 0.  1.
         11   -1    0    0    0    0 -0.00000000000E+00 -0.00000000000E+00 -0.45593999997E+02  0.45594000000E+02  0.51100000000E-03 0. -1.
    9900012    2    1    2    0    0  0.91236952354E+00  0.98092041239E+01  0.39447594728E+02  0.50528860394E+02  0.30000001654E+02 0.  0.
         12    1    1    2    0    0 -0.91236952354E+00 -0.98092041239E+01 -0.39447594728E+02  0.40659139606E+02  0.00000000000E+00 0. -1.
         11    1    3    3    0    0  0.49664519671E+01 -0.73869596342E+01  0.21141732802E+02  0.22939173566E+02  0.51100000000E-03 0. -1.
        -11    1    3    3    0    0  0.21215682063E+01  0.23454792701E+01  0.76995246060E+01  0.83237614142E+01  0.51100000000E-03 0.  1.
         12    1    3    3    0    0 -0.61756506499E+01  0.14850684488E+02  0.10606337320E+02  0.19265925414E+02  0.00000000000E+00 0. -1.
</event>
<event>
 7    1  0.3331850E-011  0.5052886E+02  0.7816164E-02  0.1300439E+00
        -11   -1    0    0    0    0  0.00000000000E+00  0.00000000000E+00  0.45593999997E+02  0.45594000000E+02  0.51100000000E-03 0.  1.
         11   -1    0    0    0    0 -0.00000000000E+00 -0.00000000000E+00 -0.45593999997E+02  0.45594000000E+02  0.51100000000E-03 0. -1.
    9900012    2    1    2    0    0  0.10573938547E+02 -0.30216867081E+02  0.25065877131E+02  0.50528862910E+02  0.30000009301E+02 0.  0.
         12    1    1    2    0    0 -0.10573938547E+02  0.30216867081E+02 -0.25065877131E+02  0.40659137090E+02  0.00000000000E+00 0. -1.
         11    1    3    3    0    0  0.65064090899E+01 -0.69815557659E+00  0.12028522925E+02  0.13693288301E+02  0.51100000000E-03 0. -1.
        -11    1    3    3    0    0 -0.57397186313E+01 -0.50327617719E+01  0.55397253867E+00  0.76537537753E+01  0.51100000000E-03 0.  1.
         12    1    3    3    0    0  0.98072480882E+01 -0.24485949732E+02  0.12483381667E+02  0.29181820834E+02  0.00000000000E+00 0. -1.
</event>
<event>
 7    1  0.3331850E-011  0.5052887E+02  0.7816164E-02  0.1300439E+00
        -11   -1    0    0    0    0  0.00000000000E+00  0.00000000000E+00  0.45593999997E+02  0.45594000000E+02  0.51100000000E-03 0.  1.
         11   -1    0    0    0    0 -0.00000000000E+00 -0.00000000000E+00 -0.45593999997E+02  0.45594000000E+02  0.51100000000E-03 0. -1.
    9900012    2    1    2    0    0  0.20945803279E+02 -0.87210613610E+01  0.33739910540E+02  0.50528866346E+02  0.30000019745E+02 0.  0.
         12    1    1    2    0    0 -0.20945803279E+02  0.87210613610E+01 -0.33739910540E+02  0.40659133654E+02  0.00000000000E+00 0. -1.
         11    1    3    3    0    0  0.12669186874E+02 -0.54196702451E+01  0.22398957778E+02  0.26298183044E+02  0.51100000000E-03 0. -1.
        -11    1    3    3    0    0  0.10836019922E+02  0.33065091547E+01  0.12696155655E+02  0.17016013023E+02  0.51100000000E-03 0.  1.
         12    1    3    3    0    0 -0.25594035169E+01 -0.66079002706E+01 -0.13552028930E+01  0.72146702787E+01  0.00000000000E+00 0. -1.
</event>
<event>
 7    1  0.3713262E-011  0.5052886E+02  0.7816164E-02  0.1300439E+00
        -11   -1    0    0    0    0  0.00000000000E+00  0.00000000000E+00  0.45593999997E+02  0.45594000000E+02  0.51100000000E-03 0.  1.
         11   -1    0    0    0    0 -0.00000000000E+00 -0.00000000000E+00 -0.45593999997E+02  0.45594000000E+02  0.51100000000E-03 0. -1.
    9900012    2    1    2    0    0  0.54059953587E+00 -0.36246412715E+02  0.18413880320E+02  0.50528859932E+02  0.30000000250E+02 0.  0.
         12    1    1    2    0    0 -0.54059953587E+00  0.36246412715E+02 -0.18413880320E+02  0.40659140068E+02  0.00000000000E+00 0. -1.
         11    1    3    3    0    0  0.32542890784E+01  0.60231473546E+00 -0.17232879446E+01  0.37313405162E+01  0.51100000000E-03 0. -1.
        -11    1    3    3    0    0 -0.96363699591E+01 -0.21004763531E+02  0.18166518565E+02  0.29395273668E+02  0.51100000000E-03 0.  1.
         12    1    3    3    0    0  0.69226804166E+01 -0.15843963920E+02  0.19706497001E+01  0.17402245749E+02  0.00000000000E+00 0. -1.
</event>
<event>
 7    1  0.3331850E-011  0.5052886E+02  0.7816164E-02  0.1300439E+00
        -11   -1    0    0    0    0  0.00000000000E+00  0.00000000000E+00  0.45593999997E+02  0.45594000000E+02  0.51100000000E-03 0.  1.
         11   -1    0    0    0    0 -0.00000000000E+00 -0.00000000000E+00 -0.45593999997E+02  0.45594000000E+02  0.51100000000E-03 0. -1.
    9900012    2    1    2    0    0 -0.44989653451E+01  0.31807451367E+02  0.24924112622E+02  0.50528855375E+02  0.29999986398E+02 0.  0.
         12    1    1    2    0    0  0.44989653451E+01 -0.31807451367E+02 -0.24924112622E+02  0.40659144625E+02  0.00000000000E+00 0. -1.
         11    1    3    3    0    0 -0.48095130255E+01  0.13276285504E+02  0.73327155476E-01  0.14120784307E+02  0.51100000000E-03 0. -1.
        -11    1    3    3    0    0 -0.18160776396E+01  0.15976223628E+02  0.58368661827E+01  0.17105755362E+02  0.51100000000E-03 0.  1.
         12    1    3    3    0    0  0.21266253200E+01  0.25549422355E+01  0.19013919284E+02  0.19302315706E+02  0.00000000000E+00 0. -1.
</event>
<event>
 7    1  0.3331850E-011  0.5052884E+02  0.7816164E-02  0.1300439E+00
        -11   -1    0    0    0    0  0.00000000000E+00  0.00000000000E+00  0.45593999997E+02  0.45594000000E+02  0.51100000000E-03 0.  1.
         11   -1    0    0    0    0 -0.00000000000E+00 -0.00000000000E+00 -0.45593999997E+02  0.45594000000E+02  0.51100000000E-03 0. -1.
    9900012    2    1    2    0    0  0.36195333992E+02 -0.13873228678E+02  0.12271848778E+02  0.50528844215E+02  0.29999952476E+02 0.  0.
         12    1    1    2    0    0 -0.36195333992E+02  0.13873228678E+02 -0.12271848778E+02  0.40659155785E+02  0.00000000000E+00 0. -1.
         11    1    3    3    0    0  0.11549357797E+02 -0.11009120040E+02  0.15026650434E+02  0.21917769346E+02  0.51100000000E-03 0.  1.
        -11    1    3    3    0    0 -0.23040300676E+00  0.24735579198E+01 -0.19458869965E+01  0.31556379375E+01  0.51100000000E-03 0. -1.
        -12    1    3    3    0    0  0.24876379202E+02 -0.53376665576E+01 -0.80891465944E+00  0.25455436932E+02  0.00000000000E+00 0.  1.
</event>
<event>
 7    1  0.3331850E-011  0.5052896E+02  0.7816164E-02  0.1300438E+00
        -11   -1    0    0    0    0  0.00000000000E+00  0.00000000000E+00  0.45593999997E+02  0.45594000000E+02  0.51100000000E-03 0.  1.
         11   -1    0    0    0    0 -0.00000000000E+00 -0.00000000000E+00 -0.45593999997E+02  0.45594000000E+02  0.51100000000E-03 0. -1.
    9900012    2    1    2    0    0 -0.11861229846E+01 -0.37492033455E+02  0.15687520299E+02  0.50528957298E+02  0.30000296202E+02 0.  0.
         12    1    1    2    0    0  0.11861229846E+01  0.37492033455E+02 -0.15687520299E+02  0.40659042702E+02  0.00000000000E+00 0. -1.
         11    1    3    3    0    0  0.45644801618E+01 -0.55639110598E+01 -0.37330593748E+01  0.81072386166E+01  0.51100000000E-03 0. -1.
        -11    1    3    3    0    0  0.51588608435E+01 -0.14730994853E+01  0.28105716159E+01  0.60566641285E+01  0.51100000000E-03 0.  1.
        -12    1    3    3    0    0 -0.10909463990E+02 -0.30455022910E+02  0.16610008057E+02  0.36365054553E+02  0.00000000000E+00 0.  1.
</event>
<event>
 7    1  0.3331850E-011  0.5052887E+02  0.7816164E-02  0.1300439E+00
        -11   -1    0    0    0    0  0.00000000000E+00  0.00000000000E+00  0.45593999997E+02  0.45594000000E+02  0.51100000000E-03 0. -1.
         11   -1    0    0    0    0 -0.00000000000E+00 -0.00000000000E+00 -0.45593999997E+02  0.45594000000E+02  0.51100000000E-03 0.  1.
    9900012    2    1    2    0    0  0.21746046110E+02  0.25212627178E+02 -0.23336624069E+02  0.50528866788E+02  0.30000021088E+02 0.  0.
         12    1    1    2    0    0 -0.21746046110E+02 -0.25212627178E+02  0.23336624069E+02  0.40659133212E+02  0.00000000000E+00 0. -1.
         11    1    3    3    0    0  0.18052638183E+02  0.14032980713E+02 -0.19926414363E+02  0.30329594173E+02  0.51100000000E-03 0. -1.
        -11    1    3    3    0    0  0.53130990415E+01  0.11330102601E+02 -0.83197571818E+01  0.15027262099E+02  0.51100000000E-03 0.  1.
         12    1    3    3    0    0 -0.16196911139E+01 -0.15045613662E+00  0.49095474760E+01  0.51720105155E+01  0.00000000000E+00 0. -1.
</event>
<event>
 7    1  0.3331850E-011  0.5052887E+02  0.7816164E-02  0.1300439E+00
        -11   -1    0    0    0    0  0.00000000000E+00  0.00000000000E+00  0.45593999997E+02  0.45594000000E+02  0.51100000000E-03 0.  1.
         11   -1    0    0    0    0 -0.00000000000E+00 -0.00000000000E+00 -0.45593999997E+02  0.45594000000E+02  0.51100000000E-03 0. -1.
    9900012    2    1    2    0    0  0.67567551069E+01  0.20082486458E+02  0.34701659216E+02  0.50528866288E+02  0.30000019568E+02 0.  0.
         12    1    1    2    0    0 -0.67567551069E+01 -0.20082486458E+02 -0.34701659216E+02  0.40659133712E+02  0.00000000000E+00 0. -1.
         11    1    3    3    0    0 -0.27053549211E+01  0.11465595212E+02  0.18265175672E+02  0.21734660370E+02  0.51100000000E-03 0.  1.
        -11    1    3    3    0    0  0.54579538491E-01  0.13072684044E+02  0.10798694999E+02  0.16956115740E+02  0.51100000000E-03 0. -1.
         12    1    3    3    0    0  0.94075304895E+01 -0.44557927983E+01  0.56377885450E+01  0.11838090178E+02  0.00000000000E+00 0. -1.
</event>
<event>
 7    1  0.3331850E-011  0.5052880E+02  0.7816164E-02  0.1300439E+00
        -11   -1    0    0    0    0  0.00000000000E+00  0.00000000000E+00  0.45593999997E+02  0.45594000000E+02  0.51100000000E-03 0. -1.
         11   -1    0    0    0    0 -0.00000000000E+00 -0.00000000000E+00 -0.45593999997E+02  0.45594000000E+02  0.51100000000E-03 0.  1.
    9900012    2    1    2    0    0  0.18583128951E+02  0.32113590548E+02 -0.16629940124E+02  0.50528803156E+02  0.29999827672E+02 0.  0.
         12    1    1    2    0    0 -0.18583128951E+02 -0.32113590548E+02  0.16629940124E+02  0.40659196844E+02  0.00000000000E+00 0. -1.
         11    1    3    3    0    0  0.33976777503E+01 -0.31031961081E+01 -0.47257022891E+01  0.65959307582E+01  0.51100000000E-03 0. -1.
        -11    1    3    3    0    0 -0.14125859989E+00 -0.20182645102E+01 -0.55704304160E+00  0.20984858438E+01  0.51100000000E-03 0.  1.
        -12    1    3    3    0    0  0.15326709801E+02  0.37235051166E+02 -0.11347194793E+02  0.41834386554E+02  0.00000000000E+00 0.  1.
</event>
<event>
 7    1  0.3331850E-011  0.5052886E+02  0.7816164E-02  0.1300439E+00
        -11   -1    0    0    0    0  0.00000000000E+00  0.00000000000E+00  0.45593999997E+02  0.45594000000E+02  0.51100000000E-03 0. -1.
         11   -1    0    0    0    0 -0.00000000000E+00 -0.00000000000E+00 -0.45593999997E+02  0.45594000000E+02  0.51100000000E-03 0.  1.
    9900012    2    1    2    0    0  0.32356312194E+02 -0.23325743117E+02  0.78831487693E+01  0.50528864922E+02  0.30000015418E+02 0.  0.
         12    1    1    2    0    0 -0.32356312194E+02  0.23325743117E+02 -0.78831487693E+01  0.40659135078E+02  0.00000000000E+00 0. -1.
         11    1    3    3    0    0 -0.12663678343E+01 -0.72791438181E+01 -0.59580731088E+00  0.74124630743E+01  0.51100000000E-03 0. -1.
        -11    1    3    3    0    0  0.99766222728E+01  0.27594747349E+01  0.76870901030E+01  0.12893372224E+02  0.51100000000E-03 0.  1.
        -12    1    3    3    0    0  0.23646057756E+02 -0.18806074033E+02  0.79186597715E+00  0.30223029624E+02  0.00000000000E+00 0.  1.
</event>
<event>
 7    1  0.3331850E-011  0.5052886E+02  0.7816164E-02  0.1300439E+00
        -11   -1    0    0    0    0  0.00000000000E+00  0.00000000000E+00  0.45593999997E+02  0.45594000000E+02  0.51100000000E-03 0. -1.
         11   -1    0    0    0    0 -0.00000000000E+00 -0.00000000000E+00 -0.45593999997E+02  0.45594000000E+02  0.51100000000E-03 0.  1.
    9900012    2    1    2    0    0  0.31497199203E+02  0.25238934762E+02 -0.49079450049E+01  0.50528864376E+02  0.30000013756E+02 0.  0.
         12    1    1    2    0    0 -0.31497199203E+02 -0.25238934762E+02  0.49079450049E+01  0.40659135624E+02  0.00000000000E+00 0. -1.
         11    1    3    3    0    0  0.64140996189E+01  0.75487879586E+00  0.36378783925E+01  0.74124675634E+01  0.51100000000E-03 0. -1.
        -11    1    3    3    0    0  0.21506009436E+02  0.17508339667E+02  0.43042513292E+01  0.28063801943E+02  0.51100000000E-03 0.  1.
         12    1    3    3    0    0  0.35770901484E+01  0.69757162988E+01 -0.12850074727E+02  0.15052594869E+02  0.00000000000E+00 0. -1.
</event>
<event>
 7    1  0.3331850E-011  0.5052887E+02  0.7816164E-02  0.1300439E+00
        -11   -1    0    0    0    0  0.00000000000E+00  0.00000000000E+00  0.45593999997E+02  0.45594000000E+02  0.51100000000E-03 0.  1.
         11   -1    0    0    0    0 -0.00000000000E+00 -0.00000000000E+00 -0.45593999997E+02  0.45594000000E+02  0.51100000000E-03 0. -1.
    9900012    2    1    2    0    0  0.35064428266E+02  0.19732122974E+02  0.58561196324E+01  0.50528868875E+02  0.30000027431E+02 0.  0.
         12    1    1    2    0    0 -0.35064428266E+02 -0.19732122974E+02 -0.58561196324E+01  0.40659131125E+02  0.00000000000E+00 0. -1.
         11    1    3    3    0    0  0.22468308347E+01  0.15658559911E+01 -0.15409427275E+01  0.31423969410E+01  0.51100000000E-03 0. -1.
        -11    1    3    3    0    0  0.59169228593E+01  0.58973537337E+01  0.14721220984E+02  0.16926402592E+02  0.51100000000E-03 0.  1.
        -12    1    3    3    0    0  0.26900674572E+02  0.12268913250E+02 -0.73241586239E+01  0.30460069342E+02  0.00000000000E+00 0.  1.
</event>
<event>
 7    1  0.3491863E-011  0.5052886E+02  0.7816164E-02  0.1300439E+00
        -11   -1    0    0    0    0  0.00000000000E+00  0.00000000000E+00  0.45593999997E+02  0.45594000000E+02  0.51100000000E-03 0. -1.
         11   -1    0    0    0    0 -0.00000000000E+00 -0.00000000000E+00 -0.45593999997E+02  0.45594000000E+02  0.51100000000E-03 0.  1.
    9900012    2    1    2    0    0 -0.21911826167E+02 -0.10724070084E+02 -0.32527400818E+02  0.50528860694E+02  0.30000002565E+02 0.  0.
         12    1    1    2    0    0  0.21911826167E+02  0.10724070084E+02  0.32527400818E+02  0.40659139306E+02  0.00000000000E+00 0. -1.
         11    1    3    3    0    0 -0.60539387598E+01 -0.38367670850E+01 -0.37657250260E+01  0.80963968162E+01  0.51100000000E-03 0. -1.
        -11    1    3    3    0    0 -0.11425643452E+02 -0.16675681560E+02 -0.16220846059E+02  0.25917938400E+02  0.51100000000E-03 0.  1.
         12    1    3    3    0    0 -0.44322439548E+01  0.97883785613E+01 -0.12540829733E+02  0.16514525477E+02  0.00000000000E+00 0. -1.
</event>
<event>
 7    1  0.3331850E-011  0.5052886E+02  0.7816164E-02  0.1300439E+00
        -11   -1    0    0    0    0  0.00000000000E+00  0.00000000000E+00  0.45593999997E+02  0.45594000000E+02  0.51100000000E-03 0. -1.
         11   -1    0    0    0    0 -0.00000000000E+00 -0.00000000000E+00 -0.45593999997E+02  0.45594000000E+02  0.51100000000E-03 0.  1.
    9900012    2    1    2    0    0  0.38290178376E+02 -0.13400359261E+02  0.27309617018E+01  0.50528861541E+02  0.30000005142E+02 0.  0.
         12    1    1    2    0    0 -0.38290178376E+02  0.13400359261E+02 -0.27309617018E+01  0.40659138459E+02  0.00000000000E+00 0. -1.
         11    1    3    3    0    0  0.31293536015E+01  0.17495829014E+01  0.77371802934E+01  0.85274763820E+01  0.51100000000E-03 0. -1.
        -11    1    3    3    0    0  0.16918089183E+02 -0.16014791860E+02 -0.10796553005E+01  0.23320826652E+02  0.51100000000E-03 0.  1.
        -12    1    3    3    0    0  0.18242735592E+02  0.86484969784E+00 -0.39265632911E+01  0.18680558507E+02  0.00000000000E+00 0.  1.
</event>
<event>
 7    1  0.3331850E-011  0.5052889E+02  0.7816164E-02  0.1300439E+00
        -11   -1    0    0    0    0  0.00000000000E+00  0.00000000000E+00  0.45593999997E+02  0.45594000000E+02  0.51100000000E-03 0. -1.
         11   -1    0    0    0    0 -0.00000000000E+00 -0.00000000000E+00 -0.45593999997E+02  0.45594000000E+02  0.51100000000E-03 0.  1.
    9900012    2    1    2    0    0 -0.39430176831E+02  0.52470260745E+01 -0.84198017515E+01  0.50528890454E+02  0.30000093024E+02 0.  0.
         12    1    1    2    0    0  0.39430176831E+02 -0.52470260745E+01  0.84198017515E+01  0.40659109546E+02  0.00000000000E+00 0. -1.
         11    1    3    3    0    0 -0.22379471208E+02  0.75387491323E+00 -0.66884177998E+01  0.23369723829E+02  0.51100000000E-03 0. -1.
        -11    1    3    3    0    0 -0.21799866795E+02  0.45519366041E+01 -0.60669421427E+00  0.22278294308E+02  0.51100000000E-03 0.  1.
         12    1    3    3    0    0  0.47491611723E+01 -0.58785442864E-01 -0.11246897375E+01  0.48808723169E+01  0.00000000000E+00 0. -1.
</event>
<event>
 7    1  0.3331850E-011  0.5052886E+02  0.7816164E-02  0.1300439E+00
        -11   -1    0    0    0    0  0.00000000000E+00  0.00000000000E+00  0.45593999997E+02  0.45594000000E+02  0.51100000000E-03 0. -1.
         11   -1    0    0    0    0 -0.00000000000E+00 -0.00000000000E+00 -0.45593999997E+02  0.45594000000E+02  0.51100000000E-03 0.  1.
    9900012    2    1    2    0    0 -0.38544197982E+02 -0.36272949404E+01 -0.12423911457E+02  0.50528855364E+02  0.29999986364E+02 0.  0.
         12    1    1    2    0    0  0.38544197982E+02  0.36272949404E+01  0.12423911457E+02  0.40659144636E+02  0.00000000000E+00 0. -1.
         11    1    3    3    0    0 -0.60002895240E+00 -0.61521028348E+01 -0.82295810098E+01  0.10292444214E+02  0.51100000000E-03 0. -1.
        -11    1    3    3    0    0 -0.26548847043E+01  0.13616940436E+01 -0.39206833552E+01  0.49269038649E+01  0.51100000000E-03 0.  1.
         12    1    3    3    0    0 -0.35289284325E+02  0.11631138508E+01 -0.27364709207E+00  0.35309507285E+02  0.00000000000E+00 0. -1.
</event>
<event>
 7    1  0.3331850E-011  0.5052883E+02  0.7816164E-02  0.1300439E+00
        -11   -1    0    0    0    0  0.00000000000E+00  0.00000000000E+00  0.45593999997E+02  0.45594000000E+02  0.51100000000E-03 0. -1.
         11   -1    0    0    0    0 -0.00000000000E+00 -0.00000000000E+00 -0.45593999997E+02  0.45594000000E+02  0.51100000000E-03 0.  1.
    9900012    2    1    2    0    0 -0.81759891136E+01  0.23077723578E+02 -0.32461356797E+02  0.50528833646E+02  0.29999920350E+02 0.  0.
         12    1    1    2    0    0  0.81759891136E+01 -0.23077723578E+02  0.32461356797E+02  0.40659166354E+02  0.00000000000E+00 0. -1.
         11    1    3    3    0    0 -0.96545577873E+01  0.41554259517E+01 -0.17773141442E+02  0.20648549777E+02  0.51100000000E-03 0. -1.
        -11    1    3    3    0    0 -0.78129770411E+01  0.58917831111E+01 -0.36739843157E+01  0.10452458059E+02  0.51100000000E-03 0.  1.
        -12    1    3    3    0    0  0.92915457147E+01  0.13030514515E+02 -0.11014231039E+02  0.19427825809E+02  0.00000000000E+00 0.  1.
</event>
<event>
 7    1  0.3331850E-011  0.5052886E+02  0.7816164E-02  0.1300439E+00
        -11   -1    0    0    0    0  0.00000000000E+00  0.00000000000E+00  0.45593999997E+02  0.45594000000E+02  0.51100000000E-03 0.  1.
         11   -1    0    0    0    0 -0.00000000000E+00 -0.00000000000E+00 -0.45593999997E+02  0.45594000000E+02  0.51100000000E-03 0. -1.
    9900012    2    1    2    0    0 -0.18715048283E+01 -0.79922412665E+01  0.39821946298E+02  0.50528857636E+02  0.29999993271E+02 0.  0.
         12    1    1    2    0    0  0.18715048283E+01  0.79922412665E+01 -0.39821946298E+02  0.40659142364E+02  0.00000000000E+00 0. -1.
         11    1    3    3    0    0 -0.56118708935E+01 -0.57855813135E+00 -0.73643154152E+00  0.56894776661E+01  0.51100000000E-03 0. -1.
        -11    1    3    3    0    0  0.34593957297E+01  0.59628927296E+00  0.14046365152E-01  0.35104383307E+01  0.51100000000E-03 0.  1.
        -12    1    3    3    0    0  0.28097033548E+00 -0.80099724081E+01  0.40544331475E+02  0.41328941639E+02  0.00000000000E+00 0.  1.
</event>
<event>
 7    1  0.3331850E-011  0.5052885E+02  0.7816164E-02  0.1300439E+00
        -11   -1    0    0    0    0  0.00000000000E+00  0.00000000000E+00  0.45593999997E+02  0.45594000000E+02  0.51100000000E-03 0.  1.
         11   -1    0    0    0    0 -0.00000000000E+00 -0.00000000000E+00 -0.45593999997E+02  0.45594000000E+02  0.51100000000E-03 0. -1.
    9900012    2    1    2    0    0 -0.23812273241E+02  0.30581386103E+02  0.12285001081E+02  0.50528846240E+02  0.29999958631E+02 0.  0.
         12    1    1    2    0    0  0.23812273241E+02 -0.30581386103E+02 -0.12285001081E+02  0.40659153760E+02  0.00000000000E+00 0. -1.
         11    1    3    3    0    0 -0.91012987034E+01 -0.13130872410E+00  0.85319777687E+01  0.12475797569E+02  0.51100000000E-03 0. -1.
        -11    1    3    3    0    0 -0.33784570670E+01  0.85264255912E+01  0.87139218845E+01  0.12650942273E+02  0.51100000000E-03 0.  1.
         12    1    3    3    0    0 -0.11332517471E+02  0.22186269236E+02 -0.49608985719E+01  0.25402106399E+02  0.00000000000E+00 0. -1.
</event>
<event>
 7    1  0.3331850E-011  0.5052886E+02  0.7816164E-02  0.1300439E+00
        -11   -1    0    0    0    0  0.00000000000E+00  0.00000000000E+00  0.45593999997E+02  0.45594000000E+02  0.51100000000E-03 0.  1.
         11   -1    0    0    0    0 -0.00000000000E+00 -0.00000000000E+00 -0.45593999997E+02  0.45594000000E+02  0.51100000000E-03 0. -1.
    9900012    2    1    2    0    0 -0.22025960124E+02  0.28929169672E+02  0.18196870275E+02  0.50528857546E+02  0.29999992995E+02 0.  0.
         12    1    1    2    0    0  0.22025960124E+02 -0.28929169672E+02 -0.18196870275E+02  0.40659142454E+02  0.00000000000E+00 0. -1.
         11    1    3    3    0    0 -0.67819121884E+01  0.13451024522E+02 -0.26922593617E+00  0.15066415516E+02  0.51100000000E-03 0. -1.
        -11    1    3    3    0    0 -0.13065381330E+02  0.18858024670E+02  0.80768126810E+01  0.24322092573E+02  0.51100000000E-03 0.  1.
         12    1    3    3    0    0 -0.21786666053E+01 -0.33798795202E+01  0.10389283530E+02  0.11140349457E+02  0.00000000000E+00 0. -1.
</event>
<event>
 7    1  0.3331850E-011  0.5052886E+02  0.7816164E-02  0.1300439E+00
        -11   -1    0    0    0    0  0.00000000000E+00  0.00000000000E+00  0.45593999997E+02  0.45594000000E+02  0.51100000000E-03 0.  1.
         11   -1    0    0    0    0 -0.00000000000E+00 -0.00000000000E+00 -0.45593999997E+02  0.45594000000E+02  0.51100000000E-03 0. -1.
    9900012    2    1    2    0    0 -0.17566392913E+02  0.30855649426E+02  0.19812022946E+02  0.50528861855E+02  0.30000006094E+02 0.  0.
         12    1    1    2    0    0  0.17566392913E+02 -0.30855649426E+02 -0.19812022946E+02  0.40659138145E+02  0.00000000000E+00 0. -1.
         11    1    3    3    0    0 -0.13494461573E+01 -0.34995083563E+01  0.37268454471E+01  0.52874323556E+01  0.51100000000E-03 0. -1.
        -11    1    3    3    0    0 -0.82493385611E+01  0.33554640419E+01  0.85792813741E+01  0.12365872181E+02  0.51100000000E-03 0.  1.
         12    1    3    3    0    0 -0.79676081950E+01  0.30999693741E+02  0.75058961247E+01  0.32875557319E+02  0.00000000000E+00 0. -1.
</event>
<event>
 7    1  0.3331850E-011  0.5052888E+02  0.7816164E-02  0.1300439E+00
        -11   -1    0    0    0    0  0.00000000000E+00  0.00000000000E+00  0.45593999997E+02  0.45594000000E+02  0.51100000000E-03 0. -1.
         11   -1    0    0    0    0 -0.00000000000E+00 -0.00000000000E+00 -0.45593999997E+02  0.45594000000E+02  0.51100000000E-03 0.  1.
    9900012    2    1    2    0    0 -0.11937607649E+02 -0.38019909500E+02 -0.80711812229E+01  0.50528880960E+02  0.30000064167E+02 0.  0.
         12    1    1    2    0    0  0.11937607649E+02  0.38019909500E+02  0.80711812229E+01  0.40659119040E+02  0.00000000000E+00 0. -1.
         11    1    3    3    0    0 -0.15117314056E+02 -0.15150306877E+02  0.54016808081E+01  0.22073584633E+02  0.51100000000E-03 0. -1.
        -11    1    3    3    0    0 -0.31804066336E+01 -0.11206172223E+02 -0.48544986382E+01  0.12619803467E+02  0.51100000000E-03 0.  1.
        -12    1    3    3    0    0  0.63601130402E+01 -0.11663430399E+02 -0.86183633928E+01  0.15835492860E+02  0.00000000000E+00 0.  1.
</event>
<event>
 7    1  0.3331850E-011  0.5052885E+02  0.7816164E-02  0.1300439E+00
        -11   -1    0    0    0    0  0.00000000000E+00  0.00000000000E+00  0.45593999997E+02  0.45594000000E+02  0.51100000000E-03 0.  1.
         11   -1    0    0    0    0 -0.00000000000E+00 -0.00000000000E+00 -0.45593999997E+02  0.45594000000E+02  0.51100000000E-03 0. -1.
    9900012    2    1    2    0    0 -0.34139452082E+02  0.15453535365E+02  0.15775061183E+02  0.50528849750E+02  0.29999969299E+02 0.  0.
         12    1    1    2    0    0  0.34139452082E+02 -0.15453535365E+02 -0.15775061183E+02  0.40659150250E+02  0.00000000000E+00 0. -1.
         11    1    3    3    0    0 -0.25516936658E+02  0.10328273322E+01  0.48033689462E+01  0.25985633381E+02  0.51100000000E-03 0. -1.
        -11    1    3    3    0    0 -0.11694316132E+02  0.80362639698E+01  0.43387330207E+01  0.14837896511E+02  0.51100000000E-03 0.  1.
         12    1    3    3    0    0  0.30718007076E+01  0.63844440628E+01  0.66329592161E+01  0.97053198577E+01  0.00000000000E+00 0. -1.
</event>
<event>
 7    1  0.3331850E-011  0.5052873E+02  0.7816164E-02  0.1300439E+00
        -11   -1    0    0    0    0  0.00000000000E+00  0.00000000000E+00  0.45593999997E+02  0.45594000000E+02  0.51100000000E-03 0.  1.
         11   -1    0    0    0    0 -0.00000000000E+00 -0.00000000000E+00 -0.45593999997E+02  0.45594000000E+02  0.51100000000E-03 0. -1.
    9900012    2    1    2    0    0 -0.24098518034E+02  0.32747758054E+02  0.14958535984E+00  0.50528725476E+02  0.29999591555E+02 0.  0.
         12    1    1    2    0    0  0.24098518034E+02 -0.32747758054E+02 -0.14958535984E+00  0.40659274524E+02  0.00000000000E+00 0. -1.
         11    1    3    3    0    0 -0.11322126358E+02  0.29250061357E+02 -0.99523537209E+00  0.31380680814E+02  0.51100000000E-03 0. -1.
        -11    1    3    3    0    0 -0.19271346596E+01  0.63416571738E+01 -0.28871342399E+01  0.72295233651E+01  0.51100000000E-03 0.  1.
         12    1    3    3    0    0 -0.10849257017E+02 -0.28439604768E+01  0.40319549718E+01  0.11918521297E+02  0.00000000000E+00 0. -1.
</event>
<event>
 7    1  0.3331850E-011  0.5052887E+02  0.7816164E-02  0.1300439E+00
        -11   -1    0    0    0    0  0.00000000000E+00  0.00000000000E+00  0.45593999997E+02  0.45594000000E+02  0.51100000000E-03 0. -1.
         11   -1    0    0    0    0 -0.00000000000E+00 -0.00000000000E+00 -0.45593999997E+02  0.45594000000E+02  0.51100000000E-03 0.  1.
    9900012    2    1    2    0    0  0.30160818962E+02  0.25747675125E+02 -0.89748240592E+01  0.50528865212E+02  0.30000016299E+02 0.  0.
         12    1    1    2    0    0 -0.30160818962E+02 -0.25747675125E+02  0.89748240592E+01  0.40659134788E+02  0.00000000000E+00 0. -1.
         11    1    3    3    0    0 -0.18048549074E+01  0.18869215236E+01 -0.22601231084E+01  0.34534230554E+01  0.51100000000E-03 0. -1.
        -11    1    3    3    0    0  0.13541473971E+02  0.20200868275E+02 -0.12601269607E+02  0.27390483609E+02  0.51100000000E-03 0.  1.
         12    1    3    3    0    0  0.18424199898E+02  0.36598853265E+01  0.58865686560E+01  0.19684958548E+02  0.00000000000E+00 0. -1.
</event>
<event>
 7    1  0.3331850E-011  0.5052889E+02  0.7816164E-02  0.1300439E+00
        -11   -1    0    0    0    0  0.00000000000E+00  0.00000000000E+00  0.45593999997E+02  0.45594000000E+02  0.51100000000E-03 0. -1.
         11   -1    0    0    0    0 -0.00000000000E+00 -0.00000000000E+00 -0.45593999997E+02  0.45594000000E+02  0.51100000000E-03 0.  1.
    9900012    2    1    2    0    0 -0.19221390957E+02  0.31957118720E+02 -0.16200120737E+02  0.50528890084E+02  0.30000091900E+02 0.  0.
         12    1    1    2    0    0  0.19221390957E+02 -0.31957118720E+02  0.16200120737E+02  0.40659109916E+02  0.00000000000E+00 0. -1.
         11    1    3    3    0    0 -0.61712140057E+01  0.21098410641E+02 -0.63658468663E+01  0.22885602908E+02  0.51100000000E-03 0. -1.
        -11    1    3    3    0    0  0.17136923601E+01  0.10493482374E+02 -0.66333074342E+01  0.12531986339E+02  0.51100000000E-03 0.  1.
        -12    1    3    3    0    0 -0.14763869312E+02  0.36522570589E+00 -0.32009664367E+01  0.15111300837E+02  0.00000000000E+00 0.  1.
</event>
<event>
 7    1  0.3331850E-011  0.5052885E+02  0.7816164E-02  0.1300439E+00
        -11   -1    0    0    0    0  0.00000000000E+00  0.00000000000E+00  0.45593999997E+02  0.45594000000E+02  0.51100000000E-03 0.  1.
         11   -1    0    0    0    0 -0.00000000000E+00 -0.00000000000E+00 -0.45593999997E+02  0.45594000000E+02  0.51100000000E-03 0. -1.
    9900012    2    1    2    0    0  0.28961321872E+02  0.20346541596E+01  0.28465210069E+02  0.50528853841E+02  0.29999981734E+02 0.  0.
         12    1    1    2    0    0 -0.28961321872E+02 -0.20346541596E+01 -0.28465210069E+02  0.40659146159E+02  0.00000000000E+00 0. -1.
         11    1    3    3    0    0  0.14696934579E+02  0.11862484216E+02  0.17827342059E+02  0.25971764340E+02  0.51100000000E-03 0.  1.
        -11    1    3    3    0    0  0.17546470367E+01  0.31511148640E+01  0.39016560986E+01  0.53133070382E+01  0.51100000000E-03 0. -1.
        -12    1    3    3    0    0  0.12509740256E+02 -0.12978944921E+02  0.67362119116E+01  0.19243782462E+02  0.00000000000E+00 0.  1.
</event>
<event>
 7    1  0.3331850E-011  0.5052886E+02  0.7816164E-02  0.1300439E+00
        -11   -1    0    0    0    0  0.00000000000E+00  0.00000000000E+00  0.45593999997E+02  0.45594000000E+02  0.51100000000E-03 0. -1.
         11   -1    0    0    0    0 -0.00000000000E+00 -0.00000000000E+00 -0.45593999997E+02  0.45594000000E+02  0.51100000000E-03 0.  1.
    9900012    2    1    2    0    0  0.29422339893E+02 -0.27528770829E+02  0.54459507074E+01  0.50528859733E+02  0.29999999645E+02 0.  0.
         12    1    1    2    0    0 -0.29422339893E+02  0.27528770829E+02 -0.54459507074E+01  0.40659140267E+02  0.00000000000E+00 0. -1.
         11    1    3    3    0    0  0.23672345221E+01 -0.18750680292E+02 -0.34363488996E+01  0.19209380644E+02  0.51100000000E-03 0. -1.
        -11    1    3    3    0    0  0.66056754463E+01 -0.49939300453E+01 -0.91368580611E+00  0.83312128417E+01  0.51100000000E-03 0.  1.
        -12    1    3    3    0    0  0.20449429924E+02 -0.37841604918E+01  0.97959854132E+01  0.22988266248E+02  0.00000000000E+00 0.  1.
</event>
<event>
 7    1  0.3331850E-011  0.5052886E+02  0.7816164E-02  0.1300439E+00
        -11   -1    0    0    0    0  0.00000000000E+00  0.00000000000E+00  0.45593999997E+02  0.45594000000E+02  0.51100000000E-03 0.  1.
         11   -1    0    0    0    0 -0.00000000000E+00 -0.00000000000E+00 -0.45593999997E+02  0.45594000000E+02  0.51100000000E-03 0. -1.
    9900012    2    1    2    0    0 -0.12391749536E+02 -0.33750425303E+02  0.18987333111E+02  0.50528862240E+02  0.30000007264E+02 0.  0.
         12    1    1    2    0    0  0.12391749536E+02  0.33750425303E+02 -0.18987333111E+02  0.40659137760E+02  0.00000000000E+00 0. -1.
         11    1    3    3    0    0  0.26672298485E+01  0.62610971987E+00  0.49324129620E+01  0.56422359341E+01  0.51100000000E-03 0. -1.
        -11    1    3    3    0    0 -0.34895388891E+01 -0.83657495302E+00  0.81690060133E+01  0.89224099221E+01  0.51100000000E-03 0.  1.
         12    1    3    3    0    0 -0.11569440496E+02 -0.33539960070E+02  0.58859141361E+01  0.35964216384E+02  0.00000000000E+00 0. -1.
</event>
<event>
 7    1  0.3331850E-011  0.5052886E+02  0.7816164E-02  0.1300439E+00
        -11   -1    0    0    0    0  0.00000000000E+00  0.00000000000E+00  0.45593999997E+02  0.45594000000E+02  0.51100000000E-03 0.  1.
         11   -1    0    0    0    0 -0.00000000000E+00 -0.00000000000E+00 -0.45593999997E+02  0.45594000000E+02  0.51100000000E-03 0. -1.
    9900012    2    1    2    0    0 -0.17657478262E+02 -0.30781298344E+02  0.19846681252E+02  0.50528860522E+02  0.30000002043E+02 0.  0.
         12    1    1    2    0    0  0.17657478262E+02  0.30781298344E+02 -0.19846681252E+02  0.40659139478E+02  0.00000000000E+00 0. -1.
         11    1    3    3    0    0 -0.35118985844E+00 -0.12227749232E+02  0.39481389595E+01  0.12854142799E+02  0.51100000000E-03 0. -1.
        -11    1    3    3    0    0 -0.11716749466E+02 -0.17265963914E+02  0.99188018127E-01  0.20866374061E+02  0.51100000000E-03 0.  1.
        -12    1    3    3    0    0 -0.55895389382E+01 -0.12875851987E+01  0.15799354275E+02  0.16808343663E+02  0.00000000000E+00 0.  1.
</event>
<event>
 7    1  0.3331850E-011  0.5052885E+02  0.7816164E-02  0.1300439E+00
        -11   -1    0    0    0    0  0.00000000000E+00  0.00000000000E+00  0.45593999997E+02  0.45594000000E+02  0.51100000000E-03 0. -1.
         11   -1    0    0    0    0 -0.00000000000E+00 -0.00000000000E+00 -0.45593999997E+02  0.45594000000E+02  0.51100000000E-03 0.  1.
    9900012    2    1    2    0    0 -0.29495056315E+02  0.17133110386E+02  0.22128373486E+02  0.50528846890E+02  0.29999960606E+02 0.  0.
         12    1    1    2    0    0  0.29495056315E+02 -0.17133110386E+02 -0.22128373486E+02  0.40659153110E+02  0.00000000000E+00 0. -1.
         11    1    3    3    0    0 -0.10594879957E+02  0.16458122350E+02  0.98093112160E+01  0.21893922887E+02  0.51100000000E-03 0.  1.
        -11    1    3    3    0    0 -0.19574526641E+01 -0.24279164160E+01 -0.38880098782E+01  0.49842772926E+01  0.51100000000E-03 0. -1.
         12    1    3    3    0    0 -0.16942723694E+02  0.31029044525E+01  0.16207072148E+02  0.23650646710E+02  0.00000000000E+00 0. -1.
</event>
<event>
 7    1  0.3331850E-011  0.5052886E+02  0.7816164E-02  0.1300439E+00
        -11   -1    0    0    0    0  0.00000000000E+00  0.00000000000E+00  0.45593999997E+02  0.45594000000E+02  0.51100000000E-03 0.  1.
         11   -1    0    0    0    0 -0.00000000000E+00 -0.00000000000E+00 -0.45593999997E+02  0.45594000000E+02  0.51100000000E-03 0. -1.
    9900012    2    1    2    0    0  0.31200747391E+02 -0.15697410173E+02  0.20815149122E+02  0.50528858877E+02  0.29999997041E+02 0.  0.
         12    1    1    2    0    0 -0.31200747391E+02  0.15697410173E+02 -0.20815149122E+02  0.40659141123E+02  0.00000000000E+00 0. -1.
         11    1    3    3    0    0  0.33954809241E+01  0.59638980814E+01  0.81907875673E+01  0.10685802369E+02  0.51100000000E-03 0.  1.
        -11    1    3    3    0    0  0.43070101956E+01 -0.16398178067E+01 -0.27381492161E+01  0.53606716608E+01  0.51100000000E-03 0. -1.
        -12    1    3    3    0    0  0.23498256272E+02 -0.20021490447E+02  0.15362510771E+02  0.34482384847E+02  0.00000000000E+00 0.  1.
</event>
<event>
 7    1  0.3331850E-011  0.5052886E+02  0.7816164E-02  0.1300439E+00
        -11   -1    0    0    0    0  0.00000000000E+00  0.00000000000E+00  0.45593999997E+02  0.45594000000E+02  0.51100000000E-03 0.  1.
         11   -1    0    0    0    0 -0.00000000000E+00 -0.00000000000E+00 -0.45593999997E+02  0.45594000000E+02  0.51100000000E-03 0. -1.
    9900012    2    1    2    0    0 -0.11674961976E+02  0.72024213222E+01  0.38275140965E+02  0.50528855568E+02  0.29999986985E+02 0.  0.
         12    1    1    2    0    0  0.11674961976E+02 -0.72024213222E+01 -0.38275140965E+02  0.40659144432E+02  0.00000000000E+00 0. -1.
         11    1    3    3    0    0 -0.13820808082E+02 -0.39720782238E+01  0.20817412285E+02  0.25301320043E+02  0.51100000000E-03 0. -1.
        -11    1    3    3    0    0 -0.48350328576E+01  0.48380594647E+01  0.13233515088E+02  0.14896653448E+02  0.51100000000E-03 0.  1.
         12    1    3    3    0    0  0.69808789633E+01  0.63364400813E+01  0.42242135922E+01  0.10330882076E+02  0.00000000000E+00 0. -1.
</event>
<event>
 7    1  0.4982054E-011  0.5052883E+02  0.7816164E-02  0.1300439E+00
        -11   -1    0    0    0    0  0.00000000000E+00  0.00000000000E+00  0.45593999997E+02  0.45594000000E+02  0.51100000000E-03 0. -1.
         11   -1    0    0    0    0 -0.00000000000E+00 -0.00000000000E+00 -0.45593999997E+02  0.45594000000E+02  0.51100000000E-03 0.  1.
    9900012    2    1    2    0    0 -0.34327891179E+00 -0.20623955645E+02 -0.35038583217E+02  0.50528834973E+02  0.29999924384E+02 0.  0.
         12    1    1    2    0    0  0.34327891179E+00  0.20623955645E+02  0.35038583217E+02  0.40659165027E+02  0.00000000000E+00 0. -1.
         11    1    3    3    0    0  0.37910547308E+01 -0.55203652294E+01 -0.54874753705E+01  0.86578816370E+01  0.51100000000E-03 0. -1.
        -11    1    3    3    0    0 -0.33827980334E+01 -0.21936694224E+02 -0.25821295786E+02  0.34049980798E+02  0.51100000000E-03 0.  1.
         12    1    3    3    0    0 -0.75153560921E+00  0.68331038086E+01 -0.37298120600E+01  0.78209725376E+01  0.00000000000E+00 0. -1.
</event>
<event>
 7    1  0.3331850E-011  0.5052886E+02  0.7816164E-02  0.1300439E+00
        -11   -1    0    0    0    0  0.00000000000E+00  0.00000000000E+00  0.45593999997E+02  0.45594000000E+02  0.51100000000E-03 0. -1.
         11   -1    0    0    0    0 -0.00000000000E+00 -0.00000000000E+00 -0.45593999997E+02  0.45594000000E+02  0.51100000000E-03 0.  1.
    9900012    2    1    2    0    0  0.29629677728E+02 -0.19557027591E+02 -0.19818438694E+02  0.50528860280E+02  0.30000001308E+02 0.  0.
         12    1    1    2    0    0 -0.29629677728E+02  0.19557027591E+02  0.19818438694E+02  0.40659139720E+02  0.00000000000E+00 0. -1.
         11    1    3    3    0    0 -0.18686824447E+01 -0.11618912227E+02 -0.37993563956E+01  0.12366333519E+02  0.51100000000E-03 0. -1.
        -11    1    3    3    0    0  0.20813100665E+02 -0.99103865875E+01 -0.71466479155E+01  0.24134529171E+02  0.51100000000E-03 0.  1.
        -12    1    3    3    0    0  0.10685259508E+02  0.19722712232E+01 -0.88724343832E+01  0.14027997591E+02  0.00000000000E+00 0.  1.
</event>
<event>
 7    1  0.3331850E-011  0.5052882E+02  0.7816164E-02  0.1300439E+00
        -11   -1    0    0    0    0  0.00000000000E+00  0.00000000000E+00  0.45593999997E+02  0.45594000000E+02  0.51100000000E-03 0. -1.
         11   -1    0    0    0    0 -0.00000000000E+00 -0.00000000000E+00 -0.45593999997E+02  0.45594000000E+02  0.51100000000E-03 0.  1.
    9900012    2    1    2    0    0  0.26980315818E+02  0.27429818891E+02  0.13146723723E+02  0.50528822061E+02  0.29999885138E+02 0.  0.
         12    1    1    2    0    0 -0.26980315818E+02 -0.27429818891E+02 -0.13146723723E+02  0.40659177939E+02  0.00000000000E+00 0. -1.
         11    1    3    3    0    0  0.30653711409E+01  0.10832147487E+01  0.26285381988E+01  0.41807975013E+01  0.51100000000E-03 0. -1.
        -11    1    3    3    0    0  0.39180492467E+01  0.19150350465E+02  0.14986638744E+02  0.24631004323E+02  0.51100000000E-03 0.  1.
         12    1    3    3    0    0  0.19996895430E+02  0.71962536769E+01 -0.44684532197E+01  0.21717020238E+02  0.00000000000E+00 0. -1.
</event>
<event>
 7    1  0.3331850E-011  0.5052886E+02  0.7816164E-02  0.1300439E+00
        -11   -1    0    0    0    0  0.00000000000E+00  0.00000000000E+00  0.45593999997E+02  0.45594000000E+02  0.51100000000E-03 0.  1.
         11   -1    0    0    0    0 -0.00000000000E+00 -0.00000000000E+00 -0.45593999997E+02  0.45594000000E+02  0.51100000000E-03 0. -1.
    9900012    2    1    2    0    0 -0.46356022618E+01 -0.40168040233E+02  0.42667868327E+01  0.50528859154E+02  0.29999997883E+02 0.  0.
         12    1    1    2    0    0  0.46356022618E+01  0.40168040233E+02 -0.42667868327E+01  0.40659140846E+02  0.00000000000E+00 0. -1.
         11    1    3    3    0    0  0.14004542176E+01 -0.34104489501E+01  0.79552902986E+01  0.87680715128E+01  0.51100000000E-03 0. -1.
        -11    1    3    3    0    0 -0.35876969249E+01  0.95610594879E+00  0.45739549661E+00  0.37409783095E+01  0.51100000000E-03 0.  1.
         12    1    3    3    0    0 -0.24483595545E+01 -0.37713697232E+02 -0.41458989625E+01  0.38019809331E+02  0.00000000000E+00 0. -1.
</event>
<event>
 7    1  0.3331850E-011  0.5052887E+02  0.7816164E-02  0.1300439E+00
        -11   -1    0    0    0    0  0.00000000000E+00  0.00000000000E+00  0.45593999997E+02  0.45594000000E+02  0.51100000000E-03 0.  1.
         11   -1    0    0    0    0 -0.00000000000E+00 -0.00000000000E+00 -0.45593999997E+02  0.45594000000E+02  0.51100000000E-03 0. -1.
    9900012    2    1    2    0    0  0.38208332363E+02  0.60979823343E+00  0.13889445449E+02  0.50528865592E+02  0.30000017455E+02 0.  0.
         12    1    1    2    0    0 -0.38208332363E+02 -0.60979823343E+00 -0.13889445449E+02  0.40659134408E+02  0.00000000000E+00 0. -1.
         11    1    3    3    0    0  0.21185188929E+02 -0.58272000328E+01 -0.28448331967E+01  0.22155395875E+02  0.51100000000E-03 0.  1.
        -11    1    3    3    0    0  0.11542990021E+02  0.29787992464E+01  0.17511400614E+01  0.12049081100E+02  0.51100000000E-03 0. -1.
        -12    1    3    3    0    0  0.54801534130E+01  0.34581990199E+01  0.14983138585E+02  0.16324388618E+02  0.00000000000E+00 0.  1.
</event>
<event>
 7    1  0.3331850E-011  0.5052888E+02  0.7816164E-02  0.1300439E+00
        -11   -1    0    0    0    0  0.00000000000E+00  0.00000000000E+00  0.45593999997E+02  0.45594000000E+02  0.51100000000E-03 0.  1.
         11   -1    0    0    0    0 -0.00000000000E+00 -0.00000000000E+00 -0.45593999997E+02  0.45594000000E+02  0.51100000000E-03 0. -1.
    9900012    2    1    2    0    0 -0.38133488261E+02 -0.26235513774E+01  0.13860661674E+02  0.50528881824E+02  0.30000066793E+02 0.  0.
         12    1    1    2    0    0  0.38133488261E+02  0.26235513774E+01 -0.13860661674E+02  0.40659118176E+02  0.00000000000E+00 0. -1.
         11    1    3    3    0    0 -0.40584293265E+01 -0.36416406320E+01  0.37571045947E+01  0.66217996260E+01  0.51100000000E-03 0. -1.
        -11    1    3    3    0    0 -0.34791628201E+02 -0.29858629496E+01  0.14595571933E+02  0.37847106768E+02  0.51100000000E-03 0.  1.
         12    1    3    3    0    0  0.71656926621E+00  0.40039522042E+01 -0.44920148539E+01  0.60599754302E+01  0.00000000000E+00 0. -1.
</event>
<event>
 7    1  0.3331850E-011  0.5052886E+02  0.7816164E-02  0.1300439E+00
        -11   -1    0    0    0    0  0.00000000000E+00  0.00000000000E+00  0.45593999997E+02  0.45594000000E+02  0.51100000000E-03 0.  1.
         11   -1    0    0    0    0 -0.00000000000E+00 -0.00000000000E+00 -0.45593999997E+02  0.45594000000E+02  0.51100000000E-03 0. -1.
    9900012    2    1    2    0    0 -0.61442807544E+01 -0.31644787050E+01  0.40067437864E+02  0.50528859719E+02  0.29999999601E+02 0.  0.
         12    1    1    2    0    0  0.61442807544E+01  0.31644787050E+01 -0.40067437864E+02  0.40659140281E+02  0.00000000000E+00 0. -1.
         11    1    3    3    0    0  0.10335656340E+02 -0.37941739759E+01  0.16158881703E+02  0.19553286329E+02  0.51100000000E-03 0. -1.
        -11    1    3    3    0    0 -0.16881860443E+00  0.17104971989E+01 -0.31978676758E+00  0.17483032421E+01  0.51100000000E-03 0.  1.
         12    1    3    3    0    0 -0.16311118490E+02 -0.10808019279E+01  0.24228342929E+02  0.29227270147E+02  0.00000000000E+00 0. -1.
</event>
<event>
 7    1  0.3331850E-011  0.5052885E+02  0.7816164E-02  0.1300439E+00
        -11   -1    0    0    0    0  0.00000000000E+00  0.00000000000E+00  0.45593999997E+02  0.45594000000E+02  0.51100000000E-03 0. -1.
         11   -1    0    0    0    0 -0.00000000000E+00 -0.00000000000E+00 -0.45593999997E+02  0.45594000000E+02  0.51100000000E-03 0.  1.
    9900012    2    1    2    0    0  0.38299406888E+02  0.90851594859E+01 -0.10187342800E+02  0.50528847965E+02  0.29999963875E+02 0.  0.
         12    1    1    2    0    0 -0.38299406888E+02 -0.90851594859E+01  0.10187342800E+02  0.40659152035E+02  0.00000000000E+00 0. -1.
         11    1    3    3    0    0 -0.46696731873E+00  0.42425600156E+01  0.37305770323E+01  0.56687370038E+01  0.51100000000E-03 0. -1.
        -11    1    3    3    0    0  0.16783324142E+02 -0.40865413248E+01  0.15297654709E+00  0.17274350678E+02  0.51100000000E-03 0.  1.
        -12    1    3    3    0    0  0.21983050065E+02  0.89291407950E+01 -0.14070896380E+02  0.27585760284E+02  0.00000000000E+00 0.  1.
</event>
<event>
 7    1  0.3331850E-011  0.5052886E+02  0.7816164E-02  0.1300439E+00
        -11   -1    0    0    0    0  0.00000000000E+00  0.00000000000E+00  0.45593999997E+02  0.45594000000E+02  0.51100000000E-03 0.  1.
         11   -1    0    0    0    0 -0.00000000000E+00 -0.00000000000E+00 -0.45593999997E+02  0.45594000000E+02  0.51100000000E-03 0. -1.
    9900012    2    1    2    0    0  0.43365291678E+01  0.66071809488E+00  0.40421821384E+02  0.50528859851E+02  0.30000000004E+02 0.  0.
         12    1    1    2    0    0 -0.43365291678E+01 -0.66071809488E+00 -0.40421821384E+02  0.40659140149E+02  0.00000000000E+00 0. -1.
         11    1    3    3    0    0 -0.16565056405E+00 -0.33299438022E+01  0.76791065343E+01  0.83716571395E+01  0.51100000000E-03 0. -1.
        -11    1    3    3    0    0  0.99785036530E+01  0.13124363632E+01  0.34398151143E+02  0.35840282179E+02  0.51100000000E-03 0.  1.
         12    1    3    3    0    0 -0.54763239211E+01  0.26782255339E+01 -0.16554362929E+01  0.63169205329E+01  0.00000000000E+00 0. -1.
</event>
<event>
 7    1  0.6251030E-011  0.5052885E+02  0.7816164E-02  0.1300439E+00
        -11   -1    0    0    0    0  0.00000000000E+00  0.00000000000E+00  0.45593999997E+02  0.45594000000E+02  0.51100000000E-03 0. -1.
         11   -1    0    0    0    0 -0.00000000000E+00 -0.00000000000E+00 -0.45593999997E+02  0.45594000000E+02  0.51100000000E-03 0.  1.
    9900012    2    1    2    0    0  0.33158203831E+01  0.23306061645E+02 -0.33151152953E+02  0.50528854457E+02  0.29999983607E+02 0.  0.
         12    1    1    2    0    0 -0.33158203831E+01 -0.23306061645E+02  0.33151152953E+02  0.40659145543E+02  0.00000000000E+00 0. -1.
         11    1    3    3    0    0 -0.92253676627E+01  0.62888188859E+01 -0.84528772480E+01  0.14003848954E+02  0.51100000000E-03 0. -1.
        -11    1    3    3    0    0  0.37533664257E+01  0.17695197405E+02 -0.16959223883E+02  0.24795625535E+02  0.51100000000E-03 0.  1.
         12    1    3    3    0    0  0.87878216202E+01 -0.67795464583E+00 -0.77390518217E+01  0.11729379968E+02  0.00000000000E+00 0. -1.
</event>
<event>
 7    1  0.3331850E-011  0.5052886E+02  0.7816164E-02  0.1300439E+00
        -11   -1    0    0    0    0  0.00000000000E+00  0.00000000000E+00  0.45593999997E+02  0.45594000000E+02  0.51100000000E-03 0. -1.
         11   -1    0    0    0    0 -0.00000000000E+00 -0.00000000000E+00 -0.45593999997E+02  0.45594000000E+02  0.51100000000E-03 0.  1.
    9900012    2    1    2    0    0  0.65147156303E+01  0.49038818151E+01 -0.39833105505E+02  0.50528857477E+02  0.29999992786E+02 0.  0.
         12    1    1    2    0    0 -0.65147156303E+01 -0.49038818151E+01  0.39833105505E+02  0.40659142523E+02  0.00000000000E+00 0. -1.
         11    1    3    3    0    0  0.33687143425E+01  0.11034857769E+01 -0.10632926573E+02  0.11208257891E+02  0.51100000000E-03 0. -1.
        -11    1    3    3    0    0  0.12759501738E+02 -0.30774865747E+01 -0.89951926312E+01  0.15911923170E+02  0.51100000000E-03 0.  1.
         12    1    3    3    0    0 -0.96135004505E+01  0.68778826128E+01 -0.20204986301E+02  0.23408676416E+02  0.00000000000E+00 0. -1.
</event>
<event>
 7    1  0.3331850E-011  0.5052886E+02  0.7816164E-02  0.1300439E+00
        -11   -1    0    0    0    0  0.00000000000E+00  0.00000000000E+00  0.45593999997E+02  0.45594000000E+02  0.51100000000E-03 0. -1.
         11   -1    0    0    0    0 -0.00000000000E+00 -0.00000000000E+00 -0.45593999997E+02  0.45594000000E+02  0.51100000000E-03 0.  1.
    9900012    2    1    2    0    0 -0.18812786393E+02 -0.26251613486E+02 -0.24700152736E+02  0.50528859727E+02  0.29999999628E+02 0.  0.
         12    1    1    2    0    0  0.18812786393E+02  0.26251613486E+02  0.24700152736E+02  0.40659140273E+02  0.00000000000E+00 0. -1.
         11    1    3    3    0    0 -0.55754444662E+01 -0.21547386081E+02 -0.97707929673E+01  0.24307279227E+02  0.51100000000E-03 0. -1.
        -11    1    3    3    0    0 -0.12831868843E+02 -0.42699266028E+01 -0.24691489940E+01  0.13747211652E+02  0.51100000000E-03 0.  1.
        -12    1    3    3    0    0 -0.40547308381E+00 -0.43430080226E+00 -0.12460210775E+02  0.12474368848E+02  0.00000000000E+00 0.  1.
</event>
<event>
 7    1  0.3331850E-011  0.5052889E+02  0.7816164E-02  0.1300439E+00
        -11   -1    0    0    0    0  0.00000000000E+00  0.00000000000E+00  0.45593999997E+02  0.45594000000E+02  0.51100000000E-03 0.  1.
         11   -1    0    0    0    0 -0.00000000000E+00 -0.00000000000E+00 -0.45593999997E+02  0.45594000000E+02  0.51100000000E-03 0. -1.
    9900012    2    1    2    0    0 -0.15837676987E+02 -0.83472372388E+01  0.36505539872E+02  0.50528894953E+02  0.30000106700E+02 0.  0.
         12    1    1    2    0    0  0.15837676987E+02  0.83472372388E+01 -0.36505539872E+02  0.40659105047E+02  0.00000000000E+00 0. -1.
         11    1    3    3    0    0  0.56602632893E+00  0.66674622404E+01  0.86928582247E+01  0.10970014718E+02  0.51100000000E-03 0. -1.
        -11    1    3    3    0    0  0.32432960809E+01  0.24456092534E+00  0.30693588818E+01  0.44721073021E+01  0.51100000000E-03 0.  1.
         12    1    3    3    0    0 -0.19646999397E+02 -0.15259260405E+02  0.24743322765E+02  0.35086772933E+02  0.00000000000E+00 0. -1.
</event>
<event>
 7    1  0.3331850E-011  0.5052889E+02  0.7816164E-02  0.1300439E+00
        -11   -1    0    0    0    0  0.00000000000E+00  0.00000000000E+00  0.45593999997E+02  0.45594000000E+02  0.51100000000E-03 0.  1.
         11   -1    0    0    0    0 -0.00000000000E+00 -0.00000000000E+00 -0.45593999997E+02  0.45594000000E+02  0.51100000000E-03 0. -1.
    9900012    2    1    2    0    0  0.31221565688E+02 -0.13501596801E+02  0.22272938733E+02  0.50528891795E+02  0.30000097101E+02 0.  0.
         12    1    1    2    0    0 -0.31221565688E+02  0.13501596801E+02 -0.22272938733E+02  0.40659108205E+02  0.00000000000E+00 0. -1.
         11    1    3    3    0    0  0.87367698594E+01 -0.89249305330E+01 -0.36947448477E+01  0.13024464378E+02  0.51100000000E-03 0. -1.
        -11    1    3    3    0    0  0.11075070405E+02 -0.72909446556E+01  0.64762973636E+01  0.14756608223E+02  0.51100000000E-03 0.  1.
         12    1    3    3    0    0  0.11409725424E+02  0.27142783881E+01  0.19491386217E+02  0.22747819194E+02  0.00000000000E+00 0. -1.
</event>
<event>
 7    1  0.3331850E-011  0.5052886E+02  0.7816164E-02  0.1300439E+00
        -11   -1    0    0    0    0  0.00000000000E+00  0.00000000000E+00  0.45593999997E+02  0.45594000000E+02  0.51100000000E-03 0.  1.
         11   -1    0    0    0    0 -0.00000000000E+00 -0.00000000000E+00 -0.45593999997E+02  0.45594000000E+02  0.51100000000E-03 0. -1.
    9900012    2    1    2    0    0 -0.17531587327E+02 -0.17597895992E+02  0.32188868564E+02  0.50528858875E+02  0.29999997037E+02 0.  0.
         12    1    1    2    0    0  0.17531587327E+02  0.17597895992E+02 -0.32188868564E+02  0.40659141125E+02  0.00000000000E+00 0. -1.
         11    1    3    3    0    0 -0.58068392193E+01  0.32184604219E+01  0.24026801871E+01  0.70605057573E+01  0.51100000000E-03 0. -1.
        -11    1    3    3    0    0  0.39809576720E+01  0.14562667495E+01  0.56528128150E+01  0.70656231017E+01  0.51100000000E-03 0.  1.
         12    1    3    3    0    0 -0.15705705780E+02 -0.22272623163E+02  0.24133375562E+02  0.36402730016E+02  0.00000000000E+00 0. -1.
</event>
<event>
 7    1  0.3331850E-011  0.5052888E+02  0.7816164E-02  0.1300439E+00
        -11   -1    0    0    0    0  0.00000000000E+00  0.00000000000E+00  0.45593999997E+02  0.45594000000E+02  0.51100000000E-03 0. -1.
         11   -1    0    0    0    0 -0.00000000000E+00 -0.00000000000E+00 -0.45593999997E+02  0.45594000000E+02  0.51100000000E-03 0.  1.
    9900012    2    1    2    0    0  0.25102699673E+02 -0.31873677047E+02 -0.26622112496E+01  0.50528878168E+02  0.30000055680E+02 0.  0.
         12    1    1    2    0    0 -0.25102699673E+02  0.31873677047E+02  0.26622112496E+01  0.40659121832E+02  0.00000000000E+00 0. -1.
         11    1    3    3    0    0 -0.20583351291E+01 -0.46997674154E+01  0.55919389074E+00  0.51611292690E+01  0.51100000000E-03 0. -1.
        -11    1    3    3    0    0 -0.32788101980E+01 -0.18485981646E+01 -0.43523234399E+01  0.57541837888E+01  0.51100000000E-03 0.  1.
         12    1    3    3    0    0  0.30439845000E+02 -0.25325311467E+02  0.11309182995E+01  0.39613565110E+02  0.00000000000E+00 0. -1.
</event>
<event>
 7    1  0.3331850E-011  0.5052885E+02  0.7816164E-02  0.1300439E+00
        -11   -1    0    0    0    0  0.00000000000E+00  0.00000000000E+00  0.45593999997E+02  0.45594000000E+02  0.51100000000E-03 0.  1.
         11   -1    0    0    0    0 -0.00000000000E+00 -0.00000000000E+00 -0.45593999997E+02  0.45594000000E+02  0.51100000000E-03 0. -1.
    9900012    2    1    2    0    0 -0.31436638710E+01 -0.24798864370E+02  0.32067121751E+02  0.50528848582E+02  0.29999965751E+02 0.  0.
         12    1    1    2    0    0  0.31436638710E+01  0.24798864370E+02 -0.32067121751E+02  0.40659151418E+02  0.00000000000E+00 0. -1.
         11    1    3    3    0    0  0.50610395060E+01 -0.13522349689E+01  0.18062601349E+01  0.55412305699E+01  0.51100000000E-03 0. -1.
        -11    1    3    3    0    0 -0.14544902746E+01 -0.16952150454E+02  0.45335066896E+01  0.17608055831E+02  0.51100000000E-03 0.  1.
         12    1    3    3    0    0 -0.67502131025E+01 -0.64944789468E+01  0.25727354927E+02  0.27379562182E+02  0.00000000000E+00 0. -1.
</event>
<event>
 7    1  0.3331850E-011  0.5052883E+02  0.7816164E-02  0.1300439E+00
        -11   -1    0    0    0    0  0.00000000000E+00  0.00000000000E+00  0.45593999997E+02  0.45594000000E+02  0.51100000000E-03 0.  1.
         11   -1    0    0    0    0 -0.00000000000E+00 -0.00000000000E+00 -0.45593999997E+02  0.45594000000E+02  0.51100000000E-03 0. -1.
    9900012    2    1    2    0    0 -0.23093775721E+02  0.24183051515E+02  0.23130617499E+02  0.50528832233E+02  0.29999916054E+02 0.  0.
         12    1    1    2    0    0  0.23093775721E+02 -0.24183051515E+02 -0.23130617499E+02  0.40659167767E+02  0.00000000000E+00 0. -1.
         11    1    3    3    0    0 -0.45235612258E+01 -0.24101204024E+01  0.13875211633E+02  0.14791645772E+02  0.51100000000E-03 0. -1.
        -11    1    3    3    0    0  0.12627288293E+01  0.27292464054E+00  0.13037636423E+01  0.18354214372E+01  0.51100000000E-03 0.  1.
        -12    1    3    3    0    0 -0.19832943325E+02  0.26320247277E+02  0.79516422237E+01  0.33901765023E+02  0.00000000000E+00 0.  1.
</event>
<event>
 7    1  0.3331850E-011  0.5052886E+02  0.7816164E-02  0.1300439E+00
        -11   -1    0    0    0    0  0.00000000000E+00  0.00000000000E+00  0.45593999997E+02  0.45594000000E+02  0.51100000000E-03 0.  1.
         11   -1    0    0    0    0 -0.00000000000E+00 -0.00000000000E+00 -0.45593999997E+02  0.45594000000E+02  0.51100000000E-03 0. -1.
    9900012    2    1    2    0    0 -0.23308887365E+02 -0.30542214942E+02 -0.13305428807E+02  0.50528861304E+02  0.30000004419E+02 0.  0.
         12    1    1    2    0    0  0.23308887365E+02  0.30542214942E+02  0.13305428807E+02  0.40659138696E+02  0.00000000000E+00 0. -1.
         11    1    3    3    0    0 -0.13378501172E+02 -0.27555553305E+02 -0.12919088534E+02  0.33244483157E+02  0.51100000000E-03 0. -1.
        -11    1    3    3    0    0 -0.84000615521E+01 -0.55125320060E+01 -0.54441269904E+01  0.11427491507E+02  0.51100000000E-03 0.  1.
        -12    1    3    3    0    0 -0.15303246409E+01  0.25258703692E+01  0.50577867172E+01  0.58568866393E+01  0.00000000000E+00 0.  1.
</event>
<event>
 7    1  0.3331850E-011  0.5052887E+02  0.7816164E-02  0.1300439E+00
        -11   -1    0    0    0    0  0.00000000000E+00  0.00000000000E+00  0.45593999997E+02  0.45594000000E+02  0.51100000000E-03 0.  1.
         11   -1    0    0    0    0 -0.00000000000E+00 -0.00000000000E+00 -0.45593999997E+02  0.45594000000E+02  0.51100000000E-03 0. -1.
    9900012    2    1    2    0    0  0.18609812175E+02  0.35189595392E+02  0.82784254292E+01  0.50528867439E+02  0.30000023067E+02 0.  0.
         12    1    1    2    0    0 -0.18609812175E+02 -0.35189595392E+02 -0.82784254292E+01  0.40659132561E+02  0.00000000000E+00 0. -1.
         11    1    3    3    0    0  0.14585561518E+01 -0.24213452715E+00  0.19603619521E+01  0.24554092167E+01  0.51100000000E-03 0.  1.
        -11    1    3    3    0    0  0.14923047229E+02  0.18050871507E+02  0.15700699381E+02  0.28196511523E+02  0.51100000000E-03 0. -1.
         12    1    3    3    0    0  0.22282087948E+01  0.17380858411E+02 -0.93826359040E+01  0.19876946699E+02  0.00000000000E+00 0. -1.
</event>
<event>
 7    1  0.3331850E-011  0.5052886E+02  0.7816164E-02  0.1300439E+00
        -11   -1    0    0    0    0  0.00000000000E+00  0.00000000000E+00  0.45593999997E+02  0.45594000000E+02  0.51100000000E-03 0. -1.
         11   -1    0    0    0    0 -0.00000000000E+00 -0.00000000000E+00 -0.45593999997E+02  0.45594000000E+02  0.51100000000E-03 0.  1.
    9900012    2    1    2    0    0 -0.35358304147E+02 -0.17889020153E+02  0.91070709942E+01  0.50528862574E+02  0.30000008279E+02 0.  0.
         12    1    1    2    0    0  0.35358304147E+02  0.17889020153E+02 -0.91070709942E+01  0.40659137426E+02  0.00000000000E+00 0. -1.
         11    1    3    3    0    0 -0.20484712041E+00 -0.21409490280E+01  0.77509128012E-01  0.21521229076E+01  0.51100000000E-03 0. -1.
        -11    1    3    3    0    0 -0.31004313640E+01 -0.15139472554E+02  0.34897976681E+01  0.15842821462E+02  0.51100000000E-03 0.  1.
         12    1    3    3    0    0 -0.32053025662E+02 -0.60859857065E+00  0.55397641982E+01  0.32533918204E+02  0.00000000000E+00 0. -1.
</event>
<event>
 7    1  0.3331850E-011  0.5052882E+02  0.7816164E-02  0.1300439E+00
        -11   -1    0    0    0    0  0.00000000000E+00  0.00000000000E+00  0.45593999997E+02  0.45594000000E+02  0.51100000000E-03 0. -1.
         11   -1    0    0    0    0 -0.00000000000E+00 -0.00000000000E+00 -0.45593999997E+02  0.45594000000E+02  0.51100000000E-03 0.  1.
    9900012    2    1    2    0    0 -0.17353464638E+02 -0.28783851639E+02 -0.22880475002E+02  0.50528819162E+02  0.29999876324E+02 0.  0.
         12    1    1    2    0    0  0.17353464638E+02  0.28783851639E+02  0.22880475002E+02  0.40659180838E+02  0.00000000000E+00 0. -1.
         11    1    3    3    0    0 -0.76868577180E+01 -0.21010438463E+02 -0.81428261642E+01  0.23808232277E+02  0.51100000000E-03 0. -1.
        -11    1    3    3    0    0 -0.43815650172E+01 -0.11776494116E+02 -0.25133025570E+01  0.12814078807E+02  0.51100000000E-03 0.  1.
         12    1    3    3    0    0 -0.52850419028E+01  0.40030809395E+01 -0.12224346280E+02  0.13906508077E+02  0.00000000000E+00 0. -1.
</event>
<event>
 7    1  0.3331850E-011  0.5052886E+02  0.7816164E-02  0.1300439E+00
        -11   -1    0    0    0    0  0.00000000000E+00  0.00000000000E+00  0.45593999997E+02  0.45594000000E+02  0.51100000000E-03 0.  1.
         11   -1    0    0    0    0 -0.00000000000E+00 -0.00000000000E+00 -0.45593999997E+02  0.45594000000E+02  0.51100000000E-03 0. -1.
    9900012    2    1    2    0    0  0.29549886980E+02  0.27195259252E+02  0.63551100552E+01  0.50528863633E+02  0.30000011498E+02 0.  0.
         12    1    1    2    0    0 -0.29549886980E+02 -0.27195259252E+02 -0.63551100552E+01  0.40659136367E+02  0.00000000000E+00 0. -1.
         11    1    3    3    0    0  0.96622058730E+00  0.60937529021E+01  0.47701844454E+01  0.77988503357E+01  0.51100000000E-03 0. -1.
        -11    1    3    3    0    0  0.60642088082E+00 -0.85189119729E+00  0.67182312546E+01  0.67991246751E+01  0.51100000000E-03 0.  1.
        -12    1    3    3    0    0  0.27977245512E+02  0.21953397547E+02 -0.51333056448E+01  0.35930888622E+02  0.00000000000E+00 0.  1.
</event>
<event>
 7    1  0.3331850E-011  0.5052886E+02  0.7816164E-02  0.1300439E+00
        -11   -1    0    0    0    0  0.00000000000E+00  0.00000000000E+00  0.45593999997E+02  0.45594000000E+02  0.51100000000E-03 0.  1.
         11   -1    0    0    0    0 -0.00000000000E+00 -0.00000000000E+00 -0.45593999997E+02  0.45594000000E+02  0.51100000000E-03 0. -1.
    9900012    2    1    2    0    0 -0.28185569521E+02  0.29273761412E+02 -0.13364361310E+01  0.50528862061E+02  0.30000006720E+02 0.  0.
         12    1    1    2    0    0  0.28185569521E+02 -0.29273761412E+02  0.13364361310E+01  0.40659137939E+02  0.00000000000E+00 0. -1.
         11    1    3    3    0    0  0.22480183921E+01  0.24442250570E+01  0.37178952128E+01  0.49850343925E+01  0.51100000000E-03 0. -1.
        -11    1    3    3    0    0 -0.52972101366E+01  0.38710224790E+01  0.68445372845E+01  0.94811888055E+01  0.51100000000E-03 0.  1.
        -12    1    3    3    0    0 -0.25136377776E+02  0.22958513876E+02 -0.11898868628E+02  0.36062638863E+02  0.00000000000E+00 0.  1.
</event>
<event>
 7    1  0.3331850E-011  0.5052886E+02  0.7816164E-02  0.1300439E+00
        -11   -1    0    0    0    0  0.00000000000E+00  0.00000000000E+00  0.45593999997E+02  0.45594000000E+02  0.51100000000E-03 0.  1.
         11   -1    0    0    0    0 -0.00000000000E+00 -0.00000000000E+00 -0.45593999997E+02  0.45594000000E+02  0.51100000000E-03 0. -1.
    9900012    2    1    2    0    0  0.42750931492E+01  0.19065670704E+02  0.35656546098E+02  0.50528862030E+02  0.30000006626E+02 0.  0.
         12    1    1    2    0    0 -0.42750931492E+01 -0.19065670704E+02 -0.35656546098E+02  0.40659137970E+02  0.00000000000E+00 0. -1.
         11    1    3    3    0    0  0.29290828836E+01  0.86712587521E+01  0.12802245391E+02  0.15737463017E+02  0.51100000000E-03 0.  1.
        -11    1    3    3    0    0  0.33491899572E+01  0.18029348026E+02  0.15841040734E+02  0.24232478937E+02  0.51100000000E-03 0. -1.
         12    1    3    3    0    0 -0.20031796915E+01 -0.76349360742E+01  0.70132599726E+01  0.10558920076E+02  0.00000000000E+00 0. -1.
</event>
<event>
 7    1  0.3331850E-011  0.5052886E+02  0.7816164E-02  0.1300439E+00
        -11   -1    0    0    0    0  0.00000000000E+00  0.00000000000E+00  0.45593999997E+02  0.45594000000E+02  0.51100000000E-03 0.  1.
         11   -1    0    0    0    0 -0.00000000000E+00 -0.00000000000E+00 -0.45593999997E+02  0.45594000000E+02  0.51100000000E-03 0. -1.
    9900012    2    1    2    0    0 -0.32300146022E+02 -0.37138615939E+01  0.24414615569E+02  0.50528860137E+02  0.30000000873E+02 0.  0.
         12    1    1    2    0    0  0.32300146022E+02  0.37138615939E+01 -0.24414615569E+02  0.40659139863E+02  0.00000000000E+00 0. -1.
         11    1    3    3    0    0 -0.96672044157E+01 -0.10735911671E+02  0.32547168590E+01  0.14809045301E+02  0.51100000000E-03 0. -1.
        -11    1    3    3    0    0 -0.62209011857E+01 -0.49780176388E+01  0.31792954280E+01  0.85783559529E+01  0.51100000000E-03 0.  1.
         12    1    3    3    0    0 -0.16412040421E+02  0.12000067716E+02  0.17980603282E+02  0.27141458884E+02  0.00000000000E+00 0. -1.
</event>
<event>
 7    1  0.3331850E-011  0.5052885E+02  0.7816164E-02  0.1300439E+00
        -11   -1    0    0    0    0  0.00000000000E+00  0.00000000000E+00  0.45593999997E+02  0.45594000000E+02  0.51100000000E-03 0. -1.
         11   -1    0    0    0    0 -0.00000000000E+00 -0.00000000000E+00 -0.45593999997E+02  0.45594000000E+02  0.51100000000E-03 0.  1.
    9900012    2    1    2    0    0  0.87361767502E+01 -0.39252507583E+02 -0.60071717583E+01  0.50528852834E+02  0.29999978674E+02 0.  0.
         12    1    1    2    0    0 -0.87361767502E+01  0.39252507583E+02  0.60071717583E+01  0.40659147166E+02  0.00000000000E+00 0. -1.
         11    1    3    3    0    0  0.36886907293E+00  0.69981627650E+00 -0.47200593246E+01  0.47858925502E+01  0.51100000000E-03 0. -1.
        -11    1    3    3    0    0  0.74910091851E+01 -0.21399756942E+01  0.98268825831E+00  0.78524130722E+01  0.51100000000E-03 0.  1.
        -12    1    3    3    0    0  0.87629849214E+00 -0.37812348165E+02 -0.22698006921E+01  0.37890547211E+02  0.00000000000E+00 0.  1.
</event>
<event>
 7    1  0.3331850E-011  0.5052887E+02  0.7816164E-02  0.1300439E+00
        -11   -1    0    0    0    0  0.00000000000E+00  0.00000000000E+00  0.45593999997E+02  0.45594000000E+02  0.51100000000E-03 0. -1.
         11   -1    0    0    0    0 -0.00000000000E+00 -0.00000000000E+00 -0.45593999997E+02  0.45594000000E+02  0.51100000000E-03 0.  1.
    9900012    2    1    2    0    0  0.14759655541E+01  0.99236595707E+01 -0.39401868420E+02  0.50528871522E+02  0.30000035479E+02 0.  0.
         12    1    1    2    0    0 -0.14759655541E+01 -0.99236595707E+01  0.39401868420E+02  0.40659128478E+02  0.00000000000E+00 0. -1.
         11    1    3    3    0    0  0.23071728656E+01  0.60206357002E+01 -0.40290355170E+00  0.64601418250E+01  0.51100000000E-03 0. -1.
        -11    1    3    3    0    0  0.81121560741E+01  0.62125765967E+01 -0.27387637371E+02  0.29231590192E+02  0.51100000000E-03 0.  1.
        -12    1    3    3    0    0 -0.89433633856E+01 -0.23095527263E+01 -0.11611327498E+02  0.14837139505E+02  0.00000000000E+00 0.  1.
</event>
<event>
 7    1  0.3331850E-011  0.5052886E+02  0.7816164E-02  0.1300439E+00
        -11   -1    0    0    0    0  0.00000000000E+00  0.00000000000E+00  0.45593999997E+02  0.45594000000E+02  0.51100000000E-03 0.  1.
         11   -1    0    0    0    0 -0.00000000000E+00 -0.00000000000E+00 -0.45593999997E+02  0.45594000000E+02  0.51100000000E-03 0. -1.
    9900012    2    1    2    0    0  0.40884843241E+01  0.10701765057E+02  0.39011818778E+02  0.50528862235E+02  0.30000007251E+02 0.  0.
         12    1    1    2    0    0 -0.40884843241E+01 -0.10701765057E+02 -0.39011818778E+02  0.40659137765E+02  0.00000000000E+00 0. -1.
         11    1    3    3    0    0 -0.32913075581E+01  0.66885797682E+01  0.14972857780E+02  0.16725916272E+02  0.51100000000E-03 0. -1.
        -11    1    3    3    0    0 -0.28120577044E+01  0.24714590143E+01  0.23156790875E+02  0.23457466660E+02  0.51100000000E-03 0.  1.
        -12    1    3    3    0    0  0.10191849587E+02  0.15417262748E+01  0.88217012214E+00  0.10345479304E+02  0.00000000000E+00 0.  1.
</event>
<event>
 7    1  0.3331850E-011  0.5052887E+02  0.7816164E-02  0.1300439E+00
        -11   -1    0    0    0    0  0.00000000000E+00  0.00000000000E+00  0.45593999997E+02  0.45594000000E+02  0.51100000000E-03 0.  1.
         11   -1    0    0    0    0 -0.00000000000E+00 -0.00000000000E+00 -0.45593999997E+02  0.45594000000E+02  0.51100000000E-03 0. -1.
    9900012    2    1    2    0    0  0.33274489582E+02 -0.18208826517E+02 -0.14642820562E+02  0.50528865551E+02  0.30000017330E+02 0.  0.
         12    1    1    2    0    0 -0.33274489582E+02  0.18208826517E+02  0.14642820562E+02  0.40659134449E+02  0.00000000000E+00 0. -1.
         11    1    3    3    0    0  0.48291290670E+00 -0.15153819390E+01 -0.39621004532E+01  0.42694059960E+01  0.51100000000E-03 0. -1.
        -11    1    3    3    0    0 -0.36239646266E+01 -0.37410055573E+01  0.20040310479E+01  0.55807152675E+01  0.51100000000E-03 0.  1.
        -12    1    3    3    0    0  0.36415541302E+02 -0.12952439021E+02 -0.12684751157E+02  0.40678744288E+02  0.00000000000E+00 0.  1.
</event>
<event>
 7    1  0.3331850E-011  0.5052885E+02  0.7816164E-02  0.1300439E+00
        -11   -1    0    0    0    0  0.00000000000E+00  0.00000000000E+00  0.45593999997E+02  0.45594000000E+02  0.51100000000E-03 0.  1.
         11   -1    0    0    0    0 -0.00000000000E+00 -0.00000000000E+00 -0.45593999997E+02  0.45594000000E+02  0.51100000000E-03 0. -1.
    9900012    2    1    2    0    0  0.16505619843E+02 -0.20943424711E+02  0.30693706903E+02  0.50528853815E+02  0.29999981655E+02 0.  0.
         12    1    1    2    0    0 -0.16505619843E+02  0.20943424711E+02 -0.30693706903E+02  0.40659146185E+02  0.00000000000E+00 0. -1.
         11    1    3    3    0    0 -0.24621182603E+01  0.18399996018E-01  0.70343335854E+01  0.74527990809E+01  0.51100000000E-03 0. -1.
        -11    1    3    3    0    0  0.81322754875E+01 -0.68201422431E+00 -0.22204577158E+01  0.84575103154E+01  0.51100000000E-03 0.  1.
         12    1    3    3    0    0  0.10835462616E+02 -0.20279810483E+02  0.25879831034E+02  0.34618544419E+02  0.00000000000E+00 0. -1.
</event>
<event>
 7    1  0.3331850E-011  0.5052887E+02  0.7816164E-02  0.1300439E+00
        -11   -1    0    0    0    0  0.00000000000E+00  0.00000000000E+00  0.45593999997E+02  0.45594000000E+02  0.51100000000E-03 0.  1.
         11   -1    0    0    0    0 -0.00000000000E+00 -0.00000000000E+00 -0.45593999997E+02  0.45594000000E+02  0.51100000000E-03 0. -1.
    9900012    2    1    2    0    0 -0.37342955112E+02 -0.15734523779E+02  0.33306401055E+01  0.50528871892E+02  0.30000036602E+02 0.  0.
         12    1    1    2    0    0  0.37342955112E+02  0.15734523779E+02 -0.33306401055E+01  0.40659128108E+02  0.00000000000E+00 0. -1.
         11    1    3    3    0    0 -0.12746779475E+02 -0.61943497872E+01  0.10069042274E+02  0.17384935112E+02  0.51100000000E-03 0. -1.
        -11    1    3    3    0    0 -0.24447932352E+02 -0.11738061099E+02 -0.11580426308E+01  0.27144512109E+02  0.51100000000E-03 0.  1.
         12    1    3    3    0    0 -0.14824328523E+00  0.21978871075E+01 -0.55803595380E+01  0.59994246709E+01  0.00000000000E+00 0. -1.
</event>
<event>
 7    1  0.3331850E-011  0.5052885E+02  0.7816164E-02  0.1300439E+00
        -11   -1    0    0    0    0  0.00000000000E+00  0.00000000000E+00  0.45593999997E+02  0.45594000000E+02  0.51100000000E-03 0.  1.
         11   -1    0    0    0    0 -0.00000000000E+00 -0.00000000000E+00 -0.45593999997E+02  0.45594000000E+02  0.51100000000E-03 0. -1.
    9900012    2    1    2    0    0  0.13747224449E+02 -0.30505890960E+02  0.23099162615E+02  0.50528845104E+02  0.29999955179E+02 0.  0.
         12    1    1    2    0    0 -0.13747224449E+02  0.30505890960E+02 -0.23099162615E+02  0.40659154896E+02  0.00000000000E+00 0. -1.
         11    1    3    3    0    0  0.37842635592E+01 -0.11969719941E+02 -0.14544204436E+01  0.12637649514E+02  0.51100000000E-03 0.  1.
        -11    1    3    3    0    0  0.10148047203E+02 -0.73695503367E+00  0.13621305770E+02  0.17001939180E+02  0.51100000000E-03 0. -1.
         12    1    3    3    0    0 -0.18508631370E+00 -0.17799215985E+02  0.10932277289E+02  0.20889256410E+02  0.00000000000E+00 0. -1.
</event>
<event>
 7    1  0.3331850E-011  0.5052886E+02  0.7816164E-02  0.1300439E+00
        -11   -1    0    0    0    0  0.00000000000E+00  0.00000000000E+00  0.45593999997E+02  0.45594000000E+02  0.51100000000E-03 0.  1.
         11   -1    0    0    0    0 -0.00000000000E+00 -0.00000000000E+00 -0.45593999997E+02  0.45594000000E+02  0.51100000000E-03 0. -1.
    9900012    2    1    2    0    0 -0.27161649751E+01 -0.20984276452E+02  0.34719562417E+02  0.50528862960E+02  0.30000009454E+02 0.  0.
         12    1    1    2    0    0  0.27161649751E+01  0.20984276452E+02 -0.34719562417E+02  0.40659137040E+02  0.00000000000E+00 0. -1.
         11    1    3    3    0    0  0.91818026422E+00 -0.11657779204E+02  0.21210695459E+02  0.24220662111E+02  0.51100000000E-03 0. -1.
        -11    1    3    3    0    0 -0.16852266210E+01 -0.91532221973E+01  0.18630285730E+02  0.20825681550E+02  0.51100000000E-03 0.  1.
         12    1    3    3    0    0 -0.19491186183E+01 -0.17327505065E+00 -0.51214187722E+01  0.54825192997E+01  0.00000000000E+00 0. -1.
</event>
<event>
 7    1  0.4529940E-011  0.5052886E+02  0.7816164E-02  0.1300439E+00
        -11   -1    0    0    0    0  0.00000000000E+00  0.00000000000E+00  0.45593999997E+02  0.45594000000E+02  0.51100000000E-03 0. -1.
         11   -1    0    0    0    0 -0.00000000000E+00 -0.00000000000E+00 -0.45593999997E+02  0.45594000000E+02  0.51100000000E-03 0.  1.
    9900012    2    1    2    0    0  0.14579093335E+02 -0.10660543670E+02 -0.36427577370E+02  0.50528861459E+02  0.30000004891E+02 0.  0.
         12    1    1    2    0    0 -0.14579093335E+02  0.10660543670E+02  0.36427577370E+02  0.40659138541E+02  0.00000000000E+00 0. -1.
         11    1    3    3    0    0  0.11414028563E+01  0.36316430824E+01 -0.89419141826E+01  0.97185112784E+01  0.51100000000E-03 0. -1.
        -11    1    3    3    0    0  0.55104978440E+01 -0.51070681993E+01 -0.27674274449E+02  0.28676003881E+02  0.51100000000E-03 0.  1.
         12    1    3    3    0    0  0.79271926348E+01 -0.91851185532E+01  0.18861126070E+00  0.12134346299E+02  0.00000000000E+00 0. -1.
</event>
<event>
 7    1  0.3331850E-011  0.5052885E+02  0.7816164E-02  0.1300439E+00
        -11   -1    0    0    0    0  0.00000000000E+00  0.00000000000E+00  0.45593999997E+02  0.45594000000E+02  0.51100000000E-03 0.  1.
         11   -1    0    0    0    0 -0.00000000000E+00 -0.00000000000E+00 -0.45593999997E+02  0.45594000000E+02  0.51100000000E-03 0. -1.
    9900012    2    1    2    0    0  0.57666811262E+01 -0.11705366473E+02  0.38508394089E+02  0.50528848130E+02  0.29999964377E+02 0.  0.
         12    1    1    2    0    0 -0.57666811262E+01  0.11705366473E+02 -0.38508394089E+02  0.40659151870E+02  0.00000000000E+00 0. -1.
         11    1    3    3    0    0  0.17133526950E+02 -0.95977704778E+01  0.22790150282E+02  0.30084313089E+02  0.51100000000E-03 0. -1.
        -11    1    3    3    0    0 -0.50435941539E+00 -0.56075315119E+00 -0.46974633890E+00  0.88852934701E+00  0.51100000000E-03 0.  1.
        -12    1    3    3    0    0 -0.10862486409E+02 -0.15468428436E+01  0.16187990145E+02  0.19556005694E+02  0.00000000000E+00 0.  1.
</event>
<event>
 7    1  0.3331850E-011  0.5052885E+02  0.7816164E-02  0.1300439E+00
        -11   -1    0    0    0    0  0.00000000000E+00  0.00000000000E+00  0.45593999997E+02  0.45594000000E+02  0.51100000000E-03 0.  1.
         11   -1    0    0    0    0 -0.00000000000E+00 -0.00000000000E+00 -0.45593999997E+02  0.45594000000E+02  0.51100000000E-03 0. -1.
    9900012    2    1    2    0    0 -0.16453527221E+02  0.25810150376E+02  0.26763486819E+02  0.50528847928E+02  0.29999963763E+02 0.  0.
         12    1    1    2    0    0  0.16453527221E+02 -0.25810150376E+02 -0.26763486819E+02  0.40659152072E+02  0.00000000000E+00 0. -1.
         11    1    3    3    0    0 -0.10202768068E+02  0.16420708148E+02  0.83151723432E+01  0.21044672098E+02  0.51100000000E-03 0.  1.
        -11    1    3    3    0    0  0.45663747795E+00  0.13836871799E+02  0.70639595425E+01  0.15542427856E+02  0.51100000000E-03 0. -1.
        -12    1    3    3    0    0 -0.67073966306E+01 -0.44474295706E+01  0.11384354934E+02  0.13941747975E+02  0.00000000000E+00 0.  1.
</event>
<event>
 7    1  0.3331850E-011  0.5052886E+02  0.7816164E-02  0.1300439E+00
        -11   -1    0    0    0    0  0.00000000000E+00  0.00000000000E+00  0.45593999997E+02  0.45594000000E+02  0.51100000000E-03 0.  1.
         11   -1    0    0    0    0 -0.00000000000E+00 -0.00000000000E+00 -0.45593999997E+02  0.45594000000E+02  0.51100000000E-03 0. -1.
    9900012    2    1    2    0    0 -0.11686036348E+02 -0.59478889627E+01  0.38486687451E+02  0.50528856630E+02  0.29999990213E+02 0.  0.
         12    1    1    2    0    0  0.11686036348E+02  0.59478889627E+01 -0.38486687451E+02  0.40659143370E+02  0.00000000000E+00 0. -1.
         11    1    3    3    0    0  0.10391706716E+01 -0.67941802087E+01  0.65806801534E+01  0.95155720761E+01  0.51100000000E-03 0. -1.
        -11    1    3    3    0    0 -0.31134708912E+01 -0.67049403938E+01  0.61319420730E+00  0.74179467558E+01  0.51100000000E-03 0.  1.
         12    1    3    3    0    0 -0.96117361288E+01  0.75512316398E+01  0.31292813090E+02  0.33595337798E+02  0.00000000000E+00 0. -1.
</event>
<event>
 7    1  0.3331850E-011  0.5052885E+02  0.7816164E-02  0.1300439E+00
        -11   -1    0    0    0    0  0.00000000000E+00  0.00000000000E+00  0.45593999997E+02  0.45594000000E+02  0.51100000000E-03 0.  1.
         11   -1    0    0    0    0 -0.00000000000E+00 -0.00000000000E+00 -0.45593999997E+02  0.45594000000E+02  0.51100000000E-03 0. -1.
    9900012    2    1    2    0    0 -0.29123751928E+02  0.16064810215E+02  0.23385797544E+02  0.50528848750E+02  0.29999966259E+02 0.  0.
         12    1    1    2    0    0  0.29123751928E+02 -0.16064810215E+02 -0.23385797544E+02  0.40659151250E+02  0.00000000000E+00 0. -1.
         11    1    3    3    0    0 -0.18102604142E+02  0.82326138530E+01 -0.84607356758E+00  0.19904674032E+02  0.51100000000E-03 0. -1.
        -11    1    3    3    0    0 -0.26241322050E+00  0.57047751033E+01  0.24041978077E+01  0.61962478192E+01  0.51100000000E-03 0.  1.
         12    1    3    3    0    0 -0.10758734565E+02  0.21274212586E+01  0.21827673304E+02  0.24427926898E+02  0.00000000000E+00 0. -1.
</event>
<event>
 7    1  0.3331850E-011  0.5052889E+02  0.7816164E-02  0.1300439E+00
        -11   -1    0    0    0    0  0.00000000000E+00  0.00000000000E+00  0.45593999997E+02  0.45594000000E+02  0.51100000000E-03 0.  1.
         11   -1    0    0    0    0 -0.00000000000E+00 -0.00000000000E+00 -0.45593999997E+02  0.45594000000E+02  0.51100000000E-03 0. -1.
    9900012    2    1    2    0    0 -0.56839025763E+01 -0.12899936936E+02  0.38137227328E+02  0.50528889954E+02  0.30000091504E+02 0.  0.
         12    1    1    2    0    0  0.56839025763E+01  0.12899936936E+02 -0.38137227328E+02  0.40659110046E+02  0.00000000000E+00 0. -1.
         11    1    3    3    0    0  0.26404542875E+01 -0.41273144475E+01 -0.33311486982E+01  0.59248017101E+01  0.51100000000E-03 0. -1.
        -11    1    3    3    0    0  0.90451966580E+00 -0.67123228545E+01  0.20807921048E+02  0.21882481864E+02  0.51100000000E-03 0.  1.
        -12    1    3    3    0    0 -0.92288765296E+01 -0.20602996344E+01  0.20660454978E+02  0.22721606380E+02  0.00000000000E+00 0.  1.
</event>
<event>
 7    1  0.3331850E-011  0.5052886E+02  0.7816164E-02  0.1300439E+00
        -11   -1    0    0    0    0  0.00000000000E+00  0.00000000000E+00  0.45593999997E+02  0.45594000000E+02  0.51100000000E-03 0.  1.
         11   -1    0    0    0    0 -0.00000000000E+00 -0.00000000000E+00 -0.45593999997E+02  0.45594000000E+02  0.51100000000E-03 0. -1.
    9900012    2    1    2    0    0 -0.61921725462E+01 -0.33700346807E+02 -0.21888565995E+02  0.50528859612E+02  0.29999999278E+02 0.  0.
         12    1    1    2    0    0  0.61921725462E+01  0.33700346807E+02  0.21888565995E+02  0.40659140388E+02  0.00000000000E+00 0. -1.
         11    1    3    3    0    0  0.28551257691E+01  0.67082269676E+00  0.31387573720E+01  0.42957588793E+01  0.51100000000E-03 0. -1.
        -11    1    3    3    0    0  0.28625176911E+01 -0.11485381056E+01 -0.21657206561E+00  0.30919332193E+01  0.51100000000E-03 0.  1.
        -12    1    3    3    0    0 -0.11909816006E+02 -0.33222631398E+02 -0.24810751302E+02  0.43141167514E+02  0.00000000000E+00 0.  1.
</event>
<event>
 7    1  0.3331850E-011  0.5052886E+02  0.7816164E-02  0.1300439E+00
        -11   -1    0    0    0    0  0.00000000000E+00  0.00000000000E+00  0.45593999997E+02  0.45594000000E+02  0.51100000000E-03 0.  1.
         11   -1    0    0    0    0 -0.00000000000E+00 -0.00000000000E+00 -0.45593999997E+02  0.45594000000E+02  0.51100000000E-03 0. -1.
    9900012    2    1    2    0    0  0.23202223132E+02  0.23546438311E+02  0.23672510891E+02  0.50528859732E+02  0.29999999642E+02 0.  0.
         12    1    1    2    0    0 -0.23202223132E+02 -0.23546438311E+02 -0.23672510891E+02  0.40659140268E+02  0.00000000000E+00 0. -1.
         11    1    3    3    0    0 -0.67501795456E+00 -0.18973733375E+01  0.39615496028E+01  0.44440466174E+01  0.51100000000E-03 0.  1.
        -11    1    3    3    0    0  0.48217997606E+01  0.13064019824E+02 -0.26822699280E+01  0.14181429375E+02  0.51100000000E-03 0. -1.
         12    1    3    3    0    0  0.19055441326E+02  0.12379791825E+02  0.22393231216E+02  0.31903383740E+02  0.00000000000E+00 0. -1.
</event>
<event>
 7    1  0.3331850E-011  0.5052886E+02  0.7816164E-02  0.1300439E+00
        -11   -1    0    0    0    0  0.00000000000E+00  0.00000000000E+00  0.45593999997E+02  0.45594000000E+02  0.51100000000E-03 0.  1.
         11   -1    0    0    0    0 -0.00000000000E+00 -0.00000000000E+00 -0.45593999997E+02  0.45594000000E+02  0.51100000000E-03 0. -1.
    9900012    2    1    2    0    0 -0.35163585837E+02 -0.72114235820E+01  0.19096681909E+02  0.50528860082E+02  0.30000000704E+02 0.  0.
         12    1    1    2    0    0  0.35163585837E+02  0.72114235820E+01 -0.19096681909E+02  0.40659139918E+02  0.00000000000E+00 0. -1.
         11    1    3    3    0    0 -0.11154936912E+02 -0.87875164865E+01 -0.28275111900E+01  0.14479222469E+02  0.51100000000E-03 0. -1.
        -11    1    3    3    0    0 -0.14487969392E+02  0.30569143142E+01  0.34344987217E+01  0.15200058025E+02  0.51100000000E-03 0.  1.
        -12    1    3    3    0    0 -0.95206795320E+01 -0.14808214097E+01  0.18489694377E+02  0.20849579587E+02  0.00000000000E+00 0.  1.
</event>
<event>
 7    1  0.3331850E-011  0.5052888E+02  0.7816164E-02  0.1300439E+00
        -11   -1    0    0    0    0  0.00000000000E+00  0.00000000000E+00  0.45593999997E+02  0.45594000000E+02  0.51100000000E-03 0.  1.
         11   -1    0    0    0    0 -0.00000000000E+00 -0.00000000000E+00 -0.45593999997E+02  0.45594000000E+02  0.51100000000E-03 0. -1.
    9900012    2    1    2    0    0  0.14662339873E+01 -0.29857873345E+02  0.27559416380E+02  0.50528882031E+02  0.30000067422E+02 0.  0.
         12    1    1    2    0    0 -0.14662339873E+01  0.29857873345E+02 -0.27559416380E+02  0.40659117969E+02  0.00000000000E+00 0. -1.
         11    1    3    3    0    0  0.38121595879E+01 -0.11636004350E+02 -0.62485925986E+00  0.12260489685E+02  0.51100000000E-03 0. -1.
        -11    1    3    3    0    0 -0.45145302603E+01 -0.19368283341E+02  0.15137720550E+02  0.24993238421E+02  0.51100000000E-03 0.  1.
        -12    1    3    3    0    0  0.21686046597E+01  0.11464143465E+01  0.13046555090E+02  0.13275153925E+02  0.00000000000E+00 0.  1.
</event>
<event>
 7    1  0.4046596E-011  0.5052887E+02  0.7816164E-02  0.1300439E+00
        -11   -1    0    0    0    0  0.00000000000E+00  0.00000000000E+00  0.45593999997E+02  0.45594000000E+02  0.51100000000E-03 0. -1.
         11   -1    0    0    0    0 -0.00000000000E+00 -0.00000000000E+00 -0.45593999997E+02  0.45594000000E+02  0.51100000000E-03 0.  1.
    9900012    2    1    2    0    0  0.35860541225E+01  0.40175177514E+02  0.51244695954E+01  0.50528869892E+02  0.30000030525E+02 0.  0.
         12    1    1    2    0    0 -0.35860541225E+01 -0.40175177514E+02 -0.51244695954E+01  0.40659130108E+02  0.00000000000E+00 0. -1.
         11    1    3    3    0    0  0.54176541927E+01  0.20295168453E+02  0.29799880371E+01  0.21216153479E+02  0.51100000000E-03 0.  1.
        -11    1    3    3    0    0 -0.11227926224E+01  0.24514702954E+02  0.15976216474E+01  0.24592350831E+02  0.51100000000E-03 0. -1.
         12    1    3    3    0    0 -0.70880744775E+00 -0.46346938923E+01  0.54685991094E+00  0.47203655828E+01  0.00000000000E+00 0. -1.
</event>
<event>
 7    1  0.3331850E-011  0.5052886E+02  0.7816164E-02  0.1300439E+00
        -11   -1    0    0    0    0  0.00000000000E+00  0.00000000000E+00  0.45593999997E+02  0.45594000000E+02  0.51100000000E-03 0.  1.
         11   -1    0    0    0    0 -0.00000000000E+00 -0.00000000000E+00 -0.45593999997E+02  0.45594000000E+02  0.51100000000E-03 0. -1.
    9900012    2    1    2    0    0  0.91788295570E+01  0.38844649250E+02  0.77464830501E+01  0.50528859736E+02  0.29999999653E+02 0.  0.
         12    1    1    2    0    0 -0.91788295570E+01 -0.38844649250E+02 -0.77464830501E+01  0.40659140264E+02  0.00000000000E+00 0. -1.
         11    1    3    3    0    0 -0.24722243187E+01 -0.25870544694E+00  0.60642482714E+01  0.65539246981E+01  0.51100000000E-03 0. -1.
        -11    1    3    3    0    0  0.90261640934E+01  0.73483807777E+01  0.32142813792E+01  0.12074847549E+02  0.51100000000E-03 0.  1.
        -12    1    3    3    0    0  0.26248897823E+01  0.31754973919E+02 -0.15320466005E+01  0.31900087488E+02  0.00000000000E+00 0.  1.
</event>
<event>
 7    1  0.3331850E-011  0.5052884E+02  0.7816164E-02  0.1300439E+00
        -11   -1    0    0    0    0  0.00000000000E+00  0.00000000000E+00  0.45593999997E+02  0.45594000000E+02  0.51100000000E-03 0.  1.
         11   -1    0    0    0    0 -0.00000000000E+00 -0.00000000000E+00 -0.45593999997E+02  0.45594000000E+02  0.51100000000E-03 0. -1.
    9900012    2    1    2    0    0  0.29421488284E+02  0.10614364300E+02  0.25978431135E+02  0.50528836376E+02  0.29999928650E+02 0.  0.
         12    1    1    2    0    0 -0.29421488284E+02 -0.10614364300E+02 -0.25978431135E+02  0.40659163624E+02  0.00000000000E+00 0. -1.
         11    1    3    3    0    0  0.34215680100E+01  0.66970377370E+01  0.18756943816E+01  0.77508497452E+01  0.51100000000E-03 0. -1.
        -11    1    3    3    0    0  0.19070423011E+02  0.12538936114E+02  0.10165602851E+02  0.24984904128E+02  0.51100000000E-03 0.  1.
        -12    1    3    3    0    0  0.69294972627E+01 -0.86216095510E+01  0.13937133903E+02  0.17793082504E+02  0.00000000000E+00 0.  1.
</event>
<event>
 7    1  0.3331850E-011  0.5052886E+02  0.7816164E-02  0.1300439E+00
        -11   -1    0    0    0    0  0.00000000000E+00  0.00000000000E+00  0.45593999997E+02  0.45594000000E+02  0.51100000000E-03 0.  1.
         11   -1    0    0    0    0 -0.00000000000E+00 -0.00000000000E+00 -0.45593999997E+02  0.45594000000E+02  0.51100000000E-03 0. -1.
    9900012    2    1    2    0    0  0.30811801037E+02 -0.20961007445E+02  0.16261439368E+02  0.50528864168E+02  0.30000013125E+02 0.  0.
         12    1    1    2    0    0 -0.30811801037E+02  0.20961007445E+02 -0.16261439368E+02  0.40659135832E+02  0.00000000000E+00 0. -1.
         11    1    3    3    0    0  0.19122356464E+00  0.11052595266E+01 -0.43340655952E+01  0.44768616147E+01  0.51100000000E-03 0. -1.
        -11    1    3    3    0    0  0.93432314114E+01 -0.18066219792E+01  0.12245726470E+02  0.15508632217E+02  0.51100000000E-03 0.  1.
         12    1    3    3    0    0  0.21277346061E+02 -0.20259644993E+02  0.83497784931E+01  0.30543370337E+02  0.00000000000E+00 0. -1.
</event>
<event>
 7    1  0.3331850E-011  0.5052887E+02  0.7816164E-02  0.1300439E+00
        -11   -1    0    0    0    0  0.00000000000E+00  0.00000000000E+00  0.45593999997E+02  0.45594000000E+02  0.51100000000E-03 0.  1.
         11   -1    0    0    0    0 -0.00000000000E+00 -0.00000000000E+00 -0.45593999997E+02  0.45594000000E+02  0.51100000000E-03 0. -1.
    9900012    2    1    2    0    0  0.10368444869E+02 -0.37341624398E+02  0.12298928870E+02  0.50528865565E+02  0.30000017371E+02 0.  0.
         12    1    1    2    0    0 -0.10368444869E+02  0.37341624398E+02 -0.12298928870E+02  0.40659134435E+02  0.00000000000E+00 0. -1.
         11    1    3    3    0    0 -0.17705344911E+01 -0.17330900407E+02  0.33978396222E+01  0.17749372261E+02  0.51100000000E-03 0. -1.
        -11    1    3    3    0    0  0.13584102386E+01 -0.10737832847E+02  0.13979661608E+02  0.17679854965E+02  0.51100000000E-03 0.  1.
        -12    1    3    3    0    0  0.10780569121E+02 -0.92728911444E+01 -0.50785723610E+01  0.15099638339E+02  0.00000000000E+00 0.  1.
</event>
<event>
 7    1  0.3331850E-011  0.5052883E+02  0.7816164E-02  0.1300439E+00
        -11   -1    0    0    0    0  0.00000000000E+00  0.00000000000E+00  0.45593999997E+02  0.45594000000E+02  0.51100000000E-03 0.  1.
         11   -1    0    0    0    0 -0.00000000000E+00 -0.00000000000E+00 -0.45593999997E+02  0.45594000000E+02  0.51100000000E-03 0. -1.
    9900012    2    1    2    0    0  0.28425673656E+02  0.93572695837E+01  0.27524365767E+02  0.50528829722E+02  0.29999908422E+02 0.  0.
         12    1    1    2    0    0 -0.28425673656E+02 -0.93572695837E+01 -0.27524365767E+02  0.40659170278E+02  0.00000000000E+00 0. -1.
         11    1    3    3    0    0  0.15054749629E+02  0.21787048187E+01 -0.13101349620E+00  0.15212146656E+02  0.51100000000E-03 0. -1.
        -11    1    3    3    0    0  0.10360494228E+02  0.56868838684E+01  0.57282831371E+01  0.13133686335E+02  0.51100000000E-03 0.  1.
        -12    1    3    3    0    0  0.30104297988E+01  0.14916808967E+01  0.21927096126E+02  0.22182996731E+02  0.00000000000E+00 0.  1.
</event>
<event>
 7    1  0.3331850E-011  0.5052886E+02  0.7816164E-02  0.1300439E+00
        -11   -1    0    0    0    0  0.00000000000E+00  0.00000000000E+00  0.45593999997E+02  0.45594000000E+02  0.51100000000E-03 0.  1.
         11   -1    0    0    0    0 -0.00000000000E+00 -0.00000000000E+00 -0.45593999997E+02  0.45594000000E+02  0.51100000000E-03 0. -1.
    9900012    2    1    2    0    0 -0.36041696356E+02 -0.18124013388E+02  0.50677241572E+01  0.50528861228E+02  0.30000004190E+02 0.  0.
         12    1    1    2    0    0  0.36041696356E+02  0.18124013388E+02 -0.50677241572E+01  0.40659138772E+02  0.00000000000E+00 0. -1.
         11    1    3    3    0    0 -0.26529542111E+02 -0.19330995458E+02  0.37073436567E+01  0.33034048908E+02  0.51100000000E-03 0. -1.
        -11    1    3    3    0    0 -0.51343961297E+01 -0.65046267671E+01 -0.92264292443E+00  0.83380731121E+01  0.51100000000E-03 0.  1.
         12    1    3    3    0    0 -0.43777581156E+01  0.77116088368E+01  0.22830234250E+01  0.91567392084E+01  0.00000000000E+00 0. -1.
</event>
<event>
 7    1  0.3331850E-011  0.5052886E+02  0.7816164E-02  0.1300439E+00
        -11   -1    0    0    0    0  0.00000000000E+00  0.00000000000E+00  0.45593999997E+02  0.45594000000E+02  0.51100000000E-03 0. -1.
         11   -1    0    0    0    0 -0.00000000000E+00 -0.00000000000E+00 -0.45593999997E+02  0.45594000000E+02  0.51100000000E-03 0.  1.
    9900012    2    1    2    0    0  0.91744087713E+01 -0.35555570806E+02 -0.17458448407E+02  0.50528858193E+02  0.29999994965E+02 0.  0.
         12    1    1    2    0    0 -0.91744087713E+01  0.35555570806E+02  0.17458448407E+02  0.40659141807E+02  0.00000000000E+00 0. -1.
         11    1    3    3    0    0  0.81610177850E+01 -0.51975236209E+01 -0.37420759643E+01  0.10373986498E+02  0.51100000000E-03 0. -1.
        -11    1    3    3    0    0  0.79834235076E+01 -0.30731677624E+01  0.57727851677E+00  0.85739525159E+01  0.51100000000E-03 0.  1.
         12    1    3    3    0    0 -0.69700325213E+01 -0.27284879423E+02 -0.14293650960E+02  0.31580919180E+02  0.00000000000E+00 0. -1.
</event>
<event>
 7    1  0.3331850E-011  0.5052886E+02  0.7816164E-02  0.1300439E+00
        -11   -1    0    0    0    0  0.00000000000E+00  0.00000000000E+00  0.45593999997E+02  0.45594000000E+02  0.51100000000E-03 0.  1.
         11   -1    0    0    0    0 -0.00000000000E+00 -0.00000000000E+00 -0.45593999997E+02  0.45594000000E+02  0.51100000000E-03 0. -1.
    9900012    2    1    2    0    0  0.15700878004E+02 -0.17370433321E+02 -0.33240280762E+02  0.50528858482E+02  0.29999995843E+02 0.  0.
         12    1    1    2    0    0 -0.15700878004E+02  0.17370433321E+02  0.33240280762E+02  0.40659141518E+02  0.00000000000E+00 0. -1.
         11    1    3    3    0    0 -0.57990790326E+00 -0.24751463910E+01 -0.55450783402E+01  0.61000440075E+01  0.51100000000E-03 0. -1.
        -11    1    3    3    0    0  0.13754125556E+02 -0.18248584782E+02 -0.31396238962E+02  0.38831825061E+02  0.51100000000E-03 0.  1.
        -12    1    3    3    0    0  0.25266603512E+01  0.33532978521E+01  0.37010365411E+01  0.55969894134E+01  0.00000000000E+00 0.  1.
</event>
<event>
 7    1  0.3331850E-011  0.5052885E+02  0.7816164E-02  0.1300439E+00
        -11   -1    0    0    0    0  0.00000000000E+00  0.00000000000E+00  0.45593999997E+02  0.45594000000E+02  0.51100000000E-03 0. -1.
         11   -1    0    0    0    0 -0.00000000000E+00 -0.00000000000E+00 -0.45593999997E+02  0.45594000000E+02  0.51100000000E-03 0.  1.
    9900012    2    1    2    0    0 -0.14311942515E+02 -0.10540482229E+02 -0.36568192410E+02  0.50528853916E+02  0.29999981963E+02 0.  0.
         12    1    1    2    0    0  0.14311942515E+02  0.10540482229E+02  0.36568192410E+02  0.40659146084E+02  0.00000000000E+00 0. -1.
         11    1    3    3    0    0 -0.14710670996E+02 -0.68230184581E+01 -0.33267721990E+02  0.37009441346E+02  0.51100000000E-03 0. -1.
        -11    1    3    3    0    0 -0.53159407554E+01 -0.35845929112E+00 -0.42598607160E+01  0.68215931248E+01  0.51100000000E-03 0.  1.
         12    1    3    3    0    0  0.57146692369E+01 -0.33590044797E+01  0.95939029642E+00  0.66978194453E+01  0.00000000000E+00 0. -1.
</event>
<event>
 7    1  0.3331850E-011  0.5052880E+02  0.7816164E-02  0.1300439E+00
        -11   -1    0    0    0    0  0.00000000000E+00  0.00000000000E+00  0.45593999997E+02  0.45594000000E+02  0.51100000000E-03 0. -1.
         11   -1    0    0    0    0 -0.00000000000E+00 -0.00000000000E+00 -0.45593999997E+02  0.45594000000E+02  0.51100000000E-03 0.  1.
    9900012    2    1    2    0    0  0.19067941948E+02  0.34568611662E+02  0.97260014928E+01  0.50528801442E+02  0.29999822463E+02 0.  0.
         12    1    1    2    0    0 -0.19067941948E+02 -0.34568611662E+02 -0.97260014928E+01  0.40659198558E+02  0.00000000000E+00 0. -1.
         11    1    3    3    0    0  0.11632146016E+02  0.74965346523E+01 -0.29937537960E+01  0.14158651588E+02  0.51100000000E-03 0. -1.
        -11    1    3    3    0    0  0.67633468730E+01  0.49256058257E+00 -0.25328460897E+00  0.67859877841E+01  0.51100000000E-03 0.  1.
         12    1    3    3    0    0  0.67244905831E+00  0.26579516427E+02  0.12973039898E+02  0.29584162070E+02  0.00000000000E+00 0. -1.
</event>
<event>
 7    1  0.3331850E-011  0.5052883E+02  0.7816164E-02  0.1300439E+00
        -11   -1    0    0    0    0  0.00000000000E+00  0.00000000000E+00  0.45593999997E+02  0.45594000000E+02  0.51100000000E-03 0. -1.
         11   -1    0    0    0    0 -0.00000000000E+00 -0.00000000000E+00 -0.45593999997E+02  0.45594000000E+02  0.51100000000E-03 0.  1.
    9900012    2    1    2    0    0 -0.17420613261E+02  0.34595944650E+02 -0.12361663489E+02  0.50528832807E+02  0.29999917799E+02 0.  0.
         12    1    1    2    0    0  0.17420613261E+02 -0.34595944650E+02  0.12361663489E+02  0.40659167193E+02  0.00000000000E+00 0. -1.
         11    1    3    3    0    0 -0.14151401517E+02  0.32179902292E+02 -0.11195247242E+02  0.36893655789E+02  0.51100000000E-03 0. -1.
        -11    1    3    3    0    0 -0.49673697343E-01  0.75048147883E+01 -0.18365846475E-01  0.75050016688E+01  0.51100000000E-03 0.  1.
        -12    1    3    3    0    0 -0.32195380468E+01 -0.50887724304E+01 -0.11480504006E+01  0.61301753486E+01  0.00000000000E+00 0.  1.
</event>
<event>
 7    1  0.3331850E-011  0.5052886E+02  0.7816164E-02  0.1300439E+00
        -11   -1    0    0    0    0  0.00000000000E+00  0.00000000000E+00  0.45593999997E+02  0.45594000000E+02  0.51100000000E-03 0. -1.
         11   -1    0    0    0    0 -0.00000000000E+00 -0.00000000000E+00 -0.45593999997E+02  0.45594000000E+02  0.51100000000E-03 0.  1.
    9900012    2    1    2    0    0  0.35273610204E+02 -0.64435505221E+01  0.19168170448E+02  0.50528859841E+02  0.29999999973E+02 0.  0.
         12    1    1    2    0    0 -0.35273610204E+02  0.64435505221E+01 -0.19168170448E+02  0.40659140159E+02  0.00000000000E+00 0. -1.
         11    1    3    3    0    0  0.96507848442E+01  0.19365559149E+01  0.13297279182E+02  0.16544048200E+02  0.51100000000E-03 0. -1.
        -11    1    3    3    0    0  0.25717064351E+02 -0.12221379039E+02  0.20201027316E+01  0.28544882549E+02  0.51100000000E-03 0.  1.
         12    1    3    3    0    0 -0.94238991006E-01  0.38412726023E+01  0.38507885341E+01  0.54399290920E+01  0.00000000000E+00 0. -1.
</event>
<event>
 7    1  0.3331850E-011  0.5052886E+02  0.7816164E-02  0.1300439E+00
        -11   -1    0    0    0    0  0.00000000000E+00  0.00000000000E+00  0.45593999997E+02  0.45594000000E+02  0.51100000000E-03 0.  1.
         11   -1    0    0    0    0 -0.00000000000E+00 -0.00000000000E+00 -0.45593999997E+02  0.45594000000E+02  0.51100000000E-03 0. -1.
    9900012    2    1    2    0    0  0.68081965483E+01  0.37767263774E+02  0.13433094493E+02  0.50528858582E+02  0.29999996145E+02 0.  0.
         12    1    1    2    0    0 -0.68081965483E+01 -0.37767263774E+02 -0.13433094493E+02  0.40659141418E+02  0.00000000000E+00 0. -1.
         11    1    3    3    0    0  0.39230290284E+01  0.15979892340E+02  0.99764244347E+01  0.19242561179E+02  0.51100000000E-03 0. -1.
        -11    1    3    3    0    0  0.28149140927E+00  0.23879715246E+02  0.84040121807E+01  0.25316940152E+02  0.51100000000E-03 0.  1.
         12    1    3    3    0    0  0.26036761106E+01 -0.20923438123E+01 -0.49473421221E+01  0.59693572511E+01  0.00000000000E+00 0. -1.
</event>
<event>
 7    1  0.3331850E-011  0.5052885E+02  0.7816164E-02  0.1300439E+00
        -11   -1    0    0    0    0  0.00000000000E+00  0.00000000000E+00  0.45593999997E+02  0.45594000000E+02  0.51100000000E-03 0.  1.
         11   -1    0    0    0    0 -0.00000000000E+00 -0.00000000000E+00 -0.45593999997E+02  0.45594000000E+02  0.51100000000E-03 0. -1.
    9900012    2    1    2    0    0  0.76698918994E+01 -0.45035040420E+01  0.39674392026E+02  0.50528853759E+02  0.29999981487E+02 0.  0.
         12    1    1    2    0    0 -0.76698918994E+01  0.45035040420E+01 -0.39674392026E+02  0.40659146241E+02  0.00000000000E+00 0. -1.
         11    1    3    3    0    0 -0.29242874286E+01  0.13349862894E+01  0.13489130043E+02  0.13866876899E+02  0.51100000000E-03 0. -1.
        -11    1    3    3    0    0  0.11280993110E+02 -0.82328815581E+01  0.29427533925E+02  0.32573315727E+02  0.51100000000E-03 0.  1.
         12    1    3    3    0    0 -0.68681378156E+00  0.23943912267E+01 -0.32422719420E+01  0.40886611333E+01  0.00000000000E+00 0. -1.
</event>
<event>
 7    1  0.3331850E-011  0.5052886E+02  0.7816164E-02  0.1300439E+00
        -11   -1    0    0    0    0  0.00000000000E+00  0.00000000000E+00  0.45593999997E+02  0.45594000000E+02  0.51100000000E-03 0.  1.
         11   -1    0    0    0    0 -0.00000000000E+00 -0.00000000000E+00 -0.45593999997E+02  0.45594000000E+02  0.51100000000E-03 0. -1.
    9900012    2    1    2    0    0  0.81085693518E+01  0.12717620854E+01  0.39822095659E+02  0.50528861072E+02  0.30000003713E+02 0.  0.
         12    1    1    2    0    0 -0.81085693518E+01 -0.12717620854E+01 -0.39822095659E+02  0.40659138928E+02  0.00000000000E+00 0. -1.
         11    1    3    3    0    0 -0.38939840893E+01 -0.28989168759E+01  0.81474698325E+01  0.94840970089E+01  0.51100000000E-03 0. -1.
        -11    1    3    3    0    0  0.17240540458E+01 -0.85326573447E+01  0.16921695780E+02  0.19029513710E+02  0.51100000000E-03 0.  1.
         12    1    3    3    0    0  0.10278499395E+02  0.12703336306E+02  0.14752930046E+02  0.22015250352E+02  0.00000000000E+00 0. -1.
</event>
<event>
 7    1  0.3331850E-011  0.5052887E+02  0.7816164E-02  0.1300439E+00
        -11   -1    0    0    0    0  0.00000000000E+00  0.00000000000E+00  0.45593999997E+02  0.45594000000E+02  0.51100000000E-03 0. -1.
         11   -1    0    0    0    0 -0.00000000000E+00 -0.00000000000E+00 -0.45593999997E+02  0.45594000000E+02  0.51100000000E-03 0.  1.
    9900012    2    1    2    0    0 -0.21808984185E+02 -0.38028159330E+01 -0.34103835229E+02  0.50528870920E+02  0.30000033650E+02 0.  0.
         12    1    1    2    0    0  0.21808984185E+02  0.38028159330E+01  0.34103835229E+02  0.40659129080E+02  0.00000000000E+00 0. -1.
         11    1    3    3    0    0 -0.15468274670E+02 -0.44108023860E+01 -0.56551512243E+01  0.17050027407E+02  0.51100000000E-03 0. -1.
        -11    1    3    3    0    0 -0.10603119279E+02 -0.12073269994E+01 -0.10610286779E+02  0.15048653186E+02  0.51100000000E-03 0.  1.
        -12    1    3    3    0    0  0.42624097639E+01  0.18153134524E+01 -0.17838397226E+02  0.18430190327E+02  0.00000000000E+00 0.  1.
</event>
<event>
 7    1  0.3331850E-011  0.5052885E+02  0.7816164E-02  0.1300439E+00
        -11   -1    0    0    0    0  0.00000000000E+00  0.00000000000E+00  0.45593999997E+02  0.45594000000E+02  0.51100000000E-03 0.  1.
         11   -1    0    0    0    0 -0.00000000000E+00 -0.00000000000E+00 -0.45593999997E+02  0.45594000000E+02  0.51100000000E-03 0. -1.
    9900012    2    1    2    0    0  0.83104143238E+00  0.59151135224E+01  0.40217995569E+02  0.50528851393E+02  0.29999974295E+02 0.  0.
         12    1    1    2    0    0 -0.83104143238E+00 -0.59151135224E+01 -0.40217995569E+02  0.40659148607E+02  0.00000000000E+00 0. -1.
         11    1    3    3    0    0 -0.24787013551E+00  0.58909087265E+01  0.49881396490E+01  0.77230682146E+01  0.51100000000E-03 0. -1.
        -11    1    3    3    0    0  0.23528456855E+00  0.11693963246E+02  0.23437490907E+02  0.26193894623E+02  0.51100000000E-03 0.  1.
        -12    1    3    3    0    0  0.84362699934E+00 -0.11669758450E+02  0.11792365013E+02  0.16611888556E+02  0.00000000000E+00 0.  1.
</event>
<event>
 7    1  0.3331850E-011  0.5052887E+02  0.7816164E-02  0.1300439E+00
        -11   -1    0    0    0    0  0.00000000000E+00  0.00000000000E+00  0.45593999997E+02  0.45594000000E+02  0.51100000000E-03 0. -1.
         11   -1    0    0    0    0 -0.00000000000E+00 -0.00000000000E+00 -0.45593999997E+02  0.45594000000E+02  0.51100000000E-03 0.  1.
    9900012    2    1    2    0    0  0.62966673640E+01  0.10922795484E+02 -0.38655008638E+02  0.50528866047E+02  0.30000018835E+02 0.  0.
         12    1    1    2    0    0 -0.62966673640E+01 -0.10922795484E+02  0.38655008638E+02  0.40659133953E+02  0.00000000000E+00 0. -1.
         11    1    3    3    0    0  0.96650651211E+01  0.13371540323E+02 -0.15393546360E+02  0.22564858612E+02  0.51100000000E-03 0. -1.
        -11    1    3    3    0    0  0.52809192370E+01 -0.41262322814E+01 -0.95966299132E+01  0.11705093198E+02  0.51100000000E-03 0.  1.
        -12    1    3    3    0    0 -0.86493169941E+01  0.16774874423E+01 -0.13664832364E+02  0.16258914236E+02  0.00000000000E+00 0.  1.
</event>
<event>
 7    1  0.3331850E-011  0.5052886E+02  0.7816164E-02  0.1300439E+00
        -11   -1    0    0    0    0  0.00000000000E+00  0.00000000000E+00  0.45593999997E+02  0.45594000000E+02  0.51100000000E-03 0. -1.
         11   -1    0    0    0    0 -0.00000000000E+00 -0.00000000000E+00 -0.45593999997E+02  0.45594000000E+02  0.51100000000E-03 0.  1.
    9900012    2    1    2    0    0  0.31964155034E+02  0.25029627061E+02  0.22307166977E+01  0.50528861608E+02  0.30000005343E+02 0.  0.
         12    1    1    2    0    0 -0.31964155034E+02 -0.25029627061E+02 -0.22307166977E+01  0.40659138392E+02  0.00000000000E+00 0. -1.
         11    1    3    3    0    0  0.23111311505E+00 -0.19329851970E+01  0.15244294691E+01  0.24725959054E+01  0.51100000000E-03 0. -1.
        -11    1    3    3    0    0  0.28148706209E+02  0.24233815586E+02 -0.82340811896E+01  0.38045072906E+02  0.51100000000E-03 0.  1.
         12    1    3    3    0    0  0.35843357094E+01  0.27287966711E+01  0.89403684181E+01  0.10011192796E+02  0.00000000000E+00 0. -1.
</event>
<event>
 7    1  0.3331850E-011  0.5052886E+02  0.7816164E-02  0.1300439E+00
        -11   -1    0    0    0    0  0.00000000000E+00  0.00000000000E+00  0.45593999997E+02  0.45594000000E+02  0.51100000000E-03 0.  1.
         11   -1    0    0    0    0 -0.00000000000E+00 -0.00000000000E+00 -0.45593999997E+02  0.45594000000E+02  0.51100000000E-03 0. -1.
    9900012    2    1    2    0    0 -0.39786391110E+02  0.25232396909E+01  0.79901134071E+01  0.50528861196E+02  0.30000004090E+02 0.  0.
         12    1    1    2    0    0  0.39786391110E+02 -0.25232396909E+01 -0.79901134071E+01  0.40659138804E+02  0.00000000000E+00 0. -1.
         11    1    3    3    0    0 -0.27550089140E+01  0.19464083201E+01 -0.29780751585E+00  0.33863356364E+01  0.51100000000E-03 0.  1.
        -11    1    3    3    0    0 -0.21834390633E+02 -0.13195735793E+02  0.15675489942E+01  0.25560228237E+02  0.51100000000E-03 0. -1.
         12    1    3    3    0    0 -0.15196991563E+02  0.13772567164E+02  0.67203719288E+01  0.21582297322E+02  0.00000000000E+00 0. -1.
</event>
<event>
 7    1  0.3331850E-011  0.5052886E+02  0.7816164E-02  0.1300439E+00
        -11   -1    0    0    0    0  0.00000000000E+00  0.00000000000E+00  0.45593999997E+02  0.45594000000E+02  0.51100000000E-03 0. -1.
         11   -1    0    0    0    0 -0.00000000000E+00 -0.00000000000E+00 -0.45593999997E+02  0.45594000000E+02  0.51100000000E-03 0.  1.
    9900012    2    1    2    0    0  0.31489038470E+02 -0.79276935747E+01 -0.24469525166E+02  0.50528861654E+02  0.30000005484E+02 0.  0.
         12    1    1    2    0    0 -0.31489038470E+02  0.79276935747E+01  0.24469525166E+02  0.40659138346E+02  0.00000000000E+00 0. -1.
         11    1    3    3    0    0  0.17929977194E+02  0.52919336120E+01 -0.34811129358E+01  0.19015961481E+02  0.51100000000E-03 0. -1.
        -11    1    3    3    0    0  0.69985676786E+01  0.15897552111E+01 -0.80297376155E+01  0.10769584840E+02  0.51100000000E-03 0.  1.
         12    1    3    3    0    0  0.65604935978E+01 -0.14809382398E+02 -0.12958674615E+02  0.20743315333E+02  0.00000000000E+00 0. -1.
</event>
<event>
 7    1  0.3331850E-011  0.5052886E+02  0.7816164E-02  0.1300439E+00
        -11   -1    0    0    0    0  0.00000000000E+00  0.00000000000E+00  0.45593999997E+02  0.45594000000E+02  0.51100000000E-03 0.  1.
         11   -1    0    0    0    0 -0.00000000000E+00 -0.00000000000E+00 -0.45593999997E+02  0.45594000000E+02  0.51100000000E-03 0. -1.
    9900012    2    1    2    0    0  0.31145476422E+01  0.20320360734E+02  0.35079165525E+02  0.50528864234E+02  0.30000013325E+02 0.  0.
         12    1    1    2    0    0 -0.31145476422E+01 -0.20320360734E+02 -0.35079165525E+02  0.40659135766E+02  0.00000000000E+00 0. -1.
         11    1    3    3    0    0  0.28411560303E+01  0.22735902266E+02  0.26962161520E+02  0.35382927713E+02  0.51100000000E-03 0.  1.
        -11    1    3    3    0    0 -0.40362681275E+00  0.51583771065E+01  0.30091533437E+01  0.59855470162E+01  0.51100000000E-03 0. -1.
        -12    1    3    3    0    0  0.67701842470E+00 -0.75739186391E+01  0.51078506612E+01  0.91603895046E+01  0.00000000000E+00 0.  1.
</event>
<event>
 7    1  0.3331850E-011  0.5052885E+02  0.7816164E-02  0.1300439E+00
        -11   -1    0    0    0    0  0.00000000000E+00  0.00000000000E+00  0.45593999997E+02  0.45594000000E+02  0.51100000000E-03 0. -1.
         11   -1    0    0    0    0 -0.00000000000E+00 -0.00000000000E+00 -0.45593999997E+02  0.45594000000E+02  0.51100000000E-03 0.  1.
    9900012    2    1    2    0    0  0.17012998260E+02  0.31594151384E+02 -0.19118946459E+02  0.50528848199E+02  0.29999964586E+02 0.  0.
         12    1    1    2    0    0 -0.17012998260E+02 -0.31594151384E+02  0.19118946459E+02  0.40659151801E+02  0.00000000000E+00 0. -1.
         11    1    3    3    0    0  0.45368919943E+01  0.53383698473E+01 -0.14973290628E+02  0.16531213327E+02  0.51100000000E-03 0. -1.
        -11    1    3    3    0    0  0.79234993185E+01  0.17855003138E+02 -0.10831095046E+02  0.22335970959E+02  0.51100000000E-03 0.  1.
         12    1    3    3    0    0  0.45526069469E+01  0.84007783987E+01  0.66854392154E+01  0.11661663913E+02  0.00000000000E+00 0. -1.
</event>
<event>
 7    1  0.3331850E-011  0.5052886E+02  0.7816164E-02  0.1300439E+00
        -11   -1    0    0    0    0  0.00000000000E+00  0.00000000000E+00  0.45593999997E+02  0.45594000000E+02  0.51100000000E-03 0.  1.
         11   -1    0    0    0    0 -0.00000000000E+00 -0.00000000000E+00 -0.45593999997E+02  0.45594000000E+02  0.51100000000E-03 0. -1.
    9900012    2    1    2    0    0  0.21325414852E+02 -0.45257990717E+01  0.34320686839E+02  0.50528859319E+02  0.29999998385E+02 0.  0.
         12    1    1    2    0    0 -0.21325414852E+02  0.45257990717E+01 -0.34320686839E+02  0.40659140681E+02  0.00000000000E+00 0. -1.
         11    1    3    3    0    0  0.60207177681E+01  0.14935534311E+01  0.73922273544E+00  0.62470949095E+01  0.51100000000E-03 0. -1.
        -11    1    3    3    0    0  0.49316779138E+01 -0.81656673822E+01  0.50744347433E+00  0.95528566399E+01  0.51100000000E-03 0.  1.
         12    1    3    3    0    0  0.10373019170E+02  0.21463148794E+01  0.33074020629E+02  0.34728907769E+02  0.00000000000E+00 0. -1.
</event>
<event>
 7    1  0.3331850E-011  0.5052887E+02  0.7816164E-02  0.1300439E+00
        -11   -1    0    0    0    0  0.00000000000E+00  0.00000000000E+00  0.45593999997E+02  0.45594000000E+02  0.51100000000E-03 0.  1.
         11   -1    0    0    0    0 -0.00000000000E+00 -0.00000000000E+00 -0.45593999997E+02  0.45594000000E+02  0.51100000000E-03 0. -1.
    9900012    2    1    2    0    0  0.22813467298E+02 -0.13210795650E+02  0.30954576505E+02  0.50528865498E+02  0.30000017168E+02 0.  0.
         12    1    1    2    0    0 -0.22813467298E+02  0.13210795650E+02 -0.30954576505E+02  0.40659134502E+02  0.00000000000E+00 0. -1.
         11    1    3    3    0    0  0.11846967389E+02 -0.68139088912E+01  0.23530286859E+02  0.27211291601E+02  0.51100000000E-03 0. -1.
        -11    1    3    3    0    0  0.18877621105E+01 -0.74471541522E+00  0.11644927349E+02  0.11820430620E+02  0.51100000000E-03 0.  1.
         12    1    3    3    0    0  0.90787377983E+01 -0.56521713432E+01 -0.42206377025E+01  0.11497143276E+02  0.00000000000E+00 0. -1.
</event>
<event>
 7    1  0.3331850E-011  0.5052887E+02  0.7816164E-02  0.1300439E+00
        -11   -1    0    0    0    0  0.00000000000E+00  0.00000000000E+00  0.45593999997E+02  0.45594000000E+02  0.51100000000E-03 0.  1.
         11   -1    0    0    0    0 -0.00000000000E+00 -0.00000000000E+00 -0.45593999997E+02  0.45594000000E+02  0.51100000000E-03 0. -1.
    9900012    2    1    2    0    0 -0.26028452013E+02  0.11528098978E+02  0.29030796336E+02  0.50528874135E+02  0.30000043419E+02 0.  0.
         12    1    1    2    0    0  0.26028452013E+02 -0.11528098978E+02 -0.29030796336E+02  0.40659125865E+02  0.00000000000E+00 0. -1.
         11    1    3    3    0    0  0.23504475346E+01 -0.21659164635E+01 -0.12933660981E+01  0.34479840291E+01  0.51100000000E-03 0. -1.
        -11    1    3    3    0    0 -0.16695611421E+02  0.82581018044E+01  0.60252382855E+01  0.19576597835E+02  0.51100000000E-03 0.  1.
        -12    1    3    3    0    0 -0.11683288127E+02  0.54359136368E+01  0.24298924149E+02  0.27504292271E+02  0.00000000000E+00 0.  1.
</event>
<event>
 7    1  0.3331850E-011  0.5052886E+02  0.7816164E-02  0.1300439E+00
        -11   -1    0    0    0    0  0.00000000000E+00  0.00000000000E+00  0.45593999997E+02  0.45594000000E+02  0.51100000000E-03 0. -1.
         11   -1    0    0    0    0 -0.00000000000E+00 -0.00000000000E+00 -0.45593999997E+02  0.45594000000E+02  0.51100000000E-03 0.  1.
    9900012    2    1    2    0    0  0.93945610433E+01  0.29255174846E+02 -0.26627858388E+02  0.50528857426E+02  0.29999992633E+02 0.  0.
         12    1    1    2    0    0 -0.93945610433E+01 -0.29255174846E+02  0.26627858388E+02  0.40659142574E+02  0.00000000000E+00 0. -1.
         11    1    3    3    0    0 -0.68725196470E+00  0.18155642438E-01  0.13411450699E+01  0.15070883352E+01  0.51100000000E-03 0. -1.
        -11    1    3    3    0    0  0.56400398515E+01  0.18103595487E+02 -0.40714653486E+00  0.18966180102E+02  0.51100000000E-03 0.  1.
        -12    1    3    3    0    0  0.44417731565E+01  0.11133423716E+02 -0.27561856924E+02  0.30055588989E+02  0.00000000000E+00 0.  1.
</event>
<event>
 7    1  0.3331850E-011  0.5052886E+02  0.7816164E-02  0.1300439E+00
        -11   -1    0    0    0    0  0.00000000000E+00  0.00000000000E+00  0.45593999997E+02  0.45594000000E+02  0.51100000000E-03 0. -1.
         11   -1    0    0    0    0 -0.00000000000E+00 -0.00000000000E+00 -0.45593999997E+02  0.45594000000E+02  0.51100000000E-03 0.  1.
    9900012    2    1    2    0    0  0.34741544201E+02  0.14403801915E+02 -0.15450595884E+02  0.50528864295E+02  0.30000013512E+02 0.  0.
         12    1    1    2    0    0 -0.34741544201E+02 -0.14403801915E+02  0.15450595884E+02  0.40659135705E+02  0.00000000000E+00 0. -1.
         11    1    3    3    0    0  0.99563359823E+01  0.72888974788E+01 -0.90116374699E+00  0.12372095579E+02  0.51100000000E-03 0. -1.
        -11    1    3    3    0    0  0.22840909467E+02  0.93292457885E+00 -0.70519890929E+00  0.22870828567E+02  0.51100000000E-03 0.  1.
        -12    1    3    3    0    0  0.19442987513E+01  0.61819798578E+01 -0.13844233228E+02  0.15285940150E+02  0.00000000000E+00 0.  1.
</event>
<event>
 7    1  0.3331850E-011  0.5052885E+02  0.7816164E-02  0.1300439E+00
        -11   -1    0    0    0    0  0.00000000000E+00  0.00000000000E+00  0.45593999997E+02  0.45594000000E+02  0.51100000000E-03 0.  1.
         11   -1    0    0    0    0 -0.00000000000E+00 -0.00000000000E+00 -0.45593999997E+02  0.45594000000E+02  0.51100000000E-03 0. -1.
    9900012    2    1    2    0    0  0.53652483804E+00  0.20841864959E+02  0.34906955890E+02  0.50528846500E+02  0.29999959421E+02 0.  0.
         12    1    1    2    0    0 -0.53652483804E+00 -0.20841864959E+02 -0.34906955890E+02  0.40659153500E+02  0.00000000000E+00 0. -1.
         11    1    3    3    0    0  0.23916374626E+01 -0.85068131320E+00 -0.26622923957E+01  0.36785037054E+01  0.51100000000E-03 0. -1.
        -11    1    3    3    0    0 -0.89796458658E+00 -0.71675946411E+00 -0.14461891865E+01  0.18470376153E+01  0.51100000000E-03 0.  1.
        -12    1    3    3    0    0 -0.95714803799E+00  0.22409305736E+02  0.39015437472E+02  0.45003305179E+02  0.00000000000E+00 0.  1.
</event>
<event>
 7    1  0.3331850E-011  0.5052886E+02  0.7816164E-02  0.1300439E+00
        -11   -1    0    0    0    0  0.00000000000E+00  0.00000000000E+00  0.45593999997E+02  0.45594000000E+02  0.51100000000E-03 0. -1.
         11   -1    0    0    0    0 -0.00000000000E+00 -0.00000000000E+00 -0.45593999997E+02  0.45594000000E+02  0.51100000000E-03 0.  1.
    9900012    2    1    2    0    0  0.69936776125E+01  0.20721620478E+02  0.34276357151E+02  0.50528859069E+02  0.29999997625E+02 0.  0.
         12    1    1    2    0    0 -0.69936776125E+01 -0.20721620478E+02 -0.34276357151E+02  0.40659140931E+02  0.00000000000E+00 0. -1.
         11    1    3    3    0    0 -0.18134673283E+01  0.42081770747E+01  0.13452520337E+02  0.14211534813E+02  0.51100000000E-03 0. -1.
        -11    1    3    3    0    0  0.67653839679E+01  0.14669883176E+02  0.25910714912E+02  0.30534260105E+02  0.51100000000E-03 0.  1.
        -12    1    3    3    0    0  0.20417609730E+01  0.18435602270E+01 -0.50868780989E+01  0.57830641510E+01  0.00000000000E+00 0.  1.
</event>
<event>
 7    1  0.3331850E-011  0.5052886E+02  0.7816164E-02  0.1300439E+00
        -11   -1    0    0    0    0  0.00000000000E+00  0.00000000000E+00  0.45593999997E+02  0.45594000000E+02  0.51100000000E-03 0. -1.
         11   -1    0    0    0    0 -0.00000000000E+00 -0.00000000000E+00 -0.45593999997E+02  0.45594000000E+02  0.51100000000E-03 0.  1.
    9900012    2    1    2    0    0  0.15234892606E+02 -0.15868482093E+02 -0.34194368251E+02  0.50528862075E+02  0.30000006765E+02 0.  0.
         12    1    1    2    0    0 -0.15234892606E+02  0.15868482093E+02  0.34194368251E+02  0.40659137925E+02  0.00000000000E+00 0. -1.
         11    1    3    3    0    0  0.17505107942E+01 -0.13451010990E+01 -0.10841543970E+02  0.11064025530E+02  0.51100000000E-03 0. -1.
        -11    1    3    3    0    0 -0.57194387604E+01  0.18075516189E+01 -0.78172273422E+01  0.98533378187E+01  0.51100000000E-03 0.  1.
         12    1    3    3    0    0  0.19203820573E+02 -0.16330932613E+02 -0.15535596938E+02  0.29611498727E+02  0.00000000000E+00 0. -1.
</event>
<event>
 7    1  0.3331850E-011  0.5052887E+02  0.7816164E-02  0.1300439E+00
        -11   -1    0    0    0    0  0.00000000000E+00  0.00000000000E+00  0.45593999997E+02  0.45594000000E+02  0.51100000000E-03 0.  1.
         11   -1    0    0    0    0 -0.00000000000E+00 -0.00000000000E+00 -0.45593999997E+02  0.45594000000E+02  0.51100000000E-03 0. -1.
    9900012    2    1    2    0    0  0.28920637093E+02  0.15916892275E+01  0.28534684402E+02  0.50528868942E+02  0.30000027638E+02 0.  0.
         12    1    1    2    0    0 -0.28920637093E+02 -0.15916892275E+01 -0.28534684402E+02  0.40659131058E+02  0.00000000000E+00 0. -1.
         11    1    3    3    0    0  0.19588237959E+02 -0.89705258225E+00  0.17199762215E+02  0.26083243476E+02  0.51100000000E-03 0. -1.
        -11    1    3    3    0    0  0.15146699625E+02  0.57945176928E+00  0.10066051273E+02  0.18195704503E+02  0.51100000000E-03 0.  1.
         12    1    3    3    0    0 -0.58143004911E+01  0.19092900405E+01  0.12688709134E+01  0.62499209638E+01  0.00000000000E+00 0. -1.
</event>
<event>
 7    1  0.3331850E-011  0.5052887E+02  0.7816164E-02  0.1300439E+00
        -11   -1    0    0    0    0  0.00000000000E+00  0.00000000000E+00  0.45593999997E+02  0.45594000000E+02  0.51100000000E-03 0. -1.
         11   -1    0    0    0    0 -0.00000000000E+00 -0.00000000000E+00 -0.45593999997E+02  0.45594000000E+02  0.51100000000E-03 0.  1.
    9900012    2    1    2    0    0  0.89180102225E+01  0.73164695465E+01 -0.38988505743E+02  0.50528865565E+02  0.30000017372E+02 0.  0.
         12    1    1    2    0    0 -0.89180102225E+01 -0.73164695465E+01  0.38988505743E+02  0.40659134435E+02  0.00000000000E+00 0. -1.
         11    1    3    3    0    0  0.76157126015E+01 -0.14982320743E+01 -0.30410132433E+02  0.31385027205E+02  0.51100000000E-03 0. -1.
        -11    1    3    3    0    0  0.23924700248E+01 -0.15641899776E+01 -0.82187716510E+01  0.87016556366E+01  0.51100000000E-03 0.  1.
         12    1    3    3    0    0 -0.10901724038E+01  0.10378891599E+02 -0.35960165836E+00  0.10442182724E+02  0.00000000000E+00 0. -1.
</event>
<event>
 7    1  0.3331850E-011  0.5052887E+02  0.7816164E-02  0.1300439E+00
        -11   -1    0    0    0    0  0.00000000000E+00  0.00000000000E+00  0.45593999997E+02  0.45594000000E+02  0.51100000000E-03 0. -1.
         11   -1    0    0    0    0 -0.00000000000E+00 -0.00000000000E+00 -0.45593999997E+02  0.45594000000E+02  0.51100000000E-03 0.  1.
    9900012    2    1    2    0    0  0.22584342645E+02  0.27319490430E+02  0.19918775931E+02  0.50528871570E+02  0.30000035625E+02 0.  0.
         12    1    1    2    0    0 -0.22584342645E+02 -0.27319490430E+02 -0.19918775931E+02  0.40659128430E+02  0.00000000000E+00 0. -1.
         11    1    3    3    0    0 -0.11477934186E+00 -0.65017331099E+00 -0.22742243377E+01  0.23681208227E+01  0.51100000000E-03 0. -1.
        -11    1    3    3    0    0 -0.40151162965E+01  0.77842978664E+01  0.17544547514E+01  0.89327802997E+01  0.51100000000E-03 0.  1.
         12    1    3    3    0    0  0.26714238284E+02  0.20185365875E+02  0.20438545517E+02  0.39227970448E+02  0.00000000000E+00 0. -1.
</event>
<event>
 7    1  0.3331850E-011  0.5052886E+02  0.7816164E-02  0.1300439E+00
        -11   -1    0    0    0    0  0.00000000000E+00  0.00000000000E+00  0.45593999997E+02  0.45594000000E+02  0.51100000000E-03 0.  1.
         11   -1    0    0    0    0 -0.00000000000E+00 -0.00000000000E+00 -0.45593999997E+02  0.45594000000E+02  0.51100000000E-03 0. -1.
    9900012    2    1    2    0    0 -0.14955549109E+02  0.19905826534E+01  0.37756255976E+02  0.50528859160E+02  0.29999997904E+02 0.  0.
         12    1    1    2    0    0  0.14955549109E+02 -0.19905826534E+01 -0.37756255976E+02  0.40659140840E+02  0.00000000000E+00 0. -1.
         11    1    3    3    0    0  0.28314447855E+00 -0.14516098193E+00  0.88421984172E+01  0.88479215422E+01  0.51100000000E-03 0. -1.
        -11    1    3    3    0    0 -0.95179925013E+01  0.22200865525E+01  0.33150936940E+02  0.34561620127E+02  0.51100000000E-03 0.  1.
         12    1    3    3    0    0 -0.57207010867E+01 -0.84342917183E-01 -0.42368793806E+01  0.71193174910E+01  0.00000000000E+00 0. -1.
</event>
<event>
 7    1  0.3331850E-011  0.5052889E+02  0.7816164E-02  0.1300439E+00
        -11   -1    0    0    0    0  0.00000000000E+00  0.00000000000E+00  0.45593999997E+02  0.45594000000E+02  0.51100000000E-03 0.  1.
         11   -1    0    0    0    0 -0.00000000000E+00 -0.00000000000E+00 -0.45593999997E+02  0.45594000000E+02  0.51100000000E-03 0. -1.
    9900012    2    1    2    0    0 -0.13969696819E+02  0.95139912056E+01  0.36979651726E+02  0.50528891554E+02  0.30000096367E+02 0.  0.
         12    1    1    2    0    0  0.13969696819E+02 -0.95139912056E+01 -0.36979651726E+02  0.40659108446E+02  0.00000000000E+00 0. -1.
         11    1    3    3    0    0 -0.18131345508E+01  0.76745472357E+01  0.85228202420E+01  0.11611399455E+02  0.51100000000E-03 0. -1.
        -11    1    3    3    0    0 -0.12595603407E+02  0.28007386741E+01  0.32379066918E+02  0.34855377448E+02  0.51100000000E-03 0.  1.
        -12    1    3    3    0    0  0.43904113872E+00 -0.96129470421E+00 -0.39222354345E+01  0.40621146505E+01  0.00000000000E+00 0.  1.
</event>
<event>
 7    1  0.3331850E-011  0.5052886E+02  0.7816164E-02  0.1300439E+00
        -11   -1    0    0    0    0  0.00000000000E+00  0.00000000000E+00  0.45593999997E+02  0.45594000000E+02  0.51100000000E-03 0. -1.
         11   -1    0    0    0    0 -0.00000000000E+00 -0.00000000000E+00 -0.45593999997E+02  0.45594000000E+02  0.51100000000E-03 0.  1.
    9900012    2    1    2    0    0 -0.28793000481E+02 -0.10122408409E+02 -0.26863838357E+02  0.50528857855E+02  0.29999993936E+02 0.  0.
         12    1    1    2    0    0  0.28793000481E+02  0.10122408409E+02  0.26863838357E+02  0.40659142145E+02  0.00000000000E+00 0. -1.
         11    1    3    3    0    0  0.15578838903E+01  0.44300348372E+01 -0.39789051833E+01  0.61549896501E+01  0.51100000000E-03 0. -1.
        -11    1    3    3    0    0 -0.15849806278E+02  0.18171689011E+01 -0.74548067052E+01  0.17609446474E+02  0.51100000000E-03 0.  1.
        -12    1    3    3    0    0 -0.14501078093E+02 -0.16369612148E+02 -0.15430126468E+02  0.26764421731E+02  0.00000000000E+00 0.  1.
</event>
<event>
 7    1  0.3331850E-011  0.5052887E+02  0.7816164E-02  0.1300439E+00
        -11   -1    0    0    0    0  0.00000000000E+00  0.00000000000E+00  0.45593999997E+02  0.45594000000E+02  0.51100000000E-03 0.  1.
         11   -1    0    0    0    0 -0.00000000000E+00 -0.00000000000E+00 -0.45593999997E+02  0.45594000000E+02  0.51100000000E-03 0. -1.
    9900012    2    1    2    0    0  0.22815120196E+02  0.17087957127E+02  0.28993740468E+02  0.50528868496E+02  0.30000026281E+02 0.  0.
         12    1    1    2    0    0 -0.22815120196E+02 -0.17087957127E+02 -0.28993740468E+02  0.40659131504E+02  0.00000000000E+00 0. -1.
         11    1    3    3    0    0 -0.18011907010E+01  0.47163193106E+00  0.78807022613E+01  0.80976658990E+01  0.51100000000E-03 0. -1.
        -11    1    3    3    0    0  0.66746013217E+01 -0.11897141831E+01  0.14946418070E+02  0.16412225200E+02  0.51100000000E-03 0.  1.
         12    1    3    3    0    0  0.17941709576E+02  0.17806039379E+02  0.61666201364E+01  0.26018977397E+02  0.00000000000E+00 0. -1.
</event>
<event>
 7    1  0.3331850E-011  0.5052889E+02  0.7816164E-02  0.1300439E+00
        -11   -1    0    0    0    0  0.00000000000E+00  0.00000000000E+00  0.45593999997E+02  0.45594000000E+02  0.51100000000E-03 0. -1.
         11   -1    0    0    0    0 -0.00000000000E+00 -0.00000000000E+00 -0.45593999997E+02  0.45594000000E+02  0.51100000000E-03 0.  1.
    9900012    2    1    2    0    0 -0.24236886213E+02 -0.22714400069E+02 -0.23447652646E+02  0.50528892307E+02  0.30000098656E+02 0.  0.
         12    1    1    2    0    0  0.24236886213E+02  0.22714400069E+02  0.23447652646E+02  0.40659107693E+02  0.00000000000E+00 0. -1.
         11    1    3    3    0    0 -0.13304022964E+02 -0.37966800230E+01 -0.60405555516E+01  0.15096361080E+02  0.51100000000E-03 0. -1.
        -11    1    3    3    0    0 -0.16856237963E+02 -0.99086394791E+01 -0.80088642603E+01  0.21129500742E+02  0.51100000000E-03 0.  1.
         12    1    3    3    0    0  0.59233747142E+01 -0.90090805669E+01 -0.93982328342E+01  0.14303030486E+02  0.00000000000E+00 0. -1.
</event>
<event>
 7    1  0.3331850E-011  0.5052886E+02  0.7816164E-02  0.1300439E+00
        -11   -1    0    0    0    0  0.00000000000E+00  0.00000000000E+00  0.45593999997E+02  0.45594000000E+02  0.51100000000E-03 0.  1.
         11   -1    0    0    0    0 -0.00000000000E+00 -0.00000000000E+00 -0.45593999997E+02  0.45594000000E+02  0.51100000000E-03 0. -1.
    9900012    2    1    2    0    0 -0.29493769215E+02  0.27960859303E+02 -0.12139183856E+01  0.50528859904E+02  0.30000000165E+02 0.  0.
         12    1    1    2    0    0  0.29493769215E+02 -0.27960859303E+02  0.12139183856E+01  0.40659140096E+02  0.00000000000E+00 0. -1.
         11    1    3    3    0    0 -0.72009507684E+01 -0.98868585023E+00  0.59209712566E+01  0.93749182696E+01  0.51100000000E-03 0. -1.
        -11    1    3    3    0    0 -0.53047114018E+01 -0.13786934178E+01 -0.27008800478E+01  0.61102791991E+01  0.51100000000E-03 0.  1.
        -12    1    3    3    0    0 -0.16988107045E+02  0.30328238571E+02 -0.44340095944E+01  0.35043662435E+02  0.00000000000E+00 0.  1.
</event>
<event>
 7    1  0.3331850E-011  0.5052887E+02  0.7816164E-02  0.1300439E+00
        -11   -1    0    0    0    0  0.00000000000E+00  0.00000000000E+00  0.45593999997E+02  0.45594000000E+02  0.51100000000E-03 0.  1.
         11   -1    0    0    0    0 -0.00000000000E+00 -0.00000000000E+00 -0.45593999997E+02  0.45594000000E+02  0.51100000000E-03 0. -1.
    9900012    2    1    2    0    0  0.70837937396E+01 -0.30031125805E+02  0.26478597698E+02  0.50528870805E+02  0.30000033298E+02 0.  0.
         12    1    1    2    0    0 -0.70837937396E+01  0.30031125805E+02 -0.26478597698E+02  0.40659129195E+02  0.00000000000E+00 0. -1.
         11    1    3    3    0    0  0.31368927948E+01 -0.79851289381E+01  0.11246195788E+01  0.86525805412E+01  0.51100000000E-03 0. -1.
        -11    1    3    3    0    0  0.14346553734E+02 -0.13663318762E+02  0.17126419846E+02  0.26188244321E+02  0.51100000000E-03 0.  1.
         12    1    3    3    0    0 -0.10399652789E+02 -0.83826781049E+01  0.82275582731E+01  0.15688045942E+02  0.00000000000E+00 0. -1.
</event>
<event>
 7    1  0.3331850E-011  0.5052887E+02  0.7816164E-02  0.1300439E+00
        -11   -1    0    0    0    0  0.00000000000E+00  0.00000000000E+00  0.45593999997E+02  0.45594000000E+02  0.51100000000E-03 0.  1.
         11   -1    0    0    0    0 -0.00000000000E+00 -0.00000000000E+00 -0.45593999997E+02  0.45594000000E+02  0.51100000000E-03 0. -1.
    9900012    2    1    2    0    0  0.17265085504E+02  0.13684332327E+02  0.34173397800E+02  0.50528865161E+02  0.30000016143E+02 0.  0.
         12    1    1    2    0    0 -0.17265085504E+02 -0.13684332327E+02 -0.34173397800E+02  0.40659134839E+02  0.00000000000E+00 0. -1.
         11    1    3    3    0    0  0.35158297294E+01 -0.91897782585E+00  0.15653733084E+02  0.16070001203E+02  0.51100000000E-03 0. -1.
        -11    1    3    3    0    0  0.11897762386E+02  0.84050941859E+01  0.22543620211E+02  0.26840588118E+02  0.51100000000E-03 0.  1.
         12    1    3    3    0    0  0.18514933882E+01  0.61982159669E+01 -0.40239554953E+01  0.76182758396E+01  0.00000000000E+00 0. -1.
</event>
<event>
 7    1  0.3331850E-011  0.5052886E+02  0.7816164E-02  0.1300439E+00
        -11   -1    0    0    0    0  0.00000000000E+00  0.00000000000E+00  0.45593999997E+02  0.45594000000E+02  0.51100000000E-03 0.  1.
         11   -1    0    0    0    0 -0.00000000000E+00 -0.00000000000E+00 -0.45593999997E+02  0.45594000000E+02  0.51100000000E-03 0. -1.
    9900012    2    1    2    0    0 -0.19815232100E+02  0.10769501635E+02  0.33831057382E+02  0.50528855491E+02  0.29999986750E+02 0.  0.
         12    1    1    2    0    0  0.19815232100E+02 -0.10769501635E+02 -0.33831057382E+02  0.40659144509E+02  0.00000000000E+00 0. -1.
         11    1    3    3    0    0 -0.27817149982E+00 -0.31503952014E+01  0.53719626671E+01  0.62338072208E+01  0.51100000000E-03 0. -1.
        -11    1    3    3    0    0 -0.13835671039E+02 -0.44598792700E+01  0.14409925770E+02  0.20468568029E+02  0.51100000000E-03 0.  1.
         12    1    3    3    0    0 -0.57013895609E+01  0.18379776106E+02  0.14049168945E+02  0.23826480241E+02  0.00000000000E+00 0. -1.
</event>
<event>
 7    1  0.3331850E-011  0.5052885E+02  0.7816164E-02  0.1300439E+00
        -11   -1    0    0    0    0  0.00000000000E+00  0.00000000000E+00  0.45593999997E+02  0.45594000000E+02  0.51100000000E-03 0. -1.
         11   -1    0    0    0    0 -0.00000000000E+00 -0.00000000000E+00 -0.45593999997E+02  0.45594000000E+02  0.51100000000E-03 0.  1.
    9900012    2    1    2    0    0 -0.63799090687E+01  0.38911221582E+02 -0.99186716540E+01  0.50528850328E+02  0.29999971056E+02 0.  0.
         12    1    1    2    0    0  0.63799090687E+01 -0.38911221582E+02  0.99186716540E+01  0.40659149672E+02  0.00000000000E+00 0. -1.
         11    1    3    3    0    0  0.37998443361E+01  0.57300641535E+01  0.34808738795E+01  0.77064216993E+01  0.51100000000E-03 0. -1.
        -11    1    3    3    0    0  0.35907214564E+01  0.20326541412E+02 -0.12130493463E+02  0.23941813596E+02  0.51100000000E-03 0.  1.
         12    1    3    3    0    0 -0.13770474861E+02  0.12854616016E+02 -0.12690520702E+01  0.18880615032E+02  0.00000000000E+00 0. -1.
</event>
<event>
 7    1  0.3331850E-011  0.5052886E+02  0.7816164E-02  0.1300439E+00
        -11   -1    0    0    0    0  0.00000000000E+00  0.00000000000E+00  0.45593999997E+02  0.45594000000E+02  0.51100000000E-03 0. -1.
         11   -1    0    0    0    0 -0.00000000000E+00 -0.00000000000E+00 -0.45593999997E+02  0.45594000000E+02  0.51100000000E-03 0.  1.
    9900012    2    1    2    0    0  0.16637815676E+02  0.31918246490E+01 -0.36961618151E+02  0.50528857469E+02  0.29999992762E+02 0.  0.
         12    1    1    2    0    0 -0.16637815676E+02 -0.31918246490E+01  0.36961618151E+02  0.40659142531E+02  0.00000000000E+00 0. -1.
         11    1    3    3    0    0  0.34591347749E+01 -0.17380072851E+01  0.20038700769E+01  0.43591029191E+01  0.51100000000E-03 0. -1.
        -11    1    3    3    0    0  0.10914547913E+02  0.26137979898E+01 -0.54112705079E+01  0.12459580445E+02  0.51100000000E-03 0.  1.
         12    1    3    3    0    0  0.22641329877E+01  0.23160339443E+01 -0.33554217720E+02  0.33710174105E+02  0.00000000000E+00 0. -1.
</event>
<event>
 7    1  0.3331850E-011  0.5052871E+02  0.7816164E-02  0.1300439E+00
        -11   -1    0    0    0    0  0.00000000000E+00  0.00000000000E+00  0.45593999997E+02  0.45594000000E+02  0.51100000000E-03 0.  1.
         11   -1    0    0    0    0 -0.00000000000E+00 -0.00000000000E+00 -0.45593999997E+02  0.45594000000E+02  0.51100000000E-03 0. -1.
    9900012    2    1    2    0    0  0.11569659156E+02  0.55376687293E+01  0.38583088995E+02  0.50528713922E+02  0.29999556434E+02 0.  0.
         12    1    1    2    0    0 -0.11569659156E+02 -0.55376687293E+01 -0.38583088995E+02  0.40659286078E+02  0.00000000000E+00 0. -1.
         11    1    3    3    0    0 -0.25519006049E+00 -0.62516639146E+01  0.12205069964E+02  0.13715398527E+02  0.51100000000E-03 0. -1.
        -11    1    3    3    0    0  0.18346321393E+01  0.10848380037E+02  0.24144680280E+02  0.26533352796E+02  0.51100000000E-03 0.  1.
         12    1    3    3    0    0  0.99902170773E+01  0.94095260695E+00  0.22333387513E+01  0.10279962599E+02  0.00000000000E+00 0. -1.
</event>
<event>
 7    1  0.3331850E-011  0.5052886E+02  0.7816164E-02  0.1300439E+00
        -11   -1    0    0    0    0  0.00000000000E+00  0.00000000000E+00  0.45593999997E+02  0.45594000000E+02  0.51100000000E-03 0.  1.
         11   -1    0    0    0    0 -0.00000000000E+00 -0.00000000000E+00 -0.45593999997E+02  0.45594000000E+02  0.51100000000E-03 0. -1.
    9900012    2    1    2    0    0 -0.86849746137E+01 -0.28414327104E+02  0.27755409560E+02  0.50528861683E+02  0.30000005572E+02 0.  0.
         12    1    1    2    0    0  0.86849746137E+01  0.28414327104E+02 -0.27755409560E+02  0.40659138317E+02  0.00000000000E+00 0. -1.
         11    1    3    3    0    0 -0.97769512949E+00 -0.10394651623E+01 -0.23106203991E+01  0.27157581777E+01  0.51100000000E-03 0. -1.
        -11    1    3    3    0    0  0.80031517761E+01 -0.38339279889E+01  0.73307644250E+01  0.11510410483E+02  0.51100000000E-03 0.  1.
        -12    1    3    3    0    0 -0.15710431260E+02 -0.23540933953E+02  0.22735265534E+02  0.36302693022E+02  0.00000000000E+00 0.  1.
</event>
<event>
 7    1  0.3331850E-011  0.5052886E+02  0.7816164E-02  0.1300439E+00
        -11   -1    0    0    0    0  0.00000000000E+00  0.00000000000E+00  0.45593999997E+02  0.45594000000E+02  0.51100000000E-03 0.  1.
         11   -1    0    0    0    0 -0.00000000000E+00 -0.00000000000E+00 -0.45593999997E+02  0.45594000000E+02  0.51100000000E-03 0. -1.
    9900012    2    1    2    0    0  0.22049107122E+02 -0.23066025450E+02  0.25198437687E+02  0.50528856910E+02  0.29999991063E+02 0.  0.
         12    1    1    2    0    0 -0.22049107122E+02  0.23066025450E+02 -0.25198437687E+02  0.40659143090E+02  0.00000000000E+00 0. -1.
         11    1    3    3    0    0  0.11846066183E+02 -0.71927481384E+01  0.20948722084E+00  0.13860331704E+02  0.51100000000E-03 0. -1.
        -11    1    3    3    0    0  0.14719772167E+02 -0.14784894986E+02  0.24207448196E+02  0.31957242697E+02  0.51100000000E-03 0.  1.
        -12    1    3    3    0    0 -0.45167312282E+01 -0.10883823264E+01  0.78150227071E+00  0.47112825085E+01  0.00000000000E+00 0.  1.
</event>
<event>
 7    1  0.3331850E-011  0.5052888E+02  0.7816164E-02  0.1300439E+00
        -11   -1    0    0    0    0  0.00000000000E+00  0.00000000000E+00  0.45593999997E+02  0.45594000000E+02  0.51100000000E-03 0.  1.
         11   -1    0    0    0    0 -0.00000000000E+00 -0.00000000000E+00 -0.45593999997E+02  0.45594000000E+02  0.51100000000E-03 0. -1.
    9900012    2    1    2    0    0  0.36308233367E+02  0.11759330217E+02  0.14021219716E+02  0.50528877288E+02  0.30000053005E+02 0.  0.
         12    1    1    2    0    0 -0.36308233367E+02 -0.11759330217E+02 -0.14021219716E+02  0.40659122712E+02  0.00000000000E+00 0. -1.
         11    1    3    3    0    0  0.73205756525E+01 -0.53650778087E+00 -0.56247181437E+01  0.92474927921E+01  0.51100000000E-03 0. -1.
        -11    1    3    3    0    0  0.87101838321E+01 -0.52287786219E+00 -0.20196872609E+01  0.89565529385E+01  0.51100000000E-03 0.  1.
        -12    1    3    3    0    0  0.20277473882E+02  0.12818715860E+02  0.21665625121E+02  0.32324831558E+02  0.00000000000E+00 0.  1.
</event>
<event>
 7    1  0.4422480E-011  0.5052886E+02  0.7816164E-02  0.1300439E+00
        -11   -1    0    0    0    0  0.00000000000E+00  0.00000000000E+00  0.45593999997E+02  0.45594000000E+02  0.51100000000E-03 0. -1.
         11   -1    0    0    0    0 -0.00000000000E+00 -0.00000000000E+00 -0.45593999997E+02  0.45594000000E+02  0.51100000000E-03 0.  1.
    9900012    2    1    2    0    0 -0.19219942463E+02 -0.29953022167E+02 -0.19661526113E+02  0.50528864073E+02  0.30000012836E+02 0.  0.
         12    1    1    2    0    0  0.19219942463E+02  0.29953022167E+02  0.19661526113E+02  0.40659135927E+02  0.00000000000E+00 0. -1.
         11    1    3    3    0    0 -0.15517344316E+02 -0.14245566711E+02 -0.51696064308E+00  0.21071103296E+02  0.51100000000E-03 0. -1.
        -11    1    3    3    0    0 -0.50472999741E+01 -0.13880581191E+02 -0.57132810778E+01  0.15836266989E+02  0.51100000000E-03 0.  1.
         12    1    3    3    0    0  0.13447018270E+01 -0.18268742658E+01 -0.13431284392E+02  0.13621493788E+02  0.00000000000E+00 0. -1.
</event>
<event>
 7    1  0.3331850E-011  0.5052886E+02  0.7816164E-02  0.1300439E+00
        -11   -1    0    0    0    0  0.00000000000E+00  0.00000000000E+00  0.45593999997E+02  0.45594000000E+02  0.51100000000E-03 0.  1.
         11   -1    0    0    0    0 -0.00000000000E+00 -0.00000000000E+00 -0.45593999997E+02  0.45594000000E+02  0.51100000000E-03 0. -1.
    9900012    2    1    2    0    0 -0.28526739664E+02  0.25348553216E+02  0.14030024559E+02  0.50528860620E+02  0.30000002341E+02 0.  0.
         12    1    1    2    0    0  0.28526739664E+02 -0.25348553216E+02 -0.14030024559E+02  0.40659139380E+02  0.00000000000E+00 0. -1.
         11    1    3    3    0    0 -0.12217668111E+02 -0.20221286281E+00  0.15691763872E+01  0.12319684205E+02  0.51100000000E-03 0. -1.
        -11    1    3    3    0    0 -0.68203888448E+01  0.17013121643E+02 -0.25491257265E+01  0.18505730309E+02  0.51100000000E-03 0.  1.
         12    1    3    3    0    0 -0.94886827081E+01  0.85376444355E+01  0.15009973898E+02  0.19703446106E+02  0.00000000000E+00 0. -1.
</event>
<event>
 7    1  0.3331850E-011  0.5052886E+02  0.7816164E-02  0.1300439E+00
        -11   -1    0    0    0    0  0.00000000000E+00  0.00000000000E+00  0.45593999997E+02  0.45594000000E+02  0.51100000000E-03 0. -1.
         11   -1    0    0    0    0 -0.00000000000E+00 -0.00000000000E+00 -0.45593999997E+02  0.45594000000E+02  0.51100000000E-03 0.  1.
    9900012    2    1    2    0    0  0.26205610721E+02  0.19919222170E+02 -0.23867468438E+02  0.50528862101E+02  0.30000006841E+02 0.  0.
         12    1    1    2    0    0 -0.26205610721E+02 -0.19919222170E+02  0.23867468438E+02  0.40659137899E+02  0.00000000000E+00 0. -1.
         11    1    3    3    0    0  0.46416278120E+01 -0.20665679735E+01  0.18672015083E-01  0.50809212589E+01  0.51100000000E-03 0. -1.
        -11    1    3    3    0    0  0.21078208389E+02  0.52087416076E+01 -0.15560456666E+02  0.26712350513E+02  0.51100000000E-03 0.  1.
         12    1    3    3    0    0  0.48577452002E+00  0.16777048535E+02 -0.83256837862E+01  0.18735590328E+02  0.00000000000E+00 0. -1.
</event>
<event>
 7    1  0.3331850E-011  0.5052888E+02  0.7816164E-02  0.1300439E+00
        -11   -1    0    0    0    0  0.00000000000E+00  0.00000000000E+00  0.45593999997E+02  0.45594000000E+02  0.51100000000E-03 0. -1.
         11   -1    0    0    0    0 -0.00000000000E+00 -0.00000000000E+00 -0.45593999997E+02  0.45594000000E+02  0.51100000000E-03 0.  1.
    9900012    2    1    2    0    0  0.30687941758E+02 -0.26655479630E+02  0.94844070015E+00  0.50528881670E+02  0.30000066323E+02 0.  0.
         12    1    1    2    0    0 -0.30687941758E+02  0.26655479630E+02 -0.94844070015E+00  0.40659118330E+02  0.00000000000E+00 0. -1.
         11    1    3    3    0    0  0.17179902743E+02 -0.82450987330E+01  0.11476846422E+02  0.22245195334E+02  0.51100000000E-03 0. -1.
        -11    1    3    3    0    0  0.75128870488E+01 -0.14864462470E+01 -0.61006030965E+01  0.97913406975E+01  0.51100000000E-03 0.  1.
        -12    1    3    3    0    0  0.59951519655E+01 -0.16923934650E+02 -0.44278026252E+01  0.18492345638E+02  0.00000000000E+00 0.  1.
</event>
<event>
 7    1  0.3331850E-011  0.5052887E+02  0.7816164E-02  0.1300439E+00
        -11   -1    0    0    0    0  0.00000000000E+00  0.00000000000E+00  0.45593999997E+02  0.45594000000E+02  0.51100000000E-03 0. -1.
         11   -1    0    0    0    0 -0.00000000000E+00 -0.00000000000E+00 -0.45593999997E+02  0.45594000000E+02  0.51100000000E-03 0.  1.
    9900012    2    1    2    0    0 -0.10778251772E+02  0.21642449536E+02 -0.32689427275E+02  0.50528868323E+02  0.30000025754E+02 0.  0.
         12    1    1    2    0    0  0.10778251772E+02 -0.21642449536E+02  0.32689427275E+02  0.40659131677E+02  0.00000000000E+00 0. -1.
         11    1    3    3    0    0  0.33827746018E+00 -0.77378552053E+00  0.30500640452E+01  0.31648169952E+01  0.51100000000E-03 0. -1.
        -11    1    3    3    0    0  0.43067469547E+01  0.17032426534E+01 -0.24726408090E+01  0.52500531140E+01  0.51100000000E-03 0.  1.
        -12    1    3    3    0    0 -0.15423276186E+02  0.20712992403E+02 -0.33266850511E+02  0.42113998214E+02  0.00000000000E+00 0.  1.
</event>
<event>
 7    1  0.3331850E-011  0.5052885E+02  0.7816164E-02  0.1300439E+00
        -11   -1    0    0    0    0  0.00000000000E+00  0.00000000000E+00  0.45593999997E+02  0.45594000000E+02  0.51100000000E-03 0.  1.
         11   -1    0    0    0    0 -0.00000000000E+00 -0.00000000000E+00 -0.45593999997E+02  0.45594000000E+02  0.51100000000E-03 0. -1.
    9900012    2    1    2    0    0  0.21154062958E+02  0.28830998589E+02  0.19350591715E+02  0.50528852702E+02  0.29999978274E+02 0.  0.
         12    1    1    2    0    0 -0.21154062958E+02 -0.28830998589E+02 -0.19350591715E+02  0.40659147298E+02  0.00000000000E+00 0. -1.
         11    1    3    3    0    0  0.24805408026E+01 -0.36232732597E+00  0.55504664168E+01  0.60903235932E+01  0.51100000000E-03 0. -1.
        -11    1    3    3    0    0  0.18721865158E+02  0.75984934857E+01  0.98776590125E+01  0.22490297598E+02  0.51100000000E-03 0.  1.
        -12    1    3    3    0    0 -0.48343002397E-01  0.21594832429E+02  0.39224662861E+01  0.21948231511E+02  0.00000000000E+00 0.  1.
</event>
<event>
 7    1  0.3569641E-011  0.5052885E+02  0.7816164E-02  0.1300439E+00
        -11   -1    0    0    0    0  0.00000000000E+00  0.00000000000E+00  0.45593999997E+02  0.45594000000E+02  0.51100000000E-03 0. -1.
         11   -1    0    0    0    0 -0.00000000000E+00 -0.00000000000E+00 -0.45593999997E+02  0.45594000000E+02  0.51100000000E-03 0.  1.
    9900012    2    1    2    0    0 -0.21541470547E+02 -0.34448977639E+02 -0.15490484852E+01  0.50528848940E+02  0.29999966837E+02 0.  0.
         12    1    1    2    0    0  0.21541470547E+02  0.34448977639E+02  0.15490484852E+01  0.40659151060E+02  0.00000000000E+00 0. -1.
         11    1    3    3    0    0 -0.63278472755E+01 -0.81662758976E+01 -0.35265858352E+01  0.10916341928E+02  0.51100000000E-03 0. -1.
        -11    1    3    3    0    0 -0.10768484631E+02 -0.26543534218E+02 -0.70913529795E+01  0.29509435057E+02  0.51100000000E-03 0.  1.
         12    1    3    3    0    0 -0.44451386413E+01  0.26083247612E+00  0.90688903295E+01  0.10103071955E+02  0.00000000000E+00 0. -1.
</event>
<event>
 7    1  0.3331850E-011  0.5052886E+02  0.7816164E-02  0.1300439E+00
        -11   -1    0    0    0    0  0.00000000000E+00  0.00000000000E+00  0.45593999997E+02  0.45594000000E+02  0.51100000000E-03 0.  1.
         11   -1    0    0    0    0 -0.00000000000E+00 -0.00000000000E+00 -0.45593999997E+02  0.45594000000E+02  0.51100000000E-03 0. -1.
    9900012    2    1    2    0    0 -0.22480929109E+02 -0.32009274680E+02  0.11098645844E+02  0.50528858608E+02  0.29999996226E+02 0.  0.
         12    1    1    2    0    0  0.22480929109E+02  0.32009274680E+02 -0.11098645844E+02  0.40659141392E+02  0.00000000000E+00 0. -1.
         11    1    3    3    0    0 -0.85767560606E+01 -0.29150995058E+02  0.11577141468E+02  0.32517248688E+02  0.51100000000E-03 0. -1.
        -11    1    3    3    0    0 -0.31712858157E+01 -0.60290095840E+01 -0.64095026167E-01  0.68124972457E+01  0.51100000000E-03 0.  1.
         12    1    3    3    0    0 -0.10732887233E+02  0.31707299620E+01 -0.41440059810E+00  0.11199112675E+02  0.00000000000E+00 0. -1.
</event>
<event>
 7    1  0.3331850E-011  0.5052887E+02  0.7816164E-02  0.1300439E+00
        -11   -1    0    0    0    0  0.00000000000E+00  0.00000000000E+00  0.45593999997E+02  0.45594000000E+02  0.51100000000E-03 0. -1.
         11   -1    0    0    0    0 -0.00000000000E+00 -0.00000000000E+00 -0.45593999997E+02  0.45594000000E+02  0.51100000000E-03 0.  1.
    9900012    2    1    2    0    0  0.44547772859E+00 -0.30079270718E+02 -0.27353313313E+02  0.50528871547E+02  0.30000035555E+02 0.  0.
         12    1    1    2    0    0 -0.44547772859E+00  0.30079270718E+02  0.27353313313E+02  0.40659128453E+02  0.00000000000E+00 0. -1.
         11    1    3    3    0    0  0.56826589261E+01 -0.20865498873E+01  0.65315713155E+00  0.60887533537E+01  0.51100000000E-03 0. -1.
        -11    1    3    3    0    0  0.62553498450E+01 -0.17771174327E+02 -0.12564452235E+02  0.22645297500E+02  0.51100000000E-03 0.  1.
        -12    1    3    3    0    0 -0.11492531042E+02 -0.10221546504E+02 -0.15442018209E+02  0.21794820694E+02  0.00000000000E+00 0.  1.
</event>
<event>
 7    1  0.3331850E-011  0.5052894E+02  0.7816164E-02  0.1300438E+00
        -11   -1    0    0    0    0  0.00000000000E+00  0.00000000000E+00  0.45593999997E+02  0.45594000000E+02  0.51100000000E-03 0. -1.
         11   -1    0    0    0    0 -0.00000000000E+00 -0.00000000000E+00 -0.45593999997E+02  0.45594000000E+02  0.51100000000E-03 0.  1.
    9900012    2    1    2    0    0 -0.21216212776E+01 -0.40414308849E+02 -0.39167893631E+01  0.50528943500E+02  0.30000254260E+02 0.  0.
         12    1    1    2    0    0  0.21216212776E+01  0.40414308849E+02  0.39167893631E+01  0.40659056500E+02  0.00000000000E+00 0. -1.
         11    1    3    3    0    0  0.56090999314E+01 -0.16699822208E+02 -0.73874373649E+01  0.19102887082E+02  0.51100000000E-03 0. -1.
        -11    1    3    3    0    0 -0.59019253299E+00 -0.14475357702E+02 -0.66806892186E+01  0.15953554981E+02  0.51100000000E-03 0.  1.
         12    1    3    3    0    0 -0.71405286761E+01 -0.92391289389E+01  0.10151337220E+02  0.15472501436E+02  0.00000000000E+00 0. -1.
</event>
<event>
 7    1  0.3331850E-011  0.5052884E+02  0.7816164E-02  0.1300439E+00
        -11   -1    0    0    0    0  0.00000000000E+00  0.00000000000E+00  0.45593999997E+02  0.45594000000E+02  0.51100000000E-03 0.  1.
         11   -1    0    0    0    0 -0.00000000000E+00 -0.00000000000E+00 -0.45593999997E+02  0.45594000000E+02  0.51100000000E-03 0. -1.
    9900012    2    1    2    0    0  0.32570272050E+01 -0.19786651286E+02  0.35370144596E+02  0.50528844523E+02  0.29999953413E+02 0.  0.
         12    1    1    2    0    0 -0.32570272050E+01  0.19786651286E+02 -0.35370144596E+02  0.40659155477E+02  0.00000000000E+00 0. -1.
         11    1    3    3    0    0  0.12521454280E+02 -0.89752916964E+01  0.12111779070E+02  0.19596884212E+02  0.51100000000E-03 0. -1.
        -11    1    3    3    0    0  0.34141826410E+01 -0.47268760044E+01  0.10157468287E+02  0.11712137385E+02  0.51100000000E-03 0.  1.
        -12    1    3    3    0    0 -0.12678609716E+02 -0.60844835849E+01  0.13100897239E+02  0.19219822925E+02  0.00000000000E+00 0.  1.
</event>
<event>
 7    1  0.3331850E-011  0.5052886E+02  0.7816164E-02  0.1300439E+00
        -11   -1    0    0    0    0  0.00000000000E+00  0.00000000000E+00  0.45593999997E+02  0.45594000000E+02  0.51100000000E-03 0.  1.
         11   -1    0    0    0    0 -0.00000000000E+00 -0.00000000000E+00 -0.45593999997E+02  0.45594000000E+02  0.51100000000E-03 0. -1.
    9900012    2    1    2    0    0  0.19019432208E+02 -0.10038566146E+02  0.34505856494E+02  0.50528859033E+02  0.29999997517E+02 0.  0.
         12    1    1    2    0    0 -0.19019432208E+02  0.10038566146E+02 -0.34505856494E+02  0.40659140967E+02  0.00000000000E+00 0. -1.
         11    1    3    3    0    0  0.20590762088E+01  0.41673960480E+00  0.10341452598E+02  0.10552682542E+02  0.51100000000E-03 0.  1.
        -11    1    3    3    0    0 -0.50158139621E+01  0.28061099031E+01  0.20691181610E+01  0.61085098605E+01  0.51100000000E-03 0. -1.
        -12    1    3    3    0    0  0.21976169961E+02 -0.13261415654E+02  0.22095285735E+02  0.33867666631E+02  0.00000000000E+00 0.  1.
</event>
<event>
 7    1  0.3331850E-011  0.5052886E+02  0.7816164E-02  0.1300439E+00
        -11   -1    0    0    0    0  0.00000000000E+00  0.00000000000E+00  0.45593999997E+02  0.45594000000E+02  0.51100000000E-03 0. -1.
         11   -1    0    0    0    0 -0.00000000000E+00 -0.00000000000E+00 -0.45593999997E+02  0.45594000000E+02  0.51100000000E-03 0.  1.
    9900012    2    1    2    0    0  0.32426984836E+02  0.23738987062E+02 -0.61739080429E+01  0.50528855975E+02  0.29999988222E+02 0.  0.
         12    1    1    2    0    0 -0.32426984836E+02 -0.23738987062E+02  0.61739080429E+01  0.40659144025E+02  0.00000000000E+00 0. -1.
         11    1    3    3    0    0  0.11484190548E+02  0.62514002084E+01  0.98740685110E+01  0.16384866992E+02  0.51100000000E-03 0. -1.
        -11    1    3    3    0    0  0.10036961494E+02  0.84373341481E+01 -0.52199678725E+00  0.13122563944E+02  0.51100000000E-03 0.  1.
         12    1    3    3    0    0  0.10905832794E+02  0.90502527055E+01 -0.15525979767E+02  0.21021425039E+02  0.00000000000E+00 0. -1.
</event>
<event>
 7    1  0.3331850E-011  0.5052886E+02  0.7816164E-02  0.1300439E+00
        -11   -1    0    0    0    0  0.00000000000E+00  0.00000000000E+00  0.45593999997E+02  0.45594000000E+02  0.51100000000E-03 0. -1.
         11   -1    0    0    0    0 -0.00000000000E+00 -0.00000000000E+00 -0.45593999997E+02  0.45594000000E+02  0.51100000000E-03 0.  1.
    9900012    2    1    2    0    0  0.16857518599E+01  0.40098483237E+02 -0.65142548042E+01  0.50528860402E+02  0.30000001678E+02 0.  0.
         12    1    1    2    0    0 -0.16857518599E+01 -0.40098483237E+02  0.65142548042E+01  0.40659139598E+02  0.00000000000E+00 0. -1.
         11    1    3    3    0    0  0.32780129415E+01  0.21460742455E+02  0.55285344381E+01  0.22402533983E+02  0.51100000000E-03 0.  1.
        -11    1    3    3    0    0  0.29049050194E+01  0.25621042523E+01  0.35717837791E+01  0.52688225438E+01  0.51100000000E-03 0. -1.
        -12    1    3    3    0    0 -0.44971661010E+01  0.16075636529E+02 -0.15614573021E+02  0.22857503875E+02  0.00000000000E+00 0.  1.
</event>
<event>
 7    1  0.3331850E-011  0.5052885E+02  0.7816164E-02  0.1300439E+00
        -11   -1    0    0    0    0  0.00000000000E+00  0.00000000000E+00  0.45593999997E+02  0.45594000000E+02  0.51100000000E-03 0.  1.
         11   -1    0    0    0    0 -0.00000000000E+00 -0.00000000000E+00 -0.45593999997E+02  0.45594000000E+02  0.51100000000E-03 0. -1.
    9900012    2    1    2    0    0 -0.40350555505E+02  0.45142092513E+00  0.49794626493E+01  0.50528853936E+02  0.29999982023E+02 0.  0.
         12    1    1    2    0    0  0.40350555505E+02 -0.45142092513E+00 -0.49794626493E+01  0.40659146064E+02  0.00000000000E+00 0. -1.
         11    1    3    3    0    0 -0.72146268756E+01  0.19443033550E+01 -0.13913909734E+01  0.76004687745E+01  0.51100000000E-03 0. -1.
        -11    1    3    3    0    0 -0.21188438036E+02  0.12061354587E+02  0.39488615971E+01  0.24698576661E+02  0.51100000000E-03 0.  1.
         12    1    3    3    0    0 -0.11947490593E+02 -0.13554237017E+02  0.24219920256E+01  0.18229808500E+02  0.00000000000E+00 0. -1.
</event>
<event>
 7    1  0.3331850E-011  0.5052888E+02  0.7816164E-02  0.1300439E+00
        -11   -1    0    0    0    0  0.00000000000E+00  0.00000000000E+00  0.45593999997E+02  0.45594000000E+02  0.51100000000E-03 0. -1.
         11   -1    0    0    0    0 -0.00000000000E+00 -0.00000000000E+00 -0.45593999997E+02  0.45594000000E+02  0.51100000000E-03 0.  1.
    9900012    2    1    2    0    0  0.26618300917E+02  0.87837212741E+01 -0.29452956734E+02  0.50528876012E+02  0.30000049125E+02 0.  0.
         12    1    1    2    0    0 -0.26618300917E+02 -0.87837212741E+01  0.29452956734E+02  0.40659123988E+02  0.00000000000E+00 0. -1.
         11    1    3    3    0    0  0.12839741551E+02  0.10073038842E+02 -0.70810971227E+01  0.17789519705E+02  0.51100000000E-03 0. -1.
        -11    1    3    3    0    0  0.43644065396E+01 -0.25510386050E+01 -0.22679465749E+02  0.23236049779E+02  0.51100000000E-03 0.  1.
         12    1    3    3    0    0  0.94141528268E+01  0.12617210375E+01  0.30760613828E+00  0.95033065277E+01  0.00000000000E+00 0. -1.
</event>
<event>
 7    1  0.3331850E-011  0.5052886E+02  0.7816164E-02  0.1300439E+00
        -11   -1    0    0    0    0  0.00000000000E+00  0.00000000000E+00  0.45593999997E+02  0.45594000000E+02  0.51100000000E-03 0.  1.
         11   -1    0    0    0    0 -0.00000000000E+00 -0.00000000000E+00 -0.45593999997E+02  0.45594000000E+02  0.51100000000E-03 0. -1.
    9900012    2    1    2    0    0  0.41488318267E+01 -0.21829846691E+02  0.34050123056E+02  0.50528857212E+02  0.29999991983E+02 0.  0.
         12    1    1    2    0    0 -0.41488318267E+01  0.21829846691E+02 -0.34050123056E+02  0.40659142788E+02  0.00000000000E+00 0. -1.
         11    1    3    3    0    0 -0.41097860415E+01 -0.57251106093E+01  0.19750956563E+02  0.20970634664E+02  0.51100000000E-03 0.  1.
        -11    1    3    3    0    0 -0.29212681873E+01 -0.10854496680E+02  0.12927334373E+02  0.17130962619E+02  0.51100000000E-03 0. -1.
         12    1    3    3    0    0  0.11179886055E+02 -0.52502394023E+01  0.13718321199E+01  0.12427259930E+02  0.00000000000E+00 0. -1.
</event>
<event>
 7    1  0.3331850E-011  0.5052884E+02  0.7816164E-02  0.1300439E+00
        -11   -1    0    0    0    0  0.00000000000E+00  0.00000000000E+00  0.45593999997E+02  0.45594000000E+02  0.51100000000E-03 0.  1.
         11   -1    0    0    0    0 -0.00000000000E+00 -0.00000000000E+00 -0.45593999997E+02  0.45594000000E+02  0.51100000000E-03 0. -1.
    9900012    2    1    2    0    0 -0.16908604186E+02 -0.18032286831E+02  0.32281618167E+02  0.50528841925E+02  0.29999945516E+02 0.  0.
         12    1    1    2    0    0  0.16908604186E+02  0.18032286831E+02 -0.32281618167E+02  0.40659158075E+02  0.00000000000E+00 0. -1.
         11    1    3    3    0    0  0.24217811801E+01 -0.30008682103E+01  0.36362229917E+01  0.53002218827E+01  0.51100000000E-03 0. -1.
        -11    1    3    3    0    0 -0.44137971800E+01 -0.17984133499E+02  0.21654391163E+02  0.28492513406E+02  0.51100000000E-03 0.  1.
         12    1    3    3    0    0 -0.14916588186E+02  0.29527148785E+01  0.69910040121E+01  0.16736106637E+02  0.00000000000E+00 0. -1.
</event>
<event>
 7    1  0.3331850E-011  0.5052884E+02  0.7816164E-02  0.1300439E+00
        -11   -1    0    0    0    0  0.00000000000E+00  0.00000000000E+00  0.45593999997E+02  0.45594000000E+02  0.51100000000E-03 0.  1.
         11   -1    0    0    0    0 -0.00000000000E+00 -0.00000000000E+00 -0.45593999997E+02  0.45594000000E+02  0.51100000000E-03 0. -1.
    9900012    2    1    2    0    0 -0.46325807308E+01 -0.34527607422E+02 -0.20965461312E+02  0.50528843017E+02  0.29999948836E+02 0.  0.
         12    1    1    2    0    0  0.46325807308E+01  0.34527607422E+02  0.20965461312E+02  0.40659156983E+02  0.00000000000E+00 0. -1.
         11    1    3    3    0    0  0.17300317171E+01  0.14763930847E+01 -0.29948415826E+01  0.37605614805E+01  0.51100000000E-03 0. -1.
        -11    1    3    3    0    0  0.45960614186E+01 -0.22776515194E+02 -0.20132324897E+01  0.23322661304E+02  0.51100000000E-03 0.  1.
         12    1    3    3    0    0 -0.10958673867E+02 -0.13227485312E+02 -0.15957387240E+02  0.23445620233E+02  0.00000000000E+00 0. -1.
</event>
<event>
 7    1  0.3331850E-011  0.5052886E+02  0.7816164E-02  0.1300439E+00
        -11   -1    0    0    0    0  0.00000000000E+00  0.00000000000E+00  0.45593999997E+02  0.45594000000E+02  0.51100000000E-03 0.  1.
         11   -1    0    0    0    0 -0.00000000000E+00 -0.00000000000E+00 -0.45593999997E+02  0.45594000000E+02  0.51100000000E-03 0. -1.
    9900012    2    1    2    0    0 -0.14503153676E+02 -0.68799551731E+01  0.37356267795E+02  0.50528855969E+02  0.29999988204E+02 0.  0.
         12    1    1    2    0    0  0.14503153676E+02  0.68799551731E+01 -0.37356267795E+02  0.40659144031E+02  0.00000000000E+00 0. -1.
         11    1    3    3    0    0  0.42215022729E+01  0.18092047625E+01  0.76910909623E+01  0.89580792452E+01  0.51100000000E-03 0. -1.
        -11    1    3    3    0    0 -0.11329234867E+02  0.57664912194E+01  0.10806272769E+02  0.16684709020E+02  0.51100000000E-03 0.  1.
        -12    1    3    3    0    0 -0.73954210825E+01 -0.14455651155E+02  0.18858904063E+02  0.24886067704E+02  0.00000000000E+00 0.  1.
</event>
<event>
 7    1  0.3331850E-011  0.5052886E+02  0.7816164E-02  0.1300439E+00
        -11   -1    0    0    0    0  0.00000000000E+00  0.00000000000E+00  0.45593999997E+02  0.45594000000E+02  0.51100000000E-03 0.  1.
         11   -1    0    0    0    0 -0.00000000000E+00 -0.00000000000E+00 -0.45593999997E+02  0.45594000000E+02  0.51100000000E-03 0. -1.
    9900012    2    1    2    0    0 -0.55115326443E+01  0.33671671844E+02  0.22113503610E+02  0.50528861805E+02  0.30000005942E+02 0.  0.
         12    1    1    2    0    0  0.55115326443E+01 -0.33671671844E+02 -0.22113503610E+02  0.40659138195E+02  0.00000000000E+00 0. -1.
         11    1    3    3    0    0 -0.64227877079E+01  0.12088525483E+02  0.13143884528E+02  0.18977522258E+02  0.51100000000E-03 0. -1.
        -11    1    3    3    0    0 -0.23431533021E+01  0.65446577292E+01  0.13776835049E+02  0.15431270084E+02  0.51100000000E-03 0.  1.
         12    1    3    3    0    0  0.32544083658E+01  0.15038488632E+02 -0.48072159670E+01  0.16120069463E+02  0.00000000000E+00 0. -1.
</event>
<event>
 7    1  0.3331850E-011  0.5052887E+02  0.7816164E-02  0.1300439E+00
        -11   -1    0    0    0    0  0.00000000000E+00  0.00000000000E+00  0.45593999997E+02  0.45594000000E+02  0.51100000000E-03 0. -1.
         11   -1    0    0    0    0 -0.00000000000E+00 -0.00000000000E+00 -0.45593999997E+02  0.45594000000E+02  0.51100000000E-03 0.  1.
    9900012    2    1    2    0    0 -0.18815749200E+02  0.26542012878E+02  0.24385528384E+02  0.50528869904E+02  0.30000030560E+02 0.  0.
         12    1    1    2    0    0  0.18815749200E+02 -0.26542012878E+02 -0.24385528384E+02  0.40659130096E+02  0.00000000000E+00 0. -1.
         11    1    3    3    0    0  0.15846600497E+01 -0.86726764158E+00 -0.24773542248E+01  0.30660373206E+01  0.51100000000E-03 0. -1.
        -11    1    3    3    0    0 -0.78164452110E+01  0.20368200009E+02  0.69888617470E+01  0.22908613579E+02  0.51100000000E-03 0.  1.
        -12    1    3    3    0    0 -0.12583964039E+02  0.70410805108E+01  0.19874020862E+02  0.24554219004E+02  0.00000000000E+00 0.  1.
</event>
<event>
 7    1  0.3331850E-011  0.5052886E+02  0.7816164E-02  0.1300439E+00
        -11   -1    0    0    0    0  0.00000000000E+00  0.00000000000E+00  0.45593999997E+02  0.45594000000E+02  0.51100000000E-03 0.  1.
         11   -1    0    0    0    0 -0.00000000000E+00 -0.00000000000E+00 -0.45593999997E+02  0.45594000000E+02  0.51100000000E-03 0. -1.
    9900012    2    1    2    0    0  0.39851058296E+02 -0.64550079610E+01  0.48364866135E+01  0.50528861079E+02  0.30000003734E+02 0.  0.
         12    1    1    2    0    0 -0.39851058296E+02  0.64550079610E+01 -0.48364866135E+01  0.40659138921E+02  0.00000000000E+00 0. -1.
         11    1    3    3    0    0  0.55769926513E+01 -0.88548412900E+01 -0.57164435509E+01  0.11924294043E+02  0.51100000000E-03 0. -1.
        -11    1    3    3    0    0  0.21002635168E+02 -0.48010464404E+01  0.31001611057E+01  0.21766298033E+02  0.51100000000E-03 0.  1.
        -12    1    3    3    0    0  0.13271430477E+02  0.72008797693E+01  0.74527690587E+01  0.16838269002E+02  0.00000000000E+00 0.  1.
</event>
<event>
 7    1  0.3331850E-011  0.5052887E+02  0.7816164E-02  0.1300439E+00
        -11   -1    0    0    0    0  0.00000000000E+00  0.00000000000E+00  0.45593999997E+02  0.45594000000E+02  0.51100000000E-03 0.  1.
         11   -1    0    0    0    0 -0.00000000000E+00 -0.00000000000E+00 -0.45593999997E+02  0.45594000000E+02  0.51100000000E-03 0. -1.
    9900012    2    1    2    0    0 -0.13552529828E+02 -0.21780030591E+02  0.31545587583E+02  0.50528869497E+02  0.30000029324E+02 0.  0.
         12    1    1    2    0    0  0.13552529828E+02  0.21780030591E+02 -0.31545587583E+02  0.40659130503E+02  0.00000000000E+00 0. -1.
         11    1    3    3    0    0 -0.86356252037E+01 -0.86267897956E+01  0.37700260498E+01  0.12775312971E+02  0.51100000000E-03 0. -1.
        -11    1    3    3    0    0  0.48396263147E+01 -0.13081671113E+02  0.90160216164E+01  0.16608454113E+02  0.51100000000E-03 0.  1.
         12    1    3    3    0    0 -0.97565309391E+01 -0.71569682662E-01  0.18759539917E+02  0.21145102414E+02  0.00000000000E+00 0. -1.
</event>
<event>
 7    1  0.3331850E-011  0.5052885E+02  0.7816164E-02  0.1300439E+00
        -11   -1    0    0    0    0  0.00000000000E+00  0.00000000000E+00  0.45593999997E+02  0.45594000000E+02  0.51100000000E-03 0.  1.
         11   -1    0    0    0    0 -0.00000000000E+00 -0.00000000000E+00 -0.45593999997E+02  0.45594000000E+02  0.51100000000E-03 0. -1.
    9900012    2    1    2    0    0  0.35024649864E+02  0.38178163178E+01  0.20294446441E+02  0.50528851265E+02  0.29999973905E+02 0.  0.
         12    1    1    2    0    0 -0.35024649864E+02 -0.38178163178E+01 -0.20294446441E+02  0.40659148735E+02  0.00000000000E+00 0. -1.
         11    1    3    3    0    0  0.10709221566E+02  0.73563733713E+01  0.69445484718E+01  0.14731951991E+02  0.51100000000E-03 0. -1.
        -11    1    3    3    0    0  0.12549631765E+02  0.92197513204E+01  0.39762640043E+01  0.16071955311E+02  0.51100000000E-03 0.  1.
        -12    1    3    3    0    0  0.11765796533E+02 -0.12758308374E+02  0.93736339645E+01  0.19724943962E+02  0.00000000000E+00 0.  1.
</event>
<event>
 7    1  0.3331850E-011  0.5052887E+02  0.7816164E-02  0.1300439E+00
        -11   -1    0    0    0    0  0.00000000000E+00  0.00000000000E+00  0.45593999997E+02  0.45594000000E+02  0.51100000000E-03 0.  1.
         11   -1    0    0    0    0 -0.00000000000E+00 -0.00000000000E+00 -0.45593999997E+02  0.45594000000E+02  0.51100000000E-03 0. -1.
    9900012    2    1    2    0    0  0.19143738540E+02  0.16972934234E+01  0.35830177557E+02  0.50528866290E+02  0.30000019576E+02 0.  0.
         12    1    1    2    0    0 -0.19143738540E+02 -0.16972934234E+01 -0.35830177557E+02  0.40659133710E+02  0.00000000000E+00 0. -1.
         11    1    3    3    0    0  0.42251074575E+00  0.13242193211E+01  0.76258567911E+00  0.15854366338E+01  0.51100000000E-03 0. -1.
        -11    1    3    3    0    0 -0.44462335449E+01  0.73175219092E+01  0.15993061760E+02  0.18140924573E+02  0.51100000000E-03 0.  1.
         12    1    3    3    0    0  0.23167461339E+02 -0.69444478069E+01  0.19074530118E+02  0.30802505084E+02  0.00000000000E+00 0. -1.
</event>
<event>
 7    1  0.3331850E-011  0.5052886E+02  0.7816164E-02  0.1300439E+00
        -11   -1    0    0    0    0  0.00000000000E+00  0.00000000000E+00  0.45593999997E+02  0.45594000000E+02  0.51100000000E-03 0.  1.
         11   -1    0    0    0    0 -0.00000000000E+00 -0.00000000000E+00 -0.45593999997E+02  0.45594000000E+02  0.51100000000E-03 0. -1.
    9900012    2    1    2    0    0  0.26098311725E+02  0.27554810809E+02 -0.14586848302E+02  0.50528860597E+02  0.30000002271E+02 0.  0.
         12    1    1    2    0    0 -0.26098311725E+02 -0.27554810809E+02  0.14586848302E+02  0.40659139403E+02  0.00000000000E+00 0. -1.
         11    1    3    3    0    0  0.19596539968E+02  0.21469452887E+02 -0.28423608574E+01  0.29206862232E+02  0.51100000000E-03 0. -1.
        -11    1    3    3    0    0  0.15947815403E+01  0.40788062722E+01  0.32267514091E+01  0.54398450056E+01  0.51100000000E-03 0.  1.
         12    1    3    3    0    0  0.49069902173E+01  0.20065516496E+01 -0.14971238853E+02  0.15882153359E+02  0.00000000000E+00 0. -1.
</event>
<event>
 7    1  0.3331850E-011  0.5052886E+02  0.7816164E-02  0.1300439E+00
        -11   -1    0    0    0    0  0.00000000000E+00  0.00000000000E+00  0.45593999997E+02  0.45594000000E+02  0.51100000000E-03 0.  1.
         11   -1    0    0    0    0 -0.00000000000E+00 -0.00000000000E+00 -0.45593999997E+02  0.45594000000E+02  0.51100000000E-03 0. -1.
    9900012    2    1    2    0    0 -0.21766419313E+02  0.20728807181E+02  0.27380743030E+02  0.50528861473E+02  0.30000004934E+02 0.  0.
         12    1    1    2    0    0  0.21766419313E+02 -0.20728807181E+02 -0.27380743030E+02  0.40659138527E+02  0.00000000000E+00 0. -1.
         11    1    3    3    0    0  0.24969804058E+01 -0.19973620997E+01 -0.71608422176E+00  0.32767580591E+01  0.51100000000E-03 0. -1.
        -11    1    3    3    0    0 -0.32481804220E+01  0.15051946806E+02  0.13981026481E+02  0.20798578808E+02  0.51100000000E-03 0.  1.
        -12    1    3    3    0    0 -0.21015219297E+02  0.76742224745E+01  0.14115800770E+02  0.26453524606E+02  0.00000000000E+00 0.  1.
</event>
<event>
 7    1  0.3331850E-011  0.5052886E+02  0.7816164E-02  0.1300439E+00
        -11   -1    0    0    0    0  0.00000000000E+00  0.00000000000E+00  0.45593999997E+02  0.45594000000E+02  0.51100000000E-03 0.  1.
         11   -1    0    0    0    0 -0.00000000000E+00 -0.00000000000E+00 -0.45593999997E+02  0.45594000000E+02  0.51100000000E-03 0. -1.
    9900012    2    1    2    0    0  0.27056543667E+02 -0.28561856315E+02  0.10263026284E+02  0.50528857118E+02  0.29999991697E+02 0.  0.
         12    1    1    2    0    0 -0.27056543667E+02  0.28561856315E+02 -0.10263026284E+02  0.40659142882E+02  0.00000000000E+00 0. -1.
         11    1    3    3    0    0  0.10888527397E+01  0.17195354702E+01  0.62591623453E+01  0.65817563042E+01  0.51100000000E-03 0. -1.
        -11    1    3    3    0    0 -0.71634513806E+00  0.17287307986E+01 -0.72349300029E+00  0.20062659129E+01  0.51100000000E-03 0.  1.
        -12    1    3    3    0    0  0.26684036065E+02 -0.32010122584E+02  0.47273569391E+01  0.41940834901E+02  0.00000000000E+00 0.  1.
</event>
<event>
 7    1  0.3331850E-011  0.5052886E+02  0.7816164E-02  0.1300439E+00
        -11   -1    0    0    0    0  0.00000000000E+00  0.00000000000E+00  0.45593999997E+02  0.45594000000E+02  0.51100000000E-03 0. -1.
         11   -1    0    0    0    0 -0.00000000000E+00 -0.00000000000E+00 -0.45593999997E+02  0.45594000000E+02  0.51100000000E-03 0.  1.
    9900012    2    1    2    0    0 -0.11702096070E+01  0.38536646395E+02  0.12912141113E+02  0.50528857190E+02  0.29999991915E+02 0.  0.
         12    1    1    2    0    0  0.11702096070E+01 -0.38536646395E+02 -0.12912141113E+02  0.40659142810E+02  0.00000000000E+00 0. -1.
         11    1    3    3    0    0 -0.72355597156E-01 -0.16687254544E+00 -0.17370475056E+00  0.25150622328E+00  0.51100000000E-03 0. -1.
        -11    1    3    3    0    0  0.65304900727E+01  0.40610073297E+01 -0.62207200598E+01  0.98912304313E+01  0.51100000000E-03 0.  1.
         12    1    3    3    0    0 -0.76283440825E+01  0.34642511611E+02  0.19306565924E+02  0.40386120536E+02  0.00000000000E+00 0. -1.
</event>
<event>
 7    1  0.3331850E-011  0.5052885E+02  0.7816164E-02  0.1300439E+00
        -11   -1    0    0    0    0  0.00000000000E+00  0.00000000000E+00  0.45593999997E+02  0.45594000000E+02  0.51100000000E-03 0.  1.
         11   -1    0    0    0    0 -0.00000000000E+00 -0.00000000000E+00 -0.45593999997E+02  0.45594000000E+02  0.51100000000E-03 0. -1.
    9900012    2    1    2    0    0  0.15618757537E+01  0.38195868595E+02  0.13849268580E+02  0.50528854979E+02  0.29999985195E+02 0.  0.
         12    1    1    2    0    0 -0.15618757537E+01 -0.38195868595E+02 -0.13849268580E+02  0.40659145021E+02  0.00000000000E+00 0. -1.
         11    1    3    3    0    0  0.87362169024E+01  0.67487892696E+01  0.13159215179E+02  0.17176512648E+02  0.51100000000E-03 0. -1.
        -11    1    3    3    0    0  0.13494823962E+01  0.59669617931E+01  0.20443039401E+01  0.64501871786E+01  0.51100000000E-03 0.  1.
        -12    1    3    3    0    0 -0.85238235449E+01  0.25480117533E+02 -0.13542505393E+01  0.26902155152E+02  0.00000000000E+00 0.  1.
</event>
<event>
 7    1  0.3331850E-011  0.5052888E+02  0.7816164E-02  0.1300439E+00
        -11   -1    0    0    0    0  0.00000000000E+00  0.00000000000E+00  0.45593999997E+02  0.45594000000E+02  0.51100000000E-03 0.  1.
         11   -1    0    0    0    0 -0.00000000000E+00 -0.00000000000E+00 -0.45593999997E+02  0.45594000000E+02  0.51100000000E-03 0. -1.
    9900012    2    1    2    0    0  0.27862551039E+02  0.18859841689E+02 -0.22828672874E+02  0.50528884366E+02  0.30000074518E+02 0.  0.
         12    1    1    2    0    0 -0.27862551039E+02 -0.18859841689E+02  0.22828672874E+02  0.40659115634E+02  0.00000000000E+00 0. -1.
         11    1    3    3    0    0  0.18950584349E+01  0.41049886146E+00  0.30023993304E+00  0.19621162212E+01  0.51100000000E-03 0. -1.
        -11    1    3    3    0    0  0.12012204487E+02  0.85322172467E+01  0.50664177239E+01  0.15580769448E+02  0.51100000000E-03 0.  1.
         12    1    3    3    0    0  0.13955288117E+02  0.99171255807E+01 -0.28195330531E+02  0.32985998696E+02  0.00000000000E+00 0. -1.
</event>
<event>
 7    1  0.4643369E-011  0.5052886E+02  0.7816164E-02  0.1300439E+00
        -11   -1    0    0    0    0  0.00000000000E+00  0.00000000000E+00  0.45593999997E+02  0.45594000000E+02  0.51100000000E-03 0. -1.
         11   -1    0    0    0    0 -0.00000000000E+00 -0.00000000000E+00 -0.45593999997E+02  0.45594000000E+02  0.51100000000E-03 0.  1.
    9900012    2    1    2    0    0  0.62832003210E+01  0.10130032155E+02 -0.38872481007E+02  0.50528856657E+02  0.29999990295E+02 0.  0.
         12    1    1    2    0    0 -0.62832003210E+01 -0.10130032155E+02  0.38872481007E+02  0.40659143343E+02  0.00000000000E+00 0. -1.
         11    1    3    3    0    0  0.31943164627E+01  0.62960679916E+01 -0.18266379960E+02  0.19583277737E+02  0.51100000000E-03 0. -1.
        -11    1    3    3    0    0 -0.81659251656E+01  0.32445504474E+00 -0.16585363808E+02  0.18489507776E+02  0.51100000000E-03 0.  1.
         12    1    3    3    0    0  0.11254809024E+02  0.35095091190E+01 -0.40207372392E+01  0.12456071145E+02  0.00000000000E+00 0. -1.
</event>
<event>
 7    1  0.3331850E-011  0.5052886E+02  0.7816164E-02  0.1300439E+00
        -11   -1    0    0    0    0  0.00000000000E+00  0.00000000000E+00  0.45593999997E+02  0.45594000000E+02  0.51100000000E-03 0.  1.
         11   -1    0    0    0    0 -0.00000000000E+00 -0.00000000000E+00 -0.45593999997E+02  0.45594000000E+02  0.51100000000E-03 0. -1.
    9900012    2    1    2    0    0  0.30737002271E+02 -0.12319484253E+01  0.26587301204E+02  0.50528860918E+02  0.30000003247E+02 0.  0.
         12    1    1    2    0    0 -0.30737002271E+02  0.12319484253E+01 -0.26587301204E+02  0.40659139082E+02  0.00000000000E+00 0. -1.
         11    1    3    3    0    0  0.12589529565E+02  0.53514518307E+00 -0.95683480754E+00  0.12637174057E+02  0.51100000000E-03 0. -1.
        -11    1    3    3    0    0  0.17367947865E+02  0.11362981206E+01  0.99619655218E+01  0.20054364706E+02  0.51100000000E-03 0.  1.
        -12    1    3    3    0    0  0.77952484132E+00 -0.29033917290E+01  0.17582170490E+02  0.17837322155E+02  0.00000000000E+00 0.  1.
</event>
<event>
 7    1  0.3331850E-011  0.5052885E+02  0.7816164E-02  0.1300439E+00
        -11   -1    0    0    0    0  0.00000000000E+00  0.00000000000E+00  0.45593999997E+02  0.45594000000E+02  0.51100000000E-03 0. -1.
         11   -1    0    0    0    0 -0.00000000000E+00 -0.00000000000E+00 -0.45593999997E+02  0.45594000000E+02  0.51100000000E-03 0.  1.
    9900012    2    1    2    0    0  0.18294347026E+02  0.29622405018E+02 -0.20999906332E+02  0.50528854927E+02  0.29999985035E+02 0.  0.
         12    1    1    2    0    0 -0.18294347026E+02 -0.29622405018E+02  0.20999906332E+02  0.40659145073E+02  0.00000000000E+00 0. -1.
         11    1    3    3    0    0 -0.18786150983E+01  0.58805637553E+01 -0.13353081546E+02  0.14711050670E+02  0.51100000000E-03 0. -1.
        -11    1    3    3    0    0  0.55356242083E+01  0.30996552554E+01 -0.83694531790E+01  0.10502320927E+02  0.51100000000E-03 0.  1.
        -12    1    3    3    0    0  0.14637337916E+02  0.20642186007E+02  0.72262839376E+00  0.25315483330E+02  0.00000000000E+00 0.  1.
</event>
<event>
 7    1  0.3331850E-011  0.5052886E+02  0.7816164E-02  0.1300439E+00
        -11   -1    0    0    0    0  0.00000000000E+00  0.00000000000E+00  0.45593999997E+02  0.45594000000E+02  0.51100000000E-03 0.  1.
         11   -1    0    0    0    0 -0.00000000000E+00 -0.00000000000E+00 -0.45593999997E+02  0.45594000000E+02  0.51100000000E-03 0. -1.
    9900012    2    1    2    0    0 -0.28361497039E+02  0.61772463443E+01  0.28471606666E+02  0.50528864829E+02  0.30000015134E+02 0.  0.
         12    1    1    2    0    0  0.28361497039E+02 -0.61772463443E+01 -0.28471606666E+02  0.40659135171E+02  0.00000000000E+00 0. -1.
         11    1    3    3    0    0 -0.16476910602E+02  0.10776386891E+00  0.53976232246E+01  0.17338815784E+02  0.51100000000E-03 0. -1.
        -11    1    3    3    0    0 -0.32325856191E+01  0.31416117486E+00 -0.34288537575E+01  0.47228535209E+01  0.51100000000E-03 0.  1.
        -12    1    3    3    0    0 -0.86520008180E+01  0.57553213005E+01  0.26502837199E+02  0.28467195524E+02  0.00000000000E+00 0.  1.
</event>
<event>
 7    1  0.3331850E-011  0.5052886E+02  0.7816164E-02  0.1300439E+00
        -11   -1    0    0    0    0  0.00000000000E+00  0.00000000000E+00  0.45593999997E+02  0.45594000000E+02  0.51100000000E-03 0.  1.
         11   -1    0    0    0    0 -0.00000000000E+00 -0.00000000000E+00 -0.45593999997E+02  0.45594000000E+02  0.51100000000E-03 0. -1.
    9900012    2    1    2    0    0 -0.40311353410E+02 -0.40621089574E+01 -0.34146134426E+01  0.50528861693E+02  0.30000005601E+02 0.  0.
         12    1    1    2    0    0  0.40311353410E+02  0.40621089574E+01  0.34146134426E+01  0.40659138307E+02  0.00000000000E+00 0. -1.
         11    1    3    3    0    0 -0.10190772990E+02 -0.11245826729E+02 -0.10700879086E+01  0.15213992288E+02  0.51100000000E-03 0.  1.
        -11    1    3    3    0    0 -0.28218847069E+02  0.13196117008E+01 -0.48452757449E+01  0.28662194651E+02  0.51100000000E-03 0. -1.
        -12    1    3    3    0    0 -0.19017333517E+01  0.58641060710E+01  0.25007502109E+01  0.66526747531E+01  0.00000000000E+00 0.  1.
</event>
<event>
 7    1  0.3331850E-011  0.5052885E+02  0.7816164E-02  0.1300439E+00
        -11   -1    0    0    0    0  0.00000000000E+00  0.00000000000E+00  0.45593999997E+02  0.45594000000E+02  0.51100000000E-03 0.  1.
         11   -1    0    0    0    0 -0.00000000000E+00 -0.00000000000E+00 -0.45593999997E+02  0.45594000000E+02  0.51100000000E-03 0. -1.
    9900012    2    1    2    0    0  0.11766211759E+02 -0.88325418097E+01  0.37903942683E+02  0.50528850908E+02  0.29999972819E+02 0.  0.
         12    1    1    2    0    0 -0.11766211759E+02  0.88325418097E+01 -0.37903942683E+02  0.40659149092E+02  0.00000000000E+00 0. -1.
         11    1    3    3    0    0  0.42399158558E+01 -0.16381600362E+01 -0.16925289516E+01  0.48502689907E+01  0.51100000000E-03 0. -1.
        -11    1    3    3    0    0 -0.29090334158E+01  0.53496084252E+01  0.14701251226E+02  0.15912497403E+02  0.51100000000E-03 0.  1.
        -12    1    3    3    0    0  0.10435329319E+02 -0.12543990199E+02  0.24895220409E+02  0.29766084514E+02  0.00000000000E+00 0.  1.
</event>
<event>
 7    1  0.3331850E-011  0.5052887E+02  0.7816164E-02  0.1300439E+00
        -11   -1    0    0    0    0  0.00000000000E+00  0.00000000000E+00  0.45593999997E+02  0.45594000000E+02  0.51100000000E-03 0.  1.
         11   -1    0    0    0    0 -0.00000000000E+00 -0.00000000000E+00 -0.45593999997E+02  0.45594000000E+02  0.51100000000E-03 0. -1.
    9900012    2    1    2    0    0 -0.10670307468E+02 -0.27549408700E+01  0.39137195672E+02  0.50528865162E+02  0.30000016148E+02 0.  0.
         12    1    1    2    0    0  0.10670307468E+02  0.27549408700E+01 -0.39137195672E+02  0.40659134838E+02  0.00000000000E+00 0. -1.
         11    1    3    3    0    0 -0.27735847166E+01 -0.24639817723E+00 -0.33038290206E+01  0.43207372866E+01  0.51100000000E-03 0. -1.
        -11    1    3    3    0    0 -0.16774305420E+01  0.26165847588E+01  0.10287267178E+00  0.31098025775E+01  0.51100000000E-03 0.  1.
        -12    1    3    3    0    0 -0.62192922096E+01 -0.51251274517E+01  0.42338152021E+02  0.43098325298E+02  0.00000000000E+00 0.  1.
</event>
<event>
 7    1  0.3331850E-011  0.5052877E+02  0.7816164E-02  0.1300439E+00
        -11   -1    0    0    0    0  0.00000000000E+00  0.00000000000E+00  0.45593999997E+02  0.45594000000E+02  0.51100000000E-03 0.  1.
         11   -1    0    0    0    0 -0.00000000000E+00 -0.00000000000E+00 -0.45593999997E+02  0.45594000000E+02  0.51100000000E-03 0. -1.
    9900012    2    1    2    0    0 -0.31120783747E+01 -0.26200635627E+02  0.30935654705E+02  0.50528768931E+02  0.29999723643E+02 0.  0.
         12    1    1    2    0    0  0.31120783747E+01  0.26200635627E+02 -0.30935654705E+02  0.40659231069E+02  0.00000000000E+00 0. -1.
         11    1    3    3    0    0  0.79443692965E+01 -0.20933382523E+02  0.28235214580E+02  0.36035355556E+02  0.51100000000E-03 0.  1.
        -11    1    3    3    0    0 -0.91305923867E+01 -0.30667111342E+01  0.49261613359E+01  0.10818479573E+02  0.51100000000E-03 0. -1.
        -12    1    3    3    0    0 -0.19258552844E+01 -0.22005419705E+01 -0.22257212116E+01  0.36749338025E+01  0.00000000000E+00 0.  1.
</event>
<event>
 7    1  0.3331850E-011  0.5052885E+02  0.7816164E-02  0.1300439E+00
        -11   -1    0    0    0    0  0.00000000000E+00  0.00000000000E+00  0.45593999997E+02  0.45594000000E+02  0.51100000000E-03 0.  1.
         11   -1    0    0    0    0 -0.00000000000E+00 -0.00000000000E+00 -0.45593999997E+02  0.45594000000E+02  0.51100000000E-03 0. -1.
    9900012    2    1    2    0    0 -0.15200972673E+02 -0.50483603239E+01  0.37371254529E+02  0.50528853708E+02  0.29999981330E+02 0.  0.
         12    1    1    2    0    0  0.15200972673E+02  0.50483603239E+01 -0.37371254529E+02  0.40659146292E+02  0.00000000000E+00 0. -1.
         11    1    3    3    0    0 -0.32677707303E+01  0.38701315583E+01  0.62703993523E+01  0.80606545716E+01  0.51100000000E-03 0. -1.
        -11    1    3    3    0    0  0.51588926527E+01  0.31781976529E+01  0.14602974958E+02  0.15810186325E+02  0.51100000000E-03 0.  1.
        -12    1    3    3    0    0 -0.17092094596E+02 -0.12096689535E+02  0.16497880218E+02  0.26658012812E+02  0.00000000000E+00 0.  1.
</event>
<event>
 7    1  0.3331850E-011  0.5052886E+02  0.7816164E-02  0.1300439E+00
        -11   -1    0    0    0    0  0.00000000000E+00  0.00000000000E+00  0.45593999997E+02  0.45594000000E+02  0.51100000000E-03 0.  1.
         11   -1    0    0    0    0 -0.00000000000E+00 -0.00000000000E+00 -0.45593999997E+02  0.45594000000E+02  0.51100000000E-03 0. -1.
    9900012    2    1    2    0    0  0.28555740973E+02 -0.28652165407E+02 -0.40973644650E+01  0.50528864242E+02  0.30000013349E+02 0.  0.
         12    1    1    2    0    0 -0.28555740973E+02  0.28652165407E+02  0.40973644650E+01  0.40659135758E+02  0.00000000000E+00 0. -1.
         11    1    3    3    0    0  0.17844964771E+02 -0.57737559076E+01  0.91937261120E+00  0.18778292553E+02  0.51100000000E-03 0. -1.
        -11    1    3    3    0    0  0.99096935983E+01 -0.54074862721E+01  0.41213877533E+01  0.12017852232E+02  0.51100000000E-03 0.  1.
        -12    1    3    3    0    0  0.80108260412E+00 -0.17470923227E+02 -0.91381248295E+01  0.19732719457E+02  0.00000000000E+00 0.  1.
</event>
<event>
 7    1  0.3331850E-011  0.5052886E+02  0.7816164E-02  0.1300439E+00
        -11   -1    0    0    0    0  0.00000000000E+00  0.00000000000E+00  0.45593999997E+02  0.45594000000E+02  0.51100000000E-03 0. -1.
         11   -1    0    0    0    0 -0.00000000000E+00 -0.00000000000E+00 -0.45593999997E+02  0.45594000000E+02  0.51100000000E-03 0.  1.
    9900012    2    1    2    0    0 -0.14351805129E+02 -0.37999171715E+02  0.18039783881E+01  0.50528859583E+02  0.29999999187E+02 0.  0.
         12    1    1    2    0    0  0.14351805129E+02  0.37999171715E+02 -0.18039783881E+01  0.40659140417E+02  0.00000000000E+00 0. -1.
         11    1    3    3    0    0  0.24774669491E+01 -0.28177101193E+01  0.54463206100E+01  0.66136027434E+01  0.51100000000E-03 0. -1.
        -11    1    3    3    0    0  0.13150304823E+01 -0.85893577944E+00  0.40440297780E+01  0.43383467991E+01  0.51100000000E-03 0.  1.
        -12    1    3    3    0    0 -0.18144302561E+02 -0.34322525816E+02 -0.76863719999E+01  0.39576910040E+02  0.00000000000E+00 0.  1.
</event>
<event>
 7    1  0.7616237E-011  0.5052886E+02  0.7816164E-02  0.1300439E+00
        -11   -1    0    0    0    0  0.00000000000E+00  0.00000000000E+00  0.45593999997E+02  0.45594000000E+02  0.51100000000E-03 0. -1.
         11   -1    0    0    0    0 -0.00000000000E+00 -0.00000000000E+00 -0.45593999997E+02  0.45594000000E+02  0.51100000000E-03 0.  1.
    9900012    2    1    2    0    0 -0.17657694099E+02  0.14387442025E+02 -0.33680458418E+02  0.50528856771E+02  0.29999990640E+02 0.  0.
         12    1    1    2    0    0  0.17657694099E+02 -0.14387442025E+02  0.33680458418E+02  0.40659143229E+02  0.00000000000E+00 0. -1.
         11    1    3    3    0    0 -0.11398190689E+02  0.13380389211E+02 -0.15021258984E+02  0.23121241060E+02  0.51100000000E-03 0. -1.
        -11    1    3    3    0    0 -0.83869019628E+01  0.81271081140E+01 -0.15312207799E+02  0.19257562638E+02  0.51100000000E-03 0.  1.
         12    1    3    3    0    0  0.21273985528E+01 -0.71200552999E+01 -0.33469916342E+01  0.81500530720E+01  0.00000000000E+00 0. -1.
</event>
<event>
 7    1  0.3331850E-011  0.5052885E+02  0.7816164E-02  0.1300439E+00
        -11   -1    0    0    0    0  0.00000000000E+00  0.00000000000E+00  0.45593999997E+02  0.45594000000E+02  0.51100000000E-03 0. -1.
         11   -1    0    0    0    0 -0.00000000000E+00 -0.00000000000E+00 -0.45593999997E+02  0.45594000000E+02  0.51100000000E-03 0.  1.
    9900012    2    1    2    0    0  0.51808519345E+00 -0.19601128472E+02 -0.35618725257E+02  0.50528852953E+02  0.29999979035E+02 0.  0.
         12    1    1    2    0    0 -0.51808519345E+00  0.19601128472E+02  0.35618725257E+02  0.40659147047E+02  0.00000000000E+00 0. -1.
         11    1    3    3    0    0 -0.74077417341E+00  0.21499812739E+01 -0.31568709720E+00  0.22958276195E+01  0.51100000000E-03 0.  1.
        -11    1    3    3    0    0 -0.96922316911E+01 -0.81473053304E+01 -0.57511779665E+01  0.13906616683E+02  0.51100000000E-03 0. -1.
        -12    1    3    3    0    0  0.10951091058E+02 -0.13603804415E+02 -0.29551860194E+02  0.34326408650E+02  0.00000000000E+00 0.  1.
</event>
<event>
 7    1  0.3331850E-011  0.5052892E+02  0.7816164E-02  0.1300439E+00
        -11   -1    0    0    0    0  0.00000000000E+00  0.00000000000E+00  0.45593999997E+02  0.45594000000E+02  0.51100000000E-03 0. -1.
         11   -1    0    0    0    0 -0.00000000000E+00 -0.00000000000E+00 -0.45593999997E+02  0.45594000000E+02  0.51100000000E-03 0.  1.
    9900012    2    1    2    0    0 -0.40117619525E+02 -0.58614195906E+01 -0.30628546403E+01  0.50528920884E+02  0.30000185519E+02 0.  0.
         12    1    1    2    0    0  0.40117619525E+02  0.58614195906E+01  0.30628546403E+01  0.40659079116E+02  0.00000000000E+00 0. -1.
         11    1    3    3    0    0 -0.10864330717E+02  0.47889968337E+01  0.37043807058E+01  0.12437467961E+02  0.51100000000E-03 0. -1.
        -11    1    3    3    0    0 -0.13608516790E+02  0.49332000408E+01  0.14112531301E+01  0.14543721241E+02  0.51100000000E-03 0.  1.
        -12    1    3    3    0    0 -0.15644772018E+02 -0.15583616465E+02 -0.81784884762E+01  0.23547731682E+02  0.00000000000E+00 0.  1.
</event>
<event>
 7    1  0.3331850E-011  0.5052885E+02  0.7816164E-02  0.1300439E+00
        -11   -1    0    0    0    0  0.00000000000E+00  0.00000000000E+00  0.45593999997E+02  0.45594000000E+02  0.51100000000E-03 0.  1.
         11   -1    0    0    0    0 -0.00000000000E+00 -0.00000000000E+00 -0.45593999997E+02  0.45594000000E+02  0.51100000000E-03 0. -1.
    9900012    2    1    2    0    0  0.64073082734E+01  0.20137735188E+01  0.40100594534E+02  0.50528848938E+02  0.29999966832E+02 0.  0.
         12    1    1    2    0    0 -0.64073082734E+01 -0.20137735188E+01 -0.40100594534E+02  0.40659151062E+02  0.00000000000E+00 0. -1.
         11    1    3    3    0    0  0.62784859026E+01  0.46784747000E+01  0.94824840782E+00  0.78871215314E+01  0.51100000000E-03 0. -1.
        -11    1    3    3    0    0  0.58096353125E+01  0.47787056650E+01  0.16788967542E+02  0.18397209617E+02  0.51100000000E-03 0.  1.
        -12    1    3    3    0    0 -0.56808129416E+01 -0.74434068462E+01  0.22363378584E+02  0.24244517790E+02  0.00000000000E+00 0.  1.
</event>
<event>
 7    1  0.3331850E-011  0.5052886E+02  0.7816164E-02  0.1300439E+00
        -11   -1    0    0    0    0  0.00000000000E+00  0.00000000000E+00  0.45593999997E+02  0.45594000000E+02  0.51100000000E-03 0.  1.
         11   -1    0    0    0    0 -0.00000000000E+00 -0.00000000000E+00 -0.45593999997E+02  0.45594000000E+02  0.51100000000E-03 0. -1.
    9900012    2    1    2    0    0  0.26148531742E+02 -0.27194905465E+02  0.15161043380E+02  0.50528857955E+02  0.29999994240E+02 0.  0.
         12    1    1    2    0    0 -0.26148531742E+02  0.27194905465E+02 -0.15161043380E+02  0.40659142045E+02  0.00000000000E+00 0. -1.
         11    1    3    3    0    0  0.30003270401E+01 -0.61443212186E+01 -0.40920638083E+01  0.79686656385E+01  0.51100000000E-03 0. -1.
        -11    1    3    3    0    0  0.67136956229E+00  0.22295078323E+01 -0.26170162772E+01  0.35028869122E+01  0.51100000000E-03 0.  1.
        -12    1    3    3    0    0  0.22476835139E+02 -0.23280092078E+02  0.21870123465E+02  0.39057305404E+02  0.00000000000E+00 0.  1.
</event>
<event>
 7    1  0.3331850E-011  0.5052886E+02  0.7816164E-02  0.1300439E+00
        -11   -1    0    0    0    0  0.00000000000E+00  0.00000000000E+00  0.45593999997E+02  0.45594000000E+02  0.51100000000E-03 0. -1.
         11   -1    0    0    0    0 -0.00000000000E+00 -0.00000000000E+00 -0.45593999997E+02  0.45594000000E+02  0.51100000000E-03 0.  1.
    9900012    2    1    2    0    0  0.38176282401E+02 -0.28750893329E+01 -0.13692014102E+02  0.50528856787E+02  0.29999990690E+02 0.  0.
         12    1    1    2    0    0 -0.38176282401E+02  0.28750893329E+01  0.13692014102E+02  0.40659143213E+02  0.00000000000E+00 0. -1.
         11    1    3    3    0    0  0.14163849259E+01 -0.15912583014E+01 -0.28695743965E+01  0.35738923764E+01  0.51100000000E-03 0. -1.
        -11    1    3    3    0    0  0.39720159206E+02 -0.19800578049E+01 -0.14366673823E+02  0.42284902664E+02  0.51100000000E-03 0.  1.
        -12    1    3    3    0    0 -0.29602617309E+01  0.69622677347E+00  0.35442341180E+01  0.46700617468E+01  0.00000000000E+00 0.  1.
</event>
<event>
 7    1  0.3841240E-011  0.5052886E+02  0.7816164E-02  0.1300439E+00
        -11   -1    0    0    0    0  0.00000000000E+00  0.00000000000E+00  0.45593999997E+02  0.45594000000E+02  0.51100000000E-03 0. -1.
         11   -1    0    0    0    0 -0.00000000000E+00 -0.00000000000E+00 -0.45593999997E+02  0.45594000000E+02  0.51100000000E-03 0.  1.
    9900012    2    1    2    0    0 -0.32346535382E+02  0.23986902707E+02 -0.56120842647E+01  0.50528863973E+02  0.30000012531E+02 0.  0.
         12    1    1    2    0    0  0.32346535382E+02 -0.23986902707E+02  0.56120842647E+01  0.40659136027E+02  0.00000000000E+00 0. -1.
         11    1    3    3    0    0 -0.15846468859E+02  0.10526577109E+02  0.26139063008E+01  0.19202914033E+02  0.51100000000E-03 0. -1.
        -11    1    3    3    0    0 -0.16297568096E+02  0.18024977165E+02 -0.31619424269E+01  0.24505273061E+02  0.51100000000E-03 0.  1.
         12    1    3    3    0    0 -0.20249842720E+00 -0.45646515666E+01 -0.50640481386E+01  0.68206768790E+01  0.00000000000E+00 0. -1.
</event>
<event>
 7    1  0.3331850E-011  0.5052886E+02  0.7816164E-02  0.1300439E+00
        -11   -1    0    0    0    0  0.00000000000E+00  0.00000000000E+00  0.45593999997E+02  0.45594000000E+02  0.51100000000E-03 0.  1.
         11   -1    0    0    0    0 -0.00000000000E+00 -0.00000000000E+00 -0.45593999997E+02  0.45594000000E+02  0.51100000000E-03 0. -1.
    9900012    2    1    2    0    0  0.23543913379E+02 -0.10099025237E+02  0.31573081044E+02  0.50528860628E+02  0.30000002363E+02 0.  0.
         12    1    1    2    0    0 -0.23543913379E+02  0.10099025237E+02 -0.31573081044E+02  0.40659139372E+02  0.00000000000E+00 0. -1.
         11    1    3    3    0    0 -0.15764055156E+01 -0.15434845477E+01  0.10932180434E+02  0.11152576752E+02  0.51100000000E-03 0.  1.
        -11    1    3    3    0    0  0.61308559284E+01  0.61971358218E+01  0.19827064092E+01  0.89399671014E+01  0.51100000000E-03 0. -1.
        -12    1    3    3    0    0  0.18989462966E+02 -0.14752676511E+02  0.18658194200E+02  0.30436316774E+02  0.00000000000E+00 0.  1.
</event>
<event>
 7    1  0.3331850E-011  0.5052886E+02  0.7816164E-02  0.1300439E+00
        -11   -1    0    0    0    0  0.00000000000E+00  0.00000000000E+00  0.45593999997E+02  0.45594000000E+02  0.51100000000E-03 0.  1.
         11   -1    0    0    0    0 -0.00000000000E+00 -0.00000000000E+00 -0.45593999997E+02  0.45594000000E+02  0.51100000000E-03 0. -1.
    9900012    2    1    2    0    0  0.30474385553E+02 -0.20797757878E+01  0.26835640895E+02  0.50528864933E+02  0.30000015450E+02 0.  0.
         12    1    1    2    0    0 -0.30474385553E+02  0.20797757878E+01 -0.26835640895E+02  0.40659135067E+02  0.00000000000E+00 0. -1.
         11    1    3    3    0    0  0.80048200469E+00  0.20223903849E+01 -0.24604171149E+01  0.32839742614E+01  0.51100000000E-03 0.  1.
        -11    1    3    3    0    0 -0.32606672535E+01  0.13759109529E+01  0.41080077572E+01  0.54222513666E+01  0.51100000000E-03 0. -1.
        -12    1    3    3    0    0  0.32934570801E+02 -0.54780771256E+01  0.25188050253E+02  0.41822639305E+02  0.00000000000E+00 0.  1.
</event>
<event>
 7    1  0.3331850E-011  0.5052886E+02  0.7816164E-02  0.1300439E+00
        -11   -1    0    0    0    0  0.00000000000E+00  0.00000000000E+00  0.45593999997E+02  0.45594000000E+02  0.51100000000E-03 0. -1.
         11   -1    0    0    0    0 -0.00000000000E+00 -0.00000000000E+00 -0.45593999997E+02  0.45594000000E+02  0.51100000000E-03 0.  1.
    9900012    2    1    2    0    0 -0.21849126390E+02  0.33993625425E+02 -0.44961078827E+01  0.50528857367E+02  0.29999992454E+02 0.  0.
         12    1    1    2    0    0  0.21849126390E+02 -0.33993625425E+02  0.44961078827E+01  0.40659142633E+02  0.00000000000E+00 0. -1.
         11    1    3    3    0    0 -0.70877202895E+01  0.81615075006E+01  0.50195362094E+01  0.11918126011E+02  0.51100000000E-03 0. -1.
        -11    1    3    3    0    0 -0.39870069293E+01 -0.17263815026E+01  0.41584688308E+01  0.60141068019E+01  0.51100000000E-03 0.  1.
        -12    1    3    3    0    0 -0.10774399171E+02  0.27558499427E+02 -0.13674112923E+02  0.32596624555E+02  0.00000000000E+00 0.  1.
</event>
<event>
 7    1  0.3331850E-011  0.5052886E+02  0.7816164E-02  0.1300439E+00
        -11   -1    0    0    0    0  0.00000000000E+00  0.00000000000E+00  0.45593999997E+02  0.45594000000E+02  0.51100000000E-03 0.  1.
         11   -1    0    0    0    0 -0.00000000000E+00 -0.00000000000E+00 -0.45593999997E+02  0.45594000000E+02  0.51100000000E-03 0. -1.
    9900012    2    1    2    0    0 -0.90020539876E+01 -0.21377155259E+02  0.33393798720E+02  0.50528861594E+02  0.30000005302E+02 0.  0.
         12    1    1    2    0    0  0.90020539876E+01  0.21377155259E+02 -0.33393798720E+02  0.40659138406E+02  0.00000000000E+00 0. -1.
         11    1    3    3    0    0 -0.55223357922E+01 -0.86041739785E+01 -0.20139680156E+01  0.10420368030E+02  0.51100000000E-03 0. -1.
        -11    1    3    3    0    0 -0.37710230320E+01 -0.11219587140E+02  0.12755741633E+02  0.17401399230E+02  0.51100000000E-03 0.  1.
         12    1    3    3    0    0  0.29130483665E+00 -0.15533941411E+01  0.22652025103E+02  0.22707094334E+02  0.00000000000E+00 0. -1.
</event>
<event>
 7    1  0.3331850E-011  0.5052886E+02  0.7816164E-02  0.1300439E+00
        -11   -1    0    0    0    0  0.00000000000E+00  0.00000000000E+00  0.45593999997E+02  0.45594000000E+02  0.51100000000E-03 0.  1.
         11   -1    0    0    0    0 -0.00000000000E+00 -0.00000000000E+00 -0.45593999997E+02  0.45594000000E+02  0.51100000000E-03 0. -1.
    9900012    2    1    2    0    0 -0.11404018102E+02 -0.30122147135E+02  0.24814722475E+02  0.50528857997E+02  0.29999994367E+02 0.  0.
         12    1    1    2    0    0  0.11404018102E+02  0.30122147135E+02 -0.24814722475E+02  0.40659142003E+02  0.00000000000E+00 0. -1.
         11    1    3    3    0    0 -0.67489354084E+01 -0.48827983093E+00 -0.53802300109E+00  0.67879315959E+01  0.51100000000E-03 0. -1.
        -11    1    3    3    0    0 -0.60807204723E+01 -0.11915976542E+02  0.76326905450E+00  0.13399561124E+02  0.51100000000E-03 0.  1.
        -12    1    3    3    0    0  0.14256377786E+01 -0.17717890763E+02  0.24589476422E+02  0.30341365277E+02  0.00000000000E+00 0.  1.
</event>
<event>
 7    1  0.3331850E-011  0.5052886E+02  0.7816164E-02  0.1300439E+00
        -11   -1    0    0    0    0  0.00000000000E+00  0.00000000000E+00  0.45593999997E+02  0.45594000000E+02  0.51100000000E-03 0.  1.
         11   -1    0    0    0    0 -0.00000000000E+00 -0.00000000000E+00 -0.45593999997E+02  0.45594000000E+02  0.51100000000E-03 0. -1.
    9900012    2    1    2    0    0  0.24033144108E+02 -0.23737874407E+02  0.22629340978E+02  0.50528858714E+02  0.29999996546E+02 0.  0.
         12    1    1    2    0    0 -0.24033144108E+02  0.23737874407E+02 -0.22629340978E+02  0.40659141286E+02  0.00000000000E+00 0. -1.
         11    1    3    3    0    0  0.61166905092E+01  0.11428765305E-01 -0.16287070519E+01  0.63298278274E+01  0.51100000000E-03 0.  1.
        -11    1    3    3    0    0  0.43128093682E+01 -0.72169172588E+01 -0.35311663955E+01  0.91188461847E+01  0.51100000000E-03 0. -1.
        -12    1    3    3    0    0  0.13603644231E+02 -0.16532385913E+02  0.27789214425E+02  0.35080184702E+02  0.00000000000E+00 0.  1.
</event>
<event>
 7    1  0.3331850E-011  0.5052887E+02  0.7816164E-02  0.1300439E+00
        -11   -1    0    0    0    0  0.00000000000E+00  0.00000000000E+00  0.45593999997E+02  0.45594000000E+02  0.51100000000E-03 0.  1.
         11   -1    0    0    0    0 -0.00000000000E+00 -0.00000000000E+00 -0.45593999997E+02  0.45594000000E+02  0.51100000000E-03 0. -1.
    9900012    2    1    2    0    0  0.15776172076E+02 -0.10688585850E+02  0.35917006872E+02  0.50528869962E+02  0.30000030736E+02 0.  0.
         12    1    1    2    0    0 -0.15776172076E+02  0.10688585850E+02 -0.35917006872E+02  0.40659130038E+02  0.00000000000E+00 0. -1.
         11    1    3    3    0    0 -0.12638386683E+01  0.64596505473E+01  0.11779583316E+02  0.13493811794E+02  0.51100000000E-03 0. -1.
        -11    1    3    3    0    0 -0.10397533203E+01  0.81945129025E+00  0.49690873824E+01  0.51424135441E+01  0.51100000000E-03 0.  1.
        -12    1    3    3    0    0  0.18079764064E+02 -0.17967687687E+02  0.19168336174E+02  0.31892644624E+02  0.00000000000E+00 0.  1.
</event>
<event>
 7    1  0.3331850E-011  0.5052885E+02  0.7816164E-02  0.1300439E+00
        -11   -1    0    0    0    0  0.00000000000E+00  0.00000000000E+00  0.45593999997E+02  0.45594000000E+02  0.51100000000E-03 0. -1.
         11   -1    0    0    0    0 -0.00000000000E+00 -0.00000000000E+00 -0.45593999997E+02  0.45594000000E+02  0.51100000000E-03 0.  1.
    9900012    2    1    2    0    0  0.31125621148E+02  0.25594193307E+02  0.54128976002E+01  0.50528849943E+02  0.29999969888E+02 0.  0.
         12    1    1    2    0    0 -0.31125621148E+02 -0.25594193307E+02 -0.54128976002E+01  0.40659150057E+02  0.00000000000E+00 0. -1.
         11    1    3    3    0    0  0.31896452650E+00 -0.39836820276E+00 -0.55244169633E+01  0.55479382333E+01  0.51100000000E-03 0. -1.
        -11    1    3    3    0    0  0.21809957583E+02  0.13649782892E+02 -0.76347121340E+00  0.25740507208E+02  0.51100000000E-03 0.  1.
         12    1    3    3    0    0  0.89966990384E+01  0.12342778618E+02  0.11700785777E+02  0.19240404502E+02  0.00000000000E+00 0. -1.
</event>
<event>
 7    1  0.3331850E-011  0.5052887E+02  0.7816164E-02  0.1300439E+00
        -11   -1    0    0    0    0  0.00000000000E+00  0.00000000000E+00  0.45593999997E+02  0.45594000000E+02  0.51100000000E-03 0.  1.
         11   -1    0    0    0    0 -0.00000000000E+00 -0.00000000000E+00 -0.45593999997E+02  0.45594000000E+02  0.51100000000E-03 0. -1.
    9900012    2    1    2    0    0 -0.59427837802E+01 -0.29333166703E+02  0.27521145629E+02  0.50528870587E+02  0.30000032637E+02 0.  0.
         12    1    1    2    0    0  0.59427837802E+01  0.29333166703E+02 -0.27521145629E+02  0.40659129413E+02  0.00000000000E+00 0. -1.
         11    1    3    3    0    0  0.19844087431E+01 -0.13598394500E+01  0.10491921868E+02  0.10764175126E+02  0.51100000000E-03 0.  1.
        -11    1    3    3    0    0  0.20831922834E+01 -0.10150904969E+02  0.16294261415E+02  0.19310192053E+02  0.51100000000E-03 0. -1.
         12    1    3    3    0    0 -0.10010384807E+02 -0.17822422284E+02  0.73496234536E+00  0.20454503409E+02  0.00000000000E+00 0. -1.
</event>
<event>
 7    1  0.3331850E-011  0.5052886E+02  0.7816164E-02  0.1300439E+00
        -11   -1    0    0    0    0  0.00000000000E+00  0.00000000000E+00  0.45593999997E+02  0.45594000000E+02  0.51100000000E-03 0.  1.
         11   -1    0    0    0    0 -0.00000000000E+00 -0.00000000000E+00 -0.45593999997E+02  0.45594000000E+02  0.51100000000E-03 0. -1.
    9900012    2    1    2    0    0  0.17653971923E+02 -0.24882030538E+02  0.26877269412E+02  0.50528858599E+02  0.29999996199E+02 0.  0.
         12    1    1    2    0    0 -0.17653971923E+02  0.24882030538E+02 -0.26877269412E+02  0.40659141401E+02  0.00000000000E+00 0. -1.
         11    1    3    3    0    0 -0.33827181118E+01  0.24609579977E+01  0.31773718360E+01  0.52530741605E+01  0.51100000000E-03 0. -1.
        -11    1    3    3    0    0  0.54481894750E+01 -0.11449212197E+01  0.10846488087E+02  0.12191797129E+02  0.51100000000E-03 0.  1.
        -12    1    3    3    0    0  0.15588500560E+02 -0.26198067316E+02  0.12853409490E+02  0.33083987310E+02  0.00000000000E+00 0.  1.
</event>
<event>
 7    1  0.3331850E-011  0.5052882E+02  0.7816164E-02  0.1300439E+00
        -11   -1    0    0    0    0  0.00000000000E+00  0.00000000000E+00  0.45593999997E+02  0.45594000000E+02  0.51100000000E-03 0.  1.
         11   -1    0    0    0    0 -0.00000000000E+00 -0.00000000000E+00 -0.45593999997E+02  0.45594000000E+02  0.51100000000E-03 0. -1.
    9900012    2    1    2    0    0 -0.16422647046E+02  0.36898006171E+02  0.46907131012E+01  0.50528819182E+02  0.29999876386E+02 0.  0.
         12    1    1    2    0    0  0.16422647046E+02 -0.36898006171E+02 -0.46907131012E+01  0.40659180818E+02  0.00000000000E+00 0. -1.
         11    1    3    3    0    0  0.43912383782E+01  0.48158458526E+00 -0.41737333554E+00  0.44372400171E+01  0.51100000000E-03 0. -1.
        -11    1    3    3    0    0  0.24376699269E+01  0.10878200010E+02  0.26999515875E+01  0.11470275017E+02  0.51100000000E-03 0.  1.
        -12    1    3    3    0    0 -0.23251555351E+02  0.25538221576E+02  0.24081348492E+01  0.34621304149E+02  0.00000000000E+00 0.  1.
</event>
<event>
 7    1  0.3331850E-011  0.5052886E+02  0.7816164E-02  0.1300439E+00
        -11   -1    0    0    0    0  0.00000000000E+00  0.00000000000E+00  0.45593999997E+02  0.45594000000E+02  0.51100000000E-03 0.  1.
         11   -1    0    0    0    0 -0.00000000000E+00 -0.00000000000E+00 -0.45593999997E+02  0.45594000000E+02  0.51100000000E-03 0. -1.
    9900012    2    1    2    0    0 -0.24740441092E+02 -0.28006873975E+02  0.16021586978E+02  0.50528860012E+02  0.30000000492E+02 0.  0.
         12    1    1    2    0    0  0.24740441092E+02  0.28006873975E+02 -0.16021586978E+02  0.40659139988E+02  0.00000000000E+00 0. -1.
         11    1    3    3    0    0 -0.24079053847E+01 -0.40767339954E+01  0.67279211830E+01  0.82269491378E+01  0.51100000000E-03 0. -1.
        -11    1    3    3    0    0 -0.18612639298E+01 -0.12718452334E+02  0.13438706062E+02  0.18596294095E+02  0.51100000000E-03 0.  1.
         12    1    3    3    0    0 -0.20471271778E+02 -0.11211687646E+02 -0.41450402670E+01  0.23705616779E+02  0.00000000000E+00 0. -1.
</event>
<event>
 7    1  0.3331850E-011  0.5052886E+02  0.7816164E-02  0.1300439E+00
        -11   -1    0    0    0    0  0.00000000000E+00  0.00000000000E+00  0.45593999997E+02  0.45594000000E+02  0.51100000000E-03 0.  1.
         11   -1    0    0    0    0 -0.00000000000E+00 -0.00000000000E+00 -0.45593999997E+02  0.45594000000E+02  0.51100000000E-03 0. -1.
    9900012    2    1    2    0    0 -0.35405420467E+02 -0.11607577705E+02 -0.16275329895E+02  0.50528855619E+02  0.29999987138E+02 0.  0.
         12    1    1    2    0    0  0.35405420467E+02  0.11607577705E+02  0.16275329895E+02  0.40659144381E+02  0.00000000000E+00 0. -1.
         11    1    3    3    0    0 -0.56891443471E+00 -0.10186051193E+01  0.81342980891E+00  0.14222827913E+01  0.51100000000E-03 0. -1.
        -11    1    3    3    0    0 -0.58420603996E+01 -0.70563819922E+01  0.67707156180E+01  0.11391434799E+02  0.51100000000E-03 0.  1.
         12    1    3    3    0    0 -0.28994445633E+02 -0.35325905933E+01 -0.23859475322E+02  0.37715138029E+02  0.00000000000E+00 0. -1.
</event>
<event>
 7    1  0.3331850E-011  0.5052886E+02  0.7816164E-02  0.1300439E+00
        -11   -1    0    0    0    0  0.00000000000E+00  0.00000000000E+00  0.45593999997E+02  0.45594000000E+02  0.51100000000E-03 0.  1.
         11   -1    0    0    0    0 -0.00000000000E+00 -0.00000000000E+00 -0.45593999997E+02  0.45594000000E+02  0.51100000000E-03 0. -1.
    9900012    2    1    2    0    0  0.40088426713E+01 -0.11851217840E+02  0.38686479491E+02  0.50528857372E+02  0.29999992468E+02 0.  0.
         12    1    1    2    0    0 -0.40088426713E+01  0.11851217840E+02 -0.38686479491E+02  0.40659142628E+02  0.00000000000E+00 0. -1.
         11    1    3    3    0    0 -0.15104914144E+01 -0.98615257611E+01  0.78116802550E+01  0.12670975626E+02  0.51100000000E-03 0. -1.
        -11    1    3    3    0    0 -0.78384295544E+01 -0.32276858079E+01  0.12668426748E+02  0.15242964609E+02  0.51100000000E-03 0.  1.
         12    1    3    3    0    0  0.13357763640E+02  0.12379937289E+01  0.18206372488E+02  0.22614917137E+02  0.00000000000E+00 0. -1.
</event>
<event>
 7    1  0.3331850E-011  0.5052885E+02  0.7816164E-02  0.1300439E+00
        -11   -1    0    0    0    0  0.00000000000E+00  0.00000000000E+00  0.45593999997E+02  0.45594000000E+02  0.51100000000E-03 0. -1.
         11   -1    0    0    0    0 -0.00000000000E+00 -0.00000000000E+00 -0.45593999997E+02  0.45594000000E+02  0.51100000000E-03 0.  1.
    9900012    2    1    2    0    0 -0.28346768885E+01  0.29601373630E+02 -0.27728858316E+02  0.50528852231E+02  0.29999976840E+02 0.  0.
         12    1    1    2    0    0  0.28346768885E+01 -0.29601373630E+02  0.27728858316E+02  0.40659147769E+02  0.00000000000E+00 0. -1.
         11    1    3    3    0    0 -0.63087201949E+01  0.85997615722E+01 -0.38462300706E+01  0.11337959941E+02  0.51100000000E-03 0. -1.
        -11    1    3    3    0    0 -0.87576930462E+01  0.15106305351E+02 -0.12527684850E+02  0.21490475491E+02  0.51100000000E-03 0.  1.
        -12    1    3    3    0    0  0.12231736353E+02  0.58953067063E+01 -0.11354943395E+02  0.17700416799E+02  0.00000000000E+00 0.  1.
</event>
<event>
 7    1  0.3331850E-011  0.5052891E+02  0.7816164E-02  0.1300439E+00
        -11   -1    0    0    0    0  0.00000000000E+00  0.00000000000E+00  0.45593999997E+02  0.45594000000E+02  0.51100000000E-03 0. -1.
         11   -1    0    0    0    0 -0.00000000000E+00 -0.00000000000E+00 -0.45593999997E+02  0.45594000000E+02  0.51100000000E-03 0.  1.
    9900012    2    1    2    0    0 -0.35243415323E+02  0.18170288553E+02 -0.89946739526E+01  0.50528906685E+02  0.30000142358E+02 0.  0.
         12    1    1    2    0    0  0.35243415323E+02 -0.18170288553E+02  0.89946739526E+01  0.40659093315E+02  0.00000000000E+00 0. -1.
         11    1    3    3    0    0 -0.14219422546E+02 -0.39892777476E+01 -0.67958845183E+01  0.16257009600E+02  0.51100000000E-03 0.  1.
        -11    1    3    3    0    0  0.42940742425E+00  0.88408519700E+01  0.56699006598E+00  0.88694155550E+01  0.51100000000E-03 0. -1.
        -12    1    3    3    0    0 -0.21453400201E+02  0.13318714330E+02 -0.27657795002E+01  0.25402481530E+02  0.00000000000E+00 0.  1.
</event>
<event>
 7    1  0.3331850E-011  0.5052887E+02  0.7816164E-02  0.1300439E+00
        -11   -1    0    0    0    0  0.00000000000E+00  0.00000000000E+00  0.45593999997E+02  0.45594000000E+02  0.51100000000E-03 0. -1.
         11   -1    0    0    0    0 -0.00000000000E+00 -0.00000000000E+00 -0.45593999997E+02  0.45594000000E+02  0.51100000000E-03 0.  1.
    9900012    2    1    2    0    0  0.24602717131E+02 -0.52042575024E+01 -0.31949757702E+02  0.50528868140E+02  0.30000025198E+02 0.  0.
         12    1    1    2    0    0 -0.24602717131E+02  0.52042575024E+01  0.31949757702E+02  0.40659131860E+02  0.00000000000E+00 0. -1.
         11    1    3    3    0    0  0.30799875203E+01 -0.90452800123E+01 -0.20281969785E+00  0.95574342643E+01  0.51100000000E-03 0. -1.
        -11    1    3    3    0    0 -0.17038483102E+01 -0.12533116343E+01 -0.28362014439E+01  0.35380684007E+01  0.51100000000E-03 0.  1.
        -12    1    3    3    0    0  0.23226577921E+02  0.50943341442E+01 -0.28910736560E+02  0.37433365475E+02  0.00000000000E+00 0.  1.
</event>
<event>
 7    1  0.3331850E-011  0.5052887E+02  0.7816164E-02  0.1300439E+00
        -11   -1    0    0    0    0  0.00000000000E+00  0.00000000000E+00  0.45593999997E+02  0.45594000000E+02  0.51100000000E-03 0.  1.
         11   -1    0    0    0    0 -0.00000000000E+00 -0.00000000000E+00 -0.45593999997E+02  0.45594000000E+02  0.51100000000E-03 0. -1.
    9900012    2    1    2    0    0  0.35315919788E+02 -0.68219037280E+00  0.20136667619E+02  0.50528868714E+02  0.30000026942E+02 0.  0.
         12    1    1    2    0    0 -0.35315919788E+02  0.68219037280E+00 -0.20136667619E+02  0.40659131286E+02  0.00000000000E+00 0. -1.
         11    1    3    3    0    0  0.10841648809E+01  0.43297928616E+01  0.16203116440E+01  0.47484660468E+01  0.51100000000E-03 0. -1.
        -11    1    3    3    0    0  0.37100292018E+00 -0.48085707698E+01  0.96334809771E+01  0.10773298103E+02  0.51100000000E-03 0.  1.
         12    1    3    3    0    0  0.33860751987E+02 -0.20341246457E+00  0.88828749977E+01  0.35007104564E+02  0.00000000000E+00 0. -1.
</event>
<event>
 7    1  0.3331850E-011  0.5052886E+02  0.7816164E-02  0.1300439E+00
        -11   -1    0    0    0    0  0.00000000000E+00  0.00000000000E+00  0.45593999997E+02  0.45594000000E+02  0.51100000000E-03 0.  1.
         11   -1    0    0    0    0 -0.00000000000E+00 -0.00000000000E+00 -0.45593999997E+02  0.45594000000E+02  0.51100000000E-03 0. -1.
    9900012    2    1    2    0    0  0.82087512763E+01 -0.35289132939E+02  0.18451537272E+02  0.50528859222E+02  0.29999998090E+02 0.  0.
         12    1    1    2    0    0 -0.82087512763E+01  0.35289132939E+02 -0.18451537272E+02  0.40659140778E+02  0.00000000000E+00 0. -1.
         11    1    3    3    0    0  0.86364148698E+00  0.11018059815E+01 -0.18984450337E+01  0.23588019938E+01  0.51100000000E-03 0. -1.
        -11    1    3    3    0    0  0.57323142861E+01 -0.15476107355E+02 -0.30078553872E+01  0.16775473771E+02  0.51100000000E-03 0.  1.
         12    1    3    3    0    0  0.16127955032E+01 -0.20914831565E+02  0.23357837693E+02  0.31394583457E+02  0.00000000000E+00 0. -1.
</event>
<event>
 7    1  0.3331850E-011  0.5052886E+02  0.7816164E-02  0.1300439E+00
        -11   -1    0    0    0    0  0.00000000000E+00  0.00000000000E+00  0.45593999997E+02  0.45594000000E+02  0.51100000000E-03 0.  1.
         11   -1    0    0    0    0 -0.00000000000E+00 -0.00000000000E+00 -0.45593999997E+02  0.45594000000E+02  0.51100000000E-03 0. -1.
    9900012    2    1    2    0    0 -0.34644346186E+02 -0.20850302037E+02 -0.42661334222E+01  0.50528859427E+02  0.29999998715E+02 0.  0.
         12    1    1    2    0    0  0.34644346186E+02  0.20850302037E+02  0.42661334222E+01  0.40659140573E+02  0.00000000000E+00 0. -1.
         11    1    3    3    0    0 -0.41131744225E+01  0.36989167927E+01  0.60260520091E+00  0.55644696566E+01  0.51100000000E-03 0. -1.
        -11    1    3    3    0    0 -0.10124435886E+02  0.21825110051E+01 -0.46002093532E+01  0.11332673235E+02  0.51100000000E-03 0.  1.
        -12    1    3    3    0    0 -0.20406735878E+02 -0.26731729835E+02 -0.26852926990E+00  0.33631716536E+02  0.00000000000E+00 0.  1.
</event>
<event>
 7    1  0.3331850E-011  0.5052886E+02  0.7816164E-02  0.1300439E+00
        -11   -1    0    0    0    0  0.00000000000E+00  0.00000000000E+00  0.45593999997E+02  0.45594000000E+02  0.51100000000E-03 0. -1.
         11   -1    0    0    0    0 -0.00000000000E+00 -0.00000000000E+00 -0.45593999997E+02  0.45594000000E+02  0.51100000000E-03 0.  1.
    9900012    2    1    2    0    0  0.11522194326E+02 -0.38525235017E+02 -0.60175760545E+01  0.50528856911E+02  0.29999991066E+02 0.  0.
         12    1    1    2    0    0 -0.11522194326E+02  0.38525235017E+02  0.60175760545E+01  0.40659143089E+02  0.00000000000E+00 0. -1.
         11    1    3    3    0    0 -0.36230888082E+01 -0.15662312836E+02  0.47056584220E+01  0.16750463794E+02  0.51100000000E-03 0. -1.
        -11    1    3    3    0    0  0.23979405144E+01 -0.63305515154E+00  0.36381317975E+01  0.44030535737E+01  0.51100000000E-03 0.  1.
        -12    1    3    3    0    0  0.12747342620E+02 -0.22229867029E+02 -0.14361366274E+02  0.29375339543E+02  0.00000000000E+00 0.  1.
</event>
<event>
 7    1  0.3331850E-011  0.5052887E+02  0.7816164E-02  0.1300439E+00
        -11   -1    0    0    0    0  0.00000000000E+00  0.00000000000E+00  0.45593999997E+02  0.45594000000E+02  0.51100000000E-03 0.  1.
         11   -1    0    0    0    0 -0.00000000000E+00 -0.00000000000E+00 -0.45593999997E+02  0.45594000000E+02  0.51100000000E-03 0. -1.
    9900012    2    1    2    0    0 -0.28905030173E+02 -0.22136609158E+02  0.18100680843E+02  0.50528869644E+02  0.30000029769E+02 0.  0.
         12    1    1    2    0    0  0.28905030173E+02  0.22136609158E+02 -0.18100680843E+02  0.40659130356E+02  0.00000000000E+00 0. -1.
         11    1    3    3    0    0 -0.37825617288E+01 -0.44691327312E+01  0.17202842218E+02  0.18171920681E+02  0.51100000000E-03 0. -1.
        -11    1    3    3    0    0 -0.30418878523E+01  0.11712479353E+01  0.68702214293E+00  0.33312014526E+01  0.51100000000E-03 0.  1.
         12    1    3    3    0    0 -0.22080580592E+02 -0.18838724362E+02  0.21081648132E+00  0.29025747510E+02  0.00000000000E+00 0. -1.
</event>
<event>
 7    1  0.3331850E-011  0.5052886E+02  0.7816164E-02  0.1300439E+00
        -11   -1    0    0    0    0  0.00000000000E+00  0.00000000000E+00  0.45593999997E+02  0.45594000000E+02  0.51100000000E-03 0.  1.
         11   -1    0    0    0    0 -0.00000000000E+00 -0.00000000000E+00 -0.45593999997E+02  0.45594000000E+02  0.51100000000E-03 0. -1.
    9900012    2    1    2    0    0  0.18897920066E+02  0.86595487607E+01  0.34943472164E+02  0.50528863088E+02  0.30000009843E+02 0.  0.
         12    1    1    2    0    0 -0.18897920066E+02 -0.86595487607E+01 -0.34943472164E+02  0.40659136912E+02  0.00000000000E+00 0. -1.
         11    1    3    3    0    0  0.41679104868E+01 -0.14167301630E+01  0.35461107585E+01  0.56527430468E+01  0.51100000000E-03 0. -1.
        -11    1    3    3    0    0  0.16627288910E+02  0.73803240399E+01  0.35333653334E+02  0.39741703255E+02  0.51100000000E-03 0.  1.
        -12    1    3    3    0    0 -0.18972793307E+01  0.26959548839E+01 -0.39362919284E+01  0.51344167867E+01  0.00000000000E+00 0.  1.
</event>
<event>
 7    1  0.3331850E-011  0.5052887E+02  0.7816164E-02  0.1300439E+00
        -11   -1    0    0    0    0  0.00000000000E+00  0.00000000000E+00  0.45593999997E+02  0.45594000000E+02  0.51100000000E-03 0.  1.
         11   -1    0    0    0    0 -0.00000000000E+00 -0.00000000000E+00 -0.45593999997E+02  0.45594000000E+02  0.51100000000E-03 0. -1.
    9900012    2    1    2    0    0  0.12844655200E+01  0.25372354969E+02  0.31745220143E+02  0.50528865106E+02  0.30000015976E+02 0.  0.
         12    1    1    2    0    0 -0.12844655200E+01 -0.25372354969E+02 -0.31745220143E+02  0.40659134894E+02  0.00000000000E+00 0. -1.
         11    1    3    3    0    0  0.40747705338E+00  0.11041473325E+02  0.15051998819E+02  0.18671980063E+02  0.51100000000E-03 0.  1.
        -11    1    3    3    0    0  0.69348178840E+01 -0.27129412048E+01  0.10219915613E+02  0.12645094878E+02  0.51100000000E-03 0. -1.
         12    1    3    3    0    0 -0.60578294173E+01  0.17043822849E+02  0.64733057114E+01  0.19211790166E+02  0.00000000000E+00 0. -1.
</event>
<event>
 7    1  0.3331850E-011  0.5052886E+02  0.7816164E-02  0.1300439E+00
        -11   -1    0    0    0    0  0.00000000000E+00  0.00000000000E+00  0.45593999997E+02  0.45594000000E+02  0.51100000000E-03 0. -1.
         11   -1    0    0    0    0 -0.00000000000E+00 -0.00000000000E+00 -0.45593999997E+02  0.45594000000E+02  0.51100000000E-03 0.  1.
    9900012    2    1    2    0    0  0.88103758494E+01  0.96390338595E+01 -0.38504959247E+02  0.50528861015E+02  0.30000003541E+02 0.  0.
         12    1    1    2    0    0 -0.88103758494E+01 -0.96390338595E+01  0.38504959247E+02  0.40659138985E+02  0.00000000000E+00 0. -1.
         11    1    3    3    0    0  0.35738526571E+01  0.10597517013E+01 -0.59680570355E+01  0.70365617686E+01  0.51100000000E-03 0. -1.
        -11    1    3    3    0    0  0.11708534871E+02 -0.16298060986E+01 -0.28323229933E+02  0.30691226937E+02  0.51100000000E-03 0.  1.
         12    1    3    3    0    0 -0.64720116791E+01  0.10209088257E+02 -0.42136722785E+01  0.12801072310E+02  0.00000000000E+00 0. -1.
</event>
<event>
 7    1  0.3331850E-011  0.5052886E+02  0.7816164E-02  0.1300439E+00
        -11   -1    0    0    0    0  0.00000000000E+00  0.00000000000E+00  0.45593999997E+02  0.45594000000E+02  0.51100000000E-03 0. -1.
         11   -1    0    0    0    0 -0.00000000000E+00 -0.00000000000E+00 -0.45593999997E+02  0.45594000000E+02  0.51100000000E-03 0.  1.
    9900012    2    1    2    0    0 -0.19160885422E+02  0.14484312046E+02 -0.32805951262E+02  0.50528864940E+02  0.30000015472E+02 0.  0.
         12    1    1    2    0    0  0.19160885422E+02 -0.14484312046E+02  0.32805951262E+02  0.40659135060E+02  0.00000000000E+00 0. -1.
         11    1    3    3    0    0  0.77427102085E+00 -0.28988709135E+01  0.25899255390E+01  0.39636678399E+01  0.51100000000E-03 0. -1.
        -11    1    3    3    0    0 -0.32979624196E+01  0.23395351891E+01  0.66480111712E+00  0.40977971897E+01  0.51100000000E-03 0.  1.
         12    1    3    3    0    0 -0.16637194023E+02  0.15043647771E+02 -0.36060677918E+02  0.42467399910E+02  0.00000000000E+00 0. -1.
</event>
<event>
 7    1  0.3331850E-011  0.5052886E+02  0.7816164E-02  0.1300439E+00
        -11   -1    0    0    0    0  0.00000000000E+00  0.00000000000E+00  0.45593999997E+02  0.45594000000E+02  0.51100000000E-03 0.  1.
         11   -1    0    0    0    0 -0.00000000000E+00 -0.00000000000E+00 -0.45593999997E+02  0.45594000000E+02  0.51100000000E-03 0. -1.
    9900012    2    1    2    0    0 -0.81317333298E+01  0.11161557991E+02  0.38242127815E+02  0.50528858303E+02  0.29999995297E+02 0.  0.
         12    1    1    2    0    0  0.81317333298E+01 -0.11161557991E+02 -0.38242127815E+02  0.40659141697E+02  0.00000000000E+00 0. -1.
         11    1    3    3    0    0 -0.25533341437E+01 -0.20811318676E+01  0.75328655349E+01  0.82215989033E+01  0.51100000000E-03 0. -1.
        -11    1    3    3    0    0  0.10222762116E+01  0.39286566347E+01  0.30623256315E+02  0.30891151147E+02  0.51100000000E-03 0.  1.
         12    1    3    3    0    0 -0.66006753977E+01  0.93140332239E+01  0.86005965316E-01  0.11416108252E+02  0.00000000000E+00 0. -1.
</event>
<event>
 7    1  0.3331850E-011  0.5052886E+02  0.7816164E-02  0.1300439E+00
        -11   -1    0    0    0    0  0.00000000000E+00  0.00000000000E+00  0.45593999997E+02  0.45594000000E+02  0.51100000000E-03 0.  1.
         11   -1    0    0    0    0 -0.00000000000E+00 -0.00000000000E+00 -0.45593999997E+02  0.45594000000E+02  0.51100000000E-03 0. -1.
    9900012    2    1    2    0    0 -0.10305408115E+02  0.28346296940E+02  0.27266314133E+02  0.50528857449E+02  0.29999992701E+02 0.  0.
         12    1    1    2    0    0  0.10305408115E+02 -0.28346296940E+02 -0.27266314133E+02  0.40659142551E+02  0.00000000000E+00 0. -1.
         11    1    3    3    0    0  0.23860413279E+01  0.68049291774E+01  0.34422645502E+01  0.79905844481E+01  0.51100000000E-03 0.  1.
        -11    1    3    3    0    0  0.44188887943E+01  0.77014144671E+01  0.17527538626E+02  0.19648230798E+02  0.51100000000E-03 0. -1.
        -12    1    3    3    0    0 -0.17110338237E+02  0.13839953295E+02  0.62965109572E+01  0.22890042202E+02  0.00000000000E+00 0.  1.
</event>
<event>
 7    1  0.3331850E-011  0.5052875E+02  0.7816164E-02  0.1300439E+00
        -11   -1    0    0    0    0  0.00000000000E+00  0.00000000000E+00  0.45593999997E+02  0.45594000000E+02  0.51100000000E-03 0.  1.
         11   -1    0    0    0    0 -0.00000000000E+00 -0.00000000000E+00 -0.45593999997E+02  0.45594000000E+02  0.51100000000E-03 0. -1.
    9900012    2    1    2    0    0 -0.56078745767E+00  0.39630410679E+02  0.90714143119E+01  0.50528751473E+02  0.29999670575E+02 0.  0.
         12    1    1    2    0    0  0.56078745767E+00 -0.39630410679E+02 -0.90714143119E+01  0.40659248527E+02  0.00000000000E+00 0. -1.
         11    1    3    3    0    0 -0.55244989505E+01  0.23632379202E+02  0.37428727273E+01  0.24556435652E+02  0.51100000000E-03 0. -1.
        -11    1    3    3    0    0 -0.27019564482E+01  0.15947742004E+02  0.77463383992E+01  0.17934235488E+02  0.51100000000E-03 0.  1.
         12    1    3    3    0    0  0.76656679410E+01  0.50289473223E-01 -0.24177968146E+01  0.80380803336E+01  0.00000000000E+00 0. -1.
</event>
<event>
 7    1  0.3331850E-011  0.5052886E+02  0.7816164E-02  0.1300439E+00
        -11   -1    0    0    0    0  0.00000000000E+00  0.00000000000E+00  0.45593999997E+02  0.45594000000E+02  0.51100000000E-03 0. -1.
         11   -1    0    0    0    0 -0.00000000000E+00 -0.00000000000E+00 -0.45593999997E+02  0.45594000000E+02  0.51100000000E-03 0.  1.
    9900012    2    1    2    0    0 -0.88484672236E+01  0.66330372287E+01 -0.39126375720E+02  0.50528857952E+02  0.29999994231E+02 0.  0.
         12    1    1    2    0    0  0.88484672236E+01 -0.66330372287E+01  0.39126375720E+02  0.40659142048E+02  0.00000000000E+00 0. -1.
         11    1    3    3    0    0  0.34512875113E+01 -0.13301444973E+01 -0.39943867398E+01  0.54438768867E+01  0.51100000000E-03 0. -1.
        -11    1    3    3    0    0 -0.11327273351E+02  0.13800939442E+02 -0.12764506460E+02  0.21947794342E+02  0.51100000000E-03 0.  1.
         12    1    3    3    0    0 -0.97248138404E+00 -0.58377577157E+01 -0.22367482520E+02  0.23137186724E+02  0.00000000000E+00 0. -1.
</event>
<event>
 7    1  0.3331850E-011  0.5052888E+02  0.7816164E-02  0.1300439E+00
        -11   -1    0    0    0    0  0.00000000000E+00  0.00000000000E+00  0.45593999997E+02  0.45594000000E+02  0.51100000000E-03 0.  1.
         11   -1    0    0    0    0 -0.00000000000E+00 -0.00000000000E+00 -0.45593999997E+02  0.45594000000E+02  0.51100000000E-03 0. -1.
    9900012    2    1    2    0    0 -0.10777359550E+02  0.39155975418E+02 -0.19551280047E+01  0.50528875374E+02  0.30000047187E+02 0.  0.
         12    1    1    2    0    0  0.10777359550E+02 -0.39155975418E+02  0.19551280047E+01  0.40659124626E+02  0.00000000000E+00 0. -1.
         11    1    3    3    0    0  0.11098055825E+01  0.30210118281E+02  0.24641027373E+01  0.30330755308E+02  0.51100000000E-03 0. -1.
        -11    1    3    3    0    0 -0.14051947671E+00  0.47732699948E+01 -0.59604774032E+01  0.76374827857E+01  0.51100000000E-03 0.  1.
         12    1    3    3    0    0 -0.11746645656E+02  0.41725871430E+01  0.15412466612E+01  0.12560637281E+02  0.00000000000E+00 0. -1.
</event>
<event>
 7    1  0.3331850E-011  0.5052886E+02  0.7816164E-02  0.1300439E+00
        -11   -1    0    0    0    0  0.00000000000E+00  0.00000000000E+00  0.45593999997E+02  0.45594000000E+02  0.51100000000E-03 0.  1.
         11   -1    0    0    0    0 -0.00000000000E+00 -0.00000000000E+00 -0.45593999997E+02  0.45594000000E+02  0.51100000000E-03 0. -1.
    9900012    2    1    2    0    0  0.23384029107E+02  0.48778907420E+01  0.32902259993E+02  0.50528863905E+02  0.30000012326E+02 0.  0.
         12    1    1    2    0    0 -0.23384029107E+02 -0.48778907420E+01 -0.32902259993E+02  0.40659136095E+02  0.00000000000E+00 0. -1.
         11    1    3    3    0    0  0.22772296636E+02  0.80994045653E+01  0.20214777077E+02  0.31508967944E+02  0.51100000000E-03 0. -1.
        -11    1    3    3    0    0 -0.25185924353E-01  0.38818338361E+01 -0.61103103620E+00  0.39297108609E+01  0.51100000000E-03 0.  1.
        -12    1    3    3    0    0  0.63691839489E+00 -0.71033476594E+01  0.13298513952E+02  0.15090185100E+02  0.00000000000E+00 0.  1.
</event>
<event>
 7    1  0.3331850E-011  0.5052886E+02  0.7816164E-02  0.1300439E+00
        -11   -1    0    0    0    0  0.00000000000E+00  0.00000000000E+00  0.45593999997E+02  0.45594000000E+02  0.51100000000E-03 0.  1.
         11   -1    0    0    0    0 -0.00000000000E+00 -0.00000000000E+00 -0.45593999997E+02  0.45594000000E+02  0.51100000000E-03 0. -1.
    9900012    2    1    2    0    0 -0.21711771338E+02 -0.30593417256E+02  0.15678256588E+02  0.50528856825E+02  0.29999990805E+02 0.  0.
         12    1    1    2    0    0  0.21711771338E+02  0.30593417256E+02 -0.15678256588E+02  0.40659143175E+02  0.00000000000E+00 0. -1.
         11    1    3    3    0    0 -0.88199226147E+01 -0.12932073631E+01  0.15653285945E+02  0.18013572143E+02  0.51100000000E-03 0. -1.
        -11    1    3    3    0    0 -0.58838349563E+01 -0.12219404165E+02  0.27917528161E+01  0.13846560439E+02  0.51100000000E-03 0.  1.
        -12    1    3    3    0    0 -0.70080137675E+01 -0.17080805729E+02 -0.27667821723E+01  0.18668724244E+02  0.00000000000E+00 0.  1.
</event>
<event>
 7    1  0.3331850E-011  0.5052886E+02  0.7816164E-02  0.1300439E+00
        -11   -1    0    0    0    0  0.00000000000E+00  0.00000000000E+00  0.45593999997E+02  0.45594000000E+02  0.51100000000E-03 0.  1.
         11   -1    0    0    0    0 -0.00000000000E+00 -0.00000000000E+00 -0.45593999997E+02  0.45594000000E+02  0.51100000000E-03 0. -1.
    9900012    2    1    2    0    0  0.20455562240E+02  0.30652805239E+02  0.17179672907E+02  0.50528860108E+02  0.30000000783E+02 0.  0.
         12    1    1    2    0    0 -0.20455562240E+02 -0.30652805239E+02 -0.17179672907E+02  0.40659139892E+02  0.00000000000E+00 0. -1.
         11    1    3    3    0    0  0.78119735096E+01  0.17726856228E+02 -0.22548632768E+00  0.19373156846E+02  0.51100000000E-03 0. -1.
        -11    1    3    3    0    0  0.65388282168E+01  0.16067521455E+02  0.70362309869E+01  0.18719777427E+02  0.51100000000E-03 0.  1.
        -12    1    3    3    0    0  0.61047605138E+01 -0.31415724439E+01  0.10368928248E+02  0.12435925834E+02  0.00000000000E+00 0.  1.
</event>
<event>
 7    1  0.3331850E-011  0.5052887E+02  0.7816164E-02  0.1300439E+00
        -11   -1    0    0    0    0  0.00000000000E+00  0.00000000000E+00  0.45593999997E+02  0.45594000000E+02  0.51100000000E-03 0.  1.
         11   -1    0    0    0    0 -0.00000000000E+00 -0.00000000000E+00 -0.45593999997E+02  0.45594000000E+02  0.51100000000E-03 0. -1.
    9900012    2    1    2    0    0 -0.35588366598E+02 -0.71517686078E+01  0.18316255790E+02  0.50528869937E+02  0.30000030660E+02 0.  0.
         12    1    1    2    0    0  0.35588366598E+02  0.71517686078E+01 -0.18316255790E+02  0.40659130063E+02  0.00000000000E+00 0. -1.
         11    1    3    3    0    0 -0.84278436948E+01 -0.82438534312E+01  0.14935310693E+02  0.19027694934E+02  0.51100000000E-03 0. -1.
        -11    1    3    3    0    0 -0.18360945390E+02  0.14979010253E+01  0.95468114336E+01  0.20748726031E+02  0.51100000000E-03 0.  1.
         12    1    3    3    0    0 -0.87995775131E+01 -0.40581620183E+00 -0.61658663370E+01  0.10752448972E+02  0.00000000000E+00 0. -1.
</event>
<event>
 7    1  0.3331850E-011  0.5052885E+02  0.7816164E-02  0.1300439E+00
        -11   -1    0    0    0    0  0.00000000000E+00  0.00000000000E+00  0.45593999997E+02  0.45594000000E+02  0.51100000000E-03 0.  1.
         11   -1    0    0    0    0 -0.00000000000E+00 -0.00000000000E+00 -0.45593999997E+02  0.45594000000E+02  0.51100000000E-03 0. -1.
    9900012    2    1    2    0    0  0.16582978497E+02  0.28249412213E+02  0.24086132865E+02  0.50528852658E+02  0.29999978138E+02 0.  0.
         12    1    1    2    0    0 -0.16582978497E+02 -0.28249412213E+02 -0.24086132865E+02  0.40659147342E+02  0.00000000000E+00 0. -1.
         11    1    3    3    0    0 -0.11659772882E+01 -0.31986261774E+01  0.56410564994E+00  0.34509314547E+01  0.51100000000E-03 0. -1.
        -11    1    3    3    0    0  0.42405421640E+01  0.19233985175E+02  0.34859344390E+01  0.20002002968E+02  0.51100000000E-03 0.  1.
        -12    1    3    3    0    0  0.13508413621E+02  0.12214053215E+02  0.20036092776E+02  0.27075918235E+02  0.00000000000E+00 0.  1.
</event>
<event>
 7    1  0.3331850E-011  0.5052886E+02  0.7816164E-02  0.1300439E+00
        -11   -1    0    0    0    0  0.00000000000E+00  0.00000000000E+00  0.45593999997E+02  0.45594000000E+02  0.51100000000E-03 0.  1.
         11   -1    0    0    0    0 -0.00000000000E+00 -0.00000000000E+00 -0.45593999997E+02  0.45594000000E+02  0.51100000000E-03 0. -1.
    9900012    2    1    2    0    0  0.15523913730E+02  0.22840129769E+02  0.29841282236E+02  0.50528861410E+02  0.30000004743E+02 0.  0.
         12    1    1    2    0    0 -0.15523913730E+02 -0.22840129769E+02 -0.29841282236E+02  0.40659138590E+02  0.00000000000E+00 0. -1.
         11    1    3    3    0    0  0.12531864351E+01 -0.20741148687E+01 -0.25618613570E+01  0.35264093074E+01  0.51100000000E-03 0. -1.
        -11    1    3    3    0    0  0.11476302677E+02  0.29009402875E+01  0.12060291484E+02  0.16898864122E+02  0.51100000000E-03 0.  1.
        -12    1    3    3    0    0  0.27944246174E+01  0.22013304351E+02  0.20342852109E+02  0.30103587980E+02  0.00000000000E+00 0.  1.
</event>
<event>
 7    1  0.3331850E-011  0.5052886E+02  0.7816164E-02  0.1300439E+00
        -11   -1    0    0    0    0  0.00000000000E+00  0.00000000000E+00  0.45593999997E+02  0.45594000000E+02  0.51100000000E-03 0.  1.
         11   -1    0    0    0    0 -0.00000000000E+00 -0.00000000000E+00 -0.45593999997E+02  0.45594000000E+02  0.51100000000E-03 0. -1.
    9900012    2    1    2    0    0  0.37168037275E+02 -0.21828914683E+01  0.16338228123E+02  0.50528859475E+02  0.29999998860E+02 0.  0.
         12    1    1    2    0    0 -0.37168037275E+02  0.21828914683E+01 -0.16338228123E+02  0.40659140525E+02  0.00000000000E+00 0. -1.
         11    1    3    3    0    0  0.69283550180E+01  0.36103051758E+01  0.12827574417E+02  0.15019423172E+02  0.51100000000E-03 0. -1.
        -11    1    3    3    0    0  0.11621930969E+02  0.56863551468E+01  0.42671957610E+01  0.13623981585E+02  0.51100000000E-03 0.  1.
         12    1    3    3    0    0  0.18617751289E+02 -0.11479551791E+02 -0.75654205551E+00  0.21885454719E+02  0.00000000000E+00 0. -1.
</event>
<event>
 7    1  0.3469474E-011  0.5052886E+02  0.7816164E-02  0.1300439E+00
        -11   -1    0    0    0    0  0.00000000000E+00  0.00000000000E+00  0.45593999997E+02  0.45594000000E+02  0.51100000000E-03 0. -1.
         11   -1    0    0    0    0 -0.00000000000E+00 -0.00000000000E+00 -0.45593999997E+02  0.45594000000E+02  0.51100000000E-03 0.  1.
    9900012    2    1    2    0    0 -0.34736092510E+02  0.19403166228E+02 -0.83718008465E+01  0.50528855494E+02  0.29999986760E+02 0.  0.
         12    1    1    2    0    0  0.34736092510E+02 -0.19403166228E+02  0.83718008465E+01  0.40659144506E+02  0.00000000000E+00 0. -1.
         11    1    3    3    0    0 -0.17938935985E+02  0.14746975564E+02 -0.12463931749E+02  0.26355802159E+02  0.51100000000E-03 0. -1.
        -11    1    3    3    0    0 -0.18863302410E+02  0.53060587899E+01  0.59378230564E-01  0.19595457732E+02  0.51100000000E-03 0.  1.
         12    1    3    3    0    0  0.20661458842E+01 -0.64986812529E+00  0.40327526721E+01  0.45775956035E+01  0.00000000000E+00 0. -1.
</event>
<event>
 7    1  0.3331850E-011  0.5052885E+02  0.7816164E-02  0.1300439E+00
        -11   -1    0    0    0    0  0.00000000000E+00  0.00000000000E+00  0.45593999997E+02  0.45594000000E+02  0.51100000000E-03 0.  1.
         11   -1    0    0    0    0 -0.00000000000E+00 -0.00000000000E+00 -0.45593999997E+02  0.45594000000E+02  0.51100000000E-03 0. -1.
    9900012    2    1    2    0    0  0.60002815036E+01 -0.36962820138E+02  0.15840223564E+02  0.50528854249E+02  0.29999982975E+02 0.  0.
         12    1    1    2    0    0 -0.60002815036E+01  0.36962820138E+02 -0.15840223564E+02  0.40659145751E+02  0.00000000000E+00 0. -1.
         11    1    3    3    0    0 -0.52249437986E+01 -0.61129910614E+01 -0.43159426921E+01  0.91266674640E+01  0.51100000000E-03 0. -1.
        -11    1    3    3    0    0  0.61447592685E+01 -0.22243578660E+02  0.56017485075E+01  0.23746882841E+02  0.51100000000E-03 0.  1.
        -12    1    3    3    0    0  0.50804660336E+01 -0.86062504160E+01  0.14554417749E+02  0.17655303944E+02  0.00000000000E+00 0.  1.
</event>
<event>
 7    1  0.3331850E-011  0.5052885E+02  0.7816164E-02  0.1300439E+00
        -11   -1    0    0    0    0  0.00000000000E+00  0.00000000000E+00  0.45593999997E+02  0.45594000000E+02  0.51100000000E-03 0.  1.
         11   -1    0    0    0    0 -0.00000000000E+00 -0.00000000000E+00 -0.45593999997E+02  0.45594000000E+02  0.51100000000E-03 0. -1.
    9900012    2    1    2    0    0 -0.69480487447E+01 -0.10726395594E+02  0.38598382790E+02  0.50528854684E+02  0.29999984298E+02 0.  0.
         12    1    1    2    0    0  0.69480487447E+01  0.10726395594E+02 -0.38598382790E+02  0.40659145316E+02  0.00000000000E+00 0. -1.
         11    1    3    3    0    0 -0.45858989025E+01  0.39933019254E+01  0.17917248145E+02  0.18921012403E+02  0.51100000000E-03 0. -1.
        -11    1    3    3    0    0 -0.44052943067E+01 -0.52205500931E+01  0.20797699287E+02  0.21890752776E+02  0.51100000000E-03 0.  1.
         12    1    3    3    0    0  0.20431444644E+01 -0.94991474267E+01 -0.11656464167E+00  0.97170895052E+01  0.00000000000E+00 0. -1.
</event>
<event>
 7    1  0.3331850E-011  0.5052883E+02  0.7816164E-02  0.1300439E+00
        -11   -1    0    0    0    0  0.00000000000E+00  0.00000000000E+00  0.45593999997E+02  0.45594000000E+02  0.51100000000E-03 0. -1.
         11   -1    0    0    0    0 -0.00000000000E+00 -0.00000000000E+00 -0.45593999997E+02  0.45594000000E+02  0.51100000000E-03 0.  1.
    9900012    2    1    2    0    0 -0.25880938998E+02 -0.25947309889E+02  0.17609160645E+02  0.50528825973E+02  0.29999897029E+02 0.  0.
         12    1    1    2    0    0  0.25880938998E+02  0.25947309889E+02 -0.17609160645E+02  0.40659174027E+02  0.00000000000E+00 0. -1.
         11    1    3    3    0    0 -0.51139110639E+01 -0.11242034945E+02 -0.14217736685E+01  0.12432090601E+02  0.51100000000E-03 0.  1.
        -11    1    3    3    0    0 -0.20918623686E+02 -0.31104496382E+01  0.14525223034E+02  0.25656301728E+02  0.51100000000E-03 0. -1.
         12    1    3    3    0    0  0.15159575246E+00 -0.11594825305E+02  0.45057112795E+01  0.12440433645E+02  0.00000000000E+00 0. -1.
</event>
<event>
 7    1  0.3331850E-011  0.5052887E+02  0.7816164E-02  0.1300439E+00
        -11   -1    0    0    0    0  0.00000000000E+00  0.00000000000E+00  0.45593999997E+02  0.45594000000E+02  0.51100000000E-03 0.  1.
         11   -1    0    0    0    0 -0.00000000000E+00 -0.00000000000E+00 -0.45593999997E+02  0.45594000000E+02  0.51100000000E-03 0. -1.
    9900012    2    1    2    0    0 -0.32740750989E+02  0.17384483390E+02  0.16702934568E+02  0.50528867431E+02  0.30000023043E+02 0.  0.
         12    1    1    2    0    0  0.32740750989E+02 -0.17384483390E+02 -0.16702934568E+02  0.40659132569E+02  0.00000000000E+00 0. -1.
         11    1    3    3    0    0 -0.69341767407E+01  0.95206678272E+01 -0.99901308423E+00  0.11820488583E+02  0.51100000000E-03 0. -1.
        -11    1    3    3    0    0  0.37300212099E+01 -0.36770503698E+00  0.22684685170E+01  0.43811202784E+01  0.51100000000E-03 0.  1.
        -12    1    3    3    0    0 -0.29536595458E+02  0.82315205997E+01  0.15433479135E+02  0.34327258569E+02  0.00000000000E+00 0.  1.
</event>
<event>
 7    1  0.3331850E-011  0.5052887E+02  0.7816164E-02  0.1300439E+00
        -11   -1    0    0    0    0  0.00000000000E+00  0.00000000000E+00  0.45593999997E+02  0.45594000000E+02  0.51100000000E-03 0.  1.
         11   -1    0    0    0    0 -0.00000000000E+00 -0.00000000000E+00 -0.45593999997E+02  0.45594000000E+02  0.51100000000E-03 0. -1.
    9900012    2    1    2    0    0  0.16468455641E+02  0.31221415600E+01  0.37043310597E+02  0.50528872376E+02  0.30000038074E+02 0.  0.
         12    1    1    2    0    0 -0.16468455641E+02 -0.31221415600E+01 -0.37043310597E+02  0.40659127624E+02  0.00000000000E+00 0. -1.
         11    1    3    3    0    0  0.11652543529E+02 -0.88083141390E+01  0.13949227341E+02  0.20197750180E+02  0.51100000000E-03 0.  1.
        -11    1    3    3    0    0  0.32954047704E+00 -0.32741987736E+01  0.17004143523E+01  0.37041036386E+01  0.51100000000E-03 0. -1.
         12    1    3    3    0    0  0.44863716356E+01  0.15204654473E+02  0.21393668904E+02  0.26627018558E+02  0.00000000000E+00 0. -1.
</event>
<event>
 7    1  0.3331850E-011  0.5052886E+02  0.7816164E-02  0.1300439E+00
        -11   -1    0    0    0    0  0.00000000000E+00  0.00000000000E+00  0.45593999997E+02  0.45594000000E+02  0.51100000000E-03 0.  1.
         11   -1    0    0    0    0 -0.00000000000E+00 -0.00000000000E+00 -0.45593999997E+02  0.45594000000E+02  0.51100000000E-03 0. -1.
    9900012    2    1    2    0    0 -0.23747378432E+02 -0.12792935524E+02  0.30423156869E+02  0.50528860122E+02  0.30000000827E+02 0.  0.
         12    1    1    2    0    0  0.23747378432E+02  0.12792935524E+02 -0.30423156869E+02  0.40659139878E+02  0.00000000000E+00 0. -1.
         11    1    3    3    0    0 -0.16072986335E+02 -0.10527979967E+02  0.22742227976E+02  0.29772272091E+02  0.51100000000E-03 0. -1.
        -11    1    3    3    0    0 -0.11067527389E+02 -0.72212088630E+01  0.60407081208E+01  0.14530181513E+02  0.51100000000E-03 0.  1.
         12    1    3    3    0    0  0.33931352918E+01  0.49562533057E+01  0.16402207725E+01  0.62264065175E+01  0.00000000000E+00 0. -1.
</event>
<event>
 7    1  0.3331850E-011  0.5052885E+02  0.7816164E-02  0.1300439E+00
        -11   -1    0    0    0    0  0.00000000000E+00  0.00000000000E+00  0.45593999997E+02  0.45594000000E+02  0.51100000000E-03 0.  1.
         11   -1    0    0    0    0 -0.00000000000E+00 -0.00000000000E+00 -0.45593999997E+02  0.45594000000E+02  0.51100000000E-03 0. -1.
    9900012    2    1    2    0    0  0.27148761216E+02  0.12317800425E+02  0.27647471980E+02  0.50528854045E+02  0.29999982356E+02 0.  0.
         12    1    1    2    0    0 -0.27148761216E+02 -0.12317800425E+02 -0.27647471980E+02  0.40659145955E+02  0.00000000000E+00 0. -1.
         11    1    3    3    0    0  0.27805100857E+01  0.14461160207E+02  0.11892377224E+02  0.18928418507E+02  0.51100000000E-03 0. -1.
        -11    1    3    3    0    0  0.44274964952E+01  0.42554341113E+01  0.56622264187E+01  0.83529786883E+01  0.51100000000E-03 0.  1.
        -12    1    3    3    0    0  0.19940754635E+02 -0.63987938934E+01  0.10092868337E+02  0.23247456850E+02  0.00000000000E+00 0.  1.
</event>
<event>
 7    1  0.3331850E-011  0.5052886E+02  0.7816164E-02  0.1300439E+00
        -11   -1    0    0    0    0  0.00000000000E+00  0.00000000000E+00  0.45593999997E+02  0.45594000000E+02  0.51100000000E-03 0. -1.
         11   -1    0    0    0    0 -0.00000000000E+00 -0.00000000000E+00 -0.45593999997E+02  0.45594000000E+02  0.51100000000E-03 0.  1.
    9900012    2    1    2    0    0 -0.35213520231E+02  0.12428717856E+02 -0.16084173226E+02  0.50528860032E+02  0.30000000553E+02 0.  0.
         12    1    1    2    0    0  0.35213520231E+02 -0.12428717856E+02  0.16084173226E+02  0.40659139968E+02  0.00000000000E+00 0. -1.
         11    1    3    3    0    0 -0.67294544354E+01  0.18186679117E+01 -0.59626065359E+00  0.69963302523E+01  0.51100000000E-03 0. -1.
        -11    1    3    3    0    0 -0.15644276483E+02  0.19200979100E+02 -0.12702139766E+02  0.27834606876E+02  0.51100000000E-03 0.  1.
        -12    1    3    3    0    0 -0.12839789313E+02 -0.85909291553E+01 -0.27857728065E+01  0.15697922903E+02  0.00000000000E+00 0.  1.
</event>
<event>
 7    1  0.3331850E-011  0.5052888E+02  0.7816164E-02  0.1300439E+00
        -11   -1    0    0    0    0  0.00000000000E+00  0.00000000000E+00  0.45593999997E+02  0.45594000000E+02  0.51100000000E-03 0. -1.
         11   -1    0    0    0    0 -0.00000000000E+00 -0.00000000000E+00 -0.45593999997E+02  0.45594000000E+02  0.51100000000E-03 0.  1.
    9900012    2    1    2    0    0  0.23369560082E+02  0.25900997056E+01 -0.33171062558E+02  0.50528876225E+02  0.30000049773E+02 0.  0.
         12    1    1    2    0    0 -0.23369560082E+02 -0.25900997056E+01  0.33171062558E+02  0.40659123775E+02  0.00000000000E+00 0. -1.
         11    1    3    3    0    0  0.96128749176E+01  0.49030829539E+01 -0.15491120782E+01  0.10901712486E+02  0.51100000000E-03 0.  1.
        -11    1    3    3    0    0 -0.83450733238E+00  0.45584922407E+00  0.23584757482E+01  0.25429528345E+01  0.51100000000E-03 0. -1.
        -12    1    3    3    0    0  0.14591192497E+02 -0.27688324723E+01 -0.33980426228E+02  0.37084210904E+02  0.00000000000E+00 0.  1.
</event>
<event>
 7    1  0.3331850E-011  0.5052886E+02  0.7816164E-02  0.1300439E+00
        -11   -1    0    0    0    0  0.00000000000E+00  0.00000000000E+00  0.45593999997E+02  0.45594000000E+02  0.51100000000E-03 0. -1.
         11   -1    0    0    0    0 -0.00000000000E+00 -0.00000000000E+00 -0.45593999997E+02  0.45594000000E+02  0.51100000000E-03 0.  1.
    9900012    2    1    2    0    0  0.13123442422E+01 -0.36444673632E+01 -0.40474200445E+02  0.50528864601E+02  0.30000014441E+02 0.  0.
         12    1    1    2    0    0 -0.13123442422E+01  0.36444673632E+01  0.40474200445E+02  0.40659135399E+02  0.00000000000E+00 0. -1.
         11    1    3    3    0    0  0.19191938600E+01  0.15360530133E+01 -0.89737510928E+01  0.93043523616E+01  0.51100000000E-03 0. -1.
        -11    1    3    3    0    0  0.18115835366E+01  0.78641222336E+01 -0.25345698339E+02  0.26599448828E+02  0.51100000000E-03 0.  1.
         12    1    3    3    0    0 -0.24184331544E+01 -0.13044642610E+02 -0.61547510126E+01  0.14625063411E+02  0.00000000000E+00 0. -1.
</event>
<event>
 7    1  0.3331850E-011  0.5052886E+02  0.7816164E-02  0.1300439E+00
        -11   -1    0    0    0    0  0.00000000000E+00  0.00000000000E+00  0.45593999997E+02  0.45594000000E+02  0.51100000000E-03 0. -1.
         11   -1    0    0    0    0 -0.00000000000E+00 -0.00000000000E+00 -0.45593999997E+02  0.45594000000E+02  0.51100000000E-03 0.  1.
    9900012    2    1    2    0    0 -0.20502535462E+02  0.10482374222E+02 -0.33510168951E+02  0.50528861386E+02  0.30000004668E+02 0.  0.
         12    1    1    2    0    0  0.20502535462E+02 -0.10482374222E+02  0.33510168951E+02  0.40659138614E+02  0.00000000000E+00 0. -1.
         11    1    3    3    0    0 -0.94046412748E+00  0.31883298604E+01 -0.62243466311E+01  0.70563738080E+01  0.51100000000E-03 0. -1.
        -11    1    3    3    0    0 -0.20620221471E+02  0.49948426910E+01 -0.31840554625E+02  0.38261768204E+02  0.51100000000E-03 0.  1.
         12    1    3    3    0    0  0.10581501357E+01  0.22992016705E+01  0.45547323043E+01  0.52107193740E+01  0.00000000000E+00 0. -1.
</event>
<event>
 7    1  0.3331850E-011  0.5052887E+02  0.7816164E-02  0.1300439E+00
        -11   -1    0    0    0    0  0.00000000000E+00  0.00000000000E+00  0.45593999997E+02  0.45594000000E+02  0.51100000000E-03 0.  1.
         11   -1    0    0    0    0 -0.00000000000E+00 -0.00000000000E+00 -0.45593999997E+02  0.45594000000E+02  0.51100000000E-03 0. -1.
    9900012    2    1    2    0    0  0.33745393881E+02  0.62153696236E+01  0.21812446305E+02  0.50528865214E+02  0.30000016306E+02 0.  0.
         12    1    1    2    0    0 -0.33745393881E+02 -0.62153696236E+01 -0.21812446305E+02  0.40659134786E+02  0.00000000000E+00 0. -1.
         11    1    3    3    0    0  0.10386081023E+01 -0.68736802689E+01  0.65117606564E+00  0.69821356159E+01  0.51100000000E-03 0. -1.
        -11    1    3    3    0    0  0.23883923162E+02  0.21488558795E+01  0.14091542369E+02  0.27814221790E+02  0.51100000000E-03 0.  1.
        -12    1    3    3    0    0  0.88228626167E+01  0.10940194013E+02  0.70697278702E+01  0.15732507809E+02  0.00000000000E+00 0.  1.
</event>
<event>
 7    1  0.3331850E-011  0.5052888E+02  0.7816164E-02  0.1300439E+00
        -11   -1    0    0    0    0  0.00000000000E+00  0.00000000000E+00  0.45593999997E+02  0.45594000000E+02  0.51100000000E-03 0.  1.
         11   -1    0    0    0    0 -0.00000000000E+00 -0.00000000000E+00 -0.45593999997E+02  0.45594000000E+02  0.51100000000E-03 0. -1.
    9900012    2    1    2    0    0  0.89581312696E+01  0.36730492889E+02  0.14959502859E+02  0.50528881102E+02  0.30000064599E+02 0.  0.
         12    1    1    2    0    0 -0.89581312696E+01 -0.36730492889E+02 -0.14959502859E+02  0.40659118898E+02  0.00000000000E+00 0. -1.
         11    1    3    3    0    0  0.47191272723E+01 -0.70933983136E+00 -0.29587891864E+01  0.56149584966E+01  0.51100000000E-03 0. -1.
        -11    1    3    3    0    0  0.10341827053E+02  0.17457301180E+02  0.89440877408E+01  0.22174477605E+02  0.51100000000E-03 0.  1.
        -12    1    3    3    0    0 -0.61028230561E+01  0.19982531541E+02  0.89742043046E+01  0.22739445001E+02  0.00000000000E+00 0.  1.
</event>
<event>
 7    1  0.3331850E-011  0.5052886E+02  0.7816164E-02  0.1300439E+00
        -11   -1    0    0    0    0  0.00000000000E+00  0.00000000000E+00  0.45593999997E+02  0.45594000000E+02  0.51100000000E-03 0. -1.
         11   -1    0    0    0    0 -0.00000000000E+00 -0.00000000000E+00 -0.45593999997E+02  0.45594000000E+02  0.51100000000E-03 0.  1.
    9900012    2    1    2    0    0 -0.17484467102E+01  0.34024987449E+02  0.22190295572E+02  0.50528855218E+02  0.29999985921E+02 0.  0.
         12    1    1    2    0    0  0.17484467102E+01 -0.34024987449E+02 -0.22190295572E+02  0.40659144782E+02  0.00000000000E+00 0. -1.
         11    1    3    3    0    0 -0.28484837642E+00  0.23485560006E+02  0.22508213409E+02  0.32531098022E+02  0.51100000000E-03 0. -1.
        -11    1    3    3    0    0  0.61615644977E+01  0.24157743073E+01 -0.15227169061E+01  0.67911346327E+01  0.51100000000E-03 0.  1.
        -12    1    3    3    0    0 -0.76251628314E+01  0.81236531365E+01  0.12047990690E+01  0.11206622564E+02  0.00000000000E+00 0.  1.
</event>
<event>
 7    1  0.3331850E-011  0.5052888E+02  0.7816164E-02  0.1300439E+00
        -11   -1    0    0    0    0  0.00000000000E+00  0.00000000000E+00  0.45593999997E+02  0.45594000000E+02  0.51100000000E-03 0.  1.
         11   -1    0    0    0    0 -0.00000000000E+00 -0.00000000000E+00 -0.45593999997E+02  0.45594000000E+02  0.51100000000E-03 0. -1.
    9900012    2    1    2    0    0 -0.30954035278E+01  0.39705339504E+02  0.81895303084E+01  0.50528881530E+02  0.30000065898E+02 0.  0.
         12    1    1    2    0    0  0.30954035278E+01 -0.39705339504E+02 -0.81895303084E+01  0.40659118470E+02  0.00000000000E+00 0. -1.
         11    1    3    3    0    0 -0.37340136874E+01  0.28933576353E+02  0.70756291663E+01  0.30019314235E+02  0.51100000000E-03 0. -1.
        -11    1    3    3    0    0 -0.48906789955E+01  0.13323266794E+02 -0.52849141265E+00  0.14202375947E+02  0.51100000000E-03 0.  1.
         12    1    3    3    0    0  0.55292891552E+01 -0.25515036428E+01  0.16423925547E+01  0.63071913483E+01  0.00000000000E+00 0. -1.
</event>
<event>
 7    1  0.3331850E-011  0.5052885E+02  0.7816164E-02  0.1300439E+00
        -11   -1    0    0    0    0  0.00000000000E+00  0.00000000000E+00  0.45593999997E+02  0.45594000000E+02  0.51100000000E-03 0. -1.
         11   -1    0    0    0    0 -0.00000000000E+00 -0.00000000000E+00 -0.45593999997E+02  0.45594000000E+02  0.51100000000E-03 0.  1.
    9900012    2    1    2    0    0  0.35802399742E+02 -0.19257022195E+02  0.72250525687E+00  0.50528846727E+02  0.29999960110E+02 0.  0.
         12    1    1    2    0    0 -0.35802399742E+02  0.19257022195E+02 -0.72250525687E+00  0.40659153273E+02  0.00000000000E+00 0. -1.
         11    1    3    3    0    0  0.80238231928E+01 -0.10051124274E+02  0.73964225622E+01  0.14836236206E+02  0.51100000000E-03 0. -1.
        -11    1    3    3    0    0  0.99270491135E+01 -0.13313231617E+02 -0.15932684051E+01  0.16683133539E+02  0.51100000000E-03 0.  1.
         12    1    3    3    0    0  0.17851527435E+02  0.41073336959E+01 -0.50806489002E+01  0.19009476981E+02  0.00000000000E+00 0. -1.
</event>
<event>
 7    1  0.3331850E-011  0.5052886E+02  0.7816164E-02  0.1300439E+00
        -11   -1    0    0    0    0  0.00000000000E+00  0.00000000000E+00  0.45593999997E+02  0.45594000000E+02  0.51100000000E-03 0.  1.
         11   -1    0    0    0    0 -0.00000000000E+00 -0.00000000000E+00 -0.45593999997E+02  0.45594000000E+02  0.51100000000E-03 0. -1.
    9900012    2    1    2    0    0  0.17451632559E+02  0.66412509435E+01  0.36117858853E+02  0.50528863005E+02  0.30000009589E+02 0.  0.
         12    1    1    2    0    0 -0.17451632559E+02 -0.66412509435E+01 -0.36117858853E+02  0.40659136995E+02  0.00000000000E+00 0. -1.
         11    1    3    3    0    0 -0.27932157244E+00 -0.46615681861E+00 -0.28292882743E+01  0.28810059216E+01  0.51100000000E-03 0. -1.
        -11    1    3    3    0    0  0.11205431235E+02 -0.51251192579E+01  0.11298207741E+02  0.16717596568E+02  0.51100000000E-03 0.  1.
        -12    1    3    3    0    0  0.65255228961E+01  0.12232527020E+02  0.27648939386E+02  0.30930260515E+02  0.00000000000E+00 0.  1.
</event>
<event>
 7    1  0.3331850E-011  0.5052886E+02  0.7816164E-02  0.1300439E+00
        -11   -1    0    0    0    0  0.00000000000E+00  0.00000000000E+00  0.45593999997E+02  0.45594000000E+02  0.51100000000E-03 0. -1.
         11   -1    0    0    0    0 -0.00000000000E+00 -0.00000000000E+00 -0.45593999997E+02  0.45594000000E+02  0.51100000000E-03 0.  1.
    9900012    2    1    2    0    0  0.23690865907E+02  0.26620261474E+02 -0.19577278331E+02  0.50528864800E+02  0.30000015045E+02 0.  0.
         12    1    1    2    0    0 -0.23690865907E+02 -0.26620261474E+02  0.19577278331E+02  0.40659135200E+02  0.00000000000E+00 0. -1.
         11    1    3    3    0    0 -0.14691678193E+00  0.96118763387E+00  0.38541748374E+00  0.10459508144E+01  0.51100000000E-03 0. -1.
        -11    1    3    3    0    0 -0.30732408222E+01  0.12445461748E+02 -0.13876059106E+02  0.18891250458E+02  0.51100000000E-03 0.  1.
         12    1    3    3    0    0  0.26911023512E+02  0.13213612093E+02 -0.60866367080E+01  0.30591663528E+02  0.00000000000E+00 0. -1.
</event>
<event>
 7    1  0.3331850E-011  0.5052886E+02  0.7816164E-02  0.1300439E+00
        -11   -1    0    0    0    0  0.00000000000E+00  0.00000000000E+00  0.45593999997E+02  0.45594000000E+02  0.51100000000E-03 0. -1.
         11   -1    0    0    0    0 -0.00000000000E+00 -0.00000000000E+00 -0.45593999997E+02  0.45594000000E+02  0.51100000000E-03 0.  1.
    9900012    2    1    2    0    0  0.33658391054E+02  0.21352840735E+02 -0.80208674329E+01  0.50528863140E+02  0.30000010002E+02 0.  0.
         12    1    1    2    0    0 -0.33658391054E+02 -0.21352840735E+02  0.80208674329E+01  0.40659136860E+02  0.00000000000E+00 0. -1.
         11    1    3    3    0    0  0.18279738756E+01 -0.13184106692E+01 -0.10212016649E+01  0.24743783632E+01  0.51100000000E-03 0. -1.
        -11    1    3    3    0    0  0.98374599797E+01 -0.30439391867E+01 -0.96513609770E+01  0.14113467100E+02  0.51100000000E-03 0.  1.
         12    1    3    3    0    0  0.21992957199E+02  0.25715190591E+02  0.26516952090E+01  0.33941017677E+02  0.00000000000E+00 0. -1.
</event>
<event>
 7    1  0.3331850E-011  0.5052885E+02  0.7816164E-02  0.1300439E+00
        -11   -1    0    0    0    0  0.00000000000E+00  0.00000000000E+00  0.45593999997E+02  0.45594000000E+02  0.51100000000E-03 0.  1.
         11   -1    0    0    0    0 -0.00000000000E+00 -0.00000000000E+00 -0.45593999997E+02  0.45594000000E+02  0.51100000000E-03 0. -1.
    9900012    2    1    2    0    0 -0.29852534652E+02  0.19081827642E+02  0.19946848454E+02  0.50528846854E+02  0.29999960497E+02 0.  0.
         12    1    1    2    0    0  0.29852534652E+02 -0.19081827642E+02 -0.19946848454E+02  0.40659153146E+02  0.00000000000E+00 0. -1.
         11    1    3    3    0    0 -0.15100297902E+02  0.12526489525E+02  0.19164689336E+02  0.27426579338E+02  0.51100000000E-03 0. -1.
        -11    1    3    3    0    0 -0.65288691284E+01  0.10736715731E+02  0.42222757326E+01  0.13256349777E+02  0.51100000000E-03 0.  1.
         12    1    3    3    0    0 -0.82233676217E+01 -0.41813776145E+01 -0.34401166146E+01  0.98459177388E+01  0.00000000000E+00 0. -1.
</event>
<event>
 7    1  0.3331850E-011  0.5052886E+02  0.7816164E-02  0.1300439E+00
        -11   -1    0    0    0    0  0.00000000000E+00  0.00000000000E+00  0.45593999997E+02  0.45594000000E+02  0.51100000000E-03 0.  1.
         11   -1    0    0    0    0 -0.00000000000E+00 -0.00000000000E+00 -0.45593999997E+02  0.45594000000E+02  0.51100000000E-03 0. -1.
    9900012    2    1    2    0    0  0.30669803696E+02  0.64686122236E+01  0.25897605952E+02  0.50528858385E+02  0.29999995546E+02 0.  0.
         12    1    1    2    0    0 -0.30669803696E+02 -0.64686122236E+01 -0.25897605952E+02  0.40659141615E+02  0.00000000000E+00 0. -1.
         11    1    3    3    0    0  0.76618589011E+01  0.56456621968E+01  0.96886731690E+01  0.13581162377E+02  0.51100000000E-03 0. -1.
        -11    1    3    3    0    0  0.14853071759E+02  0.11101134583E+02  0.38822766471E+01  0.18945210527E+02  0.51100000000E-03 0.  1.
        -12    1    3    3    0    0  0.81548730364E+01 -0.10278184556E+02  0.12326656136E+02  0.18002485481E+02  0.00000000000E+00 0.  1.
</event>
<event>
 7    1  0.3331850E-011  0.5052887E+02  0.7816164E-02  0.1300439E+00
        -11   -1    0    0    0    0  0.00000000000E+00  0.00000000000E+00  0.45593999997E+02  0.45594000000E+02  0.51100000000E-03 0.  1.
         11   -1    0    0    0    0 -0.00000000000E+00 -0.00000000000E+00 -0.45593999997E+02  0.45594000000E+02  0.51100000000E-03 0. -1.
    9900012    2    1    2    0    0  0.10172980029E+02  0.23413932826E+02  0.31645895592E+02  0.50528874568E+02  0.30000044738E+02 0.  0.
         12    1    1    2    0    0 -0.10172980029E+02 -0.23413932826E+02 -0.31645895592E+02  0.40659125432E+02  0.00000000000E+00 0. -1.
         11    1    3    3    0    0 -0.89551040702E+00  0.86417692463E+01  0.60057045061E+01  0.10561751818E+02  0.51100000000E-03 0. -1.
        -11    1    3    3    0    0  0.92997940722E+01  0.21646466281E+02  0.19826461333E+02  0.30791950921E+02  0.51100000000E-03 0.  1.
         12    1    3    3    0    0  0.17686963643E+01 -0.68743027014E+01  0.58137297528E+01  0.91751718294E+01  0.00000000000E+00 0. -1.
</event>
<event>
 7    1  0.3445846E-011  0.5052886E+02  0.7816164E-02  0.1300439E+00
        -11   -1    0    0    0    0  0.00000000000E+00  0.00000000000E+00  0.45593999997E+02  0.45594000000E+02  0.51100000000E-03 0. -1.
         11   -1    0    0    0    0 -0.00000000000E+00 -0.00000000000E+00 -0.45593999997E+02  0.45594000000E+02  0.51100000000E-03 0.  1.
    9900012    2    1    2    0    0  0.35913758277E+02  0.50915135768E+01 -0.18369648452E+02  0.50528861687E+02  0.30000005584E+02 0.  0.
         12    1    1    2    0    0 -0.35913758277E+02 -0.50915135768E+01  0.18369648452E+02  0.40659138313E+02  0.00000000000E+00 0. -1.
         11    1    3    3    0    0  0.98400253780E+01 -0.29151320656E+01  0.32066071141E+00  0.10267761097E+02  0.51100000000E-03 0. -1.
        -11    1    3    3    0    0  0.28658784637E+02  0.87200808604E+01 -0.21111755422E+02  0.36647946250E+02  0.51100000000E-03 0.  1.
         12    1    3    3    0    0 -0.25850517379E+01 -0.71343521792E+00  0.24214462584E+01  0.36131543394E+01  0.00000000000E+00 0. -1.
</event>
<event>
 7    1  0.3331850E-011  0.5052886E+02  0.7816164E-02  0.1300439E+00
        -11   -1    0    0    0    0  0.00000000000E+00  0.00000000000E+00  0.45593999997E+02  0.45594000000E+02  0.51100000000E-03 0.  1.
         11   -1    0    0    0    0 -0.00000000000E+00 -0.00000000000E+00 -0.45593999997E+02  0.45594000000E+02  0.51100000000E-03 0. -1.
    9900012    2    1    2    0    0  0.20491908718E+02 -0.22202296264E+02  0.27208560468E+02  0.50528855333E+02  0.29999986271E+02 0.  0.
         12    1    1    2    0    0 -0.20491908718E+02  0.22202296264E+02 -0.27208560468E+02  0.40659144667E+02  0.00000000000E+00 0. -1.
         11    1    3    3    0    0  0.27860912564E+01 -0.21320615976E+01  0.10151587766E+02  0.10740704147E+02  0.51100000000E-03 0.  1.
        -11    1    3    3    0    0  0.97533117213E+01  0.39440066853E+01  0.65719375549E+01  0.12404541175E+02  0.51100000000E-03 0. -1.
        -12    1    3    3    0    0  0.79525057405E+01 -0.24014241351E+02  0.10485035148E+02  0.27383610012E+02  0.00000000000E+00 0.  1.
</event>
<event>
 7    1  0.3331850E-011  0.5052886E+02  0.7816164E-02  0.1300439E+00
        -11   -1    0    0    0    0  0.00000000000E+00  0.00000000000E+00  0.45593999997E+02  0.45594000000E+02  0.51100000000E-03 0.  1.
         11   -1    0    0    0    0 -0.00000000000E+00 -0.00000000000E+00 -0.45593999997E+02  0.45594000000E+02  0.51100000000E-03 0. -1.
    9900012    2    1    2    0    0 -0.31527911558E+01  0.36658271412E+02  0.17303079197E+02  0.50528861978E+02  0.30000006470E+02 0.  0.
         12    1    1    2    0    0  0.31527911558E+01 -0.36658271412E+02 -0.17303079197E+02  0.40659138022E+02  0.00000000000E+00 0. -1.
         11    1    3    3    0    0 -0.81505683950E+00 -0.44555333111E+00 -0.71509394326E+00  0.11722606499E+01  0.51100000000E-03 0. -1.
        -11    1    3    3    0    0  0.35970126052E+01 -0.19263013581E+01 -0.25797405508E+01  0.48274421979E+01  0.51100000000E-03 0.  1.
        -12    1    3    3    0    0 -0.59347469215E+01  0.39030126101E+02  0.20597913691E+02  0.44529159131E+02  0.00000000000E+00 0.  1.
</event>
<event>
 7    1  0.3331850E-011  0.5052886E+02  0.7816164E-02  0.1300439E+00
        -11   -1    0    0    0    0  0.00000000000E+00  0.00000000000E+00  0.45593999997E+02  0.45594000000E+02  0.51100000000E-03 0.  1.
         11   -1    0    0    0    0 -0.00000000000E+00 -0.00000000000E+00 -0.45593999997E+02  0.45594000000E+02  0.51100000000E-03 0. -1.
    9900012    2    1    2    0    0 -0.13223819433E+02  0.14790425624E+02  0.35489987825E+02  0.50528864172E+02  0.30000013136E+02 0.  0.
         12    1    1    2    0    0  0.13223819433E+02 -0.14790425624E+02 -0.35489987825E+02  0.40659135828E+02  0.00000000000E+00 0. -1.
         11    1    3    3    0    0 -0.41161893217E+01  0.10996168858E+02  0.18569898419E+02  0.21970431758E+02  0.51100000000E-03 0.  1.
        -11    1    3    3    0    0  0.32588025785E+01  0.72749947190E+01  0.89816757591E+00  0.80219728036E+01  0.51100000000E-03 0. -1.
         12    1    3    3    0    0 -0.12366432690E+02 -0.34807379539E+01  0.16021921830E+02  0.20536459610E+02  0.00000000000E+00 0. -1.
</event>
<event>
 7    1  0.3331850E-011  0.5052886E+02  0.7816164E-02  0.1300439E+00
        -11   -1    0    0    0    0  0.00000000000E+00  0.00000000000E+00  0.45593999997E+02  0.45594000000E+02  0.51100000000E-03 0.  1.
         11   -1    0    0    0    0 -0.00000000000E+00 -0.00000000000E+00 -0.45593999997E+02  0.45594000000E+02  0.51100000000E-03 0. -1.
    9900012    2    1    2    0    0 -0.43213068454E+01  0.33604313762E+02  0.22477591797E+02  0.50528859217E+02  0.29999998075E+02 0.  0.
         12    1    1    2    0    0  0.43213068454E+01 -0.33604313762E+02 -0.22477591797E+02  0.40659140783E+02  0.00000000000E+00 0. -1.
         11    1    3    3    0    0 -0.10214478901E+02  0.18892421405E+02  0.37957445664E+01  0.21809787777E+02  0.51100000000E-03 0. -1.
        -11    1    3    3    0    0 -0.36144176201E+01  0.12712707068E+01  0.17812547496E-01  0.38315090357E+01  0.51100000000E-03 0.  1.
         12    1    3    3    0    0  0.95075896762E+01  0.13440621650E+02  0.18664034683E+02  0.24887562404E+02  0.00000000000E+00 0. -1.
</event>
<event>
 7    1  0.3741607E-011  0.5052888E+02  0.7816164E-02  0.1300439E+00
        -11   -1    0    0    0    0  0.00000000000E+00  0.00000000000E+00  0.45593999997E+02  0.45594000000E+02  0.51100000000E-03 0. -1.
         11   -1    0    0    0    0 -0.00000000000E+00 -0.00000000000E+00 -0.45593999997E+02  0.45594000000E+02  0.51100000000E-03 0.  1.
    9900012    2    1    2    0    0  0.18429723232E+02 -0.34929011518E+02 -0.96681592656E+01  0.50528882355E+02  0.30000068407E+02 0.  0.
         12    1    1    2    0    0 -0.18429723232E+02  0.34929011518E+02  0.96681592656E+01  0.40659117645E+02  0.00000000000E+00 0. -1.
         11    1    3    3    0    0  0.36541617264E+01  0.33412247899E+00 -0.24970145450E+01  0.44384251320E+01  0.51100000000E-03 0. -1.
        -11    1    3    3    0    0  0.19990761465E+02 -0.22308364417E+02 -0.10486208643E+02  0.31737268926E+02  0.51100000000E-03 0.  1.
         12    1    3    3    0    0 -0.52151999589E+01 -0.12954769581E+02  0.33150639221E+01  0.14353188298E+02  0.00000000000E+00 0. -1.
</event>
<event>
 7    1  0.3331850E-011  0.5052886E+02  0.7816164E-02  0.1300439E+00
        -11   -1    0    0    0    0  0.00000000000E+00  0.00000000000E+00  0.45593999997E+02  0.45594000000E+02  0.51100000000E-03 0.  1.
         11   -1    0    0    0    0 -0.00000000000E+00 -0.00000000000E+00 -0.45593999997E+02  0.45594000000E+02  0.51100000000E-03 0. -1.
    9900012    2    1    2    0    0  0.13767016760E+02 -0.33045402929E+02 -0.19277878414E+02  0.50528855870E+02  0.29999987903E+02 0.  0.
         12    1    1    2    0    0 -0.13767016760E+02  0.33045402929E+02  0.19277878414E+02  0.40659144130E+02  0.00000000000E+00 0. -1.
         11    1    3    3    0    0  0.64922927214E+01 -0.19387085210E+02 -0.85432869867E+00  0.20463108647E+02  0.51100000000E-03 0. -1.
        -11    1    3    3    0    0  0.41268476526E+01 -0.15236484655E+02 -0.55712431873E+01  0.16739775599E+02  0.51100000000E-03 0.  1.
         12    1    3    3    0    0  0.31478763865E+01  0.15781669365E+01 -0.12852306528E+02  0.13325971624E+02  0.00000000000E+00 0. -1.
</event>
<event>
 7    1  0.3331850E-011  0.5052886E+02  0.7816164E-02  0.1300439E+00
        -11   -1    0    0    0    0  0.00000000000E+00  0.00000000000E+00  0.45593999997E+02  0.45594000000E+02  0.51100000000E-03 0. -1.
         11   -1    0    0    0    0 -0.00000000000E+00 -0.00000000000E+00 -0.45593999997E+02  0.45594000000E+02  0.51100000000E-03 0.  1.
    9900012    2    1    2    0    0 -0.24456817309E+02 -0.29673569536E+02 -0.13210194659E+02  0.50528857303E+02  0.29999992259E+02 0.  0.
         12    1    1    2    0    0  0.24456817309E+02  0.29673569536E+02  0.13210194659E+02  0.40659142697E+02  0.00000000000E+00 0. -1.
         11    1    3    3    0    0  0.30095961767E+01 -0.25029833108E+01 -0.28023745779E+01  0.48141352429E+01  0.51100000000E-03 0. -1.
        -11    1    3    3    0    0 -0.72689289865E+01 -0.13190281376E+02 -0.14389987980E+02  0.20830088952E+02  0.51100000000E-03 0.  1.
        -12    1    3    3    0    0 -0.20197484499E+02 -0.13980304849E+02  0.39821678996E+01  0.24884633109E+02  0.00000000000E+00 0.  1.
</event>
<event>
 7    1  0.3331850E-011  0.5052893E+02  0.7816164E-02  0.1300439E+00
        -11   -1    0    0    0    0  0.00000000000E+00  0.00000000000E+00  0.45593999997E+02  0.45594000000E+02  0.51100000000E-03 0.  1.
         11   -1    0    0    0    0 -0.00000000000E+00 -0.00000000000E+00 -0.45593999997E+02  0.45594000000E+02  0.51100000000E-03 0. -1.
    9900012    2    1    2    0    0 -0.36625589924E+02 -0.81773955566E+01  0.15647880626E+02  0.50528932088E+02  0.30000219574E+02 0.  0.
         12    1    1    2    0    0  0.36625589924E+02  0.81773955566E+01 -0.15647880626E+02  0.40659067912E+02  0.00000000000E+00 0. -1.
         11    1    3    3    0    0  0.29901852744E+01  0.21003635472E+01 -0.21180222016E+01  0.42235948330E+01  0.51100000000E-03 0. -1.
        -11    1    3    3    0    0 -0.77405249119E+01 -0.12209436451E+01 -0.14945970060E+01  0.79774839246E+01  0.51100000000E-03 0.  1.
        -12    1    3    3    0    0 -0.31875250287E+02 -0.90568154588E+01  0.19260499834E+02  0.38327853331E+02  0.00000000000E+00 0.  1.
</event>
<event>
 7    1  0.3331850E-011  0.5052886E+02  0.7816164E-02  0.1300439E+00
        -11   -1    0    0    0    0  0.00000000000E+00  0.00000000000E+00  0.45593999997E+02  0.45594000000E+02  0.51100000000E-03 0. -1.
         11   -1    0    0    0    0 -0.00000000000E+00 -0.00000000000E+00 -0.45593999997E+02  0.45594000000E+02  0.51100000000E-03 0.  1.
    9900012    2    1    2    0    0  0.38577766687E+02  0.12842111120E+02 -0.39808673905E-01  0.50528862216E+02  0.30000007192E+02 0.  0.
         12    1    1    2    0    0 -0.38577766687E+02 -0.12842111120E+02  0.39808673905E-01  0.40659137784E+02  0.00000000000E+00 0. -1.
         11    1    3    3    0    0  0.10675297190E+02  0.27267514083E+01 -0.12722682188E+01  0.11091249254E+02  0.51100000000E-03 0. -1.
        -11    1    3    3    0    0  0.28809782463E+02  0.82917967477E+01  0.90846758269E+01  0.31325529429E+02  0.51100000000E-03 0.  1.
         12    1    3    3    0    0 -0.90731296557E+00  0.18235629640E+01 -0.78522162820E+01  0.81120835326E+01  0.00000000000E+00 0. -1.
</event>
<event>
 7    1  0.3331850E-011  0.5052886E+02  0.7816164E-02  0.1300439E+00
        -11   -1    0    0    0    0  0.00000000000E+00  0.00000000000E+00  0.45593999997E+02  0.45594000000E+02  0.51100000000E-03 0.  1.
         11   -1    0    0    0    0 -0.00000000000E+00 -0.00000000000E+00 -0.45593999997E+02  0.45594000000E+02  0.51100000000E-03 0. -1.
    9900012    2    1    2    0    0  0.18683695552E+02 -0.42064512490E+01  0.35866289375E+02  0.50528862956E+02  0.30000009442E+02 0.  0.
         12    1    1    2    0    0 -0.18683695552E+02  0.42064512490E+01 -0.35866289375E+02  0.40659137044E+02  0.00000000000E+00 0. -1.
         11    1    3    3    0    0 -0.88742651541E+00  0.27421408310E+00  0.32626297182E+01  0.33922665171E+01  0.51100000000E-03 0. -1.
        -11    1    3    3    0    0  0.10945260738E+02  0.92842953680E+01  0.51721526249E+01  0.15256081939E+02  0.51100000000E-03 0.  1.
        -12    1    3    3    0    0  0.86258613294E+01 -0.13764960700E+02  0.27431507032E+02  0.31880514500E+02  0.00000000000E+00 0.  1.
</event>
<event>
 7    1  0.3331850E-011  0.5052885E+02  0.7816164E-02  0.1300439E+00
        -11   -1    0    0    0    0  0.00000000000E+00  0.00000000000E+00  0.45593999997E+02  0.45594000000E+02  0.51100000000E-03 0. -1.
         11   -1    0    0    0    0 -0.00000000000E+00 -0.00000000000E+00 -0.45593999997E+02  0.45594000000E+02  0.51100000000E-03 0.  1.
    9900012    2    1    2    0    0 -0.55255908013E+01 -0.35199970242E+02  0.19585611663E+02  0.50528852899E+02  0.29999978873E+02 0.  0.
         12    1    1    2    0    0  0.55255908013E+01  0.35199970242E+02 -0.19585611663E+02  0.40659147101E+02  0.00000000000E+00 0. -1.
         11    1    3    3    0    0 -0.21812285546E+01 -0.11422297135E+02  0.62543230043E+01  0.13203907995E+02  0.51100000000E-03 0. -1.
        -11    1    3    3    0    0  0.34620332763E+01 -0.26998584065E+02  0.91772220888E+01  0.28725086970E+02  0.51100000000E-03 0.  1.
         12    1    3    3    0    0 -0.68063955230E+01  0.32209109580E+01  0.41540665704E+01  0.85998579340E+01  0.00000000000E+00 0. -1.
</event>
<event>
 7    1  0.3331850E-011  0.5052886E+02  0.7816164E-02  0.1300439E+00
        -11   -1    0    0    0    0  0.00000000000E+00  0.00000000000E+00  0.45593999997E+02  0.45594000000E+02  0.51100000000E-03 0.  1.
         11   -1    0    0    0    0 -0.00000000000E+00 -0.00000000000E+00 -0.45593999997E+02  0.45594000000E+02  0.51100000000E-03 0. -1.
    9900012    2    1    2    0    0  0.28486051725E+02  0.18977255232E+02  0.21944802418E+02  0.50528859426E+02  0.29999998713E+02 0.  0.
         12    1    1    2    0    0 -0.28486051725E+02 -0.18977255232E+02 -0.21944802418E+02  0.40659140574E+02  0.00000000000E+00 0. -1.
         11    1    3    3    0    0  0.92994467616E+01  0.71652343027E+01  0.38128272144E+01  0.12343336029E+02  0.51100000000E-03 0. -1.
        -11    1    3    3    0    0  0.17239826635E+02  0.73039653430E+01 -0.68761568902E+00  0.18735857272E+02  0.51100000000E-03 0.  1.
        -12    1    3    3    0    0  0.19467783281E+01  0.45080555866E+01  0.18819590893E+02  0.19449666126E+02  0.00000000000E+00 0.  1.
</event>
<event>
 7    1  0.3331850E-011  0.5052886E+02  0.7816164E-02  0.1300439E+00
        -11   -1    0    0    0    0  0.00000000000E+00  0.00000000000E+00  0.45593999997E+02  0.45594000000E+02  0.51100000000E-03 0. -1.
         11   -1    0    0    0    0 -0.00000000000E+00 -0.00000000000E+00 -0.45593999997E+02  0.45594000000E+02  0.51100000000E-03 0.  1.
    9900012    2    1    2    0    0  0.21205570337E+02  0.27083492571E+02 -0.21678873038E+02  0.50528864257E+02  0.30000013397E+02 0.  0.
         12    1    1    2    0    0 -0.21205570337E+02 -0.27083492571E+02  0.21678873038E+02  0.40659135743E+02  0.00000000000E+00 0. -1.
         11    1    3    3    0    0  0.85023879686E+00 -0.32928247574E+01 -0.49690901901E+01  0.60214166500E+01  0.51100000000E-03 0. -1.
        -11    1    3    3    0    0  0.11481028754E+02  0.38210486019E+01 -0.40466613159E+00  0.12106947948E+02  0.51100000000E-03 0.  1.
         12    1    3    3    0    0  0.88743027857E+01  0.26555268726E+02 -0.16305116716E+02  0.32400499659E+02  0.00000000000E+00 0. -1.
</event>
<event>
 7    1  0.3331850E-011  0.5052887E+02  0.7816164E-02  0.1300439E+00
        -11   -1    0    0    0    0  0.00000000000E+00  0.00000000000E+00  0.45593999997E+02  0.45594000000E+02  0.51100000000E-03 0.  1.
         11   -1    0    0    0    0 -0.00000000000E+00 -0.00000000000E+00 -0.45593999997E+02  0.45594000000E+02  0.51100000000E-03 0. -1.
    9900012    2    1    2    0    0 -0.12885378088E+02 -0.14719015431E+02  0.35643828213E+02  0.50528869741E+02  0.30000030064E+02 0.  0.
         12    1    1    2    0    0  0.12885378088E+02  0.14719015431E+02 -0.35643828213E+02  0.40659130259E+02  0.00000000000E+00 0. -1.
         11    1    3    3    0    0 -0.77522586417E+01 -0.26489150066E+00 -0.20149999678E+01  0.80142315094E+01  0.51100000000E-03 0. -1.
        -11    1    3    3    0    0 -0.25287117214E+01 -0.12474658729E+02  0.15230136925E+02  0.19848641374E+02  0.51100000000E-03 0.  1.
        -12    1    3    3    0    0 -0.26044077246E+01 -0.19794652011E+01  0.22428691256E+02  0.22665996857E+02  0.00000000000E+00 0.  1.
</event>
<event>
 7    1  0.3331850E-011  0.5052885E+02  0.7816164E-02  0.1300439E+00
        -11   -1    0    0    0    0  0.00000000000E+00  0.00000000000E+00  0.45593999997E+02  0.45594000000E+02  0.51100000000E-03 0.  1.
         11   -1    0    0    0    0 -0.00000000000E+00 -0.00000000000E+00 -0.45593999997E+02  0.45594000000E+02  0.51100000000E-03 0. -1.
    9900012    2    1    2    0    0  0.36168262013E+01 -0.33498202174E+02  0.22758629407E+02  0.50528853511E+02  0.29999980733E+02 0.  0.
         12    1    1    2    0    0 -0.36168262013E+01  0.33498202174E+02 -0.22758629407E+02  0.40659146489E+02  0.00000000000E+00 0. -1.
         11    1    3    3    0    0  0.31674282972E+01 -0.39675517582E+01 -0.21398561764E+01  0.55093605517E+01  0.51100000000E-03 0. -1.
        -11    1    3    3    0    0 -0.60951522504E+01 -0.16398328260E+02  0.17087838331E+01  0.17577712966E+02  0.51100000000E-03 0.  1.
         12    1    3    3    0    0  0.65445501545E+01 -0.13132322157E+02  0.23189701750E+02  0.27441779994E+02  0.00000000000E+00 0. -1.
</event>
<event>
 7    1  0.3331850E-011  0.5052886E+02  0.7816164E-02  0.1300439E+00
        -11   -1    0    0    0    0  0.00000000000E+00  0.00000000000E+00  0.45593999997E+02  0.45594000000E+02  0.51100000000E-03 0. -1.
         11   -1    0    0    0    0 -0.00000000000E+00 -0.00000000000E+00 -0.45593999997E+02  0.45594000000E+02  0.51100000000E-03 0.  1.
    9900012    2    1    2    0    0 -0.30761811593E+02 -0.22885956474E+02 -0.13531798464E+02  0.50528860488E+02  0.30000001938E+02 0.  0.
         12    1    1    2    0    0  0.30761811593E+02  0.22885956474E+02  0.13531798464E+02  0.40659139512E+02  0.00000000000E+00 0. -1.
         11    1    3    3    0    0 -0.24980440759E+01 -0.81161972194E+01  0.12358845459E+01  0.85813922169E+01  0.51100000000E-03 0. -1.
        -11    1    3    3    0    0 -0.53604545512E+01 -0.14020128885E+02 -0.63305615583E+00  0.15023290163E+02  0.51100000000E-03 0.  1.
         12    1    3    3    0    0 -0.22903312966E+02 -0.74963036988E+00 -0.14134626854E+02  0.26924178108E+02  0.00000000000E+00 0. -1.
</event>
<event>
 7    1  0.3331850E-011  0.5052886E+02  0.7816164E-02  0.1300439E+00
        -11   -1    0    0    0    0  0.00000000000E+00  0.00000000000E+00  0.45593999997E+02  0.45594000000E+02  0.51100000000E-03 0.  1.
         11   -1    0    0    0    0 -0.00000000000E+00 -0.00000000000E+00 -0.45593999997E+02  0.45594000000E+02  0.51100000000E-03 0. -1.
    9900012    2    1    2    0    0  0.21074812923E+02  0.14761564134E+02  0.31481960013E+02  0.50528864229E+02  0.30000013311E+02 0.  0.
         12    1    1    2    0    0 -0.21074812923E+02 -0.14761564134E+02 -0.31481960013E+02  0.40659135771E+02  0.00000000000E+00 0. -1.
         11    1    3    3    0    0  0.47658597021E+01  0.56553618875E+01  0.87760295816E+00  0.74475985386E+01  0.51100000000E-03 0.  1.
        -11    1    3    3    0    0  0.39900540246E+01  0.13796367641E+02  0.68432916203E+01  0.15908831876E+02  0.51100000000E-03 0. -1.
        -12    1    3    3    0    0  0.12318899196E+02 -0.46901653950E+01  0.23761065434E+02  0.27172433814E+02  0.00000000000E+00 0.  1.
</event>
<event>
 7    1  0.3331850E-011  0.5052886E+02  0.7816164E-02  0.1300439E+00
        -11   -1    0    0    0    0  0.00000000000E+00  0.00000000000E+00  0.45593999997E+02  0.45594000000E+02  0.51100000000E-03 0.  1.
         11   -1    0    0    0    0 -0.00000000000E+00 -0.00000000000E+00 -0.45593999997E+02  0.45594000000E+02  0.51100000000E-03 0. -1.
    9900012    2    1    2    0    0 -0.37656519629E+02 -0.10861492809E+02 -0.10824988001E+02  0.50528857587E+02  0.29999993120E+02 0.  0.
         12    1    1    2    0    0  0.37656519629E+02  0.10861492809E+02  0.10824988001E+02  0.40659142413E+02  0.00000000000E+00 0. -1.
         11    1    3    3    0    0 -0.12845788759E+02 -0.13246970343E+01 -0.12104025605E+02  0.17699619973E+02  0.51100000000E-03 0. -1.
        -11    1    3    3    0    0 -0.11063188327E+02  0.17331256739E+01 -0.70140102403E+01  0.13213409873E+02  0.51100000000E-03 0.  1.
        -12    1    3    3    0    0 -0.13747542542E+02 -0.11269921448E+02  0.82930478439E+01  0.19615827740E+02  0.00000000000E+00 0.  1.
</event>
<event>
 7    1  0.3331850E-011  0.5052882E+02  0.7816164E-02  0.1300439E+00
        -11   -1    0    0    0    0  0.00000000000E+00  0.00000000000E+00  0.45593999997E+02  0.45594000000E+02  0.51100000000E-03 0.  1.
         11   -1    0    0    0    0 -0.00000000000E+00 -0.00000000000E+00 -0.45593999997E+02  0.45594000000E+02  0.51100000000E-03 0. -1.
    9900012    2    1    2    0    0 -0.25090638099E+02 -0.11638785666E+01  0.31973017513E+02  0.50528824130E+02  0.29999891425E+02 0.  0.
         12    1    1    2    0    0  0.25090638099E+02  0.11638785666E+01 -0.31973017513E+02  0.40659175870E+02  0.00000000000E+00 0. -1.
         11    1    3    3    0    0 -0.56909649286E+01 -0.61106307296E+00 -0.31519111370E+01  0.65341429411E+01  0.51100000000E-03 0. -1.
        -11    1    3    3    0    0 -0.80182935830E+01 -0.73955561809E+01  0.71922133083E+01  0.13065803295E+02  0.51100000000E-03 0.  1.
         12    1    3    3    0    0 -0.11381379588E+02  0.68427406872E+01  0.27932715342E+02  0.30928877894E+02  0.00000000000E+00 0. -1.
</event>
<event>
 7    1  0.3331850E-011  0.5052886E+02  0.7816164E-02  0.1300439E+00
        -11   -1    0    0    0    0  0.00000000000E+00  0.00000000000E+00  0.45593999997E+02  0.45594000000E+02  0.51100000000E-03 0. -1.
         11   -1    0    0    0    0 -0.00000000000E+00 -0.00000000000E+00 -0.45593999997E+02  0.45594000000E+02  0.51100000000E-03 0.  1.
    9900012    2    1    2    0    0 -0.99022337412E+00 -0.40550434008E+02 -0.28013601876E+01  0.50528857615E+02  0.29999993208E+02 0.  0.
         12    1    1    2    0    0  0.99022337412E+00  0.40550434008E+02  0.28013601876E+01  0.40659142385E+02  0.00000000000E+00 0. -1.
         11    1    3    3    0    0 -0.10613599380E+02 -0.67677303960E+01  0.23950156547E+01  0.12813538417E+02  0.51100000000E-03 0. -1.
        -11    1    3    3    0    0  0.20505398917E+00 -0.18708374579E+02  0.13864539656E+01  0.18760799061E+02  0.51100000000E-03 0.  1.
        -12    1    3    3    0    0  0.94183220165E+01 -0.15074329032E+02 -0.65828298079E+01  0.18954520138E+02  0.00000000000E+00 0.  1.
</event>
<event>
 7    1  0.3331850E-011  0.5052886E+02  0.7816164E-02  0.1300439E+00
        -11   -1    0    0    0    0  0.00000000000E+00  0.00000000000E+00  0.45593999997E+02  0.45594000000E+02  0.51100000000E-03 0.  1.
         11   -1    0    0    0    0 -0.00000000000E+00 -0.00000000000E+00 -0.45593999997E+02  0.45594000000E+02  0.51100000000E-03 0. -1.
    9900012    2    1    2    0    0  0.16297518565E+02  0.20615311967E+02  0.31025241143E+02  0.50528858508E+02  0.29999995922E+02 0.  0.
         12    1    1    2    0    0 -0.16297518565E+02 -0.20615311967E+02 -0.31025241143E+02  0.40659141492E+02  0.00000000000E+00 0. -1.
         11    1    3    3    0    0 -0.64023729427E+00  0.87639329213E+01 -0.50543697132E+00  0.88018117928E+01  0.51100000000E-03 0. -1.
        -11    1    3    3    0    0  0.42529737500E+01 -0.47795057714E+01  0.80113531368E+01  0.10252474847E+02  0.51100000000E-03 0.  1.
         12    1    3    3    0    0  0.12684782109E+02  0.16630884817E+02  0.23519324977E+02  0.31474571869E+02  0.00000000000E+00 0. -1.
</event>
<event>
 7    1  0.3331850E-011  0.5052887E+02  0.7816164E-02  0.1300439E+00
        -11   -1    0    0    0    0  0.00000000000E+00  0.00000000000E+00  0.45593999997E+02  0.45594000000E+02  0.51100000000E-03 0.  1.
         11   -1    0    0    0    0 -0.00000000000E+00 -0.00000000000E+00 -0.45593999997E+02  0.45594000000E+02  0.51100000000E-03 0. -1.
    9900012    2    1    2    0    0 -0.16730777431E+02 -0.19977258689E+02  0.31211461703E+02  0.50528866711E+02  0.30000020854E+02 0.  0.
         12    1    1    2    0    0  0.16730777431E+02  0.19977258689E+02 -0.31211461703E+02  0.40659133289E+02  0.00000000000E+00 0. -1.
         11    1    3    3    0    0 -0.10429576104E+02 -0.25851844221E+01  0.12684621806E+02  0.16624044840E+02  0.51100000000E-03 0. -1.
        -11    1    3    3    0    0 -0.72857479393E+01 -0.77137315064E+01  0.21293568093E+02  0.23790750706E+02  0.51100000000E-03 0.  1.
         12    1    3    3    0    0  0.98454661228E+00 -0.96783427605E+01 -0.27667281955E+01  0.10114071165E+02  0.00000000000E+00 0. -1.
</event>
<event>
 7    1  0.3331850E-011  0.5052882E+02  0.7816164E-02  0.1300439E+00
        -11   -1    0    0    0    0  0.00000000000E+00  0.00000000000E+00  0.45593999997E+02  0.45594000000E+02  0.51100000000E-03 0. -1.
         11   -1    0    0    0    0 -0.00000000000E+00 -0.00000000000E+00 -0.45593999997E+02  0.45594000000E+02  0.51100000000E-03 0.  1.
    9900012    2    1    2    0    0 -0.10986696932E+02  0.25052197450E+02 -0.30080711659E+02  0.50528815054E+02  0.29999863838E+02 0.  0.
         12    1    1    2    0    0  0.10986696932E+02 -0.25052197450E+02  0.30080711659E+02  0.40659184946E+02  0.00000000000E+00 0. -1.
         11    1    3    3    0    0  0.94181858147E+00  0.81595438055E+01  0.33713869074E+01  0.88787063976E+01  0.51100000000E-03 0. -1.
        -11    1    3    3    0    0 -0.31219864567E+01 -0.83775025672E+00 -0.59043055324E+00  0.32859143975E+01  0.51100000000E-03 0.  1.
        -12    1    3    3    0    0 -0.88065290570E+01  0.17730403901E+02 -0.32861668013E+02  0.38364194259E+02  0.00000000000E+00 0.  1.
</event>
<event>
 7    1  0.3331850E-011  0.5052884E+02  0.7816164E-02  0.1300439E+00
        -11   -1    0    0    0    0  0.00000000000E+00  0.00000000000E+00  0.45593999997E+02  0.45594000000E+02  0.51100000000E-03 0.  1.
         11   -1    0    0    0    0 -0.00000000000E+00 -0.00000000000E+00 -0.45593999997E+02  0.45594000000E+02  0.51100000000E-03 0. -1.
    9900012    2    1    2    0    0  0.12024052922E+02 -0.34645659565E+02  0.17557549150E+02  0.50528842267E+02  0.29999946555E+02 0.  0.
         12    1    1    2    0    0 -0.12024052922E+02  0.34645659565E+02 -0.17557549150E+02  0.40659157733E+02  0.00000000000E+00 0. -1.
         11    1    3    3    0    0  0.20982890173E+01 -0.50162415416E+01  0.74281173809E+01  0.92055648436E+01  0.51100000000E-03 0. -1.
        -11    1    3    3    0    0 -0.67094643430E+01 -0.29517092496E+01  0.62739824658E+01  0.96484379827E+01  0.51100000000E-03 0.  1.
         12    1    3    3    0    0  0.16635228247E+02 -0.26677708774E+02  0.38554493034E+01  0.31674839441E+02  0.00000000000E+00 0. -1.
</event>
<event>
 7    1  0.3331850E-011  0.5052886E+02  0.7816164E-02  0.1300439E+00
        -11   -1    0    0    0    0  0.00000000000E+00  0.00000000000E+00  0.45593999997E+02  0.45594000000E+02  0.51100000000E-03 0. -1.
         11   -1    0    0    0    0 -0.00000000000E+00 -0.00000000000E+00 -0.45593999997E+02  0.45594000000E+02  0.51100000000E-03 0.  1.
    9900012    2    1    2    0    0  0.10646134668E+02 -0.34294549213E+02 -0.19071164463E+02  0.50528860769E+02  0.30000002792E+02 0.  0.
         12    1    1    2    0    0 -0.10646134668E+02  0.34294549213E+02  0.19071164463E+02  0.40659139231E+02  0.00000000000E+00 0. -1.
         11    1    3    3    0    0  0.10179655030E+01  0.25474185917E+00  0.47426199832E+01  0.48573235168E+01  0.51100000000E-03 0. -1.
        -11    1    3    3    0    0 -0.19105220052E+01 -0.68829368619E+01 -0.10900009711E+02  0.13032080652E+02  0.51100000000E-03 0.  1.
        -12    1    3    3    0    0  0.11538691170E+02 -0.27666354210E+02 -0.12913774736E+02  0.32639456599E+02  0.00000000000E+00 0.  1.
</event>
<event>
 7    1  0.3331850E-011  0.5052886E+02  0.7816164E-02  0.1300439E+00
        -11   -1    0    0    0    0  0.00000000000E+00  0.00000000000E+00  0.45593999997E+02  0.45594000000E+02  0.51100000000E-03 0. -1.
         11   -1    0    0    0    0 -0.00000000000E+00 -0.00000000000E+00 -0.45593999997E+02  0.45594000000E+02  0.51100000000E-03 0.  1.
    9900012    2    1    2    0    0 -0.31544971284E+02  0.23766341365E+02 -0.96561610379E+01  0.50528860299E+02  0.30000001366E+02 0.  0.
         12    1    1    2    0    0  0.31544971284E+02 -0.23766341365E+02  0.96561610379E+01  0.40659139701E+02  0.00000000000E+00 0. -1.
         11    1    3    3    0    0 -0.65198451085E+01 -0.16412576918E+01 -0.26600594394E+01  0.72303543158E+01  0.51100000000E-03 0. -1.
        -11    1    3    3    0    0 -0.12229931602E+02  0.12343075446E+01 -0.99149323139E+01  0.15792423030E+02  0.51100000000E-03 0.  1.
        -12    1    3    3    0    0 -0.12795194573E+02  0.24173291512E+02  0.29188307154E+01  0.27506082954E+02  0.00000000000E+00 0.  1.
</event>
<event>
 7    1  0.3331850E-011  0.5052886E+02  0.7816164E-02  0.1300439E+00
        -11   -1    0    0    0    0  0.00000000000E+00  0.00000000000E+00  0.45593999997E+02  0.45594000000E+02  0.51100000000E-03 0.  1.
         11   -1    0    0    0    0 -0.00000000000E+00 -0.00000000000E+00 -0.45593999997E+02  0.45594000000E+02  0.51100000000E-03 0. -1.
    9900012    2    1    2    0    0 -0.25114362183E+01  0.26375889203E+02  0.30841051560E+02  0.50528864440E+02  0.30000013953E+02 0.  0.
         12    1    1    2    0    0  0.25114362183E+01 -0.26375889203E+02 -0.30841051560E+02  0.40659135560E+02  0.00000000000E+00 0. -1.
         11    1    3    3    0    0 -0.94410019000E+00  0.30763344580E+01  0.21606350924E+01  0.38760163996E+01  0.51100000000E-03 0. -1.
        -11    1    3    3    0    0 -0.45784123815E+01 -0.57496564946E+01  0.80227155136E+01  0.10880458364E+02  0.51100000000E-03 0.  1.
        -12    1    3    3    0    0  0.30110763532E+01  0.29049211240E+02  0.20657700954E+02  0.35772389677E+02  0.00000000000E+00 0.  1.
</event>
<event>
 7    1  0.3331850E-011  0.5052887E+02  0.7816164E-02  0.1300439E+00
        -11   -1    0    0    0    0  0.00000000000E+00  0.00000000000E+00  0.45593999997E+02  0.45594000000E+02  0.51100000000E-03 0.  1.
         11   -1    0    0    0    0 -0.00000000000E+00 -0.00000000000E+00 -0.45593999997E+02  0.45594000000E+02  0.51100000000E-03 0. -1.
    9900012    2    1    2    0    0 -0.12012767934E+02  0.20557627920E+02  0.32958191547E+02  0.50528867579E+02  0.30000023495E+02 0.  0.
         12    1    1    2    0    0  0.12012767934E+02 -0.20557627920E+02 -0.32958191547E+02  0.40659132421E+02  0.00000000000E+00 0. -1.
         11    1    3    3    0    0  0.30974978642E+01  0.72013564545E+01 -0.24387124554E+01  0.82098323067E+01  0.51100000000E-03 0. -1.
        -11    1    3    3    0    0 -0.98121787178E+01  0.87841446311E+01  0.11719693720E+02  0.17629273078E+02  0.51100000000E-03 0.  1.
        -12    1    3    3    0    0 -0.52980870804E+01  0.45721268344E+01  0.23677210282E+02  0.24689762195E+02  0.00000000000E+00 0.  1.
</event>
<event>
 7    1  0.3331850E-011  0.5052885E+02  0.7816164E-02  0.1300439E+00
        -11   -1    0    0    0    0  0.00000000000E+00  0.00000000000E+00  0.45593999997E+02  0.45594000000E+02  0.51100000000E-03 0. -1.
         11   -1    0    0    0    0 -0.00000000000E+00 -0.00000000000E+00 -0.45593999997E+02  0.45594000000E+02  0.51100000000E-03 0.  1.
    9900012    2    1    2    0    0 -0.28385793785E+02 -0.18134526377E+01 -0.29053822393E+02  0.50528849801E+02  0.29999969454E+02 0.  0.
         12    1    1    2    0    0  0.28385793785E+02  0.18134526377E+01  0.29053822393E+02  0.40659150199E+02  0.00000000000E+00 0. -1.
         11    1    3    3    0    0 -0.11283080650E+01 -0.11680874808E+01 -0.63935278085E+01  0.65965677099E+01  0.51100000000E-03 0. -1.
        -11    1    3    3    0    0 -0.28430203204E+02  0.21927340946E+01 -0.26560319237E+02  0.38968385844E+02  0.51100000000E-03 0.  1.
         12    1    3    3    0    0  0.11727174842E+01 -0.28380992514E+01  0.39000246524E+01  0.49638962466E+01  0.00000000000E+00 0. -1.
</event>
<event>
 7    1  0.3331850E-011  0.5052886E+02  0.7816164E-02  0.1300439E+00
        -11   -1    0    0    0    0  0.00000000000E+00  0.00000000000E+00  0.45593999997E+02  0.45594000000E+02  0.51100000000E-03 0.  1.
         11   -1    0    0    0    0 -0.00000000000E+00 -0.00000000000E+00 -0.45593999997E+02  0.45594000000E+02  0.51100000000E-03 0. -1.
    9900012    2    1    2    0    0  0.13606490135E+02  0.36516909277E+02  0.11599345811E+02  0.50528855147E+02  0.29999985704E+02 0.  0.
         12    1    1    2    0    0 -0.13606490135E+02 -0.36516909277E+02 -0.11599345811E+02  0.40659144853E+02  0.00000000000E+00 0. -1.
         11    1    3    3    0    0  0.30334704771E-01  0.75352863971E+01  0.10312423902E+02  0.12772139534E+02  0.51100000000E-03 0. -1.
        -11    1    3    3    0    0  0.58489750664E+01  0.29419357939E+02  0.99662163310E+00  0.30011704147E+02  0.51100000000E-03 0.  1.
        -12    1    3    3    0    0  0.77271803637E+01 -0.43773505919E+00  0.29030027599E+00  0.77450114658E+01  0.00000000000E+00 0.  1.
</event>
<event>
 7    1  0.3331850E-011  0.5052891E+02  0.7816164E-02  0.1300439E+00
        -11   -1    0    0    0    0  0.00000000000E+00  0.00000000000E+00  0.45593999997E+02  0.45594000000E+02  0.51100000000E-03 0.  1.
         11   -1    0    0    0    0 -0.00000000000E+00 -0.00000000000E+00 -0.45593999997E+02  0.45594000000E+02  0.51100000000E-03 0. -1.
    9900012    2    1    2    0    0  0.57740565495E+01  0.25198514091E+02  0.31382422525E+02  0.50528913870E+02  0.30000164199E+02 0.  0.
         12    1    1    2    0    0 -0.57740565495E+01 -0.25198514091E+02 -0.31382422525E+02  0.40659086130E+02  0.00000000000E+00 0. -1.
         11    1    3    3    0    0  0.12771544524E+02  0.45500816769E+01  0.60820500819E+01  0.14859573555E+02  0.51100000000E-03 0. -1.
        -11    1    3    3    0    0  0.27635101444E+01  0.13881001763E+01  0.58078738678E+01  0.65799095391E+01  0.51100000000E-03 0.  1.
        -12    1    3    3    0    0 -0.97609981184E+01  0.19260332237E+02  0.19492498575E+02  0.29089430776E+02  0.00000000000E+00 0.  1.
</event>
<event>
 7    1  0.3331850E-011  0.5052886E+02  0.7816164E-02  0.1300439E+00
        -11   -1    0    0    0    0  0.00000000000E+00  0.00000000000E+00  0.45593999997E+02  0.45594000000E+02  0.51100000000E-03 0. -1.
         11   -1    0    0    0    0 -0.00000000000E+00 -0.00000000000E+00 -0.45593999997E+02  0.45594000000E+02  0.51100000000E-03 0.  1.
    9900012    2    1    2    0    0  0.86661260177E+01 -0.38997426124E+02  0.75673633210E+01  0.50528856230E+02  0.29999988996E+02 0.  0.
         12    1    1    2    0    0 -0.86661260177E+01  0.38997426124E+02 -0.75673633210E+01  0.40659143770E+02  0.00000000000E+00 0. -1.
         11    1    3    3    0    0 -0.79472105227E+01 -0.12575902294E+02 -0.76525227287E+00  0.14896210421E+02  0.51100000000E-03 0. -1.
        -11    1    3    3    0    0  0.27528342778E+01 -0.36395346672E+00 -0.29350104455E+01  0.40404016216E+01  0.51100000000E-03 0.  1.
        -12    1    3    3    0    0  0.13860502263E+02 -0.26057570363E+02  0.11267626039E+02  0.31592244187E+02  0.00000000000E+00 0.  1.
</event>
<event>
 7    1  0.3331850E-011  0.5052886E+02  0.7816164E-02  0.1300439E+00
        -11   -1    0    0    0    0  0.00000000000E+00  0.00000000000E+00  0.45593999997E+02  0.45594000000E+02  0.51100000000E-03 0.  1.
         11   -1    0    0    0    0 -0.00000000000E+00 -0.00000000000E+00 -0.45593999997E+02  0.45594000000E+02  0.51100000000E-03 0. -1.
    9900012    2    1    2    0    0  0.21269780032E+02  0.54974992828E+01  0.34213144494E+02  0.50528864530E+02  0.30000014226E+02 0.  0.
         12    1    1    2    0    0 -0.21269780032E+02 -0.54974992828E+01 -0.34213144494E+02  0.40659135470E+02  0.00000000000E+00 0. -1.
         11    1    3    3    0    0  0.10254249521E+02  0.17399488454E+01 -0.12244397778E+00  0.10401540655E+02  0.51100000000E-03 0. -1.
        -11    1    3    3    0    0 -0.21349546225E+01 -0.41416411052E+01  0.40311165958E+01  0.61612598999E+01  0.51100000000E-03 0.  1.
         12    1    3    3    0    0  0.13150485134E+02  0.78991915426E+01  0.30304471876E+02  0.33966063975E+02  0.00000000000E+00 0. -1.
</event>
<event>
 7    1  0.3331850E-011  0.5052886E+02  0.7816164E-02  0.1300439E+00
        -11   -1    0    0    0    0  0.00000000000E+00  0.00000000000E+00  0.45593999997E+02  0.45594000000E+02  0.51100000000E-03 0.  1.
         11   -1    0    0    0    0 -0.00000000000E+00 -0.00000000000E+00 -0.45593999997E+02  0.45594000000E+02  0.51100000000E-03 0. -1.
    9900012    2    1    2    0    0 -0.21939535715E+02  0.33979591593E+02  0.41485118591E+01  0.50528855606E+02  0.29999987100E+02 0.  0.
         12    1    1    2    0    0  0.21939535715E+02 -0.33979591593E+02 -0.41485118591E+01  0.40659144394E+02  0.00000000000E+00 0. -1.
         11    1    3    3    0    0 -0.50075039764E+01  0.59150880171E+01 -0.75703309264E+01  0.10833894633E+02  0.51100000000E-03 0. -1.
        -11    1    3    3    0    0 -0.29249788083E+01  0.98943236485E+01 -0.48445183403E+01  0.11398355131E+02  0.51100000000E-03 0.  1.
         12    1    3    3    0    0 -0.14007052930E+02  0.18170179927E+02  0.16563361126E+02  0.28296605842E+02  0.00000000000E+00 0. -1.
</event>
<event>
 7    1  0.3331850E-011  0.5052886E+02  0.7816164E-02  0.1300439E+00
        -11   -1    0    0    0    0  0.00000000000E+00  0.00000000000E+00  0.45593999997E+02  0.45594000000E+02  0.51100000000E-03 0.  1.
         11   -1    0    0    0    0 -0.00000000000E+00 -0.00000000000E+00 -0.45593999997E+02  0.45594000000E+02  0.51100000000E-03 0. -1.
    9900012    2    1    2    0    0 -0.83292724077E+01  0.32802019981E+02 -0.22534783155E+02  0.50528859017E+02  0.29999997467E+02 0.  0.
         12    1    1    2    0    0  0.83292724077E+01 -0.32802019981E+02  0.22534783155E+02  0.40659140983E+02  0.00000000000E+00 0. -1.
         11    1    3    3    0    0 -0.27429528653E+01 -0.21237260534E+00  0.31487419404E+01  0.41813237871E+01  0.51100000000E-03 0. -1.
        -11    1    3    3    0    0  0.10100276151E+01 -0.12738496778E+01 -0.61016047329E+01  0.63144619218E+01  0.51100000000E-03 0.  1.
        -12    1    3    3    0    0 -0.65963471575E+01  0.34288242264E+02 -0.19581920362E+02  0.40033073308E+02  0.00000000000E+00 0.  1.
</event>
<event>
 7    1  0.3331850E-011  0.5052886E+02  0.7816164E-02  0.1300439E+00
        -11   -1    0    0    0    0  0.00000000000E+00  0.00000000000E+00  0.45593999997E+02  0.45594000000E+02  0.51100000000E-03 0.  1.
         11   -1    0    0    0    0 -0.00000000000E+00 -0.00000000000E+00 -0.45593999997E+02  0.45594000000E+02  0.51100000000E-03 0. -1.
    9900012    2    1    2    0    0 -0.34436428208E+02 -0.14114680419E+02  0.16372962429E+02  0.50528859702E+02  0.29999999551E+02 0.  0.
         12    1    1    2    0    0  0.34436428208E+02  0.14114680419E+02 -0.16372962429E+02  0.40659140298E+02  0.00000000000E+00 0. -1.
         11    1    3    3    0    0 -0.70789344895E+01 -0.67673441628E+01  0.11933948161E+02  0.15437855404E+02  0.51100000000E-03 0. -1.
        -11    1    3    3    0    0  0.18123438280E+01 -0.37858586736E+01 -0.25147967234E+01  0.48930071396E+01  0.51100000000E-03 0.  1.
        -12    1    3    3    0    0 -0.29169837546E+02 -0.35614775830E+01  0.69538109915E+01  0.30197997158E+02  0.00000000000E+00 0.  1.
</event>
<event>
 7    1  0.3331850E-011  0.5052885E+02  0.7816164E-02  0.1300439E+00
        -11   -1    0    0    0    0  0.00000000000E+00  0.00000000000E+00  0.45593999997E+02  0.45594000000E+02  0.51100000000E-03 0.  1.
         11   -1    0    0    0    0 -0.00000000000E+00 -0.00000000000E+00 -0.45593999997E+02  0.45594000000E+02  0.51100000000E-03 0. -1.
    9900012    2    1    2    0    0  0.42718197614E+01 -0.10853408592E+02  0.38950244526E+02  0.50528850098E+02  0.29999970358E+02 0.  0.
         12    1    1    2    0    0 -0.42718197614E+01  0.10853408592E+02 -0.38950244526E+02  0.40659149902E+02  0.00000000000E+00 0. -1.
         11    1    3    3    0    0 -0.32238363138E+01  0.66740858786E+01  0.75532188800E+01  0.10582422152E+02  0.51100000000E-03 0. -1.
        -11    1    3    3    0    0 -0.22350712321E+00 -0.35697543213E+01  0.20063454889E+02  0.20379777322E+02  0.51100000000E-03 0.  1.
         12    1    3    3    0    0  0.77191631984E+01 -0.13957740149E+02  0.11333570757E+02  0.19566650624E+02  0.00000000000E+00 0. -1.
</event>
<event>
 7    1  0.3331850E-011  0.5052886E+02  0.7816164E-02  0.1300439E+00
        -11   -1    0    0    0    0  0.00000000000E+00  0.00000000000E+00  0.45593999997E+02  0.45594000000E+02  0.51100000000E-03 0.  1.
         11   -1    0    0    0    0 -0.00000000000E+00 -0.00000000000E+00 -0.45593999997E+02  0.45594000000E+02  0.51100000000E-03 0. -1.
    9900012    2    1    2    0    0  0.17878855295E+02  0.13786753087E+02  0.33814755812E+02  0.50528859109E+02  0.29999997748E+02 0.  0.
         12    1    1    2    0    0 -0.17878855295E+02 -0.13786753087E+02 -0.33814755812E+02  0.40659140891E+02  0.00000000000E+00 0. -1.
         11    1    3    3    0    0  0.14239259495E+00 -0.47929945803E+01  0.47856044493E+01  0.67745909769E+01  0.51100000000E-03 0. -1.
        -11    1    3    3    0    0  0.54119783632E+01 -0.12670317191E+01  0.16144756478E+02  0.17074777925E+02  0.51100000000E-03 0.  1.
        -12    1    3    3    0    0  0.12324484337E+02  0.19846779386E+02  0.12884394885E+02  0.26679490207E+02  0.00000000000E+00 0.  1.
</event>
<event>
 7    1  0.3331850E-011  0.5052884E+02  0.7816164E-02  0.1300439E+00
        -11   -1    0    0    0    0  0.00000000000E+00  0.00000000000E+00  0.45593999997E+02  0.45594000000E+02  0.51100000000E-03 0.  1.
         11   -1    0    0    0    0 -0.00000000000E+00 -0.00000000000E+00 -0.45593999997E+02  0.45594000000E+02  0.51100000000E-03 0. -1.
    9900012    2    1    2    0    0  0.14989829567E+02  0.18822985238E+01  0.37748231557E+02  0.50528843296E+02  0.29999949684E+02 0.  0.
         12    1    1    2    0    0 -0.14989829567E+02 -0.18822985238E+01 -0.37748231557E+02  0.40659156704E+02  0.00000000000E+00 0. -1.
         11    1    3    3    0    0 -0.34172300339E+01 -0.94094291443E+01  0.12284799374E+02  0.15847116894E+02  0.51100000000E-03 0. -1.
        -11    1    3    3    0    0  0.27733853915E+01 -0.15556218022E+01  0.23003105165E+01  0.39246725284E+01  0.51100000000E-03 0.  1.
        -12    1    3    3    0    0  0.15633674210E+02  0.12847349470E+02  0.23163121666E+02  0.30757053875E+02  0.00000000000E+00 0.  1.
</event>
<event>
 7    1  0.3331850E-011  0.5052885E+02  0.7816164E-02  0.1300439E+00
        -11   -1    0    0    0    0  0.00000000000E+00  0.00000000000E+00  0.45593999997E+02  0.45594000000E+02  0.51100000000E-03 0.  1.
         11   -1    0    0    0    0 -0.00000000000E+00 -0.00000000000E+00 -0.45593999997E+02  0.45594000000E+02  0.51100000000E-03 0. -1.
    9900012    2    1    2    0    0  0.40237850881E+02 -0.56746520909E+01  0.13712492370E+01  0.50528847963E+02  0.29999963868E+02 0.  0.
         12    1    1    2    0    0 -0.40237850881E+02  0.56746520909E+01 -0.13712492370E+01  0.40659152037E+02  0.00000000000E+00 0. -1.
         11    1    3    3    0    0  0.98372825952E+01 -0.39250420288E+01 -0.10237751123E+02  0.14730567949E+02  0.51100000000E-03 0. -1.
        -11    1    3    3    0    0  0.21538046740E+01 -0.31124932871E+00  0.67607914569E+01  0.71023976306E+01  0.51100000000E-03 0.  1.
         12    1    3    3    0    0  0.28246763612E+02 -0.14383607334E+01  0.48482089034E+01  0.28695882383E+02  0.00000000000E+00 0. -1.
</event>
<event>
 7    1  0.3331850E-011  0.5052886E+02  0.7816164E-02  0.1300439E+00
        -11   -1    0    0    0    0  0.00000000000E+00  0.00000000000E+00  0.45593999997E+02  0.45594000000E+02  0.51100000000E-03 0.  1.
         11   -1    0    0    0    0 -0.00000000000E+00 -0.00000000000E+00 -0.45593999997E+02  0.45594000000E+02  0.51100000000E-03 0. -1.
    9900012    2    1    2    0    0 -0.99919865271E+00 -0.82994762780E+01  0.39790525354E+02  0.50528860654E+02  0.30000002444E+02 0.  0.
         12    1    1    2    0    0  0.99919865271E+00  0.82994762780E+01 -0.39790525354E+02  0.40659139346E+02  0.00000000000E+00 0. -1.
         11    1    3    3    0    0  0.24870320993E+01 -0.49005757322E+01  0.97868051998E+00  0.55820056423E+01  0.51100000000E-03 0. -1.
        -11    1    3    3    0    0 -0.10298033919E+02 -0.27979132666E+01  0.78729697992E+01  0.13261277275E+02  0.51100000000E-03 0.  1.
        -12    1    3    3    0    0  0.68118031674E+01 -0.60098727923E+00  0.30938875034E+02  0.31685577736E+02  0.00000000000E+00 0.  1.
</event>
<event>
 7    1  0.3331850E-011  0.5052885E+02  0.7816164E-02  0.1300439E+00
        -11   -1    0    0    0    0  0.00000000000E+00  0.00000000000E+00  0.45593999997E+02  0.45594000000E+02  0.51100000000E-03 0.  1.
         11   -1    0    0    0    0 -0.00000000000E+00 -0.00000000000E+00 -0.45593999997E+02  0.45594000000E+02  0.51100000000E-03 0. -1.
    9900012    2    1    2    0    0 -0.16241244288E+02 -0.34018991166E+02 -0.15234725181E+02  0.50528848172E+02  0.29999964505E+02 0.  0.
         12    1    1    2    0    0  0.16241244288E+02  0.34018991166E+02  0.15234725181E+02  0.40659151828E+02  0.00000000000E+00 0. -1.
         11    1    3    3    0    0 -0.54023965042E+01  0.64000799710E+00 -0.64254757149E+01  0.84191589039E+01  0.51100000000E-03 0. -1.
        -11    1    3    3    0    0  0.22531168173E+00  0.14975094798E+01  0.22517114169E+01  0.27135778158E+01  0.51100000000E-03 0.  1.
        -12    1    3    3    0    0 -0.11064159465E+02 -0.36156508643E+02 -0.11060960883E+02  0.39396111453E+02  0.00000000000E+00 0.  1.
</event>
<event>
 7    1  0.3331850E-011  0.5052886E+02  0.7816164E-02  0.1300439E+00
        -11   -1    0    0    0    0  0.00000000000E+00  0.00000000000E+00  0.45593999997E+02  0.45594000000E+02  0.51100000000E-03 0. -1.
         11   -1    0    0    0    0 -0.00000000000E+00 -0.00000000000E+00 -0.45593999997E+02  0.45594000000E+02  0.51100000000E-03 0.  1.
    9900012    2    1    2    0    0 -0.16818801377E+01 -0.28197592687E+02 -0.29244363800E+02  0.50528858737E+02  0.29999996618E+02 0.  0.
         12    1    1    2    0    0  0.16818801377E+01  0.28197592687E+02  0.29244363800E+02  0.40659141263E+02  0.00000000000E+00 0. -1.
         11    1    3    3    0    0  0.15862846913E+01  0.38428647087E+01  0.10797955167E+01  0.42953308267E+01  0.51100000000E-03 0. -1.
        -11    1    3    3    0    0 -0.38322336789E+01 -0.20311889963E+02 -0.27049895312E+02  0.34043438802E+02  0.51100000000E-03 0.  1.
         12    1    3    3    0    0  0.56406884985E+00 -0.11728567433E+02 -0.32742640047E+01  0.12190089109E+02  0.00000000000E+00 0. -1.
</event>
<event>
 7    1  0.3331850E-011  0.5052886E+02  0.7816164E-02  0.1300439E+00
        -11   -1    0    0    0    0  0.00000000000E+00  0.00000000000E+00  0.45593999997E+02  0.45594000000E+02  0.51100000000E-03 0. -1.
         11   -1    0    0    0    0 -0.00000000000E+00 -0.00000000000E+00 -0.45593999997E+02  0.45594000000E+02  0.51100000000E-03 0.  1.
    9900012    2    1    2    0    0 -0.13692517962E+02 -0.38222067340E+02 -0.21803963998E+01  0.50528860703E+02  0.30000002594E+02 0.  0.
         12    1    1    2    0    0  0.13692517962E+02  0.38222067340E+02  0.21803963998E+01  0.40659139297E+02  0.00000000000E+00 0. -1.
         11    1    3    3    0    0 -0.20334976132E+01 -0.16179385484E+02  0.66851355377E+00  0.16320371865E+02  0.51100000000E-03 0. -1.
        -11    1    3    3    0    0 -0.37873077206E+01 -0.23079627139E+02 -0.80293502055E+01  0.24728189453E+02  0.51100000000E-03 0.  1.
        -12    1    3    3    0    0 -0.78717126286E+01  0.10369452832E+01  0.51804402520E+01  0.94802993851E+01  0.00000000000E+00 0.  1.
</event>
<event>
 7    1  0.3331850E-011  0.5052895E+02  0.7816164E-02  0.1300438E+00
        -11   -1    0    0    0    0  0.00000000000E+00  0.00000000000E+00  0.45593999997E+02  0.45594000000E+02  0.51100000000E-03 0. -1.
         11   -1    0    0    0    0 -0.00000000000E+00 -0.00000000000E+00 -0.45593999997E+02  0.45594000000E+02  0.51100000000E-03 0.  1.
    9900012    2    1    2    0    0 -0.16491776952E+01 -0.96227835011E+01 -0.39469486160E+02  0.50528953194E+02  0.30000283728E+02 0.  0.
         12    1    1    2    0    0  0.16491776952E+01  0.96227835011E+01  0.39469486160E+02  0.40659046806E+02  0.00000000000E+00 0. -1.
         11    1    3    3    0    0  0.19206569934E+01  0.47026714034E+01 -0.97925927893E+01  0.11031723139E+02  0.51100000000E-03 0. -1.
        -11    1    3    3    0    0 -0.56328826179E+01 -0.18884472102E+02 -0.27959754021E+02  0.34206731769E+02  0.51100000000E-03 0.  1.
         12    1    3    3    0    0  0.20630479294E+01  0.45590171975E+01 -0.17171393500E+01  0.52904982859E+01  0.00000000000E+00 0. -1.
</event>
<event>
 7    1  0.3331850E-011  0.5052887E+02  0.7816164E-02  0.1300439E+00
        -11   -1    0    0    0    0  0.00000000000E+00  0.00000000000E+00  0.45593999997E+02  0.45594000000E+02  0.51100000000E-03 0.  1.
         11   -1    0    0    0    0 -0.00000000000E+00 -0.00000000000E+00 -0.45593999997E+02  0.45594000000E+02  0.51100000000E-03 0. -1.
    9900012    2    1    2    0    0 -0.20019458697E+02  0.51193711612E+01  0.35016829318E+02  0.50528867900E+02  0.30000024470E+02 0.  0.
         12    1    1    2    0    0  0.20019458697E+02 -0.51193711612E+01 -0.35016829318E+02  0.40659132100E+02  0.00000000000E+00 0. -1.
         11    1    3    3    0    0 -0.77165677572E+01 -0.63577337886E+01  0.64032659974E+01  0.11872995097E+02  0.51100000000E-03 0. -1.
        -11    1    3    3    0    0 -0.42602491501E+01  0.23122612558E+01 -0.23434371574E+01  0.53840480038E+01  0.51100000000E-03 0.  1.
        -12    1    3    3    0    0 -0.80426417901E+01  0.91648436941E+01  0.30957000478E+02  0.33271824799E+02  0.00000000000E+00 0.  1.
</event>
<event>
 7    1  0.3331850E-011  0.5052886E+02  0.7816164E-02  0.1300439E+00
        -11   -1    0    0    0    0  0.00000000000E+00  0.00000000000E+00  0.45593999997E+02  0.45594000000E+02  0.51100000000E-03 0.  1.
         11   -1    0    0    0    0 -0.00000000000E+00 -0.00000000000E+00 -0.45593999997E+02  0.45594000000E+02  0.51100000000E-03 0. -1.
    9900012    2    1    2    0    0 -0.27728853366E+02  0.22199485368E+02  0.19785330845E+02  0.50528858638E+02  0.29999996317E+02 0.  0.
         12    1    1    2    0    0  0.27728853366E+02 -0.22199485368E+02 -0.19785330845E+02  0.40659141362E+02  0.00000000000E+00 0. -1.
         11    1    3    3    0    0 -0.11247782959E+02  0.10827483704E+02  0.51384122438E+01  0.16436249740E+02  0.51100000000E-03 0. -1.
        -11    1    3    3    0    0 -0.60822468939E+01  0.12195064302E+02 -0.26602674282E+01  0.13884896242E+02  0.51100000000E-03 0.  1.
         12    1    3    3    0    0 -0.10398823513E+02 -0.82306263726E+00  0.17307186030E+02  0.20207712657E+02  0.00000000000E+00 0. -1.
</event>
<event>
 7    1  0.3331850E-011  0.5052886E+02  0.7816164E-02  0.1300439E+00
        -11   -1    0    0    0    0  0.00000000000E+00  0.00000000000E+00  0.45593999997E+02  0.45594000000E+02  0.51100000000E-03 0.  1.
         11   -1    0    0    0    0 -0.00000000000E+00 -0.00000000000E+00 -0.45593999997E+02  0.45594000000E+02  0.51100000000E-03 0. -1.
    9900012    2    1    2    0    0 -0.19126866511E+02 -0.15444421615E+02  0.32385160101E+02  0.50528858637E+02  0.29999996314E+02 0.  0.
         12    1    1    2    0    0  0.19126866511E+02  0.15444421615E+02 -0.32385160101E+02  0.40659141363E+02  0.00000000000E+00 0. -1.
         11    1    3    3    0    0 -0.14463257139E+02 -0.12896375364E+02  0.19914007529E+02  0.27786147641E+02  0.51100000000E-03 0. -1.
        -11    1    3    3    0    0  0.37010714726E+01 -0.77495010172E+01  0.86162674020E+01  0.12165227506E+02  0.51100000000E-03 0.  1.
        -12    1    3    3    0    0 -0.83646808447E+01  0.52014547660E+01  0.38548851697E+01  0.10577483490E+02  0.00000000000E+00 0.  1.
</event>
<event>
 7    1  0.3331850E-011  0.5052883E+02  0.7816164E-02  0.1300439E+00
        -11   -1    0    0    0    0  0.00000000000E+00  0.00000000000E+00  0.45593999997E+02  0.45594000000E+02  0.51100000000E-03 0. -1.
         11   -1    0    0    0    0 -0.00000000000E+00 -0.00000000000E+00 -0.45593999997E+02  0.45594000000E+02  0.51100000000E-03 0.  1.
    9900012    2    1    2    0    0 -0.80134576514E+01  0.39749221222E+02 -0.29920554557E+01  0.50528825302E+02  0.29999894988E+02 0.  0.
         12    1    1    2    0    0  0.80134576514E+01 -0.39749221222E+02  0.29920554557E+01  0.40659174698E+02  0.00000000000E+00 0. -1.
         11    1    3    3    0    0 -0.25076465584E+01 -0.26553260650E+00 -0.72691712184E+00  0.26243489840E+01  0.51100000000E-03 0. -1.
        -11    1    3    3    0    0 -0.15690061620E+02  0.21873032605E+02 -0.30100991727E+01  0.27086311788E+02  0.51100000000E-03 0.  1.
         12    1    3    3    0    0  0.10184250527E+02  0.18141721223E+02  0.74496083883E+00  0.20818164530E+02  0.00000000000E+00 0. -1.
</event>
<event>
 7    1  0.3614656E-011  0.5052886E+02  0.7816164E-02  0.1300439E+00
        -11   -1    0    0    0    0  0.00000000000E+00  0.00000000000E+00  0.45593999997E+02  0.45594000000E+02  0.51100000000E-03 0. -1.
         11   -1    0    0    0    0 -0.00000000000E+00 -0.00000000000E+00 -0.45593999997E+02  0.45594000000E+02  0.51100000000E-03 0.  1.
    9900012    2    1    2    0    0 -0.27874456369E+02  0.20700001476E+02 -0.21158695559E+02  0.50528858632E+02  0.29999996299E+02 0.  0.
         12    1    1    2    0    0  0.27874456369E+02 -0.20700001476E+02  0.21158695559E+02  0.40659141368E+02  0.00000000000E+00 0. -1.
         11    1    3    3    0    0 -0.91837488615E+01  0.14567625499E+02 -0.11340865330E+01  0.17258131659E+02  0.51100000000E-03 0.  1.
        -11    1    3    3    0    0 -0.12417397583E+02  0.10315157805E+02 -0.57668739121E+01  0.17142085003E+02  0.51100000000E-03 0. -1.
         12    1    3    3    0    0 -0.62733099244E+01 -0.41827818277E+01 -0.14257735114E+02  0.16128641970E+02  0.00000000000E+00 0. -1.
</event>
<event>
 7    1  0.3331850E-011  0.5052890E+02  0.7816164E-02  0.1300439E+00
        -11   -1    0    0    0    0  0.00000000000E+00  0.00000000000E+00  0.45593999997E+02  0.45594000000E+02  0.51100000000E-03 0. -1.
         11   -1    0    0    0    0 -0.00000000000E+00 -0.00000000000E+00 -0.45593999997E+02  0.45594000000E+02  0.51100000000E-03 0.  1.
    9900012    2    1    2    0    0 -0.24594284803E+02  0.50583942525E+01 -0.31979626647E+02  0.50528896249E+02  0.30000110638E+02 0.  0.
         12    1    1    2    0    0  0.24594284803E+02 -0.50583942525E+01  0.31979626647E+02  0.40659103751E+02  0.00000000000E+00 0. -1.
         11    1    3    3    0    0  0.46579472072E+01  0.12619892148E+01 -0.21831151403E+01  0.52967047247E+01  0.51100000000E-03 0. -1.
        -11    1    3    3    0    0 -0.15990709424E+01 -0.47879383214E+01 -0.50971936340E+01  0.71737552546E+01  0.51100000000E-03 0.  1.
        -12    1    3    3    0    0 -0.27653161068E+02  0.85843433591E+01 -0.24699317872E+02  0.38058436270E+02  0.00000000000E+00 0.  1.
</event>
<event>
 7    1  0.3331850E-011  0.5052886E+02  0.7816164E-02  0.1300439E+00
        -11   -1    0    0    0    0  0.00000000000E+00  0.00000000000E+00  0.45593999997E+02  0.45594000000E+02  0.51100000000E-03 0. -1.
         11   -1    0    0    0    0 -0.00000000000E+00 -0.00000000000E+00 -0.45593999997E+02  0.45594000000E+02  0.51100000000E-03 0.  1.
    9900012    2    1    2    0    0 -0.32100763454E+02 -0.16958274688E+02  0.18306387749E+02  0.50528856783E+02  0.29999990676E+02 0.  0.
         12    1    1    2    0    0  0.32100763454E+02  0.16958274688E+02 -0.18306387749E+02  0.40659143217E+02  0.00000000000E+00 0. -1.
         11    1    3    3    0    0  0.35604687035E+00 -0.65876147960E+01  0.79555204545E+00  0.66450238068E+01  0.51100000000E-03 0. -1.
        -11    1    3    3    0    0 -0.13122675679E+02 -0.15200185908E+02  0.11128673101E+02  0.22958606967E+02  0.51100000000E-03 0.  1.
        -12    1    3    3    0    0 -0.19334134646E+02  0.48295260158E+01  0.63821626027E+01  0.20925226009E+02  0.00000000000E+00 0.  1.
</event>
<event>
 7    1  0.3331850E-011  0.5052887E+02  0.7816164E-02  0.1300439E+00
        -11   -1    0    0    0    0  0.00000000000E+00  0.00000000000E+00  0.45593999997E+02  0.45594000000E+02  0.51100000000E-03 0. -1.
         11   -1    0    0    0    0 -0.00000000000E+00 -0.00000000000E+00 -0.45593999997E+02  0.45594000000E+02  0.51100000000E-03 0.  1.
    9900012    2    1    2    0    0 -0.27288328859E+02  0.22605605255E+02 -0.19937375814E+02  0.50528865292E+02  0.30000016541E+02 0.  0.
         12    1    1    2    0    0  0.27288328859E+02 -0.22605605255E+02  0.19937375814E+02  0.40659134708E+02  0.00000000000E+00 0. -1.
         11    1    3    3    0    0 -0.37744851090E+01 -0.37091664612E+01 -0.39181345135E+01  0.65845601221E+01  0.51100000000E-03 0. -1.
        -11    1    3    3    0    0 -0.16240294707E+02  0.44558256876E+01 -0.11699193034E+02  0.20505430320E+02  0.51100000000E-03 0.  1.
        -12    1    3    3    0    0 -0.72735490436E+01  0.21858946029E+02 -0.43200482661E+01  0.23438874849E+02  0.00000000000E+00 0.  1.
</event>
<event>
 7    1  0.3331850E-011  0.5052885E+02  0.7816164E-02  0.1300439E+00
        -11   -1    0    0    0    0  0.00000000000E+00  0.00000000000E+00  0.45593999997E+02  0.45594000000E+02  0.51100000000E-03 0.  1.
         11   -1    0    0    0    0 -0.00000000000E+00 -0.00000000000E+00 -0.45593999997E+02  0.45594000000E+02  0.51100000000E-03 0. -1.
    9900012    2    1    2    0    0  0.39226771624E+02  0.45955528488E+01  0.96596034210E+01  0.50528847817E+02  0.29999963424E+02 0.  0.
         12    1    1    2    0    0 -0.39226771624E+02 -0.45955528488E+01 -0.96596034210E+01  0.40659152183E+02  0.00000000000E+00 0. -1.
         11    1    3    3    0    0  0.13893115453E+02 -0.24126790125E+01  0.25809729493E+00  0.14103414178E+02  0.51100000000E-03 0. -1.
        -11    1    3    3    0    0  0.10056061208E+02 -0.82634689293E+01  0.39580211040E+00  0.13021748935E+02  0.51100000000E-03 0.  1.
        -12    1    3    3    0    0  0.15277594963E+02  0.15271700791E+02  0.90057040157E+01  0.23403684703E+02  0.00000000000E+00 0.  1.
</event>
<event>
 7    1  0.3331850E-011  0.5052886E+02  0.7816164E-02  0.1300439E+00
        -11   -1    0    0    0    0  0.00000000000E+00  0.00000000000E+00  0.45593999997E+02  0.45594000000E+02  0.51100000000E-03 0. -1.
         11   -1    0    0    0    0 -0.00000000000E+00 -0.00000000000E+00 -0.45593999997E+02  0.45594000000E+02  0.51100000000E-03 0.  1.
    9900012    2    1    2    0    0  0.95511954866E+00  0.15423759952E+02 -0.37607994424E+02  0.50528857498E+02  0.29999992852E+02 0.  0.
         12    1    1    2    0    0 -0.95511954866E+00 -0.15423759952E+02  0.37607994424E+02  0.40659142502E+02  0.00000000000E+00 0. -1.
         11    1    3    3    0    0 -0.53686380285E+01  0.14344958771E+02 -0.29750868457E+02  0.33462132189E+02  0.51100000000E-03 0.  1.
        -11    1    3    3    0    0 -0.27484014834E+01  0.25168844831E+01  0.14419545732E+01  0.39959543876E+01  0.51100000000E-03 0. -1.
        -12    1    3    3    0    0  0.90721590606E+01 -0.14380833026E+01 -0.92990805401E+01  0.13070770922E+02  0.00000000000E+00 0.  1.
</event>
<event>
 7    1  0.3331850E-011  0.5052886E+02  0.7816164E-02  0.1300439E+00
        -11   -1    0    0    0    0  0.00000000000E+00  0.00000000000E+00  0.45593999997E+02  0.45594000000E+02  0.51100000000E-03 0. -1.
         11   -1    0    0    0    0 -0.00000000000E+00 -0.00000000000E+00 -0.45593999997E+02  0.45594000000E+02  0.51100000000E-03 0.  1.
    9900012    2    1    2    0    0  0.13511318890E+02  0.32813089327E+02 -0.19847186558E+02  0.50528863467E+02  0.30000010996E+02 0.  0.
         12    1    1    2    0    0 -0.13511318890E+02 -0.32813089327E+02  0.19847186558E+02  0.40659136533E+02  0.00000000000E+00 0. -1.
         11    1    3    3    0    0  0.28214086806E+01  0.37077219595E+01  0.61531261888E+01  0.77180639560E+01  0.51100000000E-03 0. -1.
        -11    1    3    3    0    0 -0.15447271486E+01  0.13608842119E+01  0.92729237311E+00  0.22578882187E+01  0.51100000000E-03 0.  1.
         12    1    3    3    0    0  0.12234637358E+02  0.27744483155E+02 -0.26927605120E+02  0.40552911293E+02  0.00000000000E+00 0. -1.
</event>
<event>
 7    1  0.3331850E-011  0.5052886E+02  0.7816164E-02  0.1300439E+00
        -11   -1    0    0    0    0  0.00000000000E+00  0.00000000000E+00  0.45593999997E+02  0.45594000000E+02  0.51100000000E-03 0.  1.
         11   -1    0    0    0    0 -0.00000000000E+00 -0.00000000000E+00 -0.45593999997E+02  0.45594000000E+02  0.51100000000E-03 0. -1.
    9900012    2    1    2    0    0  0.18564111797E+02  0.31756603089E+02  0.17322172485E+02  0.50528859009E+02  0.29999997443E+02 0.  0.
         12    1    1    2    0    0 -0.18564111797E+02 -0.31756603089E+02 -0.17322172485E+02  0.40659140991E+02  0.00000000000E+00 0. -1.
         11    1    3    3    0    0  0.83526888135E+00  0.10879277643E+01  0.51114406060E+01  0.52922666462E+01  0.51100000000E-03 0. -1.
        -11    1    3    3    0    0  0.48760676086E+01 -0.39485692783E+01 -0.20861420756E+00  0.62777985646E+01  0.51100000000E-03 0.  1.
        -12    1    3    3    0    0  0.12852775307E+02  0.34617244603E+02  0.12419346087E+02  0.38958793798E+02  0.00000000000E+00 0.  1.
</event>
<event>
 7    1  0.3331850E-011  0.5052886E+02  0.7816164E-02  0.1300439E+00
        -11   -1    0    0    0    0  0.00000000000E+00  0.00000000000E+00  0.45593999997E+02  0.45594000000E+02  0.51100000000E-03 0.  1.
         11   -1    0    0    0    0 -0.00000000000E+00 -0.00000000000E+00 -0.45593999997E+02  0.45594000000E+02  0.51100000000E-03 0. -1.
    9900012    2    1    2    0    0  0.11799588496E+02  0.26076667902E+02  0.28878072849E+02  0.50528856022E+02  0.29999988364E+02 0.  0.
         12    1    1    2    0    0 -0.11799588496E+02 -0.26076667902E+02 -0.28878072849E+02  0.40659143978E+02  0.00000000000E+00 0. -1.
         11    1    3    3    0    0 -0.48301691587E+01 -0.24494146019E+01  0.46682670745E+01  0.71500268345E+01  0.51100000000E-03 0. -1.
        -11    1    3    3    0    0 -0.21641072513E+01  0.54815521889E+01  0.18603797717E+01  0.61799504651E+01  0.51100000000E-03 0.  1.
        -12    1    3    3    0    0  0.18793864906E+02  0.23044530315E+02  0.22349426003E+02  0.37198878722E+02  0.00000000000E+00 0.  1.
</event>
<event>
 7    1  0.3331850E-011  0.5052886E+02  0.7816164E-02  0.1300439E+00
        -11   -1    0    0    0    0  0.00000000000E+00  0.00000000000E+00  0.45593999997E+02  0.45594000000E+02  0.51100000000E-03 0.  1.
         11   -1    0    0    0    0 -0.00000000000E+00 -0.00000000000E+00 -0.45593999997E+02  0.45594000000E+02  0.51100000000E-03 0. -1.
    9900012    2    1    2    0    0  0.70199744568E+01 -0.13849944504E+02  0.37577448808E+02  0.50528860030E+02  0.30000000548E+02 0.  0.
         12    1    1    2    0    0 -0.70199744568E+01  0.13849944504E+02 -0.37577448808E+02  0.40659139970E+02  0.00000000000E+00 0. -1.
         11    1    3    3    0    0  0.59934640862E+01 -0.43472067270E+01  0.17141460126E+02  0.18672157711E+02  0.51100000000E-03 0. -1.
        -11    1    3    3    0    0  0.56623941922E+01  0.34485072423E+01  0.16135073010E+02  0.17444067515E+02  0.51100000000E-03 0.  1.
         12    1    3    3    0    0 -0.46358838217E+01 -0.12951245019E+02  0.43009156726E+01  0.14412634804E+02  0.00000000000E+00 0. -1.
</event>
<event>
 7    1  0.3331850E-011  0.5052885E+02  0.7816164E-02  0.1300439E+00
        -11   -1    0    0    0    0  0.00000000000E+00  0.00000000000E+00  0.45593999997E+02  0.45594000000E+02  0.51100000000E-03 0.  1.
         11   -1    0    0    0    0 -0.00000000000E+00 -0.00000000000E+00 -0.45593999997E+02  0.45594000000E+02  0.51100000000E-03 0. -1.
    9900012    2    1    2    0    0  0.20240968236E+02  0.60434118088E+01  0.34741146461E+02  0.50528845080E+02  0.29999955104E+02 0.  0.
         12    1    1    2    0    0 -0.20240968236E+02 -0.60434118088E+01 -0.34741146461E+02  0.40659154920E+02  0.00000000000E+00 0. -1.
         11    1    3    3    0    0  0.55692448359E+01  0.76201491344E+01  0.54631528620E+01  0.10905466534E+02  0.51100000000E-03 0. -1.
        -11    1    3    3    0    0 -0.32022808744E+01  0.23493733403E+01  0.17304064953E+02  0.17754008619E+02  0.51100000000E-03 0.  1.
        -12    1    3    3    0    0  0.17874004275E+02 -0.39261106659E+01  0.11973928646E+02  0.21869369927E+02  0.00000000000E+00 0.  1.
</event>
<event>
 7    1  0.3828775E-011  0.5052886E+02  0.7816164E-02  0.1300439E+00
        -11   -1    0    0    0    0  0.00000000000E+00  0.00000000000E+00  0.45593999997E+02  0.45594000000E+02  0.51100000000E-03 0. -1.
         11   -1    0    0    0    0 -0.00000000000E+00 -0.00000000000E+00 -0.45593999997E+02  0.45594000000E+02  0.51100000000E-03 0.  1.
    9900012    2    1    2    0    0  0.30788973040E+00  0.21158146096E+02 -0.34718927988E+02  0.50528857081E+02  0.29999991583E+02 0.  0.
         12    1    1    2    0    0 -0.30788973040E+00 -0.21158146096E+02  0.34718927988E+02  0.40659142919E+02  0.00000000000E+00 0. -1.
         11    1    3    3    0    0 -0.21872062522E+01  0.66355247360E+01 -0.15695248170E+02  0.17180072034E+02  0.51100000000E-03 0. -1.
        -11    1    3    3    0    0  0.87088180502E+01  0.13274406818E+02 -0.21342621765E+02  0.26600016772E+02  0.51100000000E-03 0.  1.
         12    1    3    3    0    0 -0.62137220676E+01  0.12482145412E+01  0.23189419470E+01  0.67487682749E+01  0.00000000000E+00 0. -1.
</event>
<event>
 7    1  0.3331850E-011  0.5052886E+02  0.7816164E-02  0.1300439E+00
        -11   -1    0    0    0    0  0.00000000000E+00  0.00000000000E+00  0.45593999997E+02  0.45594000000E+02  0.51100000000E-03 0.  1.
         11   -1    0    0    0    0 -0.00000000000E+00 -0.00000000000E+00 -0.45593999997E+02  0.45594000000E+02  0.51100000000E-03 0. -1.
    9900012    2    1    2    0    0 -0.25552022642E+01  0.29707953509E+02 -0.27641895915E+02  0.50528856255E+02  0.29999989072E+02 0.  0.
         12    1    1    2    0    0  0.25552022642E+01 -0.29707953509E+02  0.27641895915E+02  0.40659143745E+02  0.00000000000E+00 0. -1.
         11    1    3    3    0    0 -0.66945747446E+01  0.59212213637E+01 -0.20656708317E+02  0.22507283092E+02  0.51100000000E-03 0. -1.
        -11    1    3    3    0    0  0.20994631071E+01  0.67870048821E+01 -0.82089134662E+01  0.10856216706E+02  0.51100000000E-03 0.  1.
        -12    1    3    3    0    0  0.20399093734E+01  0.16999727263E+02  0.12237258681E+01  0.17165356457E+02  0.00000000000E+00 0.  1.
</event>
<event>
 7    1  0.3331850E-011  0.5052888E+02  0.7816164E-02  0.1300439E+00
        -11   -1    0    0    0    0  0.00000000000E+00  0.00000000000E+00  0.45593999997E+02  0.45594000000E+02  0.51100000000E-03 0. -1.
         11   -1    0    0    0    0 -0.00000000000E+00 -0.00000000000E+00 -0.45593999997E+02  0.45594000000E+02  0.51100000000E-03 0.  1.
    9900012    2    1    2    0    0 -0.18509193032E+02  0.35795361682E+02  0.54098093137E+01  0.50528878250E+02  0.30000055929E+02 0.  0.
         12    1    1    2    0    0  0.18509193032E+02 -0.35795361682E+02 -0.54098093137E+01  0.40659121750E+02  0.00000000000E+00 0. -1.
         11    1    3    3    0    0  0.80942666625E+00  0.35044575807E+00 -0.85573482898E+00  0.12289288491E+01  0.51100000000E-03 0. -1.
        -11    1    3    3    0    0 -0.84022453754E+01  0.27913130480E+02 -0.75876944140E+01  0.30121648151E+02  0.51100000000E-03 0.  1.
         12    1    3    3    0    0 -0.10916374323E+02  0.75317854441E+01  0.13853238557E+02  0.19178301250E+02  0.00000000000E+00 0. -1.
</event>
<event>
 7    1  0.3331850E-011  0.5052885E+02  0.7816164E-02  0.1300439E+00
        -11   -1    0    0    0    0  0.00000000000E+00  0.00000000000E+00  0.45593999997E+02  0.45594000000E+02  0.51100000000E-03 0.  1.
         11   -1    0    0    0    0 -0.00000000000E+00 -0.00000000000E+00 -0.45593999997E+02  0.45594000000E+02  0.51100000000E-03 0. -1.
    9900012    2    1    2    0    0  0.98672813673E+01  0.26192363912E+01  0.39356611353E+02  0.50528849762E+02  0.29999969337E+02 0.  0.
         12    1    1    2    0    0 -0.98672813673E+01 -0.26192363912E+01 -0.39356611353E+02  0.40659150238E+02  0.00000000000E+00 0. -1.
         11    1    3    3    0    0  0.39187840121E+01  0.67833043254E+00  0.67591044512E+01  0.78423525522E+01  0.51100000000E-03 0. -1.
        -11    1    3    3    0    0  0.78529162605E+01  0.12035700268E+02  0.90174578453E+01  0.16965875191E+02  0.51100000000E-03 0.  1.
        -12    1    3    3    0    0 -0.19044189053E+01 -0.10094794310E+02  0.23580049057E+02  0.25720622019E+02  0.00000000000E+00 0.  1.
</event>
<event>
 7    1  0.3331850E-011  0.5052891E+02  0.7816164E-02  0.1300439E+00
        -11   -1    0    0    0    0  0.00000000000E+00  0.00000000000E+00  0.45593999997E+02  0.45594000000E+02  0.51100000000E-03 0. -1.
         11   -1    0    0    0    0 -0.00000000000E+00 -0.00000000000E+00 -0.45593999997E+02  0.45594000000E+02  0.51100000000E-03 0.  1.
    9900012    2    1    2    0    0  0.31477936180E+02 -0.54661237277E+01 -0.25148015730E+02  0.50528909136E+02  0.30000149809E+02 0.  0.
         12    1    1    2    0    0 -0.31477936180E+02  0.54661237277E+01  0.25148015730E+02  0.40659090864E+02  0.00000000000E+00 0. -1.
         11    1    3    3    0    0  0.61693856197E-01 -0.10289893801E+01  0.21435347020E+01  0.23785219267E+01  0.51100000000E-03 0. -1.
        -11    1    3    3    0    0  0.10125265530E+02 -0.13199342410E+02 -0.10918239516E+02  0.19898532521E+02  0.51100000000E-03 0.  1.
        -12    1    3    3    0    0  0.21290976794E+02  0.87622080622E+01 -0.16373310916E+02  0.28251854688E+02  0.00000000000E+00 0.  1.
</event>
<event>
 7    1  0.3331850E-011  0.5052886E+02  0.7816164E-02  0.1300439E+00
        -11   -1    0    0    0    0  0.00000000000E+00  0.00000000000E+00  0.45593999997E+02  0.45594000000E+02  0.51100000000E-03 0.  1.
         11   -1    0    0    0    0 -0.00000000000E+00 -0.00000000000E+00 -0.45593999997E+02  0.45594000000E+02  0.51100000000E-03 0. -1.
    9900012    2    1    2    0    0  0.15829371001E+02  0.35601545195E+02  0.11624393295E+02  0.50528861715E+02  0.30000005669E+02 0.  0.
         12    1    1    2    0    0 -0.15829371001E+02 -0.35601545195E+02 -0.11624393295E+02  0.40659138285E+02  0.00000000000E+00 0. -1.
         11    1    3    3    0    0  0.10694200798E+01  0.96955703575E+01 -0.85408460388E+01  0.12965099120E+02  0.51100000000E-03 0. -1.
        -11    1    3    3    0    0 -0.13607151955E-01 -0.96692907843E+00  0.25151644035E+00  0.99919856795E+00  0.51100000000E-03 0.  1.
        -12    1    3    3    0    0  0.14773558073E+02  0.26872903916E+02  0.19913722894E+02  0.36564564028E+02  0.00000000000E+00 0.  1.
</event>
<event>
 7    1  0.3331850E-011  0.5052886E+02  0.7816164E-02  0.1300439E+00
        -11   -1    0    0    0    0  0.00000000000E+00  0.00000000000E+00  0.45593999997E+02  0.45594000000E+02  0.51100000000E-03 0.  1.
         11   -1    0    0    0    0 -0.00000000000E+00 -0.00000000000E+00 -0.45593999997E+02  0.45594000000E+02  0.51100000000E-03 0. -1.
    9900012    2    1    2    0    0 -0.64905357646E+00  0.17356982057E+02  0.36762476715E+02  0.50528858458E+02  0.29999995769E+02 0.  0.
         12    1    1    2    0    0  0.64905357646E+00 -0.17356982057E+02 -0.36762476715E+02  0.40659141542E+02  0.00000000000E+00 0. -1.
         11    1    3    3    0    0  0.69927252353E+00  0.93927736236E+01  0.12477338814E+02  0.15633207046E+02  0.51100000000E-03 0.  1.
        -11    1    3    3    0    0  0.33342827689E+01  0.15565592444E+02  0.17676615446E+02  0.23787976870E+02  0.51100000000E-03 0. -1.
         12    1    3    3    0    0 -0.46826088689E+01 -0.76013840097E+01  0.66085224554E+01  0.11107674542E+02  0.00000000000E+00 0. -1.
</event>
<event>
 7    1  0.3331850E-011  0.5052879E+02  0.7816164E-02  0.1300439E+00
        -11   -1    0    0    0    0  0.00000000000E+00  0.00000000000E+00  0.45593999997E+02  0.45594000000E+02  0.51100000000E-03 0.  1.
         11   -1    0    0    0    0 -0.00000000000E+00 -0.00000000000E+00 -0.45593999997E+02  0.45594000000E+02  0.51100000000E-03 0. -1.
    9900012    2    1    2    0    0 -0.31801437744E+02  0.22228079883E+01 -0.25236853844E+02  0.50528793049E+02  0.29999796951E+02 0.  0.
         12    1    1    2    0    0  0.31801437744E+02 -0.22228079883E+01  0.25236853844E+02  0.40659206951E+02  0.00000000000E+00 0. -1.
         11    1    3    3    0    0 -0.60357861153E+01  0.57983844471E+01 -0.10722400488E+02  0.13602273660E+02  0.51100000000E-03 0. -1.
        -11    1    3    3    0    0  0.35503753493E+01  0.22238927707E+00 -0.44544814896E+01  0.57006164328E+01  0.51100000000E-03 0.  1.
        -12    1    3    3    0    0 -0.29316026978E+02 -0.37979657359E+01 -0.10059971866E+02  0.31225902956E+02  0.00000000000E+00 0.  1.
</event>
<event>
 7    1  0.3331850E-011  0.5052885E+02  0.7816164E-02  0.1300439E+00
        -11   -1    0    0    0    0  0.00000000000E+00  0.00000000000E+00  0.45593999997E+02  0.45594000000E+02  0.51100000000E-03 0.  1.
         11   -1    0    0    0    0 -0.00000000000E+00 -0.00000000000E+00 -0.45593999997E+02  0.45594000000E+02  0.51100000000E-03 0. -1.
    9900012    2    1    2    0    0 -0.19863701833E+02 -0.20550729560E+02  0.28918283751E+02  0.50528852554E+02  0.29999977823E+02 0.  0.
         12    1    1    2    0    0  0.19863701833E+02  0.20550729560E+02 -0.28918283751E+02  0.40659147446E+02  0.00000000000E+00 0. -1.
         11    1    3    3    0    0 -0.36896142502E+01 -0.32297242527E+01 -0.96501078028E+00  0.49975612183E+01  0.51100000000E-03 0. -1.
        -11    1    3    3    0    0 -0.95300447895E+01 -0.17946126006E+02  0.66831080921E+01  0.21390397994E+02  0.51100000000E-03 0.  1.
         12    1    3    3    0    0 -0.66440427934E+01  0.62512069911E+00  0.23200186439E+02  0.24140893341E+02  0.00000000000E+00 0. -1.
</event>
<event>
 7    1  0.3331850E-011  0.5052886E+02  0.7816164E-02  0.1300439E+00
        -11   -1    0    0    0    0  0.00000000000E+00  0.00000000000E+00  0.45593999997E+02  0.45594000000E+02  0.51100000000E-03 0. -1.
         11   -1    0    0    0    0 -0.00000000000E+00 -0.00000000000E+00 -0.45593999997E+02  0.45594000000E+02  0.51100000000E-03 0.  1.
    9900012    2    1    2    0    0 -0.27854198794E+02  0.29523619849E+02  0.23801311277E+01  0.50528861499E+02  0.30000005013E+02 0.  0.
         12    1    1    2    0    0  0.27854198794E+02 -0.29523619849E+02 -0.23801311277E+01  0.40659138501E+02  0.00000000000E+00 0. -1.
         11    1    3    3    0    0 -0.17006476468E+02  0.90722427030E+01 -0.66270732209E+01  0.20382441690E+02  0.51100000000E-03 0. -1.
        -11    1    3    3    0    0 -0.68670078987E+01  0.83161753002E+01  0.12881553055E+02  0.16800267214E+02  0.51100000000E-03 0.  1.
        -12    1    3    3    0    0 -0.39807144273E+01  0.12135201846E+02 -0.38743487061E+01  0.13346152595E+02  0.00000000000E+00 0.  1.
</event>
<event>
 7    1  0.3331850E-011  0.5052885E+02  0.7816164E-02  0.1300439E+00
        -11   -1    0    0    0    0  0.00000000000E+00  0.00000000000E+00  0.45593999997E+02  0.45594000000E+02  0.51100000000E-03 0.  1.
         11   -1    0    0    0    0 -0.00000000000E+00 -0.00000000000E+00 -0.45593999997E+02  0.45594000000E+02  0.51100000000E-03 0. -1.
    9900012    2    1    2    0    0  0.16556713964E+02 -0.13425117276E+02  0.34623804262E+02  0.50528851303E+02  0.29999974022E+02 0.  0.
         12    1    1    2    0    0 -0.16556713964E+02  0.13425117276E+02 -0.34623804262E+02  0.40659148697E+02  0.00000000000E+00 0. -1.
         11    1    3    3    0    0 -0.17182619172E+01 -0.12845698481E+02  0.15520966332E+02  0.20220405278E+02  0.51100000000E-03 0. -1.
        -11    1    3    3    0    0  0.96491411365E+01 -0.54301088421E+01  0.16844916911E+02  0.20157957057E+02  0.51100000000E-03 0.  1.
         12    1    3    3    0    0  0.86258347446E+01  0.48506900469E+01  0.22579210195E+01  0.10150488969E+02  0.00000000000E+00 0. -1.
</event>
<event>
 7    1  0.3331850E-011  0.5052872E+02  0.7816164E-02  0.1300439E+00
        -11   -1    0    0    0    0  0.00000000000E+00  0.00000000000E+00  0.45593999997E+02  0.45594000000E+02  0.51100000000E-03 0. -1.
         11   -1    0    0    0    0 -0.00000000000E+00 -0.00000000000E+00 -0.45593999997E+02  0.45594000000E+02  0.51100000000E-03 0.  1.
    9900012    2    1    2    0    0 -0.15791233720E+02  0.36667874798E+02 -0.76993889826E+01  0.50528724363E+02  0.29999588171E+02 0.  0.
         12    1    1    2    0    0  0.15791233720E+02 -0.36667874798E+02  0.76993889826E+01  0.40659275637E+02  0.00000000000E+00 0. -1.
         11    1    3    3    0    0 -0.21057297792E+01  0.18118186914E+02 -0.37122147781E+00  0.18243919552E+02  0.51100000000E-03 0.  1.
        -11    1    3    3    0    0  0.54460581202E+01  0.39820131096E+01 -0.44143614420E+01  0.80624167999E+01  0.51100000000E-03 0. -1.
        -12    1    3    3    0    0 -0.19131562060E+02  0.14567674774E+02 -0.29138060628E+01  0.24222388011E+02  0.00000000000E+00 0.  1.
</event>
<event>
 7    1  0.3331850E-011  0.5052890E+02  0.7816164E-02  0.1300439E+00
        -11   -1    0    0    0    0  0.00000000000E+00  0.00000000000E+00  0.45593999997E+02  0.45594000000E+02  0.51100000000E-03 0. -1.
         11   -1    0    0    0    0 -0.00000000000E+00 -0.00000000000E+00 -0.45593999997E+02  0.45594000000E+02  0.51100000000E-03 0.  1.
    9900012    2    1    2    0    0 -0.18266373199E+00  0.23513513922E+02  0.33169922254E+02  0.50528899600E+02  0.30000120824E+02 0.  0.
         12    1    1    2    0    0  0.18266373199E+00 -0.23513513922E+02 -0.33169922254E+02  0.40659100400E+02  0.00000000000E+00 0. -1.
         11    1    3    3    0    0 -0.15685975897E+00  0.13913921014E+02  0.18253231919E+02  0.22952173725E+02  0.51100000000E-03 0. -1.
        -11    1    3    3    0    0 -0.37100871426E+01  0.12136699523E+02  0.18085951263E+02  0.22094475673E+02  0.51100000000E-03 0.  1.
         12    1    3    3    0    0  0.36842831695E+01 -0.25371066144E+01 -0.31692609279E+01  0.54822502018E+01  0.00000000000E+00 0. -1.
</event>
<event>
 7    1  0.3331850E-011  0.5052889E+02  0.7816164E-02  0.1300439E+00
        -11   -1    0    0    0    0  0.00000000000E+00  0.00000000000E+00  0.45593999997E+02  0.45594000000E+02  0.51100000000E-03 0. -1.
         11   -1    0    0    0    0 -0.00000000000E+00 -0.00000000000E+00 -0.45593999997E+02  0.45594000000E+02  0.51100000000E-03 0.  1.
    9900012    2    1    2    0    0  0.22049994836E+01 -0.37660879066E+02  0.15164421307E+02  0.50528886528E+02  0.30000081091E+02 0.  0.
         12    1    1    2    0    0 -0.22049994836E+01  0.37660879066E+02 -0.15164421307E+02  0.40659113472E+02  0.00000000000E+00 0. -1.
         11    1    3    3    0    0  0.83301999808E+01 -0.58082111584E+01 -0.12285454935E+01  0.10229216630E+02  0.51100000000E-03 0. -1.
        -11    1    3    3    0    0  0.23214798767E+01 -0.15507438866E+02  0.15238000345E+02  0.21864733792E+02  0.51100000000E-03 0.  1.
        -12    1    3    3    0    0 -0.84466803738E+01 -0.16345229041E+02  0.11549664563E+01  0.18434936106E+02  0.00000000000E+00 0.  1.
</event>
<event>
 7    1  0.3331850E-011  0.5052886E+02  0.7816164E-02  0.1300439E+00
        -11   -1    0    0    0    0  0.00000000000E+00  0.00000000000E+00  0.45593999997E+02  0.45594000000E+02  0.51100000000E-03 0.  1.
         11   -1    0    0    0    0 -0.00000000000E+00 -0.00000000000E+00 -0.45593999997E+02  0.45594000000E+02  0.51100000000E-03 0. -1.
    9900012    2    1    2    0    0  0.13158005837E+02 -0.12266165355E+02  0.36463325617E+02  0.50528855331E+02  0.29999986265E+02 0.  0.
         12    1    1    2    0    0 -0.13158005837E+02  0.12266165355E+02 -0.36463325617E+02  0.40659144669E+02  0.00000000000E+00 0. -1.
         11    1    3    3    0    0  0.13306206725E+02 -0.33465677465E+01  0.12614362349E+02  0.18638046862E+02  0.51100000000E-03 0. -1.
        -11    1    3    3    0    0 -0.51298354129E+01 -0.11567612599E+02  0.22908796987E+02  0.26171317358E+02  0.51100000000E-03 0.  1.
         12    1    3    3    0    0  0.49816345254E+01  0.26480149907E+01  0.94016628082E+00  0.57194911112E+01  0.00000000000E+00 0. -1.
</event>
<event>
 7    1  0.3331850E-011  0.5052886E+02  0.7816164E-02  0.1300439E+00
        -11   -1    0    0    0    0  0.00000000000E+00  0.00000000000E+00  0.45593999997E+02  0.45594000000E+02  0.51100000000E-03 0.  1.
         11   -1    0    0    0    0 -0.00000000000E+00 -0.00000000000E+00 -0.45593999997E+02  0.45594000000E+02  0.51100000000E-03 0. -1.
    9900012    2    1    2    0    0  0.18308935330E+02 -0.24635150664E+02  0.26665669302E+02  0.50528859817E+02  0.29999999898E+02 0.  0.
         12    1    1    2    0    0 -0.18308935330E+02  0.24635150664E+02 -0.26665669302E+02  0.40659140183E+02  0.00000000000E+00 0. -1.
         11    1    3    3    0    0  0.22267622292E+01 -0.80474741128E+01  0.17748771082E+02  0.19614769558E+02  0.51100000000E-03 0. -1.
        -11    1    3    3    0    0  0.30745647999E+01 -0.78316487325E+01  0.12271882736E+02  0.14879071770E+02  0.51100000000E-03 0.  1.
        -12    1    3    3    0    0  0.13007608301E+02 -0.87560278184E+01 -0.33549845156E+01  0.16035018489E+02  0.00000000000E+00 0.  1.
</event>
<event>
 7    1  0.3331850E-011  0.5052885E+02  0.7816164E-02  0.1300439E+00
        -11   -1    0    0    0    0  0.00000000000E+00  0.00000000000E+00  0.45593999997E+02  0.45594000000E+02  0.51100000000E-03 0. -1.
         11   -1    0    0    0    0 -0.00000000000E+00 -0.00000000000E+00 -0.45593999997E+02  0.45594000000E+02  0.51100000000E-03 0.  1.
    9900012    2    1    2    0    0  0.10159036052E+02  0.84827366191E+01 -0.38444809451E+02  0.50528853332E+02  0.29999980189E+02 0.  0.
         12    1    1    2    0    0 -0.10159036052E+02 -0.84827366191E+01  0.38444809451E+02  0.40659146668E+02  0.00000000000E+00 0. -1.
         11    1    3    3    0    0 -0.39980081777E+01 -0.67890145998E+01 -0.12560384522E+02  0.14826936576E+02  0.51100000000E-03 0. -1.
        -11    1    3    3    0    0  0.21866793034E+01  0.65080607864E+01 -0.17180751519E+02  0.18501747069E+02  0.51100000000E-03 0.  1.
         12    1    3    3    0    0  0.11970364926E+02  0.87636904326E+01 -0.87036734095E+01  0.17200169688E+02  0.00000000000E+00 0. -1.
</event>
<event>
 7    1  0.3331850E-011  0.5052886E+02  0.7816164E-02  0.1300439E+00
        -11   -1    0    0    0    0  0.00000000000E+00  0.00000000000E+00  0.45593999997E+02  0.45594000000E+02  0.51100000000E-03 0. -1.
         11   -1    0    0    0    0 -0.00000000000E+00 -0.00000000000E+00 -0.45593999997E+02  0.45594000000E+02  0.51100000000E-03 0.  1.
    9900012    2    1    2    0    0  0.36409063839E+01  0.20583818007E+02 -0.34874286879E+02  0.50528860211E+02  0.30000001099E+02 0.  0.
         12    1    1    2    0    0 -0.36409063839E+01 -0.20583818007E+02  0.34874286879E+02  0.40659139789E+02  0.00000000000E+00 0. -1.
         11    1    3    3    0    0  0.10790625986E+01 -0.37632220262E+01 -0.58630675167E+01  0.70499487287E+01  0.51100000000E-03 0. -1.
        -11    1    3    3    0    0  0.80760284298E+01  0.11101072585E+01 -0.10323954198E+02  0.13154413855E+02  0.51100000000E-03 0.  1.
         12    1    3    3    0    0 -0.55141846446E+01  0.23236932774E+02 -0.18687265164E+02  0.30324497627E+02  0.00000000000E+00 0. -1.
</event>
<event>
 7    1  0.3331850E-011  0.5052884E+02  0.7816164E-02  0.1300439E+00
        -11   -1    0    0    0    0  0.00000000000E+00  0.00000000000E+00  0.45593999997E+02  0.45594000000E+02  0.51100000000E-03 0.  1.
         11   -1    0    0    0    0 -0.00000000000E+00 -0.00000000000E+00 -0.45593999997E+02  0.45594000000E+02  0.51100000000E-03 0. -1.
    9900012    2    1    2    0    0  0.40256291130E+02 -0.45244082120E+01  0.34825244433E+01  0.50528840864E+02  0.29999942289E+02 0.  0.
         12    1    1    2    0    0 -0.40256291130E+02  0.45244082120E+01 -0.34825244433E+01  0.40659159136E+02  0.00000000000E+00 0. -1.
         11    1    3    3    0    0  0.92753281649E+01  0.13779505387E+00 -0.44617898051E-01  0.92764589721E+01  0.51100000000E-03 0. -1.
        -11    1    3    3    0    0  0.18526543307E+02 -0.63515684406E+01 -0.10660398728E+02  0.22298415412E+02  0.51100000000E-03 0.  1.
         12    1    3    3    0    0  0.12454419657E+02  0.16893651748E+01  0.14187541070E+02  0.18953966479E+02  0.00000000000E+00 0. -1.
</event>
<event>
 7    1  0.4455825E-011  0.5052886E+02  0.7816164E-02  0.1300439E+00
        -11   -1    0    0    0    0  0.00000000000E+00  0.00000000000E+00  0.45593999997E+02  0.45594000000E+02  0.51100000000E-03 0. -1.
         11   -1    0    0    0    0 -0.00000000000E+00 -0.00000000000E+00 -0.45593999997E+02  0.45594000000E+02  0.51100000000E-03 0.  1.
    9900012    2    1    2    0    0 -0.12801084026E+02 -0.15024781052E+02 -0.35546503095E+02  0.50528859820E+02  0.29999999909E+02 0.  0.
         12    1    1    2    0    0  0.12801084026E+02  0.15024781052E+02  0.35546503095E+02  0.40659140180E+02  0.00000000000E+00 0. -1.
         11    1    3    3    0    0 -0.48253280104E+01 -0.12741104256E+02 -0.18808505360E+02  0.23224543100E+02  0.51100000000E-03 0. -1.
        -11    1    3    3    0    0 -0.97705076590E+01 -0.57524887699E+01 -0.19475051191E+02  0.22535118507E+02  0.51100000000E-03 0.  1.
         12    1    3    3    0    0  0.17947516431E+01  0.34688119743E+01  0.27370534563E+01  0.47691982131E+01  0.00000000000E+00 0. -1.
</event>
<event>
 7    1  0.3816740E-011  0.5052886E+02  0.7816164E-02  0.1300439E+00
        -11   -1    0    0    0    0  0.00000000000E+00  0.00000000000E+00  0.45593999997E+02  0.45594000000E+02  0.51100000000E-03 0.  1.
         11   -1    0    0    0    0 -0.00000000000E+00 -0.00000000000E+00 -0.45593999997E+02  0.45594000000E+02  0.51100000000E-03 0. -1.
    9900012    2    1    2    0    0  0.20447646205E+02  0.35034583069E+02 -0.27635229938E+01  0.50528864428E+02  0.30000013915E+02 0.  0.
         12    1    1    2    0    0 -0.20447646205E+02 -0.35034583069E+02  0.27635229938E+01  0.40659135572E+02  0.00000000000E+00 0. -1.
         11    1    3    3    0    0  0.62897929069E+01  0.14708968270E+02 -0.11126146453E+01  0.16035995572E+02  0.51100000000E-03 0. -1.
        -11    1    3    3    0    0  0.20655052353E+02  0.17225268688E+02 -0.33307674333E+01  0.27100462746E+02  0.51100000000E-03 0.  1.
         12    1    3    3    0    0 -0.64971990542E+01  0.31003461105E+01  0.16798590848E+01  0.73924061103E+01  0.00000000000E+00 0. -1.
</event>
<event>
 7    1  0.3331850E-011  0.5052886E+02  0.7816164E-02  0.1300439E+00
        -11   -1    0    0    0    0  0.00000000000E+00  0.00000000000E+00  0.45593999997E+02  0.45594000000E+02  0.51100000000E-03 0. -1.
         11   -1    0    0    0    0 -0.00000000000E+00 -0.00000000000E+00 -0.45593999997E+02  0.45594000000E+02  0.51100000000E-03 0.  1.
    9900012    2    1    2    0    0  0.28314594771E+02 -0.26921181444E+02  0.11256090174E+02  0.50528857689E+02  0.29999993433E+02 0.  0.
         12    1    1    2    0    0 -0.28314594771E+02  0.26921181444E+02 -0.11256090174E+02  0.40659142311E+02  0.00000000000E+00 0. -1.
         11    1    3    3    0    0  0.15201102014E+02 -0.16528102268E+02  0.11058320550E+02  0.25030743510E+02  0.51100000000E-03 0. -1.
        -11    1    3    3    0    0  0.13609079279E+02 -0.15077087297E+02  0.20986328135E+01  0.20418860402E+02  0.51100000000E-03 0.  1.
         12    1    3    3    0    0 -0.49558652106E+00  0.46840081203E+01 -0.19008631896E+01  0.50792537775E+01  0.00000000000E+00 0. -1.
</event>
<event>
 7    1  0.3331850E-011  0.5052885E+02  0.7816164E-02  0.1300439E+00
        -11   -1    0    0    0    0  0.00000000000E+00  0.00000000000E+00  0.45593999997E+02  0.45594000000E+02  0.51100000000E-03 0. -1.
         11   -1    0    0    0    0 -0.00000000000E+00 -0.00000000000E+00 -0.45593999997E+02  0.45594000000E+02  0.51100000000E-03 0.  1.
    9900012    2    1    2    0    0 -0.23950688561E+01 -0.38139742742E+02 -0.13884885581E+02  0.50528851229E+02  0.29999973795E+02 0.  0.
         12    1    1    2    0    0  0.23950688561E+01  0.38139742742E+02  0.13884885581E+02  0.40659148771E+02  0.00000000000E+00 0. -1.
         11    1    3    3    0    0  0.44115296166E+01  0.29730474400E+01 -0.30920689646E+01  0.61531695395E+01  0.51100000000E-03 0. -1.
        -11    1    3    3    0    0 -0.15338365193E+01 -0.73954200112E+01 -0.65281902709E+01  0.99830937131E+01  0.51100000000E-03 0.  1.
         12    1    3    3    0    0 -0.52727619534E+01 -0.33717370170E+02 -0.42646263451E+01  0.34392587976E+02  0.00000000000E+00 0. -1.
</event>
<event>
 7    1  0.3331850E-011  0.5052885E+02  0.7816164E-02  0.1300439E+00
        -11   -1    0    0    0    0  0.00000000000E+00  0.00000000000E+00  0.45593999997E+02  0.45594000000E+02  0.51100000000E-03 0. -1.
         11   -1    0    0    0    0 -0.00000000000E+00 -0.00000000000E+00 -0.45593999997E+02  0.45594000000E+02  0.51100000000E-03 0.  1.
    9900012    2    1    2    0    0 -0.49229450051E+01  0.82629525145E+01 -0.39505120778E+02  0.50528851712E+02  0.29999975264E+02 0.  0.
         12    1    1    2    0    0  0.49229450051E+01 -0.82629525145E+01  0.39505120778E+02  0.40659148288E+02  0.00000000000E+00 0. -1.
         11    1    3    3    0    0  0.67356068813E+01  0.29958696063E+01 -0.64168834111E+01  0.97734347969E+01  0.51100000000E-03 0. -1.
        -11    1    3    3    0    0 -0.53437581314E+01  0.11230138965E+02 -0.28124922496E+02  0.30751959902E+02  0.51100000000E-03 0.  1.
        -12    1    3    3    0    0 -0.63147937550E+01 -0.59630560569E+01 -0.49633148715E+01  0.10003457013E+02  0.00000000000E+00 0.  1.
</event>
<event>
 7    1  0.3331850E-011  0.5052883E+02  0.7816164E-02  0.1300439E+00
        -11   -1    0    0    0    0  0.00000000000E+00  0.00000000000E+00  0.45593999997E+02  0.45594000000E+02  0.51100000000E-03 0. -1.
         11   -1    0    0    0    0 -0.00000000000E+00 -0.00000000000E+00 -0.45593999997E+02  0.45594000000E+02  0.51100000000E-03 0.  1.
    9900012    2    1    2    0    0 -0.14666825763E+01 -0.26551741197E+02 -0.30757464209E+02  0.50528834699E+02  0.29999923550E+02 0.  0.
         12    1    1    2    0    0  0.14666825763E+01  0.26551741197E+02  0.30757464209E+02  0.40659165301E+02  0.00000000000E+00 0. -1.
         11    1    3    3    0    0  0.84022025528E+01 -0.27805438450E+01 -0.55056874794E+01  0.10423100628E+02  0.51100000000E-03 0. -1.
        -11    1    3    3    0    0  0.39564290936E+01 -0.92622517046E+01 -0.38427130679E+01  0.10780031623E+02  0.51100000000E-03 0.  1.
        -12    1    3    3    0    0 -0.13825314223E+02 -0.14508945648E+02 -0.21409063662E+02  0.29325702448E+02  0.00000000000E+00 0.  1.
</event>
<event>
 7    1  0.3331850E-011  0.5052886E+02  0.7816164E-02  0.1300439E+00
        -11   -1    0    0    0    0  0.00000000000E+00  0.00000000000E+00  0.45593999997E+02  0.45594000000E+02  0.51100000000E-03 0.  1.
         11   -1    0    0    0    0 -0.00000000000E+00 -0.00000000000E+00 -0.45593999997E+02  0.45594000000E+02  0.51100000000E-03 0. -1.
    9900012    2    1    2    0    0  0.31335347399E+02  0.21948299100E+02  0.13767130505E+02  0.50528859425E+02  0.29999998708E+02 0.  0.
         12    1    1    2    0    0 -0.31335347399E+02 -0.21948299100E+02 -0.13767130505E+02  0.40659140575E+02  0.00000000000E+00 0. -1.
         11    1    3    3    0    0  0.20968505635E+02  0.16344558686E+02  0.71386497023E+01  0.27527861287E+02  0.51100000000E-03 0. -1.
        -11    1    3    3    0    0  0.14778730087E+02  0.54038877505E+01  0.88538837861E+01  0.18055584293E+02  0.51100000000E-03 0.  1.
         12    1    3    3    0    0 -0.44118883228E+01  0.19985266278E+00 -0.22254029831E+01  0.49454138449E+01  0.00000000000E+00 0. -1.
</event>
<event>
 7    1  0.3331850E-011  0.5052886E+02  0.7816164E-02  0.1300439E+00
        -11   -1    0    0    0    0  0.00000000000E+00  0.00000000000E+00  0.45593999997E+02  0.45594000000E+02  0.51100000000E-03 0. -1.
         11   -1    0    0    0    0 -0.00000000000E+00 -0.00000000000E+00 -0.45593999997E+02  0.45594000000E+02  0.51100000000E-03 0.  1.
    9900012    2    1    2    0    0 -0.52845796341E+01 -0.16371710601E+02 -0.36840278212E+02  0.50528858486E+02  0.29999995855E+02 0.  0.
         12    1    1    2    0    0  0.52845796341E+01  0.16371710601E+02  0.36840278212E+02  0.40659141514E+02  0.00000000000E+00 0. -1.
         11    1    3    3    0    0  0.12862850694E+01 -0.41791885631E+01 -0.17463498130E+02  0.18002608520E+02  0.51100000000E-03 0. -1.
        -11    1    3    3    0    0 -0.63742419544E+01  0.55071406886E+01 -0.62987198713E+01  0.10518242787E+02  0.51100000000E-03 0.  1.
         12    1    3    3    0    0 -0.19662274921E+00 -0.17699662726E+02 -0.13078060211E+02  0.22008007179E+02  0.00000000000E+00 0. -1.
</event>
<event>
 7    1  0.3456387E-011  0.5052886E+02  0.7816164E-02  0.1300439E+00
        -11   -1    0    0    0    0  0.00000000000E+00  0.00000000000E+00  0.45593999997E+02  0.45594000000E+02  0.51100000000E-03 0.  1.
         11   -1    0    0    0    0 -0.00000000000E+00 -0.00000000000E+00 -0.45593999997E+02  0.45594000000E+02  0.51100000000E-03 0. -1.
    9900012    2    1    2    0    0  0.39293136423E+02  0.91533056073E+01  0.50430511561E+01  0.50528856644E+02  0.29999990256E+02 0.  0.
         12    1    1    2    0    0 -0.39293136423E+02 -0.91533056073E+01 -0.50430511561E+01  0.40659143356E+02  0.00000000000E+00 0. -1.
         11    1    3    3    0    0  0.17663908927E+02  0.13324925935E+02  0.34082999674E+01  0.22387135562E+02  0.51100000000E-03 0. -1.
        -11    1    3    3    0    0  0.23138306068E+02 -0.59604372429E+01  0.46324932913E+01  0.24338611591E+02  0.51100000000E-03 0.  1.
         12    1    3    3    0    0 -0.15090785717E+01  0.17888169150E+01 -0.29977421026E+01  0.38031094915E+01  0.00000000000E+00 0. -1.
</event>
<event>
 7    1  0.3331850E-011  0.5052886E+02  0.7816164E-02  0.1300439E+00
        -11   -1    0    0    0    0  0.00000000000E+00  0.00000000000E+00  0.45593999997E+02  0.45594000000E+02  0.51100000000E-03 0. -1.
         11   -1    0    0    0    0 -0.00000000000E+00 -0.00000000000E+00 -0.45593999997E+02  0.45594000000E+02  0.51100000000E-03 0.  1.
    9900012    2    1    2    0    0  0.29674771950E+02 -0.25611935121E+02 -0.10798262743E+02  0.50528858479E+02  0.29999995833E+02 0.  0.
         12    1    1    2    0    0 -0.29674771950E+02  0.25611935121E+02  0.10798262743E+02  0.40659141521E+02  0.00000000000E+00 0. -1.
         11    1    3    3    0    0  0.80270380138E+00 -0.10080697179E+02 -0.57042334319E+01  0.11610472355E+02  0.51100000000E-03 0. -1.
        -11    1    3    3    0    0  0.69860863222E+00 -0.92225186962E+01  0.13218880657E+01  0.93429274557E+01  0.51100000000E-03 0.  1.
        -12    1    3    3    0    0  0.28173459516E+02 -0.63087192460E+01 -0.64159173770E+01  0.29575458668E+02  0.00000000000E+00 0.  1.
</event>
<event>
 7    1  0.3331850E-011  0.5052888E+02  0.7816164E-02  0.1300439E+00
        -11   -1    0    0    0    0  0.00000000000E+00  0.00000000000E+00  0.45593999997E+02  0.45594000000E+02  0.51100000000E-03 0. -1.
         11   -1    0    0    0    0 -0.00000000000E+00 -0.00000000000E+00 -0.45593999997E+02  0.45594000000E+02  0.51100000000E-03 0.  1.
    9900012    2    1    2    0    0  0.88921834299E+01  0.39508475926E+02  0.36295415367E+01  0.50528878417E+02  0.30000056437E+02 0.  0.
         12    1    1    2    0    0 -0.88921834299E+01 -0.39508475926E+02 -0.36295415367E+01  0.40659121583E+02  0.00000000000E+00 0. -1.
         11    1    3    3    0    0 -0.56918054026E+01  0.18100976922E+02  0.27515896513E+01  0.19173243339E+02  0.51100000000E-03 0.  1.
        -11    1    3    3    0    0 -0.34048031429E+01  0.56121130335E-01  0.43546244737E+00  0.34329960424E+01  0.51100000000E-03 0. -1.
         12    1    3    3    0    0  0.17988791975E+02  0.21351377873E+02  0.44248943800E+00  0.27922639036E+02  0.00000000000E+00 0. -1.
</event>
<event>
 7    1  0.3331850E-011  0.5052886E+02  0.7816164E-02  0.1300439E+00
        -11   -1    0    0    0    0  0.00000000000E+00  0.00000000000E+00  0.45593999997E+02  0.45594000000E+02  0.51100000000E-03 0. -1.
         11   -1    0    0    0    0 -0.00000000000E+00 -0.00000000000E+00 -0.45593999997E+02  0.45594000000E+02  0.51100000000E-03 0.  1.
    9900012    2    1    2    0    0  0.78286786389E+00  0.32491605899E+02 -0.24430477126E+02  0.50528861438E+02  0.30000004827E+02 0.  0.
         12    1    1    2    0    0 -0.78286786389E+00 -0.32491605899E+02  0.24430477126E+02  0.40659138562E+02  0.00000000000E+00 0. -1.
         11    1    3    3    0    0 -0.43605047584E+01  0.30978094045E+01  0.10139804116E+01  0.54441327492E+01  0.51100000000E-03 0. -1.
        -11    1    3    3    0    0  0.42325933321E+01  0.16856642231E+01 -0.14636819081E+02  0.15329474331E+02  0.51100000000E-03 0.  1.
        -12    1    3    3    0    0  0.91077929018E+00  0.27708132272E+02 -0.10807638457E+02  0.29755254358E+02  0.00000000000E+00 0.  1.
</event>
<event>
 7    1  0.3331850E-011  0.5052886E+02  0.7816164E-02  0.1300439E+00
        -11   -1    0    0    0    0  0.00000000000E+00  0.00000000000E+00  0.45593999997E+02  0.45594000000E+02  0.51100000000E-03 0.  1.
         11   -1    0    0    0    0 -0.00000000000E+00 -0.00000000000E+00 -0.45593999997E+02  0.45594000000E+02  0.51100000000E-03 0. -1.
    9900012    2    1    2    0    0  0.39445471312E+02  0.50584431546E+01  0.84635825984E+01  0.50528864685E+02  0.30000014696E+02 0.  0.
         12    1    1    2    0    0 -0.39445471312E+02 -0.50584431546E+01 -0.84635825984E+01  0.40659135315E+02  0.00000000000E+00 0. -1.
         11    1    3    3    0    0  0.98356860422E+01 -0.24888584454E+01 -0.15134762108E+01  0.10257960167E+02  0.51100000000E-03 0. -1.
        -11    1    3    3    0    0  0.28690415687E+02 -0.22792596814E+01  0.97878302936E+01  0.30399615115E+02  0.51100000000E-03 0.  1.
        -12    1    3    3    0    0  0.91936958239E+00  0.98265612815E+01  0.18922851556E+00  0.98712894030E+01  0.00000000000E+00 0.  1.
</event>
<event>
 7    1  0.3331850E-011  0.5052886E+02  0.7816164E-02  0.1300439E+00
        -11   -1    0    0    0    0  0.00000000000E+00  0.00000000000E+00  0.45593999997E+02  0.45594000000E+02  0.51100000000E-03 0. -1.
         11   -1    0    0    0    0 -0.00000000000E+00 -0.00000000000E+00 -0.45593999997E+02  0.45594000000E+02  0.51100000000E-03 0.  1.
    9900012    2    1    2    0    0  0.16852454933E+02  0.27048916257E+02 -0.25249093381E+02  0.50528858045E+02  0.29999994513E+02 0.  0.
         12    1    1    2    0    0 -0.16852454933E+02 -0.27048916257E+02  0.25249093381E+02  0.40659141955E+02  0.00000000000E+00 0. -1.
         11    1    3    3    0    0 -0.51653819639E-01  0.20707108547E+02 -0.84438338275E+01  0.22362588009E+02  0.51100000000E-03 0. -1.
        -11    1    3    3    0    0  0.58904616424E+01  0.30788206305E+01 -0.15171861664E+02  0.16563878213E+02  0.51100000000E-03 0.  1.
        -12    1    3    3    0    0  0.11013647111E+02  0.32629870797E+01 -0.16333978901E+01  0.11602391824E+02  0.00000000000E+00 0.  1.
</event>
<event>
 7    1  0.3331850E-011  0.5052886E+02  0.7816164E-02  0.1300439E+00
        -11   -1    0    0    0    0  0.00000000000E+00  0.00000000000E+00  0.45593999997E+02  0.45594000000E+02  0.51100000000E-03 0.  1.
         11   -1    0    0    0    0 -0.00000000000E+00 -0.00000000000E+00 -0.45593999997E+02  0.45594000000E+02  0.51100000000E-03 0. -1.
    9900012    2    1    2    0    0  0.13265314266E+00  0.62144104347E+01  0.40181207301E+02  0.50528856944E+02  0.29999991167E+02 0.  0.
         12    1    1    2    0    0 -0.13265314266E+00 -0.62144104347E+01 -0.40181207301E+02  0.40659143056E+02  0.00000000000E+00 0. -1.
         11    1    3    3    0    0 -0.75926322703E+00  0.15298945538E+02  0.18561258985E+02  0.24065630068E+02  0.51100000000E-03 0. -1.
        -11    1    3    3    0    0 -0.48895610635E+01 -0.13362753540E+01  0.10942121559E+02  0.12059165132E+02  0.51100000000E-03 0.  1.
        -12    1    3    3    0    0  0.57814774331E+01 -0.77482597498E+01  0.10677826757E+02  0.14404061744E+02  0.00000000000E+00 0.  1.
</event>
<event>
 7    1  0.3331850E-011  0.5052886E+02  0.7816164E-02  0.1300439E+00
        -11   -1    0    0    0    0  0.00000000000E+00  0.00000000000E+00  0.45593999997E+02  0.45594000000E+02  0.51100000000E-03 0.  1.
         11   -1    0    0    0    0 -0.00000000000E+00 -0.00000000000E+00 -0.45593999997E+02  0.45594000000E+02  0.51100000000E-03 0. -1.
    9900012    2    1    2    0    0 -0.12875697239E+02  0.27182264967E+02 -0.27358840473E+02  0.50528864985E+02  0.30000015608E+02 0.  0.
         12    1    1    2    0    0  0.12875697239E+02 -0.27182264967E+02  0.27358840473E+02  0.40659135015E+02  0.00000000000E+00 0. -1.
         11    1    3    3    0    0 -0.18144346503E+01  0.55785436409E+01 -0.46062811305E+01  0.74585620845E+01  0.51100000000E-03 0. -1.
        -11    1    3    3    0    0 -0.15492379572E+02  0.25047331018E+02 -0.13847275961E+02  0.32544272426E+02  0.51100000000E-03 0.  1.
         12    1    3    3    0    0  0.44311169836E+01 -0.34436096922E+01 -0.89052833819E+01  0.10526030474E+02  0.00000000000E+00 0. -1.
</event>
<event>
 7    1  0.3331850E-011  0.5052886E+02  0.7816164E-02  0.1300439E+00
        -11   -1    0    0    0    0  0.00000000000E+00  0.00000000000E+00  0.45593999997E+02  0.45594000000E+02  0.51100000000E-03 0.  1.
         11   -1    0    0    0    0 -0.00000000000E+00 -0.00000000000E+00 -0.45593999997E+02  0.45594000000E+02  0.51100000000E-03 0. -1.
    9900012    2    1    2    0    0  0.19372017434E+02  0.12218770125E+02  0.33594528321E+02  0.50528859134E+02  0.29999997825E+02 0.  0.
         12    1    1    2    0    0 -0.19372017434E+02 -0.12218770125E+02 -0.33594528321E+02  0.40659140866E+02  0.00000000000E+00 0. -1.
         11    1    3    3    0    0  0.91489725121E+01 -0.22575590450E+01  0.11755536010E+02  0.15066283484E+02  0.51100000000E-03 0. -1.
        -11    1    3    3    0    0  0.13921798327E+02  0.11332336769E+01  0.12649192021E+02  0.18844170087E+02  0.51100000000E-03 0.  1.
        -12    1    3    3    0    0 -0.36987534053E+01  0.13343095494E+02  0.91898002896E+01  0.16618405563E+02  0.00000000000E+00 0.  1.
</event>
<event>
 7    1  0.3331850E-011  0.5052886E+02  0.7816164E-02  0.1300439E+00
        -11   -1    0    0    0    0  0.00000000000E+00  0.00000000000E+00  0.45593999997E+02  0.45594000000E+02  0.51100000000E-03 0.  1.
         11   -1    0    0    0    0 -0.00000000000E+00 -0.00000000000E+00 -0.45593999997E+02  0.45594000000E+02  0.51100000000E-03 0. -1.
    9900012    2    1    2    0    0 -0.10595788338E+02 -0.30022079995E+02  0.25289713293E+02  0.50528860607E+02  0.30000002301E+02 0.  0.
         12    1    1    2    0    0  0.10595788338E+02  0.30022079995E+02 -0.25289713293E+02  0.40659139393E+02  0.00000000000E+00 0. -1.
         11    1    3    3    0    0 -0.65411359568E+01 -0.21428275970E+02  0.65944067830E+01  0.23354735532E+02  0.51100000000E-03 0. -1.
        -11    1    3    3    0    0 -0.18939084530E+01 -0.13102127014E+02  0.82621131179E+01  0.15604971482E+02  0.51100000000E-03 0.  1.
         12    1    3    3    0    0 -0.21607439285E+01  0.45083229895E+01  0.10433193392E+02  0.11569153593E+02  0.00000000000E+00 0. -1.
</event>
<event>
 7    1  0.4052216E-011  0.5052886E+02  0.7816164E-02  0.1300439E+00
        -11   -1    0    0    0    0  0.00000000000E+00  0.00000000000E+00  0.45593999997E+02  0.45594000000E+02  0.51100000000E-03 0. -1.
         11   -1    0    0    0    0 -0.00000000000E+00 -0.00000000000E+00 -0.45593999997E+02  0.45594000000E+02  0.51100000000E-03 0.  1.
    9900012    2    1    2    0    0 -0.90698008616E+01 -0.30463803401E+02 -0.25354704511E+02  0.50528860239E+02  0.30000001181E+02 0.  0.
         12    1    1    2    0    0  0.90698008616E+01  0.30463803401E+02  0.25354704511E+02  0.40659139761E+02  0.00000000000E+00 0. -1.
         11    1    3    3    0    0 -0.50460439190E+00 -0.91467604949E+01 -0.19880930462E+02  0.21889934889E+02  0.51100000000E-03 0. -1.
        -11    1    3    3    0    0 -0.10795757812E+02 -0.18863275533E+02 -0.92436435313E+01  0.23618139143E+02  0.51100000000E-03 0.  1.
         12    1    3    3    0    0  0.22305613421E+01 -0.24537673728E+01  0.37698694826E+01  0.50207862071E+01  0.00000000000E+00 0. -1.
</event>
<event>
 7    1  0.3331850E-011  0.5052885E+02  0.7816164E-02  0.1300439E+00
        -11   -1    0    0    0    0  0.00000000000E+00  0.00000000000E+00  0.45593999997E+02  0.45594000000E+02  0.51100000000E-03 0. -1.
         11   -1    0    0    0    0 -0.00000000000E+00 -0.00000000000E+00 -0.45593999997E+02  0.45594000000E+02  0.51100000000E-03 0.  1.
    9900012    2    1    2    0    0  0.40109569137E+02  0.66074203991E+01 -0.85488535864E+00  0.50528851341E+02  0.29999974136E+02 0.  0.
         12    1    1    2    0    0 -0.40109569137E+02 -0.66074203991E+01  0.85488535864E+00  0.40659148659E+02  0.00000000000E+00 0. -1.
         11    1    3    3    0    0  0.22196805727E+01  0.14855432772E+01 -0.26951065657E+01  0.37943932762E+01  0.51100000000E-03 0. -1.
        -11    1    3    3    0    0  0.25610118301E+02  0.45460645230E+00 -0.11441547216E+02  0.28053410298E+02  0.51100000000E-03 0.  1.
         12    1    3    3    0    0  0.12279770264E+02  0.46672706695E+01  0.13281768423E+02  0.18681047767E+02  0.00000000000E+00 0. -1.
</event>
<event>
 7    1  0.3331850E-011  0.5052886E+02  0.7816164E-02  0.1300439E+00
        -11   -1    0    0    0    0  0.00000000000E+00  0.00000000000E+00  0.45593999997E+02  0.45594000000E+02  0.51100000000E-03 0.  1.
         11   -1    0    0    0    0 -0.00000000000E+00 -0.00000000000E+00 -0.45593999997E+02  0.45594000000E+02  0.51100000000E-03 0. -1.
    9900012    2    1    2    0    0 -0.46313480708E+01  0.54373356649E+01  0.40026885754E+02  0.50528860963E+02  0.30000003384E+02 0.  0.
         12    1    1    2    0    0  0.46313480708E+01 -0.54373356649E+01 -0.40026885754E+02  0.40659139037E+02  0.00000000000E+00 0. -1.
         11    1    3    3    0    0  0.86785883603E+00  0.84181801085E+01  0.22645270907E+02  0.24174929783E+02  0.51100000000E-03 0. -1.
        -11    1    3    3    0    0 -0.33175710086E+01 -0.51157791823E+01  0.20856062611E+02  0.21729077798E+02  0.51100000000E-03 0.  1.
        -12    1    3    3    0    0 -0.21816358983E+01  0.21349347388E+01 -0.34744477652E+01  0.46248533820E+01  0.00000000000E+00 0.  1.
</event>
<event>
 7    1  0.3331850E-011  0.5052885E+02  0.7816164E-02  0.1300439E+00
        -11   -1    0    0    0    0  0.00000000000E+00  0.00000000000E+00  0.45593999997E+02  0.45594000000E+02  0.51100000000E-03 0.  1.
         11   -1    0    0    0    0 -0.00000000000E+00 -0.00000000000E+00 -0.45593999997E+02  0.45594000000E+02  0.51100000000E-03 0. -1.
    9900012    2    1    2    0    0  0.26274520838E+02  0.31024538903E+02 -0.54219537047E+00  0.50528850535E+02  0.29999971686E+02 0.  0.
         12    1    1    2    0    0 -0.26274520838E+02 -0.31024538903E+02  0.54219537047E+00  0.40659149465E+02  0.00000000000E+00 0. -1.
         11    1    3    3    0    0 -0.37349150665E+01  0.10415147922E+01  0.23034760560E+01  0.45100272525E+01  0.51100000000E-03 0. -1.
        -11    1    3    3    0    0 -0.21971272131E+01  0.21757653711E+01  0.11099286463E+01  0.32853104574E+01  0.51100000000E-03 0.  1.
        -12    1    3    3    0    0  0.32206563117E+02  0.27807258740E+02 -0.39556000727E+01  0.42733512825E+02  0.00000000000E+00 0.  1.
</event>
<event>
 7    1  0.3331850E-011  0.5052887E+02  0.7816164E-02  0.1300439E+00
        -11   -1    0    0    0    0  0.00000000000E+00  0.00000000000E+00  0.45593999997E+02  0.45594000000E+02  0.51100000000E-03 0.  1.
         11   -1    0    0    0    0 -0.00000000000E+00 -0.00000000000E+00 -0.45593999997E+02  0.45594000000E+02  0.51100000000E-03 0. -1.
    9900012    2    1    2    0    0  0.35328350724E+02 -0.16597047227E+02 -0.11384670611E+02  0.50528867367E+02  0.30000022847E+02 0.  0.
         12    1    1    2    0    0 -0.35328350724E+02  0.16597047227E+02  0.11384670611E+02  0.40659132633E+02  0.00000000000E+00 0. -1.
         11    1    3    3    0    0  0.12992978363E+02  0.29873797855E+01 -0.10531980651E+02  0.16990130706E+02  0.51100000000E-03 0. -1.
        -11    1    3    3    0    0  0.83473705854E+01  0.10763392438E+01 -0.16443316987E+01  0.85756007868E+01  0.51100000000E-03 0.  1.
         12    1    3    3    0    0  0.13988001776E+02 -0.20660766257E+02  0.79164173817E+00  0.24963135874E+02  0.00000000000E+00 0. -1.
</event>
<event>
 7    1  0.3331850E-011  0.5052889E+02  0.7816164E-02  0.1300439E+00
        -11   -1    0    0    0    0  0.00000000000E+00  0.00000000000E+00  0.45593999997E+02  0.45594000000E+02  0.51100000000E-03 0.  1.
         11   -1    0    0    0    0 -0.00000000000E+00 -0.00000000000E+00 -0.45593999997E+02  0.45594000000E+02  0.51100000000E-03 0. -1.
    9900012    2    1    2    0    0 -0.19895563613E+02 -0.57426005993E+01  0.34990748855E+02  0.50528887632E+02  0.30000084447E+02 0.  0.
         12    1    1    2    0    0  0.19895563613E+02  0.57426005993E+01 -0.34990748855E+02  0.40659112368E+02  0.00000000000E+00 0. -1.
         11    1    3    3    0    0 -0.49222502283E+01 -0.43818511975E+01  0.18440132531E+02  0.19582330179E+02  0.51100000000E-03 0. -1.
        -11    1    3    3    0    0 -0.12777532980E+01 -0.49881950002E+01  0.15955981424E+02  0.16766278249E+02  0.51100000000E-03 0.  1.
         12    1    3    3    0    0 -0.13695560086E+02  0.36274455984E+01  0.59463490002E+00  0.14180279204E+02  0.00000000000E+00 0. -1.
</event>
<event>
 7    1  0.3331850E-011  0.5052886E+02  0.7816164E-02  0.1300439E+00
        -11   -1    0    0    0    0  0.00000000000E+00  0.00000000000E+00  0.45593999997E+02  0.45594000000E+02  0.51100000000E-03 0. -1.
         11   -1    0    0    0    0 -0.00000000000E+00 -0.00000000000E+00 -0.45593999997E+02  0.45594000000E+02  0.51100000000E-03 0.  1.
    9900012    2    1    2    0    0 -0.16820754157E+02 -0.36056643702E+02 -0.83753293651E+01  0.50528862436E+02  0.30000007861E+02 0.  0.
         12    1    1    2    0    0  0.16820754157E+02  0.36056643702E+02  0.83753293651E+01  0.40659137564E+02  0.00000000000E+00 0. -1.
         11    1    3    3    0    0  0.45623680810E+01  0.84633820278E+00  0.99365054603E+00  0.47454011978E+01  0.51100000000E-03 0. -1.
        -11    1    3    3    0    0 -0.40920942972E+01 -0.58106151992E+00 -0.28757712048E+01  0.50351691640E+01  0.51100000000E-03 0.  1.
        -12    1    3    3    0    0 -0.17291027941E+02 -0.36321920385E+02 -0.64932087063E+01  0.40748292074E+02  0.00000000000E+00 0.  1.
</event>
<event>
 7    1  0.3331850E-011  0.5052885E+02  0.7816164E-02  0.1300439E+00
        -11   -1    0    0    0    0  0.00000000000E+00  0.00000000000E+00  0.45593999997E+02  0.45594000000E+02  0.51100000000E-03 0.  1.
         11   -1    0    0    0    0 -0.00000000000E+00 -0.00000000000E+00 -0.45593999997E+02  0.45594000000E+02  0.51100000000E-03 0. -1.
    9900012    2    1    2    0    0  0.21413170426E+02  0.11329064139E+02  0.32654166215E+02  0.50528854249E+02  0.29999982976E+02 0.  0.
         12    1    1    2    0    0 -0.21413170426E+02 -0.11329064139E+02 -0.32654166215E+02  0.40659145751E+02  0.00000000000E+00 0. -1.
         11    1    3    3    0    0  0.80264731780E+01 -0.50855631584E+01  0.12958031672E+02  0.16068534762E+02  0.51100000000E-03 0. -1.
        -11    1    3    3    0    0 -0.32870213980E+01  0.67785536833E+01  0.10994204160E+02  0.13327633889E+02  0.51100000000E-03 0.  1.
         12    1    3    3    0    0  0.16673718646E+02  0.96360736144E+01  0.87019303829E+01  0.21132685598E+02  0.00000000000E+00 0. -1.
</event>
<event>
 7    1  0.3331850E-011  0.5052886E+02  0.7816164E-02  0.1300439E+00
        -11   -1    0    0    0    0  0.00000000000E+00  0.00000000000E+00  0.45593999997E+02  0.45594000000E+02  0.51100000000E-03 0.  1.
         11   -1    0    0    0    0 -0.00000000000E+00 -0.00000000000E+00 -0.45593999997E+02  0.45594000000E+02  0.51100000000E-03 0. -1.
    9900012    2    1    2    0    0  0.10935332162E+02 -0.26535582954E+02  0.28800123689E+02  0.50528858633E+02  0.29999996301E+02 0.  0.
         12    1    1    2    0    0 -0.10935332162E+02  0.26535582954E+02 -0.28800123689E+02  0.40659141367E+02  0.00000000000E+00 0. -1.
         11    1    3    3    0    0  0.30401378674E+00 -0.76981607063E+01  0.59996361547E+01  0.97647189869E+01  0.51100000000E-03 0. -1.
        -11    1    3    3    0    0  0.64602466647E+01 -0.24860484562E+02  0.13799025959E+02  0.29158045155E+02  0.51100000000E-03 0.  1.
         12    1    3    3    0    0  0.41710717103E+01  0.60230623135E+01  0.90014615747E+01  0.11606094491E+02  0.00000000000E+00 0. -1.
</event>
<event>
 7    1  0.3331850E-011  0.5052885E+02  0.7816164E-02  0.1300439E+00
        -11   -1    0    0    0    0  0.00000000000E+00  0.00000000000E+00  0.45593999997E+02  0.45594000000E+02  0.51100000000E-03 0.  1.
         11   -1    0    0    0    0 -0.00000000000E+00 -0.00000000000E+00 -0.45593999997E+02  0.45594000000E+02  0.51100000000E-03 0. -1.
    9900012    2    1    2    0    0 -0.63088810693E+00  0.19484147344E+01  0.40607536211E+02  0.50528851744E+02  0.29999975362E+02 0.  0.
         12    1    1    2    0    0  0.63088810693E+00 -0.19484147344E+01 -0.40607536211E+02  0.40659148256E+02  0.00000000000E+00 0. -1.
         11    1    3    3    0    0  0.18410047714E+01  0.45286043897E+01 -0.31592341951E+01  0.58205083323E+01  0.51100000000E-03 0. -1.
        -11    1    3    3    0    0 -0.28245497209E+01  0.25473642569E+01  0.14327125786E+02  0.14823416588E+02  0.51100000000E-03 0.  1.
        -12    1    3    3    0    0  0.35265684255E+00 -0.51275539121E+01  0.29439644620E+02  0.29884926825E+02  0.00000000000E+00 0.  1.
</event>
<event>
 7    1  0.3331850E-011  0.5052883E+02  0.7816164E-02  0.1300439E+00
        -11   -1    0    0    0    0  0.00000000000E+00  0.00000000000E+00  0.45593999997E+02  0.45594000000E+02  0.51100000000E-03 0.  1.
         11   -1    0    0    0    0 -0.00000000000E+00 -0.00000000000E+00 -0.45593999997E+02  0.45594000000E+02  0.51100000000E-03 0. -1.
    9900012    2    1    2    0    0  0.91014030414E+01  0.38565643489E+02 -0.91117570465E+01  0.50528825002E+02  0.29999894076E+02 0.  0.
         12    1    1    2    0    0 -0.91014030414E+01 -0.38565643489E+02  0.91117570465E+01  0.40659174998E+02  0.00000000000E+00 0. -1.
         11    1    3    3    0    0  0.20640974059E+01  0.92519587091E+01  0.61269795536E+01  0.11287121722E+02  0.51100000000E-03 0. -1.
        -11    1    3    3    0    0 -0.48731611086E+01  0.21067849497E+02 -0.10148500753E+02  0.23887110528E+02  0.51100000000E-03 0.  1.
         12    1    3    3    0    0  0.11910466744E+02  0.82458352832E+01 -0.50902358474E+01  0.15354592751E+02  0.00000000000E+00 0. -1.
</event>
<event>
 7    1  0.3331850E-011  0.5052886E+02  0.7816164E-02  0.1300439E+00
        -11   -1    0    0    0    0  0.00000000000E+00  0.00000000000E+00  0.45593999997E+02  0.45594000000E+02  0.51100000000E-03 0.  1.
         11   -1    0    0    0    0 -0.00000000000E+00 -0.00000000000E+00 -0.45593999997E+02  0.45594000000E+02  0.51100000000E-03 0. -1.
    9900012    2    1    2    0    0  0.25645466578E+02  0.87609683307E+01  0.30310407143E+02  0.50528864455E+02  0.30000013997E+02 0.  0.
         12    1    1    2    0    0 -0.25645466578E+02 -0.87609683307E+01 -0.30310407143E+02  0.40659135545E+02  0.00000000000E+00 0. -1.
         11    1    3    3    0    0  0.14645250356E+02 -0.86799888856E+00  0.12845335049E+02  0.19499728532E+02  0.51100000000E-03 0. -1.
        -11    1    3    3    0    0  0.91516972040E+01 -0.45122906439E+01  0.28175530480E+01  0.10585505846E+02  0.51100000000E-03 0.  1.
         12    1    3    3    0    0  0.18485190179E+01  0.14141257863E+02  0.14647519046E+02  0.20443630077E+02  0.00000000000E+00 0. -1.
</event>
<event>
 7    1  0.3331850E-011  0.5052886E+02  0.7816164E-02  0.1300439E+00
        -11   -1    0    0    0    0  0.00000000000E+00  0.00000000000E+00  0.45593999997E+02  0.45594000000E+02  0.51100000000E-03 0. -1.
         11   -1    0    0    0    0 -0.00000000000E+00 -0.00000000000E+00 -0.45593999997E+02  0.45594000000E+02  0.51100000000E-03 0.  1.
    9900012    2    1    2    0    0  0.71147369970E+01  0.38881772497E+00 -0.40029930133E+02  0.50528856278E+02  0.29999989141E+02 0.  0.
         12    1    1    2    0    0 -0.71147369970E+01 -0.38881772497E+00  0.40029930133E+02  0.40659143722E+02  0.00000000000E+00 0. -1.
         11    1    3    3    0    0 -0.50376777132E+01  0.34204576525E+01 -0.27498904804E+01  0.66812891877E+01  0.51100000000E-03 0. -1.
        -11    1    3    3    0    0 -0.51230583267E+01  0.82427897579E+00 -0.62427765101E+01  0.81177226649E+01  0.51100000000E-03 0.  1.
        -12    1    3    3    0    0  0.17275473037E+02 -0.38559189033E+01 -0.31037263143E+02  0.35729844425E+02  0.00000000000E+00 0.  1.
</event>
<event>
 7    1  0.3331850E-011  0.5052887E+02  0.7816164E-02  0.1300439E+00
        -11   -1    0    0    0    0  0.00000000000E+00  0.00000000000E+00  0.45593999997E+02  0.45594000000E+02  0.51100000000E-03 0.  1.
         11   -1    0    0    0    0 -0.00000000000E+00 -0.00000000000E+00 -0.45593999997E+02  0.45594000000E+02  0.51100000000E-03 0. -1.
    9900012    2    1    2    0    0  0.22419255653E+02  0.49719476145E+00  0.33915993830E+02  0.50528869855E+02  0.30000030411E+02 0.  0.
         12    1    1    2    0    0 -0.22419255653E+02 -0.49719476145E+00 -0.33915993830E+02  0.40659130145E+02  0.00000000000E+00 0. -1.
         11    1    3    3    0    0  0.11824422338E+02  0.55469779582E+01  0.39174157828E+01  0.13635691210E+02  0.51100000000E-03 0. -1.
        -11    1    3    3    0    0  0.10099974769E+02  0.46382494294E+01  0.11425754728E+02  0.15939595963E+02  0.51100000000E-03 0.  1.
         12    1    3    3    0    0  0.49485854571E+00 -0.96880326262E+01  0.18572823320E+02  0.20953582682E+02  0.00000000000E+00 0. -1.
</event>
<event>
 7    1  0.3331850E-011  0.5052886E+02  0.7816164E-02  0.1300439E+00
        -11   -1    0    0    0    0  0.00000000000E+00  0.00000000000E+00  0.45593999997E+02  0.45594000000E+02  0.51100000000E-03 0.  1.
         11   -1    0    0    0    0 -0.00000000000E+00 -0.00000000000E+00 -0.45593999997E+02  0.45594000000E+02  0.51100000000E-03 0. -1.
    9900012    2    1    2    0    0 -0.34415176257E+02  0.63474212374E+00  0.21641599035E+02  0.50528855110E+02  0.29999985593E+02 0.  0.
         12    1    1    2    0    0  0.34415176257E+02 -0.63474212374E+00 -0.21641599035E+02  0.40659144890E+02  0.00000000000E+00 0. -1.
         11    1    3    3    0    0 -0.50657762288E+01 -0.66917555785E+01 -0.38637435862E+01  0.92395993573E+01  0.51100000000E-03 0. -1.
        -11    1    3    3    0    0 -0.39926976582E+01 -0.17227485539E+01  0.21982021952E+00  0.43540576891E+01  0.51100000000E-03 0.  1.
        -12    1    3    3    0    0 -0.25356702370E+02  0.90492462562E+01  0.25285522402E+02  0.36935198064E+02  0.00000000000E+00 0.  1.
</event>
<event>
 7    1  0.3331850E-011  0.5052886E+02  0.7816164E-02  0.1300439E+00
        -11   -1    0    0    0    0  0.00000000000E+00  0.00000000000E+00  0.45593999997E+02  0.45594000000E+02  0.51100000000E-03 0. -1.
         11   -1    0    0    0    0 -0.00000000000E+00 -0.00000000000E+00 -0.45593999997E+02  0.45594000000E+02  0.51100000000E-03 0.  1.
    9900012    2    1    2    0    0 -0.37209744463E+02  0.16116397502E+02 -0.29769295236E+01  0.50528862517E+02  0.30000008107E+02 0.  0.
         12    1    1    2    0    0  0.37209744463E+02 -0.16116397502E+02  0.29769295236E+01  0.40659137483E+02  0.00000000000E+00 0. -1.
         11    1    3    3    0    0  0.11897669882E+01 -0.21783651700E+01  0.11879862395E+01  0.27517506912E+01  0.51100000000E-03 0. -1.
        -11    1    3    3    0    0  0.20997881086E+01  0.21309750614E+01  0.21942589548E+01  0.37101128602E+01  0.51100000000E-03 0.  1.
        -12    1    3    3    0    0 -0.40499299560E+02  0.16163787611E+02 -0.63591747179E+01  0.44066998966E+02  0.00000000000E+00 0.  1.
</event>
<event>
 7    1  0.3331850E-011  0.5052885E+02  0.7816164E-02  0.1300439E+00
        -11   -1    0    0    0    0  0.00000000000E+00  0.00000000000E+00  0.45593999997E+02  0.45594000000E+02  0.51100000000E-03 0.  1.
         11   -1    0    0    0    0 -0.00000000000E+00 -0.00000000000E+00 -0.45593999997E+02  0.45594000000E+02  0.51100000000E-03 0. -1.
    9900012    2    1    2    0    0 -0.85709158134E+01 -0.94589958641E+01  0.38603534970E+02  0.50528854499E+02  0.29999983736E+02 0.  0.
         12    1    1    2    0    0  0.85709158134E+01  0.94589958641E+01 -0.38603534970E+02  0.40659145501E+02  0.00000000000E+00 0. -1.
         11    1    3    3    0    0  0.26033355215E+00  0.84209311639E+01  0.46309075444E+01  0.96138005061E+01  0.51100000000E-03 0. -1.
        -11    1    3    3    0    0 -0.15107293457E+01  0.40477831476E+00  0.88757086486E+01  0.90124554321E+01  0.51100000000E-03 0.  1.
         12    1    3    3    0    0 -0.73205200198E+01 -0.18284705343E+02  0.25096918777E+02  0.31902598561E+02  0.00000000000E+00 0. -1.
</event>
<event>
 7    1  0.3331850E-011  0.5052883E+02  0.7816164E-02  0.1300439E+00
        -11   -1    0    0    0    0  0.00000000000E+00  0.00000000000E+00  0.45593999997E+02  0.45594000000E+02  0.51100000000E-03 0. -1.
         11   -1    0    0    0    0 -0.00000000000E+00 -0.00000000000E+00 -0.45593999997E+02  0.45594000000E+02  0.51100000000E-03 0.  1.
    9900012    2    1    2    0    0  0.10124961890E+02 -0.37668037823E+02 -0.11479222550E+02  0.50528825425E+02  0.29999895363E+02 0.  0.
         12    1    1    2    0    0 -0.10124961890E+02  0.37668037823E+02  0.11479222550E+02  0.40659174575E+02  0.00000000000E+00 0. -1.
         11    1    3    3    0    0  0.18981698160E+01  0.16232488160E+01  0.16613772977E+01  0.29996933435E+01  0.51100000000E-03 0. -1.
        -11    1    3    3    0    0  0.18915497119E+01 -0.33943606175E+02 -0.25672934599E+01  0.34093069038E+02  0.51100000000E-03 0.  1.
         12    1    3    3    0    0  0.63352423624E+01 -0.53476804641E+01 -0.10573306388E+02  0.13436063044E+02  0.00000000000E+00 0. -1.
</event>
<event>
 7    1  0.3331850E-011  0.5052886E+02  0.7816164E-02  0.1300439E+00
        -11   -1    0    0    0    0  0.00000000000E+00  0.00000000000E+00  0.45593999997E+02  0.45594000000E+02  0.51100000000E-03 0.  1.
         11   -1    0    0    0    0 -0.00000000000E+00 -0.00000000000E+00 -0.45593999997E+02  0.45594000000E+02  0.51100000000E-03 0. -1.
    9900012    2    1    2    0    0  0.36971348822E+02  0.16919938635E+02 -0.19188830668E-01  0.50528864184E+02  0.30000013173E+02 0.  0.
         12    1    1    2    0    0 -0.36971348822E+02 -0.16919938635E+02  0.19188830668E-01  0.40659135816E+02  0.00000000000E+00 0. -1.
         11    1    3    3    0    0  0.11243394838E+01 -0.17872046830E+01  0.25325840605E+01  0.32973052844E+01  0.51100000000E-03 0. -1.
        -11    1    3    3    0    0  0.23650436927E+01  0.10255848506E+02  0.53503260116E+01  0.11806856014E+02  0.51100000000E-03 0.  1.
         12    1    3    3    0    0  0.33481965645E+02  0.84512948125E+01 -0.79020989028E+01  0.35424702886E+02  0.00000000000E+00 0. -1.
</event>
<event>
 7    1  0.3331850E-011  0.5052895E+02  0.7816164E-02  0.1300438E+00
        -11   -1    0    0    0    0  0.00000000000E+00  0.00000000000E+00  0.45593999997E+02  0.45594000000E+02  0.51100000000E-03 0.  1.
         11   -1    0    0    0    0 -0.00000000000E+00 -0.00000000000E+00 -0.45593999997E+02  0.45594000000E+02  0.51100000000E-03 0. -1.
    9900012    2    1    2    0    0  0.32441856482E+01  0.24329390312E+02  0.32414724216E+02  0.50528950338E+02  0.30000275045E+02 0.  0.
         12    1    1    2    0    0 -0.32441856482E+01 -0.24329390312E+02 -0.32414724216E+02  0.40659049662E+02  0.00000000000E+00 0. -1.
         11    1    3    3    0    0  0.59701692406E+00 -0.31600702299E+00  0.71277079735E+01  0.71596446045E+01  0.51100000000E-03 0. -1.
        -11    1    3    3    0    0  0.98266410270E+01  0.54691511029E+00  0.48802406209E+01  0.10985387512E+02  0.51100000000E-03 0.  1.
         12    1    3    3    0    0 -0.71794723029E+01  0.24098482224E+02  0.20406775622E+02  0.32383918221E+02  0.00000000000E+00 0. -1.
</event>
<event>
 7    1  0.3331850E-011  0.5052886E+02  0.7816164E-02  0.1300439E+00
        -11   -1    0    0    0    0  0.00000000000E+00  0.00000000000E+00  0.45593999997E+02  0.45594000000E+02  0.51100000000E-03 0.  1.
         11   -1    0    0    0    0 -0.00000000000E+00 -0.00000000000E+00 -0.45593999997E+02  0.45594000000E+02  0.51100000000E-03 0. -1.
    9900012    2    1    2    0    0  0.13333595610E+02 -0.33739514287E+02  0.18358277555E+02  0.50528856490E+02  0.29999989787E+02 0.  0.
         12    1    1    2    0    0 -0.13333595610E+02  0.33739514287E+02 -0.18358277555E+02  0.40659143510E+02  0.00000000000E+00 0. -1.
         11    1    3    3    0    0  0.50121432305E+01 -0.42291391473E+01  0.45137538865E+01  0.79612293083E+01  0.51100000000E-03 0. -1.
        -11    1    3    3    0    0  0.84524963230E+01 -0.71265695586E+01  0.16672898074E+02  0.20005454711E+02  0.51100000000E-03 0.  1.
         12    1    3    3    0    0 -0.13104394391E+00 -0.22383805581E+02 -0.28283744059E+01  0.22562172470E+02  0.00000000000E+00 0. -1.
</event>
<event>
 7    1  0.3331850E-011  0.5052886E+02  0.7816164E-02  0.1300439E+00
        -11   -1    0    0    0    0  0.00000000000E+00  0.00000000000E+00  0.45593999997E+02  0.45594000000E+02  0.51100000000E-03 0. -1.
         11   -1    0    0    0    0 -0.00000000000E+00 -0.00000000000E+00 -0.45593999997E+02  0.45594000000E+02  0.51100000000E-03 0.  1.
    9900012    2    1    2    0    0  0.53184074721E+01  0.32132139273E+02 -0.24339386377E+02  0.50528861279E+02  0.30000004345E+02 0.  0.
         12    1    1    2    0    0 -0.53184074721E+01 -0.32132139273E+02  0.24339386377E+02  0.40659138721E+02  0.00000000000E+00 0. -1.
         11    1    3    3    0    0  0.54812984236E+01  0.40468755755E+01  0.26332154273E+01  0.73044957444E+01  0.51100000000E-03 0. -1.
        -11    1    3    3    0    0 -0.80625541019E+01  0.60840755719E+01 -0.55933585303E+01  0.11545839689E+02  0.51100000000E-03 0.  1.
         12    1    3    3    0    0  0.78996631503E+01  0.22001188126E+02 -0.21379243274E+02  0.31678525846E+02  0.00000000000E+00 0. -1.
</event>
<event>
 7    1  0.3331850E-011  0.5052886E+02  0.7816164E-02  0.1300439E+00
        -11   -1    0    0    0    0  0.00000000000E+00  0.00000000000E+00  0.45593999997E+02  0.45594000000E+02  0.51100000000E-03 0.  1.
         11   -1    0    0    0    0 -0.00000000000E+00 -0.00000000000E+00 -0.45593999997E+02  0.45594000000E+02  0.51100000000E-03 0. -1.
    9900012    2    1    2    0    0  0.34663136271E+01 -0.36511870346E+02  0.17550888079E+02  0.50528859838E+02  0.29999999963E+02 0.  0.
         12    1    1    2    0    0 -0.34663136271E+01  0.36511870346E+02 -0.17550888079E+02  0.40659140162E+02  0.00000000000E+00 0. -1.
         11    1    3    3    0    0  0.51438494614E+01 -0.84301178192E+01  0.17128022252E+02  0.19771070286E+02  0.51100000000E-03 0. -1.
        -11    1    3    3    0    0  0.19461248312E+01 -0.24348969542E+02  0.35570694161E+01  0.24684255361E+02  0.51100000000E-03 0.  1.
        -12    1    3    3    0    0 -0.36236606655E+01 -0.37327829853E+01 -0.31342035892E+01  0.60735341913E+01  0.00000000000E+00 0.  1.
</event>
<event>
 7    1  0.4101940E-011  0.5052886E+02  0.7816164E-02  0.1300439E+00
        -11   -1    0    0    0    0  0.00000000000E+00  0.00000000000E+00  0.45593999997E+02  0.45594000000E+02  0.51100000000E-03 0. -1.
         11   -1    0    0    0    0 -0.00000000000E+00 -0.00000000000E+00 -0.45593999997E+02  0.45594000000E+02  0.51100000000E-03 0.  1.
    9900012    2    1    2    0    0 -0.29735487934E+01 -0.10040650560E+02 -0.39287515364E+02  0.50528861795E+02  0.30000005912E+02 0.  0.
         12    1    1    2    0    0  0.29735487934E+01  0.10040650560E+02  0.39287515364E+02  0.40659138205E+02  0.00000000000E+00 0. -1.
         11    1    3    3    0    0 -0.10499193684E+02 -0.13681654511E+02 -0.19597153123E+02  0.26104964068E+02  0.51100000000E-03 0. -1.
        -11    1    3    3    0    0 -0.20663508037E+01 -0.50428575736E+00 -0.98272799389E+01  0.10054826753E+02  0.51100000000E-03 0.  1.
         12    1    3    3    0    0  0.95919956944E+01  0.41452897088E+01 -0.98630823020E+01  0.14369070974E+02  0.00000000000E+00 0. -1.
</event>
<event>
 7    1  0.3331850E-011  0.5052884E+02  0.7816164E-02  0.1300439E+00
        -11   -1    0    0    0    0  0.00000000000E+00  0.00000000000E+00  0.45593999997E+02  0.45594000000E+02  0.51100000000E-03 0.  1.
         11   -1    0    0    0    0 -0.00000000000E+00 -0.00000000000E+00 -0.45593999997E+02  0.45594000000E+02  0.51100000000E-03 0. -1.
    9900012    2    1    2    0    0 -0.22445377275E+02 -0.13400194679E+02  0.31141732179E+02  0.50528835454E+02  0.29999925847E+02 0.  0.
         12    1    1    2    0    0  0.22445377275E+02  0.13400194679E+02 -0.31141732179E+02  0.40659164546E+02  0.00000000000E+00 0. -1.
         11    1    3    3    0    0 -0.80150832254E+01 -0.10957857393E+02  0.11197991085E+02  0.17598613649E+02  0.51100000000E-03 0. -1.
        -11    1    3    3    0    0 -0.31606254863E+01 -0.11300780437E+02  0.10648563523E+02  0.15845791155E+02  0.51100000000E-03 0.  1.
         12    1    3    3    0    0 -0.11269668563E+02  0.88584431514E+01  0.92951775712E+01  0.17084430651E+02  0.00000000000E+00 0. -1.
</event>
<event>
 7    1  0.3331850E-011  0.5052886E+02  0.7816164E-02  0.1300439E+00
        -11   -1    0    0    0    0  0.00000000000E+00  0.00000000000E+00  0.45593999997E+02  0.45594000000E+02  0.51100000000E-03 0. -1.
         11   -1    0    0    0    0 -0.00000000000E+00 -0.00000000000E+00 -0.45593999997E+02  0.45594000000E+02  0.51100000000E-03 0.  1.
    9900012    2    1    2    0    0  0.35371285517E+01  0.34329210547E+02  0.21497893382E+02  0.50528863327E+02  0.30000010568E+02 0.  0.
         12    1    1    2    0    0 -0.35371285517E+01 -0.34329210547E+02 -0.21497893382E+02  0.40659136673E+02  0.00000000000E+00 0. -1.
         11    1    3    3    0    0  0.10882582852E+02  0.19373954920E+02  0.12705757940E+02  0.25597207345E+02  0.51100000000E-03 0. -1.
        -11    1    3    3    0    0 -0.26299412833E+01  0.94505207486E+01 -0.37038846651E+01  0.10485594663E+02  0.51100000000E-03 0.  1.
        -12    1    3    3    0    0 -0.47155130168E+01  0.55047348777E+01  0.12496020107E+02  0.14446061318E+02  0.00000000000E+00 0.  1.
</event>
<event>
 7    1  0.3331850E-011  0.5052886E+02  0.7816164E-02  0.1300439E+00
        -11   -1    0    0    0    0  0.00000000000E+00  0.00000000000E+00  0.45593999997E+02  0.45594000000E+02  0.51100000000E-03 0.  1.
         11   -1    0    0    0    0 -0.00000000000E+00 -0.00000000000E+00 -0.45593999997E+02  0.45594000000E+02  0.51100000000E-03 0. -1.
    9900012    2    1    2    0    0  0.13757980521E+02 -0.11725419584E+02  0.36419754232E+02  0.50528856000E+02  0.29999988299E+02 0.  0.
         12    1    1    2    0    0 -0.13757980521E+02  0.11725419584E+02 -0.36419754232E+02  0.40659144000E+02  0.00000000000E+00 0. -1.
         11    1    3    3    0    0 -0.66754786022E+00 -0.63337200866E+01 -0.61163354124E-01  0.63690950298E+01  0.51100000000E-03 0. -1.
        -11    1    3    3    0    0  0.96455168764E-01  0.80224434193E+00  0.24418543771E+02  0.24431909048E+02  0.51100000000E-03 0.  1.
        -12    1    3    3    0    0  0.14329073213E+02 -0.61939438390E+01  0.12062373816E+02  0.19727851923E+02  0.00000000000E+00 0.  1.
</event>
<event>
 7    1  0.3331850E-011  0.5052886E+02  0.7816164E-02  0.1300439E+00
        -11   -1    0    0    0    0  0.00000000000E+00  0.00000000000E+00  0.45593999997E+02  0.45594000000E+02  0.51100000000E-03 0.  1.
         11   -1    0    0    0    0 -0.00000000000E+00 -0.00000000000E+00 -0.45593999997E+02  0.45594000000E+02  0.51100000000E-03 0. -1.
    9900012    2    1    2    0    0  0.30411329818E+02 -0.11600399456E+02  0.24366934507E+02  0.50528859009E+02  0.29999997443E+02 0.  0.
         12    1    1    2    0    0 -0.30411329818E+02  0.11600399456E+02 -0.24366934507E+02  0.40659140991E+02  0.00000000000E+00 0. -1.
         11    1    3    3    0    0  0.22221472797E+02 -0.22711672757E+00  0.11508787996E+02  0.25025939276E+02  0.51100000000E-03 0.  1.
        -11    1    3    3    0    0 -0.30329351486E+00  0.40334055215E+01  0.44198194446E+01  0.59912562324E+01  0.51100000000E-03 0. -1.
         12    1    3    3    0    0  0.84931505363E+01 -0.15406688250E+02  0.84383270670E+01  0.19511663500E+02  0.00000000000E+00 0. -1.
</event>
<event>
 7    1  0.3331850E-011  0.5052886E+02  0.7816164E-02  0.1300439E+00
        -11   -1    0    0    0    0  0.00000000000E+00  0.00000000000E+00  0.45593999997E+02  0.45594000000E+02  0.51100000000E-03 0. -1.
         11   -1    0    0    0    0 -0.00000000000E+00 -0.00000000000E+00 -0.45593999997E+02  0.45594000000E+02  0.51100000000E-03 0.  1.
    9900012    2    1    2    0    0 -0.39536133085E+02 -0.81145193566E+01 -0.49208237627E+01  0.50528858959E+02  0.29999997292E+02 0.  0.
         12    1    1    2    0    0  0.39536133085E+02  0.81145193566E+01  0.49208237627E+01  0.40659141041E+02  0.00000000000E+00 0. -1.
         11    1    3    3    0    0 -0.13309013782E+02 -0.27132970449E+01  0.39381264835E+01  0.14142159282E+02  0.51100000000E-03 0. -1.
        -11    1    3    3    0    0 -0.48696459820E+01 -0.82835793091E+01 -0.11144218818E+02  0.14714780036E+02  0.51100000000E-03 0.  1.
         12    1    3    3    0    0 -0.21357473321E+02  0.28823569974E+01  0.22852685721E+01  0.21671919641E+02  0.00000000000E+00 0. -1.
</event>
<event>
 7    1  0.3331850E-011  0.5052886E+02  0.7816164E-02  0.1300439E+00
        -11   -1    0    0    0    0  0.00000000000E+00  0.00000000000E+00  0.45593999997E+02  0.45594000000E+02  0.51100000000E-03 0.  1.
         11   -1    0    0    0    0 -0.00000000000E+00 -0.00000000000E+00 -0.45593999997E+02  0.45594000000E+02  0.51100000000E-03 0. -1.
    9900012    2    1    2    0    0 -0.26723982648E+01  0.11350795465E+02  0.38951035852E+02  0.50528862477E+02  0.30000007984E+02 0.  0.
         12    1    1    2    0    0  0.26723982648E+01 -0.11350795465E+02 -0.38951035852E+02  0.40659137523E+02  0.00000000000E+00 0. -1.
         11    1    3    3    0    0  0.11406545226E+02  0.76678901204E+01  0.10060503186E+02  0.17032895747E+02  0.51100000000E-03 0. -1.
        -11    1    3    3    0    0 -0.39806752640E+01 -0.28660564034E+01  0.88770023866E+01  0.10142052381E+02  0.51100000000E-03 0.  1.
        -12    1    3    3    0    0 -0.10098268227E+02  0.65489617483E+01  0.20013530280E+02  0.23353914349E+02  0.00000000000E+00 0.  1.
</event>
<event>
 7    1  0.3331850E-011  0.5052885E+02  0.7816164E-02  0.1300439E+00
        -11   -1    0    0    0    0  0.00000000000E+00  0.00000000000E+00  0.45593999997E+02  0.45594000000E+02  0.51100000000E-03 0.  1.
         11   -1    0    0    0    0 -0.00000000000E+00 -0.00000000000E+00 -0.45593999997E+02  0.45594000000E+02  0.51100000000E-03 0. -1.
    9900012    2    1    2    0    0  0.26705004322E+02 -0.31720998253E+01  0.30495030185E+02  0.50528851717E+02  0.29999975278E+02 0.  0.
         12    1    1    2    0    0 -0.26705004322E+02  0.31720998253E+01 -0.30495030185E+02  0.40659148283E+02  0.00000000000E+00 0. -1.
         11    1    3    3    0    0  0.84532268110E+01  0.53518512311E+01  0.13039626920E+02  0.16435669308E+02  0.51100000000E-03 0. -1.
        -11    1    3    3    0    0 -0.46766143994E+01 -0.73959310674E+00  0.10633196862E+01  0.48526661971E+01  0.51100000000E-03 0.  1.
        -12    1    3    3    0    0  0.22928391910E+02 -0.77843579497E+01  0.16392083578E+02  0.29240516212E+02  0.00000000000E+00 0.  1.
</event>
<event>
 7    1  0.3331850E-011  0.5052886E+02  0.7816164E-02  0.1300439E+00
        -11   -1    0    0    0    0  0.00000000000E+00  0.00000000000E+00  0.45593999997E+02  0.45594000000E+02  0.51100000000E-03 0.  1.
         11   -1    0    0    0    0 -0.00000000000E+00 -0.00000000000E+00 -0.45593999997E+02  0.45594000000E+02  0.51100000000E-03 0. -1.
    9900012    2    1    2    0    0 -0.13886276599E+02  0.23537871455E+02  0.30104905693E+02  0.50528863054E+02  0.30000009740E+02 0.  0.
         12    1    1    2    0    0  0.13886276599E+02 -0.23537871455E+02 -0.30104905693E+02  0.40659136946E+02  0.00000000000E+00 0. -1.
         11    1    3    3    0    0 -0.42808779468E+01  0.18957605183E+02  0.17045273565E+02  0.25850687833E+02  0.51100000000E-03 0.  1.
        -11    1    3    3    0    0  0.12985833366E+00  0.11688669326E+01  0.14246050631E+02  0.14294511952E+02  0.51100000000E-03 0. -1.
         12    1    3    3    0    0 -0.97352569857E+01  0.34113993386E+01 -0.11864185031E+01  0.10383663269E+02  0.00000000000E+00 0. -1.
</event>
<event>
 7    1  0.3331850E-011  0.5052886E+02  0.7816164E-02  0.1300439E+00
        -11   -1    0    0    0    0  0.00000000000E+00  0.00000000000E+00  0.45593999997E+02  0.45594000000E+02  0.51100000000E-03 0.  1.
         11   -1    0    0    0    0 -0.00000000000E+00 -0.00000000000E+00 -0.45593999997E+02  0.45594000000E+02  0.51100000000E-03 0. -1.
    9900012    2    1    2    0    0  0.94739517191E+01 -0.39139331365E+02  0.56144686659E+01  0.50528864751E+02  0.30000014896E+02 0.  0.
         12    1    1    2    0    0 -0.94739517191E+01  0.39139331365E+02 -0.56144686659E+01  0.40659135249E+02  0.00000000000E+00 0. -1.
         11    1    3    3    0    0  0.10070170291E+02 -0.19165591773E+02  0.28526540520E+01  0.21837258827E+02  0.51100000000E-03 0. -1.
        -11    1    3    3    0    0  0.86945662211E+01 -0.59370387458E+01  0.50975536258E+01  0.11697391336E+02  0.51100000000E-03 0.  1.
        -12    1    3    3    0    0 -0.92907847927E+01 -0.14036700846E+02 -0.23357390120E+01  0.16994214587E+02  0.00000000000E+00 0.  1.
</event>
<event>
 7    1  0.3331850E-011  0.5052886E+02  0.7816164E-02  0.1300439E+00
        -11   -1    0    0    0    0  0.00000000000E+00  0.00000000000E+00  0.45593999997E+02  0.45594000000E+02  0.51100000000E-03 0.  1.
         11   -1    0    0    0    0 -0.00000000000E+00 -0.00000000000E+00 -0.45593999997E+02  0.45594000000E+02  0.51100000000E-03 0. -1.
    9900012    2    1    2    0    0 -0.17407720790E+01 -0.40608530476E+02 -0.10405673385E+01  0.50528858159E+02  0.29999994861E+02 0.  0.
         12    1    1    2    0    0  0.17407720790E+01  0.40608530476E+02  0.10405673385E+01  0.40659141841E+02  0.00000000000E+00 0. -1.
         11    1    3    3    0    0 -0.65019773444E+00 -0.20185417231E+01  0.72985560944E+01  0.76004071671E+01  0.51100000000E-03 0.  1.
        -11    1    3    3    0    0 -0.37054472435E+01 -0.44254464898E+00 -0.17740118723E+01  0.41319854095E+01  0.51100000000E-03 0. -1.
        -12    1    3    3    0    0  0.26148728989E+01 -0.38147444104E+02 -0.65651115606E+01  0.38796465583E+02  0.00000000000E+00 0.  1.
</event>
<event>
 7    1  0.3331850E-011  0.5052884E+02  0.7816164E-02  0.1300439E+00
        -11   -1    0    0    0    0  0.00000000000E+00  0.00000000000E+00  0.45593999997E+02  0.45594000000E+02  0.51100000000E-03 0. -1.
         11   -1    0    0    0    0 -0.00000000000E+00 -0.00000000000E+00 -0.45593999997E+02  0.45594000000E+02  0.51100000000E-03 0.  1.
    9900012    2    1    2    0    0 -0.12560210329E+02 -0.38603769287E+02  0.22709069600E+01  0.50528844757E+02  0.29999954122E+02 0.  0.
         12    1    1    2    0    0  0.12560210329E+02  0.38603769287E+02 -0.22709069600E+01  0.40659155243E+02  0.00000000000E+00 0. -1.
         11    1    3    3    0    0 -0.35805250152E+00 -0.90654370110E+01  0.10634073333E+02  0.13978335584E+02  0.51100000000E-03 0. -1.
        -11    1    3    3    0    0 -0.55042449353E+01 -0.55687342114E+01  0.39650518354E+01  0.87766251683E+01  0.51100000000E-03 0.  1.
        -12    1    3    3    0    0 -0.66979128925E+01 -0.23969598065E+02 -0.12328218208E+02  0.27773884004E+02  0.00000000000E+00 0.  1.
</event>
<event>
 7    1  0.3331850E-011  0.5052886E+02  0.7816164E-02  0.1300439E+00
        -11   -1    0    0    0    0  0.00000000000E+00  0.00000000000E+00  0.45593999997E+02  0.45594000000E+02  0.51100000000E-03 0. -1.
         11   -1    0    0    0    0 -0.00000000000E+00 -0.00000000000E+00 -0.45593999997E+02  0.45594000000E+02  0.51100000000E-03 0.  1.
    9900012    2    1    2    0    0  0.60490349708E+01 -0.40170458263E+02 -0.17056549354E+01  0.50528858347E+02  0.29999995433E+02 0.  0.
         12    1    1    2    0    0 -0.60490349708E+01  0.40170458263E+02  0.17056549354E+01  0.40659141653E+02  0.00000000000E+00 0. -1.
         11    1    3    3    0    0  0.10350152486E+02 -0.19348918557E+02  0.28606750544E+01  0.22128935082E+02  0.51100000000E-03 0. -1.
        -11    1    3    3    0    0  0.45852960337E+01 -0.35739521454E+01  0.41367057695E+01  0.71351530144E+01  0.51100000000E-03 0.  1.
         12    1    3    3    0    0 -0.88864135486E+01 -0.17247587561E+02 -0.87030357593E+01  0.21264770251E+02  0.00000000000E+00 0. -1.
</event>
<event>
 7    1  0.3331850E-011  0.5052886E+02  0.7816164E-02  0.1300439E+00
        -11   -1    0    0    0    0  0.00000000000E+00  0.00000000000E+00  0.45593999997E+02  0.45594000000E+02  0.51100000000E-03 0.  1.
         11   -1    0    0    0    0 -0.00000000000E+00 -0.00000000000E+00 -0.45593999997E+02  0.45594000000E+02  0.51100000000E-03 0. -1.
    9900012    2    1    2    0    0 -0.27637121939E+02  0.16659573436E+02  0.24734869537E+02  0.50528859981E+02  0.30000000397E+02 0.  0.
         12    1    1    2    0    0  0.27637121939E+02 -0.16659573436E+02 -0.24734869537E+02  0.40659140019E+02  0.00000000000E+00 0. -1.
         11    1    3    3    0    0  0.30987147362E+01  0.13726525812E+01  0.53688151634E+01  0.63490459634E+01  0.51100000000E-03 0.  1.
        -11    1    3    3    0    0  0.11923816238E+01  0.43643909767E+00  0.66050038652E+01  0.67259444945E+01  0.51100000000E-03 0. -1.
         12    1    3    3    0    0 -0.31928218299E+02  0.14850481757E+02  0.12761050508E+02  0.37453869523E+02  0.00000000000E+00 0. -1.
</event>
<event>
 7    1  0.3331850E-011  0.5052886E+02  0.7816164E-02  0.1300439E+00
        -11   -1    0    0    0    0  0.00000000000E+00  0.00000000000E+00  0.45593999997E+02  0.45594000000E+02  0.51100000000E-03 0. -1.
         11   -1    0    0    0    0 -0.00000000000E+00 -0.00000000000E+00 -0.45593999997E+02  0.45594000000E+02  0.51100000000E-03 0.  1.
    9900012    2    1    2    0    0 -0.68971218454E+01 -0.37273243509E+02  0.14707158864E+02  0.50528862118E+02  0.30000006894E+02 0.  0.
         12    1    1    2    0    0  0.68971218454E+01  0.37273243509E+02 -0.14707158864E+02  0.40659137882E+02  0.00000000000E+00 0. -1.
         11    1    3    3    0    0 -0.70956336391E+01 -0.51806164652E+01  0.80625253675E+01  0.11924391777E+02  0.51100000000E-03 0. -1.
        -11    1    3    3    0    0 -0.79108737628E+01 -0.42497901364E+01  0.24037133648E+01  0.92962615118E+01  0.51100000000E-03 0.  1.
        -12    1    3    3    0    0  0.81093855566E+01 -0.27842836908E+02  0.42409201322E+01  0.29308208829E+02  0.00000000000E+00 0.  1.
</event>
<event>
 7    1  0.3331850E-011  0.5052886E+02  0.7816164E-02  0.1300439E+00
        -11   -1    0    0    0    0  0.00000000000E+00  0.00000000000E+00  0.45593999997E+02  0.45594000000E+02  0.51100000000E-03 0. -1.
         11   -1    0    0    0    0 -0.00000000000E+00 -0.00000000000E+00 -0.45593999997E+02  0.45594000000E+02  0.51100000000E-03 0.  1.
    9900012    2    1    2    0    0  0.17206712250E+02 -0.74463453907E+01 -0.36078341654E+02  0.50528859052E+02  0.29999997574E+02 0.  0.
         12    1    1    2    0    0 -0.17206712250E+02  0.74463453907E+01  0.36078341654E+02  0.40659140948E+02  0.00000000000E+00 0. -1.
         11    1    3    3    0    0  0.99576567145E+01  0.71793159404E+01 -0.23580463890E+02  0.26584502669E+02  0.51100000000E-03 0.  1.
        -11    1    3    3    0    0  0.85420018836E+00  0.59812279663E+00  0.18143271474E+01  0.20926519301E+01  0.51100000000E-03 0. -1.
        -12    1    3    3    0    0  0.63948553472E+01 -0.15223784128E+02 -0.14312204911E+02  0.21851704453E+02  0.00000000000E+00 0.  1.
</event>
<event>
 7    1  0.3331850E-011  0.5052886E+02  0.7816164E-02  0.1300439E+00
        -11   -1    0    0    0    0  0.00000000000E+00  0.00000000000E+00  0.45593999997E+02  0.45594000000E+02  0.51100000000E-03 0.  1.
         11   -1    0    0    0    0 -0.00000000000E+00 -0.00000000000E+00 -0.45593999997E+02  0.45594000000E+02  0.51100000000E-03 0. -1.
    9900012    2    1    2    0    0 -0.27481720313E+02 -0.29898496195E+02  0.20001910145E+01  0.50528858468E+02  0.29999995799E+02 0.  0.
         12    1    1    2    0    0  0.27481720313E+02  0.29898496195E+02 -0.20001910145E+01  0.40659141532E+02  0.00000000000E+00 0. -1.
         11    1    3    3    0    0  0.33869629927E+01 -0.43554093018E+00  0.14201964612E+01  0.36984013391E+01  0.51100000000E-03 0. -1.
        -11    1    3    3    0    0  0.16101271802E+01 -0.47191067523E+01  0.31854606878E+01  0.59168942978E+01  0.51100000000E-03 0.  1.
         12    1    3    3    0    0 -0.32478810486E+02 -0.24743848512E+02 -0.26054661344E+01  0.40913562831E+02  0.00000000000E+00 0. -1.
</event>
<event>
 7    1  0.3331850E-011  0.5052886E+02  0.7816164E-02  0.1300439E+00
        -11   -1    0    0    0    0  0.00000000000E+00  0.00000000000E+00  0.45593999997E+02  0.45594000000E+02  0.51100000000E-03 0.  1.
         11   -1    0    0    0    0 -0.00000000000E+00 -0.00000000000E+00 -0.45593999997E+02  0.45594000000E+02  0.51100000000E-03 0. -1.
    9900012    2    1    2    0    0 -0.40348079654E+01 -0.39568514832E+02 -0.84391307001E+01  0.50528856277E+02  0.29999989139E+02 0.  0.
         12    1    1    2    0    0  0.40348079654E+01  0.39568514832E+02  0.84391307001E+01  0.40659143723E+02  0.00000000000E+00 0. -1.
         11    1    3    3    0    0 -0.23374636605E+01 -0.29581132182E+02 -0.78537549610E+01  0.30695090565E+02  0.51100000000E-03 0. -1.
        -11    1    3    3    0    0 -0.42615852826E+01 -0.13275171219E+02 -0.39331433168E+01  0.14486576429E+02  0.51100000000E-03 0.  1.
         12    1    3    3    0    0  0.25642409777E+01  0.32877885696E+01  0.33477675777E+01  0.53471892826E+01  0.00000000000E+00 0. -1.
</event>
<event>
 7    1  0.3331850E-011  0.5052892E+02  0.7816164E-02  0.1300439E+00
        -11   -1    0    0    0    0  0.00000000000E+00  0.00000000000E+00  0.45593999997E+02  0.45594000000E+02  0.51100000000E-03 0.  1.
         11   -1    0    0    0    0 -0.00000000000E+00 -0.00000000000E+00 -0.45593999997E+02  0.45594000000E+02  0.51100000000E-03 0. -1.
    9900012    2    1    2    0    0  0.36091987337E+02 -0.10099538246E+02  0.15764784428E+02  0.50528921668E+02  0.30000187903E+02 0.  0.
         12    1    1    2    0    0 -0.36091987337E+02  0.10099538246E+02 -0.15764784428E+02  0.40659078332E+02  0.00000000000E+00 0. -1.
         11    1    3    3    0    0  0.23030915720E+00  0.66036490055E+00 -0.48911471609E+00  0.85343867758E+00  0.51100000000E-03 0. -1.
        -11    1    3    3    0    0  0.26142710153E+02 -0.19137059186E+01  0.23027229178E+02  0.34890641272E+02  0.51100000000E-03 0.  1.
         12    1    3    3    0    0  0.97189680274E+01 -0.88461972279E+01 -0.67733300343E+01  0.14784841719E+02  0.00000000000E+00 0. -1.
</event>
<event>
 7    1  0.3331850E-011  0.5052886E+02  0.7816164E-02  0.1300439E+00
        -11   -1    0    0    0    0  0.00000000000E+00  0.00000000000E+00  0.45593999997E+02  0.45594000000E+02  0.51100000000E-03 0.  1.
         11   -1    0    0    0    0 -0.00000000000E+00 -0.00000000000E+00 -0.45593999997E+02  0.45594000000E+02  0.51100000000E-03 0. -1.
    9900012    2    1    2    0    0 -0.29363410710E+02  0.52134023656E+01  0.27636494732E+02  0.50528864571E+02  0.30000014350E+02 0.  0.
         12    1    1    2    0    0  0.29363410710E+02 -0.52134023656E+01 -0.27636494732E+02  0.40659135429E+02  0.00000000000E+00 0. -1.
         11    1    3    3    0    0 -0.11525403885E+02 -0.38740851205E+01  0.41339857366E+01  0.12842636356E+02  0.51100000000E-03 0. -1.
        -11    1    3    3    0    0 -0.19834020458E+02  0.13398179311E+02  0.15946165334E+02  0.28760733049E+02  0.51100000000E-03 0.  1.
         12    1    3    3    0    0  0.19960136329E+01 -0.43106918250E+01  0.75563436617E+01  0.89254951665E+01  0.00000000000E+00 0. -1.
</event>
<event>
 7    1  0.3331850E-011  0.5052886E+02  0.7816164E-02  0.1300439E+00
        -11   -1    0    0    0    0  0.00000000000E+00  0.00000000000E+00  0.45593999997E+02  0.45594000000E+02  0.51100000000E-03 0. -1.
         11   -1    0    0    0    0 -0.00000000000E+00 -0.00000000000E+00 -0.45593999997E+02  0.45594000000E+02  0.51100000000E-03 0.  1.
    9900012    2    1    2    0    0  0.14160155295E+02  0.18280910110E+02 -0.33443448811E+02  0.50528856616E+02  0.29999990169E+02 0.  0.
         12    1    1    2    0    0 -0.14160155295E+02 -0.18280910110E+02  0.33443448811E+02  0.40659143384E+02  0.00000000000E+00 0. -1.
         11    1    3    3    0    0 -0.34193993406E+01 -0.40191689341E+01  0.10485824988E+01  0.53801056021E+01  0.51100000000E-03 0. -1.
        -11    1    3    3    0    0  0.41315245665E+01  0.16725663184E+01 -0.43619715504E+01  0.62364869438E+01  0.51100000000E-03 0.  1.
        -12    1    3    3    0    0  0.13448030069E+02  0.20627512725E+02 -0.30130059759E+02  0.38912264070E+02  0.00000000000E+00 0.  1.
</event>
<event>
 7    1  0.3331850E-011  0.5052886E+02  0.7816164E-02  0.1300439E+00
        -11   -1    0    0    0    0  0.00000000000E+00  0.00000000000E+00  0.45593999997E+02  0.45594000000E+02  0.51100000000E-03 0.  1.
         11   -1    0    0    0    0 -0.00000000000E+00 -0.00000000000E+00 -0.45593999997E+02  0.45594000000E+02  0.51100000000E-03 0. -1.
    9900012    2    1    2    0    0  0.12554065594E+02  0.32136728276E+02  0.21512588631E+02  0.50528864042E+02  0.30000012743E+02 0.  0.
         12    1    1    2    0    0 -0.12554065594E+02 -0.32136728276E+02 -0.21512588631E+02  0.40659135958E+02  0.00000000000E+00 0. -1.
         11    1    3    3    0    0  0.79187850742E+01  0.17062157912E+02  0.49212926759E+01  0.19443341059E+02  0.51100000000E-03 0. -1.
        -11    1    3    3    0    0 -0.12842557164E+01  0.16595256637E+02  0.18301940287E+02  0.24738893955E+02  0.51100000000E-03 0.  1.
         12    1    3    3    0    0  0.59195362366E+01 -0.15206862725E+01 -0.17106443321E+01  0.63466290286E+01  0.00000000000E+00 0. -1.
</event>
<event>
 7    1  0.3331850E-011  0.5052886E+02  0.7816164E-02  0.1300439E+00
        -11   -1    0    0    0    0  0.00000000000E+00  0.00000000000E+00  0.45593999997E+02  0.45594000000E+02  0.51100000000E-03 0.  1.
         11   -1    0    0    0    0 -0.00000000000E+00 -0.00000000000E+00 -0.45593999997E+02  0.45594000000E+02  0.51100000000E-03 0. -1.
    9900012    2    1    2    0    0 -0.40259034684E+01 -0.18775814773E+02  0.35838896234E+02  0.50528860776E+02  0.30000002814E+02 0.  0.
         12    1    1    2    0    0  0.40259034684E+01  0.18775814773E+02 -0.35838896234E+02  0.40659139224E+02  0.00000000000E+00 0. -1.
         11    1    3    3    0    0 -0.50989592216E+01  0.30201336782E+01  0.84768938690E+00  0.59865825089E+01  0.51100000000E-03 0. -1.
        -11    1    3    3    0    0 -0.23416460794E+01 -0.60530907011E+01  0.54210884598E+00  0.65128408286E+01  0.51100000000E-03 0.  1.
        -12    1    3    3    0    0  0.34147018326E+01 -0.15742857750E+02  0.34449098002E+02  0.38029437438E+02  0.00000000000E+00 0.  1.
</event>
<event>
 7    1  0.3331850E-011  0.5052886E+02  0.7816164E-02  0.1300439E+00
        -11   -1    0    0    0    0  0.00000000000E+00  0.00000000000E+00  0.45593999997E+02  0.45594000000E+02  0.51100000000E-03 0. -1.
         11   -1    0    0    0    0 -0.00000000000E+00 -0.00000000000E+00 -0.45593999997E+02  0.45594000000E+02  0.51100000000E-03 0.  1.
    9900012    2    1    2    0    0 -0.39687477163E+02  0.60464186481E+01 -0.64428820092E+01  0.50528858954E+02  0.29999997276E+02 0.  0.
         12    1    1    2    0    0  0.39687477163E+02 -0.60464186481E+01  0.64428820092E+01  0.40659141046E+02  0.00000000000E+00 0. -1.
         11    1    3    3    0    0 -0.10154481520E+01  0.67331427225E+01 -0.60970544249E+01  0.91400447916E+01  0.51100000000E-03 0. -1.
        -11    1    3    3    0    0 -0.21958749770E+00 -0.17844433239E+01  0.21944643877E+01  0.28369227792E+01  0.51100000000E-03 0.  1.
        -12    1    3    3    0    0 -0.38452441513E+02  0.10977192495E+01 -0.25402919719E+01  0.38551891383E+02  0.00000000000E+00 0.  1.
</event>
<event>
 7    1  0.3331850E-011  0.5052887E+02  0.7816164E-02  0.1300439E+00
        -11   -1    0    0    0    0  0.00000000000E+00  0.00000000000E+00  0.45593999997E+02  0.45594000000E+02  0.51100000000E-03 0.  1.
         11   -1    0    0    0    0 -0.00000000000E+00 -0.00000000000E+00 -0.45593999997E+02  0.45594000000E+02  0.51100000000E-03 0. -1.
    9900012    2    1    2    0    0  0.43352279438E+01  0.14868954009E+02  0.37593677306E+02  0.50528873496E+02  0.30000041479E+02 0.  0.
         12    1    1    2    0    0 -0.43352279438E+01 -0.14868954009E+02 -0.37593677306E+02  0.40659126504E+02  0.00000000000E+00 0. -1.
         11    1    3    3    0    0  0.79590125881E+00  0.11817504845E+02  0.59969347767E+01  0.13275922060E+02  0.51100000000E-03 0. -1.
        -11    1    3    3    0    0 -0.41229737183E+01  0.80264318555E+01  0.84244510459E+01  0.12344792274E+02  0.51100000000E-03 0.  1.
        -12    1    3    3    0    0  0.76623004033E+01 -0.49749826910E+01  0.23172291483E+02  0.24908159162E+02  0.00000000000E+00 0.  1.
</event>
<event>
 7    1  0.3331850E-011  0.5052883E+02  0.7816164E-02  0.1300439E+00
        -11   -1    0    0    0    0  0.00000000000E+00  0.00000000000E+00  0.45593999997E+02  0.45594000000E+02  0.51100000000E-03 0. -1.
         11   -1    0    0    0    0 -0.00000000000E+00 -0.00000000000E+00 -0.45593999997E+02  0.45594000000E+02  0.51100000000E-03 0.  1.
    9900012    2    1    2    0    0  0.26779789453E+02 -0.16293491792E+02 -0.25894651180E+02  0.50528831813E+02  0.29999914779E+02 0.  0.
         12    1    1    2    0    0 -0.26779789453E+02  0.16293491792E+02  0.25894651180E+02  0.40659168187E+02  0.00000000000E+00 0. -1.
         11    1    3    3    0    0  0.47130352785E+01  0.25770070966E+00 -0.21283187585E+01  0.51777265466E+01  0.51100000000E-03 0. -1.
        -11    1    3    3    0    0  0.22519219274E+02 -0.82134936225E+00 -0.10938621032E+02  0.25048817973E+02  0.51100000000E-03 0.  1.
         12    1    3    3    0    0 -0.45246509994E+00 -0.15729843139E+02 -0.12827711390E+02  0.20302287294E+02  0.00000000000E+00 0. -1.
</event>
<event>
 7    1  0.3331850E-011  0.5052886E+02  0.7816164E-02  0.1300439E+00
        -11   -1    0    0    0    0  0.00000000000E+00  0.00000000000E+00  0.45593999997E+02  0.45594000000E+02  0.51100000000E-03 0. -1.
         11   -1    0    0    0    0 -0.00000000000E+00 -0.00000000000E+00 -0.45593999997E+02  0.45594000000E+02  0.51100000000E-03 0.  1.
    9900012    2    1    2    0    0  0.40262843220E+02 -0.51277424653E+01 -0.24032581540E+01  0.50528856665E+02  0.29999990319E+02 0.  0.
         12    1    1    2    0    0 -0.40262843220E+02  0.51277424653E+01  0.24032581540E+01  0.40659143335E+02  0.00000000000E+00 0. -1.
         11    1    3    3    0    0 -0.57081134419E-01 -0.16862840279E+01  0.45841901140E+01  0.48848348325E+01  0.51100000000E-03 0. -1.
        -11    1    3    3    0    0  0.72582468749E+01 -0.73130869665E+01 -0.68196352846E+01  0.12356003171E+02  0.51100000000E-03 0.  1.
        -12    1    3    3    0    0  0.33061677480E+02  0.38716285290E+01 -0.16781298341E+00  0.33288018662E+02  0.00000000000E+00 0.  1.
</event>
<event>
 7    1  0.3331850E-011  0.5052886E+02  0.7816164E-02  0.1300439E+00
        -11   -1    0    0    0    0  0.00000000000E+00  0.00000000000E+00  0.45593999997E+02  0.45594000000E+02  0.51100000000E-03 0.  1.
         11   -1    0    0    0    0 -0.00000000000E+00 -0.00000000000E+00 -0.45593999997E+02  0.45594000000E+02  0.51100000000E-03 0. -1.
    9900012    2    1    2    0    0  0.22739505007E+02  0.10653051875E+01  0.33688955487E+02  0.50528859762E+02  0.29999999732E+02 0.  0.
         12    1    1    2    0    0 -0.22739505007E+02 -0.10653051875E+01 -0.33688955487E+02  0.40659140238E+02  0.00000000000E+00 0. -1.
         11    1    3    3    0    0 -0.38187214349E+01 -0.47681725550E+00  0.10687333713E+02  0.11359097246E+02  0.51100000000E-03 0. -1.
        -11    1    3    3    0    0  0.11291221758E+02 -0.77723517777E+01  0.83534173550E+01  0.16052436660E+02  0.51100000000E-03 0.  1.
         12    1    3    3    0    0  0.15267004684E+02  0.93144742208E+01  0.14648204419E+02  0.23117325856E+02  0.00000000000E+00 0. -1.
</event>
<event>
 7    1  0.3331850E-011  0.5052885E+02  0.7816164E-02  0.1300439E+00
        -11   -1    0    0    0    0  0.00000000000E+00  0.00000000000E+00  0.45593999997E+02  0.45594000000E+02  0.51100000000E-03 0.  1.
         11   -1    0    0    0    0 -0.00000000000E+00 -0.00000000000E+00 -0.45593999997E+02  0.45594000000E+02  0.51100000000E-03 0. -1.
    9900012    2    1    2    0    0  0.32744297629E+02 -0.23215462853E+02  0.64822345547E+01  0.50528854565E+02  0.29999983935E+02 0.  0.
         12    1    1    2    0    0 -0.32744297629E+02  0.23215462853E+02 -0.64822345547E+01  0.40659145435E+02  0.00000000000E+00 0. -1.
         11    1    3    3    0    0  0.13944221489E+02 -0.19021841371E+01  0.38057980542E+01  0.14578879124E+02  0.51100000000E-03 0. -1.
        -11    1    3    3    0    0  0.19949009357E+02 -0.88792410978E+01 -0.33388577437E+01  0.22089632593E+02  0.51100000000E-03 0.  1.
        -12    1    3    3    0    0 -0.11489332166E+01 -0.12434037618E+02  0.60152942442E+01  0.13860342848E+02  0.00000000000E+00 0.  1.
</event>
<event>
 7    1  0.3331850E-011  0.5052885E+02  0.7816164E-02  0.1300439E+00
        -11   -1    0    0    0    0  0.00000000000E+00  0.00000000000E+00  0.45593999997E+02  0.45594000000E+02  0.51100000000E-03 0.  1.
         11   -1    0    0    0    0 -0.00000000000E+00 -0.00000000000E+00 -0.45593999997E+02  0.45594000000E+02  0.51100000000E-03 0. -1.
    9900012    2    1    2    0    0  0.11541933442E+01  0.33417491947E+02  0.23132345385E+02  0.50528851788E+02  0.29999975495E+02 0.  0.
         12    1    1    2    0    0 -0.11541933442E+01 -0.33417491947E+02 -0.23132345385E+02  0.40659148212E+02  0.00000000000E+00 0. -1.
         11    1    3    3    0    0 -0.71551604995E+01  0.90201411410E+01  0.30584282912E+00  0.11517500079E+02  0.51100000000E-03 0. -1.
        -11    1    3    3    0    0  0.63900543615E+00  0.46122923692E+00 -0.29233112229E+01  0.30276738800E+01  0.51100000000E-03 0.  1.
        -12    1    3    3    0    0  0.76703484076E+01  0.23936121569E+02  0.25749813779E+02  0.35983677829E+02  0.00000000000E+00 0.  1.
</event>
<event>
 7    1  0.3331850E-011  0.5052887E+02  0.7816164E-02  0.1300439E+00
        -11   -1    0    0    0    0  0.00000000000E+00  0.00000000000E+00  0.45593999997E+02  0.45594000000E+02  0.51100000000E-03 0.  1.
         11   -1    0    0    0    0 -0.00000000000E+00 -0.00000000000E+00 -0.45593999997E+02  0.45594000000E+02  0.51100000000E-03 0. -1.
    9900012    2    1    2    0    0  0.30202449942E+02  0.22364136731E+02  0.15518454312E+02  0.50528867958E+02  0.30000024644E+02 0.  0.
         12    1    1    2    0    0 -0.30202449942E+02 -0.22364136731E+02 -0.15518454312E+02  0.40659132042E+02  0.00000000000E+00 0. -1.
         11    1    3    3    0    0  0.17831724467E+01  0.74930187436E+01  0.14245450040E+02  0.16194378067E+02  0.51100000000E-03 0. -1.
        -11    1    3    3    0    0  0.91820380966E+01  0.54507871048E+01  0.62105819326E+01  0.12352822830E+02  0.51100000000E-03 0.  1.
        -12    1    3    3    0    0  0.19237239398E+02  0.94203308824E+01 -0.49375776605E+01  0.21981667061E+02  0.00000000000E+00 0.  1.
</event>
<event>
 7    1  0.3331850E-011  0.5052885E+02  0.7816164E-02  0.1300439E+00
        -11   -1    0    0    0    0  0.00000000000E+00  0.00000000000E+00  0.45593999997E+02  0.45594000000E+02  0.51100000000E-03 0.  1.
         11   -1    0    0    0    0 -0.00000000000E+00 -0.00000000000E+00 -0.45593999997E+02  0.45594000000E+02  0.51100000000E-03 0. -1.
    9900012    2    1    2    0    0 -0.36314096688E+01  0.18850053937E+02  0.35842086538E+02  0.50528845594E+02  0.29999956669E+02 0.  0.
         12    1    1    2    0    0  0.36314096688E+01 -0.18850053937E+02 -0.35842086538E+02  0.40659154406E+02  0.00000000000E+00 0. -1.
         11    1    3    3    0    0  0.51212293187E+00  0.74580502502E+01 -0.65248870352E+00  0.75040339285E+01  0.51100000000E-03 0. -1.
        -11    1    3    3    0    0 -0.73729081087E+01  0.15660826019E+02  0.25850279062E+02  0.31110419049E+02  0.51100000000E-03 0.  1.
         12    1    3    3    0    0  0.32293755081E+01 -0.42688223323E+01  0.10644296179E+02  0.11914392617E+02  0.00000000000E+00 0. -1.
</event>
<event>
 7    1  0.3331850E-011  0.5052886E+02  0.7816164E-02  0.1300439E+00
        -11   -1    0    0    0    0  0.00000000000E+00  0.00000000000E+00  0.45593999997E+02  0.45594000000E+02  0.51100000000E-03 0. -1.
         11   -1    0    0    0    0 -0.00000000000E+00 -0.00000000000E+00 -0.45593999997E+02  0.45594000000E+02  0.51100000000E-03 0.  1.
    9900012    2    1    2    0    0  0.11380956515E+02  0.36949576620E+02 -0.12584453963E+02  0.50528857545E+02  0.29999992993E+02 0.  0.
         12    1    1    2    0    0 -0.11380956515E+02 -0.36949576620E+02  0.12584453963E+02  0.40659142455E+02  0.00000000000E+00 0. -1.
         11    1    3    3    0    0 -0.57594963986E+01  0.17632266699E+02 -0.93524960340E+01  0.20773488153E+02  0.51100000000E-03 0. -1.
        -11    1    3    3    0    0 -0.17913402249E+01  0.64034150066E+01 -0.10992307861E+01  0.67395053328E+01  0.51100000000E-03 0.  1.
        -12    1    3    3    0    0  0.18931793139E+02  0.12913894914E+02 -0.21327271433E+01  0.23015864059E+02  0.00000000000E+00 0.  1.
</event>
<event>
 7    1  0.3331850E-011  0.5052887E+02  0.7816164E-02  0.1300439E+00
        -11   -1    0    0    0    0  0.00000000000E+00  0.00000000000E+00  0.45593999997E+02  0.45594000000E+02  0.51100000000E-03 0.  1.
         11   -1    0    0    0    0 -0.00000000000E+00 -0.00000000000E+00 -0.45593999997E+02  0.45594000000E+02  0.51100000000E-03 0. -1.
    9900012    2    1    2    0    0 -0.17648495777E+02  0.26016975952E+00  0.36628235212E+02  0.50528871797E+02  0.30000036314E+02 0.  0.
         12    1    1    2    0    0  0.17648495777E+02 -0.26016975952E+00 -0.36628235212E+02  0.40659128203E+02  0.00000000000E+00 0. -1.
         11    1    3    3    0    0 -0.77799073355E+01  0.60699645911E+01  0.19312880471E+01  0.10054914324E+02  0.51100000000E-03 0. -1.
        -11    1    3    3    0    0  0.18711778136E+01  0.39309452046E+01  0.29698156629E+01  0.52700514177E+01  0.51100000000E-03 0.  1.
        -12    1    3    3    0    0 -0.11739766255E+02 -0.97407400362E+01  0.31727131502E+02  0.35203906055E+02  0.00000000000E+00 0.  1.
</event>
<event>
 7    1  0.3331850E-011  0.5052887E+02  0.7816164E-02  0.1300439E+00
        -11   -1    0    0    0    0  0.00000000000E+00  0.00000000000E+00  0.45593999997E+02  0.45594000000E+02  0.51100000000E-03 0.  1.
         11   -1    0    0    0    0 -0.00000000000E+00 -0.00000000000E+00 -0.45593999997E+02  0.45594000000E+02  0.51100000000E-03 0. -1.
    9900012    2    1    2    0    0  0.29348161038E+02 -0.11736104230E+02  0.25575661392E+02  0.50528866285E+02  0.30000019561E+02 0.  0.
         12    1    1    2    0    0 -0.29348161038E+02  0.11736104230E+02 -0.25575661392E+02  0.40659133715E+02  0.00000000000E+00 0. -1.
         11    1    3    3    0    0  0.44210859561E+01 -0.55441193590E+01 -0.58888672127E+01  0.92174843535E+01  0.51100000000E-03 0. -1.
        -11    1    3    3    0    0  0.12837308833E+02 -0.62309042173E+01  0.13403283264E+02  0.19577248733E+02  0.51100000000E-03 0.  1.
        -12    1    3    3    0    0  0.12089766249E+02  0.38919346678E-01  0.18061245340E+02  0.21734133199E+02  0.00000000000E+00 0.  1.
</event>
<event>
 7    1  0.3331850E-011  0.5052886E+02  0.7816164E-02  0.1300439E+00
        -11   -1    0    0    0    0  0.00000000000E+00  0.00000000000E+00  0.45593999997E+02  0.45594000000E+02  0.51100000000E-03 0.  1.
         11   -1    0    0    0    0 -0.00000000000E+00 -0.00000000000E+00 -0.45593999997E+02  0.45594000000E+02  0.51100000000E-03 0. -1.
    9900012    2    1    2    0    0  0.10915354080E+02  0.35820983631E+02  0.15839123069E+02  0.50528860283E+02  0.30000001315E+02 0.  0.
         12    1    1    2    0    0 -0.10915354080E+02 -0.35820983631E+02 -0.15839123069E+02  0.40659139717E+02  0.00000000000E+00 0. -1.
         11    1    3    3    0    0  0.11762184591E+02  0.75835156897E+01  0.11222776636E+01  0.14039879059E+02  0.51100000000E-03 0. -1.
        -11    1    3    3    0    0  0.21360032655E+01 -0.17452626135E+01 -0.38565062107E+00  0.27851711263E+01  0.51100000000E-03 0.  1.
        -12    1    3    3    0    0 -0.29828337772E+01  0.29982730555E+02  0.15102496026E+02  0.33703810097E+02  0.00000000000E+00 0.  1.
</event>
<event>
 7    1  0.3331850E-011  0.5052886E+02  0.7816164E-02  0.1300439E+00
        -11   -1    0    0    0    0  0.00000000000E+00  0.00000000000E+00  0.45593999997E+02  0.45594000000E+02  0.51100000000E-03 0. -1.
         11   -1    0    0    0    0 -0.00000000000E+00 -0.00000000000E+00 -0.45593999997E+02  0.45594000000E+02  0.51100000000E-03 0.  1.
    9900012    2    1    2    0    0  0.23551852168E+02  0.32631359881E+02 -0.58026313826E+01  0.50528856881E+02  0.29999990975E+02 0.  0.
         12    1    1    2    0    0 -0.23551852168E+02 -0.32631359881E+02  0.58026313826E+01  0.40659143119E+02  0.00000000000E+00 0. -1.
         11    1    3    3    0    0  0.11643193236E+02  0.18014922814E+02  0.64833437766E+01  0.22408372086E+02  0.51100000000E-03 0. -1.
        -11    1    3    3    0    0  0.63737037964E+01  0.16347841123E+01  0.30732013025E+01  0.72623126954E+01  0.51100000000E-03 0.  1.
        -12    1    3    3    0    0  0.55349551356E+01  0.12981652954E+02 -0.15359176462E+02  0.20858172100E+02  0.00000000000E+00 0.  1.
</event>
<event>
 7    1  0.3331850E-011  0.5052887E+02  0.7816164E-02  0.1300439E+00
        -11   -1    0    0    0    0  0.00000000000E+00  0.00000000000E+00  0.45593999997E+02  0.45594000000E+02  0.51100000000E-03 0. -1.
         11   -1    0    0    0    0 -0.00000000000E+00 -0.00000000000E+00 -0.45593999997E+02  0.45594000000E+02  0.51100000000E-03 0.  1.
    9900012    2    1    2    0    0  0.34275853830E+02 -0.21729403333E+02 -0.24826126504E+01  0.50528874450E+02  0.30000044377E+02 0.  0.
         12    1    1    2    0    0 -0.34275853830E+02  0.21729403333E+02  0.24826126504E+01  0.40659125550E+02  0.00000000000E+00 0. -1.
         11    1    3    3    0    0  0.55488358435E+01 -0.21500205558E+01  0.10198641857E+02  0.11807813667E+02  0.51100000000E-03 0. -1.
        -11    1    3    3    0    0  0.26307143190E+01 -0.23101477827E+01 -0.56518821277E+01  0.66483992398E+01  0.51100000000E-03 0.  1.
        -12    1    3    3    0    0  0.26096303667E+02 -0.17269234994E+02 -0.70293723797E+01  0.32072661543E+02  0.00000000000E+00 0.  1.
</event>
<event>
 7    1  0.3331850E-011  0.5052886E+02  0.7816164E-02  0.1300439E+00
        -11   -1    0    0    0    0  0.00000000000E+00  0.00000000000E+00  0.45593999997E+02  0.45594000000E+02  0.51100000000E-03 0.  1.
         11   -1    0    0    0    0 -0.00000000000E+00 -0.00000000000E+00 -0.45593999997E+02  0.45594000000E+02  0.51100000000E-03 0. -1.
    9900012    2    1    2    0    0 -0.17904759736E+02 -0.36190968394E+02  0.47748518594E+01  0.50528858042E+02  0.29999994503E+02 0.  0.
         12    1    1    2    0    0  0.17904759736E+02  0.36190968394E+02 -0.47748518594E+01  0.40659141958E+02  0.00000000000E+00 0. -1.
         11    1    3    3    0    0 -0.78963358054E+01 -0.16160518085E+02  0.71216809028E+01  0.19345097649E+02  0.51100000000E-03 0. -1.
        -11    1    3    3    0    0 -0.43364806091E+01 -0.93968759616E+01  0.96706051864E+01  0.14164284198E+02  0.51100000000E-03 0.  1.
         12    1    3    3    0    0 -0.56719433212E+01 -0.10633574348E+02 -0.12017434230E+02  0.17019476194E+02  0.00000000000E+00 0. -1.
</event>
<event>
 7    1  0.3331850E-011  0.5052886E+02  0.7816164E-02  0.1300439E+00
        -11   -1    0    0    0    0  0.00000000000E+00  0.00000000000E+00  0.45593999997E+02  0.45594000000E+02  0.51100000000E-03 0.  1.
         11   -1    0    0    0    0 -0.00000000000E+00 -0.00000000000E+00 -0.45593999997E+02  0.45594000000E+02  0.51100000000E-03 0. -1.
    9900012    2    1    2    0    0  0.26585510051E+02  0.21617986192E+02  0.21886961611E+02  0.50528858836E+02  0.29999996918E+02 0.  0.
         12    1    1    2    0    0 -0.26585510051E+02 -0.21617986192E+02 -0.21886961611E+02  0.40659141164E+02  0.00000000000E+00 0. -1.
         11    1    3    3    0    0  0.14456569370E+02  0.90663593547E+01  0.11834030760E+02  0.20766211840E+02  0.51100000000E-03 0. -1.
        -11    1    3    3    0    0  0.11280292652E+02  0.14443168985E+02  0.15457131266E+02  0.23974424704E+02  0.51100000000E-03 0.  1.
         12    1    3    3    0    0  0.84864802847E+00 -0.18915421475E+01 -0.54042004155E+01  0.57882222921E+01  0.00000000000E+00 0. -1.
</event>
<event>
 7    1  0.3331850E-011  0.5052887E+02  0.7816164E-02  0.1300439E+00
        -11   -1    0    0    0    0  0.00000000000E+00  0.00000000000E+00  0.45593999997E+02  0.45594000000E+02  0.51100000000E-03 0.  1.
         11   -1    0    0    0    0 -0.00000000000E+00 -0.00000000000E+00 -0.45593999997E+02  0.45594000000E+02  0.51100000000E-03 0. -1.
    9900012    2    1    2    0    0  0.37972336857E+02 -0.13162655007E+02  0.61653128417E+01  0.50528868976E+02  0.30000027740E+02 0.  0.
         12    1    1    2    0    0 -0.37972336857E+02  0.13162655007E+02 -0.61653128417E+01  0.40659131024E+02  0.00000000000E+00 0. -1.
         11    1    3    3    0    0 -0.83095749323E+00 -0.81702065587E+00  0.70713887984E+01  0.71667672564E+01  0.51100000000E-03 0. -1.
        -11    1    3    3    0    0  0.81030766726E+01 -0.65339257264E+01  0.50250457353E+01  0.11558681666E+02  0.51100000000E-03 0.  1.
         12    1    3    3    0    0  0.30700217677E+02 -0.58117086247E+01 -0.59311216920E+01  0.31803420053E+02  0.00000000000E+00 0. -1.
</event>
<event>
 7    1  0.3331850E-011  0.5052885E+02  0.7816164E-02  0.1300439E+00
        -11   -1    0    0    0    0  0.00000000000E+00  0.00000000000E+00  0.45593999997E+02  0.45594000000E+02  0.51100000000E-03 0. -1.
         11   -1    0    0    0    0 -0.00000000000E+00 -0.00000000000E+00 -0.45593999997E+02  0.45594000000E+02  0.51100000000E-03 0.  1.
    9900012    2    1    2    0    0  0.31838183841E+02  0.10757996241E+02 -0.22885841356E+02  0.50528853821E+02  0.29999981676E+02 0.  0.
         12    1    1    2    0    0 -0.31838183841E+02 -0.10757996241E+02  0.22885841356E+02  0.40659146179E+02  0.00000000000E+00 0. -1.
         11    1    3    3    0    0  0.59779452165E+00  0.16940006153E+01 -0.15209496160E+02  0.15315213681E+02  0.51100000000E-03 0. -1.
        -11    1    3    3    0    0  0.13278536906E+02  0.28348899737E+01 -0.87817893391E+01  0.16170218545E+02  0.51100000000E-03 0.  1.
        -12    1    3    3    0    0  0.17961852413E+02  0.62291056515E+01  0.11054441432E+01  0.19043421596E+02  0.00000000000E+00 0.  1.
</event>
<event>
 7    1  0.3331850E-011  0.5052887E+02  0.7816164E-02  0.1300439E+00
        -11   -1    0    0    0    0  0.00000000000E+00  0.00000000000E+00  0.45593999997E+02  0.45594000000E+02  0.51100000000E-03 0. -1.
         11   -1    0    0    0    0 -0.00000000000E+00 -0.00000000000E+00 -0.45593999997E+02  0.45594000000E+02  0.51100000000E-03 0.  1.
    9900012    2    1    2    0    0  0.87986016205E+01  0.30648164223E+02 -0.25227758260E+02  0.50528866370E+02  0.30000019818E+02 0.  0.
         12    1    1    2    0    0 -0.87986016205E+01 -0.30648164223E+02  0.25227758260E+02  0.40659133630E+02  0.00000000000E+00 0. -1.
         11    1    3    3    0    0  0.18550443594E+02  0.17446390065E+02 -0.11847411651E+02  0.28086591943E+02  0.51100000000E-03 0. -1.
        -11    1    3    3    0    0  0.79142547148E+00  0.95529773902E+00 -0.29723813664E+01  0.32208693384E+01  0.51100000000E-03 0.  1.
        -12    1    3    3    0    0 -0.10543267445E+02  0.12246476419E+02 -0.10407965243E+02  0.19221405089E+02  0.00000000000E+00 0.  1.
</event>
<event>
 7    1  0.3331850E-011  0.5052886E+02  0.7816164E-02  0.1300439E+00
        -11   -1    0    0    0    0  0.00000000000E+00  0.00000000000E+00  0.45593999997E+02  0.45594000000E+02  0.51100000000E-03 0.  1.
         11   -1    0    0    0    0 -0.00000000000E+00 -0.00000000000E+00 -0.45593999997E+02  0.45594000000E+02  0.51100000000E-03 0. -1.
    9900012    2    1    2    0    0 -0.16232083737E+02  0.27525769719E+02  0.25139954809E+02  0.50528857500E+02  0.29999992856E+02 0.  0.
         12    1    1    2    0    0  0.16232083737E+02 -0.27525769719E+02 -0.25139954809E+02  0.40659142500E+02  0.00000000000E+00 0. -1.
         11    1    3    3    0    0  0.26301533868E+01  0.59922608733E+01  0.83024744387E+01  0.10571470062E+02  0.51100000000E-03 0. -1.
        -11    1    3    3    0    0 -0.15049844251E+02  0.34575977830E+01  0.14770256702E+02  0.21368511359E+02  0.51100000000E-03 0.  1.
         12    1    3    3    0    0 -0.38123928723E+01  0.18075911063E+02  0.20672236685E+01  0.18588876078E+02  0.00000000000E+00 0. -1.
</event>
<event>
 7    1  0.3331850E-011  0.5052885E+02  0.7816164E-02  0.1300439E+00
        -11   -1    0    0    0    0  0.00000000000E+00  0.00000000000E+00  0.45593999997E+02  0.45594000000E+02  0.51100000000E-03 0. -1.
         11   -1    0    0    0    0 -0.00000000000E+00 -0.00000000000E+00 -0.45593999997E+02  0.45594000000E+02  0.51100000000E-03 0.  1.
    9900012    2    1    2    0    0 -0.11289677454E+02  0.31451460038E+02 -0.23162795491E+02  0.50528852806E+02  0.29999978590E+02 0.  0.
         12    1    1    2    0    0  0.11289677454E+02 -0.31451460038E+02  0.23162795491E+02  0.40659147194E+02  0.00000000000E+00 0. -1.
         11    1    3    3    0    0 -0.38418001389E+01  0.22537139933E+01 -0.50748381271E+01  0.67522320271E+01  0.51100000000E-03 0. -1.
        -11    1    3    3    0    0 -0.16134475126E+02  0.16154071545E+02 -0.16193329747E+02  0.27991056494E+02  0.51100000000E-03 0.  1.
        -12    1    3    3    0    0  0.86865978113E+01  0.13043674500E+02 -0.18946276166E+01  0.15785564285E+02  0.00000000000E+00 0.  1.
</event>
<event>
 7    1  0.3331850E-011  0.5052887E+02  0.7816164E-02  0.1300439E+00
        -11   -1    0    0    0    0  0.00000000000E+00  0.00000000000E+00  0.45593999997E+02  0.45594000000E+02  0.51100000000E-03 0. -1.
         11   -1    0    0    0    0 -0.00000000000E+00 -0.00000000000E+00 -0.45593999997E+02  0.45594000000E+02  0.51100000000E-03 0.  1.
    9900012    2    1    2    0    0  0.33021566296E+02 -0.23540432518E+02  0.29306911632E+01  0.50528871203E+02  0.30000034509E+02 0.  0.
         12    1    1    2    0    0 -0.33021566296E+02  0.23540432518E+02 -0.29306911632E+01  0.40659128797E+02  0.00000000000E+00 0. -1.
         11    1    3    3    0    0  0.45078173712E+01  0.29840214033E+01 -0.11336537804E+01  0.55235832883E+01  0.51100000000E-03 0. -1.
        -11    1    3    3    0    0  0.44232815637E+01  0.38471248152E+01 -0.87117993317E+00  0.59266131873E+01  0.51100000000E-03 0.  1.
        -12    1    3    3    0    0  0.24090467362E+02 -0.30371578737E+02  0.49355248768E+01  0.39078674728E+02  0.00000000000E+00 0.  1.
</event>
<event>
 7    1  0.3331850E-011  0.5052886E+02  0.7816164E-02  0.1300439E+00
        -11   -1    0    0    0    0  0.00000000000E+00  0.00000000000E+00  0.45593999997E+02  0.45594000000E+02  0.51100000000E-03 0.  1.
         11   -1    0    0    0    0 -0.00000000000E+00 -0.00000000000E+00 -0.45593999997E+02  0.45594000000E+02  0.51100000000E-03 0. -1.
    9900012    2    1    2    0    0  0.85040420007E+01 -0.10540222740E+01  0.39745891605E+02  0.50528860894E+02  0.30000003175E+02 0.  0.
         12    1    1    2    0    0 -0.85040420007E+01  0.10540222740E+01 -0.39745891605E+02  0.40659139106E+02  0.00000000000E+00 0. -1.
         11    1    3    3    0    0  0.56409272756E+00 -0.51856396411E+01 -0.15828970238E+01  0.54511120280E+01  0.51100000000E-03 0. -1.
        -11    1    3    3    0    0  0.31136625789E-01 -0.36868464012E+01  0.25309177040E+02  0.25576322030E+02  0.51100000000E-03 0.  1.
        -12    1    3    3    0    0  0.79088126474E+01  0.78184637683E+01  0.16019611589E+02  0.19501426836E+02  0.00000000000E+00 0.  1.
</event>
<event>
 7    1  0.3331850E-011  0.5052886E+02  0.7816164E-02  0.1300439E+00
        -11   -1    0    0    0    0  0.00000000000E+00  0.00000000000E+00  0.45593999997E+02  0.45594000000E+02  0.51100000000E-03 0. -1.
         11   -1    0    0    0    0 -0.00000000000E+00 -0.00000000000E+00 -0.45593999997E+02  0.45594000000E+02  0.51100000000E-03 0.  1.
    9900012    2    1    2    0    0 -0.31254330637E+02 -0.12172958370E+02  0.22981545456E+02  0.50528861659E+02  0.30000005499E+02 0.  0.
         12    1    1    2    0    0  0.31254330637E+02  0.12172958370E+02 -0.22981545456E+02  0.40659138341E+02  0.00000000000E+00 0. -1.
         11    1    3    3    0    0 -0.83800899877E+01  0.12422314661E+01  0.13094606879E+02  0.15596082097E+02  0.51100000000E-03 0. -1.
        -11    1    3    3    0    0  0.29589880602E+01  0.11376786901E+01 -0.10349865793E+01  0.33348344221E+01  0.51100000000E-03 0.  1.
        -12    1    3    3    0    0 -0.25833228710E+02 -0.14552868527E+02  0.10921925157E+02  0.31597945140E+02  0.00000000000E+00 0.  1.
</event>
<event>
 7    1  0.3331850E-011  0.5052886E+02  0.7816164E-02  0.1300439E+00
        -11   -1    0    0    0    0  0.00000000000E+00  0.00000000000E+00  0.45593999997E+02  0.45594000000E+02  0.51100000000E-03 0.  1.
         11   -1    0    0    0    0 -0.00000000000E+00 -0.00000000000E+00 -0.45593999997E+02  0.45594000000E+02  0.51100000000E-03 0. -1.
    9900012    2    1    2    0    0 -0.27116028309E+02  0.16384954103E+02  0.25483716737E+02  0.50528861655E+02  0.30000005487E+02 0.  0.
         12    1    1    2    0    0  0.27116028309E+02 -0.16384954103E+02 -0.25483716737E+02  0.40659138345E+02  0.00000000000E+00 0. -1.
         11    1    3    3    0    0 -0.13031553975E+02  0.18256908052E+02  0.15233200877E+02  0.27114322781E+02  0.51100000000E-03 0. -1.
        -11    1    3    3    0    0 -0.85878850183E+01  0.60652570767E+01  0.86782595936E+01  0.13632729086E+02  0.51100000000E-03 0.  1.
         12    1    3    3    0    0 -0.54965893153E+01 -0.79372110257E+01  0.15722562658E+01  0.97818097883E+01  0.00000000000E+00 0. -1.
</event>
<event>
 7    1  0.3331850E-011  0.5052886E+02  0.7816164E-02  0.1300439E+00
        -11   -1    0    0    0    0  0.00000000000E+00  0.00000000000E+00  0.45593999997E+02  0.45594000000E+02  0.51100000000E-03 0. -1.
         11   -1    0    0    0    0 -0.00000000000E+00 -0.00000000000E+00 -0.45593999997E+02  0.45594000000E+02  0.51100000000E-03 0.  1.
    9900012    2    1    2    0    0  0.38005628863E+02 -0.36718436346E+01 -0.13973388919E+02  0.50528857623E+02  0.29999993232E+02 0.  0.
         12    1    1    2    0    0 -0.38005628863E+02  0.36718436346E+01  0.13973388919E+02  0.40659142377E+02  0.00000000000E+00 0. -1.
         11    1    3    3    0    0  0.54121841162E+01 -0.29455919234E+01 -0.71100041899E+01  0.94085284997E+01  0.51100000000E-03 0. -1.
        -11    1    3    3    0    0  0.25593263932E+02 -0.61042848730E+01 -0.13967938275E+02  0.29788936745E+02  0.51100000000E-03 0.  1.
         12    1    3    3    0    0  0.70001808149E+01  0.53780331618E+01  0.71045535467E+01  0.11331392378E+02  0.00000000000E+00 0. -1.
</event>
<event>
 7    1  0.3331850E-011  0.5052887E+02  0.7816164E-02  0.1300439E+00
        -11   -1    0    0    0    0  0.00000000000E+00  0.00000000000E+00  0.45593999997E+02  0.45594000000E+02  0.51100000000E-03 0. -1.
         11   -1    0    0    0    0 -0.00000000000E+00 -0.00000000000E+00 -0.45593999997E+02  0.45594000000E+02  0.51100000000E-03 0.  1.
    9900012    2    1    2    0    0 -0.31124103129E+02  0.15405882649E+01 -0.26116691483E+02  0.50528870867E+02  0.30000033488E+02 0.  0.
         12    1    1    2    0    0  0.31124103129E+02 -0.15405882649E+01  0.26116691483E+02  0.40659129133E+02  0.00000000000E+00 0. -1.
         11    1    3    3    0    0 -0.14167412826E+01 -0.42701170512E+01  0.37586906052E+01  0.58624918610E+01  0.51100000000E-03 0. -1.
        -11    1    3    3    0    0 -0.77947174724E+01  0.79547054907E+01 -0.88901500781E+01  0.14250253632E+02  0.51100000000E-03 0.  1.
        -12    1    3    3    0    0 -0.21912644374E+02 -0.21440001746E+01 -0.20985232010E+02  0.30416125374E+02  0.00000000000E+00 0.  1.
</event>
<event>
 7    1  0.3331850E-011  0.5052879E+02  0.7816164E-02  0.1300439E+00
        -11   -1    0    0    0    0  0.00000000000E+00  0.00000000000E+00  0.45593999997E+02  0.45594000000E+02  0.51100000000E-03 0. -1.
         11   -1    0    0    0    0 -0.00000000000E+00 -0.00000000000E+00 -0.45593999997E+02  0.45594000000E+02  0.51100000000E-03 0.  1.
    9900012    2    1    2    0    0 -0.62588786693E+01 -0.25297144016E+02 -0.31209809128E+02  0.50528791407E+02  0.29999791960E+02 0.  0.
         12    1    1    2    0    0  0.62588786693E+01  0.25297144016E+02  0.31209809128E+02  0.40659208593E+02  0.00000000000E+00 0. -1.
         11    1    3    3    0    0  0.59101254335E+00  0.19869903898E+01 -0.39371691433E+01  0.44495761326E+01  0.51100000000E-03 0.  1.
        -11    1    3    3    0    0  0.11744415243E+01  0.43123666873E+01 -0.23883295417E+01  0.50675376270E+01  0.51100000000E-03 0. -1.
        -12    1    3    3    0    0 -0.80243327370E+01 -0.31596501093E+02 -0.24884310443E+02  0.41011677647E+02  0.00000000000E+00 0.  1.
</event>
<event>
 7    1  0.3331850E-011  0.5052888E+02  0.7816164E-02  0.1300439E+00
        -11   -1    0    0    0    0  0.00000000000E+00  0.00000000000E+00  0.45593999997E+02  0.45594000000E+02  0.51100000000E-03 0. -1.
         11   -1    0    0    0    0 -0.00000000000E+00 -0.00000000000E+00 -0.45593999997E+02  0.45594000000E+02  0.51100000000E-03 0.  1.
    9900012    2    1    2    0    0  0.20519451754E+02  0.34549431747E+02  0.62010392951E+01  0.50528880203E+02  0.30000061865E+02 0.  0.
         12    1    1    2    0    0 -0.20519451754E+02 -0.34549431747E+02 -0.62010392951E+01  0.40659119797E+02  0.00000000000E+00 0. -1.
         11    1    3    3    0    0  0.56668869181E+01  0.37821607184E+01  0.80254786386E+01  0.10527423934E+02  0.51100000000E-03 0. -1.
        -11    1    3    3    0    0 -0.52420086369E+01  0.66396585202E+01 -0.15518426097E+01  0.86006939000E+01  0.51100000000E-03 0.  1.
        -12    1    3    3    0    0  0.20094573473E+02  0.24127612508E+02 -0.27259673380E+00  0.31400762369E+02  0.00000000000E+00 0.  1.
</event>
<event>
 7    1  0.3331850E-011  0.5052885E+02  0.7816164E-02  0.1300439E+00
        -11   -1    0    0    0    0  0.00000000000E+00  0.00000000000E+00  0.45593999997E+02  0.45594000000E+02  0.51100000000E-03 0. -1.
         11   -1    0    0    0    0 -0.00000000000E+00 -0.00000000000E+00 -0.45593999997E+02  0.45594000000E+02  0.51100000000E-03 0.  1.
    9900012    2    1    2    0    0  0.79607924928E+01  0.20816283528E+02 -0.34006975826E+02  0.50528852421E+02  0.29999977420E+02 0.  0.
         12    1    1    2    0    0 -0.79607924928E+01 -0.20816283528E+02  0.34006975826E+02  0.40659147579E+02  0.00000000000E+00 0. -1.
         11    1    3    3    0    0  0.65064661906E+01  0.60449921434E+01 -0.13380213966E+02  0.16059456975E+02  0.51100000000E-03 0. -1.
        -11    1    3    3    0    0  0.82869849147E+01  0.43657199547E+00 -0.15842782041E+02  0.17884587140E+02  0.51100000000E-03 0.  1.
         12    1    3    3    0    0 -0.68326586125E+01  0.14334719389E+02 -0.47839798184E+01  0.16584808307E+02  0.00000000000E+00 0. -1.
</event>
<event>
 7    1  0.3331850E-011  0.5052891E+02  0.7816164E-02  0.1300439E+00
        -11   -1    0    0    0    0  0.00000000000E+00  0.00000000000E+00  0.45593999997E+02  0.45594000000E+02  0.51100000000E-03 0.  1.
         11   -1    0    0    0    0 -0.00000000000E+00 -0.00000000000E+00 -0.45593999997E+02  0.45594000000E+02  0.51100000000E-03 0. -1.
    9900012    2    1    2    0    0 -0.30813507045E+01  0.18831873941E+02  0.35903032733E+02  0.50528905596E+02  0.30000139049E+02 0.  0.
         12    1    1    2    0    0  0.30813507045E+01 -0.18831873941E+02 -0.35903032733E+02  0.40659094404E+02  0.00000000000E+00 0. -1.
         11    1    3    3    0    0  0.42863387134E+01  0.66356656183E+01  0.93572214631E+01  0.12245911625E+02  0.51100000000E-03 0.  1.
        -11    1    3    3    0    0  0.19666666845E+01  0.50763620417E+01  0.25964224274E+02  0.26528817762E+02  0.51100000000E-03 0. -1.
         12    1    3    3    0    0 -0.93343561023E+01  0.71198462813E+01  0.58158699643E+00  0.11754176209E+02  0.00000000000E+00 0. -1.
</event>
<event>
 7    1  0.3331850E-011  0.5052887E+02  0.7816164E-02  0.1300439E+00
        -11   -1    0    0    0    0  0.00000000000E+00  0.00000000000E+00  0.45593999997E+02  0.45594000000E+02  0.51100000000E-03 0. -1.
         11   -1    0    0    0    0 -0.00000000000E+00 -0.00000000000E+00 -0.45593999997E+02  0.45594000000E+02  0.51100000000E-03 0.  1.
    9900012    2    1    2    0    0  0.38881955866E+02 -0.43049693870E+01 -0.11082688172E+02  0.50528865350E+02  0.30000016717E+02 0.  0.
         12    1    1    2    0    0 -0.38881955866E+02  0.43049693870E+01  0.11082688172E+02  0.40659134650E+02  0.00000000000E+00 0. -1.
         11    1    3    3    0    0  0.67063798357E+01 -0.34128513930E+01  0.87161672104E+01  0.11514975303E+02  0.51100000000E-03 0. -1.
        -11    1    3    3    0    0  0.75572539971E+01  0.13452243970E+01 -0.57237172620E+00  0.76973583981E+01  0.51100000000E-03 0.  1.
        -12    1    3    3    0    0  0.24618322033E+02 -0.22373423910E+01 -0.19226483657E+02  0.31316531649E+02  0.00000000000E+00 0.  1.
</event>
<event>
 7    1  0.3331850E-011  0.5052884E+02  0.7816164E-02  0.1300439E+00
        -11   -1    0    0    0    0  0.00000000000E+00  0.00000000000E+00  0.45593999997E+02  0.45594000000E+02  0.51100000000E-03 0.  1.
         11   -1    0    0    0    0 -0.00000000000E+00 -0.00000000000E+00 -0.45593999997E+02  0.45594000000E+02  0.51100000000E-03 0. -1.
    9900012    2    1    2    0    0  0.25102561985E+02 -0.31612907035E+02  0.48634076169E+01  0.50528840601E+02  0.29999941491E+02 0.  0.
         12    1    1    2    0    0 -0.25102561985E+02  0.31612907035E+02 -0.48634076169E+01  0.40659159399E+02  0.00000000000E+00 0. -1.
         11    1    3    3    0    0  0.23671623359E+01 -0.61054039773E+01 -0.42708376321E+01  0.78178941916E+01  0.51100000000E-03 0. -1.
        -11    1    3    3    0    0  0.20523077371E+02 -0.23469529579E+02 -0.19380568165E+01  0.31237342844E+02  0.51100000000E-03 0.  1.
         12    1    3    3    0    0  0.22123222781E+01 -0.20379734780E+01  0.11072302066E+02  0.11473603566E+02  0.00000000000E+00 0. -1.
</event>
<event>
 7    1  0.3331850E-011  0.5052887E+02  0.7816164E-02  0.1300439E+00
        -11   -1    0    0    0    0  0.00000000000E+00  0.00000000000E+00  0.45593999997E+02  0.45594000000E+02  0.51100000000E-03 0.  1.
         11   -1    0    0    0    0 -0.00000000000E+00 -0.00000000000E+00 -0.45593999997E+02  0.45594000000E+02  0.51100000000E-03 0. -1.
    9900012    2    1    2    0    0  0.25723591481E+02 -0.25891708194E+02 -0.17918734636E+02  0.50528871101E+02  0.30000034199E+02 0.  0.
         12    1    1    2    0    0 -0.25723591481E+02  0.25891708194E+02  0.17918734636E+02  0.40659128899E+02  0.00000000000E+00 0. -1.
         11    1    3    3    0    0  0.31632603038E+01 -0.73005936111E+01 -0.10999478274E+02  0.13575470725E+02  0.51100000000E-03 0. -1.
        -11    1    3    3    0    0  0.17155608659E+02 -0.14255188552E+02 -0.14561508934E+02  0.26637620987E+02  0.51100000000E-03 0.  1.
        -12    1    3    3    0    0  0.54047225179E+01 -0.43359260301E+01  0.76422525729E+01  0.10315779390E+02  0.00000000000E+00 0.  1.
</event>
<event>
 7    1  0.3331850E-011  0.5052886E+02  0.7816164E-02  0.1300439E+00
        -11   -1    0    0    0    0  0.00000000000E+00  0.00000000000E+00  0.45593999997E+02  0.45594000000E+02  0.51100000000E-03 0. -1.
         11   -1    0    0    0    0 -0.00000000000E+00 -0.00000000000E+00 -0.45593999997E+02  0.45594000000E+02  0.51100000000E-03 0.  1.
    9900012    2    1    2    0    0 -0.28265505972E+02 -0.20583675145E+02 -0.20749440519E+02  0.50528858443E+02  0.29999995723E+02 0.  0.
         12    1    1    2    0    0  0.28265505972E+02  0.20583675145E+02  0.20749440519E+02  0.40659141557E+02  0.00000000000E+00 0. -1.
         11    1    3    3    0    0 -0.34802838648E+01 -0.16927704959E+01  0.23462503253E+01  0.45257859629E+01  0.51100000000E-03 0. -1.
        -11    1    3    3    0    0  0.31064256043E+01  0.25344580743E+01 -0.15566330167E+00  0.40121800919E+01  0.51100000000E-03 0.  1.
        -12    1    3    3    0    0 -0.27891647711E+02 -0.21425362724E+02 -0.22940027542E+02  0.41990892388E+02  0.00000000000E+00 0.  1.
</event>
<event>
 7    1  0.3331850E-011  0.5052886E+02  0.7816164E-02  0.1300439E+00
        -11   -1    0    0    0    0  0.00000000000E+00  0.00000000000E+00  0.45593999997E+02  0.45594000000E+02  0.51100000000E-03 0. -1.
         11   -1    0    0    0    0 -0.00000000000E+00 -0.00000000000E+00 -0.45593999997E+02  0.45594000000E+02  0.51100000000E-03 0.  1.
    9900012    2    1    2    0    0 -0.25381271660E+02  0.53346656483E+01 -0.31312910843E+02  0.50528855959E+02  0.29999988174E+02 0.  0.
         12    1    1    2    0    0  0.25381271660E+02 -0.53346656483E+01  0.31312910843E+02  0.40659144041E+02  0.00000000000E+00 0. -1.
         11    1    3    3    0    0 -0.91933803910E+01 -0.54615292377E+01  0.97892044596E-01  0.10693742457E+02  0.51100000000E-03 0. -1.
        -11    1    3    3    0    0 -0.41653667629E+01  0.11121854706E+01  0.54514984982E+00  0.43456214067E+01  0.51100000000E-03 0.  1.
        -12    1    3    3    0    0 -0.12022524506E+02  0.96840094153E+01 -0.31955952737E+02  0.35489492096E+02  0.00000000000E+00 0.  1.
</event>
<event>
 7    1  0.3331850E-011  0.5052886E+02  0.7816164E-02  0.1300439E+00
        -11   -1    0    0    0    0  0.00000000000E+00  0.00000000000E+00  0.45593999997E+02  0.45594000000E+02  0.51100000000E-03 0. -1.
         11   -1    0    0    0    0 -0.00000000000E+00 -0.00000000000E+00 -0.45593999997E+02  0.45594000000E+02  0.51100000000E-03 0.  1.
    9900012    2    1    2    0    0 -0.11376435640E+01  0.34366654799E+02  0.21698028502E+02  0.50528860365E+02  0.30000001566E+02 0.  0.
         12    1    1    2    0    0  0.11376435640E+01 -0.34366654799E+02 -0.21698028502E+02  0.40659139635E+02  0.00000000000E+00 0. -1.
         11    1    3    3    0    0  0.32668473981E+01  0.88127328078E+01  0.57616593654E+01  0.11024212914E+02  0.51100000000E-03 0. -1.
        -11    1    3    3    0    0  0.94972547521E+01  0.11552579934E+02  0.12469626637E+02  0.19471813980E+02  0.51100000000E-03 0.  1.
        -12    1    3    3    0    0 -0.13901745714E+02  0.14001342058E+02  0.34667424998E+01  0.20032833471E+02  0.00000000000E+00 0.  1.
</event>
<event>
 7    1  0.3331850E-011  0.5052886E+02  0.7816164E-02  0.1300439E+00
        -11   -1    0    0    0    0  0.00000000000E+00  0.00000000000E+00  0.45593999997E+02  0.45594000000E+02  0.51100000000E-03 0. -1.
         11   -1    0    0    0    0 -0.00000000000E+00 -0.00000000000E+00 -0.45593999997E+02  0.45594000000E+02  0.51100000000E-03 0.  1.
    9900012    2    1    2    0    0  0.19648779309E+02  0.22099384527E+02 -0.27905340251E+02  0.50528864011E+02  0.30000012648E+02 0.  0.
         12    1    1    2    0    0 -0.19648779309E+02 -0.22099384527E+02  0.27905340251E+02  0.40659135989E+02  0.00000000000E+00 0. -1.
         11    1    3    3    0    0  0.18426272811E+01  0.51069581286E+00 -0.13309384724E+01  0.23296959005E+01  0.51100000000E-03 0. -1.
        -11    1    3    3    0    0  0.15965283955E+02  0.44411414800E+01 -0.62595872202E-01  0.16571600644E+02  0.51100000000E-03 0.  1.
         12    1    3    3    0    0  0.18408680737E+01  0.17147547235E+02 -0.26511805907E+02  0.31627567467E+02  0.00000000000E+00 0. -1.
</event>
<event>
 7    1  0.3331850E-011  0.5052885E+02  0.7816164E-02  0.1300439E+00
        -11   -1    0    0    0    0  0.00000000000E+00  0.00000000000E+00  0.45593999997E+02  0.45594000000E+02  0.51100000000E-03 0. -1.
         11   -1    0    0    0    0 -0.00000000000E+00 -0.00000000000E+00 -0.45593999997E+02  0.45594000000E+02  0.51100000000E-03 0.  1.
    9900012    2    1    2    0    0 -0.22362634398E+02  0.11110439617E+02 -0.32087955998E+02  0.50528853355E+02  0.29999980259E+02 0.  0.
         12    1    1    2    0    0  0.22362634398E+02 -0.11110439617E+02  0.32087955998E+02  0.40659146645E+02  0.00000000000E+00 0. -1.
         11    1    3    3    0    0 -0.14709244163E+02  0.36878621860E+01 -0.18915504893E+02  0.24243731499E+02  0.51100000000E-03 0. -1.
        -11    1    3    3    0    0  0.45643278423E+01  0.33219088615E+01 -0.12101182356E+02  0.13353156249E+02  0.51100000000E-03 0.  1.
         12    1    3    3    0    0 -0.12217718077E+02  0.41006685697E+01 -0.10712687489E+01  0.12931965607E+02  0.00000000000E+00 0. -1.
</event>
<event>
 7    1  0.3331850E-011  0.5052887E+02  0.7816164E-02  0.1300439E+00
        -11   -1    0    0    0    0  0.00000000000E+00  0.00000000000E+00  0.45593999997E+02  0.45594000000E+02  0.51100000000E-03 0.  1.
         11   -1    0    0    0    0 -0.00000000000E+00 -0.00000000000E+00 -0.45593999997E+02  0.45594000000E+02  0.51100000000E-03 0. -1.
    9900012    2    1    2    0    0 -0.18716771966E+02 -0.18388737189E+02  0.31059651848E+02  0.50528865957E+02  0.30000018561E+02 0.  0.
         12    1    1    2    0    0  0.18716771966E+02  0.18388737189E+02 -0.31059651848E+02  0.40659134043E+02  0.00000000000E+00 0. -1.
         11    1    3    3    0    0  0.24920526655E+01 -0.22929209729E+01  0.11242102013E+02  0.11741067712E+02  0.51100000000E-03 0. -1.
        -11    1    3    3    0    0 -0.12237270461E+01  0.35395960025E+01  0.70835515037E+01  0.80126743295E+01  0.51100000000E-03 0.  1.
         12    1    3    3    0    0 -0.19985097586E+02 -0.19635412218E+02  0.12733998331E+02  0.30775123915E+02  0.00000000000E+00 0. -1.
</event>
<event>
 7    1  0.3331850E-011  0.5052886E+02  0.7816164E-02  0.1300439E+00
        -11   -1    0    0    0    0  0.00000000000E+00  0.00000000000E+00  0.45593999997E+02  0.45594000000E+02  0.51100000000E-03 0. -1.
         11   -1    0    0    0    0 -0.00000000000E+00 -0.00000000000E+00 -0.45593999997E+02  0.45594000000E+02  0.51100000000E-03 0.  1.
    9900012    2    1    2    0    0  0.97886091619E+01 -0.39395062375E+02 -0.23190020796E+01  0.50528861058E+02  0.30000003672E+02 0.  0.
         12    1    1    2    0    0 -0.97886091619E+01  0.39395062375E+02  0.23190020796E+01  0.40659138942E+02  0.00000000000E+00 0. -1.
         11    1    3    3    0    0 -0.73189638994E+00  0.32047872719E+01 -0.74016353018E+00  0.33695958358E+01  0.51100000000E-03 0. -1.
        -11    1    3    3    0    0  0.14273223190E+02 -0.22374401841E+02 -0.16167438213E+01  0.26588580609E+02  0.51100000000E-03 0.  1.
         12    1    3    3    0    0 -0.37527176382E+01 -0.20225447806E+02  0.37905271873E-01  0.20570684613E+02  0.00000000000E+00 0. -1.
</event>
<event>
 7    1  0.3331850E-011  0.5052886E+02  0.7816164E-02  0.1300439E+00
        -11   -1    0    0    0    0  0.00000000000E+00  0.00000000000E+00  0.45593999997E+02  0.45594000000E+02  0.51100000000E-03 0. -1.
         11   -1    0    0    0    0 -0.00000000000E+00 -0.00000000000E+00 -0.45593999997E+02  0.45594000000E+02  0.51100000000E-03 0.  1.
    9900012    2    1    2    0    0 -0.17184704775E+01 -0.40611357627E+02 -0.96446253832E+00  0.50528859612E+02  0.29999999277E+02 0.  0.
         12    1    1    2    0    0  0.17184704775E+01  0.40611357627E+02  0.96446253832E+00  0.40659140388E+02  0.00000000000E+00 0. -1.
         11    1    3    3    0    0  0.77247228103E+01 -0.29919701722E+02 -0.12405328074E+01  0.30925698304E+02  0.51100000000E-03 0. -1.
        -11    1    3    3    0    0  0.22448024171E+01 -0.61100271094E+01  0.22660770169E+01  0.68925085765E+01  0.51100000000E-03 0.  1.
         12    1    3    3    0    0 -0.11687995705E+02 -0.45816287953E+01 -0.19900067478E+01  0.12710652732E+02  0.00000000000E+00 0. -1.
</event>
<event>
 7    1  0.5251069E-011  0.5052886E+02  0.7816164E-02  0.1300439E+00
        -11   -1    0    0    0    0  0.00000000000E+00  0.00000000000E+00  0.45593999997E+02  0.45594000000E+02  0.51100000000E-03 0.  1.
         11   -1    0    0    0    0 -0.00000000000E+00 -0.00000000000E+00 -0.45593999997E+02  0.45594000000E+02  0.51100000000E-03 0. -1.
    9900012    2    1    2    0    0  0.43640852568E+01  0.38669538755E+02  0.11780811842E+02  0.50528855944E+02  0.29999988128E+02 0.  0.
         12    1    1    2    0    0 -0.43640852568E+01 -0.38669538755E+02 -0.11780811842E+02  0.40659144056E+02  0.00000000000E+00 0. -1.
         11    1    3    3    0    0  0.51825223962E+01  0.18671911594E+02  0.21802431566E+01  0.19500058498E+02  0.51100000000E-03 0. -1.
        -11    1    3    3    0    0  0.65863464951E+01  0.17400567609E+02  0.12769686489E+02  0.22566005552E+02  0.51100000000E-03 0.  1.
         12    1    3    3    0    0 -0.74047836345E+01  0.25970595521E+01 -0.31691178032E+01  0.84627918940E+01  0.00000000000E+00 0. -1.
</event>
<event>
 7    1  0.3331850E-011  0.5052887E+02  0.7816164E-02  0.1300439E+00
        -11   -1    0    0    0    0  0.00000000000E+00  0.00000000000E+00  0.45593999997E+02  0.45594000000E+02  0.51100000000E-03 0.  1.
         11   -1    0    0    0    0 -0.00000000000E+00 -0.00000000000E+00 -0.45593999997E+02  0.45594000000E+02  0.51100000000E-03 0. -1.
    9900012    2    1    2    0    0  0.21844573042E+02 -0.34291374091E+02 -0.28542081019E+00  0.50528866051E+02  0.30000018847E+02 0.  0.
         12    1    1    2    0    0 -0.21844573042E+02  0.34291374091E+02  0.28542081019E+00  0.40659133949E+02  0.00000000000E+00 0. -1.
         11    1    3    3    0    0 -0.56872011285E-01 -0.10131104685E+01  0.18928419742E+01  0.21476680953E+01  0.51100000000E-03 0. -1.
        -11    1    3    3    0    0  0.88015846851E+01 -0.62396138549E+01  0.11147734737E+02  0.15513628333E+02  0.51100000000E-03 0.  1.
         12    1    3    3    0    0  0.13099860368E+02 -0.27038649768E+02 -0.13325997521E+02  0.32867569622E+02  0.00000000000E+00 0. -1.
</event>
<event>
 7    1  0.3331850E-011  0.5052886E+02  0.7816164E-02  0.1300439E+00
        -11   -1    0    0    0    0  0.00000000000E+00  0.00000000000E+00  0.45593999997E+02  0.45594000000E+02  0.51100000000E-03 0.  1.
         11   -1    0    0    0    0 -0.00000000000E+00 -0.00000000000E+00 -0.45593999997E+02  0.45594000000E+02  0.51100000000E-03 0. -1.
    9900012    2    1    2    0    0  0.37936124977E+02  0.47454432405E+01  0.13838252290E+02  0.50528855441E+02  0.29999986599E+02 0.  0.
         12    1    1    2    0    0 -0.37936124977E+02 -0.47454432405E+01 -0.13838252290E+02  0.40659144559E+02  0.00000000000E+00 0. -1.
         11    1    3    3    0    0  0.38421695824E+01  0.50538588326E+01 -0.14342262282E+01  0.65085145260E+01  0.51100000000E-03 0. -1.
        -11    1    3    3    0    0  0.11410107351E+01 -0.22144057001E+01 -0.47860673452E+01  0.53955480719E+01  0.51100000000E-03 0.  1.
        -12    1    3    3    0    0  0.32952944660E+02  0.19059901080E+01  0.20058545863E+02  0.38624792843E+02  0.00000000000E+00 0.  1.
</event>
<event>
 7    1  0.3331850E-011  0.5052887E+02  0.7816164E-02  0.1300439E+00
        -11   -1    0    0    0    0  0.00000000000E+00  0.00000000000E+00  0.45593999997E+02  0.45594000000E+02  0.51100000000E-03 0.  1.
         11   -1    0    0    0    0 -0.00000000000E+00 -0.00000000000E+00 -0.45593999997E+02  0.45594000000E+02  0.51100000000E-03 0. -1.
    9900012    2    1    2    0    0 -0.25224117672E+02 -0.15690191807E+02  0.27761961860E+02  0.50528871165E+02  0.30000034393E+02 0.  0.
         12    1    1    2    0    0  0.25224117672E+02  0.15690191807E+02 -0.27761961860E+02  0.40659128835E+02  0.00000000000E+00 0. -1.
         11    1    3    3    0    0 -0.14363594542E+02 -0.48048978998E+01 -0.43654381402E+00  0.15152242830E+02  0.51100000000E-03 0. -1.
        -11    1    3    3    0    0 -0.81663650151E+01  0.36018445185E+00  0.53525416478E+01  0.97708214983E+01  0.51100000000E-03 0.  1.
         12    1    3    3    0    0 -0.26941581148E+01 -0.11245478359E+02  0.22845964027E+02  0.25605806837E+02  0.00000000000E+00 0. -1.
</event>
<event>
 7    1  0.4037996E-011  0.5052886E+02  0.7816164E-02  0.1300439E+00
        -11   -1    0    0    0    0  0.00000000000E+00  0.00000000000E+00  0.45593999997E+02  0.45594000000E+02  0.51100000000E-03 0. -1.
         11   -1    0    0    0    0 -0.00000000000E+00 -0.00000000000E+00 -0.45593999997E+02  0.45594000000E+02  0.51100000000E-03 0.  1.
    9900012    2    1    2    0    0  0.92373635352E+01  0.55415544759E+01 -0.39206222213E+02  0.50528861159E+02  0.30000003978E+02 0.  0.
         12    1    1    2    0    0 -0.92373635352E+01 -0.55415544759E+01  0.39206222213E+02  0.40659138841E+02  0.00000000000E+00 0. -1.
         11    1    3    3    0    0  0.32120699663E+01  0.85862119606E+01 -0.51956343987E+01  0.10537316849E+02  0.51100000000E-03 0. -1.
        -11    1    3    3    0    0  0.72192869415E+01 -0.17038319525E+01 -0.36318094216E+02  0.37067844758E+02  0.51100000000E-03 0.  1.
         12    1    3    3    0    0 -0.11939933726E+01 -0.13408255322E+01  0.23075064013E+01  0.29236995525E+01  0.00000000000E+00 0. -1.
</event>
<event>
 7    1  0.3331850E-011  0.5052886E+02  0.7816164E-02  0.1300439E+00
        -11   -1    0    0    0    0  0.00000000000E+00  0.00000000000E+00  0.45593999997E+02  0.45594000000E+02  0.51100000000E-03 0. -1.
         11   -1    0    0    0    0 -0.00000000000E+00 -0.00000000000E+00 -0.45593999997E+02  0.45594000000E+02  0.51100000000E-03 0.  1.
    9900012    2    1    2    0    0 -0.33085861671E+02 -0.23516764057E+02  0.23352839751E+01  0.50528856066E+02  0.29999988497E+02 0.  0.
         12    1    1    2    0    0  0.33085861671E+02  0.23516764057E+02 -0.23352839751E+01  0.40659143934E+02  0.00000000000E+00 0. -1.
         11    1    3    3    0    0 -0.38740820254E+01 -0.87164888151E+01  0.10190709723E+02  0.13958375755E+02  0.51100000000E-03 0. -1.
        -11    1    3    3    0    0 -0.94533402814E+01 -0.60861641945E+01  0.40025073557E+01  0.11934282654E+02  0.51100000000E-03 0.  1.
         12    1    3    3    0    0 -0.19758439364E+02 -0.87141110473E+01 -0.11857933104E+02  0.24636197656E+02  0.00000000000E+00 0. -1.
</event>
<event>
 7    1  0.3331850E-011  0.5052886E+02  0.7816164E-02  0.1300439E+00
        -11   -1    0    0    0    0  0.00000000000E+00  0.00000000000E+00  0.45593999997E+02  0.45594000000E+02  0.51100000000E-03 0. -1.
         11   -1    0    0    0    0 -0.00000000000E+00 -0.00000000000E+00 -0.45593999997E+02  0.45594000000E+02  0.51100000000E-03 0.  1.
    9900012    2    1    2    0    0 -0.37895362006E+02  0.80744439837E+01  0.12325197212E+02  0.50528860886E+02  0.30000003149E+02 0.  0.
         12    1    1    2    0    0  0.37895362006E+02 -0.80744439837E+01 -0.12325197212E+02  0.40659139114E+02  0.00000000000E+00 0. -1.
         11    1    3    3    0    0  0.80790449385E+00  0.19689314311E+00  0.55611556366E+01  0.56229822031E+01  0.51100000000E-03 0. -1.
        -11    1    3    3    0    0 -0.40408279636E+01  0.41138525605E+01  0.81831987986E+01  0.10010834948E+02  0.51100000000E-03 0.  1.
        -12    1    3    3    0    0 -0.34662438536E+02  0.37636982801E+01 -0.14191572235E+01  0.34895043735E+02  0.00000000000E+00 0.  1.
</event>
<event>
 7    1  0.3331850E-011  0.5052886E+02  0.7816164E-02  0.1300439E+00
        -11   -1    0    0    0    0  0.00000000000E+00  0.00000000000E+00  0.45593999997E+02  0.45594000000E+02  0.51100000000E-03 0.  1.
         11   -1    0    0    0    0 -0.00000000000E+00 -0.00000000000E+00 -0.45593999997E+02  0.45594000000E+02  0.51100000000E-03 0. -1.
    9900012    2    1    2    0    0 -0.38865864402E+02 -0.42151739535E+01  0.11173296095E+02  0.50528860156E+02  0.30000000931E+02 0.  0.
         12    1    1    2    0    0  0.38865864402E+02  0.42151739535E+01 -0.11173296095E+02  0.40659139844E+02  0.00000000000E+00 0. -1.
         11    1    3    3    0    0 -0.60450994506E+01  0.45121647835E+01 -0.48698397642E+01  0.89787637229E+01  0.51100000000E-03 0. -1.
        -11    1    3    3    0    0 -0.22704503884E+02  0.19467742910E+01  0.13888993645E+02  0.26686861402E+02  0.51100000000E-03 0.  1.
        -12    1    3    3    0    0 -0.10116261068E+02 -0.10674113028E+02  0.21541422138E+01  0.14863235032E+02  0.00000000000E+00 0.  1.
</event>
<event>
 7    1  0.3331850E-011  0.5052886E+02  0.7816164E-02  0.1300439E+00
        -11   -1    0    0    0    0  0.00000000000E+00  0.00000000000E+00  0.45593999997E+02  0.45594000000E+02  0.51100000000E-03 0.  1.
         11   -1    0    0    0    0 -0.00000000000E+00 -0.00000000000E+00 -0.45593999997E+02  0.45594000000E+02  0.51100000000E-03 0. -1.
    9900012    2    1    2    0    0 -0.28191067660E+02 -0.21768610188E+02  0.19610122819E+02  0.50528860778E+02  0.30000002820E+02 0.  0.
         12    1    1    2    0    0  0.28191067660E+02  0.21768610188E+02 -0.19610122819E+02  0.40659139222E+02  0.00000000000E+00 0. -1.
         11    1    3    3    0    0 -0.13025922365E+02 -0.17177854161E+02  0.73643921720E+01  0.22781299334E+02  0.51100000000E-03 0. -1.
        -11    1    3    3    0    0 -0.16378065270E+01 -0.85280785127E+01 -0.56913926182E+00  0.87025544008E+01  0.51100000000E-03 0.  1.
         12    1    3    3    0    0 -0.13527338767E+02  0.39373224848E+01  0.12814869909E+02  0.19045007043E+02  0.00000000000E+00 0. -1.
</event>
<event>
 7    1  0.3331850E-011  0.5052886E+02  0.7816164E-02  0.1300439E+00
        -11   -1    0    0    0    0  0.00000000000E+00  0.00000000000E+00  0.45593999997E+02  0.45594000000E+02  0.51100000000E-03 0.  1.
         11   -1    0    0    0    0 -0.00000000000E+00 -0.00000000000E+00 -0.45593999997E+02  0.45594000000E+02  0.51100000000E-03 0. -1.
    9900012    2    1    2    0    0 -0.28490923452E+02 -0.12232473102E+02  0.26302077221E+02  0.50528863468E+02  0.30000010998E+02 0.  0.
         12    1    1    2    0    0  0.28490923452E+02  0.12232473102E+02 -0.26302077221E+02  0.40659136532E+02  0.00000000000E+00 0. -1.
         11    1    3    3    0    0 -0.45464609242E+00 -0.16591922238E+01 -0.24628418286E+01  0.30041990678E+01  0.51100000000E-03 0. -1.
        -11    1    3    3    0    0 -0.94367755401E+00 -0.10631491373E+02  0.68975043360E+01  0.12708056597E+02  0.51100000000E-03 0.  1.
        -12    1    3    3    0    0 -0.27092599806E+02  0.58210494239E-01  0.21867414714E+02  0.34816607804E+02  0.00000000000E+00 0.  1.
</event>
<event>
 7    1  0.3331850E-011  0.5052887E+02  0.7816164E-02  0.1300439E+00
        -11   -1    0    0    0    0  0.00000000000E+00  0.00000000000E+00  0.45593999997E+02  0.45594000000E+02  0.51100000000E-03 0.  1.
         11   -1    0    0    0    0 -0.00000000000E+00 -0.00000000000E+00 -0.45593999997E+02  0.45594000000E+02  0.51100000000E-03 0. -1.
    9900012    2    1    2    0    0  0.86198928133E+01 -0.15038143522E+02  0.36779289850E+02  0.50528874646E+02  0.30000044974E+02 0.  0.
         12    1    1    2    0    0 -0.86198928133E+01  0.15038143522E+02 -0.36779289850E+02  0.40659125354E+02  0.00000000000E+00 0. -1.
         11    1    3    3    0    0  0.15577627489E+01 -0.32010303787E+00  0.78029304158E+01  0.79633418909E+01  0.51100000000E-03 0. -1.
        -11    1    3    3    0    0 -0.23527409831E+01 -0.13857766997E+02  0.29927212878E+02  0.33063743998E+02  0.51100000000E-03 0.  1.
         12    1    3    3    0    0  0.94148710475E+01 -0.86027348754E+00 -0.95085344396E+00  0.95017887572E+01  0.00000000000E+00 0. -1.
</event>
<event>
 7    1  0.3331850E-011  0.5052887E+02  0.7816164E-02  0.1300439E+00
        -11   -1    0    0    0    0  0.00000000000E+00  0.00000000000E+00  0.45593999997E+02  0.45594000000E+02  0.51100000000E-03 0.  1.
         11   -1    0    0    0    0 -0.00000000000E+00 -0.00000000000E+00 -0.45593999997E+02  0.45594000000E+02  0.51100000000E-03 0. -1.
    9900012    2    1    2    0    0 -0.39240948984E+02 -0.90229896266E+01 -0.56478512525E+01  0.50528872577E+02  0.30000038687E+02 0.  0.
         12    1    1    2    0    0  0.39240948984E+02  0.90229896266E+01  0.56478512525E+01  0.40659127423E+02  0.00000000000E+00 0. -1.
         11    1    3    3    0    0 -0.53451880754E+01 -0.48012079016E+01  0.17889289331E+01  0.74042487711E+01  0.51100000000E-03 0. -1.
        -11    1    3    3    0    0 -0.24324988995E+02 -0.10694357334E+02  0.39953829388E+01  0.26870754613E+02  0.51100000000E-03 0.  1.
        -12    1    3    3    0    0 -0.95707719143E+01  0.64725756093E+01 -0.11432163124E+02  0.16253869193E+02  0.00000000000E+00 0.  1.
</event>
<event>
 7    1  0.3331850E-011  0.5052886E+02  0.7816164E-02  0.1300439E+00
        -11   -1    0    0    0    0  0.00000000000E+00  0.00000000000E+00  0.45593999997E+02  0.45594000000E+02  0.51100000000E-03 0.  1.
         11   -1    0    0    0    0 -0.00000000000E+00 -0.00000000000E+00 -0.45593999997E+02  0.45594000000E+02  0.51100000000E-03 0. -1.
    9900012    2    1    2    0    0  0.11543204321E+01  0.36713288715E+02  0.17434677815E+02  0.50528855709E+02  0.29999987414E+02 0.  0.
         12    1    1    2    0    0 -0.11543204321E+01 -0.36713288715E+02 -0.17434677815E+02  0.40659144291E+02  0.00000000000E+00 0. -1.
         11    1    3    3    0    0  0.42248750166E+01 -0.20161018585E+01 -0.26194382278E+01  0.53642979504E+01  0.51100000000E-03 0. -1.
        -11    1    3    3    0    0 -0.95185716916E+00  0.79306376142E+00  0.35123078564E+01  0.37244179330E+01  0.51100000000E-03 0.  1.
        -12    1    3    3    0    0 -0.21186974154E+01  0.37936326812E+02  0.16541808187E+02  0.41440139826E+02  0.00000000000E+00 0.  1.
</event>
<event>
 7    1  0.3331850E-011  0.5052886E+02  0.7816164E-02  0.1300439E+00
        -11   -1    0    0    0    0  0.00000000000E+00  0.00000000000E+00  0.45593999997E+02  0.45594000000E+02  0.51100000000E-03 0. -1.
         11   -1    0    0    0    0 -0.00000000000E+00 -0.00000000000E+00 -0.45593999997E+02  0.45594000000E+02  0.51100000000E-03 0.  1.
    9900012    2    1    2    0    0 -0.40010355452E+02  0.36261768822E+01 -0.62600298182E+01  0.50528859877E+02  0.30000000083E+02 0.  0.
         12    1    1    2    0    0  0.40010355452E+02 -0.36261768822E+01  0.62600298182E+01  0.40659140123E+02  0.00000000000E+00 0. -1.
         11    1    3    3    0    0 -0.42468819555E+01  0.28409577747E+01 -0.43669500264E+01  0.67214061190E+01  0.51100000000E-03 0. -1.
        -11    1    3    3    0    0 -0.35276003157E+01 -0.37254364149E+01 -0.91207413381E+01  0.10464739045E+02  0.51100000000E-03 0.  1.
        -12    1    3    3    0    0 -0.32235873181E+02  0.45106555224E+01  0.72276615463E+01  0.33342714713E+02  0.00000000000E+00 0.  1.
</event>
<event>
 7    1  0.3331850E-011  0.5052886E+02  0.7816164E-02  0.1300439E+00
        -11   -1    0    0    0    0  0.00000000000E+00  0.00000000000E+00  0.45593999997E+02  0.45594000000E+02  0.51100000000E-03 0.  1.
         11   -1    0    0    0    0 -0.00000000000E+00 -0.00000000000E+00 -0.45593999997E+02  0.45594000000E+02  0.51100000000E-03 0. -1.
    9900012    2    1    2    0    0  0.63826873658E+01 -0.18066037346E+02  0.35861477827E+02  0.50528855945E+02  0.29999988130E+02 0.  0.
         12    1    1    2    0    0 -0.63826873658E+01  0.18066037346E+02 -0.35861477827E+02  0.40659144055E+02  0.00000000000E+00 0. -1.
         11    1    3    3    0    0 -0.27903089138E-01  0.70935952769E+01  0.11381512978E+02  0.13411141281E+02  0.51100000000E-03 0. -1.
        -11    1    3    3    0    0 -0.22283308353E+00  0.11700795519E+00  0.37579302874E+01  0.37663491276E+01  0.51100000000E-03 0.  1.
        -12    1    3    3    0    0  0.66334235385E+01 -0.25276640578E+02  0.20722034561E+02  0.33351365536E+02  0.00000000000E+00 0.  1.
</event>
<event>
 7    1  0.3331850E-011  0.5052886E+02  0.7816164E-02  0.1300439E+00
        -11   -1    0    0    0    0  0.00000000000E+00  0.00000000000E+00  0.45593999997E+02  0.45594000000E+02  0.51100000000E-03 0.  1.
         11   -1    0    0    0    0 -0.00000000000E+00 -0.00000000000E+00 -0.45593999997E+02  0.45594000000E+02  0.51100000000E-03 0. -1.
    9900012    2    1    2    0    0  0.35564871319E+02 -0.15033317791E+02  0.12739898011E+02  0.50528859366E+02  0.29999998530E+02 0.  0.
         12    1    1    2    0    0 -0.35564871319E+02  0.15033317791E+02 -0.12739898011E+02  0.40659140634E+02  0.00000000000E+00 0. -1.
         11    1    3    3    0    0  0.16391363117E+01 -0.49586140879E+01 -0.42175149917E+01  0.67128276074E+01  0.51100000000E-03 0. -1.
        -11    1    3    3    0    0  0.14782121526E+02 -0.73309393355E+01  0.18038369275E+02  0.24446606201E+02  0.51100000000E-03 0.  1.
         12    1    3    3    0    0  0.19143613481E+02 -0.27437643681E+01 -0.10809562726E+01  0.19369425558E+02  0.00000000000E+00 0. -1.
</event>
<event>
 7    1  0.3331850E-011  0.5052886E+02  0.7816164E-02  0.1300439E+00
        -11   -1    0    0    0    0  0.00000000000E+00  0.00000000000E+00  0.45593999997E+02  0.45594000000E+02  0.51100000000E-03 0. -1.
         11   -1    0    0    0    0 -0.00000000000E+00 -0.00000000000E+00 -0.45593999997E+02  0.45594000000E+02  0.51100000000E-03 0.  1.
    9900012    2    1    2    0    0 -0.20172868905E+02  0.23677081978E+02 -0.26184282300E+02  0.50528862154E+02  0.30000007004E+02 0.  0.
         12    1    1    2    0    0  0.20172868905E+02 -0.23677081978E+02  0.26184282300E+02  0.40659137846E+02  0.00000000000E+00 0. -1.
         11    1    3    3    0    0 -0.48754766524E+01  0.98554432963E+01  0.59543536752E-01  0.10995616438E+02  0.51100000000E-03 0.  1.
        -11    1    3    3    0    0 -0.14750786959E+02  0.17108381426E+02 -0.13401237760E+02  0.26265483143E+02  0.51100000000E-03 0. -1.
        -12    1    3    3    0    0 -0.54660529285E+00 -0.32867427447E+01 -0.12842588076E+02  0.13267762574E+02  0.00000000000E+00 0.  1.
</event>
<event>
 7    1  0.3331850E-011  0.5052886E+02  0.7816164E-02  0.1300439E+00
        -11   -1    0    0    0    0  0.00000000000E+00  0.00000000000E+00  0.45593999997E+02  0.45594000000E+02  0.51100000000E-03 0.  1.
         11   -1    0    0    0    0 -0.00000000000E+00 -0.00000000000E+00 -0.45593999997E+02  0.45594000000E+02  0.51100000000E-03 0. -1.
    9900012    2    1    2    0    0 -0.20477479837E+02  0.80225713858E+01  0.34197614055E+02  0.50528860324E+02  0.30000001440E+02 0.  0.
         12    1    1    2    0    0  0.20477479837E+02 -0.80225713858E+01 -0.34197614055E+02  0.40659139676E+02  0.00000000000E+00 0. -1.
         11    1    3    3    0    0 -0.11855389799E+01 -0.44228466175E+01  0.67447743415E+01  0.81522423942E+01  0.51100000000E-03 0. -1.
        -11    1    3    3    0    0  0.33053263517E+01  0.84055012088E+01  0.10435348327E+02  0.13801236460E+02  0.51100000000E-03 0.  1.
         12    1    3    3    0    0 -0.22597267209E+02  0.40399167945E+01  0.17017491387E+02  0.28575381469E+02  0.00000000000E+00 0. -1.
</event>
<event>
 7    1  0.3331850E-011  0.5052886E+02  0.7816164E-02  0.1300439E+00
        -11   -1    0    0    0    0  0.00000000000E+00  0.00000000000E+00  0.45593999997E+02  0.45594000000E+02  0.51100000000E-03 0. -1.
         11   -1    0    0    0    0 -0.00000000000E+00 -0.00000000000E+00 -0.45593999997E+02  0.45594000000E+02  0.51100000000E-03 0.  1.
    9900012    2    1    2    0    0  0.10578022474E+02  0.16135633573E+02 -0.35789841403E+02  0.50528856159E+02  0.29999988780E+02 0.  0.
         12    1    1    2    0    0 -0.10578022474E+02 -0.16135633573E+02  0.35789841403E+02  0.40659143841E+02  0.00000000000E+00 0. -1.
         11    1    3    3    0    0 -0.31688577409E+01 -0.38405335887E+01 -0.12367996752E+01  0.51304026476E+01  0.51100000000E-03 0. -1.
        -11    1    3    3    0    0  0.63571788356E+01 -0.15740473149E+01 -0.61139981578E+01  0.89594822078E+01  0.51100000000E-03 0.  1.
        -12    1    3    3    0    0  0.73897013790E+01  0.21550214477E+02 -0.28439043570E+02  0.36438971303E+02  0.00000000000E+00 0.  1.
</event>
<event>
 7    1  0.3331850E-011  0.5052886E+02  0.7816164E-02  0.1300439E+00
        -11   -1    0    0    0    0  0.00000000000E+00  0.00000000000E+00  0.45593999997E+02  0.45594000000E+02  0.51100000000E-03 0.  1.
         11   -1    0    0    0    0 -0.00000000000E+00 -0.00000000000E+00 -0.45593999997E+02  0.45594000000E+02  0.51100000000E-03 0. -1.
    9900012    2    1    2    0    0  0.12199838691E+02  0.31625546669E+02  0.22453380853E+02  0.50528861078E+02  0.30000003732E+02 0.  0.
         12    1    1    2    0    0 -0.12199838691E+02 -0.31625546669E+02 -0.22453380853E+02  0.40659138922E+02  0.00000000000E+00 0. -1.
         11    1    3    3    0    0  0.10308875968E+02  0.35846188279E+01  0.25594432186E+01  0.11210404351E+02  0.51100000000E-03 0. -1.
        -11    1    3    3    0    0  0.10136080650E+02  0.12434341705E+02  0.72388359734E+01  0.17599821906E+02  0.51100000000E-03 0.  1.
         12    1    3    3    0    0 -0.82451179276E+01  0.15606586135E+02  0.12655101661E+02  0.21718634821E+02  0.00000000000E+00 0. -1.
</event>
<event>
 7    1  0.3331850E-011  0.5052886E+02  0.7816164E-02  0.1300439E+00
        -11   -1    0    0    0    0  0.00000000000E+00  0.00000000000E+00  0.45593999997E+02  0.45594000000E+02  0.51100000000E-03 0.  1.
         11   -1    0    0    0    0 -0.00000000000E+00 -0.00000000000E+00 -0.45593999997E+02  0.45594000000E+02  0.51100000000E-03 0. -1.
    9900012    2    1    2    0    0  0.31117624531E+01  0.74546643440E+01  0.39848594844E+02  0.50528860842E+02  0.30000003014E+02 0.  0.
         12    1    1    2    0    0 -0.31117624531E+01 -0.74546643440E+01 -0.39848594844E+02  0.40659139158E+02  0.00000000000E+00 0. -1.
         11    1    3    3    0    0  0.24967015103E+01  0.79988848801E+01  0.20736909029E+02  0.22365935574E+02  0.51100000000E-03 0. -1.
        -11    1    3    3    0    0  0.28191385811E+01  0.53692140127E+01  0.20770522171E+02  0.21637712286E+02  0.51100000000E-03 0.  1.
         12    1    3    3    0    0 -0.22040776384E+01 -0.59134345488E+01 -0.16588363560E+01  0.65252129815E+01  0.00000000000E+00 0. -1.
</event>
<event>
 7    1  0.3331850E-011  0.5052886E+02  0.7816164E-02  0.1300439E+00
        -11   -1    0    0    0    0  0.00000000000E+00  0.00000000000E+00  0.45593999997E+02  0.45594000000E+02  0.51100000000E-03 0.  1.
         11   -1    0    0    0    0 -0.00000000000E+00 -0.00000000000E+00 -0.45593999997E+02  0.45594000000E+02  0.51100000000E-03 0. -1.
    9900012    2    1    2    0    0  0.20690537816E+02  0.33783333969E+02  0.91516908830E+01  0.50528862587E+02  0.30000008319E+02 0.  0.
         12    1    1    2    0    0 -0.20690537816E+02 -0.33783333969E+02 -0.91516908830E+01  0.40659137413E+02  0.00000000000E+00 0. -1.
         11    1    3    3    0    0 -0.21563339352E+01  0.89096279249E+01  0.24880022890E+01  0.94984946940E+01  0.51100000000E-03 0. -1.
        -11    1    3    3    0    0  0.42268572086E+01  0.20037473788E+02 -0.54656673217E+00  0.20485736821E+02  0.51100000000E-03 0.  1.
         12    1    3    3    0    0  0.18620014543E+02  0.48362322560E+01  0.72102553262E+01  0.20544631072E+02  0.00000000000E+00 0. -1.
</event>
<event>
 7    1  0.3331850E-011  0.5052888E+02  0.7816164E-02  0.1300439E+00
        -11   -1    0    0    0    0  0.00000000000E+00  0.00000000000E+00  0.45593999997E+02  0.45594000000E+02  0.51100000000E-03 0. -1.
         11   -1    0    0    0    0 -0.00000000000E+00 -0.00000000000E+00 -0.45593999997E+02  0.45594000000E+02  0.51100000000E-03 0.  1.
    9900012    2    1    2    0    0  0.10908584443E+02 -0.16024355772E+02 -0.35740544410E+02  0.50528884082E+02  0.30000073656E+02 0.  0.
         12    1    1    2    0    0 -0.10908584443E+02  0.16024355772E+02  0.35740544410E+02  0.40659115918E+02  0.00000000000E+00 0. -1.
         11    1    3    3    0    0 -0.31880769419E+01  0.30027358195E+01 -0.16111673329E+02  0.16696295239E+02  0.51100000000E-03 0.  1.
        -11    1    3    3    0    0 -0.51701459705E+00  0.16854869524E+01 -0.31141365299E+01  0.35785495593E+01  0.51100000000E-03 0. -1.
         12    1    3    3    0    0  0.14613675982E+02 -0.20712578544E+02 -0.16514734551E+02  0.30254039283E+02  0.00000000000E+00 0. -1.
</event>
<event>
 7    1  0.3331850E-011  0.5052886E+02  0.7816164E-02  0.1300439E+00
        -11   -1    0    0    0    0  0.00000000000E+00  0.00000000000E+00  0.45593999997E+02  0.45594000000E+02  0.51100000000E-03 0. -1.
         11   -1    0    0    0    0 -0.00000000000E+00 -0.00000000000E+00 -0.45593999997E+02  0.45594000000E+02  0.51100000000E-03 0.  1.
    9900012    2    1    2    0    0 -0.30049960048E+02 -0.65777289728E+01 -0.26587578719E+02  0.50528856385E+02  0.29999989469E+02 0.  0.
         12    1    1    2    0    0  0.30049960048E+02  0.65777289728E+01  0.26587578719E+02  0.40659143615E+02  0.00000000000E+00 0. -1.
         11    1    3    3    0    0 -0.10159505602E+02  0.56803282746E+01 -0.17873967641E+02  0.21329800817E+02  0.51100000000E-03 0. -1.
        -11    1    3    3    0    0 -0.92625301927E+01  0.11692226833E+01 -0.76002842687E+01  0.12038516041E+02  0.51100000000E-03 0.  1.
        -12    1    3    3    0    0 -0.10627924253E+02 -0.13427279931E+02 -0.11133268093E+01  0.17160539527E+02  0.00000000000E+00 0.  1.
</event>
<event>
 7    1  0.3331850E-011  0.5052887E+02  0.7816164E-02  0.1300439E+00
        -11   -1    0    0    0    0  0.00000000000E+00  0.00000000000E+00  0.45593999997E+02  0.45594000000E+02  0.51100000000E-03 0.  1.
         11   -1    0    0    0    0 -0.00000000000E+00 -0.00000000000E+00 -0.45593999997E+02  0.45594000000E+02  0.51100000000E-03 0. -1.
    9900012    2    1    2    0    0 -0.18351274361E+02 -0.34629852924E+02  0.10824470590E+02  0.50528866367E+02  0.30000019809E+02 0.  0.
         12    1    1    2    0    0  0.18351274361E+02  0.34629852924E+02 -0.10824470590E+02  0.40659133633E+02  0.00000000000E+00 0. -1.
         11    1    3    3    0    0 -0.15567182708E+02 -0.30437937165E+02  0.18039447818E+00  0.34188269022E+02  0.51100000000E-03 0. -1.
        -11    1    3    3    0    0 -0.18241731149E+01 -0.49207735202E+01 -0.36974931993E+00  0.52610202823E+01  0.51100000000E-03 0.  1.
        -12    1    3    3    0    0 -0.95991853842E+00  0.72885776046E+00  0.11013825432E+02  0.11079577063E+02  0.00000000000E+00 0.  1.
</event>
<event>
 7    1  0.3331850E-011  0.5052886E+02  0.7816164E-02  0.1300439E+00
        -11   -1    0    0    0    0  0.00000000000E+00  0.00000000000E+00  0.45593999997E+02  0.45594000000E+02  0.51100000000E-03 0. -1.
         11   -1    0    0    0    0 -0.00000000000E+00 -0.00000000000E+00 -0.45593999997E+02  0.45594000000E+02  0.51100000000E-03 0.  1.
    9900012    2    1    2    0    0  0.40217276204E+02 -0.51382465108E+01  0.30552808288E+01  0.50528860518E+02  0.30000002029E+02 0.  0.
         12    1    1    2    0    0 -0.40217276204E+02  0.51382465108E+01 -0.30552808288E+01  0.40659139482E+02  0.00000000000E+00 0. -1.
         11    1    3    3    0    0  0.21711148162E+01  0.39025999948E+01 -0.28708835825E+01  0.53090487915E+01  0.51100000000E-03 0. -1.
        -11    1    3    3    0    0  0.15443966464E+01  0.45956629181E+01  0.38636980263E+01  0.61994710547E+01  0.51100000000E-03 0.  1.
        -12    1    3    3    0    0  0.36501764742E+02 -0.13636509424E+02  0.20624663851E+01  0.39020340671E+02  0.00000000000E+00 0.  1.
</event>
<event>
 7    1  0.3331850E-011  0.5052887E+02  0.7816164E-02  0.1300439E+00
        -11   -1    0    0    0    0  0.00000000000E+00  0.00000000000E+00  0.45593999997E+02  0.45594000000E+02  0.51100000000E-03 0.  1.
         11   -1    0    0    0    0 -0.00000000000E+00 -0.00000000000E+00 -0.45593999997E+02  0.45594000000E+02  0.51100000000E-03 0. -1.
    9900012    2    1    2    0    0  0.13744055828E+02 -0.19880444916E+02  0.32696084272E+02  0.50528867110E+02  0.30000022066E+02 0.  0.
         12    1    1    2    0    0 -0.13744055828E+02  0.19880444916E+02 -0.32696084272E+02  0.40659132890E+02  0.00000000000E+00 0. -1.
         11    1    3    3    0    0  0.36037966072E+01 -0.77295515097E+01  0.41527416770E+01  0.94857039921E+01  0.51100000000E-03 0. -1.
        -11    1    3    3    0    0  0.10758466454E+02 -0.16868001809E+02  0.30007459839E+02  0.36065519984E+02  0.51100000000E-03 0.  1.
         12    1    3    3    0    0 -0.61820723352E+00  0.47171084021E+01 -0.14641172439E+01  0.49776431335E+01  0.00000000000E+00 0. -1.
</event>
<event>
 7    1  0.3331850E-011  0.5052880E+02  0.7816164E-02  0.1300439E+00
        -11   -1    0    0    0    0  0.00000000000E+00  0.00000000000E+00  0.45593999997E+02  0.45594000000E+02  0.51100000000E-03 0. -1.
         11   -1    0    0    0    0 -0.00000000000E+00 -0.00000000000E+00 -0.45593999997E+02  0.45594000000E+02  0.51100000000E-03 0.  1.
    9900012    2    1    2    0    0 -0.74718058321E+01 -0.40844522157E+01 -0.39757516072E+02  0.50528797887E+02  0.29999811656E+02 0.  0.
         12    1    1    2    0    0  0.74718058321E+01  0.40844522157E+01  0.39757516072E+02  0.40659202113E+02  0.00000000000E+00 0. -1.
         11    1    3    3    0    0 -0.27597181842E+01 -0.14304001254E+01 -0.10711533562E+02  0.11153431781E+02  0.51100000000E-03 0. -1.
        -11    1    3    3    0    0 -0.54748761181E+01 -0.14009743970E+02 -0.18659690395E+02  0.23967295227E+02  0.51100000000E-03 0.  1.
         12    1    3    3    0    0  0.76278847019E+00  0.11355691880E+02 -0.10386292115E+02  0.15408070879E+02  0.00000000000E+00 0. -1.
</event>
<event>
 7    1  0.3331850E-011  0.5052886E+02  0.7816164E-02  0.1300439E+00
        -11   -1    0    0    0    0  0.00000000000E+00  0.00000000000E+00  0.45593999997E+02  0.45594000000E+02  0.51100000000E-03 0. -1.
         11   -1    0    0    0    0 -0.00000000000E+00 -0.00000000000E+00 -0.45593999997E+02  0.45594000000E+02  0.51100000000E-03 0.  1.
    9900012    2    1    2    0    0 -0.70259188279E+00  0.40529819185E+02  0.31631833761E+01  0.50528860712E+02  0.30000002621E+02 0.  0.
         12    1    1    2    0    0  0.70259188279E+00 -0.40529819185E+02 -0.31631833761E+01  0.40659139288E+02  0.00000000000E+00 0. -1.
         11    1    3    3    0    0 -0.22750551671E+01  0.71975295918E+01  0.10281195400E+02  0.12754735880E+02  0.51100000000E-03 0. -1.
        -11    1    3    3    0    0 -0.69793164343E+01  0.20450264181E+02 -0.34404472120E+01  0.21880604202E+02  0.51100000000E-03 0.  1.
        -12    1    3    3    0    0  0.85517797186E+01  0.12882025412E+02 -0.36775648124E+01  0.15893520630E+02  0.00000000000E+00 0.  1.
</event>
<event>
 7    1  0.3331850E-011  0.5052887E+02  0.7816164E-02  0.1300439E+00
        -11   -1    0    0    0    0  0.00000000000E+00  0.00000000000E+00  0.45593999997E+02  0.45594000000E+02  0.51100000000E-03 0.  1.
         11   -1    0    0    0    0 -0.00000000000E+00 -0.00000000000E+00 -0.45593999997E+02  0.45594000000E+02  0.51100000000E-03 0. -1.
    9900012    2    1    2    0    0 -0.24665227661E+02 -0.22841662641E+02  0.22870288682E+02  0.50528866805E+02  0.30000021140E+02 0.  0.
         12    1    1    2    0    0  0.24665227661E+02  0.22841662641E+02 -0.22870288682E+02  0.40659133195E+02  0.00000000000E+00 0. -1.
         11    1    3    3    0    0 -0.14867092310E+02 -0.49184868458E+01  0.19242980011E+02  0.24809559177E+02  0.51100000000E-03 0. -1.
        -11    1    3    3    0    0 -0.20452240243E+01 -0.41425153071E-01  0.57603680828E+01  0.61128142507E+01  0.51100000000E-03 0.  1.
         12    1    3    3    0    0 -0.77529113274E+01 -0.17881750642E+02 -0.21330594124E+01  0.19606493377E+02  0.00000000000E+00 0. -1.
</event>
<event>
 7    1  0.3331850E-011  0.5052886E+02  0.7816164E-02  0.1300439E+00
        -11   -1    0    0    0    0  0.00000000000E+00  0.00000000000E+00  0.45593999997E+02  0.45594000000E+02  0.51100000000E-03 0. -1.
         11   -1    0    0    0    0 -0.00000000000E+00 -0.00000000000E+00 -0.45593999997E+02  0.45594000000E+02  0.51100000000E-03 0.  1.
    9900012    2    1    2    0    0  0.12931153111E+02  0.37029778169E+02 -0.10711985487E+02  0.50528858038E+02  0.29999994491E+02 0.  0.
         12    1    1    2    0    0 -0.12931153111E+02 -0.37029778169E+02  0.10711985487E+02  0.40659141962E+02  0.00000000000E+00 0. -1.
         11    1    3    3    0    0 -0.41461067156E+01  0.75243159033E+01 -0.61056919597E+01  0.10539687153E+02  0.51100000000E-03 0. -1.
        -11    1    3    3    0    0  0.35490196402E+01  0.99936826028E+01 -0.11122750024E+02  0.15368305070E+02  0.51100000000E-03 0.  1.
         12    1    3    3    0    0  0.13528240187E+02  0.19511779663E+02  0.65164564973E+01  0.24620865814E+02  0.00000000000E+00 0. -1.
</event>
<event>
 7    1  0.3331850E-011  0.5052886E+02  0.7816164E-02  0.1300439E+00
        -11   -1    0    0    0    0  0.00000000000E+00  0.00000000000E+00  0.45593999997E+02  0.45594000000E+02  0.51100000000E-03 0. -1.
         11   -1    0    0    0    0 -0.00000000000E+00 -0.00000000000E+00 -0.45593999997E+02  0.45594000000E+02  0.51100000000E-03 0.  1.
    9900012    2    1    2    0    0  0.17460917311E+02  0.36422579534E+02  0.46559398977E+01  0.50528859459E+02  0.29999998811E+02 0.  0.
         12    1    1    2    0    0 -0.17460917311E+02 -0.36422579534E+02 -0.46559398977E+01  0.40659140541E+02  0.00000000000E+00 0. -1.
         11    1    3    3    0    0  0.90520495280E+01  0.48047291326E+01 -0.47160127811E+00  0.10259017045E+02  0.51100000000E-03 0. -1.
        -11    1    3    3    0    0  0.14237288338E+02  0.10286245003E+02  0.45705717861E+01  0.18149306934E+02  0.51100000000E-03 0.  1.
        -12    1    3    3    0    0 -0.58284205550E+01  0.21331605398E+02  0.55696938967E+00  0.22120535480E+02  0.00000000000E+00 0.  1.
</event>
<event>
 7    1  0.3331850E-011  0.5052885E+02  0.7816164E-02  0.1300439E+00
        -11   -1    0    0    0    0  0.00000000000E+00  0.00000000000E+00  0.45593999997E+02  0.45594000000E+02  0.51100000000E-03 0.  1.
         11   -1    0    0    0    0 -0.00000000000E+00 -0.00000000000E+00 -0.45593999997E+02  0.45594000000E+02  0.51100000000E-03 0. -1.
    9900012    2    1    2    0    0  0.23694462495E+02 -0.23589333430E+02  0.23136170413E+02  0.50528848681E+02  0.29999966051E+02 0.  0.
         12    1    1    2    0    0 -0.23694462495E+02  0.23589333430E+02 -0.23136170413E+02  0.40659151319E+02  0.00000000000E+00 0. -1.
         11    1    3    3    0    0  0.52642296987E+00 -0.23222431241E+01 -0.35478473777E+01  0.42728392840E+01  0.51100000000E-03 0.  1.
        -11    1    3    3    0    0 -0.35525530545E+00 -0.57275542158E+01 -0.19610973761E+01  0.60644032523E+01  0.51100000000E-03 0. -1.
        -12    1    3    3    0    0  0.23523294831E+02 -0.15539536090E+02  0.28645115167E+02  0.40191606145E+02  0.00000000000E+00 0.  1.
</event>
<event>
 7    1  0.3331850E-011  0.5052884E+02  0.7816164E-02  0.1300439E+00
        -11   -1    0    0    0    0  0.00000000000E+00  0.00000000000E+00  0.45593999997E+02  0.45594000000E+02  0.51100000000E-03 0.  1.
         11   -1    0    0    0    0 -0.00000000000E+00 -0.00000000000E+00 -0.45593999997E+02  0.45594000000E+02  0.51100000000E-03 0. -1.
    9900012    2    1    2    0    0 -0.33085550474E+02  0.80977491522E+01  0.22202260843E+02  0.50528836481E+02  0.29999928968E+02 0.  0.
         12    1    1    2    0    0  0.33085550474E+02 -0.80977491522E+01 -0.22202260843E+02  0.40659163519E+02  0.00000000000E+00 0. -1.
         11    1    3    3    0    0 -0.14712566116E+02  0.12609083248E+02  0.35043991838E+01  0.19690845487E+02  0.51100000000E-03 0. -1.
        -11    1    3    3    0    0  0.17845739209E+01  0.79294851051E-01  0.67022018234E+01  0.69361733899E+01  0.51100000000E-03 0.  1.
         12    1    3    3    0    0 -0.20157558279E+02 -0.45906289472E+01  0.11995659836E+02  0.23901817605E+02  0.00000000000E+00 0. -1.
</event>
<event>
 7    1  0.3331850E-011  0.5052887E+02  0.7816164E-02  0.1300439E+00
        -11   -1    0    0    0    0  0.00000000000E+00  0.00000000000E+00  0.45593999997E+02  0.45594000000E+02  0.51100000000E-03 0. -1.
         11   -1    0    0    0    0 -0.00000000000E+00 -0.00000000000E+00 -0.45593999997E+02  0.45594000000E+02  0.51100000000E-03 0.  1.
    9900012    2    1    2    0    0 -0.10561381403E+01  0.21159922556E+02  0.34703132090E+02  0.50528866620E+02  0.30000020579E+02 0.  0.
         12    1    1    2    0    0  0.10561381403E+01 -0.21159922556E+02 -0.34703132090E+02  0.40659133380E+02  0.00000000000E+00 0. -1.
         11    1    3    3    0    0  0.40212406136E+00 -0.36880496182E+01  0.25344171472E+01  0.44929594128E+01  0.51100000000E-03 0. -1.
        -11    1    3    3    0    0  0.21452324331E+01 -0.52257176511E+00 -0.22322812305E+01  0.31397743860E+01  0.51100000000E-03 0.  1.
        -12    1    3    3    0    0 -0.36034946348E+01  0.25370543939E+02  0.34400996173E+02  0.42896132822E+02  0.00000000000E+00 0.  1.
</event>
<event>
 7    1  0.3331850E-011  0.5052888E+02  0.7816164E-02  0.1300439E+00
        -11   -1    0    0    0    0  0.00000000000E+00  0.00000000000E+00  0.45593999997E+02  0.45594000000E+02  0.51100000000E-03 0.  1.
         11   -1    0    0    0    0 -0.00000000000E+00 -0.00000000000E+00 -0.45593999997E+02  0.45594000000E+02  0.51100000000E-03 0. -1.
    9900012    2    1    2    0    0 -0.32905759216E+02  0.67500348237E+01  0.22908771904E+02  0.50528883066E+02  0.30000070567E+02 0.  0.
         12    1    1    2    0    0  0.32905759216E+02 -0.67500348237E+01 -0.22908771904E+02  0.40659116934E+02  0.00000000000E+00 0. -1.
         11    1    3    3    0    0 -0.19372960435E+01  0.92870544734E+00 -0.45255589860E+01  0.50096201617E+01  0.51100000000E-03 0. -1.
        -11    1    3    3    0    0 -0.19972823208E+02  0.58985344606E+01  0.64044533307E+01  0.21788148118E+02  0.51100000000E-03 0.  1.
         12    1    3    3    0    0 -0.10995639965E+02 -0.77205084197E-01  0.21029877559E+02  0.23731114786E+02  0.00000000000E+00 0. -1.
</event>
<event>
 7    1  0.3331850E-011  0.5052885E+02  0.7816164E-02  0.1300439E+00
        -11   -1    0    0    0    0  0.00000000000E+00  0.00000000000E+00  0.45593999997E+02  0.45594000000E+02  0.51100000000E-03 0. -1.
         11   -1    0    0    0    0 -0.00000000000E+00 -0.00000000000E+00 -0.45593999997E+02  0.45594000000E+02  0.51100000000E-03 0.  1.
    9900012    2    1    2    0    0 -0.33543583651E+02  0.18721682722E+02 -0.13322655601E+02  0.50528848996E+02  0.29999967009E+02 0.  0.
         12    1    1    2    0    0  0.33543583651E+02 -0.18721682722E+02  0.13322655601E+02  0.40659151004E+02  0.00000000000E+00 0. -1.
         11    1    3    3    0    0 -0.59028499702E+01  0.15153500065E+01  0.39049197846E+01  0.72379777700E+01  0.51100000000E-03 0. -1.
        -11    1    3    3    0    0 -0.17014972479E+01  0.10402927974E+02  0.14081211085E+01  0.10634792365E+02  0.51100000000E-03 0.  1.
        -12    1    3    3    0    0 -0.25939236433E+02  0.68034047411E+01 -0.18635696494E+02  0.32656078861E+02  0.00000000000E+00 0.  1.
</event>
<event>
 7    1  0.3331850E-011  0.5052886E+02  0.7816164E-02  0.1300439E+00
        -11   -1    0    0    0    0  0.00000000000E+00  0.00000000000E+00  0.45593999997E+02  0.45594000000E+02  0.51100000000E-03 0. -1.
         11   -1    0    0    0    0 -0.00000000000E+00 -0.00000000000E+00 -0.45593999997E+02  0.45594000000E+02  0.51100000000E-03 0.  1.
    9900012    2    1    2    0    0 -0.34241206482E+02 -0.10352700836E+02  0.19326846679E+02  0.50528860333E+02  0.30000001468E+02 0.  0.
         12    1    1    2    0    0  0.34241206482E+02  0.10352700836E+02 -0.19326846679E+02  0.40659139667E+02  0.00000000000E+00 0. -1.
         11    1    3    3    0    0 -0.38108849710E+01  0.34785057997E+01  0.81189328598E+01  0.96197670400E+01  0.51100000000E-03 0. -1.
        -11    1    3    3    0    0 -0.16354738502E+02 -0.18608807064E+01  0.14742102116E+02  0.22096830622E+02  0.51100000000E-03 0.  1.
        -12    1    3    3    0    0 -0.14075583008E+02 -0.11970325929E+02 -0.35341882969E+01  0.18812262671E+02  0.00000000000E+00 0.  1.
</event>
<event>
 7    1  0.3331850E-011  0.5052885E+02  0.7816164E-02  0.1300439E+00
        -11   -1    0    0    0    0  0.00000000000E+00  0.00000000000E+00  0.45593999997E+02  0.45594000000E+02  0.51100000000E-03 0.  1.
         11   -1    0    0    0    0 -0.00000000000E+00 -0.00000000000E+00 -0.45593999997E+02  0.45594000000E+02  0.51100000000E-03 0. -1.
    9900012    2    1    2    0    0 -0.12601387899E+02  0.71959013461E+01  0.37981450623E+02  0.50528848945E+02  0.29999966852E+02 0.  0.
         12    1    1    2    0    0  0.12601387899E+02 -0.71959013461E+01 -0.37981450623E+02  0.40659151055E+02  0.00000000000E+00 0. -1.
         11    1    3    3    0    0 -0.40805748153E+01  0.39320580159E+01  0.10940940713E+02  0.12321377967E+02  0.51100000000E-03 0. -1.
        -11    1    3    3    0    0  0.25301035373E+01  0.53855781118E+01  0.26262180453E+02  0.26927829432E+02  0.51100000000E-03 0.  1.
         12    1    3    3    0    0 -0.11050916621E+02 -0.21217347816E+01  0.77832945630E+00  0.11279641545E+02  0.00000000000E+00 0. -1.
</event>
<event>
 7    1  0.3331850E-011  0.5052886E+02  0.7816164E-02  0.1300439E+00
        -11   -1    0    0    0    0  0.00000000000E+00  0.00000000000E+00  0.45593999997E+02  0.45594000000E+02  0.51100000000E-03 0. -1.
         11   -1    0    0    0    0 -0.00000000000E+00 -0.00000000000E+00 -0.45593999997E+02  0.45594000000E+02  0.51100000000E-03 0.  1.
    9900012    2    1    2    0    0  0.29897077857E+01 -0.28308236742E+02 -0.29032237301E+02  0.50528862985E+02  0.30000009529E+02 0.  0.
         12    1    1    2    0    0 -0.29897077857E+01  0.28308236742E+02  0.29032237301E+02  0.40659137015E+02  0.00000000000E+00 0. -1.
         11    1    3    3    0    0 -0.34002687485E+01  0.29767008504E+01 -0.11085330611E+02  0.11971095627E+02  0.51100000000E-03 0. -1.
        -11    1    3    3    0    0  0.68204554848E+01 -0.10914773524E+02 -0.28051262588E+01  0.13172684908E+02  0.51100000000E-03 0.  1.
        -12    1    3    3    0    0 -0.43047895063E+00 -0.20370164069E+02 -0.15141780432E+02  0.25385082449E+02  0.00000000000E+00 0.  1.
</event>
<event>
 7    1  0.3331850E-011  0.5052886E+02  0.7816164E-02  0.1300439E+00
        -11   -1    0    0    0    0  0.00000000000E+00  0.00000000000E+00  0.45593999997E+02  0.45594000000E+02  0.51100000000E-03 0. -1.
         11   -1    0    0    0    0 -0.00000000000E+00 -0.00000000000E+00 -0.45593999997E+02  0.45594000000E+02  0.51100000000E-03 0.  1.
    9900012    2    1    2    0    0  0.81568237128E+01  0.32948849805E+02 -0.22383148519E+02  0.50528858172E+02  0.29999994899E+02 0.  0.
         12    1    1    2    0    0 -0.81568237128E+01 -0.32948849805E+02  0.22383148519E+02  0.40659141828E+02  0.00000000000E+00 0. -1.
         11    1    3    3    0    0 -0.55668060761E+01  0.20254085656E+02 -0.15859379395E+02  0.26319901798E+02  0.51100000000E-03 0. -1.
        -11    1    3    3    0    0 -0.20541654300E+01  0.56148818529E+01 -0.23097118197E+01  0.64094666539E+01  0.51100000000E-03 0.  1.
        -12    1    3    3    0    0  0.15777795219E+02  0.70798822968E+01 -0.42140573047E+01  0.17799489719E+02  0.00000000000E+00 0.  1.
</event>
<event>
 7    1  0.3331850E-011  0.5052886E+02  0.7816164E-02  0.1300439E+00
        -11   -1    0    0    0    0  0.00000000000E+00  0.00000000000E+00  0.45593999997E+02  0.45594000000E+02  0.51100000000E-03 0.  1.
         11   -1    0    0    0    0 -0.00000000000E+00 -0.00000000000E+00 -0.45593999997E+02  0.45594000000E+02  0.51100000000E-03 0. -1.
    9900012    2    1    2    0    0  0.95811452142E+01  0.21972460195E+02  0.32841716662E+02  0.50528859528E+02  0.29999999021E+02 0.  0.
         12    1    1    2    0    0 -0.95811452142E+01 -0.21972460195E+02 -0.32841716662E+02  0.40659140472E+02  0.00000000000E+00 0. -1.
         11    1    3    3    0    0 -0.30016911973E+01  0.23916930576E+01  0.25053078149E+01  0.45833299287E+01  0.51100000000E-03 0. -1.
        -11    1    3    3    0    0  0.15960897226E+02  0.17828202541E+02  0.11174828192E+02  0.26409692000E+02  0.51100000000E-03 0.  1.
         12    1    3    3    0    0 -0.33780608148E+01  0.17525645956E+01  0.19161580655E+02  0.19535837600E+02  0.00000000000E+00 0. -1.
</event>
<event>
 7    1  0.3331850E-011  0.5052886E+02  0.7816164E-02  0.1300439E+00
        -11   -1    0    0    0    0  0.00000000000E+00  0.00000000000E+00  0.45593999997E+02  0.45594000000E+02  0.51100000000E-03 0.  1.
         11   -1    0    0    0    0 -0.00000000000E+00 -0.00000000000E+00 -0.45593999997E+02  0.45594000000E+02  0.51100000000E-03 0. -1.
    9900012    2    1    2    0    0 -0.25355341650E+01 -0.27489839334E+02  0.29850383159E+02  0.50528861115E+02  0.30000003844E+02 0.  0.
         12    1    1    2    0    0  0.25355341650E+01  0.27489839334E+02 -0.29850383159E+02  0.40659138885E+02  0.00000000000E+00 0. -1.
         11    1    3    3    0    0 -0.41052704232E+01 -0.22419880410E+02  0.26157569686E+02  0.34694707593E+02  0.51100000000E-03 0. -1.
        -11    1    3    3    0    0  0.37174421737E+01 -0.45282276070E+01  0.86254578205E+01  0.10427019922E+02  0.51100000000E-03 0.  1.
         12    1    3    3    0    0 -0.21477059155E+01 -0.54173131758E+00 -0.49326443466E+01  0.54071336001E+01  0.00000000000E+00 0. -1.
</event>
<event>
 7    1  0.3331850E-011  0.5052887E+02  0.7816164E-02  0.1300439E+00
        -11   -1    0    0    0    0  0.00000000000E+00  0.00000000000E+00  0.45593999997E+02  0.45594000000E+02  0.51100000000E-03 0. -1.
         11   -1    0    0    0    0 -0.00000000000E+00 -0.00000000000E+00 -0.45593999997E+02  0.45594000000E+02  0.51100000000E-03 0.  1.
    9900012    2    1    2    0    0  0.14490654065E+02 -0.17091139766E+02 -0.33927555635E+02  0.50528866400E+02  0.30000019910E+02 0.  0.
         12    1    1    2    0    0 -0.14490654065E+02  0.17091139766E+02  0.33927555635E+02  0.40659133600E+02  0.00000000000E+00 0. -1.
         11    1    3    3    0    0  0.80748928388E+01 -0.10577579797E+00  0.49038734304E+00  0.80904612282E+01  0.51100000000E-03 0. -1.
        -11    1    3    3    0    0  0.11000863736E+02 -0.10151889879E+02 -0.14297724946E+02  0.20700357725E+02  0.51100000000E-03 0.  1.
        -12    1    3    3    0    0 -0.45851025100E+01 -0.68334740888E+01 -0.20120218032E+02  0.21738047447E+02  0.00000000000E+00 0.  1.
</event>
<event>
 7    1  0.3331850E-011  0.5052886E+02  0.7816164E-02  0.1300439E+00
        -11   -1    0    0    0    0  0.00000000000E+00  0.00000000000E+00  0.45593999997E+02  0.45594000000E+02  0.51100000000E-03 0.  1.
         11   -1    0    0    0    0 -0.00000000000E+00 -0.00000000000E+00 -0.45593999997E+02  0.45594000000E+02  0.51100000000E-03 0. -1.
    9900012    2    1    2    0    0  0.64519112646E+00 -0.86661713052E+01  0.39719606174E+02  0.50528856978E+02  0.29999991271E+02 0.  0.
         12    1    1    2    0    0 -0.64519112646E+00  0.86661713052E+01 -0.39719606174E+02  0.40659143022E+02  0.00000000000E+00 0. -1.
         11    1    3    3    0    0 -0.11831674719E+02 -0.96874760103E+01  0.19915179711E+02  0.25108765428E+02  0.51100000000E-03 0. -1.
        -11    1    3    3    0    0  0.61627400813E-01 -0.28934846213E+01  0.30790523310E+01  0.42257087818E+01  0.51100000000E-03 0.  1.
        -12    1    3    3    0    0  0.12415238445E+02  0.39147893264E+01  0.16725374132E+02  0.21194382769E+02  0.00000000000E+00 0.  1.
</event>
<event>
 7    1  0.3331850E-011  0.5052885E+02  0.7816164E-02  0.1300439E+00
        -11   -1    0    0    0    0  0.00000000000E+00  0.00000000000E+00  0.45593999997E+02  0.45594000000E+02  0.51100000000E-03 0.  1.
         11   -1    0    0    0    0 -0.00000000000E+00 -0.00000000000E+00 -0.45593999997E+02  0.45594000000E+02  0.51100000000E-03 0. -1.
    9900012    2    1    2    0    0  0.15536869588E+02  0.23269003915E+01  0.37501432902E+02  0.50528852792E+02  0.29999978545E+02 0.  0.
         12    1    1    2    0    0 -0.15536869588E+02 -0.23269003915E+01 -0.37501432902E+02  0.40659147208E+02  0.00000000000E+00 0. -1.
         11    1    3    3    0    0 -0.39311320476E+01 -0.78896583203E+01  0.53660693711E+01  0.10319651561E+02  0.51100000000E-03 0. -1.
        -11    1    3    3    0    0  0.62375011832E+01 -0.66485815706E+00  0.45947045607E+01  0.77755879289E+01  0.51100000000E-03 0.  1.
        -12    1    3    3    0    0  0.13230500453E+02  0.10881416869E+02  0.27540658970E+02  0.32433613302E+02  0.00000000000E+00 0.  1.
</event>
<event>
 7    1  0.3331850E-011  0.5052887E+02  0.7816164E-02  0.1300439E+00
        -11   -1    0    0    0    0  0.00000000000E+00  0.00000000000E+00  0.45593999997E+02  0.45594000000E+02  0.51100000000E-03 0. -1.
         11   -1    0    0    0    0 -0.00000000000E+00 -0.00000000000E+00 -0.45593999997E+02  0.45594000000E+02  0.51100000000E-03 0.  1.
    9900012    2    1    2    0    0  0.35092281870E+01 -0.25427099575E+02 -0.31532726081E+02  0.50528869544E+02  0.30000029467E+02 0.  0.
         12    1    1    2    0    0 -0.35092281870E+01  0.25427099575E+02  0.31532726081E+02  0.40659130456E+02  0.00000000000E+00 0. -1.
         11    1    3    3    0    0  0.14719699235E+02 -0.99428832673E+01 -0.18770996594E+02  0.25843389612E+02  0.51100000000E-03 0. -1.
        -11    1    3    3    0    0  0.40739917202E+00 -0.50726114396E+01 -0.54498914534E+01  0.74564521065E+01  0.51100000000E-03 0.  1.
        -12    1    3    3    0    0 -0.11617870220E+02 -0.10411604868E+02 -0.73118380342E+01  0.17229027826E+02  0.00000000000E+00 0.  1.
</event>
<event>
 7    1  0.3331850E-011  0.5052887E+02  0.7816164E-02  0.1300439E+00
        -11   -1    0    0    0    0  0.00000000000E+00  0.00000000000E+00  0.45593999997E+02  0.45594000000E+02  0.51100000000E-03 0.  1.
         11   -1    0    0    0    0 -0.00000000000E+00 -0.00000000000E+00 -0.45593999997E+02  0.45594000000E+02  0.51100000000E-03 0. -1.
    9900012    2    1    2    0    0  0.27001987411E+02  0.11311992490E+02  0.28215174740E+02  0.50528873302E+02  0.30000040889E+02 0.  0.
         12    1    1    2    0    0 -0.27001987411E+02 -0.11311992490E+02 -0.28215174740E+02  0.40659126698E+02  0.00000000000E+00 0. -1.
         11    1    3    3    0    0  0.18736712059E+00  0.65362832920E+01 -0.15682692986E+01  0.67244014280E+01  0.51100000000E-03 0. -1.
        -11    1    3    3    0    0  0.95487104843E+01  0.51914335790E+01  0.19414363839E+01  0.11040744088E+02  0.51100000000E-03 0.  1.
        -12    1    3    3    0    0  0.17265909806E+02 -0.41572438131E+00  0.27842007655E+02  0.32763727786E+02  0.00000000000E+00 0.  1.
</event>
<event>
 7    1  0.3331850E-011  0.5052884E+02  0.7816164E-02  0.1300439E+00
        -11   -1    0    0    0    0  0.00000000000E+00  0.00000000000E+00  0.45593999997E+02  0.45594000000E+02  0.51100000000E-03 0. -1.
         11   -1    0    0    0    0 -0.00000000000E+00 -0.00000000000E+00 -0.45593999997E+02  0.45594000000E+02  0.51100000000E-03 0.  1.
    9900012    2    1    2    0    0  0.16262070312E+02 -0.95184484047E-01 -0.37265310975E+02  0.50528838757E+02  0.29999935886E+02 0.  0.
         12    1    1    2    0    0 -0.16262070312E+02  0.95184484047E-01  0.37265310975E+02  0.40659161243E+02  0.00000000000E+00 0. -1.
         11    1    3    3    0    0  0.51475074473E+01  0.66884792375E+01 -0.13752613014E+02  0.16135890196E+02  0.51100000000E-03 0. -1.
        -11    1    3    3    0    0  0.68240861127E+01  0.52502897609E+01 -0.18971565051E+02  0.20833962048E+02  0.51100000000E-03 0.  1.
         12    1    3    3    0    0  0.42904767521E+01 -0.12033953482E+02 -0.45411329092E+01  0.13558986514E+02  0.00000000000E+00 0. -1.
</event>
<event>
 7    1  0.3331850E-011  0.5052890E+02  0.7816164E-02  0.1300439E+00
        -11   -1    0    0    0    0  0.00000000000E+00  0.00000000000E+00  0.45593999997E+02  0.45594000000E+02  0.51100000000E-03 0. -1.
         11   -1    0    0    0    0 -0.00000000000E+00 -0.00000000000E+00 -0.45593999997E+02  0.45594000000E+02  0.51100000000E-03 0.  1.
    9900012    2    1    2    0    0 -0.18408774011E+02 -0.23256645176E+02 -0.27810218877E+02  0.50528895492E+02  0.30000108337E+02 0.  0.
         12    1    1    2    0    0  0.18408774011E+02  0.23256645176E+02  0.27810218877E+02  0.40659104508E+02  0.00000000000E+00 0. -1.
         11    1    3    3    0    0 -0.11027332649E+02  0.39423913482E+00 -0.25142368478E+00  0.11037241683E+02  0.51100000000E-03 0. -1.
        -11    1    3    3    0    0 -0.35888204357E+01 -0.28120227337E+01 -0.13034878513E+02  0.13809241908E+02  0.51100000000E-03 0.  1.
         12    1    3    3    0    0 -0.37926209267E+01 -0.20838861577E+02 -0.14523916679E+02  0.25682411900E+02  0.00000000000E+00 0. -1.
</event>
<event>
 7    1  0.3331850E-011  0.5052886E+02  0.7816164E-02  0.1300439E+00
        -11   -1    0    0    0    0  0.00000000000E+00  0.00000000000E+00  0.45593999997E+02  0.45594000000E+02  0.51100000000E-03 0.  1.
         11   -1    0    0    0    0 -0.00000000000E+00 -0.00000000000E+00 -0.45593999997E+02  0.45594000000E+02  0.51100000000E-03 0. -1.
    9900012    2    1    2    0    0  0.39248233677E+02  0.56049096768E+00  0.10603209289E+02  0.50528855345E+02  0.29999986306E+02 0.  0.
         12    1    1    2    0    0 -0.39248233677E+02 -0.56049096768E+00 -0.10603209289E+02  0.40659144655E+02  0.00000000000E+00 0. -1.
         11    1    3    3    0    0  0.34087089616E+02  0.68753011246E+01  0.10286362213E+02  0.36263048574E+02  0.51100000000E-03 0. -1.
        -11    1    3    3    0    0  0.83069233408E+01 -0.14374479580E+01 -0.25209961691E+00  0.84341440881E+01  0.51100000000E-03 0.  1.
         12    1    3    3    0    0 -0.31457792805E+01 -0.48773621989E+01  0.56894669321E+00  0.58316626823E+01  0.00000000000E+00 0. -1.
</event>
<event>
 7    1  0.3331850E-011  0.5052890E+02  0.7816164E-02  0.1300439E+00
        -11   -1    0    0    0    0  0.00000000000E+00  0.00000000000E+00  0.45593999997E+02  0.45594000000E+02  0.51100000000E-03 0.  1.
         11   -1    0    0    0    0 -0.00000000000E+00 -0.00000000000E+00 -0.45593999997E+02  0.45594000000E+02  0.51100000000E-03 0. -1.
    9900012    2    1    2    0    0 -0.40510779861E+02  0.32721694647E+01  0.11540781789E+01  0.50528901702E+02  0.30000127213E+02 0.  0.
         12    1    1    2    0    0  0.40510779861E+02 -0.32721694647E+01 -0.11540781789E+01  0.40659098298E+02  0.00000000000E+00 0. -1.
         11    1    3    3    0    0 -0.20983269104E+02 -0.32199335275E+01 -0.10351130248E+02  0.23618032345E+02  0.51100000000E-03 0. -1.
        -11    1    3    3    0    0 -0.10764383255E+02  0.77813749860E+01  0.12214041899E+01  0.13338424644E+02  0.51100000000E-03 0.  1.
        -12    1    3    3    0    0 -0.87631275025E+01 -0.12892719938E+01  0.10283804237E+02  0.13572444713E+02  0.00000000000E+00 0.  1.
</event>
<event>
 7    1  0.3331850E-011  0.5052886E+02  0.7816164E-02  0.1300439E+00
        -11   -1    0    0    0    0  0.00000000000E+00  0.00000000000E+00  0.45593999997E+02  0.45594000000E+02  0.51100000000E-03 0.  1.
         11   -1    0    0    0    0 -0.00000000000E+00 -0.00000000000E+00 -0.45593999997E+02  0.45594000000E+02  0.51100000000E-03 0. -1.
    9900012    2    1    2    0    0 -0.34346397999E+02  0.16133302945E+02  0.14601602359E+02  0.50528864361E+02  0.30000013712E+02 0.  0.
         12    1    1    2    0    0  0.34346397999E+02 -0.16133302945E+02 -0.14601602359E+02  0.40659135639E+02  0.00000000000E+00 0. -1.
         11    1    3    3    0    0 -0.86562057470E+01  0.22438071562E+01 -0.17048726121E+00  0.89439160693E+01  0.51100000000E-03 0. -1.
        -11    1    3    3    0    0 -0.29215904228E+02  0.85341625819E+01  0.65072879761E+01  0.31124681330E+02  0.51100000000E-03 0.  1.
         12    1    3    3    0    0  0.35257119755E+01  0.53553332066E+01  0.82648016446E+01  0.10460266962E+02  0.00000000000E+00 0. -1.
</event>
<event>
 7    1  0.3331850E-011  0.5052887E+02  0.7816164E-02  0.1300439E+00
        -11   -1    0    0    0    0  0.00000000000E+00  0.00000000000E+00  0.45593999997E+02  0.45594000000E+02  0.51100000000E-03 0. -1.
         11   -1    0    0    0    0 -0.00000000000E+00 -0.00000000000E+00 -0.45593999997E+02  0.45594000000E+02  0.51100000000E-03 0.  1.
    9900012    2    1    2    0    0 -0.15643956195E+02 -0.37163448945E+02 -0.52258820680E+01  0.50528866385E+02  0.30000019864E+02 0.  0.
         12    1    1    2    0    0  0.15643956195E+02  0.37163448945E+02  0.52258820680E+01  0.40659133615E+02  0.00000000000E+00 0. -1.
         11    1    3    3    0    0 -0.16947854086E+01  0.74856591516E+00 -0.44828413014E+01  0.48506200537E+01  0.51100000000E-03 0. -1.
        -11    1    3    3    0    0 -0.13061222723E+02 -0.92826676858E+01 -0.48510463335E+01  0.16742046147E+02  0.51100000000E-03 0.  1.
        -12    1    3    3    0    0 -0.88794806366E+00 -0.28629347174E+02  0.41080055668E+01  0.28936200185E+02  0.00000000000E+00 0.  1.
</event>
<event>
 7    1  0.3331850E-011  0.5052888E+02  0.7816164E-02  0.1300439E+00
        -11   -1    0    0    0    0  0.00000000000E+00  0.00000000000E+00  0.45593999997E+02  0.45594000000E+02  0.51100000000E-03 0.  1.
         11   -1    0    0    0    0 -0.00000000000E+00 -0.00000000000E+00 -0.45593999997E+02  0.45594000000E+02  0.51100000000E-03 0. -1.
    9900012    2    1    2    0    0  0.17961545187E+02 -0.33232475047E+02  0.15038264600E+02  0.50528881645E+02  0.30000066247E+02 0.  0.
         12    1    1    2    0    0 -0.17961545187E+02  0.33232475047E+02 -0.15038264600E+02  0.40659118355E+02  0.00000000000E+00 0. -1.
         11    1    3    3    0    0 -0.56086354634E+01 -0.58391678010E+01  0.63852292833E+01  0.10311344511E+02  0.51100000000E-03 0. -1.
        -11    1    3    3    0    0  0.15075855330E+01 -0.10849867884E+02  0.60628766502E+01  0.12520020798E+02  0.51100000000E-03 0.  1.
        -12    1    3    3    0    0  0.22062595118E+02 -0.16543439362E+02  0.25901586665E+01  0.27697516336E+02  0.00000000000E+00 0.  1.
</event>
<event>
 7    1  0.3331850E-011  0.5052892E+02  0.7816164E-02  0.1300439E+00
        -11   -1    0    0    0    0  0.00000000000E+00  0.00000000000E+00  0.45593999997E+02  0.45594000000E+02  0.51100000000E-03 0. -1.
         11   -1    0    0    0    0 -0.00000000000E+00 -0.00000000000E+00 -0.45593999997E+02  0.45594000000E+02  0.51100000000E-03 0.  1.
    9900012    2    1    2    0    0  0.33618060924E+02 -0.39599655247E+01 -0.22523441324E+02  0.50528920371E+02  0.30000183958E+02 0.  0.
         12    1    1    2    0    0 -0.33618060924E+02  0.39599655247E+01  0.22523441324E+02  0.40659079629E+02  0.00000000000E+00 0. -1.
         11    1    3    3    0    0 -0.12916427908E+01 -0.23828415346E+01  0.11122088389E+01  0.29297241578E+01  0.51100000000E-03 0.  1.
        -11    1    3    3    0    0  0.30286784846E+00 -0.60145279572E+01 -0.12660911640E+01  0.61538006612E+01  0.51100000000E-03 0. -1.
        -12    1    3    3    0    0  0.34606835866E+02  0.44374039671E+01 -0.22369558999E+02  0.41445395552E+02  0.00000000000E+00 0.  1.
</event>
<event>
 7    1  0.3331850E-011  0.5052888E+02  0.7816164E-02  0.1300439E+00
        -11   -1    0    0    0    0  0.00000000000E+00  0.00000000000E+00  0.45593999997E+02  0.45594000000E+02  0.51100000000E-03 0.  1.
         11   -1    0    0    0    0 -0.00000000000E+00 -0.00000000000E+00 -0.45593999997E+02  0.45594000000E+02  0.51100000000E-03 0. -1.
    9900012    2    1    2    0    0  0.19024339288E+02  0.11721078101E+02  0.33968439024E+02  0.50528880397E+02  0.30000062454E+02 0.  0.
         12    1    1    2    0    0 -0.19024339288E+02 -0.11721078101E+02 -0.33968439024E+02  0.40659119603E+02  0.00000000000E+00 0. -1.
         11    1    3    3    0    0  0.91068071582E+00 -0.49715275389E+01  0.21350096534E+02  0.21940192518E+02  0.51100000000E-03 0. -1.
        -11    1    3    3    0    0  0.36409560410E+01  0.18697657155E+01  0.51244286151E+01  0.65583804111E+01  0.51100000000E-03 0.  1.
         12    1    3    3    0    0  0.14472702532E+02  0.14822839924E+02  0.74939138748E+01  0.22030307468E+02  0.00000000000E+00 0. -1.
</event>
<event>
 7    1  0.3331850E-011  0.5052878E+02  0.7816164E-02  0.1300439E+00
        -11   -1    0    0    0    0  0.00000000000E+00  0.00000000000E+00  0.45593999997E+02  0.45594000000E+02  0.51100000000E-03 0.  1.
         11   -1    0    0    0    0 -0.00000000000E+00 -0.00000000000E+00 -0.45593999997E+02  0.45594000000E+02  0.51100000000E-03 0. -1.
    9900012    2    1    2    0    0  0.37892625101E+02 -0.10278336893E+02  0.10567716395E+02  0.50528783626E+02  0.29999768310E+02 0.  0.
         12    1    1    2    0    0 -0.37892625101E+02  0.10278336893E+02 -0.10567716395E+02  0.40659216374E+02  0.00000000000E+00 0. -1.
         11    1    3    3    0    0  0.32025311158E+02  0.15033646816E+01  0.91843442568E+01  0.33350155019E+02  0.51100000000E-03 0. -1.
        -11    1    3    3    0    0  0.68765490066E+01 -0.36813582975E+01  0.37848459079E+01  0.86697395556E+01  0.51100000000E-03 0.  1.
         12    1    3    3    0    0 -0.10092350635E+01 -0.81003432773E+01 -0.24014737698E+01  0.85088890515E+01  0.00000000000E+00 0. -1.
</event>
<event>
 7    1  0.3331850E-011  0.5052887E+02  0.7816164E-02  0.1300439E+00
        -11   -1    0    0    0    0  0.00000000000E+00  0.00000000000E+00  0.45593999997E+02  0.45594000000E+02  0.51100000000E-03 0.  1.
         11   -1    0    0    0    0 -0.00000000000E+00 -0.00000000000E+00 -0.45593999997E+02  0.45594000000E+02  0.51100000000E-03 0. -1.
    9900012    2    1    2    0    0  0.37401888019E+02 -0.10804755641E+02  0.11726930770E+02  0.50528869696E+02  0.30000029927E+02 0.  0.
         12    1    1    2    0    0 -0.37401888019E+02  0.10804755641E+02 -0.11726930770E+02  0.40659130304E+02  0.00000000000E+00 0. -1.
         11    1    3    3    0    0  0.16655659482E+02  0.18294405745E+01  0.12651091981E+02  0.20995427459E+02  0.51100000000E-03 0. -1.
        -11    1    3    3    0    0  0.29471440134E+01  0.40199049969E+01  0.99365704118E+00  0.50825828667E+01  0.51100000000E-03 0.  1.
         12    1    3    3    0    0  0.17799084523E+02 -0.16654101213E+02 -0.19178182531E+01  0.24450859370E+02  0.00000000000E+00 0. -1.
</event>
<event>
 7    1  0.3331850E-011  0.5052873E+02  0.7816164E-02  0.1300439E+00
        -11   -1    0    0    0    0  0.00000000000E+00  0.00000000000E+00  0.45593999997E+02  0.45594000000E+02  0.51100000000E-03 0.  1.
         11   -1    0    0    0    0 -0.00000000000E+00 -0.00000000000E+00 -0.45593999997E+02  0.45594000000E+02  0.51100000000E-03 0. -1.
    9900012    2    1    2    0    0 -0.19370386588E+02 -0.21837914693E+02  0.28303174517E+02  0.50528731900E+02  0.29999611080E+02 0.  0.
         12    1    1    2    0    0  0.19370386588E+02  0.21837914693E+02 -0.28303174517E+02  0.40659268100E+02  0.00000000000E+00 0. -1.
         11    1    3    3    0    0 -0.72016850123E+01 -0.20933900702E+02  0.20905453706E+02  0.30448817063E+02  0.51100000000E-03 0. -1.
        -11    1    3    3    0    0 -0.26812188301E+01 -0.69274248645E+01  0.30590825382E+01  0.80334386103E+01  0.51100000000E-03 0.  1.
         12    1    3    3    0    0 -0.94874827460E+01  0.60234108738E+01  0.43386382719E+01  0.12046476226E+02  0.00000000000E+00 0. -1.
</event>
<event>
 7    1  0.3331850E-011  0.5052887E+02  0.7816164E-02  0.1300439E+00
        -11   -1    0    0    0    0  0.00000000000E+00  0.00000000000E+00  0.45593999997E+02  0.45594000000E+02  0.51100000000E-03 0. -1.
         11   -1    0    0    0    0 -0.00000000000E+00 -0.00000000000E+00 -0.45593999997E+02  0.45594000000E+02  0.51100000000E-03 0.  1.
    9900012    2    1    2    0    0  0.53786334266E+00 -0.37916791128E+02 -0.14669450698E+02  0.50528866583E+02  0.30000020465E+02 0.  0.
         12    1    1    2    0    0 -0.53786334266E+00  0.37916791128E+02  0.14669450698E+02  0.40659133417E+02  0.00000000000E+00 0. -1.
         11    1    3    3    0    0 -0.10953860822E+02 -0.12527109734E+02 -0.11621497994E+02  0.20297161405E+02  0.51100000000E-03 0. -1.
        -11    1    3    3    0    0 -0.13157638634E-01  0.80741714288E-01 -0.22711886480E+01  0.22726615419E+01  0.51100000000E-03 0.  1.
        -12    1    3    3    0    0  0.11504881804E+02 -0.25470423109E+02 -0.77676405606E+00  0.27959043636E+02  0.00000000000E+00 0.  1.
</event>
<event>
 7    1  0.3331850E-011  0.5052887E+02  0.7816164E-02  0.1300439E+00
        -11   -1    0    0    0    0  0.00000000000E+00  0.00000000000E+00  0.45593999997E+02  0.45594000000E+02  0.51100000000E-03 0.  1.
         11   -1    0    0    0    0 -0.00000000000E+00 -0.00000000000E+00 -0.45593999997E+02  0.45594000000E+02  0.51100000000E-03 0. -1.
    9900012    2    1    2    0    0  0.10201439608E+02 -0.31389790284E+02  0.23743986812E+02  0.50528865554E+02  0.30000017339E+02 0.  0.
         12    1    1    2    0    0 -0.10201439608E+02  0.31389790284E+02 -0.23743986812E+02  0.40659134446E+02  0.00000000000E+00 0. -1.
         11    1    3    3    0    0 -0.75639548594E+00  0.10870236333E+01 -0.17875372106E+01  0.22246447022E+01  0.51100000000E-03 0. -1.
        -11    1    3    3    0    0  0.16215298270E+02 -0.26940154408E+02  0.25786052976E+02  0.40664829347E+02  0.51100000000E-03 0.  1.
         12    1    3    3    0    0 -0.52574631766E+01 -0.55366595092E+01 -0.25452895347E+00  0.76393915048E+01  0.00000000000E+00 0. -1.
</event>
<event>
 7    1  0.3331850E-011  0.5052887E+02  0.7816164E-02  0.1300439E+00
        -11   -1    0    0    0    0  0.00000000000E+00  0.00000000000E+00  0.45593999997E+02  0.45594000000E+02  0.51100000000E-03 0. -1.
         11   -1    0    0    0    0 -0.00000000000E+00 -0.00000000000E+00 -0.45593999997E+02  0.45594000000E+02  0.51100000000E-03 0.  1.
    9900012    2    1    2    0    0  0.25864467890E+02 -0.17377145411E+02 -0.26119518299E+02  0.50528866732E+02  0.30000020920E+02 0.  0.
         12    1    1    2    0    0 -0.25864467890E+02  0.17377145411E+02  0.26119518299E+02  0.40659133268E+02  0.00000000000E+00 0. -1.
         11    1    3    3    0    0  0.44585860144E+01  0.22515658207E+01 -0.54869357182E+01  0.74199057763E+01  0.51100000000E-03 0. -1.
        -11    1    3    3    0    0  0.14923067256E+02  0.16524699368E+01 -0.12096128560E+02  0.19280687737E+02  0.51100000000E-03 0.  1.
         12    1    3    3    0    0  0.64828146197E+01 -0.21281181169E+02 -0.85364540211E+01  0.23828273219E+02  0.00000000000E+00 0. -1.
</event>
<event>
 7    1  0.3331850E-011  0.5052887E+02  0.7816164E-02  0.1300439E+00
        -11   -1    0    0    0    0  0.00000000000E+00  0.00000000000E+00  0.45593999997E+02  0.45594000000E+02  0.51100000000E-03 0.  1.
         11   -1    0    0    0    0 -0.00000000000E+00 -0.00000000000E+00 -0.45593999997E+02  0.45594000000E+02  0.51100000000E-03 0. -1.
    9900012    2    1    2    0    0 -0.26943962768E+02 -0.30359916817E+02 -0.23374080330E+01  0.50528866277E+02  0.30000019535E+02 0.  0.
         12    1    1    2    0    0  0.26943962768E+02  0.30359916817E+02  0.23374080330E+01  0.40659133723E+02  0.00000000000E+00 0. -1.
         11    1    3    3    0    0  0.21298008430E+01 -0.12170449514E+01  0.11795731639E+01  0.27218822816E+01  0.51100000000E-03 0. -1.
        -11    1    3    3    0    0 -0.39606578006E+01 -0.19841926884E+02  0.24172507232E+01  0.20377241570E+02  0.51100000000E-03 0.  1.
        -12    1    3    3    0    0 -0.25113105811E+02 -0.93009449818E+01 -0.59342319201E+01  0.27429742425E+02  0.00000000000E+00 0.  1.
</event>
<event>
 7    1  0.3331850E-011  0.5052885E+02  0.7816164E-02  0.1300439E+00
        -11   -1    0    0    0    0  0.00000000000E+00  0.00000000000E+00  0.45593999997E+02  0.45594000000E+02  0.51100000000E-03 0.  1.
         11   -1    0    0    0    0 -0.00000000000E+00 -0.00000000000E+00 -0.45593999997E+02  0.45594000000E+02  0.51100000000E-03 0. -1.
    9900012    2    1    2    0    0  0.26710487170E+02  0.29525142076E+02  0.82451236448E+01  0.50528853386E+02  0.29999980353E+02 0.  0.
         12    1    1    2    0    0 -0.26710487170E+02 -0.29525142076E+02 -0.82451236448E+01  0.40659146614E+02  0.00000000000E+00 0. -1.
         11    1    3    3    0    0  0.76766383185E+01  0.74332892463E+01  0.19445064244E+01  0.10861200228E+02  0.51100000000E-03 0.  1.
        -11    1    3    3    0    0  0.75513605598E+01  0.25233878694E+02  0.31150354677E+00  0.26341387871E+02  0.51100000000E-03 0. -1.
        -12    1    3    3    0    0  0.11482488292E+02 -0.31420258650E+01  0.59891136736E+01  0.13326265287E+02  0.00000000000E+00 0.  1.
</event>
<event>
 7    1  0.3331850E-011  0.5052886E+02  0.7816164E-02  0.1300439E+00
        -11   -1    0    0    0    0  0.00000000000E+00  0.00000000000E+00  0.45593999997E+02  0.45594000000E+02  0.51100000000E-03 0.  1.
         11   -1    0    0    0    0 -0.00000000000E+00 -0.00000000000E+00 -0.45593999997E+02  0.45594000000E+02  0.51100000000E-03 0. -1.
    9900012    2    1    2    0    0 -0.32581509376E+01 -0.11953589683E+02  0.38725466335E+02  0.50528860847E+02  0.30000003030E+02 0.  0.
         12    1    1    2    0    0  0.32581509376E+01  0.11953589683E+02 -0.38725466335E+02  0.40659139153E+02  0.00000000000E+00 0. -1.
         11    1    3    3    0    0 -0.52041453521E+01  0.13481777390E+00  0.16115183464E+02  0.16935183584E+02  0.51100000000E-03 0. -1.
        -11    1    3    3    0    0 -0.22511825064E+01 -0.17656791630E+02  0.17374815195E+02  0.24873968656E+02  0.51100000000E-03 0.  1.
         12    1    3    3    0    0  0.41971769208E+01  0.55683841739E+01  0.52354676757E+01  0.87197086072E+01  0.00000000000E+00 0. -1.
</event>
<event>
 7    1  0.3331850E-011  0.5052886E+02  0.7816164E-02  0.1300439E+00
        -11   -1    0    0    0    0  0.00000000000E+00  0.00000000000E+00  0.45593999997E+02  0.45594000000E+02  0.51100000000E-03 0. -1.
         11   -1    0    0    0    0 -0.00000000000E+00 -0.00000000000E+00 -0.45593999997E+02  0.45594000000E+02  0.51100000000E-03 0.  1.
    9900012    2    1    2    0    0  0.21915408664E+02  0.54128077458E+01 -0.33816889650E+02  0.50528860189E+02  0.30000001030E+02 0.  0.
         12    1    1    2    0    0 -0.21915408664E+02 -0.54128077458E+01  0.33816889650E+02  0.40659139811E+02  0.00000000000E+00 0. -1.
         11    1    3    3    0    0  0.14171948220E+02  0.32041823235E+01 -0.12445966322E+02  0.19131465670E+02  0.51100000000E-03 0. -1.
        -11    1    3    3    0    0  0.13741658407E+02  0.55965550869E+01 -0.19010357683E+02  0.24115312648E+02  0.51100000000E-03 0.  1.
        -12    1    3    3    0    0 -0.59981979630E+01 -0.33879296646E+01 -0.23605656444E+01  0.72820818711E+01  0.00000000000E+00 0.  1.
</event>
<event>
 7    1  0.3331850E-011  0.5052886E+02  0.7816164E-02  0.1300439E+00
        -11   -1    0    0    0    0  0.00000000000E+00  0.00000000000E+00  0.45593999997E+02  0.45594000000E+02  0.51100000000E-03 0.  1.
         11   -1    0    0    0    0 -0.00000000000E+00 -0.00000000000E+00 -0.45593999997E+02  0.45594000000E+02  0.51100000000E-03 0. -1.
    9900012    2    1    2    0    0  0.24388512009E+01  0.38606525556E+02  0.12520133494E+02  0.50528861379E+02  0.30000004648E+02 0.  0.
         12    1    1    2    0    0 -0.24388512009E+01 -0.38606525556E+02 -0.12520133494E+02  0.40659138621E+02  0.00000000000E+00 0. -1.
         11    1    3    3    0    0  0.41063505632E+01  0.24031965396E+02  0.43153256626E+01  0.24759230836E+02  0.51100000000E-03 0. -1.
        -11    1    3    3    0    0 -0.26986025259E+01  0.19271189560E+02  0.77278662623E+01  0.20937552863E+02  0.51100000000E-03 0.  1.
         12    1    3    3    0    0  0.10311031636E+01 -0.46966293998E+01  0.47694156911E+00  0.48320776808E+01  0.00000000000E+00 0. -1.
</event>
<event>
 7    1  0.3331850E-011  0.5052887E+02  0.7816164E-02  0.1300439E+00
        -11   -1    0    0    0    0  0.00000000000E+00  0.00000000000E+00  0.45593999997E+02  0.45594000000E+02  0.51100000000E-03 0.  1.
         11   -1    0    0    0    0 -0.00000000000E+00 -0.00000000000E+00 -0.45593999997E+02  0.45594000000E+02  0.51100000000E-03 0. -1.
    9900012    2    1    2    0    0 -0.31543509494E+02 -0.22496837921E+02 -0.12331439959E+02  0.50528866720E+02  0.30000020883E+02 0.  0.
         12    1    1    2    0    0  0.31543509494E+02  0.22496837921E+02  0.12331439959E+02  0.40659133280E+02  0.00000000000E+00 0. -1.
         11    1    3    3    0    0 -0.13106253071E+02 -0.16400634660E+02 -0.19587418921E+01  0.21085335114E+02  0.51100000000E-03 0. -1.
        -11    1    3    3    0    0 -0.58775081597E+01 -0.12192617968E+02 -0.41399806631E+01  0.14154309423E+02  0.51100000000E-03 0.  1.
         12    1    3    3    0    0 -0.12559748263E+02  0.60964147083E+01 -0.62327174034E+01  0.15289222183E+02  0.00000000000E+00 0. -1.
</event>
<event>
 7    1  0.3331850E-011  0.5052887E+02  0.7816164E-02  0.1300439E+00
        -11   -1    0    0    0    0  0.00000000000E+00  0.00000000000E+00  0.45593999997E+02  0.45594000000E+02  0.51100000000E-03 0.  1.
         11   -1    0    0    0    0 -0.00000000000E+00 -0.00000000000E+00 -0.45593999997E+02  0.45594000000E+02  0.51100000000E-03 0. -1.
    9900012    2    1    2    0    0  0.19284343616E+02 -0.20658543211E+02  0.29231894584E+02  0.50528868464E+02  0.30000026183E+02 0.  0.
         12    1    1    2    0    0 -0.19284343616E+02  0.20658543211E+02 -0.29231894584E+02  0.40659131536E+02  0.00000000000E+00 0. -1.
         11    1    3    3    0    0  0.15300871662E+02 -0.16134201850E+02  0.26404269596E+02  0.34519771090E+02  0.51100000000E-03 0. -1.
        -11    1    3    3    0    0 -0.11394868763E+00 -0.73324195039E+01  0.65256567077E+01  0.98163921994E+01  0.51100000000E-03 0.  1.
         12    1    3    3    0    0  0.40974206419E+01  0.28080781435E+01 -0.36980317197E+01  0.61927051743E+01  0.00000000000E+00 0. -1.
</event>
<event>
 7    1  0.4495876E-011  0.5052885E+02  0.7816164E-02  0.1300439E+00
        -11   -1    0    0    0    0  0.00000000000E+00  0.00000000000E+00  0.45593999997E+02  0.45594000000E+02  0.51100000000E-03 0. -1.
         11   -1    0    0    0    0 -0.00000000000E+00 -0.00000000000E+00 -0.45593999997E+02  0.45594000000E+02  0.51100000000E-03 0.  1.
    9900012    2    1    2    0    0  0.27377776793E+02 -0.81078159550E+01 -0.28946281757E+02  0.50528848887E+02  0.29999966677E+02 0.  0.
         12    1    1    2    0    0 -0.27377776793E+02  0.81078159550E+01  0.28946281757E+02  0.40659151113E+02  0.00000000000E+00 0. -1.
         11    1    3    3    0    0  0.22138575461E+01 -0.30208505833E+01 -0.95171885282E+01  0.10227589219E+02  0.51100000000E-03 0. -1.
        -11    1    3    3    0    0  0.16175084549E+02  0.11832334689E+01 -0.23548390800E+02  0.28593008082E+02  0.51100000000E-03 0.  1.
         12    1    3    3    0    0  0.89888346981E+01 -0.62701988406E+01  0.41192975719E+01  0.11708251587E+02  0.00000000000E+00 0. -1.
</event>
<event>
 7    1  0.3331850E-011  0.5052886E+02  0.7816164E-02  0.1300439E+00
        -11   -1    0    0    0    0  0.00000000000E+00  0.00000000000E+00  0.45593999997E+02  0.45594000000E+02  0.51100000000E-03 0.  1.
         11   -1    0    0    0    0 -0.00000000000E+00 -0.00000000000E+00 -0.45593999997E+02  0.45594000000E+02  0.51100000000E-03 0. -1.
    9900012    2    1    2    0    0 -0.55177999648E+01 -0.35885373987E+02  0.18301906495E+02  0.50528856330E+02  0.29999989301E+02 0.  0.
         12    1    1    2    0    0  0.55177999648E+01  0.35885373987E+02 -0.18301906495E+02  0.40659143670E+02  0.00000000000E+00 0. -1.
         11    1    3    3    0    0 -0.63453950917E+01 -0.42954886339E+01  0.61454260905E+01  0.98225008816E+01  0.51100000000E-03 0. -1.
        -11    1    3    3    0    0 -0.17870042356E+01  0.16092964317E+01 -0.32257040477E+01  0.40234793410E+01  0.51100000000E-03 0.  1.
        -12    1    3    3    0    0  0.26145993625E+01 -0.33199181785E+02  0.15382184452E+02  0.36682876107E+02  0.00000000000E+00 0.  1.
</event>
<event>
 7    1  0.3331850E-011  0.5052887E+02  0.7816164E-02  0.1300439E+00
        -11   -1    0    0    0    0  0.00000000000E+00  0.00000000000E+00  0.45593999997E+02  0.45594000000E+02  0.51100000000E-03 0.  1.
         11   -1    0    0    0    0 -0.00000000000E+00 -0.00000000000E+00 -0.45593999997E+02  0.45594000000E+02  0.51100000000E-03 0. -1.
    9900012    2    1    2    0    0  0.32507750736E+01 -0.35521719137E+02  0.19514221949E+02  0.50528869079E+02  0.30000028052E+02 0.  0.
         12    1    1    2    0    0 -0.32507750736E+01  0.35521719137E+02 -0.19514221949E+02  0.40659130921E+02  0.00000000000E+00 0. -1.
         11    1    3    3    0    0  0.83854888616E+01 -0.11324656637E+02  0.37001357949E+01  0.14568983375E+02  0.51100000000E-03 0. -1.
        -11    1    3    3    0    0  0.39640097438E+01 -0.22333894056E+02  0.88367834745E+01  0.24343478375E+02  0.51100000000E-03 0.  1.
        -12    1    3    3    0    0 -0.90987235319E+01 -0.18631684428E+01  0.69773026794E+01  0.11616407329E+02  0.00000000000E+00 0.  1.
</event>
<event>
 7    1  0.3331850E-011  0.5052886E+02  0.7816164E-02  0.1300439E+00
        -11   -1    0    0    0    0  0.00000000000E+00  0.00000000000E+00  0.45593999997E+02  0.45594000000E+02  0.51100000000E-03 0. -1.
         11   -1    0    0    0    0 -0.00000000000E+00 -0.00000000000E+00 -0.45593999997E+02  0.45594000000E+02  0.51100000000E-03 0.  1.
    9900012    2    1    2    0    0 -0.20449177932E+02  0.27271799033E+02 -0.22164066724E+02  0.50528858908E+02  0.29999997136E+02 0.  0.
         12    1    1    2    0    0  0.20449177932E+02 -0.27271799033E+02  0.22164066724E+02  0.40659141092E+02  0.00000000000E+00 0. -1.
         11    1    3    3    0    0 -0.55415472670E+01 -0.54737790318E+01 -0.27950619309E+01  0.82754682320E+01  0.51100000000E-03 0. -1.
        -11    1    3    3    0    0 -0.78927879601E+00  0.63519578063E+00 -0.36990243340E+01  0.38352595717E+01  0.51100000000E-03 0.  1.
        -12    1    3    3    0    0 -0.14118351869E+02  0.32110382285E+02 -0.15669980459E+02  0.38418131104E+02  0.00000000000E+00 0.  1.
</event>
<event>
 7    1  0.3331850E-011  0.5052886E+02  0.7816164E-02  0.1300439E+00
        -11   -1    0    0    0    0  0.00000000000E+00  0.00000000000E+00  0.45593999997E+02  0.45594000000E+02  0.51100000000E-03 0. -1.
         11   -1    0    0    0    0 -0.00000000000E+00 -0.00000000000E+00 -0.45593999997E+02  0.45594000000E+02  0.51100000000E-03 0.  1.
    9900012    2    1    2    0    0 -0.34944092543E+02  0.61005390833E+01 -0.19871066641E+02  0.50528862402E+02  0.30000007757E+02 0.  0.
         12    1    1    2    0    0  0.34944092543E+02 -0.61005390833E+01  0.19871066641E+02  0.40659137598E+02  0.00000000000E+00 0. -1.
         11    1    3    3    0    0  0.33906422569E+01  0.16476233812E+00 -0.62537016131E+01  0.71156437284E+01  0.51100000000E-03 0. -1.
        -11    1    3    3    0    0 -0.41484157281E+01 -0.86331316968E+00 -0.66230204249E+01  0.78625099359E+01  0.51100000000E-03 0.  1.
         12    1    3    3    0    0 -0.34186319071E+02  0.67990899149E+01 -0.69943446034E+01  0.35550708738E+02  0.00000000000E+00 0. -1.
</event>
<event>
 7    1  0.3331850E-011  0.5052886E+02  0.7816164E-02  0.1300439E+00
        -11   -1    0    0    0    0  0.00000000000E+00  0.00000000000E+00  0.45593999997E+02  0.45594000000E+02  0.51100000000E-03 0.  1.
         11   -1    0    0    0    0 -0.00000000000E+00 -0.00000000000E+00 -0.45593999997E+02  0.45594000000E+02  0.51100000000E-03 0. -1.
    9900012    2    1    2    0    0  0.45149960908E+01 -0.13462317398E+01  0.40385250822E+02  0.50528855721E+02  0.29999987449E+02 0.  0.
         12    1    1    2    0    0 -0.45149960908E+01  0.13462317398E+01 -0.40385250822E+02  0.40659144279E+02  0.00000000000E+00 0. -1.
         11    1    3    3    0    0  0.17548077041E+01  0.21149204045E+01  0.10508408718E+02  0.10861808894E+02  0.51100000000E-03 0. -1.
        -11    1    3    3    0    0  0.73167707840E+01 -0.16535495721E+01  0.33008472687E+02  0.33850090551E+02  0.51100000000E-03 0.  1.
         12    1    3    3    0    0 -0.45565823973E+01 -0.18076025722E+01 -0.31316305839E+01  0.58169562760E+01  0.00000000000E+00 0. -1.
</event>
<event>
 7    1  0.3340381E-011  0.5052886E+02  0.7816164E-02  0.1300439E+00
        -11   -1    0    0    0    0  0.00000000000E+00  0.00000000000E+00  0.45593999997E+02  0.45594000000E+02  0.51100000000E-03 0. -1.
         11   -1    0    0    0    0 -0.00000000000E+00 -0.00000000000E+00 -0.45593999997E+02  0.45594000000E+02  0.51100000000E-03 0.  1.
    9900012    2    1    2    0    0  0.12624719431E+02 -0.71185231886E+01 -0.37988268181E+02  0.50528862866E+02  0.30000009168E+02 0.  0.
         12    1    1    2    0    0 -0.12624719431E+02  0.71185231886E+01  0.37988268181E+02  0.40659137134E+02  0.00000000000E+00 0. -1.
         11    1    3    3    0    0  0.34692896637E+01  0.48918266728E+01 -0.12675749639E+01  0.61296562316E+01  0.51100000000E-03 0. -1.
        -11    1    3    3    0    0  0.14180636238E+02 -0.74559583670E+01 -0.16189084283E+02  0.22776483694E+02  0.51100000000E-03 0.  1.
        -12    1    3    3    0    0 -0.50252064704E+01 -0.45543914945E+01 -0.20531608934E+02  0.21622722940E+02  0.00000000000E+00 0.  1.
</event>
<event>
 7    1  0.3331850E-011  0.5052886E+02  0.7816164E-02  0.1300439E+00
        -11   -1    0    0    0    0  0.00000000000E+00  0.00000000000E+00  0.45593999997E+02  0.45594000000E+02  0.51100000000E-03 0.  1.
         11   -1    0    0    0    0 -0.00000000000E+00 -0.00000000000E+00 -0.45593999997E+02  0.45594000000E+02  0.51100000000E-03 0. -1.
    9900012    2    1    2    0    0 -0.25302388865E+02  0.12133467882E+02  0.29423349733E+02  0.50528862839E+02  0.30000009086E+02 0.  0.
         12    1    1    2    0    0  0.25302388865E+02 -0.12133467882E+02 -0.29423349733E+02  0.40659137161E+02  0.00000000000E+00 0. -1.
         11    1    3    3    0    0  0.19007369822E+01  0.91382036894E+00  0.47592107042E+01  0.52055696643E+01  0.51100000000E-03 0.  1.
        -11    1    3    3    0    0 -0.26307996315E+02  0.54859116859E+01  0.85580982458E+01  0.28203668964E+02  0.51100000000E-03 0. -1.
         12    1    3    3    0    0 -0.89512953178E+00  0.57337358273E+01  0.16106040783E+02  0.17119624211E+02  0.00000000000E+00 0. -1.
</event>
<event>
 7    1  0.3331850E-011  0.5052886E+02  0.7816164E-02  0.1300439E+00
        -11   -1    0    0    0    0  0.00000000000E+00  0.00000000000E+00  0.45593999997E+02  0.45594000000E+02  0.51100000000E-03 0. -1.
         11   -1    0    0    0    0 -0.00000000000E+00 -0.00000000000E+00 -0.45593999997E+02  0.45594000000E+02  0.51100000000E-03 0.  1.
    9900012    2    1    2    0    0  0.26251076419E+02 -0.13830711042E+02  0.27798529504E+02  0.50528858055E+02  0.29999994545E+02 0.  0.
         12    1    1    2    0    0 -0.26251076419E+02  0.13830711042E+02 -0.27798529504E+02  0.40659141945E+02  0.00000000000E+00 0. -1.
         11    1    3    3    0    0  0.53605401066E+01 -0.27371903462E+01  0.96758085677E+01  0.11395124963E+02  0.51100000000E-03 0. -1.
        -11    1    3    3    0    0  0.20051877675E+02 -0.18423812712E+02  0.15295643235E+02  0.31232537127E+02  0.51100000000E-03 0.  1.
         12    1    3    3    0    0  0.83865863804E+00  0.73302920165E+01  0.28270777008E+01  0.79011959655E+01  0.00000000000E+00 0. -1.
</event>
<event>
 7    1  0.3331850E-011  0.5052885E+02  0.7816164E-02  0.1300439E+00
        -11   -1    0    0    0    0  0.00000000000E+00  0.00000000000E+00  0.45593999997E+02  0.45594000000E+02  0.51100000000E-03 0. -1.
         11   -1    0    0    0    0 -0.00000000000E+00 -0.00000000000E+00 -0.45593999997E+02  0.45594000000E+02  0.51100000000E-03 0.  1.
    9900012    2    1    2    0    0 -0.36410501688E+02 -0.16257624422E+02  0.79455512212E+01  0.50528846428E+02  0.29999959201E+02 0.  0.
         12    1    1    2    0    0  0.36410501688E+02  0.16257624422E+02 -0.79455512212E+01  0.40659153572E+02  0.00000000000E+00 0. -1.
         11    1    3    3    0    0 -0.45614545868E+01 -0.52720976652E+01  0.78443306021E+01  0.10494541657E+02  0.51100000000E-03 0. -1.
        -11    1    3    3    0    0  0.26078301567E+01  0.15311216576E+01  0.14412997099E+01  0.33499935480E+01  0.51100000000E-03 0.  1.
        -12    1    3    3    0    0 -0.34456877258E+02 -0.12516648414E+02 -0.13400790908E+01  0.36684311222E+02  0.00000000000E+00 0.  1.
</event>
<event>
 7    1  0.3331850E-011  0.5052884E+02  0.7816164E-02  0.1300439E+00
        -11   -1    0    0    0    0  0.00000000000E+00  0.00000000000E+00  0.45593999997E+02  0.45594000000E+02  0.51100000000E-03 0.  1.
         11   -1    0    0    0    0 -0.00000000000E+00 -0.00000000000E+00 -0.45593999997E+02  0.45594000000E+02  0.51100000000E-03 0. -1.
    9900012    2    1    2    0    0 -0.18849266978E+02  0.14414520694E+02  0.33016572537E+02  0.50528839476E+02  0.29999938071E+02 0.  0.
         12    1    1    2    0    0  0.18849266978E+02 -0.14414520694E+02 -0.33016572537E+02  0.40659160524E+02  0.00000000000E+00 0. -1.
         11    1    3    3    0    0 -0.76707158400E+01  0.50197429995E+01  0.62135988588E+01  0.11074588585E+02  0.51100000000E-03 0. -1.
        -11    1    3    3    0    0 -0.17036540415E+02  0.12641626726E+02  0.15345534655E+02  0.26182816306E+02  0.51100000000E-03 0.  1.
        -12    1    3    3    0    0  0.58579892768E+01 -0.32468490316E+01  0.11457439022E+02  0.13271434585E+02  0.00000000000E+00 0.  1.
</event>
<event>
 7    1  0.3331850E-011  0.5052886E+02  0.7816164E-02  0.1300439E+00
        -11   -1    0    0    0    0  0.00000000000E+00  0.00000000000E+00  0.45593999997E+02  0.45594000000E+02  0.51100000000E-03 0.  1.
         11   -1    0    0    0    0 -0.00000000000E+00 -0.00000000000E+00 -0.45593999997E+02  0.45594000000E+02  0.51100000000E-03 0. -1.
    9900012    2    1    2    0    0 -0.14725126648E+02 -0.37755471260E+02 -0.32955719989E+01  0.50528858842E+02  0.29999996937E+02 0.  0.
         12    1    1    2    0    0  0.14725126648E+02  0.37755471260E+02  0.32955719989E+01  0.40659141158E+02  0.00000000000E+00 0. -1.
         11    1    3    3    0    0 -0.50608602470E+01 -0.12391757803E+02  0.71268152762E+01  0.15164414401E+02  0.51100000000E-03 0. -1.
        -11    1    3    3    0    0  0.41139337150E+01 -0.71076855455E+01  0.31187762002E+01  0.87846690133E+01  0.51100000000E-03 0.  1.
         12    1    3    3    0    0 -0.13778200116E+02 -0.18256027912E+02 -0.13541163475E+02  0.26579775428E+02  0.00000000000E+00 0. -1.
</event>
<event>
 7    1  0.3507595E-011  0.5052887E+02  0.7816164E-02  0.1300439E+00
        -11   -1    0    0    0    0  0.00000000000E+00  0.00000000000E+00  0.45593999997E+02  0.45594000000E+02  0.51100000000E-03 0. -1.
         11   -1    0    0    0    0 -0.00000000000E+00 -0.00000000000E+00 -0.45593999997E+02  0.45594000000E+02  0.51100000000E-03 0.  1.
    9900012    2    1    2    0    0  0.29959942310E+01  0.36451256104E+02 -0.17762170395E+02  0.50528871257E+02  0.30000034673E+02 0.  0.
         12    1    1    2    0    0 -0.29959942310E+01 -0.36451256104E+02  0.17762170395E+02  0.40659128743E+02  0.00000000000E+00 0. -1.
         11    1    3    3    0    0 -0.67431156343E+01  0.53017312616E+01 -0.10443006997E+02  0.13514227992E+02  0.51100000000E-03 0. -1.
        -11    1    3    3    0    0 -0.13125039070E+01  0.72344646738E+01 -0.77272230393E+01  0.10666307786E+02  0.51100000000E-03 0.  1.
         12    1    3    3    0    0  0.11051613772E+02  0.23915060168E+02  0.40805964124E+00  0.26348335479E+02  0.00000000000E+00 0. -1.
</event>
<event>
 7    1  0.3331850E-011  0.5052883E+02  0.7816164E-02  0.1300439E+00
        -11   -1    0    0    0    0  0.00000000000E+00  0.00000000000E+00  0.45593999997E+02  0.45594000000E+02  0.51100000000E-03 0.  1.
         11   -1    0    0    0    0 -0.00000000000E+00 -0.00000000000E+00 -0.45593999997E+02  0.45594000000E+02  0.51100000000E-03 0. -1.
    9900012    2    1    2    0    0  0.10286414560E+02 -0.24109215777E+02  0.31082199748E+02  0.50528834353E+02  0.29999922501E+02 0.  0.
         12    1    1    2    0    0 -0.10286414560E+02  0.24109215777E+02 -0.31082199748E+02  0.40659165647E+02  0.00000000000E+00 0. -1.
         11    1    3    3    0    0  0.22238671931E+01 -0.36378219841E+00  0.17889374592E+01  0.28771896487E+01  0.51100000000E-03 0. -1.
        -11    1    3    3    0    0 -0.39124393787E+01 -0.52866873052E+01  0.24185360514E+02  0.25063677065E+02  0.51100000000E-03 0.  1.
         12    1    3    3    0    0  0.11974986745E+02 -0.18458746274E+02  0.51079017745E+01  0.22587967640E+02  0.00000000000E+00 0. -1.
</event>
<event>
 7    1  0.3331850E-011  0.5052886E+02  0.7816164E-02  0.1300439E+00
        -11   -1    0    0    0    0  0.00000000000E+00  0.00000000000E+00  0.45593999997E+02  0.45594000000E+02  0.51100000000E-03 0.  1.
         11   -1    0    0    0    0 -0.00000000000E+00 -0.00000000000E+00 -0.45593999997E+02  0.45594000000E+02  0.51100000000E-03 0. -1.
    9900012    2    1    2    0    0  0.71968760369E+01 -0.21507070811E+02  0.33746359459E+02  0.50528857163E+02  0.29999991832E+02 0.  0.
         12    1    1    2    0    0 -0.71968760369E+01  0.21507070811E+02 -0.33746359459E+02  0.40659142837E+02  0.00000000000E+00 0. -1.
         11    1    3    3    0    0 -0.41328061953E+01 -0.33163764654E+00 -0.18538862278E+01  0.45416918636E+01  0.51100000000E-03 0. -1.
        -11    1    3    3    0    0  0.74066729537E+00 -0.44842590936E+00  0.14638722169E+02  0.14664305672E+02  0.51100000000E-03 0.  1.
        -12    1    3    3    0    0  0.10589014937E+02 -0.20727007255E+02  0.20961523517E+02  0.31322859627E+02  0.00000000000E+00 0.  1.
</event>
<event>
 7    1  0.3331850E-011  0.5052887E+02  0.7816164E-02  0.1300439E+00
        -11   -1    0    0    0    0  0.00000000000E+00  0.00000000000E+00  0.45593999997E+02  0.45594000000E+02  0.51100000000E-03 0.  1.
         11   -1    0    0    0    0 -0.00000000000E+00 -0.00000000000E+00 -0.45593999997E+02  0.45594000000E+02  0.51100000000E-03 0. -1.
    9900012    2    1    2    0    0  0.35238283089E+02 -0.14854356882E+02 -0.13812176536E+02  0.50528871455E+02  0.30000035274E+02 0.  0.
         12    1    1    2    0    0 -0.35238283089E+02  0.14854356882E+02  0.13812176536E+02  0.40659128545E+02  0.00000000000E+00 0. -1.
         11    1    3    3    0    0  0.58820119924E+01 -0.18367358278E+01  0.82753081747E+01  0.10317576713E+02  0.51100000000E-03 0. -1.
        -11    1    3    3    0    0  0.62768251636E+01 -0.11152369592E+01 -0.41631191378E+00  0.63887090621E+01  0.51100000000E-03 0.  1.
        -12    1    3    3    0    0  0.23079445932E+02 -0.11902384095E+02 -0.21671172797E+02  0.33822585680E+02  0.00000000000E+00 0.  1.
</event>
<event>
 7    1  0.3331850E-011  0.5052886E+02  0.7816164E-02  0.1300439E+00
        -11   -1    0    0    0    0  0.00000000000E+00  0.00000000000E+00  0.45593999997E+02  0.45594000000E+02  0.51100000000E-03 0. -1.
         11   -1    0    0    0    0 -0.00000000000E+00 -0.00000000000E+00 -0.45593999997E+02  0.45594000000E+02  0.51100000000E-03 0.  1.
    9900012    2    1    2    0    0 -0.93900177049E+01  0.36560682783E+02 -0.15109932175E+02  0.50528855784E+02  0.29999987642E+02 0.  0.
         12    1    1    2    0    0  0.93900177049E+01 -0.36560682783E+02  0.15109932175E+02  0.40659144216E+02  0.00000000000E+00 0. -1.
         11    1    3    3    0    0 -0.70850633771E+00  0.21415181946E+02  0.12916002399E+01  0.21465792099E+02  0.51100000000E-03 0. -1.
        -11    1    3    3    0    0  0.39474424661E+01  0.63685085718E+01 -0.97763248242E+01  0.12317334565E+02  0.51100000000E-03 0.  1.
        -12    1    3    3    0    0 -0.12628953833E+02  0.87769922649E+01 -0.66252075908E+01  0.16745729120E+02  0.00000000000E+00 0.  1.
</event>
<event>
 7    1  0.3331850E-011  0.5052888E+02  0.7816164E-02  0.1300439E+00
        -11   -1    0    0    0    0  0.00000000000E+00  0.00000000000E+00  0.45593999997E+02  0.45594000000E+02  0.51100000000E-03 0.  1.
         11   -1    0    0    0    0 -0.00000000000E+00 -0.00000000000E+00 -0.45593999997E+02  0.45594000000E+02  0.51100000000E-03 0. -1.
    9900012    2    1    2    0    0 -0.12640392580E+02 -0.37822741009E+02 -0.79262160684E+01  0.50528878475E+02  0.30000056614E+02 0.  0.
         12    1    1    2    0    0  0.12640392580E+02  0.37822741009E+02  0.79262160684E+01  0.40659121525E+02  0.00000000000E+00 0. -1.
         11    1    3    3    0    0 -0.66118898057E+01 -0.19984353064E+02 -0.12638345694E+02  0.24552377407E+02  0.51100000000E-03 0.  1.
        -11    1    3    3    0    0  0.43755100837E+01 -0.10589446300E+02  0.64962411536E+01  0.13171279771E+02  0.51100000000E-03 0. -1.
         12    1    3    3    0    0 -0.10404012858E+02 -0.72489416451E+01 -0.17841115279E+01  0.12805221297E+02  0.00000000000E+00 0. -1.
</event>
<event>
 7    1  0.3331850E-011  0.5052881E+02  0.7816164E-02  0.1300439E+00
        -11   -1    0    0    0    0  0.00000000000E+00  0.00000000000E+00  0.45593999997E+02  0.45594000000E+02  0.51100000000E-03 0.  1.
         11   -1    0    0    0    0 -0.00000000000E+00 -0.00000000000E+00 -0.45593999997E+02  0.45594000000E+02  0.51100000000E-03 0. -1.
    9900012    2    1    2    0    0 -0.12876552024E+02 -0.20118176832E+02  0.32903238441E+02  0.50528810006E+02  0.29999848494E+02 0.  0.
         12    1    1    2    0    0  0.12876552024E+02  0.20118176832E+02 -0.32903238441E+02  0.40659189994E+02  0.00000000000E+00 0. -1.
         11    1    3    3    0    0 -0.26618932733E+00  0.90369258941E+00 -0.21920043360E+01  0.23858751695E+01  0.51100000000E-03 0. -1.
        -11    1    3    3    0    0 -0.11830904420E+02 -0.20559467532E+02  0.15082100874E+02  0.28109282660E+02  0.51100000000E-03 0.  1.
         12    1    3    3    0    0 -0.77945827653E+00 -0.46240188906E+00  0.20013141903E+02  0.20033652177E+02  0.00000000000E+00 0. -1.
</event>
<event>
 7    1  0.3331850E-011  0.5052886E+02  0.7816164E-02  0.1300439E+00
        -11   -1    0    0    0    0  0.00000000000E+00  0.00000000000E+00  0.45593999997E+02  0.45594000000E+02  0.51100000000E-03 0. -1.
         11   -1    0    0    0    0 -0.00000000000E+00 -0.00000000000E+00 -0.45593999997E+02  0.45594000000E+02  0.51100000000E-03 0.  1.
    9900012    2    1    2    0    0  0.18503673647E+02 -0.78995634687E+01  0.35332370106E+02  0.50528863036E+02  0.30000009683E+02 0.  0.
         12    1    1    2    0    0 -0.18503673647E+02  0.78995634687E+01 -0.35332370106E+02  0.40659136964E+02  0.00000000000E+00 0. -1.
         11    1    3    3    0    0  0.13467590498E+01 -0.20577136670E+01  0.50033666285E+01  0.55750895377E+01  0.51100000000E-03 0. -1.
        -11    1    3    3    0    0  0.23893608313E+02 -0.82261331374E+01  0.27276139837E+02  0.37182813090E+02  0.51100000000E-03 0.  1.
         12    1    3    3    0    0 -0.67366937164E+01  0.23842833356E+01  0.30528636398E+01  0.77709604076E+01  0.00000000000E+00 0. -1.
</event>
<event>
 7    1  0.3331850E-011  0.5052886E+02  0.7816164E-02  0.1300439E+00
        -11   -1    0    0    0    0  0.00000000000E+00  0.00000000000E+00  0.45593999997E+02  0.45594000000E+02  0.51100000000E-03 0.  1.
         11   -1    0    0    0    0 -0.00000000000E+00 -0.00000000000E+00 -0.45593999997E+02  0.45594000000E+02  0.51100000000E-03 0. -1.
    9900012    2    1    2    0    0 -0.11401517850E+02 -0.69399333847E+01  0.38405837589E+02  0.50528860246E+02  0.30000001203E+02 0.  0.
         12    1    1    2    0    0  0.11401517850E+02  0.69399333847E+01 -0.38405837589E+02  0.40659139754E+02  0.00000000000E+00 0. -1.
         11    1    3    3    0    0 -0.16319397587E+01 -0.56227276760E+00 -0.31825327061E+00  0.17551818842E+01  0.51100000000E-03 0. -1.
        -11    1    3    3    0    0 -0.19113777936E+02 -0.30282025850E+01  0.21774584298E+02  0.29131409844E+02  0.51100000000E-03 0.  1.
         12    1    3    3    0    0  0.93441998447E+01 -0.33494580321E+01  0.16949506561E+02  0.19642268517E+02  0.00000000000E+00 0. -1.
</event>
<event>
 7    1  0.3331850E-011  0.5052886E+02  0.7816164E-02  0.1300439E+00
        -11   -1    0    0    0    0  0.00000000000E+00  0.00000000000E+00  0.45593999997E+02  0.45594000000E+02  0.51100000000E-03 0.  1.
         11   -1    0    0    0    0 -0.00000000000E+00 -0.00000000000E+00 -0.45593999997E+02  0.45594000000E+02  0.51100000000E-03 0. -1.
    9900012    2    1    2    0    0  0.33416035017E+02  0.20066829379E+02  0.11569632351E+02  0.50528862892E+02  0.30000009248E+02 0.  0.
         12    1    1    2    0    0 -0.33416035017E+02 -0.20066829379E+02 -0.11569632351E+02  0.40659137108E+02  0.00000000000E+00 0. -1.
         11    1    3    3    0    0  0.46997394506E+01 -0.14245639186E+01 -0.69349281254E+00  0.49596235547E+01  0.51100000000E-03 0. -1.
        -11    1    3    3    0    0  0.83002906040E+01  0.58597520268E+01 -0.79188228233E+01  0.12881741850E+02  0.51100000000E-03 0.  1.
        -12    1    3    3    0    0  0.20416004963E+02  0.15631641270E+02  0.20181947987E+02  0.32687497488E+02  0.00000000000E+00 0.  1.
</event>
<event>
 7    1  0.3331850E-011  0.5052886E+02  0.7816164E-02  0.1300439E+00
        -11   -1    0    0    0    0  0.00000000000E+00  0.00000000000E+00  0.45593999997E+02  0.45594000000E+02  0.51100000000E-03 0. -1.
         11   -1    0    0    0    0 -0.00000000000E+00 -0.00000000000E+00 -0.45593999997E+02  0.45594000000E+02  0.51100000000E-03 0.  1.
    9900012    2    1    2    0    0  0.19478767001E+02  0.55426920690E+01 -0.35256512227E+02  0.50528862605E+02  0.30000008374E+02 0.  0.
         12    1    1    2    0    0 -0.19478767001E+02 -0.55426920690E+01  0.35256512227E+02  0.40659137395E+02  0.00000000000E+00 0. -1.
         11    1    3    3    0    0  0.19338830821E+02  0.40281430413E+01 -0.18770023638E+02  0.27249405526E+02  0.51100000000E-03 0. -1.
        -11    1    3    3    0    0  0.13106754749E+01 -0.63407592590E+01 -0.20309633330E+01  0.67858610730E+01  0.51100000000E-03 0.  1.
         12    1    3    3    0    0 -0.11707392941E+01  0.78553082867E+01 -0.14455525257E+02  0.16493596006E+02  0.00000000000E+00 0. -1.
</event>
<event>
 7    1  0.3331850E-011  0.5052884E+02  0.7816164E-02  0.1300439E+00
        -11   -1    0    0    0    0  0.00000000000E+00  0.00000000000E+00  0.45593999997E+02  0.45594000000E+02  0.51100000000E-03 0. -1.
         11   -1    0    0    0    0 -0.00000000000E+00 -0.00000000000E+00 -0.45593999997E+02  0.45594000000E+02  0.51100000000E-03 0.  1.
    9900012    2    1    2    0    0 -0.46886033694E+01  0.97778595200E+01 -0.39186445622E+02  0.50528842866E+02  0.29999948376E+02 0.  0.
         12    1    1    2    0    0  0.46886033694E+01 -0.97778595200E+01  0.39186445622E+02  0.40659157134E+02  0.00000000000E+00 0. -1.
         11    1    3    3    0    0  0.22789048704E+01 -0.12247690093E+01  0.15039735896E+01  0.29925579951E+01  0.51100000000E-03 0. -1.
        -11    1    3    3    0    0  0.28836181619E+01 -0.49025453931E+01 -0.72117413300E+01  0.91847383363E+01  0.51100000000E-03 0.  1.
         12    1    3    3    0    0 -0.98511264018E+01  0.15905173922E+02 -0.33478677882E+02  0.38351546535E+02  0.00000000000E+00 0. -1.
</event>
<event>
 7    1  0.3331850E-011  0.5052886E+02  0.7816164E-02  0.1300439E+00
        -11   -1    0    0    0    0  0.00000000000E+00  0.00000000000E+00  0.45593999997E+02  0.45594000000E+02  0.51100000000E-03 0.  1.
         11   -1    0    0    0    0 -0.00000000000E+00 -0.00000000000E+00 -0.45593999997E+02  0.45594000000E+02  0.51100000000E-03 0. -1.
    9900012    2    1    2    0    0  0.10745005397E+02  0.31429637607E+01  0.39087493962E+02  0.50528861465E+02  0.30000004910E+02 0.  0.
         12    1    1    2    0    0 -0.10745005397E+02 -0.31429637607E+01 -0.39087493962E+02  0.40659138535E+02  0.00000000000E+00 0. -1.
         11    1    3    3    0    0  0.85116445440E+01  0.85855072572E+00  0.89898789485E+00  0.86019405769E+01  0.51100000000E-03 0. -1.
        -11    1    3    3    0    0  0.53878083416E+01  0.82760205377E+01  0.16748627438E+02  0.19443186878E+02  0.51100000000E-03 0.  1.
         12    1    3    3    0    0 -0.31544474891E+01 -0.59916075027E+01  0.21439878629E+02  0.22483734010E+02  0.00000000000E+00 0. -1.
</event>
<event>
 7    1  0.3331850E-011  0.5052886E+02  0.7816164E-02  0.1300439E+00
        -11   -1    0    0    0    0  0.00000000000E+00  0.00000000000E+00  0.45593999997E+02  0.45594000000E+02  0.51100000000E-03 0.  1.
         11   -1    0    0    0    0 -0.00000000000E+00 -0.00000000000E+00 -0.45593999997E+02  0.45594000000E+02  0.51100000000E-03 0. -1.
    9900012    2    1    2    0    0 -0.32525131478E+02 -0.24171560299E+02 -0.33191740552E+01  0.50528863003E+02  0.30000009583E+02 0.  0.
         12    1    1    2    0    0  0.32525131478E+02  0.24171560299E+02  0.33191740552E+01  0.40659136997E+02  0.00000000000E+00 0. -1.
         11    1    3    3    0    0 -0.31819609151E+02 -0.24154181027E+02 -0.46871348150E+01  0.40222894235E+02  0.51100000000E-03 0.  1.
        -11    1    3    3    0    0 -0.23184287529E+01 -0.34701668899E+00  0.54346549206E+01  0.59186997585E+01  0.51100000000E-03 0. -1.
        -12    1    3    3    0    0  0.16129064253E+01  0.32963741691E+00 -0.40666941608E+01  0.43872690094E+01  0.00000000000E+00 0.  1.
</event>
<event>
 7    1  0.3331850E-011  0.5052892E+02  0.7816164E-02  0.1300439E+00
        -11   -1    0    0    0    0  0.00000000000E+00  0.00000000000E+00  0.45593999997E+02  0.45594000000E+02  0.51100000000E-03 0.  1.
         11   -1    0    0    0    0 -0.00000000000E+00 -0.00000000000E+00 -0.45593999997E+02  0.45594000000E+02  0.51100000000E-03 0. -1.
    9900012    2    1    2    0    0 -0.19412691005E+02  0.27578508760E+02  0.22709772021E+02  0.50528923981E+02  0.30000194932E+02 0.  0.
         12    1    1    2    0    0  0.19412691005E+02 -0.27578508760E+02 -0.22709772021E+02  0.40659076019E+02  0.00000000000E+00 0. -1.
         11    1    3    3    0    0 -0.79429919404E+01  0.79993473812E+00  0.12724844708E+01  0.80839491303E+01  0.51100000000E-03 0. -1.
        -11    1    3    3    0    0 -0.12177624439E+02  0.15333752560E+02  0.23715069050E+02  0.30754235559E+02  0.51100000000E-03 0.  1.
        -12    1    3    3    0    0  0.70792537418E+00  0.11444821461E+02 -0.22777814992E+01  0.11690739291E+02  0.00000000000E+00 0.  1.
</event>
<event>
 7    1  0.3331850E-011  0.5052886E+02  0.7816164E-02  0.1300439E+00
        -11   -1    0    0    0    0  0.00000000000E+00  0.00000000000E+00  0.45593999997E+02  0.45594000000E+02  0.51100000000E-03 0.  1.
         11   -1    0    0    0    0 -0.00000000000E+00 -0.00000000000E+00 -0.45593999997E+02  0.45594000000E+02  0.51100000000E-03 0. -1.
    9900012    2    1    2    0    0  0.19417948555E+02  0.34997569834E+02  0.71609278675E+01  0.50528861933E+02  0.30000006333E+02 0.  0.
         12    1    1    2    0    0 -0.19417948555E+02 -0.34997569834E+02 -0.71609278675E+01  0.40659138067E+02  0.00000000000E+00 0. -1.
         11    1    3    3    0    0  0.97979165604E+01  0.46601283238E+00  0.25333453443E+01  0.10130852668E+02  0.51100000000E-03 0. -1.
        -11    1    3    3    0    0 -0.76540929130E+00 -0.11459263240E+01  0.28869138587E+01  0.31989483290E+01  0.51100000000E-03 0.  1.
        -12    1    3    3    0    0  0.10385441286E+02  0.35677483326E+02  0.17406686645E+01  0.37199060937E+02  0.00000000000E+00 0.  1.
</event>
<event>
 7    1  0.3331850E-011  0.5052885E+02  0.7816164E-02  0.1300439E+00
        -11   -1    0    0    0    0  0.00000000000E+00  0.00000000000E+00  0.45593999997E+02  0.45594000000E+02  0.51100000000E-03 0.  1.
         11   -1    0    0    0    0 -0.00000000000E+00 -0.00000000000E+00 -0.45593999997E+02  0.45594000000E+02  0.51100000000E-03 0. -1.
    9900012    2    1    2    0    0  0.24854063008E+02  0.32167621316E+02 -0.82835147000E+00  0.50528850043E+02  0.29999970190E+02 0.  0.
         12    1    1    2    0    0 -0.24854063008E+02 -0.32167621316E+02  0.82835147000E+00  0.40659149957E+02  0.00000000000E+00 0. -1.
         11    1    3    3    0    0  0.12308098796E+02  0.17230754658E+02 -0.91565495748E+01  0.23070123590E+02  0.51100000000E-03 0. -1.
        -11    1    3    3    0    0  0.11427631577E+01  0.12277538517E+02 -0.11638884897E+01  0.12385414662E+02  0.51100000000E-03 0.  1.
        -12    1    3    3    0    0  0.11403201054E+02  0.26593281405E+01  0.94920865946E+01  0.15073311791E+02  0.00000000000E+00 0.  1.
</event>
<event>
 7    1  0.3331850E-011  0.5052886E+02  0.7816164E-02  0.1300439E+00
        -11   -1    0    0    0    0  0.00000000000E+00  0.00000000000E+00  0.45593999997E+02  0.45594000000E+02  0.51100000000E-03 0. -1.
         11   -1    0    0    0    0 -0.00000000000E+00 -0.00000000000E+00 -0.45593999997E+02  0.45594000000E+02  0.51100000000E-03 0.  1.
    9900012    2    1    2    0    0 -0.22157461884E+02  0.70416264250E+01  0.33356074889E+02  0.50528863858E+02  0.30000012183E+02 0.  0.
         12    1    1    2    0    0  0.22157461884E+02 -0.70416264250E+01 -0.33356074889E+02  0.40659136142E+02  0.00000000000E+00 0. -1.
         11    1    3    3    0    0  0.26940460425E+01 -0.39862025707E+01  0.52264249187E+01  0.71037463853E+01  0.51100000000E-03 0. -1.
        -11    1    3    3    0    0 -0.43084300827E+01 -0.42046043790E+01  0.11319469607E+02  0.12820751156E+02  0.51100000000E-03 0.  1.
         12    1    3    3    0    0 -0.20543077843E+02  0.15232433375E+02  0.16810180363E+02  0.30604366316E+02  0.00000000000E+00 0. -1.
</event>
<event>
 7    1  0.3331850E-011  0.5052885E+02  0.7816164E-02  0.1300439E+00
        -11   -1    0    0    0    0  0.00000000000E+00  0.00000000000E+00  0.45593999997E+02  0.45594000000E+02  0.51100000000E-03 0.  1.
         11   -1    0    0    0    0 -0.00000000000E+00 -0.00000000000E+00 -0.45593999997E+02  0.45594000000E+02  0.51100000000E-03 0. -1.
    9900012    2    1    2    0    0 -0.29291904658E+02  0.24285364071E+02  0.14330814622E+02  0.50528845627E+02  0.29999956769E+02 0.  0.
         12    1    1    2    0    0  0.29291904658E+02 -0.24285364071E+02 -0.14330814622E+02  0.40659154373E+02  0.00000000000E+00 0. -1.
         11    1    3    3    0    0 -0.30272256050E+02  0.18333631277E+02  0.94933043022E+01  0.36642248143E+02  0.51100000000E-03 0.  1.
        -11    1    3    3    0    0 -0.44464291490E+01  0.57483395882E+01  0.42637619648E+01  0.84257822516E+01  0.51100000000E-03 0. -1.
         12    1    3    3    0    0  0.54267805406E+01  0.20339320589E+00  0.57374835541E+00  0.54608152328E+01  0.00000000000E+00 0. -1.
</event>
<event>
 7    1  0.3331850E-011  0.5052887E+02  0.7816164E-02  0.1300439E+00
        -11   -1    0    0    0    0  0.00000000000E+00  0.00000000000E+00  0.45593999997E+02  0.45594000000E+02  0.51100000000E-03 0. -1.
         11   -1    0    0    0    0 -0.00000000000E+00 -0.00000000000E+00 -0.45593999997E+02  0.45594000000E+02  0.51100000000E-03 0.  1.
    9900012    2    1    2    0    0 -0.33948555230E+02 -0.10814545042E+02 -0.19588412989E+02  0.50528871749E+02  0.30000036168E+02 0.  0.
         12    1    1    2    0    0  0.33948555230E+02  0.10814545042E+02  0.19588412989E+02  0.40659128251E+02  0.00000000000E+00 0. -1.
         11    1    3    3    0    0  0.11032737091E+01 -0.19638984244E+01 -0.21667478445E+01  0.31255249770E+01  0.51100000000E-03 0. -1.
        -11    1    3    3    0    0 -0.20204055824E+02 -0.13631479903E+02 -0.20081310486E+02  0.31579742672E+02  0.51100000000E-03 0.  1.
        -12    1    3    3    0    0 -0.14847773115E+02  0.47808332849E+01  0.26596453414E+01  0.15823604100E+02  0.00000000000E+00 0.  1.
</event>
<event>
 7    1  0.3331850E-011  0.5052886E+02  0.7816164E-02  0.1300439E+00
        -11   -1    0    0    0    0  0.00000000000E+00  0.00000000000E+00  0.45593999997E+02  0.45594000000E+02  0.51100000000E-03 0. -1.
         11   -1    0    0    0    0 -0.00000000000E+00 -0.00000000000E+00 -0.45593999997E+02  0.45594000000E+02  0.51100000000E-03 0.  1.
    9900012    2    1    2    0    0 -0.24084168717E+02  0.13838994927E+02 -0.29691762130E+02  0.50528859554E+02  0.29999999101E+02 0.  0.
         12    1    1    2    0    0  0.24084168717E+02 -0.13838994927E+02  0.29691762130E+02  0.40659140446E+02  0.00000000000E+00 0. -1.
         11    1    3    3    0    0 -0.78521302824E+01  0.48018547801E+01  0.45252099405E+00  0.92151253281E+01  0.51100000000E-03 0. -1.
        -11    1    3    3    0    0  0.49799955198E+01  0.15242536162E+01 -0.92006452713E+01  0.10572396991E+02  0.51100000000E-03 0.  1.
         12    1    3    3    0    0 -0.21212033954E+02  0.75128865310E+01 -0.20943637853E+02  0.30741337235E+02  0.00000000000E+00 0. -1.
</event>
<event>
 7    1  0.3331850E-011  0.5052888E+02  0.7816164E-02  0.1300439E+00
        -11   -1    0    0    0    0  0.00000000000E+00  0.00000000000E+00  0.45593999997E+02  0.45594000000E+02  0.51100000000E-03 0.  1.
         11   -1    0    0    0    0 -0.00000000000E+00 -0.00000000000E+00 -0.45593999997E+02  0.45594000000E+02  0.51100000000E-03 0. -1.
    9900012    2    1    2    0    0 -0.29207757252E+02  0.15455348625E+02  0.23689722193E+02  0.50528882666E+02  0.30000069351E+02 0.  0.
         12    1    1    2    0    0  0.29207757252E+02 -0.15455348625E+02 -0.23689722193E+02  0.40659117334E+02  0.00000000000E+00 0. -1.
         11    1    3    3    0    0 -0.13956988207E+01  0.55034507460E+01  0.21102976599E+01  0.60571694534E+01  0.51100000000E-03 0. -1.
        -11    1    3    3    0    0 -0.20921550451E+01  0.85278780474E+01 -0.25839048763E+01  0.91530531188E+01  0.51100000000E-03 0.  1.
         12    1    3    3    0    0 -0.25719903386E+02  0.14240198312E+01  0.24163329410E+02  0.35318660094E+02  0.00000000000E+00 0. -1.
</event>
<event>
 7    1  0.3331850E-011  0.5052886E+02  0.7816164E-02  0.1300439E+00
        -11   -1    0    0    0    0  0.00000000000E+00  0.00000000000E+00  0.45593999997E+02  0.45594000000E+02  0.51100000000E-03 0. -1.
         11   -1    0    0    0    0 -0.00000000000E+00 -0.00000000000E+00 -0.45593999997E+02  0.45594000000E+02  0.51100000000E-03 0.  1.
    9900012    2    1    2    0    0  0.22848946666E+00 -0.36467469835E+02 -0.17978787409E+02  0.50528863754E+02  0.30000011866E+02 0.  0.
         12    1    1    2    0    0 -0.22848946666E+00  0.36467469835E+02  0.17978787409E+02  0.40659136246E+02  0.00000000000E+00 0. -1.
         11    1    3    3    0    0 -0.35504931791E+01 -0.26992769059E+02 -0.15158499933E+02  0.31160803965E+02  0.51100000000E-03 0.  1.
        -11    1    3    3    0    0 -0.65281877524E+00 -0.87711590270E+01 -0.84309957614E+01  0.12183640376E+02  0.51100000000E-03 0. -1.
         12    1    3    3    0    0  0.44318014210E+01 -0.70354174917E+00  0.56107082854E+01  0.71844194123E+01  0.00000000000E+00 0. -1.
</event>
<event>
 7    1  0.3331850E-011  0.5052887E+02  0.7816164E-02  0.1300439E+00
        -11   -1    0    0    0    0  0.00000000000E+00  0.00000000000E+00  0.45593999997E+02  0.45594000000E+02  0.51100000000E-03 0.  1.
         11   -1    0    0    0    0 -0.00000000000E+00 -0.00000000000E+00 -0.45593999997E+02  0.45594000000E+02  0.51100000000E-03 0. -1.
    9900012    2    1    2    0    0 -0.25637301218E+02  0.55526389487E+01  0.31065450575E+02  0.50528865326E+02  0.30000016645E+02 0.  0.
         12    1    1    2    0    0  0.25637301218E+02 -0.55526389487E+01 -0.31065450575E+02  0.40659134674E+02  0.00000000000E+00 0. -1.
         11    1    3    3    0    0 -0.10506333228E+02  0.14010562281E+01  0.26371373477E+02  0.28421740548E+02  0.51100000000E-03 0.  1.
        -11    1    3    3    0    0 -0.80159182524E+00  0.43833163105E+01  0.62671379875E+01  0.76898003972E+01  0.51100000000E-03 0. -1.
        -12    1    3    3    0    0 -0.14329376165E+02 -0.23173358992E+00 -0.15730608903E+01  0.14417324380E+02  0.00000000000E+00 0.  1.
</event>
<event>
 7    1  0.3331850E-011  0.5052883E+02  0.7816164E-02  0.1300439E+00
        -11   -1    0    0    0    0  0.00000000000E+00  0.00000000000E+00  0.45593999997E+02  0.45594000000E+02  0.51100000000E-03 0. -1.
         11   -1    0    0    0    0 -0.00000000000E+00 -0.00000000000E+00 -0.45593999997E+02  0.45594000000E+02  0.51100000000E-03 0.  1.
    9900012    2    1    2    0    0 -0.36579949728E+02  0.35403158238E+01 -0.17393710730E+02  0.50528834598E+02  0.29999923243E+02 0.  0.
         12    1    1    2    0    0  0.36579949728E+02 -0.35403158238E+01  0.17393710730E+02  0.40659165402E+02  0.00000000000E+00 0. -1.
         11    1    3    3    0    0 -0.48318669495E+01 -0.15373403853E+01  0.43204532700E+00  0.50889111904E+01  0.51100000000E-03 0. -1.
        -11    1    3    3    0    0 -0.15753581191E+02 -0.10371978565E+02 -0.40826254704E+01  0.19298214702E+02  0.51100000000E-03 0.  1.
         12    1    3    3    0    0 -0.15994501587E+02  0.15449634774E+02 -0.13743130587E+02  0.26141708705E+02  0.00000000000E+00 0. -1.
</event>
<event>
 7    1  0.3331850E-011  0.5052881E+02  0.7816164E-02  0.1300439E+00
        -11   -1    0    0    0    0  0.00000000000E+00  0.00000000000E+00  0.45593999997E+02  0.45594000000E+02  0.51100000000E-03 0.  1.
         11   -1    0    0    0    0 -0.00000000000E+00 -0.00000000000E+00 -0.45593999997E+02  0.45594000000E+02  0.51100000000E-03 0. -1.
    9900012    2    1    2    0    0  0.29689417772E+02  0.20891786707E+02  0.18309590857E+02  0.50528814115E+02  0.29999860985E+02 0.  0.
         12    1    1    2    0    0 -0.29689417772E+02 -0.20891786707E+02 -0.18309590857E+02  0.40659185885E+02  0.00000000000E+00 0. -1.
         11    1    3    3    0    0  0.13086869150E+01 -0.37484193800E+01  0.41770287145E+01  0.57628880289E+01  0.51100000000E-03 0. -1.
        -11    1    3    3    0    0  0.25224034937E+02  0.96603720827E+01  0.71568929552E+01  0.27942724354E+02  0.51100000000E-03 0.  1.
         12    1    3    3    0    0  0.31566959199E+01  0.14979834005E+02  0.69756691873E+01  0.16823201733E+02  0.00000000000E+00 0. -1.
</event>
<event>
 7    1  0.3331850E-011  0.5052886E+02  0.7816164E-02  0.1300439E+00
        -11   -1    0    0    0    0  0.00000000000E+00  0.00000000000E+00  0.45593999997E+02  0.45594000000E+02  0.51100000000E-03 0.  1.
         11   -1    0    0    0    0 -0.00000000000E+00 -0.00000000000E+00 -0.45593999997E+02  0.45594000000E+02  0.51100000000E-03 0. -1.
    9900012    2    1    2    0    0 -0.39086110721E+02 -0.19895428753E+01  0.11021940263E+02  0.50528862044E+02  0.30000006668E+02 0.  0.
         12    1    1    2    0    0  0.39086110721E+02  0.19895428753E+01 -0.11021940263E+02  0.40659137956E+02  0.00000000000E+00 0. -1.
         11    1    3    3    0    0 -0.19295169614E+02  0.67664144050E+01  0.54346297468E+01  0.21157106019E+02  0.51100000000E-03 0.  1.
        -11    1    3    3    0    0 -0.13091247210E+02 -0.10703240730E+02  0.11313872378E+02  0.20345609455E+02  0.51100000000E-03 0. -1.
         12    1    3    3    0    0 -0.66996938967E+01  0.19472834499E+01 -0.57265618618E+01  0.90261465699E+01  0.00000000000E+00 0. -1.
</event>
<event>
 7    1  0.3331850E-011  0.5052884E+02  0.7816164E-02  0.1300439E+00
        -11   -1    0    0    0    0  0.00000000000E+00  0.00000000000E+00  0.45593999997E+02  0.45594000000E+02  0.51100000000E-03 0. -1.
         11   -1    0    0    0    0 -0.00000000000E+00 -0.00000000000E+00 -0.45593999997E+02  0.45594000000E+02  0.51100000000E-03 0.  1.
    9900012    2    1    2    0    0 -0.29620781695E+02  0.57877330057E+01 -0.27244792798E+02  0.50528839948E+02  0.29999939506E+02 0.  0.
         12    1    1    2    0    0  0.29620781695E+02 -0.57877330057E+01  0.27244792798E+02  0.40659160052E+02  0.00000000000E+00 0. -1.
         11    1    3    3    0    0 -0.29529630722E+01 -0.86965393303E+01 -0.80346819876E+01  0.12202700608E+02  0.51100000000E-03 0. -1.
        -11    1    3    3    0    0 -0.23253925352E+00  0.35724406924E+01  0.46920299056E+00  0.36106174974E+01  0.51100000000E-03 0.  1.
        -12    1    3    3    0    0 -0.26435279369E+02  0.10911831644E+02 -0.19679313801E+02  0.34715521842E+02  0.00000000000E+00 0.  1.
</event>
<event>
 7    1  0.3331850E-011  0.5052886E+02  0.7816164E-02  0.1300439E+00
        -11   -1    0    0    0    0  0.00000000000E+00  0.00000000000E+00  0.45593999997E+02  0.45594000000E+02  0.51100000000E-03 0.  1.
         11   -1    0    0    0    0 -0.00000000000E+00 -0.00000000000E+00 -0.45593999997E+02  0.45594000000E+02  0.51100000000E-03 0. -1.
    9900012    2    1    2    0    0  0.28208060514E+02  0.25983544262E+02  0.13502830624E+02  0.50528859758E+02  0.29999999720E+02 0.  0.
         12    1    1    2    0    0 -0.28208060514E+02 -0.25983544262E+02 -0.13502830624E+02  0.40659140242E+02  0.00000000000E+00 0. -1.
         11    1    3    3    0    0  0.53890072908E-01  0.29472065191E+01  0.13988361074E+01  0.32627707739E+01  0.51100000000E-03 0. -1.
        -11    1    3    3    0    0  0.15108101241E+02  0.36117358213E+01  0.17348322146E+02  0.23286554926E+02  0.51100000000E-03 0.  1.
         12    1    3    3    0    0  0.13046069199E+02  0.19424601922E+02 -0.52443276290E+01  0.23979534058E+02  0.00000000000E+00 0. -1.
</event>
<event>
 7    1  0.3331850E-011  0.5052891E+02  0.7816164E-02  0.1300439E+00
        -11   -1    0    0    0    0  0.00000000000E+00  0.00000000000E+00  0.45593999997E+02  0.45594000000E+02  0.51100000000E-03 0. -1.
         11   -1    0    0    0    0 -0.00000000000E+00 -0.00000000000E+00 -0.45593999997E+02  0.45594000000E+02  0.51100000000E-03 0.  1.
    9900012    2    1    2    0    0  0.23358823633E+01  0.12446940442E+02 -0.38636495594E+02  0.50528911661E+02  0.30000157484E+02 0.  0.
         12    1    1    2    0    0 -0.23358823633E+01 -0.12446940442E+02  0.38636495594E+02  0.40659088339E+02  0.00000000000E+00 0. -1.
         11    1    3    3    0    0  0.29535849272E+01  0.73966937032E+00 -0.82631421986E+00  0.31549279153E+01  0.51100000000E-03 0. -1.
        -11    1    3    3    0    0  0.62878654515E+01  0.18032646108E+02 -0.23661935466E+02  0.30407248607E+02  0.51100000000E-03 0.  1.
        -12    1    3    3    0    0 -0.69055680155E+01 -0.63253750369E+01 -0.14148245909E+02  0.16966735139E+02  0.00000000000E+00 0.  1.
</event>
<event>
 7    1  0.3331850E-011  0.5052886E+02  0.7816164E-02  0.1300439E+00
        -11   -1    0    0    0    0  0.00000000000E+00  0.00000000000E+00  0.45593999997E+02  0.45594000000E+02  0.51100000000E-03 0. -1.
         11   -1    0    0    0    0 -0.00000000000E+00 -0.00000000000E+00 -0.45593999997E+02  0.45594000000E+02  0.51100000000E-03 0.  1.
    9900012    2    1    2    0    0 -0.11627573745E+02 -0.37046070557E+02 -0.12064572951E+02  0.50528859141E+02  0.29999997846E+02 0.  0.
         12    1    1    2    0    0  0.11627573745E+02  0.37046070557E+02  0.12064572951E+02  0.40659140859E+02  0.00000000000E+00 0. -1.
         11    1    3    3    0    0  0.16224576569E+01 -0.42989141465E+00 -0.53297272239E+00  0.17610325553E+01  0.51100000000E-03 0. -1.
        -11    1    3    3    0    0  0.35631905694E+01 -0.97927481742E+01 -0.13494484809E+02  0.17049790742E+02  0.51100000000E-03 0.  1.
        -12    1    3    3    0    0 -0.16813221971E+02 -0.26823430968E+02  0.19628845797E+01  0.31718035844E+02  0.00000000000E+00 0.  1.
</event>
<event>
 7    1  0.3331850E-011  0.5052884E+02  0.7816164E-02  0.1300439E+00
        -11   -1    0    0    0    0  0.00000000000E+00  0.00000000000E+00  0.45593999997E+02  0.45594000000E+02  0.51100000000E-03 0. -1.
         11   -1    0    0    0    0 -0.00000000000E+00 -0.00000000000E+00 -0.45593999997E+02  0.45594000000E+02  0.51100000000E-03 0.  1.
    9900012    2    1    2    0    0 -0.20054243572E+02  0.69029826827E+01 -0.34689239389E+02  0.50528841320E+02  0.29999943678E+02 0.  0.
         12    1    1    2    0    0  0.20054243572E+02 -0.69029826827E+01  0.34689239389E+02  0.40659158680E+02  0.00000000000E+00 0. -1.
         11    1    3    3    0    0 -0.21489349090E+00 -0.10479484926E+01  0.13163167404E+01  0.16961914036E+01  0.51100000000E-03 0. -1.
        -11    1    3    3    0    0  0.40399115148E+00 -0.73267092467E+01 -0.55515732020E+01  0.92012956976E+01  0.51100000000E-03 0.  1.
        -12    1    3    3    0    0 -0.20243341232E+02  0.15277640422E+02 -0.30453982927E+02  0.39631354219E+02  0.00000000000E+00 0.  1.
</event>
<event>
 7    1  0.3331850E-011  0.5052886E+02  0.7816164E-02  0.1300439E+00
        -11   -1    0    0    0    0  0.00000000000E+00  0.00000000000E+00  0.45593999997E+02  0.45594000000E+02  0.51100000000E-03 0.  1.
         11   -1    0    0    0    0 -0.00000000000E+00 -0.00000000000E+00 -0.45593999997E+02  0.45594000000E+02  0.51100000000E-03 0. -1.
    9900012    2    1    2    0    0 -0.11713252899E+02  0.37909208368E+02  0.88801836797E+01  0.50528855460E+02  0.29999986656E+02 0.  0.
         12    1    1    2    0    0  0.11713252899E+02 -0.37909208368E+02 -0.88801836797E+01  0.40659144540E+02  0.00000000000E+00 0. -1.
         11    1    3    3    0    0  0.39109496146E+01  0.38409243716E+01  0.24338060503E+01  0.59976361234E+01  0.51100000000E-03 0. -1.
        -11    1    3    3    0    0  0.51872536096E+01  0.35503099924E+01 -0.20803939033E+01  0.66212038260E+01  0.51100000000E-03 0.  1.
        -12    1    3    3    0    0 -0.20811456123E+02  0.30517974004E+02  0.85267715327E+01  0.37910015511E+02  0.00000000000E+00 0.  1.
</event>
<event>
 7    1  0.3331850E-011  0.5052885E+02  0.7816164E-02  0.1300439E+00
        -11   -1    0    0    0    0  0.00000000000E+00  0.00000000000E+00  0.45593999997E+02  0.45594000000E+02  0.51100000000E-03 0.  1.
         11   -1    0    0    0    0 -0.00000000000E+00 -0.00000000000E+00 -0.45593999997E+02  0.45594000000E+02  0.51100000000E-03 0. -1.
    9900012    2    1    2    0    0  0.67715750904E+01  0.31492539384E+02  0.24809916632E+02  0.50528853067E+02  0.29999979381E+02 0.  0.
         12    1    1    2    0    0 -0.67715750904E+01 -0.31492539384E+02 -0.24809916632E+02  0.40659146933E+02  0.00000000000E+00 0. -1.
         11    1    3    3    0    0  0.12047164414E+01  0.10868378809E+02 -0.35074383474E+01  0.11483689462E+02  0.51100000000E-03 0. -1.
        -11    1    3    3    0    0  0.10408825562E+02  0.87763491584E+01  0.10955008627E+02  0.17475129997E+02  0.51100000000E-03 0.  1.
        -12    1    3    3    0    0 -0.48419669132E+01  0.11847811416E+02  0.17362346353E+02  0.21570033608E+02  0.00000000000E+00 0.  1.
</event>
<event>
 7    1  0.3331850E-011  0.5052886E+02  0.7816164E-02  0.1300439E+00
        -11   -1    0    0    0    0  0.00000000000E+00  0.00000000000E+00  0.45593999997E+02  0.45594000000E+02  0.51100000000E-03 0.  1.
         11   -1    0    0    0    0 -0.00000000000E+00 -0.00000000000E+00 -0.45593999997E+02  0.45594000000E+02  0.51100000000E-03 0. -1.
    9900012    2    1    2    0    0 -0.30003185170E+02  0.19799067365E+02  0.18999258228E+02  0.50528855861E+02  0.29999987876E+02 0.  0.
         12    1    1    2    0    0  0.30003185170E+02 -0.19799067365E+02 -0.18999258228E+02  0.40659144139E+02  0.00000000000E+00 0. -1.
         11    1    3    3    0    0  0.67081328764E-01  0.96326806996E+01  0.60215946935E+00  0.96517166169E+01  0.51100000000E-03 0. -1.
        -11    1    3    3    0    0 -0.13971112928E+02  0.88272972238E+01  0.18387040692E+02  0.24722387393E+02  0.51100000000E-03 0.  1.
        -12    1    3    3    0    0 -0.16099153570E+02  0.13390894417E+01  0.10058066243E-01  0.16154751851E+02  0.00000000000E+00 0.  1.
</event>
<event>
 7    1  0.3331850E-011  0.5052890E+02  0.7816164E-02  0.1300439E+00
        -11   -1    0    0    0    0  0.00000000000E+00  0.00000000000E+00  0.45593999997E+02  0.45594000000E+02  0.51100000000E-03 0.  1.
         11   -1    0    0    0    0 -0.00000000000E+00 -0.00000000000E+00 -0.45593999997E+02  0.45594000000E+02  0.51100000000E-03 0. -1.
    9900012    2    1    2    0    0  0.19051723084E+01 -0.27574103405E+02  0.29819484195E+02  0.50528898955E+02  0.30000118865E+02 0.  0.
         12    1    1    2    0    0 -0.19051723084E+01  0.27574103405E+02 -0.29819484195E+02  0.40659101045E+02  0.00000000000E+00 0. -1.
         11    1    3    3    0    0  0.51222746184E+01 -0.56491808582E+01 -0.77525734572E+00  0.76649830951E+01  0.51100000000E-03 0. -1.
        -11    1    3    3    0    0 -0.13439687297E+01 -0.13957052271E+02  0.33500347181E+01  0.14416251000E+02  0.51100000000E-03 0.  1.
        -12    1    3    3    0    0 -0.18731335804E+01 -0.79678702762E+01  0.27244706822E+02  0.28447664860E+02  0.00000000000E+00 0.  1.
</event>
<event>
 7    1  0.3331850E-011  0.5052886E+02  0.7816164E-02  0.1300439E+00
        -11   -1    0    0    0    0  0.00000000000E+00  0.00000000000E+00  0.45593999997E+02  0.45594000000E+02  0.51100000000E-03 0. -1.
         11   -1    0    0    0    0 -0.00000000000E+00 -0.00000000000E+00 -0.45593999997E+02  0.45594000000E+02  0.51100000000E-03 0.  1.
    9900012    2    1    2    0    0 -0.23999647440E+02 -0.24195863966E+02 -0.22175277976E+02  0.50528857564E+02  0.29999993052E+02 0.  0.
         12    1    1    2    0    0  0.23999647440E+02  0.24195863966E+02  0.22175277976E+02  0.40659142436E+02  0.00000000000E+00 0. -1.
         11    1    3    3    0    0 -0.16559470206E+01 -0.12080113900E+02 -0.29276502181E+01  0.12539635099E+02  0.51100000000E-03 0. -1.
        -11    1    3    3    0    0 -0.69035780412E+00 -0.88191732250E+01 -0.12020760247E+02  0.14924914990E+02  0.51100000000E-03 0.  1.
        -12    1    3    3    0    0 -0.21653342615E+02 -0.32965768412E+01 -0.72268675108E+01  0.23064307475E+02  0.00000000000E+00 0.  1.
</event>
<event>
 7    1  0.3331850E-011  0.5052886E+02  0.7816164E-02  0.1300439E+00
        -11   -1    0    0    0    0  0.00000000000E+00  0.00000000000E+00  0.45593999997E+02  0.45594000000E+02  0.51100000000E-03 0.  1.
         11   -1    0    0    0    0 -0.00000000000E+00 -0.00000000000E+00 -0.45593999997E+02  0.45594000000E+02  0.51100000000E-03 0. -1.
    9900012    2    1    2    0    0 -0.14364234146E+02  0.27075078726E+02  0.26716565655E+02  0.50528855998E+02  0.29999988290E+02 0.  0.
         12    1    1    2    0    0  0.14364234146E+02 -0.27075078726E+02 -0.26716565655E+02  0.40659144002E+02  0.00000000000E+00 0. -1.
         11    1    3    3    0    0 -0.12340166585E+02  0.13760985940E+02  0.60611944225E+01  0.19452057050E+02  0.51100000000E-03 0. -1.
        -11    1    3    3    0    0 -0.23269358528E+01  0.46380843793E+01 -0.29197280969E+01  0.59540968747E+01  0.51100000000E-03 0.  1.
        -12    1    3    3    0    0  0.30286829132E+00  0.86760084067E+01  0.23575099329E+02  0.25122702073E+02  0.00000000000E+00 0.  1.
</event>
<event>
 7    1  0.3331850E-011  0.5052885E+02  0.7816164E-02  0.1300439E+00
        -11   -1    0    0    0    0  0.00000000000E+00  0.00000000000E+00  0.45593999997E+02  0.45594000000E+02  0.51100000000E-03 0.  1.
         11   -1    0    0    0    0 -0.00000000000E+00 -0.00000000000E+00 -0.45593999997E+02  0.45594000000E+02  0.51100000000E-03 0. -1.
    9900012    2    1    2    0    0  0.32266761946E+01  0.37381921080E+02 -0.15663558114E+02  0.50528849545E+02  0.29999968678E+02 0.  0.
         12    1    1    2    0    0 -0.32266761946E+01 -0.37381921080E+02  0.15663558114E+02  0.40659150455E+02  0.00000000000E+00 0. -1.
         11    1    3    3    0    0  0.33718864119E+01  0.21423226468E+02  0.44739509769E+01  0.22143633123E+02  0.51100000000E-03 0. -1.
        -11    1    3    3    0    0  0.14052383113E+01 -0.10499515361E+01  0.26895139675E+00  0.17746628003E+01  0.51100000000E-03 0.  1.
         12    1    3    3    0    0 -0.15504485286E+01  0.17008646148E+02 -0.20406460488E+02  0.26610553622E+02  0.00000000000E+00 0. -1.
</event>
<event>
 7    1  0.3552024E-011  0.5052886E+02  0.7816164E-02  0.1300439E+00
        -11   -1    0    0    0    0  0.00000000000E+00  0.00000000000E+00  0.45593999997E+02  0.45594000000E+02  0.51100000000E-03 0. -1.
         11   -1    0    0    0    0 -0.00000000000E+00 -0.00000000000E+00 -0.45593999997E+02  0.45594000000E+02  0.51100000000E-03 0.  1.
    9900012    2    1    2    0    0  0.30562885334E+02  0.11501364846E+02 -0.24223832663E+02  0.50528862993E+02  0.30000009553E+02 0.  0.
         12    1    1    2    0    0 -0.30562885334E+02 -0.11501364846E+02  0.24223832663E+02  0.40659137007E+02  0.00000000000E+00 0. -1.
         11    1    3    3    0    0 -0.90907893968E+00  0.27589030995E+01 -0.67147863512E+01  0.73161688632E+01  0.51100000000E-03 0. -1.
        -11    1    3    3    0    0  0.90445655909E+01  0.95488828503E+01 -0.16011564737E+02  0.20720896119E+02  0.51100000000E-03 0.  1.
         12    1    3    3    0    0  0.22427398683E+02 -0.80642110417E+00 -0.14974815757E+01  0.22491798010E+02  0.00000000000E+00 0. -1.
</event>
<event>
 7    1  0.3331850E-011  0.5052886E+02  0.7816164E-02  0.1300439E+00
        -11   -1    0    0    0    0  0.00000000000E+00  0.00000000000E+00  0.45593999997E+02  0.45594000000E+02  0.51100000000E-03 0.  1.
         11   -1    0    0    0    0 -0.00000000000E+00 -0.00000000000E+00 -0.45593999997E+02  0.45594000000E+02  0.51100000000E-03 0. -1.
    9900012    2    1    2    0    0  0.57270435814E+01  0.11161729805E+01  0.40238300361E+02  0.50528859746E+02  0.29999999683E+02 0.  0.
         12    1    1    2    0    0 -0.57270435814E+01 -0.11161729805E+01 -0.40238300361E+02  0.40659140254E+02  0.00000000000E+00 0. -1.
         11    1    3    3    0    0  0.40554695661E+01  0.80425326371E+01  0.28424704968E+01  0.94450412073E+01  0.51100000000E-03 0. -1.
        -11    1    3    3    0    0 -0.31764395831E+01  0.34904210543E+01  0.17332063386E+02  0.17963107444E+02  0.51100000000E-03 0.  1.
        -12    1    3    3    0    0  0.48480135984E+01 -0.10416780711E+02  0.20063766478E+02  0.23120711095E+02  0.00000000000E+00 0.  1.
</event>
<event>
 7    1  0.3331850E-011  0.5052886E+02  0.7816164E-02  0.1300439E+00
        -11   -1    0    0    0    0  0.00000000000E+00  0.00000000000E+00  0.45593999997E+02  0.45594000000E+02  0.51100000000E-03 0.  1.
         11   -1    0    0    0    0 -0.00000000000E+00 -0.00000000000E+00 -0.45593999997E+02  0.45594000000E+02  0.51100000000E-03 0. -1.
    9900012    2    1    2    0    0 -0.16997434502E+02  0.25471157480E+02  0.26748322611E+02  0.50528863197E+02  0.30000010173E+02 0.  0.
         12    1    1    2    0    0  0.16997434502E+02 -0.25471157480E+02 -0.26748322611E+02  0.40659136803E+02  0.00000000000E+00 0. -1.
         11    1    3    3    0    0 -0.14448691650E+01  0.81800743535E+01  0.21386060255E+02  0.22942642325E+02  0.51100000000E-03 0. -1.
        -11    1    3    3    0    0  0.62826002832E+00 -0.63142675496E+00  0.32249321967E+01  0.33456835392E+01  0.51100000000E-03 0.  1.
        -12    1    3    3    0    0 -0.16180825366E+02  0.17922509882E+02  0.21373301591E+01  0.24240537333E+02  0.00000000000E+00 0.  1.
</event>
<event>
 7    1  0.3331850E-011  0.5052880E+02  0.7816164E-02  0.1300439E+00
        -11   -1    0    0    0    0  0.00000000000E+00  0.00000000000E+00  0.45593999997E+02  0.45594000000E+02  0.51100000000E-03 0. -1.
         11   -1    0    0    0    0 -0.00000000000E+00 -0.00000000000E+00 -0.45593999997E+02  0.45594000000E+02  0.51100000000E-03 0.  1.
    9900012    2    1    2    0    0  0.27001771785E+02  0.16297982476E+02 -0.25660298881E+02  0.50528796232E+02  0.29999806627E+02 0.  0.
         12    1    1    2    0    0 -0.27001771785E+02 -0.16297982476E+02  0.25660298881E+02  0.40659203768E+02  0.00000000000E+00 0. -1.
         11    1    3    3    0    0  0.14987480013E+02 -0.34661817132E+01 -0.90444734494E+01  0.17844928496E+02  0.51100000000E-03 0. -1.
        -11    1    3    3    0    0  0.14072369974E+02  0.13709677029E+02 -0.64578915339E+01  0.20680696416E+02  0.51100000000E-03 0.  1.
        -12    1    3    3    0    0 -0.20580782017E+01  0.60544871606E+01 -0.10157933898E+02  0.12003171320E+02  0.00000000000E+00 0.  1.
</event>
<event>
 7    1  0.3331850E-011  0.5052885E+02  0.7816164E-02  0.1300439E+00
        -11   -1    0    0    0    0  0.00000000000E+00  0.00000000000E+00  0.45593999997E+02  0.45594000000E+02  0.51100000000E-03 0.  1.
         11   -1    0    0    0    0 -0.00000000000E+00 -0.00000000000E+00 -0.45593999997E+02  0.45594000000E+02  0.51100000000E-03 0. -1.
    9900012    2    1    2    0    0 -0.32973256384E+02  0.48037723627E+01  0.23299239678E+02  0.50528850538E+02  0.29999971694E+02 0.  0.
         12    1    1    2    0    0  0.32973256384E+02 -0.48037723627E+01 -0.23299239678E+02  0.40659149462E+02  0.00000000000E+00 0. -1.
         11    1    3    3    0    0 -0.86161284400E+00  0.65904063369E+01  0.24288638973E+01  0.70763841382E+01  0.51100000000E-03 0. -1.
        -11    1    3    3    0    0 -0.29044869255E+02  0.56606979972E+01  0.19056861303E+02  0.35196759721E+02  0.51100000000E-03 0.  1.
         12    1    3    3    0    0 -0.30667742848E+01 -0.74473319715E+01  0.18135144773E+01  0.82557066788E+01  0.00000000000E+00 0. -1.
</event>
<event>
 7    1  0.3331850E-011  0.5052885E+02  0.7816164E-02  0.1300439E+00
        -11   -1    0    0    0    0  0.00000000000E+00  0.00000000000E+00  0.45593999997E+02  0.45594000000E+02  0.51100000000E-03 0.  1.
         11   -1    0    0    0    0 -0.00000000000E+00 -0.00000000000E+00 -0.45593999997E+02  0.45594000000E+02  0.51100000000E-03 0. -1.
    9900012    2    1    2    0    0  0.23497838753E+02  0.24193361108E+00  0.33180704311E+02  0.50528854700E+02  0.29999984346E+02 0.  0.
         12    1    1    2    0    0 -0.23497838753E+02 -0.24193361108E+00 -0.33180704311E+02  0.40659145300E+02  0.00000000000E+00 0. -1.
         11    1    3    3    0    0  0.13171813849E+01  0.76270964231E+01  0.79666455653E+01  0.11107430327E+02  0.51100000000E-03 0. -1.
        -11    1    3    3    0    0  0.19857867258E+02 -0.29925881965E+00  0.25043595933E+02  0.31962574136E+02  0.51100000000E-03 0.  1.
        -12    1    3    3    0    0  0.23227901098E+01 -0.70859039924E+01  0.17046281271E+00  0.74588502367E+01  0.00000000000E+00 0.  1.
</event>
<event>
 7    1  0.3381367E-011  0.5052886E+02  0.7816164E-02  0.1300439E+00
        -11   -1    0    0    0    0  0.00000000000E+00  0.00000000000E+00  0.45593999997E+02  0.45594000000E+02  0.51100000000E-03 0. -1.
         11   -1    0    0    0    0 -0.00000000000E+00 -0.00000000000E+00 -0.45593999997E+02  0.45594000000E+02  0.51100000000E-03 0.  1.
    9900012    2    1    2    0    0 -0.49307040609E+01 -0.40270564077E+02 -0.26712470216E+01  0.50528859154E+02  0.29999997886E+02 0.  0.
         12    1    1    2    0    0  0.49307040609E+01  0.40270564077E+02  0.26712470216E+01  0.40659140846E+02  0.00000000000E+00 0. -1.
         11    1    3    3    0    0  0.80741808429E+01 -0.10586793877E+02  0.37206365671E+01  0.13824461566E+02  0.51100000000E-03 0. -1.
        -11    1    3    3    0    0 -0.17299567957E+01 -0.13313738602E+02  0.43469116030E+01  0.14111839952E+02  0.51100000000E-03 0.  1.
         12    1    3    3    0    0 -0.11274928108E+02 -0.16370031598E+02 -0.10738795192E+02  0.22592557636E+02  0.00000000000E+00 0. -1.
</event>
<event>
 7    1  0.3331850E-011  0.5052885E+02  0.7816164E-02  0.1300439E+00
        -11   -1    0    0    0    0  0.00000000000E+00  0.00000000000E+00  0.45593999997E+02  0.45594000000E+02  0.51100000000E-03 0. -1.
         11   -1    0    0    0    0 -0.00000000000E+00 -0.00000000000E+00 -0.45593999997E+02  0.45594000000E+02  0.51100000000E-03 0.  1.
    9900012    2    1    2    0    0  0.34712276334E+02 -0.10788654673E+02 -0.18216182447E+02  0.50528849727E+02  0.29999969232E+02 0.  0.
         12    1    1    2    0    0 -0.34712276334E+02  0.10788654673E+02  0.18216182447E+02  0.40659150273E+02  0.00000000000E+00 0. -1.
         11    1    3    3    0    0 -0.33230627566E+01 -0.45226300217E+00  0.31551775926E+00  0.33685070320E+01  0.51100000000E-03 0. -1.
        -11    1    3    3    0    0  0.11249276492E+02  0.15935202589E+01  0.17657911549E+01  0.11497980130E+02  0.51100000000E-03 0.  1.
        -12    1    3    3    0    0  0.26786062598E+02 -0.11929911930E+02 -0.20297491361E+02  0.35662362565E+02  0.00000000000E+00 0.  1.
</event>
<event>
 7    1  0.3331850E-011  0.5052886E+02  0.7816164E-02  0.1300439E+00
        -11   -1    0    0    0    0  0.00000000000E+00  0.00000000000E+00  0.45593999997E+02  0.45594000000E+02  0.51100000000E-03 0.  1.
         11   -1    0    0    0    0 -0.00000000000E+00 -0.00000000000E+00 -0.45593999997E+02  0.45594000000E+02  0.51100000000E-03 0. -1.
    9900012    2    1    2    0    0 -0.11925447999E+02 -0.11406645840E+02  0.37159622683E+02  0.50528862808E+02  0.30000008990E+02 0.  0.
         12    1    1    2    0    0  0.11925447999E+02  0.11406645840E+02 -0.37159622683E+02  0.40659137192E+02  0.00000000000E+00 0. -1.
         11    1    3    3    0    0 -0.59488318650E-01 -0.30943022700E+00  0.94710417633E+01  0.94762818800E+01  0.51100000000E-03 0. -1.
        -11    1    3    3    0    0 -0.16441298122E+02 -0.10388619711E+02  0.30096868424E+02  0.35833799584E+02  0.51100000000E-03 0.  1.
         12    1    3    3    0    0  0.45753384413E+01 -0.70859590212E+00 -0.24082875048E+01  0.52187813435E+01  0.00000000000E+00 0. -1.
</event>
<event>
 7    1  0.5504479E-011  0.5052887E+02  0.7816164E-02  0.1300439E+00
        -11   -1    0    0    0    0  0.00000000000E+00  0.00000000000E+00  0.45593999997E+02  0.45594000000E+02  0.51100000000E-03 0. -1.
         11   -1    0    0    0    0 -0.00000000000E+00 -0.00000000000E+00 -0.45593999997E+02  0.45594000000E+02  0.51100000000E-03 0.  1.
    9900012    2    1    2    0    0  0.17308336298E+02 -0.54740953856E+01 -0.36381601990E+02  0.50528865859E+02  0.30000018266E+02 0.  0.
         12    1    1    2    0    0 -0.17308336298E+02  0.54740953856E+01  0.36381601990E+02  0.40659134141E+02  0.00000000000E+00 0. -1.
         11    1    3    3    0    0  0.69777228378E+01  0.31568613746E+01 -0.10830390266E+02  0.13264680294E+02  0.51100000000E-03 0. -1.
        -11    1    3    3    0    0  0.12485247865E+02 -0.55473334031E+00 -0.26047770634E+02  0.28890751091E+02  0.51100000000E-03 0.  1.
         12    1    3    3    0    0 -0.21546344050E+01 -0.80762234199E+01  0.49655890905E+00  0.83734344744E+01  0.00000000000E+00 0. -1.
</event>
<event>
 7    1  0.3331850E-011  0.5052887E+02  0.7816164E-02  0.1300439E+00
        -11   -1    0    0    0    0  0.00000000000E+00  0.00000000000E+00  0.45593999997E+02  0.45594000000E+02  0.51100000000E-03 0.  1.
         11   -1    0    0    0    0 -0.00000000000E+00 -0.00000000000E+00 -0.45593999997E+02  0.45594000000E+02  0.51100000000E-03 0. -1.
    9900012    2    1    2    0    0 -0.16176072891E+01 -0.29499069666E+02  0.27934800144E+02  0.50528870353E+02  0.30000031925E+02 0.  0.
         12    1    1    2    0    0  0.16176072891E+01  0.29499069666E+02 -0.27934800144E+02  0.40659129647E+02  0.00000000000E+00 0. -1.
         11    1    3    3    0    0  0.38565605943E+01 -0.80307223604E+01  0.23536164905E+00  0.89118436148E+01  0.51100000000E-03 0. -1.
        -11    1    3    3    0    0  0.54497516675E+01 -0.16809624742E+02  0.22610795189E+02  0.28696887227E+02  0.51100000000E-03 0.  1.
         12    1    3    3    0    0 -0.10923919551E+02 -0.46587225640E+01  0.50886433064E+01  0.12920139511E+02  0.00000000000E+00 0. -1.
</event>
<event>
 7    1  0.3331850E-011  0.5052878E+02  0.7816164E-02  0.1300439E+00
        -11   -1    0    0    0    0  0.00000000000E+00  0.00000000000E+00  0.45593999997E+02  0.45594000000E+02  0.51100000000E-03 0.  1.
         11   -1    0    0    0    0 -0.00000000000E+00 -0.00000000000E+00 -0.45593999997E+02  0.45594000000E+02  0.51100000000E-03 0. -1.
    9900012    2    1    2    0    0  0.15160287470E+02 -0.32396688707E+02  0.19333706496E+02  0.50528782568E+02  0.29999765091E+02 0.  0.
         12    1    1    2    0    0 -0.15160287470E+02  0.32396688707E+02 -0.19333706496E+02  0.40659217432E+02  0.00000000000E+00 0. -1.
         11    1    3    3    0    0  0.18065427113E+01 -0.15825805275E+02  0.10802323432E+02  0.19246035981E+02  0.51100000000E-03 0. -1.
        -11    1    3    3    0    0 -0.26267159264E+01 -0.12166419749E+02 -0.40047093809E+00  0.12453183661E+02  0.51100000000E-03 0.  1.
        -12    1    3    3    0    0  0.15980460685E+02 -0.44044636823E+01  0.89318540021E+01  0.18829562925E+02  0.00000000000E+00 0.  1.
</event>
<event>
 7    1  0.3331850E-011  0.5052891E+02  0.7816164E-02  0.1300439E+00
        -11   -1    0    0    0    0  0.00000000000E+00  0.00000000000E+00  0.45593999997E+02  0.45594000000E+02  0.51100000000E-03 0.  1.
         11   -1    0    0    0    0 -0.00000000000E+00 -0.00000000000E+00 -0.45593999997E+02  0.45594000000E+02  0.51100000000E-03 0. -1.
    9900012    2    1    2    0    0  0.19351950918E+02 -0.12938755708E+02  0.33335449665E+02  0.50528909897E+02  0.30000152124E+02 0.  0.
         12    1    1    2    0    0 -0.19351950918E+02  0.12938755708E+02 -0.33335449665E+02  0.40659090103E+02  0.00000000000E+00 0. -1.
         11    1    3    3    0    0 -0.47142670196E+01  0.20202986117E+01  0.50229225687E+01  0.71788349615E+01  0.51100000000E-03 0. -1.
        -11    1    3    3    0    0 -0.21415432742E+01  0.74411310794E+00  0.17196795603E+01  0.28455596926E+01  0.51100000000E-03 0.  1.
        -12    1    3    3    0    0  0.26207761212E+02 -0.15703167428E+02  0.26592847536E+02  0.40504515243E+02  0.00000000000E+00 0.  1.
</event>
<event>
 7    1  0.3331850E-011  0.5052877E+02  0.7816164E-02  0.1300439E+00
        -11   -1    0    0    0    0  0.00000000000E+00  0.00000000000E+00  0.45593999997E+02  0.45594000000E+02  0.51100000000E-03 0. -1.
         11   -1    0    0    0    0 -0.00000000000E+00 -0.00000000000E+00 -0.45593999997E+02  0.45594000000E+02  0.51100000000E-03 0.  1.
    9900012    2    1    2    0    0  0.36616255560E+02 -0.12313516253E+02 -0.12680686722E+02  0.50528773870E+02  0.29999738653E+02 0.  0.
         12    1    1    2    0    0 -0.36616255560E+02  0.12313516253E+02  0.12680686722E+02  0.40659226130E+02  0.00000000000E+00 0. -1.
         11    1    3    3    0    0  0.77992485469E+01 -0.88298359352E+00 -0.12011867320E+02  0.14348968419E+02  0.51100000000E-03 0.  1.
        -11    1    3    3    0    0  0.60778603667E+01 -0.59659591283E+01 -0.79861327539E+01  0.11675246104E+02  0.51100000000E-03 0. -1.
        -12    1    3    3    0    0  0.22739146647E+02 -0.54645735312E+01  0.73173133519E+01  0.24504559347E+02  0.00000000000E+00 0.  1.
</event>
<event>
 7    1  0.3331850E-011  0.5052885E+02  0.7816164E-02  0.1300439E+00
        -11   -1    0    0    0    0  0.00000000000E+00  0.00000000000E+00  0.45593999997E+02  0.45594000000E+02  0.51100000000E-03 0. -1.
         11   -1    0    0    0    0 -0.00000000000E+00 -0.00000000000E+00 -0.45593999997E+02  0.45594000000E+02  0.51100000000E-03 0.  1.
    9900012    2    1    2    0    0 -0.32800794589E+02  0.23854565817E+02 -0.28694425318E+01  0.50528854209E+02  0.29999982855E+02 0.  0.
         12    1    1    2    0    0  0.32800794589E+02 -0.23854565817E+02  0.28694425318E+01  0.40659145791E+02  0.00000000000E+00 0. -1.
         11    1    3    3    0    0 -0.73368199811E+01  0.73303655833E+01  0.62578574455E+00  0.10390129695E+02  0.51100000000E-03 0. -1.
        -11    1    3    3    0    0 -0.21473233031E+02  0.11004151035E+02  0.91259547651E+01  0.25796785215E+02  0.51100000000E-03 0.  1.
        -12    1    3    3    0    0 -0.39907415761E+01  0.55200491992E+01 -0.12621183042E+02  0.14341939299E+02  0.00000000000E+00 0.  1.
</event>
<event>
 7    1  0.3331850E-011  0.5052886E+02  0.7816164E-02  0.1300439E+00
        -11   -1    0    0    0    0  0.00000000000E+00  0.00000000000E+00  0.45593999997E+02  0.45594000000E+02  0.51100000000E-03 0.  1.
         11   -1    0    0    0    0 -0.00000000000E+00 -0.00000000000E+00 -0.45593999997E+02  0.45594000000E+02  0.51100000000E-03 0. -1.
    9900012    2    1    2    0    0  0.24573464863E+01  0.25522545845E+02  0.31555142023E+02  0.50528857285E+02  0.29999992204E+02 0.  0.
         12    1    1    2    0    0 -0.24573464863E+01 -0.25522545845E+02 -0.31555142023E+02  0.40659142715E+02  0.00000000000E+00 0. -1.
         11    1    3    3    0    0  0.50332947780E+01 -0.17946740189E+01  0.64446571840E+01  0.83718885347E+01  0.51100000000E-03 0. -1.
        -11    1    3    3    0    0  0.53006381446E+01  0.99660635860E-01  0.22878636205E+01  0.57741680950E+01  0.51100000000E-03 0.  1.
        -12    1    3    3    0    0 -0.78765864364E+01  0.27217559228E+02  0.22822621219E+02  0.36382800656E+02  0.00000000000E+00 0.  1.
</event>
<event>
 7    1  0.3331850E-011  0.5052886E+02  0.7816164E-02  0.1300439E+00
        -11   -1    0    0    0    0  0.00000000000E+00  0.00000000000E+00  0.45593999997E+02  0.45594000000E+02  0.51100000000E-03 0. -1.
         11   -1    0    0    0    0 -0.00000000000E+00 -0.00000000000E+00 -0.45593999997E+02  0.45594000000E+02  0.51100000000E-03 0.  1.
    9900012    2    1    2    0    0  0.16832748917E+02 -0.36209284739E+02 -0.76623765703E+01  0.50528858935E+02  0.29999997220E+02 0.  0.
         12    1    1    2    0    0 -0.16832748917E+02  0.36209284739E+02  0.76623765703E+01  0.40659141065E+02  0.00000000000E+00 0. -1.
         11    1    3    3    0    0  0.37597580607E+01 -0.14470546931E+02  0.15978005095E+01  0.15036138995E+02  0.51100000000E-03 0. -1.
        -11    1    3    3    0    0  0.46208721866E+01 -0.18727505532E+02 -0.15347708977E+02  0.24650032339E+02  0.51100000000E-03 0.  1.
         12    1    3    3    0    0  0.84521186700E+01 -0.30112322761E+01  0.60875318968E+01  0.10842687602E+02  0.00000000000E+00 0. -1.
</event>
<event>
 7    1  0.3331850E-011  0.5052885E+02  0.7816164E-02  0.1300439E+00
        -11   -1    0    0    0    0  0.00000000000E+00  0.00000000000E+00  0.45593999997E+02  0.45594000000E+02  0.51100000000E-03 0.  1.
         11   -1    0    0    0    0 -0.00000000000E+00 -0.00000000000E+00 -0.45593999997E+02  0.45594000000E+02  0.51100000000E-03 0. -1.
    9900012    2    1    2    0    0  0.35753005561E+02 -0.14131411360E+02  0.13236018828E+02  0.50528851114E+02  0.29999973447E+02 0.  0.
         12    1    1    2    0    0 -0.35753005561E+02  0.14131411360E+02 -0.13236018828E+02  0.40659148886E+02  0.00000000000E+00 0. -1.
         11    1    3    3    0    0  0.24927296674E+01  0.12870870031E+01 -0.44886809442E+00  0.28410872876E+01  0.51100000000E-03 0. -1.
        -11    1    3    3    0    0  0.33921665611E+02 -0.11244983133E+02  0.26076794664E+01  0.35831955514E+02  0.51100000000E-03 0.  1.
         12    1    3    3    0    0 -0.66138971678E+00 -0.41735152298E+01  0.11077207456E+02  0.11855808313E+02  0.00000000000E+00 0. -1.
</event>
<event>
 7    1  0.3331850E-011  0.5052886E+02  0.7816164E-02  0.1300439E+00
        -11   -1    0    0    0    0  0.00000000000E+00  0.00000000000E+00  0.45593999997E+02  0.45594000000E+02  0.51100000000E-03 0. -1.
         11   -1    0    0    0    0 -0.00000000000E+00 -0.00000000000E+00 -0.45593999997E+02  0.45594000000E+02  0.51100000000E-03 0.  1.
    9900012    2    1    2    0    0 -0.35127198710E+02  0.12732623691E+02 -0.16035136461E+02  0.50528863307E+02  0.30000010508E+02 0.  0.
         12    1    1    2    0    0  0.35127198710E+02 -0.12732623691E+02  0.16035136461E+02  0.40659136693E+02  0.00000000000E+00 0. -1.
         11    1    3    3    0    0 -0.13668823333E+02  0.12408134938E+01 -0.59387367868E+01  0.14954763265E+02  0.51100000000E-03 0. -1.
        -11    1    3    3    0    0 -0.20588513726E+02  0.55137247942E+01 -0.16362321483E+02  0.26870311184E+02  0.51100000000E-03 0.  1.
         12    1    3    3    0    0 -0.86986165167E+00  0.59780854028E+01  0.62659218085E+01  0.87037888581E+01  0.00000000000E+00 0. -1.
</event>
<event>
 7    1  0.3331850E-011  0.5052886E+02  0.7816164E-02  0.1300439E+00
        -11   -1    0    0    0    0  0.00000000000E+00  0.00000000000E+00  0.45593999997E+02  0.45594000000E+02  0.51100000000E-03 0.  1.
         11   -1    0    0    0    0 -0.00000000000E+00 -0.00000000000E+00 -0.45593999997E+02  0.45594000000E+02  0.51100000000E-03 0. -1.
    9900012    2    1    2    0    0 -0.12970627607E+02 -0.37291465782E+02  0.97095521520E+01  0.50528855841E+02  0.29999987815E+02 0.  0.
         12    1    1    2    0    0  0.12970627607E+02  0.37291465782E+02 -0.97095521520E+01  0.40659144159E+02  0.00000000000E+00 0. -1.
         11    1    3    3    0    0  0.14123956474E+01 -0.36495739545E+01 -0.41197425124E+01  0.56821237353E+01  0.51100000000E-03 0. -1.
        -11    1    3    3    0    0  0.13923817327E+01 -0.17028289155E+02 -0.16998792235E+01  0.17169477222E+02  0.51100000000E-03 0.  1.
        -12    1    3    3    0    0 -0.15775404987E+02 -0.16613602673E+02  0.15529173888E+02  0.27677254884E+02  0.00000000000E+00 0.  1.
</event>
<event>
 7    1  0.3331850E-011  0.5052885E+02  0.7816164E-02  0.1300439E+00
        -11   -1    0    0    0    0  0.00000000000E+00  0.00000000000E+00  0.45593999997E+02  0.45594000000E+02  0.51100000000E-03 0.  1.
         11   -1    0    0    0    0 -0.00000000000E+00 -0.00000000000E+00 -0.45593999997E+02  0.45594000000E+02  0.51100000000E-03 0. -1.
    9900012    2    1    2    0    0 -0.38768221200E+02 -0.11304814501E+02  0.47320828754E+01  0.50528850793E+02  0.29999972470E+02 0.  0.
         12    1    1    2    0    0  0.38768221200E+02  0.11304814501E+02 -0.47320828754E+01  0.40659149207E+02  0.00000000000E+00 0. -1.
         11    1    3    3    0    0 -0.61396886016E+01  0.39449902895E+01 -0.21434556724E+00  0.73010046427E+01  0.51100000000E-03 0. -1.
        -11    1    3    3    0    0 -0.15967629482E+02  0.26489625126E+01  0.88779316776E+01  0.18460765553E+02  0.51100000000E-03 0.  1.
        -12    1    3    3    0    0 -0.16660903117E+02 -0.17898767303E+02 -0.39315032350E+01  0.24767080597E+02  0.00000000000E+00 0.  1.
</event>
<event>
 7    1  0.3331850E-011  0.5052886E+02  0.7816164E-02  0.1300439E+00
        -11   -1    0    0    0    0  0.00000000000E+00  0.00000000000E+00  0.45593999997E+02  0.45594000000E+02  0.51100000000E-03 0.  1.
         11   -1    0    0    0    0 -0.00000000000E+00 -0.00000000000E+00 -0.45593999997E+02  0.45594000000E+02  0.51100000000E-03 0. -1.
    9900012    2    1    2    0    0  0.61042308007E+01  0.36168711179E+02  0.17542190399E+02  0.50528859010E+02  0.29999997448E+02 0.  0.
         12    1    1    2    0    0 -0.61042308007E+01 -0.36168711179E+02 -0.17542190399E+02  0.40659140990E+02  0.00000000000E+00 0. -1.
         11    1    3    3    0    0 -0.16356458606E+01  0.24249422991E+02  0.19477264630E+01  0.24382442278E+02  0.51100000000E-03 0. -1.
        -11    1    3    3    0    0  0.69916193787E+01  0.13872872561E+00  0.53712473636E+00  0.70135932616E+01  0.51100000000E-03 0.  1.
         12    1    3    3    0    0  0.74825728253E+00  0.11780559462E+02  0.15057339200E+02  0.19132823471E+02  0.00000000000E+00 0. -1.
</event>
<event>
 7    1  0.3331850E-011  0.5052896E+02  0.7816164E-02  0.1300438E+00
        -11   -1    0    0    0    0  0.00000000000E+00  0.00000000000E+00  0.45593999997E+02  0.45594000000E+02  0.51100000000E-03 0.  1.
         11   -1    0    0    0    0 -0.00000000000E+00 -0.00000000000E+00 -0.45593999997E+02  0.45594000000E+02  0.51100000000E-03 0. -1.
    9900012    2    1    2    0    0 -0.34301717658E+02 -0.20752272535E+02 -0.67744034251E+01  0.50528964209E+02  0.30000317209E+02 0.  0.
         12    1    1    2    0    0  0.34301717658E+02  0.20752272535E+02  0.67744034251E+01  0.40659035791E+02  0.00000000000E+00 0. -1.
         11    1    3    3    0    0 -0.48082494114E+01  0.72791994548E+01  0.46131228818E+00  0.87360641249E+01  0.51100000000E-03 0. -1.
        -11    1    3    3    0    0 -0.12454086273E+02 -0.77650440336E+01 -0.29641278544E+01  0.14972849693E+02  0.51100000000E-03 0.  1.
        -12    1    3    3    0    0 -0.17039381974E+02 -0.20266427956E+02 -0.42715878590E+01  0.26820050391E+02  0.00000000000E+00 0.  1.
</event>
<event>
 7    1  0.3331850E-011  0.5052886E+02  0.7816164E-02  0.1300439E+00
        -11   -1    0    0    0    0  0.00000000000E+00  0.00000000000E+00  0.45593999997E+02  0.45594000000E+02  0.51100000000E-03 0.  1.
         11   -1    0    0    0    0 -0.00000000000E+00 -0.00000000000E+00 -0.45593999997E+02  0.45594000000E+02  0.51100000000E-03 0. -1.
    9900012    2    1    2    0    0 -0.19550435352E+02 -0.35646211482E+02 -0.54189138616E+00  0.50528861276E+02  0.30000004335E+02 0.  0.
         12    1    1    2    0    0  0.19550435352E+02  0.35646211482E+02  0.54189138616E+00  0.40659138724E+02  0.00000000000E+00 0. -1.
         11    1    3    3    0    0 -0.10789862029E+02 -0.38419430458E+01 -0.47433771110E+00  0.11463273769E+02  0.51100000000E-03 0. -1.
        -11    1    3    3    0    0 -0.52086192125E+01 -0.32230177948E+01  0.71090363049E+01  0.93838134706E+01  0.51100000000E-03 0.  1.
        -12    1    3    3    0    0 -0.35519541104E+01 -0.28581250642E+02 -0.71765899799E+01  0.29681774037E+02  0.00000000000E+00 0.  1.
</event>
<event>
 7    1  0.3331850E-011  0.5052886E+02  0.7816164E-02  0.1300439E+00
        -11   -1    0    0    0    0  0.00000000000E+00  0.00000000000E+00  0.45593999997E+02  0.45594000000E+02  0.51100000000E-03 0.  1.
         11   -1    0    0    0    0 -0.00000000000E+00 -0.00000000000E+00 -0.45593999997E+02  0.45594000000E+02  0.51100000000E-03 0. -1.
    9900012    2    1    2    0    0 -0.38040298970E+01  0.37581660189E+02  0.15043729584E+02  0.50528860488E+02  0.30000001941E+02 0.  0.
         12    1    1    2    0    0  0.38040298970E+01 -0.37581660189E+02 -0.15043729584E+02  0.40659139512E+02  0.00000000000E+00 0. -1.
         11    1    3    3    0    0 -0.11895098360E-01  0.25820476910E+01 -0.35403504477E+01  0.43819166269E+01  0.51100000000E-03 0. -1.
        -11    1    3    3    0    0  0.13817961620E+01  0.82948159714E+01  0.16920313817E+02  0.18894717583E+02  0.51100000000E-03 0.  1.
         12    1    3    3    0    0 -0.51739309607E+01  0.26704796527E+02  0.16637662154E+01  0.27252226278E+02  0.00000000000E+00 0. -1.
</event>
<event>
 7    1  0.3331850E-011  0.5052887E+02  0.7816164E-02  0.1300439E+00
        -11   -1    0    0    0    0  0.00000000000E+00  0.00000000000E+00  0.45593999997E+02  0.45594000000E+02  0.51100000000E-03 0.  1.
         11   -1    0    0    0    0 -0.00000000000E+00 -0.00000000000E+00 -0.45593999997E+02  0.45594000000E+02  0.51100000000E-03 0. -1.
    9900012    2    1    2    0    0  0.11104726640E+02  0.31327208972E+02 -0.23419139564E+02  0.50528867278E+02  0.30000022580E+02 0.  0.
         12    1    1    2    0    0 -0.11104726640E+02 -0.31327208972E+02  0.23419139564E+02  0.40659132722E+02  0.00000000000E+00 0. -1.
         11    1    3    3    0    0  0.42046027658E+01  0.73889626367E+00 -0.17462218320E+02  0.17976476880E+02  0.51100000000E-03 0. -1.
        -11    1    3    3    0    0  0.57563324768E+00  0.41929842032E+01 -0.31282795042E+01  0.52629462359E+01  0.51100000000E-03 0.  1.
         12    1    3    3    0    0  0.63244906270E+01  0.26395328505E+02 -0.28286417398E+01  0.27289444162E+02  0.00000000000E+00 0. -1.
</event>
<event>
 7    1  0.3331850E-011  0.5052886E+02  0.7816164E-02  0.1300439E+00
        -11   -1    0    0    0    0  0.00000000000E+00  0.00000000000E+00  0.45593999997E+02  0.45594000000E+02  0.51100000000E-03 0. -1.
         11   -1    0    0    0    0 -0.00000000000E+00 -0.00000000000E+00 -0.45593999997E+02  0.45594000000E+02  0.51100000000E-03 0.  1.
    9900012    2    1    2    0    0  0.13211301236E+02 -0.11229965380E+02 -0.36776554319E+02  0.50528861416E+02  0.30000004761E+02 0.  0.
         12    1    1    2    0    0 -0.13211301236E+02  0.11229965380E+02  0.36776554319E+02  0.40659138584E+02  0.00000000000E+00 0. -1.
         11    1    3    3    0    0  0.13529384268E+01 -0.27953471690E+01  0.26883181477E+01  0.41074886373E+01  0.51100000000E-03 0. -1.
        -11    1    3    3    0    0 -0.41654892876E+01 -0.50265039988E+01 -0.48730032457E+01  0.81463614178E+01  0.51100000000E-03 0.  1.
         12    1    3    3    0    0  0.16023852097E+02 -0.34081142126E+01 -0.34591869221E+02  0.38275011361E+02  0.00000000000E+00 0. -1.
</event>
<event>
 7    1  0.3331850E-011  0.5052886E+02  0.7816164E-02  0.1300439E+00
        -11   -1    0    0    0    0  0.00000000000E+00  0.00000000000E+00  0.45593999997E+02  0.45594000000E+02  0.51100000000E-03 0.  1.
         11   -1    0    0    0    0 -0.00000000000E+00 -0.00000000000E+00 -0.45593999997E+02  0.45594000000E+02  0.51100000000E-03 0. -1.
    9900012    2    1    2    0    0  0.29130204509E+02  0.14532506089E+02  0.24359866181E+02  0.50528860458E+02  0.30000001848E+02 0.  0.
         12    1    1    2    0    0 -0.29130204509E+02 -0.14532506089E+02 -0.24359866181E+02  0.40659139542E+02  0.00000000000E+00 0. -1.
         11    1    3    3    0    0  0.89309060805E+01  0.13108013618E+02  0.87034540369E+01  0.18092297169E+02  0.51100000000E-03 0. -1.
        -11    1    3    3    0    0  0.34235751369E+01  0.85593907683E+01  0.93919666736E+01  0.13160284013E+02  0.51100000000E-03 0.  1.
         12    1    3    3    0    0  0.16775723291E+02 -0.71348982974E+01  0.62644454710E+01  0.19276279276E+02  0.00000000000E+00 0. -1.
</event>
<event>
 7    1  0.3331850E-011  0.5052891E+02  0.7816164E-02  0.1300439E+00
        -11   -1    0    0    0    0  0.00000000000E+00  0.00000000000E+00  0.45593999997E+02  0.45594000000E+02  0.51100000000E-03 0.  1.
         11   -1    0    0    0    0 -0.00000000000E+00 -0.00000000000E+00 -0.45593999997E+02  0.45594000000E+02  0.51100000000E-03 0. -1.
    9900012    2    1    2    0    0  0.13132802893E+02 -0.25920837852E+02  0.28439425746E+02  0.50528913887E+02  0.30000164251E+02 0.  0.
         12    1    1    2    0    0 -0.13132802893E+02  0.25920837852E+02 -0.28439425746E+02  0.40659086113E+02  0.00000000000E+00 0. -1.
         11    1    3    3    0    0  0.77428948202E+01  0.28809272280E+01  0.29755880660E+01  0.87810185337E+01  0.51100000000E-03 0. -1.
        -11    1    3    3    0    0 -0.41656209965E+01 -0.51906123022E+01  0.97975110603E+01  0.11844242382E+02  0.51100000000E-03 0.  1.
         12    1    3    3    0    0  0.95555290695E+01 -0.23611152778E+02  0.15666326619E+02  0.29903652972E+02  0.00000000000E+00 0. -1.
</event>
<event>
 7    1  0.3331850E-011  0.5052885E+02  0.7816164E-02  0.1300439E+00
        -11   -1    0    0    0    0  0.00000000000E+00  0.00000000000E+00  0.45593999997E+02  0.45594000000E+02  0.51100000000E-03 0.  1.
         11   -1    0    0    0    0 -0.00000000000E+00 -0.00000000000E+00 -0.45593999997E+02  0.45594000000E+02  0.51100000000E-03 0. -1.
    9900012    2    1    2    0    0  0.57500409456E+01 -0.31501867051E+02  0.25054650362E+02  0.50528854616E+02  0.29999984090E+02 0.  0.
         12    1    1    2    0    0 -0.57500409456E+01  0.31501867051E+02 -0.25054650362E+02  0.40659145384E+02  0.00000000000E+00 0. -1.
         11    1    3    3    0    0  0.79266389771E+01 -0.20015964018E+01  0.74126623951E+01  0.11035649400E+02  0.51100000000E-03 0. -1.
        -11    1    3    3    0    0  0.66204044399E+00  0.14615364475E+01  0.61336368406E+01  0.63400226727E+01  0.51100000000E-03 0.  1.
        -12    1    3    3    0    0 -0.28386384755E+01 -0.30961807097E+02  0.11508351127E+02  0.33153182543E+02  0.00000000000E+00 0.  1.
</event>
<event>
 7    1  0.3331850E-011  0.5052885E+02  0.7816164E-02  0.1300439E+00
        -11   -1    0    0    0    0  0.00000000000E+00  0.00000000000E+00  0.45593999997E+02  0.45594000000E+02  0.51100000000E-03 0.  1.
         11   -1    0    0    0    0 -0.00000000000E+00 -0.00000000000E+00 -0.45593999997E+02  0.45594000000E+02  0.51100000000E-03 0. -1.
    9900012    2    1    2    0    0 -0.13745709763E+02  0.38010141476E+02  0.44102929724E+01  0.50528854952E+02  0.29999985113E+02 0.  0.
         12    1    1    2    0    0  0.13745709763E+02 -0.38010141476E+02 -0.44102929724E+01  0.40659145048E+02  0.00000000000E+00 0. -1.
         11    1    3    3    0    0  0.37708298747E+01  0.12126297865E+02  0.32433262801E+01  0.13106693842E+02  0.51100000000E-03 0. -1.
        -11    1    3    3    0    0 -0.30380632681E+01  0.11019219552E+02  0.96943936614E+01  0.14987804932E+02  0.51100000000E-03 0.  1.
         12    1    3    3    0    0 -0.14478476369E+02  0.14864624059E+02 -0.85274269692E+01  0.22434356178E+02  0.00000000000E+00 0. -1.
</event>
<event>
 7    1  0.3331850E-011  0.5052886E+02  0.7816164E-02  0.1300439E+00
        -11   -1    0    0    0    0  0.00000000000E+00  0.00000000000E+00  0.45593999997E+02  0.45594000000E+02  0.51100000000E-03 0. -1.
         11   -1    0    0    0    0 -0.00000000000E+00 -0.00000000000E+00 -0.45593999997E+02  0.45594000000E+02  0.51100000000E-03 0.  1.
    9900012    2    1    2    0    0 -0.80930610344E+01 -0.30361838429E+02 -0.25803624522E+02  0.50528857016E+02  0.29999991386E+02 0.  0.
         12    1    1    2    0    0  0.80930610344E+01  0.30361838429E+02  0.25803624522E+02  0.40659142984E+02  0.00000000000E+00 0. -1.
         11    1    3    3    0    0 -0.10921198340E+02 -0.56240353965E+01 -0.47529264389E+01  0.13171661145E+02  0.51100000000E-03 0. -1.
        -11    1    3    3    0    0  0.44720987132E+01 -0.38465659573E+00 -0.91724409533E+01  0.10211821625E+02  0.51100000000E-03 0.  1.
        -12    1    3    3    0    0 -0.16439614073E+01 -0.24353146437E+02 -0.11878257130E+02  0.27145374246E+02  0.00000000000E+00 0.  1.
</event>
<event>
 7    1  0.3331850E-011  0.5052886E+02  0.7816164E-02  0.1300439E+00
        -11   -1    0    0    0    0  0.00000000000E+00  0.00000000000E+00  0.45593999997E+02  0.45594000000E+02  0.51100000000E-03 0.  1.
         11   -1    0    0    0    0 -0.00000000000E+00 -0.00000000000E+00 -0.45593999997E+02  0.45594000000E+02  0.51100000000E-03 0. -1.
    9900012    2    1    2    0    0  0.66629977791E+01 -0.46984454849E+01  0.39833336107E+02  0.50528860870E+02  0.30000003102E+02 0.  0.
         12    1    1    2    0    0 -0.66629977791E+01  0.46984454849E+01 -0.39833336107E+02  0.40659139130E+02  0.00000000000E+00 0. -1.
         11    1    3    3    0    0  0.72746881711E+01  0.59305732297E+01  0.48509407913E+01  0.10565245555E+02  0.51100000000E-03 0. -1.
        -11    1    3    3    0    0 -0.71386974577E+01 -0.16594476503E+01  0.83320426671E+01  0.11096742908E+02  0.51100000000E-03 0.  1.
        -12    1    3    3    0    0  0.65270070657E+01 -0.89695710643E+01  0.26650352648E+02  0.28866872407E+02  0.00000000000E+00 0.  1.
</event>
<event>
 7    1  0.3331850E-011  0.5052886E+02  0.7816164E-02  0.1300439E+00
        -11   -1    0    0    0    0  0.00000000000E+00  0.00000000000E+00  0.45593999997E+02  0.45594000000E+02  0.51100000000E-03 0. -1.
         11   -1    0    0    0    0 -0.00000000000E+00 -0.00000000000E+00 -0.45593999997E+02  0.45594000000E+02  0.51100000000E-03 0.  1.
    9900012    2    1    2    0    0  0.16678576383E+02 -0.31340344006E+02 -0.19818509442E+02  0.50528863400E+02  0.30000010790E+02 0.  0.
         12    1    1    2    0    0 -0.16678576383E+02  0.31340344006E+02  0.19818509442E+02  0.40659136600E+02  0.00000000000E+00 0. -1.
         11    1    3    3    0    0 -0.88058132620E-01 -0.11929349648E+00  0.18859341300E+01  0.18917539419E+01  0.51100000000E-03 0. -1.
        -11    1    3    3    0    0  0.32027289362E+01 -0.15898894219E+01  0.52459969179E+01  0.63486774163E+01  0.51100000000E-03 0.  1.
        -12    1    3    3    0    0  0.13563905579E+02 -0.29631161088E+02 -0.26950440490E+02  0.42288432042E+02  0.00000000000E+00 0.  1.
</event>
<event>
 7    1  0.3331850E-011  0.5052886E+02  0.7816164E-02  0.1300439E+00
        -11   -1    0    0    0    0  0.00000000000E+00  0.00000000000E+00  0.45593999997E+02  0.45594000000E+02  0.51100000000E-03 0.  1.
         11   -1    0    0    0    0 -0.00000000000E+00 -0.00000000000E+00 -0.45593999997E+02  0.45594000000E+02  0.51100000000E-03 0. -1.
    9900012    2    1    2    0    0  0.10769041867E+02 -0.34829447652E+02  0.18002871420E+02  0.50528855077E+02  0.29999985493E+02 0.  0.
         12    1    1    2    0    0 -0.10769041867E+02  0.34829447652E+02 -0.18002871420E+02  0.40659144923E+02  0.00000000000E+00 0. -1.
         11    1    3    3    0    0 -0.24044727553E+01 -0.17633148899E+02  0.67689007788E+00  0.17809200144E+02  0.51100000000E-03 0. -1.
        -11    1    3    3    0    0  0.95709614078E+01 -0.20509761570E+02  0.12543746030E+02  0.25876614668E+02  0.51100000000E-03 0.  1.
         12    1    3    3    0    0  0.36025532143E+01  0.33134628167E+01  0.47822353122E+01  0.68430402659E+01  0.00000000000E+00 0. -1.
</event>
<event>
 7    1  0.3331850E-011  0.5052886E+02  0.7816164E-02  0.1300439E+00
        -11   -1    0    0    0    0  0.00000000000E+00  0.00000000000E+00  0.45593999997E+02  0.45594000000E+02  0.51100000000E-03 0.  1.
         11   -1    0    0    0    0 -0.00000000000E+00 -0.00000000000E+00 -0.45593999997E+02  0.45594000000E+02  0.51100000000E-03 0. -1.
    9900012    2    1    2    0    0 -0.69039438230E+01  0.11399480354E+02  0.38412929865E+02  0.50528858673E+02  0.29999996423E+02 0.  0.
         12    1    1    2    0    0  0.69039438230E+01 -0.11399480354E+02 -0.38412929865E+02  0.40659141327E+02  0.00000000000E+00 0. -1.
         11    1    3    3    0    0  0.53371071109E+01  0.56837313590E+01  0.86687745908E+01  0.11659209563E+02  0.51100000000E-03 0. -1.
        -11    1    3    3    0    0  0.55110697734E+01  0.34237891776E+01  0.43894857119E+01  0.78333777807E+01  0.51100000000E-03 0.  1.
        -12    1    3    3    0    0 -0.17752120707E+02  0.22919598174E+01  0.25354669562E+02  0.31036271329E+02  0.00000000000E+00 0.  1.
</event>
<event>
 7    1  0.3331850E-011  0.5052888E+02  0.7816164E-02  0.1300439E+00
        -11   -1    0    0    0    0  0.00000000000E+00  0.00000000000E+00  0.45593999997E+02  0.45594000000E+02  0.51100000000E-03 0. -1.
         11   -1    0    0    0    0 -0.00000000000E+00 -0.00000000000E+00 -0.45593999997E+02  0.45594000000E+02  0.51100000000E-03 0.  1.
    9900012    2    1    2    0    0  0.38061912868E+02 -0.14229875952E+02 -0.14020007023E+01  0.50528878185E+02  0.30000055733E+02 0.  0.
         12    1    1    2    0    0 -0.38061912868E+02  0.14229875952E+02  0.14020007023E+01  0.40659121815E+02  0.00000000000E+00 0. -1.
         11    1    3    3    0    0  0.23080552935E+01 -0.83918618516E+01 -0.20072979615E+01  0.89319488323E+01  0.51100000000E-03 0. -1.
        -11    1    3    3    0    0  0.30038834749E+02 -0.93155284734E+01  0.71341926881E+01  0.32249145251E+02  0.51100000000E-03 0.  1.
         12    1    3    3    0    0  0.57150228247E+01  0.34775143730E+01 -0.65288954289E+01  0.93477841023E+01  0.00000000000E+00 0. -1.
</event>
<event>
 7    1  0.3331850E-011  0.5052886E+02  0.7816164E-02  0.1300439E+00
        -11   -1    0    0    0    0  0.00000000000E+00  0.00000000000E+00  0.45593999997E+02  0.45594000000E+02  0.51100000000E-03 0.  1.
         11   -1    0    0    0    0 -0.00000000000E+00 -0.00000000000E+00 -0.45593999997E+02  0.45594000000E+02  0.51100000000E-03 0. -1.
    9900012    2    1    2    0    0 -0.16317989989E+02 -0.15304531486E+02  0.33950844164E+02  0.50528864487E+02  0.30000014093E+02 0.  0.
         12    1    1    2    0    0  0.16317989989E+02  0.15304531486E+02 -0.33950844164E+02  0.40659135513E+02  0.00000000000E+00 0. -1.
         11    1    3    3    0    0  0.15196149363E+01  0.24955805184E+01 -0.23006066073E+01  0.37188630925E+01  0.51100000000E-03 0. -1.
        -11    1    3    3    0    0 -0.21618075005E+01  0.28496987336E+01  0.31661672715E+01  0.47769038083E+01  0.51100000000E-03 0.  1.
        -12    1    3    3    0    0 -0.15675797425E+02 -0.20649810738E+02  0.33085283499E+02  0.42033097586E+02  0.00000000000E+00 0.  1.
</event>
<event>
 7    1  0.3331850E-011  0.5052886E+02  0.7816164E-02  0.1300439E+00
        -11   -1    0    0    0    0  0.00000000000E+00  0.00000000000E+00  0.45593999997E+02  0.45594000000E+02  0.51100000000E-03 0. -1.
         11   -1    0    0    0    0 -0.00000000000E+00 -0.00000000000E+00 -0.45593999997E+02  0.45594000000E+02  0.51100000000E-03 0.  1.
    9900012    2    1    2    0    0  0.45099215737E+01  0.21707902561E+01 -0.40349894644E+02  0.50528859321E+02  0.29999998393E+02 0.  0.
         12    1    1    2    0    0 -0.45099215737E+01 -0.21707902561E+01  0.40349894644E+02  0.40659140679E+02  0.00000000000E+00 0. -1.
         11    1    3    3    0    0  0.11068272648E+02  0.23659685872E+00 -0.30954319081E+02  0.32874496308E+02  0.51100000000E-03 0. -1.
        -11    1    3    3    0    0  0.52697317734E+00  0.46130967345E+01 -0.89303233261E+01  0.10065239052E+02  0.51100000000E-03 0.  1.
         12    1    3    3    0    0 -0.70853242518E+01 -0.26789033371E+01 -0.46525223685E+00  0.75891239605E+01  0.00000000000E+00 0. -1.
</event>
<event>
 7    1  0.3331850E-011  0.5052887E+02  0.7816164E-02  0.1300439E+00
        -11   -1    0    0    0    0  0.00000000000E+00  0.00000000000E+00  0.45593999997E+02  0.45594000000E+02  0.51100000000E-03 0.  1.
         11   -1    0    0    0    0 -0.00000000000E+00 -0.00000000000E+00 -0.45593999997E+02  0.45594000000E+02  0.51100000000E-03 0. -1.
    9900012    2    1    2    0    0  0.31187227088E+02 -0.23643778646E+02 -0.11022421792E+02  0.50528865919E+02  0.30000018447E+02 0.  0.
         12    1    1    2    0    0 -0.31187227088E+02  0.23643778646E+02  0.11022421792E+02  0.40659134081E+02  0.00000000000E+00 0. -1.
         11    1    3    3    0    0 -0.23794082575E+01 -0.40837874325E+01 -0.67453857489E+01  0.82364514575E+01  0.51100000000E-03 0. -1.
        -11    1    3    3    0    0  0.16376878563E+02 -0.68027258870E+00  0.75289145616E-01  0.16391174180E+02  0.51100000000E-03 0.  1.
        -12    1    3    3    0    0  0.17189756782E+02 -0.18879718625E+02 -0.43523251884E+01  0.25901240282E+02  0.00000000000E+00 0.  1.
</event>
<event>
 7    1  0.3331850E-011  0.5052886E+02  0.7816164E-02  0.1300439E+00
        -11   -1    0    0    0    0  0.00000000000E+00  0.00000000000E+00  0.45593999997E+02  0.45594000000E+02  0.51100000000E-03 0.  1.
         11   -1    0    0    0    0 -0.00000000000E+00 -0.00000000000E+00 -0.45593999997E+02  0.45594000000E+02  0.51100000000E-03 0. -1.
    9900012    2    1    2    0    0 -0.23894256139E+02 -0.22131920138E+02  0.24339432849E+02  0.50528863796E+02  0.30000011995E+02 0.  0.
         12    1    1    2    0    0  0.23894256139E+02  0.22131920138E+02 -0.24339432849E+02  0.40659136204E+02  0.00000000000E+00 0. -1.
         11    1    3    3    0    0 -0.68387448955E+01 -0.21836980381E+01 -0.49741440147E+01  0.87337894300E+01  0.51100000000E-03 0. -1.
        -11    1    3    3    0    0 -0.74538158169E+01 -0.17513854409E+01  0.26203684500E+01  0.80927777845E+01  0.51100000000E-03 0.  1.
         12    1    3    3    0    0 -0.96016954269E+01 -0.18196836659E+02  0.26693208413E+02  0.33702296582E+02  0.00000000000E+00 0. -1.
</event>
<event>
 7    1  0.3331850E-011  0.5052886E+02  0.7816164E-02  0.1300439E+00
        -11   -1    0    0    0    0  0.00000000000E+00  0.00000000000E+00  0.45593999997E+02  0.45594000000E+02  0.51100000000E-03 0.  1.
         11   -1    0    0    0    0 -0.00000000000E+00 -0.00000000000E+00 -0.45593999997E+02  0.45594000000E+02  0.51100000000E-03 0. -1.
    9900012    2    1    2    0    0 -0.36848379816E+02 -0.93575324949E-01  0.17185861899E+02  0.50528859569E+02  0.29999999146E+02 0.  0.
         12    1    1    2    0    0  0.36848379816E+02  0.93575324949E-01 -0.17185861899E+02  0.40659140431E+02  0.00000000000E+00 0. -1.
         11    1    3    3    0    0 -0.23112014243E+02 -0.18655914272E+01  0.11459127306E+02  0.25864207558E+02  0.51100000000E-03 0. -1.
        -11    1    3    3    0    0 -0.17614334040E+02  0.27152676099E+01  0.85587346775E+01  0.19770922624E+02  0.51100000000E-03 0.  1.
         12    1    3    3    0    0  0.38779684670E+01 -0.94325150765E+00 -0.28320000841E+01  0.48937293871E+01  0.00000000000E+00 0. -1.
</event>
<event>
 7    1  0.4355182E-011  0.5052886E+02  0.7816164E-02  0.1300439E+00
        -11   -1    0    0    0    0  0.00000000000E+00  0.00000000000E+00  0.45593999997E+02  0.45594000000E+02  0.51100000000E-03 0. -1.
         11   -1    0    0    0    0 -0.00000000000E+00 -0.00000000000E+00 -0.45593999997E+02  0.45594000000E+02  0.51100000000E-03 0.  1.
    9900012    2    1    2    0    0  0.32695045287E+02  0.64641658765E+01 -0.23289780546E+02  0.50528864437E+02  0.30000013944E+02 0.  0.
         12    1    1    2    0    0 -0.32695045287E+02 -0.64641658765E+01  0.23289780546E+02  0.40659135563E+02  0.00000000000E+00 0. -1.
         11    1    3    3    0    0  0.23518641189E+01 -0.49420186843E+01  0.90358520672E+00  0.55471866741E+01  0.51100000000E-03 0. -1.
        -11    1    3    3    0    0  0.58074445654E+01  0.65661326785E+01 -0.16723024177E+02  0.18881208876E+02  0.51100000000E-03 0.  1.
         12    1    3    3    0    0  0.24535736603E+02  0.48400518824E+01 -0.74703415754E+01  0.26100468887E+02  0.00000000000E+00 0. -1.
</event>
<event>
 7    1  0.3331850E-011  0.5052882E+02  0.7816164E-02  0.1300439E+00
        -11   -1    0    0    0    0  0.00000000000E+00  0.00000000000E+00  0.45593999997E+02  0.45594000000E+02  0.51100000000E-03 0.  1.
         11   -1    0    0    0    0 -0.00000000000E+00 -0.00000000000E+00 -0.45593999997E+02  0.45594000000E+02  0.51100000000E-03 0. -1.
    9900012    2    1    2    0    0 -0.21166808094E+02 -0.29470593652E+01  0.34589732447E+02  0.50528824965E+02  0.29999893964E+02 0.  0.
         12    1    1    2    0    0  0.21166808094E+02  0.29470593652E+01 -0.34589732447E+02  0.40659175035E+02  0.00000000000E+00 0. -1.
         11    1    3    3    0    0 -0.22451073070E+02  0.33836045570E+01  0.15380456759E+02  0.27423674301E+02  0.51100000000E-03 0. -1.
        -11    1    3    3    0    0 -0.30086633351E+01 -0.66220835234E+00  0.54005981316E+00  0.31276572428E+01  0.51100000000E-03 0.  1.
         12    1    3    3    0    0  0.42929283112E+01 -0.56684555699E+01  0.18669215874E+02  0.19977493421E+02  0.00000000000E+00 0. -1.
</event>
<event>
 7    1  0.3331850E-011  0.5052886E+02  0.7816164E-02  0.1300439E+00
        -11   -1    0    0    0    0  0.00000000000E+00  0.00000000000E+00  0.45593999997E+02  0.45594000000E+02  0.51100000000E-03 0.  1.
         11   -1    0    0    0    0 -0.00000000000E+00 -0.00000000000E+00 -0.45593999997E+02  0.45594000000E+02  0.51100000000E-03 0. -1.
    9900012    2    1    2    0    0  0.23600208416E+02 -0.28141571125E+02  0.17442691394E+02  0.50528863933E+02  0.30000012410E+02 0.  0.
         12    1    1    2    0    0 -0.23600208416E+02  0.28141571125E+02 -0.17442691394E+02  0.40659136067E+02  0.00000000000E+00 0. -1.
         11    1    3    3    0    0  0.38100208940E+00 -0.50860206568E+01  0.93181990655E+00  0.51846945245E+01  0.51100000000E-03 0. -1.
        -11    1    3    3    0    0 -0.42170156991E+01 -0.11593384627E+02  0.30679111547E+01  0.12712272324E+02  0.51100000000E-03 0.  1.
        -12    1    3    3    0    0  0.27436222026E+02 -0.11462165842E+02  0.13442960333E+02  0.32631897084E+02  0.00000000000E+00 0.  1.
</event>
<event>
 7    1  0.3331850E-011  0.5052886E+02  0.7816164E-02  0.1300439E+00
        -11   -1    0    0    0    0  0.00000000000E+00  0.00000000000E+00  0.45593999997E+02  0.45594000000E+02  0.51100000000E-03 0.  1.
         11   -1    0    0    0    0 -0.00000000000E+00 -0.00000000000E+00 -0.45593999997E+02  0.45594000000E+02  0.51100000000E-03 0. -1.
    9900012    2    1    2    0    0  0.79782366228E+01  0.15268730409E+02  0.36829054596E+02  0.50528860187E+02  0.30000001025E+02 0.  0.
         12    1    1    2    0    0 -0.79782366228E+01 -0.15268730409E+02 -0.36829054596E+02  0.40659139813E+02  0.00000000000E+00 0. -1.
         11    1    3    3    0    0 -0.25799739866E+01 -0.40699629860E+00 -0.87442902913E+00  0.27543671046E+01  0.51100000000E-03 0. -1.
        -11    1    3    3    0    0  0.45682632666E+01 -0.54718538928E+01  0.67962439717E+01  0.98488144810E+01  0.51100000000E-03 0.  1.
        -12    1    3    3    0    0  0.59899473428E+01  0.21147580600E+02  0.30907239653E+02  0.37925678602E+02  0.00000000000E+00 0.  1.
</event>
<event>
 7    1  0.3331850E-011  0.5052886E+02  0.7816164E-02  0.1300439E+00
        -11   -1    0    0    0    0  0.00000000000E+00  0.00000000000E+00  0.45593999997E+02  0.45594000000E+02  0.51100000000E-03 0.  1.
         11   -1    0    0    0    0 -0.00000000000E+00 -0.00000000000E+00 -0.45593999997E+02  0.45594000000E+02  0.51100000000E-03 0. -1.
    9900012    2    1    2    0    0 -0.23907917411E+02  0.10549798478E+02  0.31149305228E+02  0.50528856145E+02  0.29999988739E+02 0.  0.
         12    1    1    2    0    0  0.23907917411E+02 -0.10549798478E+02 -0.31149305228E+02  0.40659143855E+02  0.00000000000E+00 0. -1.
         11    1    3    3    0    0 -0.31931163208E+01 -0.73869964266E+01  0.33292484355E+01  0.87090529595E+01  0.51100000000E-03 0. -1.
        -11    1    3    3    0    0 -0.12246581801E+01  0.72483682755E+00 -0.18720933722E+01  0.23515760545E+01  0.51100000000E-03 0.  1.
        -12    1    3    3    0    0 -0.19490142910E+02  0.17211958077E+02  0.29692150164E+02  0.39468227131E+02  0.00000000000E+00 0.  1.
</event>
<event>
 7    1  0.3331850E-011  0.5052886E+02  0.7816164E-02  0.1300439E+00
        -11   -1    0    0    0    0  0.00000000000E+00  0.00000000000E+00  0.45593999997E+02  0.45594000000E+02  0.51100000000E-03 0.  1.
         11   -1    0    0    0    0 -0.00000000000E+00 -0.00000000000E+00 -0.45593999997E+02  0.45594000000E+02  0.51100000000E-03 0. -1.
    9900012    2    1    2    0    0 -0.39791801180E+02 -0.53922719298E+01  0.63797567367E+01  0.50528864080E+02  0.30000012858E+02 0.  0.
         12    1    1    2    0    0  0.39791801180E+02  0.53922719298E+01 -0.63797567367E+01  0.40659135920E+02  0.00000000000E+00 0. -1.
         11    1    3    3    0    0  0.23986651881E+01 -0.10886232089E+01 -0.41024742427E+01  0.48753451518E+01  0.51100000000E-03 0. -1.
        -11    1    3    3    0    0 -0.54384237520E+01 -0.41057120956E+01 -0.15372521533E+01  0.69854469551E+01  0.51100000000E-03 0.  1.
        -12    1    3    3    0    0 -0.36752042616E+02 -0.19793662520E+00  0.12019483133E+02  0.38668071973E+02  0.00000000000E+00 0.  1.
</event>
<event>
 7    1  0.3331850E-011  0.5052881E+02  0.7816164E-02  0.1300439E+00
        -11   -1    0    0    0    0  0.00000000000E+00  0.00000000000E+00  0.45593999997E+02  0.45594000000E+02  0.51100000000E-03 0.  1.
         11   -1    0    0    0    0 -0.00000000000E+00 -0.00000000000E+00 -0.45593999997E+02  0.45594000000E+02  0.51100000000E-03 0. -1.
    9900012    2    1    2    0    0  0.40430510272E+02  0.94624640059E+00  0.42009303537E+01  0.50528814581E+02  0.29999862401E+02 0.  0.
         12    1    1    2    0    0 -0.40430510272E+02 -0.94624640059E+00 -0.42009303537E+01  0.40659185419E+02  0.00000000000E+00 0. -1.
         11    1    3    3    0    0  0.39749786290E+01 -0.52517614857E+01 -0.78722314555E+01  0.10264184437E+02  0.51100000000E-03 0. -1.
        -11    1    3    3    0    0  0.38848908233E+01  0.42584992391E+01  0.22733474793E+01  0.61963942339E+01  0.51100000000E-03 0.  1.
        -12    1    3    3    0    0  0.32570640819E+02  0.19395086472E+01  0.97998143299E+01  0.34068235911E+02  0.00000000000E+00 0.  1.
</event>
<event>
 7    1  0.3331850E-011  0.5052886E+02  0.7816164E-02  0.1300439E+00
        -11   -1    0    0    0    0  0.00000000000E+00  0.00000000000E+00  0.45593999997E+02  0.45594000000E+02  0.51100000000E-03 0.  1.
         11   -1    0    0    0    0 -0.00000000000E+00 -0.00000000000E+00 -0.45593999997E+02  0.45594000000E+02  0.51100000000E-03 0. -1.
    9900012    2    1    2    0    0 -0.37892516732E+01  0.32766155340E+02  0.23773647277E+02  0.50528859959E+02  0.30000000332E+02 0.  0.
         12    1    1    2    0    0  0.37892516732E+01 -0.32766155340E+02 -0.23773647277E+02  0.40659140041E+02  0.00000000000E+00 0. -1.
         11    1    3    3    0    0 -0.12003277114E+02  0.52542583213E+01  0.10197920908E+02  0.16603718954E+02  0.51100000000E-03 0. -1.
        -11    1    3    3    0    0 -0.95925786876E+00  0.22949096875E+00  0.31679479323E+01  0.33179415496E+01  0.51100000000E-03 0.  1.
        -12    1    3    3    0    0  0.91732833099E+01  0.27282406050E+02  0.10407778437E+02  0.30607199456E+02  0.00000000000E+00 0.  1.
</event>
<event>
 7    1  0.3331850E-011  0.5052886E+02  0.7816164E-02  0.1300439E+00
        -11   -1    0    0    0    0  0.00000000000E+00  0.00000000000E+00  0.45593999997E+02  0.45594000000E+02  0.51100000000E-03 0.  1.
         11   -1    0    0    0    0 -0.00000000000E+00 -0.00000000000E+00 -0.45593999997E+02  0.45594000000E+02  0.51100000000E-03 0. -1.
    9900012    2    1    2    0    0 -0.25378004622E+02 -0.29415484140E+02  0.11993812469E+02  0.50528863717E+02  0.30000011753E+02 0.  0.
         12    1    1    2    0    0  0.25378004622E+02  0.29415484140E+02 -0.11993812469E+02  0.40659136283E+02  0.00000000000E+00 0. -1.
         11    1    3    3    0    0 -0.86791337525E+01 -0.16366236344E+02  0.10753191885E+02  0.21419901744E+02  0.51100000000E-03 0. -1.
        -11    1    3    3    0    0 -0.82215559256E+01 -0.72553959378E+01  0.10573916073E+02  0.15232939750E+02  0.51100000000E-03 0.  1.
         12    1    3    3    0    0 -0.84773149440E+01 -0.57938518579E+01 -0.93332954894E+01  0.13876022222E+02  0.00000000000E+00 0. -1.
</event>
<event>
 7    1  0.3331850E-011  0.5052887E+02  0.7816164E-02  0.1300439E+00
        -11   -1    0    0    0    0  0.00000000000E+00  0.00000000000E+00  0.45593999997E+02  0.45594000000E+02  0.51100000000E-03 0.  1.
         11   -1    0    0    0    0 -0.00000000000E+00 -0.00000000000E+00 -0.45593999997E+02  0.45594000000E+02  0.51100000000E-03 0. -1.
    9900012    2    1    2    0    0  0.19045208124E+02  0.35837834878E+02  0.24686281444E+01  0.50528874504E+02  0.30000044542E+02 0.  0.
         12    1    1    2    0    0 -0.19045208124E+02 -0.35837834878E+02 -0.24686281444E+01  0.40659125496E+02  0.00000000000E+00 0. -1.
         11    1    3    3    0    0  0.19054908437E+02  0.29201309102E+02 -0.97280700064E+01  0.36200018441E+02  0.51100000000E-03 0. -1.
        -11    1    3    3    0    0  0.14502406855E+01  0.13320506794E+01  0.25278024337E+01  0.32042694118E+01  0.51100000000E-03 0.  1.
         12    1    3    3    0    0 -0.14599409993E+01  0.53044750961E+01  0.96688957170E+01  0.11124586651E+02  0.00000000000E+00 0. -1.
</event>
<event>
 7    1  0.3331850E-011  0.5052886E+02  0.7816164E-02  0.1300439E+00
        -11   -1    0    0    0    0  0.00000000000E+00  0.00000000000E+00  0.45593999997E+02  0.45594000000E+02  0.51100000000E-03 0.  1.
         11   -1    0    0    0    0 -0.00000000000E+00 -0.00000000000E+00 -0.45593999997E+02  0.45594000000E+02  0.51100000000E-03 0. -1.
    9900012    2    1    2    0    0 -0.19566101485E+02  0.31944685869E+02 -0.15807289861E+02  0.50528859634E+02  0.29999999342E+02 0.  0.
         12    1    1    2    0    0  0.19566101485E+02 -0.31944685869E+02  0.15807289861E+02  0.40659140366E+02  0.00000000000E+00 0. -1.
         11    1    3    3    0    0 -0.22298880893E+01  0.47461163841E+01 -0.59021134699E+01  0.78951228803E+01  0.51100000000E-03 0. -1.
        -11    1    3    3    0    0 -0.10586681400E+02  0.10904435486E+02 -0.17718529162E+02  0.23343753174E+02  0.51100000000E-03 0.  1.
        -12    1    3    3    0    0 -0.67495319952E+01  0.16294133999E+02  0.78133527716E+01  0.19289983579E+02  0.00000000000E+00 0.  1.
</event>
<event>
 7    1  0.3331850E-011  0.5052885E+02  0.7816164E-02  0.1300439E+00
        -11   -1    0    0    0    0  0.00000000000E+00  0.00000000000E+00  0.45593999997E+02  0.45594000000E+02  0.51100000000E-03 0.  1.
         11   -1    0    0    0    0 -0.00000000000E+00 -0.00000000000E+00 -0.45593999997E+02  0.45594000000E+02  0.51100000000E-03 0. -1.
    9900012    2    1    2    0    0 -0.32478390834E+02  0.11486643087E+02  0.21595772306E+02  0.50528853156E+02  0.29999979654E+02 0.  0.
         12    1    1    2    0    0  0.32478390834E+02 -0.11486643087E+02 -0.21595772306E+02  0.40659146844E+02  0.00000000000E+00 0. -1.
         11    1    3    3    0    0  0.46491778347E+01  0.24167616002E+01  0.12737508541E+01  0.53924050914E+01  0.51100000000E-03 0. -1.
        -11    1    3    3    0    0 -0.17159621497E+02  0.18697805373E+01  0.25421478204E+01  0.17447383901E+02  0.51100000000E-03 0.  1.
        -12    1    3    3    0    0 -0.19967947172E+02  0.72001009496E+01  0.17779873631E+02  0.27689064164E+02  0.00000000000E+00 0.  1.
</event>
<event>
 7    1  0.3331850E-011  0.5052886E+02  0.7816164E-02  0.1300439E+00
        -11   -1    0    0    0    0  0.00000000000E+00  0.00000000000E+00  0.45593999997E+02  0.45594000000E+02  0.51100000000E-03 0. -1.
         11   -1    0    0    0    0 -0.00000000000E+00 -0.00000000000E+00 -0.45593999997E+02  0.45594000000E+02  0.51100000000E-03 0.  1.
    9900012    2    1    2    0    0  0.26426666514E+02  0.30272196916E+02 -0.61960398298E+01  0.50528861805E+02  0.30000005943E+02 0.  0.
         12    1    1    2    0    0 -0.26426666514E+02 -0.30272196916E+02  0.61960398298E+01  0.40659138195E+02  0.00000000000E+00 0. -1.
         11    1    3    3    0    0  0.11078192260E+02  0.24536137792E+02 -0.29796215701E+01  0.27085541280E+02  0.51100000000E-03 0. -1.
        -11    1    3    3    0    0  0.12273275337E+02  0.30561394361E+01  0.55210814342E+01  0.13800565793E+02  0.51100000000E-03 0.  1.
        -12    1    3    3    0    0  0.30751989173E+01  0.26799196884E+01 -0.87374996939E+01  0.96427547318E+01  0.00000000000E+00 0.  1.
</event>
<event>
 7    1  0.3331850E-011  0.5052886E+02  0.7816164E-02  0.1300439E+00
        -11   -1    0    0    0    0  0.00000000000E+00  0.00000000000E+00  0.45593999997E+02  0.45594000000E+02  0.51100000000E-03 0. -1.
         11   -1    0    0    0    0 -0.00000000000E+00 -0.00000000000E+00 -0.45593999997E+02  0.45594000000E+02  0.51100000000E-03 0.  1.
    9900012    2    1    2    0    0  0.40991380391E+01  0.40262540858E+02 -0.39103621732E+01  0.50528855133E+02  0.29999985663E+02 0.  0.
         12    1    1    2    0    0 -0.40991380391E+01 -0.40262540858E+02  0.39103621732E+01  0.40659144867E+02  0.00000000000E+00 0. -1.
         11    1    3    3    0    0  0.86430996979E+01  0.10887535336E+02 -0.45041225847E+01  0.14612621893E+02  0.51100000000E-03 0. -1.
        -11    1    3    3    0    0  0.63442169833E+01  0.93551313312E+01 -0.51393583660E+01  0.12416947130E+02  0.51100000000E-03 0.  1.
         12    1    3    3    0    0 -0.10888178642E+02  0.20019874191E+02  0.57331187775E+01  0.23499286110E+02  0.00000000000E+00 0. -1.
</event>
<event>
 7    1  0.3331850E-011  0.5052885E+02  0.7816164E-02  0.1300439E+00
        -11   -1    0    0    0    0  0.00000000000E+00  0.00000000000E+00  0.45593999997E+02  0.45594000000E+02  0.51100000000E-03 0.  1.
         11   -1    0    0    0    0 -0.00000000000E+00 -0.00000000000E+00 -0.45593999997E+02  0.45594000000E+02  0.51100000000E-03 0. -1.
    9900012    2    1    2    0    0 -0.23156318892E+02 -0.19987969691E+02  0.26784927239E+02  0.50528851408E+02  0.29999974340E+02 0.  0.
         12    1    1    2    0    0  0.23156318892E+02  0.19987969691E+02 -0.26784927239E+02  0.40659148592E+02  0.00000000000E+00 0. -1.
         11    1    3    3    0    0 -0.96548658891E+01 -0.53567516891E+01  0.36907709429E+01  0.11641864731E+02  0.51100000000E-03 0. -1.
        -11    1    3    3    0    0 -0.18267216723E+02 -0.85443680183E+01  0.75630291051E+01  0.21538264581E+02  0.51100000000E-03 0.  1.
         12    1    3    3    0    0  0.47657637196E+01 -0.60868499835E+01  0.15531127191E+02  0.17348722097E+02  0.00000000000E+00 0. -1.
</event>
<event>
 7    1  0.3331850E-011  0.5052886E+02  0.7816164E-02  0.1300439E+00
        -11   -1    0    0    0    0  0.00000000000E+00  0.00000000000E+00  0.45593999997E+02  0.45594000000E+02  0.51100000000E-03 0.  1.
         11   -1    0    0    0    0 -0.00000000000E+00 -0.00000000000E+00 -0.45593999997E+02  0.45594000000E+02  0.51100000000E-03 0. -1.
    9900012    2    1    2    0    0  0.12548402449E+02  0.37071734594E+02  0.11017693113E+02  0.50528862388E+02  0.30000007714E+02 0.  0.
         12    1    1    2    0    0 -0.12548402449E+02 -0.37071734594E+02 -0.11017693113E+02  0.40659137612E+02  0.00000000000E+00 0. -1.
         11    1    3    3    0    0  0.14806207261E+01  0.62144992178E+01 -0.66736031105E+01  0.92384639957E+01  0.51100000000E-03 0. -1.
        -11    1    3    3    0    0  0.93688255290E+00  0.95486067197E+01 -0.28483118027E+01  0.10008322516E+02  0.51100000000E-03 0.  1.
        -12    1    3    3    0    0  0.10130899170E+02  0.21308628657E+02  0.20539608026E+02  0.31282075876E+02  0.00000000000E+00 0.  1.
</event>
<event>
 7    1  0.3331850E-011  0.5052886E+02  0.7816164E-02  0.1300439E+00
        -11   -1    0    0    0    0  0.00000000000E+00  0.00000000000E+00  0.45593999997E+02  0.45594000000E+02  0.51100000000E-03 0.  1.
         11   -1    0    0    0    0 -0.00000000000E+00 -0.00000000000E+00 -0.45593999997E+02  0.45594000000E+02  0.51100000000E-03 0. -1.
    9900012    2    1    2    0    0  0.95839090084E+01 -0.26024095668E+02  0.29733156707E+02  0.50528862344E+02  0.30000007580E+02 0.  0.
         12    1    1    2    0    0 -0.95839090084E+01  0.26024095668E+02 -0.29733156707E+02  0.40659137656E+02  0.00000000000E+00 0. -1.
         11    1    3    3    0    0  0.32209874920E+00  0.11120467883E+01  0.15342810347E+02  0.15386429907E+02  0.51100000000E-03 0. -1.
        -11    1    3    3    0    0  0.93483023823E+00 -0.55245837801E+00  0.59301715429E+01  0.60287687485E+01  0.51100000000E-03 0.  1.
         12    1    3    3    0    0  0.83269800210E+01 -0.26583684078E+02  0.84601748165E+01  0.29113663688E+02  0.00000000000E+00 0. -1.
</event>
<event>
 7    1  0.3331850E-011  0.5052887E+02  0.7816164E-02  0.1300439E+00
        -11   -1    0    0    0    0  0.00000000000E+00  0.00000000000E+00  0.45593999997E+02  0.45594000000E+02  0.51100000000E-03 0.  1.
         11   -1    0    0    0    0 -0.00000000000E+00 -0.00000000000E+00 -0.45593999997E+02  0.45594000000E+02  0.51100000000E-03 0. -1.
    9900012    2    1    2    0    0  0.22754184259E+02  0.11831421256E+02  0.31550422221E+02  0.50528873441E+02  0.30000041312E+02 0.  0.
         12    1    1    2    0    0 -0.22754184259E+02 -0.11831421256E+02 -0.31550422221E+02  0.40659126559E+02  0.00000000000E+00 0. -1.
         11    1    3    3    0    0  0.34222706746E+01  0.91121700924E+01  0.16452022074E+02  0.19115768647E+02  0.51100000000E-03 0. -1.
        -11    1    3    3    0    0  0.13167355857E+02  0.50363363055E+01  0.19075612662E+02  0.23719674162E+02  0.51100000000E-03 0.  1.
         12    1    3    3    0    0  0.61645577265E+01 -0.23170851415E+01 -0.39772125149E+01  0.76934306330E+01  0.00000000000E+00 0. -1.
</event>
<event>
 7    1  0.3331850E-011  0.5052886E+02  0.7816164E-02  0.1300439E+00
        -11   -1    0    0    0    0  0.00000000000E+00  0.00000000000E+00  0.45593999997E+02  0.45594000000E+02  0.51100000000E-03 0.  1.
         11   -1    0    0    0    0 -0.00000000000E+00 -0.00000000000E+00 -0.45593999997E+02  0.45594000000E+02  0.51100000000E-03 0. -1.
    9900012    2    1    2    0    0  0.27732891448E+02  0.26288354219E+02  0.13891541880E+02  0.50528858698E+02  0.29999996500E+02 0.  0.
         12    1    1    2    0    0 -0.27732891448E+02 -0.26288354219E+02 -0.13891541880E+02  0.40659141302E+02  0.00000000000E+00 0. -1.
         11    1    3    3    0    0  0.28342491526E+01  0.11709467095E+02  0.70120098638E+01  0.13939615149E+02  0.51100000000E-03 0. -1.
        -11    1    3    3    0    0  0.13890243212E+02  0.16528151997E+02  0.11536117575E+02  0.24478575814E+02  0.51100000000E-03 0.  1.
        -12    1    3    3    0    0  0.11008399083E+02 -0.19492648734E+01 -0.46565855592E+01  0.12110667735E+02  0.00000000000E+00 0.  1.
</event>
<event>
 7    1  0.3331850E-011  0.5052885E+02  0.7816164E-02  0.1300439E+00
        -11   -1    0    0    0    0  0.00000000000E+00  0.00000000000E+00  0.45593999997E+02  0.45594000000E+02  0.51100000000E-03 0. -1.
         11   -1    0    0    0    0 -0.00000000000E+00 -0.00000000000E+00 -0.45593999997E+02  0.45594000000E+02  0.51100000000E-03 0.  1.
    9900012    2    1    2    0    0  0.51580756548E+01  0.34423590239E+02 -0.21013734236E+02  0.50528851755E+02  0.29999975396E+02 0.  0.
         12    1    1    2    0    0 -0.51580756548E+01 -0.34423590239E+02  0.21013734236E+02  0.40659148245E+02  0.00000000000E+00 0. -1.
         11    1    3    3    0    0 -0.13402480696E+01  0.25005355896E+02 -0.53382113366E+01  0.25603917452E+02  0.51100000000E-03 0. -1.
        -11    1    3    3    0    0 -0.19340717614E+01  0.84147503904E+01 -0.20570946973E+01  0.88758265286E+01  0.51100000000E-03 0.  1.
         12    1    3    3    0    0  0.84323954858E+01  0.10034839534E+01 -0.13618428202E+02  0.16049107775E+02  0.00000000000E+00 0. -1.
</event>
<event>
 7    1  0.3331850E-011  0.5052886E+02  0.7816164E-02  0.1300439E+00
        -11   -1    0    0    0    0  0.00000000000E+00  0.00000000000E+00  0.45593999997E+02  0.45594000000E+02  0.51100000000E-03 0.  1.
         11   -1    0    0    0    0 -0.00000000000E+00 -0.00000000000E+00 -0.45593999997E+02  0.45594000000E+02  0.51100000000E-03 0. -1.
    9900012    2    1    2    0    0 -0.74103014531E+01  0.30984184378E+02  0.25263282787E+02  0.50528859498E+02  0.29999998930E+02 0.  0.
         12    1    1    2    0    0  0.74103014531E+01 -0.30984184378E+02 -0.25263282787E+02  0.40659140502E+02  0.00000000000E+00 0. -1.
         11    1    3    3    0    0 -0.45497527524E+01  0.12444748238E+02  0.59002096258E+00  0.13263488750E+02  0.51100000000E-03 0. -1.
        -11    1    3    3    0    0 -0.78966407886E+01 -0.58465501229E+00  0.93170589009E+01  0.12227278685E+02  0.51100000000E-03 0.  1.
        -12    1    3    3    0    0  0.50360920879E+01  0.19124091152E+02  0.15356202924E+02  0.25038092063E+02  0.00000000000E+00 0.  1.
</event>
<event>
 7    1  0.3331850E-011  0.5052895E+02  0.7816164E-02  0.1300438E+00
        -11   -1    0    0    0    0  0.00000000000E+00  0.00000000000E+00  0.45593999997E+02  0.45594000000E+02  0.51100000000E-03 0.  1.
         11   -1    0    0    0    0 -0.00000000000E+00 -0.00000000000E+00 -0.45593999997E+02  0.45594000000E+02  0.51100000000E-03 0. -1.
    9900012    2    1    2    0    0 -0.61767182529E+01 -0.20839749870E+02  0.34361481178E+02  0.50528949203E+02  0.30000271595E+02 0.  0.
         12    1    1    2    0    0  0.61767182529E+01  0.20839749870E+02 -0.34361481178E+02  0.40659050797E+02  0.00000000000E+00 0. -1.
         11    1    3    3    0    0  0.30921013094E+00  0.34476237644E+01  0.17682544202E+02  0.18018160013E+02  0.51100000000E-03 0. -1.
        -11    1    3    3    0    0 -0.18204972534E+01  0.10733458740E+01  0.14555809745E+01  0.25661250650E+01  0.51100000000E-03 0.  1.
        -12    1    3    3    0    0 -0.46654311304E+01 -0.25360719508E+02  0.15223356001E+02  0.29944664125E+02  0.00000000000E+00 0.  1.
</event>
<event>
 7    1  0.3331850E-011  0.5052886E+02  0.7816164E-02  0.1300439E+00
        -11   -1    0    0    0    0  0.00000000000E+00  0.00000000000E+00  0.45593999997E+02  0.45594000000E+02  0.51100000000E-03 0.  1.
         11   -1    0    0    0    0 -0.00000000000E+00 -0.00000000000E+00 -0.45593999997E+02  0.45594000000E+02  0.51100000000E-03 0. -1.
    9900012    2    1    2    0    0 -0.22255814179E+02 -0.51250129528E+01  0.33638945355E+02  0.50528859980E+02  0.30000000396E+02 0.  0.
         12    1    1    2    0    0  0.22255814179E+02  0.51250129528E+01 -0.33638945355E+02  0.40659140020E+02  0.00000000000E+00 0. -1.
         11    1    3    3    0    0 -0.81810717266E+01 -0.24452516932E+01 -0.88737752579E+00  0.85846741099E+01  0.51100000000E-03 0. -1.
        -11    1    3    3    0    0 -0.10794473764E+02 -0.28486113355E+01  0.49945668526E+01  0.12230329050E+02  0.51100000000E-03 0.  1.
        -12    1    3    3    0    0 -0.32802686892E+01  0.16885007592E+00  0.29531756028E+02  0.29713856820E+02  0.00000000000E+00 0.  1.
</event>
<event>
 7    1  0.3331850E-011  0.5052886E+02  0.7816164E-02  0.1300439E+00
        -11   -1    0    0    0    0  0.00000000000E+00  0.00000000000E+00  0.45593999997E+02  0.45594000000E+02  0.51100000000E-03 0.  1.
         11   -1    0    0    0    0 -0.00000000000E+00 -0.00000000000E+00 -0.45593999997E+02  0.45594000000E+02  0.51100000000E-03 0. -1.
    9900012    2    1    2    0    0 -0.31577375092E+02 -0.69046595019E+01  0.24664964741E+02  0.50528862943E+02  0.30000009401E+02 0.  0.
         12    1    1    2    0    0  0.31577375092E+02  0.69046595019E+01 -0.24664964741E+02  0.40659137057E+02  0.00000000000E+00 0. -1.
         11    1    3    3    0    0 -0.70772334278E+01  0.62132203667E+01  0.88927465930E+01  0.12952694026E+02  0.51100000000E-03 0. -1.
        -11    1    3    3    0    0 -0.10305039509E+02 -0.17674926094E+01  0.16332508643E+02  0.19392491027E+02  0.51100000000E-03 0.  1.
        -12    1    3    3    0    0 -0.14195102155E+02 -0.11350387259E+02 -0.56029049461E+00  0.18183677889E+02  0.00000000000E+00 0.  1.
</event>
<event>
 7    1  0.3331850E-011  0.5052886E+02  0.7816164E-02  0.1300439E+00
        -11   -1    0    0    0    0  0.00000000000E+00  0.00000000000E+00  0.45593999997E+02  0.45594000000E+02  0.51100000000E-03 0.  1.
         11   -1    0    0    0    0 -0.00000000000E+00 -0.00000000000E+00 -0.45593999997E+02  0.45594000000E+02  0.51100000000E-03 0. -1.
    9900012    2    1    2    0    0  0.36317770342E+02 -0.17635437025E+02 -0.48142422380E+01  0.50528855764E+02  0.29999987579E+02 0.  0.
         12    1    1    2    0    0 -0.36317770342E+02  0.17635437025E+02  0.48142422380E+01  0.40659144236E+02  0.00000000000E+00 0. -1.
         11    1    3    3    0    0  0.98605137880E+01 -0.13140357170E+02  0.80534780206E+01  0.18296371968E+02  0.51100000000E-03 0. -1.
        -11    1    3    3    0    0  0.96871654208E+01 -0.66171359744E+01 -0.14201025990E+01  0.11817121225E+02  0.51100000000E-03 0.  1.
         12    1    3    3    0    0  0.16770091134E+02  0.21220561193E+01 -0.11447617660E+02  0.20415362570E+02  0.00000000000E+00 0. -1.
</event>
<event>
 7    1  0.3331850E-011  0.5052886E+02  0.7816164E-02  0.1300439E+00
        -11   -1    0    0    0    0  0.00000000000E+00  0.00000000000E+00  0.45593999997E+02  0.45594000000E+02  0.51100000000E-03 0. -1.
         11   -1    0    0    0    0 -0.00000000000E+00 -0.00000000000E+00 -0.45593999997E+02  0.45594000000E+02  0.51100000000E-03 0.  1.
    9900012    2    1    2    0    0 -0.34319466163E+02 -0.18400169785E+02 -0.11695017908E+02  0.50528862655E+02  0.30000008525E+02 0.  0.
         12    1    1    2    0    0  0.34319466163E+02  0.18400169785E+02  0.11695017908E+02  0.40659137345E+02  0.00000000000E+00 0. -1.
         11    1    3    3    0    0 -0.13023522276E+02 -0.13995277427E+02  0.19681758737E+01  0.19218575371E+02  0.51100000000E-03 0. -1.
        -11    1    3    3    0    0 -0.13642513245E+02 -0.51437448048E+01  0.11449719064E+01  0.14624884246E+02  0.51100000000E-03 0.  1.
        -12    1    3    3    0    0 -0.76534306407E+01  0.73885244735E+00 -0.14808165688E+02  0.16685403038E+02  0.00000000000E+00 0.  1.
</event>
<event>
 7    1  0.3331850E-011  0.5052886E+02  0.7816164E-02  0.1300439E+00
        -11   -1    0    0    0    0  0.00000000000E+00  0.00000000000E+00  0.45593999997E+02  0.45594000000E+02  0.51100000000E-03 0. -1.
         11   -1    0    0    0    0 -0.00000000000E+00 -0.00000000000E+00 -0.45593999997E+02  0.45594000000E+02  0.51100000000E-03 0.  1.
    9900012    2    1    2    0    0  0.76327520445E+01 -0.35732508448E+02 -0.17835198553E+02  0.50528863620E+02  0.30000011459E+02 0.  0.
         12    1    1    2    0    0 -0.76327520445E+01  0.35732508448E+02  0.17835198553E+02  0.40659136380E+02  0.00000000000E+00 0. -1.
         11    1    3    3    0    0 -0.46918051240E+00 -0.91281088801E+01  0.14509565818E+01  0.92546084381E+01  0.51100000000E-03 0. -1.
        -11    1    3    3    0    0 -0.74382218977E+01 -0.13423496638E+02 -0.41718668819E+01  0.15903517866E+02  0.51100000000E-03 0.  1.
        -12    1    3    3    0    0  0.15540154455E+02 -0.13180902930E+02 -0.15114288253E+02  0.25370737315E+02  0.00000000000E+00 0.  1.
</event>
<event>
 7    1  0.3331850E-011  0.5052886E+02  0.7816164E-02  0.1300439E+00
        -11   -1    0    0    0    0  0.00000000000E+00  0.00000000000E+00  0.45593999997E+02  0.45594000000E+02  0.51100000000E-03 0.  1.
         11   -1    0    0    0    0 -0.00000000000E+00 -0.00000000000E+00 -0.45593999997E+02  0.45594000000E+02  0.51100000000E-03 0. -1.
    9900012    2    1    2    0    0  0.35865933518E+02  0.77754376784E+01  0.17502665596E+02  0.50528856856E+02  0.29999990901E+02 0.  0.
         12    1    1    2    0    0 -0.35865933518E+02 -0.77754376784E+01 -0.17502665596E+02  0.40659143144E+02  0.00000000000E+00 0. -1.
         11    1    3    3    0    0  0.48154736363E+01  0.54792266200E+01 -0.13712499162E+01  0.74223336821E+01  0.51100000000E-03 0. -1.
        -11    1    3    3    0    0  0.50724737963E+01  0.10940845027E+01 -0.54307524257E+01  0.75113303405E+01  0.51100000000E-03 0.  1.
        -12    1    3    3    0    0  0.25977986085E+02  0.12021265557E+01  0.24304667938E+02  0.35595192834E+02  0.00000000000E+00 0.  1.
</event>
<event>
 7    1  0.3331850E-011  0.5052887E+02  0.7816164E-02  0.1300439E+00
        -11   -1    0    0    0    0  0.00000000000E+00  0.00000000000E+00  0.45593999997E+02  0.45594000000E+02  0.51100000000E-03 0. -1.
         11   -1    0    0    0    0 -0.00000000000E+00 -0.00000000000E+00 -0.45593999997E+02  0.45594000000E+02  0.51100000000E-03 0.  1.
    9900012    2    1    2    0    0  0.24132805440E+02  0.36888265146E+01 -0.32514078314E+02  0.50528867839E+02  0.30000024284E+02 0.  0.
         12    1    1    2    0    0 -0.24132805440E+02 -0.36888265146E+01  0.32514078314E+02  0.40659132161E+02  0.00000000000E+00 0. -1.
         11    1    3    3    0    0  0.28249931597E+01 -0.10351971753E+02 -0.70792304891E+01  0.12855326138E+02  0.51100000000E-03 0. -1.
        -11    1    3    3    0    0  0.91969990627E+01  0.24248644746E+01 -0.36796267577E+01  0.10198255381E+02  0.51100000000E-03 0.  1.
         12    1    3    3    0    0  0.12110813218E+02  0.11615933793E+02 -0.21755221067E+02  0.27475286320E+02  0.00000000000E+00 0. -1.
</event>
<event>
 7    1  0.3331850E-011  0.5052886E+02  0.7816164E-02  0.1300439E+00
        -11   -1    0    0    0    0  0.00000000000E+00  0.00000000000E+00  0.45593999997E+02  0.45594000000E+02  0.51100000000E-03 0.  1.
         11   -1    0    0    0    0 -0.00000000000E+00 -0.00000000000E+00 -0.45593999997E+02  0.45594000000E+02  0.51100000000E-03 0. -1.
    9900012    2    1    2    0    0  0.28553450254E+02 -0.28932861369E+02 -0.86934096534E+00  0.50528859058E+02  0.29999997592E+02 0.  0.
         12    1    1    2    0    0 -0.28553450254E+02  0.28932861369E+02  0.86934096534E+00  0.40659140942E+02  0.00000000000E+00 0. -1.
         11    1    3    3    0    0  0.17521072353E+02 -0.14060777368E+02  0.88233097088E+01  0.24135953080E+02  0.51100000000E-03 0. -1.
        -11    1    3    3    0    0  0.22666284662E+01 -0.55201013961E+01  0.43465029773E+01  0.73824936451E+01  0.51100000000E-03 0.  1.
         12    1    3    3    0    0  0.87657494352E+01 -0.93519826051E+01 -0.14039153651E+02  0.19010412333E+02  0.00000000000E+00 0. -1.
</event>
<event>
 7    1  0.3331850E-011  0.5052886E+02  0.7816164E-02  0.1300439E+00
        -11   -1    0    0    0    0  0.00000000000E+00  0.00000000000E+00  0.45593999997E+02  0.45594000000E+02  0.51100000000E-03 0.  1.
         11   -1    0    0    0    0 -0.00000000000E+00 -0.00000000000E+00 -0.45593999997E+02  0.45594000000E+02  0.51100000000E-03 0. -1.
    9900012    2    1    2    0    0  0.17406549852E+02 -0.34576693076E+02 -0.12435028360E+02  0.50528860657E+02  0.30000002452E+02 0.  0.
         12    1    1    2    0    0 -0.17406549852E+02  0.34576693076E+02  0.12435028360E+02  0.40659139343E+02  0.00000000000E+00 0. -1.
         11    1    3    3    0    0  0.11988436995E+02 -0.23573592703E+02 -0.14093102758E+02  0.29967523090E+02  0.51100000000E-03 0. -1.
        -11    1    3    3    0    0  0.83760650540E+01 -0.13795831630E+02  0.26956738847E+01  0.16363071048E+02  0.51100000000E-03 0.  1.
         12    1    3    3    0    0 -0.29579521968E+01  0.27927312571E+01 -0.10375994862E+01  0.41982665193E+01  0.00000000000E+00 0. -1.
</event>
<event>
 7    1  0.3331850E-011  0.5052887E+02  0.7816164E-02  0.1300439E+00
        -11   -1    0    0    0    0  0.00000000000E+00  0.00000000000E+00  0.45593999997E+02  0.45594000000E+02  0.51100000000E-03 0. -1.
         11   -1    0    0    0    0 -0.00000000000E+00 -0.00000000000E+00 -0.45593999997E+02  0.45594000000E+02  0.51100000000E-03 0.  1.
    9900012    2    1    2    0    0  0.96545656579E+01  0.34078871315E+02 -0.19964593583E+02  0.50528866892E+02  0.30000021405E+02 0.  0.
         12    1    1    2    0    0 -0.96545656579E+01 -0.34078871315E+02  0.19964593583E+02  0.40659133108E+02  0.00000000000E+00 0. -1.
         11    1    3    3    0    0  0.99528442669E+01  0.39205076295E+01 -0.26809753747E+01  0.11028015157E+02  0.51100000000E-03 0. -1.
        -11    1    3    3    0    0  0.77430286442E+01  0.11900210587E+02 -0.19337155818E+01  0.14328599401E+02  0.51100000000E-03 0.  1.
        -12    1    3    3    0    0 -0.80413072532E+01  0.18258153099E+02 -0.15349902627E+02  0.25172252334E+02  0.00000000000E+00 0.  1.
</event>
<event>
 7    1  0.3331850E-011  0.5052879E+02  0.7816164E-02  0.1300439E+00
        -11   -1    0    0    0    0  0.00000000000E+00  0.00000000000E+00  0.45593999997E+02  0.45594000000E+02  0.51100000000E-03 0.  1.
         11   -1    0    0    0    0 -0.00000000000E+00 -0.00000000000E+00 -0.45593999997E+02  0.45594000000E+02  0.51100000000E-03 0. -1.
    9900012    2    1    2    0    0  0.23397915826E+02 -0.65513709014E+01  0.32600431784E+02  0.50528793439E+02  0.29999798135E+02 0.  0.
         12    1    1    2    0    0 -0.23397915826E+02  0.65513709014E+01 -0.32600431784E+02  0.40659206561E+02  0.00000000000E+00 0. -1.
         11    1    3    3    0    0 -0.14566622084E+01  0.28944484046E+01  0.70746053079E+00  0.33166544921E+01  0.51100000000E-03 0. -1.
        -11    1    3    3    0    0  0.44614470876E+01  0.60857139474E+01  0.14150592703E+02  0.16036823204E+02  0.51100000000E-03 0.  1.
        -12    1    3    3    0    0  0.20393130947E+02 -0.15531533253E+02  0.17742378550E+02  0.31175315742E+02  0.00000000000E+00 0.  1.
</event>
<event>
 7    1  0.3331850E-011  0.5052886E+02  0.7816164E-02  0.1300439E+00
        -11   -1    0    0    0    0  0.00000000000E+00  0.00000000000E+00  0.45593999997E+02  0.45594000000E+02  0.51100000000E-03 0. -1.
         11   -1    0    0    0    0 -0.00000000000E+00 -0.00000000000E+00 -0.45593999997E+02  0.45594000000E+02  0.51100000000E-03 0.  1.
    9900012    2    1    2    0    0  0.12871069678E+02  0.33416197631E+02 -0.19257697019E+02  0.50528860889E+02  0.30000003160E+02 0.  0.
         12    1    1    2    0    0 -0.12871069678E+02 -0.33416197631E+02  0.19257697019E+02  0.40659139111E+02  0.00000000000E+00 0. -1.
         11    1    3    3    0    0 -0.27932686605E+00 -0.25667065462E+01 -0.12406279819E+01  0.28644657518E+01  0.51100000000E-03 0. -1.
        -11    1    3    3    0    0 -0.41427266686E+01 -0.25414516793E-01 -0.22960899474E+01  0.47365450970E+01  0.51100000000E-03 0.  1.
        -12    1    3    3    0    0  0.17293123212E+02  0.36008318694E+02 -0.15720979090E+02  0.42927850041E+02  0.00000000000E+00 0.  1.
</event>
<event>
 7    1  0.4658212E-011  0.5052886E+02  0.7816164E-02  0.1300439E+00
        -11   -1    0    0    0    0  0.00000000000E+00  0.00000000000E+00  0.45593999997E+02  0.45594000000E+02  0.51100000000E-03 0. -1.
         11   -1    0    0    0    0 -0.00000000000E+00 -0.00000000000E+00 -0.45593999997E+02  0.45594000000E+02  0.51100000000E-03 0.  1.
    9900012    2    1    2    0    0  0.40236509469E+02 -0.45112814102E+01 -0.37198931430E+01  0.50528856389E+02  0.29999989480E+02 0.  0.
         12    1    1    2    0    0 -0.40236509469E+02  0.45112814102E+01  0.37198931430E+01  0.40659143611E+02  0.00000000000E+00 0. -1.
         11    1    3    3    0    0  0.22447581876E+02  0.48994841990E+01  0.47531999111E+01  0.23462561394E+02  0.51100000000E-03 0. -1.
        -11    1    3    3    0    0  0.16965424022E+02 -0.39653690019E+01 -0.56800807439E+00  0.17431936123E+02  0.51100000000E-03 0.  1.
         12    1    3    3    0    0  0.82350357063E+00 -0.54453966072E+01 -0.79050849797E+01  0.96343588721E+01  0.00000000000E+00 0. -1.
</event>
<event>
 7    1  0.3331850E-011  0.5052887E+02  0.7816164E-02  0.1300439E+00
        -11   -1    0    0    0    0  0.00000000000E+00  0.00000000000E+00  0.45593999997E+02  0.45594000000E+02  0.51100000000E-03 0. -1.
         11   -1    0    0    0    0 -0.00000000000E+00 -0.00000000000E+00 -0.45593999997E+02  0.45594000000E+02  0.51100000000E-03 0.  1.
    9900012    2    1    2    0    0 -0.82426651412E+01  0.38810072903E+02 -0.88883028974E+01  0.50528865531E+02  0.30000017269E+02 0.  0.
         12    1    1    2    0    0  0.82426651412E+01 -0.38810072903E+02  0.88883028974E+01  0.40659134469E+02  0.00000000000E+00 0. -1.
         11    1    3    3    0    0 -0.13172482321E+02  0.31036041242E+02 -0.71383631907E+01  0.34463116165E+02  0.51100000000E-03 0. -1.
        -11    1    3    3    0    0  0.54694431120E+00  0.10603116386E+02 -0.18274055344E+00  0.10618786162E+02  0.51100000000E-03 0.  1.
         12    1    3    3    0    0  0.43828728688E+01 -0.28290847257E+01 -0.15671991532E+01  0.54469632049E+01  0.00000000000E+00 0. -1.
</event>
<event>
 7    1  0.3331850E-011  0.5052886E+02  0.7816164E-02  0.1300439E+00
        -11   -1    0    0    0    0  0.00000000000E+00  0.00000000000E+00  0.45593999997E+02  0.45594000000E+02  0.51100000000E-03 0.  1.
         11   -1    0    0    0    0 -0.00000000000E+00 -0.00000000000E+00 -0.45593999997E+02  0.45594000000E+02  0.51100000000E-03 0. -1.
    9900012    2    1    2    0    0 -0.10523876841E+02 -0.18844029371E+02  0.34457456688E+02  0.50528858984E+02  0.29999997368E+02 0.  0.
         12    1    1    2    0    0  0.10523876841E+02  0.18844029371E+02 -0.34457456688E+02  0.40659141016E+02  0.00000000000E+00 0. -1.
         11    1    3    3    0    0  0.66730298377E+01 -0.55467537945E+00  0.31918430211E+01  0.74178739625E+01  0.51100000000E-03 0. -1.
        -11    1    3    3    0    0 -0.23355334186E+01 -0.35860258921E+01  0.17652262429E+02  0.18163608319E+02  0.51100000000E-03 0.  1.
        -12    1    3    3    0    0 -0.14861373260E+02 -0.14703328100E+02  0.13613351238E+02  0.24947376702E+02  0.00000000000E+00 0.  1.
</event>
<event>
 7    1  0.3331850E-011  0.5052885E+02  0.7816164E-02  0.1300439E+00
        -11   -1    0    0    0    0  0.00000000000E+00  0.00000000000E+00  0.45593999997E+02  0.45594000000E+02  0.51100000000E-03 0.  1.
         11   -1    0    0    0    0 -0.00000000000E+00 -0.00000000000E+00 -0.45593999997E+02  0.45594000000E+02  0.51100000000E-03 0. -1.
    9900012    2    1    2    0    0 -0.30394907307E+02 -0.23482321350E+02  0.13337789438E+02  0.50528850559E+02  0.29999971759E+02 0.  0.
         12    1    1    2    0    0  0.30394907307E+02  0.23482321350E+02 -0.13337789438E+02  0.40659149441E+02  0.00000000000E+00 0. -1.
         11    1    3    3    0    0 -0.15957544644E+02 -0.14797619237E+02 -0.24483472148E+01  0.21899935399E+02  0.51100000000E-03 0. -1.
        -11    1    3    3    0    0 -0.72031042686E+01 -0.89556822012E+01  0.25768467587E+00  0.11495884326E+02  0.51100000000E-03 0.  1.
        -12    1    3    3    0    0 -0.72342583944E+01  0.27098008797E+00  0.15528451977E+02  0.17133030833E+02  0.00000000000E+00 0.  1.
</event>
<event>
 7    1  0.3331850E-011  0.5052886E+02  0.7816164E-02  0.1300439E+00
        -11   -1    0    0    0    0  0.00000000000E+00  0.00000000000E+00  0.45593999997E+02  0.45594000000E+02  0.51100000000E-03 0. -1.
         11   -1    0    0    0    0 -0.00000000000E+00 -0.00000000000E+00 -0.45593999997E+02  0.45594000000E+02  0.51100000000E-03 0.  1.
    9900012    2    1    2    0    0 -0.14912498136E+02  0.25498072352E+02 -0.27939783536E+02  0.50528858367E+02  0.29999995491E+02 0.  0.
         12    1    1    2    0    0  0.14912498136E+02 -0.25498072352E+02  0.27939783536E+02  0.40659141633E+02  0.00000000000E+00 0. -1.
         11    1    3    3    0    0  0.16625190207E+01 -0.27708152837E+01  0.93557030664E-01  0.32326676306E+01  0.51100000000E-03 0. -1.
        -11    1    3    3    0    0 -0.53798219187E+01 -0.65046022214E+00 -0.10130360343E+02  0.11488680660E+02  0.51100000000E-03 0.  1.
        -12    1    3    3    0    0 -0.11195195238E+02  0.28919347858E+02 -0.17902980224E+02  0.35807510076E+02  0.00000000000E+00 0.  1.
</event>
<event>
 7    1  0.3331850E-011  0.5052885E+02  0.7816164E-02  0.1300439E+00
        -11   -1    0    0    0    0  0.00000000000E+00  0.00000000000E+00  0.45593999997E+02  0.45594000000E+02  0.51100000000E-03 0.  1.
         11   -1    0    0    0    0 -0.00000000000E+00 -0.00000000000E+00 -0.45593999997E+02  0.45594000000E+02  0.51100000000E-03 0. -1.
    9900012    2    1    2    0    0 -0.19926743863E+02 -0.35273074118E+02 -0.34498469051E+01  0.50528851923E+02  0.29999975904E+02 0.  0.
         12    1    1    2    0    0  0.19926743863E+02  0.35273074118E+02  0.34498469051E+01  0.40659148077E+02  0.00000000000E+00 0. -1.
         11    1    3    3    0    0 -0.48131600956E+01  0.13665314273E+01 -0.69009558112E+01  0.85239139846E+01  0.51100000000E-03 0. -1.
        -11    1    3    3    0    0  0.13073213144E+01 -0.12018032624E+02 -0.75496602258E+00  0.12112479974E+02  0.51100000000E-03 0.  1.
        -12    1    3    3    0    0 -0.16420905082E+02 -0.24621572921E+02  0.42060749287E+01  0.29892457964E+02  0.00000000000E+00 0.  1.
</event>
<event>
 7    1  0.3331850E-011  0.5052886E+02  0.7816164E-02  0.1300439E+00
        -11   -1    0    0    0    0  0.00000000000E+00  0.00000000000E+00  0.45593999997E+02  0.45594000000E+02  0.51100000000E-03 0.  1.
         11   -1    0    0    0    0 -0.00000000000E+00 -0.00000000000E+00 -0.45593999997E+02  0.45594000000E+02  0.51100000000E-03 0. -1.
    9900012    2    1    2    0    0 -0.38603567066E+02  0.25022149551E+00  0.12761946330E+02  0.50528864801E+02  0.30000015048E+02 0.  0.
         12    1    1    2    0    0  0.38603567066E+02 -0.25022149551E+00 -0.12761946330E+02  0.40659135199E+02  0.00000000000E+00 0. -1.
         11    1    3    3    0    0 -0.66781728014E+01  0.46309849427E+01  0.10256068384E+01  0.81912076736E+01  0.51100000000E-03 0. -1.
        -11    1    3    3    0    0 -0.95839464571E+01  0.97441167409E+00  0.16281623649E+02  0.18918054253E+02  0.51100000000E-03 0.  1.
        -12    1    3    3    0    0 -0.22341447808E+02 -0.53551751213E+01 -0.45452841573E+01  0.23419602874E+02  0.00000000000E+00 0.  1.
</event>
<event>
 7    1  0.3331850E-011  0.5052886E+02  0.7816164E-02  0.1300439E+00
        -11   -1    0    0    0    0  0.00000000000E+00  0.00000000000E+00  0.45593999997E+02  0.45594000000E+02  0.51100000000E-03 0.  1.
         11   -1    0    0    0    0 -0.00000000000E+00 -0.00000000000E+00 -0.45593999997E+02  0.45594000000E+02  0.51100000000E-03 0. -1.
    9900012    2    1    2    0    0  0.15001136726E+02 -0.30454415690E+02  0.22375439026E+02  0.50528858228E+02  0.29999995069E+02 0.  0.
         12    1    1    2    0    0 -0.15001136726E+02  0.30454415690E+02 -0.22375439026E+02  0.40659141772E+02  0.00000000000E+00 0. -1.
         11    1    3    3    0    0  0.13987069831E+02 -0.22354883051E+02  0.24207907832E+02  0.35796671920E+02  0.51100000000E-03 0. -1.
        -11    1    3    3    0    0  0.44447407837E+01 -0.32597267743E+01  0.36852492050E+01  0.66304299440E+01  0.51100000000E-03 0.  1.
         12    1    3    3    0    0 -0.34306738884E+01 -0.48398058642E+01 -0.55177180112E+01  0.81017563641E+01  0.00000000000E+00 0. -1.
</event>
<event>
 7    1  0.3331850E-011  0.5052885E+02  0.7816164E-02  0.1300439E+00
        -11   -1    0    0    0    0  0.00000000000E+00  0.00000000000E+00  0.45593999997E+02  0.45594000000E+02  0.51100000000E-03 0.  1.
         11   -1    0    0    0    0 -0.00000000000E+00 -0.00000000000E+00 -0.45593999997E+02  0.45594000000E+02  0.51100000000E-03 0. -1.
    9900012    2    1    2    0    0 -0.84416275516E+01  0.30144923666E+02  0.25945885341E+02  0.50528850172E+02  0.29999970584E+02 0.  0.
         12    1    1    2    0    0  0.84416275516E+01 -0.30144923666E+02 -0.25945885341E+02  0.40659149828E+02  0.00000000000E+00 0. -1.
         11    1    3    3    0    0  0.23785355854E+01  0.14461028461E+02  0.17472193555E+02  0.22804743445E+02  0.51100000000E-03 0. -1.
        -11    1    3    3    0    0 -0.50697076263E+01  0.12467334616E+02  0.13781597105E+02  0.19263145820E+02  0.51100000000E-03 0.  1.
         12    1    3    3    0    0 -0.57504555107E+01  0.32165605894E+01 -0.53079053194E+01  0.84609609079E+01  0.00000000000E+00 0. -1.
</event>
<event>
 7    1  0.3331850E-011  0.5052886E+02  0.7816164E-02  0.1300439E+00
        -11   -1    0    0    0    0  0.00000000000E+00  0.00000000000E+00  0.45593999997E+02  0.45594000000E+02  0.51100000000E-03 0.  1.
         11   -1    0    0    0    0 -0.00000000000E+00 -0.00000000000E+00 -0.45593999997E+02  0.45594000000E+02  0.51100000000E-03 0. -1.
    9900012    2    1    2    0    0  0.38155528185E+02  0.44932334116E+01 -0.13309086594E+02  0.50528864944E+02  0.30000015483E+02 0.  0.
         12    1    1    2    0    0 -0.38155528185E+02 -0.44932334116E+01  0.13309086594E+02  0.40659135056E+02  0.00000000000E+00 0. -1.
         11    1    3    3    0    0  0.16044397789E+02  0.34673774593E+01 -0.14043807526E+01  0.16474759253E+02  0.51100000000E-03 0. -1.
        -11    1    3    3    0    0  0.22508622476E+02  0.87445725280E+01 -0.96345874320E+01  0.25998671307E+02  0.51100000000E-03 0.  1.
         12    1    3    3    0    0 -0.39749208065E+00 -0.77187165757E+01 -0.22701184094E+01  0.80554343845E+01  0.00000000000E+00 0. -1.
</event>
<event>
 7    1  0.3331850E-011  0.5052886E+02  0.7816164E-02  0.1300439E+00
        -11   -1    0    0    0    0  0.00000000000E+00  0.00000000000E+00  0.45593999997E+02  0.45594000000E+02  0.51100000000E-03 0. -1.
         11   -1    0    0    0    0 -0.00000000000E+00 -0.00000000000E+00 -0.45593999997E+02  0.45594000000E+02  0.51100000000E-03 0.  1.
    9900012    2    1    2    0    0 -0.30588141262E+02 -0.16274326934E+02  0.21276222703E+02  0.50528858893E+02  0.29999997092E+02 0.  0.
         12    1    1    2    0    0  0.30588141262E+02  0.16274326934E+02 -0.21276222703E+02  0.40659141107E+02  0.00000000000E+00 0. -1.
         11    1    3    3    0    0 -0.31231386631E+01 -0.41385438214E+01  0.12315962670E+02  0.13362801982E+02  0.51100000000E-03 0. -1.
        -11    1    3    3    0    0  0.14488848375E+01 -0.56813298708E+01  0.40755588176E+01  0.71405151292E+01  0.51100000000E-03 0.  1.
        -12    1    3    3    0    0 -0.28913887436E+02 -0.64544532420E+01  0.48847012162E+01  0.30025541782E+02  0.00000000000E+00 0.  1.
</event>
<event>
 7    1  0.3331850E-011  0.5052881E+02  0.7816164E-02  0.1300439E+00
        -11   -1    0    0    0    0  0.00000000000E+00  0.00000000000E+00  0.45593999997E+02  0.45594000000E+02  0.51100000000E-03 0.  1.
         11   -1    0    0    0    0 -0.00000000000E+00 -0.00000000000E+00 -0.45593999997E+02  0.45594000000E+02  0.51100000000E-03 0. -1.
    9900012    2    1    2    0    0 -0.63730707154E+01 -0.30238860720E+02  0.26422807534E+02  0.50528813019E+02  0.29999857651E+02 0.  0.
         12    1    1    2    0    0  0.63730707154E+01  0.30238860720E+02 -0.26422807534E+02  0.40659186981E+02  0.00000000000E+00 0. -1.
         11    1    3    3    0    0 -0.93115181207E+01 -0.17146626267E+01 -0.41705544042E+00  0.94772555699E+01  0.51100000000E-03 0. -1.
        -11    1    3    3    0    0  0.81551373720E-01  0.82548159274E+00  0.30573338793E+01  0.31678638224E+01  0.51100000000E-03 0.  1.
         12    1    3    3    0    0  0.28568960315E+01 -0.29349679686E+02  0.23782529095E+02  0.37883693626E+02  0.00000000000E+00 0. -1.
</event>
<event>
 7    1  0.3331850E-011  0.5052886E+02  0.7816164E-02  0.1300439E+00
        -11   -1    0    0    0    0  0.00000000000E+00  0.00000000000E+00  0.45593999997E+02  0.45594000000E+02  0.51100000000E-03 0.  1.
         11   -1    0    0    0    0 -0.00000000000E+00 -0.00000000000E+00 -0.45593999997E+02  0.45594000000E+02  0.51100000000E-03 0. -1.
    9900012    2    1    2    0    0 -0.20220794544E+02  0.35227726611E+02 -0.18145295964E+01  0.50528858693E+02  0.29999996483E+02 0.  0.
         12    1    1    2    0    0  0.20220794544E+02 -0.35227726611E+02  0.18145295964E+01  0.40659141307E+02  0.00000000000E+00 0. -1.
         11    1    3    3    0    0 -0.12502278723E+02  0.17298116877E+02 -0.47553436294E+01  0.21866529538E+02  0.51100000000E-03 0.  1.
        -11    1    3    3    0    0 -0.55820216735E+01  0.20952035161E+02  0.73599315986E+01  0.22897933023E+02  0.51100000000E-03 0. -1.
         12    1    3    3    0    0 -0.21364941478E+01 -0.30224254266E+01 -0.44191175657E+01  0.57643961316E+01  0.00000000000E+00 0. -1.
</event>
<event>
 7    1  0.3331850E-011  0.5052887E+02  0.7816164E-02  0.1300439E+00
        -11   -1    0    0    0    0  0.00000000000E+00  0.00000000000E+00  0.45593999997E+02  0.45594000000E+02  0.51100000000E-03 0.  1.
         11   -1    0    0    0    0 -0.00000000000E+00 -0.00000000000E+00 -0.45593999997E+02  0.45594000000E+02  0.51100000000E-03 0. -1.
    9900012    2    1    2    0    0 -0.23732707651E+02  0.64796376194E+01  0.32371866128E+02  0.50528870241E+02  0.30000031585E+02 0.  0.
         12    1    1    2    0    0  0.23732707651E+02 -0.64796376194E+01 -0.32371866128E+02  0.40659129759E+02  0.00000000000E+00 0. -1.
         11    1    3    3    0    0  0.29570455939E+01  0.64410952811E+01  0.99794125641E+01  0.12240118564E+02  0.51100000000E-03 0. -1.
        -11    1    3    3    0    0 -0.17555848880E+02  0.47989049278E+01  0.21167891647E+02  0.27916248950E+02  0.51100000000E-03 0.  1.
         12    1    3    3    0    0 -0.91339043655E+01 -0.47603625895E+01  0.12245619168E+01  0.10372502727E+02  0.00000000000E+00 0. -1.
</event>
<event>
 7    1  0.3420209E-011  0.5052887E+02  0.7816164E-02  0.1300439E+00
        -11   -1    0    0    0    0  0.00000000000E+00  0.00000000000E+00  0.45593999997E+02  0.45594000000E+02  0.51100000000E-03 0. -1.
         11   -1    0    0    0    0 -0.00000000000E+00 -0.00000000000E+00 -0.45593999997E+02  0.45594000000E+02  0.51100000000E-03 0.  1.
    9900012    2    1    2    0    0  0.39532889125E+02 -0.44080920306E+01 -0.84192998616E+01  0.50528865626E+02  0.30000017556E+02 0.  0.
         12    1    1    2    0    0 -0.39532889125E+02  0.44080920306E+01  0.84192998616E+01  0.40659134374E+02  0.00000000000E+00 0. -1.
         11    1    3    3    0    0 -0.18975897007E+01  0.17203105934E+01 -0.52217086229E+01  0.58160602140E+01  0.51100000000E-03 0. -1.
        -11    1    3    3    0    0  0.95516681023E+01  0.12934071105E+01 -0.67820947413E+01  0.11785757287E+02  0.51100000000E-03 0.  1.
         12    1    3    3    0    0  0.31878810723E+02 -0.74218097345E+01  0.35845035025E+01  0.32927048125E+02  0.00000000000E+00 0. -1.
</event>
<event>
 7    1  0.3331850E-011  0.5052885E+02  0.7816164E-02  0.1300439E+00
        -11   -1    0    0    0    0  0.00000000000E+00  0.00000000000E+00  0.45593999997E+02  0.45594000000E+02  0.51100000000E-03 0. -1.
         11   -1    0    0    0    0 -0.00000000000E+00 -0.00000000000E+00 -0.45593999997E+02  0.45594000000E+02  0.51100000000E-03 0.  1.
    9900012    2    1    2    0    0 -0.36242800216E+01  0.20090064043E+02 -0.35162773101E+02  0.50528847388E+02  0.29999962122E+02 0.  0.
         12    1    1    2    0    0  0.36242800216E+01 -0.20090064043E+02  0.35162773101E+02  0.40659152612E+02  0.00000000000E+00 0. -1.
         11    1    3    3    0    0 -0.28416405193E+01  0.15623718663E+02 -0.18625165752E+02  0.24475953613E+02  0.51100000000E-03 0. -1.
        -11    1    3    3    0    0 -0.99011996936E+01  0.47950293502E+01 -0.87383905088E+01  0.14049396100E+02  0.51100000000E-03 0.  1.
         12    1    3    3    0    0  0.91185601913E+01 -0.32868397070E+00 -0.77992168406E+01  0.12003497675E+02  0.00000000000E+00 0. -1.
</event>
<event>
 7    1  0.3331850E-011  0.5052885E+02  0.7816164E-02  0.1300439E+00
        -11   -1    0    0    0    0  0.00000000000E+00  0.00000000000E+00  0.45593999997E+02  0.45594000000E+02  0.51100000000E-03 0.  1.
         11   -1    0    0    0    0 -0.00000000000E+00 -0.00000000000E+00 -0.45593999997E+02  0.45594000000E+02  0.51100000000E-03 0. -1.
    9900012    2    1    2    0    0  0.39223835429E+02  0.34663948325E+01  0.10131216804E+02  0.50528847121E+02  0.29999961310E+02 0.  0.
         12    1    1    2    0    0 -0.39223835429E+02 -0.34663948325E+01 -0.10131216804E+02  0.40659152879E+02  0.00000000000E+00 0. -1.
         11    1    3    3    0    0  0.74011364057E+01  0.51090529327E+01  0.27451769892E+01  0.94029377818E+01  0.51100000000E-03 0. -1.
        -11    1    3    3    0    0  0.28209120198E+02  0.54602282722E+01 -0.20129908373E+01  0.28803136765E+02  0.51100000000E-03 0.  1.
         12    1    3    3    0    0  0.36135788256E+01 -0.71028863725E+01  0.93990306516E+01  0.12322772575E+02  0.00000000000E+00 0. -1.
</event>
<event>
 7    1  0.3331850E-011  0.5052885E+02  0.7816164E-02  0.1300439E+00
        -11   -1    0    0    0    0  0.00000000000E+00  0.00000000000E+00  0.45593999997E+02  0.45594000000E+02  0.51100000000E-03 0.  1.
         11   -1    0    0    0    0 -0.00000000000E+00 -0.00000000000E+00 -0.45593999997E+02  0.45594000000E+02  0.51100000000E-03 0. -1.
    9900012    2    1    2    0    0  0.16176710305E+02 -0.39088543208E+01  0.37097182848E+02  0.50528854981E+02  0.29999985201E+02 0.  0.
         12    1    1    2    0    0 -0.16176710305E+02  0.39088543208E+01 -0.37097182848E+02  0.40659145019E+02  0.00000000000E+00 0. -1.
         11    1    3    3    0    0  0.10691965329E+02 -0.15784652947E+02  0.15297995647E+02  0.24443855308E+02  0.51100000000E-03 0.  1.
        -11    1    3    3    0    0  0.36761795563E+01  0.48161708613E+01  0.53070549512E+01  0.80544789038E+01  0.51100000000E-03 0. -1.
        -12    1    3    3    0    0  0.18085654195E+01  0.70596277650E+01  0.16492132250E+02  0.18030520769E+02  0.00000000000E+00 0.  1.
</event>
<event>
 7    1  0.3331850E-011  0.5052886E+02  0.7816164E-02  0.1300439E+00
        -11   -1    0    0    0    0  0.00000000000E+00  0.00000000000E+00  0.45593999997E+02  0.45594000000E+02  0.51100000000E-03 0. -1.
         11   -1    0    0    0    0 -0.00000000000E+00 -0.00000000000E+00 -0.45593999997E+02  0.45594000000E+02  0.51100000000E-03 0.  1.
    9900012    2    1    2    0    0  0.16210188922E+02 -0.37287888767E+02 -0.95280370851E-01  0.50528856478E+02  0.29999989750E+02 0.  0.
         12    1    1    2    0    0 -0.16210188922E+02  0.37287888767E+02  0.95280370851E-01  0.40659143522E+02  0.00000000000E+00 0. -1.
         11    1    3    3    0    0  0.36355254750E+01 -0.21415955347E+01  0.60584867753E+01  0.73830033984E+01  0.51100000000E-03 0. -1.
        -11    1    3    3    0    0  0.88729280990E+01 -0.12657448198E+02  0.68479707911E+01  0.16906642250E+02  0.51100000000E-03 0.  1.
        -12    1    3    3    0    0  0.37017353477E+01 -0.22488845034E+02 -0.13001737937E+02  0.26239210830E+02  0.00000000000E+00 0.  1.
</event>
<event>
 7    1  0.3331850E-011  0.5052887E+02  0.7816164E-02  0.1300439E+00
        -11   -1    0    0    0    0  0.00000000000E+00  0.00000000000E+00  0.45593999997E+02  0.45594000000E+02  0.51100000000E-03 0.  1.
         11   -1    0    0    0    0 -0.00000000000E+00 -0.00000000000E+00 -0.45593999997E+02  0.45594000000E+02  0.51100000000E-03 0. -1.
    9900012    2    1    2    0    0 -0.33051025471E+02  0.21356330688E+02  0.10232398462E+02  0.50528866667E+02  0.30000020720E+02 0.  0.
         12    1    1    2    0    0  0.33051025471E+02 -0.21356330688E+02 -0.10232398462E+02  0.40659133333E+02  0.00000000000E+00 0. -1.
         11    1    3    3    0    0 -0.20968958705E+02  0.11392074954E+02  0.12458077607E+02  0.26919886680E+02  0.51100000000E-03 0. -1.
        -11    1    3    3    0    0 -0.13326387219E+02  0.30906230674E+01  0.39990053559E+01  0.14252599460E+02  0.51100000000E-03 0.  1.
         12    1    3    3    0    0  0.12443204532E+01  0.68736326666E+01 -0.62246845011E+01  0.93563805269E+01  0.00000000000E+00 0. -1.
</event>
<event>
 7    1  0.3331850E-011  0.5052885E+02  0.7816164E-02  0.1300439E+00
        -11   -1    0    0    0    0  0.00000000000E+00  0.00000000000E+00  0.45593999997E+02  0.45594000000E+02  0.51100000000E-03 0.  1.
         11   -1    0    0    0    0 -0.00000000000E+00 -0.00000000000E+00 -0.45593999997E+02  0.45594000000E+02  0.51100000000E-03 0. -1.
    9900012    2    1    2    0    0 -0.35377457319E+02  0.19953286448E+02  0.18623746921E+01  0.50528848928E+02  0.29999966800E+02 0.  0.
         12    1    1    2    0    0  0.35377457319E+02 -0.19953286448E+02 -0.18623746921E+01  0.40659151072E+02  0.00000000000E+00 0. -1.
         11    1    3    3    0    0 -0.98891260901E+01 -0.34768710835E+00  0.46307036859E+01  0.10925159863E+02  0.51100000000E-03 0. -1.
        -11    1    3    3    0    0 -0.11937761971E+02  0.52986017585E-01  0.64322219624E+01  0.13560473739E+02  0.51100000000E-03 0.  1.
        -12    1    3    3    0    0 -0.13550569258E+02  0.20247987539E+02 -0.92005509562E+01  0.26043215326E+02  0.00000000000E+00 0.  1.
</event>
<event>
 7    1  0.3331850E-011  0.5052886E+02  0.7816164E-02  0.1300439E+00
        -11   -1    0    0    0    0  0.00000000000E+00  0.00000000000E+00  0.45593999997E+02  0.45594000000E+02  0.51100000000E-03 0.  1.
         11   -1    0    0    0    0 -0.00000000000E+00 -0.00000000000E+00 -0.45593999997E+02  0.45594000000E+02  0.51100000000E-03 0. -1.
    9900012    2    1    2    0    0  0.27359921458E+02 -0.22844519683E+02  0.19563447515E+02  0.50528857604E+02  0.29999993172E+02 0.  0.
         12    1    1    2    0    0 -0.27359921458E+02  0.22844519683E+02 -0.19563447515E+02  0.40659142396E+02  0.00000000000E+00 0. -1.
         11    1    3    3    0    0  0.28211091467E+01  0.58227971989E+01  0.31233501676E+00  0.64777447820E+01  0.51100000000E-03 0. -1.
        -11    1    3    3    0    0  0.44595027576E+01 -0.14166958033E+02  0.74274945747E+01  0.16605948954E+02  0.51100000000E-03 0.  1.
        -12    1    3    3    0    0  0.20079309554E+02 -0.14500358849E+02  0.11823617923E+02  0.27445163867E+02  0.00000000000E+00 0.  1.
</event>
<event>
 7    1  0.3331850E-011  0.5052887E+02  0.7816164E-02  0.1300439E+00
        -11   -1    0    0    0    0  0.00000000000E+00  0.00000000000E+00  0.45593999997E+02  0.45594000000E+02  0.51100000000E-03 0. -1.
         11   -1    0    0    0    0 -0.00000000000E+00 -0.00000000000E+00 -0.45593999997E+02  0.45594000000E+02  0.51100000000E-03 0.  1.
    9900012    2    1    2    0    0 -0.39995689029E+02  0.34055665120E+01 -0.64739367664E+01  0.50528869643E+02  0.30000029766E+02 0.  0.
         12    1    1    2    0    0  0.39995689029E+02 -0.34055665120E+01  0.64739367664E+01  0.40659130357E+02  0.00000000000E+00 0. -1.
         11    1    3    3    0    0 -0.51957093650E+01 -0.22387397395E+01  0.45082187211E+01  0.72340436635E+01  0.51100000000E-03 0. -1.
        -11    1    3    3    0    0 -0.47880987763E+00 -0.44713023873E+01  0.23953055345E+01  0.50950262808E+01  0.51100000000E-03 0.  1.
        -12    1    3    3    0    0 -0.34321169786E+02  0.10115608639E+02 -0.13377461022E+02  0.38199799699E+02  0.00000000000E+00 0.  1.
</event>
<event>
 7    1  0.3331850E-011  0.5052887E+02  0.7816164E-02  0.1300439E+00
        -11   -1    0    0    0    0  0.00000000000E+00  0.00000000000E+00  0.45593999997E+02  0.45594000000E+02  0.51100000000E-03 0.  1.
         11   -1    0    0    0    0 -0.00000000000E+00 -0.00000000000E+00 -0.45593999997E+02  0.45594000000E+02  0.51100000000E-03 0. -1.
    9900012    2    1    2    0    0  0.55489554839E+01  0.46661983181E+01  0.40007509082E+02  0.50528866995E+02  0.30000021719E+02 0.  0.
         12    1    1    2    0    0 -0.55489554839E+01 -0.46661983181E+01 -0.40007509082E+02  0.40659133005E+02  0.00000000000E+00 0. -1.
         11    1    3    3    0    0  0.47427099572E+01  0.22308889662E+01  0.19119979876E+02  0.19825332129E+02  0.51100000000E-03 0. -1.
        -11    1    3    3    0    0  0.10796895946E+01 -0.58299156199E+01  0.21603987253E+02  0.22402810342E+02  0.51100000000E-03 0.  1.
         12    1    3    3    0    0 -0.27344406789E+00  0.82652249718E+01 -0.71645804606E+00  0.83007245241E+01  0.00000000000E+00 0. -1.
</event>
<event>
 7    1  0.3331850E-011  0.5052887E+02  0.7816164E-02  0.1300439E+00
        -11   -1    0    0    0    0  0.00000000000E+00  0.00000000000E+00  0.45593999997E+02  0.45594000000E+02  0.51100000000E-03 0.  1.
         11   -1    0    0    0    0 -0.00000000000E+00 -0.00000000000E+00 -0.45593999997E+02  0.45594000000E+02  0.51100000000E-03 0. -1.
    9900012    2    1    2    0    0 -0.24415330166E+02  0.68820579637E+01  0.31775684169E+02  0.50528866053E+02  0.30000018854E+02 0.  0.
         12    1    1    2    0    0  0.24415330166E+02 -0.68820579637E+01 -0.31775684169E+02  0.40659133947E+02  0.00000000000E+00 0. -1.
         11    1    3    3    0    0  0.12934926011E+01  0.43153103828E+01 -0.17691924871E+00  0.45084728557E+01  0.51100000000E-03 0. -1.
        -11    1    3    3    0    0 -0.24796182558E+02  0.63685292391E+01  0.17406383514E+02  0.30957891101E+02  0.51100000000E-03 0.  1.
        -12    1    3    3    0    0 -0.91264020958E+00 -0.38017816582E+01  0.14546219903E+02  0.15062502096E+02  0.00000000000E+00 0.  1.
</event>
<event>
 7    1  0.3331850E-011  0.5052889E+02  0.7816164E-02  0.1300439E+00
        -11   -1    0    0    0    0  0.00000000000E+00  0.00000000000E+00  0.45593999997E+02  0.45594000000E+02  0.51100000000E-03 0.  1.
         11   -1    0    0    0    0 -0.00000000000E+00 -0.00000000000E+00 -0.45593999997E+02  0.45594000000E+02  0.51100000000E-03 0. -1.
    9900012    2    1    2    0    0  0.24479218862E+02 -0.27851070747E+02  0.16680799745E+02  0.50528888131E+02  0.30000085964E+02 0.  0.
         12    1    1    2    0    0 -0.24479218862E+02  0.27851070747E+02 -0.16680799745E+02  0.40659111869E+02  0.00000000000E+00 0. -1.
         11    1    3    3    0    0 -0.49957682986E+01 -0.86203990162E+01  0.52482234388E+01  0.11261120265E+02  0.51100000000E-03 0. -1.
        -11    1    3    3    0    0  0.71487244364E+01 -0.13356942537E+01  0.73944671608E+01  0.10371426375E+02  0.51100000000E-03 0.  1.
        -12    1    3    3    0    0  0.22326262724E+02 -0.17894977477E+02  0.40381091452E+01  0.28896341491E+02  0.00000000000E+00 0.  1.
</event>
<event>
 7    1  0.3331850E-011  0.5052886E+02  0.7816164E-02  0.1300439E+00
        -11   -1    0    0    0    0  0.00000000000E+00  0.00000000000E+00  0.45593999997E+02  0.45594000000E+02  0.51100000000E-03 0.  1.
         11   -1    0    0    0    0 -0.00000000000E+00 -0.00000000000E+00 -0.45593999997E+02  0.45594000000E+02  0.51100000000E-03 0. -1.
    9900012    2    1    2    0    0  0.12490747480E+01  0.37094797636E+02  0.16600644290E+02  0.50528860926E+02  0.30000003272E+02 0.  0.
         12    1    1    2    0    0 -0.12490747480E+01 -0.37094797636E+02 -0.16600644290E+02  0.40659139074E+02  0.00000000000E+00 0. -1.
         11    1    3    3    0    0  0.66620544892E+01  0.73937171581E+00  0.53207626728E+01  0.85580462859E+01  0.51100000000E-03 0. -1.
        -11    1    3    3    0    0  0.57953402295E+01  0.10005847057E+02  0.52949185815E+01  0.12717669077E+02  0.51100000000E-03 0.  1.
         12    1    3    3    0    0 -0.11208319971E+02  0.26349578863E+02  0.59849630357E+01  0.29253145563E+02  0.00000000000E+00 0. -1.
</event>
<event>
 7    1  0.3331850E-011  0.5052886E+02  0.7816164E-02  0.1300439E+00
        -11   -1    0    0    0    0  0.00000000000E+00  0.00000000000E+00  0.45593999997E+02  0.45594000000E+02  0.51100000000E-03 0. -1.
         11   -1    0    0    0    0 -0.00000000000E+00 -0.00000000000E+00 -0.45593999997E+02  0.45594000000E+02  0.51100000000E-03 0.  1.
    9900012    2    1    2    0    0 -0.17053988387E+02 -0.28658176159E+02 -0.23260180900E+02  0.50528860853E+02  0.30000003050E+02 0.  0.
         12    1    1    2    0    0  0.17053988387E+02  0.28658176159E+02  0.23260180900E+02  0.40659139147E+02  0.00000000000E+00 0. -1.
         11    1    3    3    0    0  0.14715710898E+01 -0.63625024276E+01 -0.13770059876E+01  0.66740620588E+01  0.51100000000E-03 0. -1.
        -11    1    3    3    0    0  0.75891969497E+00 -0.86348181582E+01 -0.17900437296E+02  0.19888732975E+02  0.51100000000E-03 0.  1.
        -12    1    3    3    0    0 -0.19284479172E+02 -0.13660855573E+02 -0.39827376164E+01  0.23966065819E+02  0.00000000000E+00 0.  1.
</event>
<event>
 7    1  0.3331850E-011  0.5052881E+02  0.7816164E-02  0.1300439E+00
        -11   -1    0    0    0    0  0.00000000000E+00  0.00000000000E+00  0.45593999997E+02  0.45594000000E+02  0.51100000000E-03 0. -1.
         11   -1    0    0    0    0 -0.00000000000E+00 -0.00000000000E+00 -0.45593999997E+02  0.45594000000E+02  0.51100000000E-03 0.  1.
    9900012    2    1    2    0    0 -0.32661178312E+01  0.40431436067E+02 -0.27930866438E+01  0.50528808159E+02  0.29999842880E+02 0.  0.
         12    1    1    2    0    0  0.32661178312E+01 -0.40431436067E+02  0.27930866438E+01  0.40659191841E+02  0.00000000000E+00 0. -1.
         11    1    3    3    0    0 -0.11551976497E+02  0.31999322280E+01 -0.45235770867E+00  0.11995513954E+02  0.51100000000E-03 0. -1.
        -11    1    3    3    0    0  0.48732348927E+00  0.26509310285E+01 -0.14775338281E+01  0.30737641379E+01  0.51100000000E-03 0.  1.
         12    1    3    3    0    0  0.77985351766E+01  0.34580572811E+02 -0.86319510703E+00  0.35459530068E+02  0.00000000000E+00 0. -1.
</event>
<event>
 7    1  0.3331850E-011  0.5052888E+02  0.7816164E-02  0.1300439E+00
        -11   -1    0    0    0    0  0.00000000000E+00  0.00000000000E+00  0.45593999997E+02  0.45594000000E+02  0.51100000000E-03 0.  1.
         11   -1    0    0    0    0 -0.00000000000E+00 -0.00000000000E+00 -0.45593999997E+02  0.45594000000E+02  0.51100000000E-03 0. -1.
    9900012    2    1    2    0    0  0.17007831898E+02  0.36602971210E+02  0.49112568525E+01  0.50528876901E+02  0.30000051829E+02 0.  0.
         12    1    1    2    0    0 -0.17007831898E+02 -0.36602971210E+02 -0.49112568525E+01  0.40659123099E+02  0.00000000000E+00 0. -1.
         11    1    3    3    0    0  0.43237856546E+01 -0.85489616207E+00  0.23489021544E+01  0.49943279255E+01  0.51100000000E-03 0.  1.
        -11    1    3    3    0    0  0.25293189731E+01 -0.41682418630E+00 -0.49821794282E+01  0.56029732272E+01  0.51100000000E-03 0. -1.
        -12    1    3    3    0    0  0.10154727270E+02  0.37874691559E+02  0.75445341262E+01  0.39931575749E+02  0.00000000000E+00 0.  1.
</event>
<event>
 7    1  0.3601528E-011  0.5052883E+02  0.7816164E-02  0.1300439E+00
        -11   -1    0    0    0    0  0.00000000000E+00  0.00000000000E+00  0.45593999997E+02  0.45594000000E+02  0.51100000000E-03 0. -1.
         11   -1    0    0    0    0 -0.00000000000E+00 -0.00000000000E+00 -0.45593999997E+02  0.45594000000E+02  0.51100000000E-03 0.  1.
    9900012    2    1    2    0    0 -0.39344650284E+01 -0.30974388968E+02 -0.26043711588E+02  0.50528834979E+02  0.29999924401E+02 0.  0.
         12    1    1    2    0    0  0.39344650284E+01  0.30974388968E+02  0.26043711588E+02  0.40659165021E+02  0.00000000000E+00 0. -1.
         11    1    3    3    0    0 -0.49698278106E+01 -0.20403781757E+02 -0.38520759495E+01  0.21350690570E+02  0.51100000000E-03 0. -1.
        -11    1    3    3    0    0 -0.68092119130E+00 -0.11939416536E+02 -0.70583385630E+01  0.13886448949E+02  0.51100000000E-03 0.  1.
         12    1    3    3    0    0  0.17162839735E+01  0.13688093251E+01 -0.15133297075E+02  0.15291695459E+02  0.00000000000E+00 0. -1.
</event>
<event>
 7    1  0.3331850E-011  0.5052885E+02  0.7816164E-02  0.1300439E+00
        -11   -1    0    0    0    0  0.00000000000E+00  0.00000000000E+00  0.45593999997E+02  0.45594000000E+02  0.51100000000E-03 0.  1.
         11   -1    0    0    0    0 -0.00000000000E+00 -0.00000000000E+00 -0.45593999997E+02  0.45594000000E+02  0.51100000000E-03 0. -1.
    9900012    2    1    2    0    0 -0.42270076041E+01  0.12398100715E+01  0.40419820485E+02  0.50528848382E+02  0.29999965141E+02 0.  0.
         12    1    1    2    0    0  0.42270076041E+01 -0.12398100715E+01 -0.40419820485E+02  0.40659151618E+02  0.00000000000E+00 0. -1.
         11    1    3    3    0    0 -0.41712962678E+01 -0.67681337431E+01  0.20731640470E+02  0.22203789400E+02  0.51100000000E-03 0. -1.
        -11    1    3    3    0    0  0.26070984937E+01 -0.35408496104E+01  0.14912492614E+02  0.15547251035E+02  0.51100000000E-03 0.  1.
         12    1    3    3    0    0 -0.26628098300E+01  0.11548793425E+02  0.47756874009E+01  0.12777807946E+02  0.00000000000E+00 0. -1.
</event>
<event>
 7    1  0.3331850E-011  0.5052880E+02  0.7816164E-02  0.1300439E+00
        -11   -1    0    0    0    0  0.00000000000E+00  0.00000000000E+00  0.45593999997E+02  0.45594000000E+02  0.51100000000E-03 0.  1.
         11   -1    0    0    0    0 -0.00000000000E+00 -0.00000000000E+00 -0.45593999997E+02  0.45594000000E+02  0.51100000000E-03 0. -1.
    9900012    2    1    2    0    0 -0.41606508693E+01 -0.34421084782E+02  0.21237897540E+02  0.50528801961E+02  0.29999824041E+02 0.  0.
         12    1    1    2    0    0  0.41606508693E+01  0.34421084782E+02 -0.21237897540E+02  0.40659198039E+02  0.00000000000E+00 0. -1.
         11    1    3    3    0    0  0.39240569662E+01 -0.22127755676E+01  0.76436248803E+01  0.88724066836E+01  0.51100000000E-03 0. -1.
        -11    1    3    3    0    0 -0.14282329145E+01 -0.13718521416E+02  0.16809206306E+02  0.21743667952E+02  0.51100000000E-03 0.  1.
        -12    1    3    3    0    0 -0.66564749210E+01 -0.18489787798E+02 -0.32149336461E+01  0.19912727326E+02  0.00000000000E+00 0.  1.
</event>
<event>
 7    1  0.3331850E-011  0.5052886E+02  0.7816164E-02  0.1300439E+00
        -11   -1    0    0    0    0  0.00000000000E+00  0.00000000000E+00  0.45593999997E+02  0.45594000000E+02  0.51100000000E-03 0.  1.
         11   -1    0    0    0    0 -0.00000000000E+00 -0.00000000000E+00 -0.45593999997E+02  0.45594000000E+02  0.51100000000E-03 0. -1.
    9900012    2    1    2    0    0  0.39794532277E+02 -0.66231263913E+01  0.50690416512E+01  0.50528858524E+02  0.29999995968E+02 0.  0.
         12    1    1    2    0    0 -0.39794532277E+02  0.66231263913E+01 -0.50690416512E+01  0.40659141476E+02  0.00000000000E+00 0. -1.
         11    1    3    3    0    0  0.85508661462E+01 -0.12877934618E+02  0.49666869376E+01  0.16236578804E+02  0.51100000000E-03 0. -1.
        -11    1    3    3    0    0  0.19652198074E+02 -0.25607993530E-02 -0.48121603244E+01  0.20232789796E+02  0.51100000000E-03 0.  1.
        -12    1    3    3    0    0  0.11591468057E+02  0.62573690257E+01  0.49145150381E+01  0.14059489923E+02  0.00000000000E+00 0.  1.
</event>
