<event>
 7    1  0.5743890E-009  0.4614232E+02  0.7816164E-02  0.1320468E+00
        -11   -1    0    0    0    0  0.00000000000E+00  0.00000000000E+00  0.45593999997E+02  0.45594000000E+02  0.51100000000E-03 0. -1.
         11   -1    0    0    0    0 -0.00000000000E+00 -0.00000000000E+00 -0.45593999997E+02  0.45594000000E+02  0.51100000000E-03 0.  1.
    9900012    2    1    2    0    0 -0.12668336307E+01 -0.38042719863E+02 -0.24088588892E+02  0.46142317445E+02  0.99999971206E+01 0.  0.
         12    1    1    2    0    0  0.12668336307E+01  0.38042719863E+02  0.24088588892E+02  0.45045682555E+02  0.00000000000E+00 0. -1.
         11    1    3    3    0    0 -0.17660658286E+01 -0.13334827544E+02 -0.87413387355E+01  0.16042057763E+02  0.51100000000E-03 0.  1.
        -11    1    3    3    0    0 -0.24076356288E+01 -0.18414122998E+02 -0.87451958970E+01  0.20526935637E+02  0.51100000000E-03 0. -1.
         12    1    3    3    0    0  0.29068678267E+01 -0.62937693215E+01 -0.66020542593E+01  0.95733240453E+01  0.00000000000E+00 0. -1.
</event>
<event>
 7    1  0.5743890E-009  0.4614232E+02  0.7816164E-02  0.1320468E+00
        -11   -1    0    0    0    0  0.00000000000E+00  0.00000000000E+00  0.45593999997E+02  0.45594000000E+02  0.51100000000E-03 0. -1.
         11   -1    0    0    0    0 -0.00000000000E+00 -0.00000000000E+00 -0.45593999997E+02  0.45594000000E+02  0.51100000000E-03 0.  1.
    9900012    2    1    2    0    0 -0.38773292838E+01 -0.91535870903E+01  0.43935083464E+02  0.46142318764E+02  0.10000009146E+02 0.  0.
        -12    1    1    2    0    0  0.38773292838E+01  0.91535870903E+01 -0.43935083464E+02  0.45045681236E+02  0.00000000000E+00 0.  1.
         11    1    3    3    0    0  0.25429438546E+00 -0.17191329818E+01  0.22630499822E+01  0.28533277636E+01  0.51100000000E-03 0. -1.
        -11    1    3    3    0    0  0.22834667904E+01 -0.10438052461E+01  0.12267560255E+02  0.12521852293E+02  0.51100000000E-03 0.  1.
         12    1    3    3    0    0 -0.64150904597E+01 -0.63906488624E+01  0.29404473227E+02  0.30767138707E+02  0.00000000000E+00 0. -1.
</event>
<event>
 7    1  0.5743890E-009  0.4614232E+02  0.7816164E-02  0.1320468E+00
        -11   -1    0    0    0    0  0.00000000000E+00  0.00000000000E+00  0.45593999997E+02  0.45594000000E+02  0.51100000000E-03 0. -1.
         11   -1    0    0    0    0 -0.00000000000E+00 -0.00000000000E+00 -0.45593999997E+02  0.45594000000E+02  0.51100000000E-03 0.  1.
    9900012    2    1    2    0    0  0.10200813508E+02 -0.13184005621E+02 -0.41847807061E+02  0.46142317008E+02  0.99999931319E+01 0.  0.
         12    1    1    2    0    0 -0.10200813508E+02  0.13184005621E+02  0.41847807061E+02  0.45045682992E+02  0.00000000000E+00 0. -1.
         11    1    3    3    0    0  0.16726256227E+01 -0.39634944874E+01 -0.21191070651E+02  0.21623330932E+02  0.51100000000E-03 0. -1.
        -11    1    3    3    0    0  0.55182366677E+01 -0.30163277773E+01 -0.91091459459E+01  0.11069133178E+02  0.51100000000E-03 0.  1.
         12    1    3    3    0    0  0.30099512180E+01 -0.62041833562E+01 -0.11547590464E+02  0.13449852898E+02  0.00000000000E+00 0. -1.
</event>
<event>
 7    1  0.5743890E-009  0.4614232E+02  0.7816164E-02  0.1320468E+00
        -11   -1    0    0    0    0  0.00000000000E+00  0.00000000000E+00  0.45593999997E+02  0.45594000000E+02  0.51100000000E-03 0.  1.
         11   -1    0    0    0    0 -0.00000000000E+00 -0.00000000000E+00 -0.45593999997E+02  0.45594000000E+02  0.51100000000E-03 0. -1.
    9900012    2    1    2    0    0  0.24043478609E+02 -0.36568261345E+02  0.10667094661E+02  0.46142317522E+02  0.99999978178E+01 0.  0.
        -12    1    1    2    0    0 -0.24043478609E+02  0.36568261345E+02 -0.10667094661E+02  0.45045682478E+02  0.00000000000E+00 0.  1.
         11    1    3    3    0    0  0.69808322525E+01 -0.11312411611E+02  0.15298991155E+01  0.13380705025E+02  0.51100000000E-03 0. -1.
        -11    1    3    3    0    0  0.10622531277E+02 -0.21277651276E+02  0.57414592856E+01  0.24465096966E+02  0.51100000000E-03 0.  1.
        -12    1    3    3    0    0  0.64401150798E+01 -0.39781984572E+01  0.33957362599E+01  0.82965155308E+01  0.00000000000E+00 0.  1.
</event>
<event>
 7    1  0.5743890E-009  0.4614232E+02  0.7816164E-02  0.1320468E+00
        -11   -1    0    0    0    0  0.00000000000E+00  0.00000000000E+00  0.45593999997E+02  0.45594000000E+02  0.51100000000E-03 0. -1.
         11   -1    0    0    0    0 -0.00000000000E+00 -0.00000000000E+00 -0.45593999997E+02  0.45594000000E+02  0.51100000000E-03 0.  1.
    9900012    2    1    2    0    0 -0.32958305410E+02 -0.40662348885E+01  0.30435659361E+02  0.46142317383E+02  0.99999965520E+01 0.  0.
        -12    1    1    2    0    0  0.32958305410E+02  0.40662348885E+01 -0.30435659361E+02  0.45045682617E+02  0.00000000000E+00 0.  1.
         11    1    3    3    0    0 -0.23499899142E+02 -0.10999546271E+01  0.18684256882E+02  0.30042580038E+02  0.51100000000E-03 0. -1.
        -11    1    3    3    0    0 -0.62187735888E+01  0.52547417386E+00  0.67571143611E+01  0.91982532476E+01  0.51100000000E-03 0.  1.
        -12    1    3    3    0    0 -0.32396326791E+01 -0.34917544353E+01  0.49942881186E+01  0.69014840972E+01  0.00000000000E+00 0.  1.
</event>
<event>
 7    1  0.5743890E-009  0.4614232E+02  0.7816164E-02  0.1320468E+00
        -11   -1    0    0    0    0  0.00000000000E+00  0.00000000000E+00  0.45593999997E+02  0.45594000000E+02  0.51100000000E-03 0. -1.
         11   -1    0    0    0    0 -0.00000000000E+00 -0.00000000000E+00 -0.45593999997E+02  0.45594000000E+02  0.51100000000E-03 0.  1.
    9900012    2    1    2    0    0 -0.36307469669E+02  0.79151992522E+01 -0.25460375506E+02  0.46142318143E+02  0.10000003487E+02 0.  0.
         12    1    1    2    0    0  0.36307469669E+02 -0.79151992522E+01  0.25460375506E+02  0.45045681857E+02  0.00000000000E+00 0. -1.
         11    1    3    3    0    0 -0.85184720547E+00  0.46425546972E+00 -0.31207826173E+01  0.32680974907E+01  0.51100000000E-03 0. -1.
        -11    1    3    3    0    0 -0.10205018372E+02  0.40747368564E+01 -0.51025255146E+01  0.12115347594E+02  0.51100000000E-03 0.  1.
        -12    1    3    3    0    0 -0.25250604092E+02  0.33762069261E+01 -0.17237067374E+02  0.30758873059E+02  0.00000000000E+00 0.  1.
</event>
<event>
 7    1  0.5743890E-009  0.4614232E+02  0.7816164E-02  0.1320468E+00
        -11   -1    0    0    0    0  0.00000000000E+00  0.00000000000E+00  0.45593999997E+02  0.45594000000E+02  0.51100000000E-03 0. -1.
         11   -1    0    0    0    0 -0.00000000000E+00 -0.00000000000E+00 -0.45593999997E+02  0.45594000000E+02  0.51100000000E-03 0.  1.
    9900012    2    1    2    0    0 -0.26415874644E+02 -0.26087121689E+02  0.25510335400E+02  0.46142316928E+02  0.99999924070E+01 0.  0.
        -12    1    1    2    0    0  0.26415874644E+02  0.26087121689E+02 -0.25510335400E+02  0.45045683072E+02  0.00000000000E+00 0.  1.
         11    1    3    3    0    0 -0.87217388084E+01 -0.93151255372E+01  0.10333527910E+02  0.16420173292E+02  0.51100000000E-03 0. -1.
        -11    1    3    3    0    0 -0.29711577504E+01 -0.17170383965E+00  0.26410190098E+00  0.29878103456E+01  0.51100000000E-03 0.  1.
        -12    1    3    3    0    0 -0.14722978085E+02 -0.16600292312E+02  0.14912705588E+02  0.26734333291E+02  0.00000000000E+00 0.  1.
</event>
<event>
 7    1  0.5743890E-009  0.4614232E+02  0.7816164E-02  0.1320468E+00
        -11   -1    0    0    0    0  0.00000000000E+00  0.00000000000E+00  0.45593999997E+02  0.45594000000E+02  0.51100000000E-03 0. -1.
         11   -1    0    0    0    0 -0.00000000000E+00 -0.00000000000E+00 -0.45593999997E+02  0.45594000000E+02  0.51100000000E-03 0.  1.
    9900012    2    1    2    0    0 -0.13865847165E+02 -0.42771139334E+02  0.27352134921E+01  0.46142317961E+02  0.10000001823E+02 0.  0.
         12    1    1    2    0    0  0.13865847165E+02  0.42771139334E+02 -0.27352134921E+01  0.45045682039E+02  0.00000000000E+00 0. -1.
         11    1    3    3    0    0  0.14160957527E+01 -0.45797605231E+01 -0.43883527615E+00  0.48137418180E+01  0.51100000000E-03 0. -1.
        -11    1    3    3    0    0 -0.68803370771E+01 -0.16142777334E+02  0.21973060316E+00  0.17549261528E+02  0.51100000000E-03 0.  1.
         12    1    3    3    0    0 -0.84016058404E+01 -0.22048601476E+02  0.29543181650E+01  0.23779314615E+02  0.00000000000E+00 0. -1.
</event>
<event>
 7    1  0.5743890E-009  0.4614231E+02  0.7816164E-02  0.1320468E+00
        -11   -1    0    0    0    0  0.00000000000E+00  0.00000000000E+00  0.45593999997E+02  0.45594000000E+02  0.51100000000E-03 0. -1.
         11   -1    0    0    0    0 -0.00000000000E+00 -0.00000000000E+00 -0.45593999997E+02  0.45594000000E+02  0.51100000000E-03 0.  1.
    9900012    2    1    2    0    0 -0.24492655549E+02  0.22692390655E+02  0.30237049845E+02  0.46142312606E+02  0.99999529938E+01 0.  0.
        -12    1    1    2    0    0  0.24492655549E+02 -0.22692390655E+02 -0.30237049845E+02  0.45045687394E+02  0.00000000000E+00 0.  1.
         11    1    3    3    0    0 -0.11382510409E+02  0.10966259597E+02  0.17212989192E+02  0.23368940711E+02  0.51100000000E-03 0. -1.
        -11    1    3    3    0    0 -0.67482229261E+01  0.85762610778E+01  0.48360169725E+01  0.11936407632E+02  0.51100000000E-03 0.  1.
        -12    1    3    3    0    0 -0.63619222137E+01  0.31498699809E+01  0.81880436797E+01  0.10836964264E+02  0.00000000000E+00 0.  1.
</event>
<event>
 7    1  0.5743890E-009  0.4614232E+02  0.7816164E-02  0.1320468E+00
        -11   -1    0    0    0    0  0.00000000000E+00  0.00000000000E+00  0.45593999997E+02  0.45594000000E+02  0.51100000000E-03 0. -1.
         11   -1    0    0    0    0 -0.00000000000E+00 -0.00000000000E+00 -0.45593999997E+02  0.45594000000E+02  0.51100000000E-03 0.  1.
    9900012    2    1    2    0    0 -0.35995611928E+02 -0.25699405815E+02  0.85422442198E+01  0.46142317925E+02  0.10000001492E+02 0.  0.
        -12    1    1    2    0    0  0.35995611928E+02  0.25699405815E+02 -0.85422442198E+01  0.45045682075E+02  0.00000000000E+00 0.  1.
         11    1    3    3    0    0 -0.57693090321E+01 -0.44344364947E+01  0.62937423467E+00  0.73037843561E+01  0.51100000000E-03 0. -1.
        -11    1    3    3    0    0 -0.24681681778E+02 -0.17615794022E+02  0.99188683533E+01  0.31904318894E+02  0.51100000000E-03 0.  1.
        -12    1    3    3    0    0 -0.55446211182E+01 -0.36491752978E+01 -0.20059983682E+01  0.69342146745E+01  0.00000000000E+00 0.  1.
</event>
<event>
 7    1  0.5743890E-009  0.4614232E+02  0.7816164E-02  0.1320468E+00
        -11   -1    0    0    0    0  0.00000000000E+00  0.00000000000E+00  0.45593999997E+02  0.45594000000E+02  0.51100000000E-03 0. -1.
         11   -1    0    0    0    0 -0.00000000000E+00 -0.00000000000E+00 -0.45593999997E+02  0.45594000000E+02  0.51100000000E-03 0.  1.
    9900012    2    1    2    0    0 -0.27313575819E+01  0.31978464828E+02  0.31607450424E+02  0.46142318195E+02  0.10000003955E+02 0.  0.
        -12    1    1    2    0    0  0.27313575819E+01 -0.31978464828E+02 -0.31607450424E+02  0.45045681805E+02  0.00000000000E+00 0.  1.
         11    1    3    3    0    0  0.48391994370E+00  0.15049451362E+02  0.89502900286E+01  0.17516502410E+02  0.51100000000E-03 0. -1.
        -11    1    3    3    0    0  0.99321079234E-02 -0.11947832134E+00  0.55363119236E-01  0.13205700333E+00  0.51100000000E-03 0.  1.
         12    1    3    3    0    0 -0.32252096335E+01  0.17048491787E+02  0.22601797276E+02  0.28493758782E+02  0.00000000000E+00 0. -1.
</event>
<event>
 7    1  0.5743890E-009  0.4614232E+02  0.7816164E-02  0.1320468E+00
        -11   -1    0    0    0    0  0.00000000000E+00  0.00000000000E+00  0.45593999997E+02  0.45594000000E+02  0.51100000000E-03 0. -1.
         11   -1    0    0    0    0 -0.00000000000E+00 -0.00000000000E+00 -0.45593999997E+02  0.45594000000E+02  0.51100000000E-03 0.  1.
    9900012    2    1    2    0    0  0.99228075229E+01  0.95819917454E+01  0.42881658788E+02  0.46142319460E+02  0.10000015491E+02 0.  0.
        -12    1    1    2    0    0 -0.99228075229E+01 -0.95819917454E+01 -0.42881658788E+02  0.45045680540E+02  0.00000000000E+00 0.  1.
         11    1    3    3    0    0  0.21496135509E+01  0.24034036448E+00  0.17828172190E+02  0.17958906587E+02  0.51100000000E-03 0. -1.
        -11    1    3    3    0    0  0.46100534308E+01  0.27466699705E+01  0.80638803006E+01  0.96862249780E+01  0.51100000000E-03 0.  1.
         12    1    3    3    0    0  0.31631405412E+01  0.65949814105E+01  0.16989606297E+02  0.18497187895E+02  0.00000000000E+00 0. -1.
</event>
<event>
 7    1  0.5743890E-009  0.4614232E+02  0.7816164E-02  0.1320468E+00
        -11   -1    0    0    0    0  0.00000000000E+00  0.00000000000E+00  0.45593999997E+02  0.45594000000E+02  0.51100000000E-03 0. -1.
         11   -1    0    0    0    0 -0.00000000000E+00 -0.00000000000E+00 -0.45593999997E+02  0.45594000000E+02  0.51100000000E-03 0.  1.
    9900012    2    1    2    0    0 -0.22948217787E+01 -0.25970729902E+02 -0.36733750063E+02  0.46142318605E+02  0.10000007697E+02 0.  0.
         12    1    1    2    0    0  0.22948217787E+01  0.25970729902E+02  0.36733750063E+02  0.45045681395E+02  0.00000000000E+00 0. -1.
         11    1    3    3    0    0 -0.11217944241E+01 -0.33279319367E+01 -0.43244234339E+01  0.55708340491E+01  0.51100000000E-03 0. -1.
        -11    1    3    3    0    0 -0.57183358140E+00 -0.40945908989E+01 -0.13325561163E+02  0.13952177208E+02  0.51100000000E-03 0.  1.
         12    1    3    3    0    0 -0.60119377314E+00 -0.18548207066E+02 -0.19083765466E+02  0.26619307348E+02  0.00000000000E+00 0. -1.
</event>
<event>
 7    1  0.5743890E-009  0.4614232E+02  0.7816164E-02  0.1320468E+00
        -11   -1    0    0    0    0  0.00000000000E+00  0.00000000000E+00  0.45593999997E+02  0.45594000000E+02  0.51100000000E-03 0. -1.
         11   -1    0    0    0    0 -0.00000000000E+00 -0.00000000000E+00 -0.45593999997E+02  0.45594000000E+02  0.51100000000E-03 0.  1.
    9900012    2    1    2    0    0 -0.37794276949E+02 -0.77989403770E+01  0.23235374758E+02  0.46142317840E+02  0.10000000717E+02 0.  0.
        -12    1    1    2    0    0  0.37794276949E+02  0.77989403770E+01 -0.23235374758E+02  0.45045682160E+02  0.00000000000E+00 0.  1.
         11    1    3    3    0    0 -0.25060583920E+02 -0.29180587340E+01  0.13512966622E+02  0.28620765195E+02  0.51100000000E-03 0. -1.
        -11    1    3    3    0    0 -0.93666115203E+01 -0.32926277872E+01  0.40199649487E+01  0.10711439099E+02  0.51100000000E-03 0.  1.
        -12    1    3    3    0    0 -0.33670815095E+01 -0.15882538558E+01  0.57024431871E+01  0.68101135456E+01  0.00000000000E+00 0.  1.
</event>
<event>
 7    1  0.5743890E-009  0.4614231E+02  0.7816164E-02  0.1320468E+00
        -11   -1    0    0    0    0  0.00000000000E+00  0.00000000000E+00  0.45593999997E+02  0.45594000000E+02  0.51100000000E-03 0. -1.
         11   -1    0    0    0    0 -0.00000000000E+00 -0.00000000000E+00 -0.45593999997E+02  0.45594000000E+02  0.51100000000E-03 0.  1.
    9900012    2    1    2    0    0 -0.38694439953E+02 -0.96657988395E+01 -0.20938638256E+02  0.46142312943E+02  0.99999560617E+01 0.  0.
         12    1    1    2    0    0  0.38694439953E+02  0.96657988395E+01  0.20938638256E+02  0.45045687057E+02  0.00000000000E+00 0. -1.
         11    1    3    3    0    0 -0.80697875137E+01 -0.29553272015E+01 -0.19641378271E+01  0.88155128636E+01  0.51100000000E-03 0.  1.
        -11    1    3    3    0    0 -0.11639659896E+02 -0.58988003043E+01 -0.91290507817E+01  0.15925360151E+02  0.51100000000E-03 0. -1.
        -12    1    3    3    0    0 -0.18984992543E+02 -0.81167133372E+00 -0.98454496469E+01  0.21401439928E+02  0.00000000000E+00 0.  1.
</event>
<event>
 7    1  0.5743890E-009  0.4614232E+02  0.7816164E-02  0.1320468E+00
        -11   -1    0    0    0    0  0.00000000000E+00  0.00000000000E+00  0.45593999997E+02  0.45594000000E+02  0.51100000000E-03 0. -1.
         11   -1    0    0    0    0 -0.00000000000E+00 -0.00000000000E+00 -0.45593999997E+02  0.45594000000E+02  0.51100000000E-03 0.  1.
    9900012    2    1    2    0    0  0.39517712198E+01 -0.13403744227E+02 -0.42823319538E+02  0.46142317062E+02  0.99999936241E+01 0.  0.
         12    1    1    2    0    0 -0.39517712198E+01  0.13403744227E+02  0.42823319538E+02  0.45045682938E+02  0.00000000000E+00 0. -1.
         11    1    3    3    0    0  0.48062341170E+01 -0.92507991555E+01 -0.20410184267E+02  0.22918394217E+02  0.51100000000E-03 0. -1.
        -11    1    3    3    0    0  0.10799794282E+01 -0.61147572411E+00 -0.11873423527E+02  0.11938108922E+02  0.51100000000E-03 0.  1.
         12    1    3    3    0    0 -0.19344423254E+01 -0.35414693470E+01 -0.10539711745E+02  0.11285813923E+02  0.00000000000E+00 0. -1.
</event>
<event>
 7    1  0.7162554E-009  0.4614232E+02  0.7816164E-02  0.1320468E+00
        -11   -1    0    0    0    0  0.00000000000E+00  0.00000000000E+00  0.45593999997E+02  0.45594000000E+02  0.51100000000E-03 0. -1.
         11   -1    0    0    0    0 -0.00000000000E+00 -0.00000000000E+00 -0.45593999997E+02  0.45594000000E+02  0.51100000000E-03 0.  1.
    9900012    2    1    2    0    0  0.14808565301E+02 -0.20217194865E+01  0.42493911531E+02  0.46142317930E+02  0.10000001542E+02 0.  0.
        -12    1    1    2    0    0 -0.14808565301E+02  0.20217194865E+01 -0.42493911531E+02  0.45045682070E+02  0.00000000000E+00 0.  1.
         11    1    3    3    0    0  0.29750766435E+01 -0.57244247141E+00  0.12143330610E+02  0.12515560315E+02  0.51100000000E-03 0. -1.
        -11    1    3    3    0    0  0.13038337756E+02 -0.89393572629E+00  0.28458920280E+02  0.31316250036E+02  0.51100000000E-03 0.  1.
        -12    1    3    3    0    0 -0.12048490989E+01 -0.55534128881E+00  0.18916606402E+01  0.23105075797E+01  0.00000000000E+00 0.  1.
</event>
<event>
 7    1  0.5743890E-009  0.4614232E+02  0.7816164E-02  0.1320468E+00
        -11   -1    0    0    0    0  0.00000000000E+00  0.00000000000E+00  0.45593999997E+02  0.45594000000E+02  0.51100000000E-03 0. -1.
         11   -1    0    0    0    0 -0.00000000000E+00 -0.00000000000E+00 -0.45593999997E+02  0.45594000000E+02  0.51100000000E-03 0.  1.
    9900012    2    1    2    0    0  0.18191196775E+02  0.72727682036E+01 -0.40562307783E+02  0.46142316410E+02  0.99999876770E+01 0.  0.
         12    1    1    2    0    0 -0.18191196775E+02 -0.72727682036E+01  0.40562307783E+02  0.45045683590E+02  0.00000000000E+00 0. -1.
         11    1    3    3    0    0  0.56423175198E+00  0.21451669933E+01 -0.37947885519E+01  0.43955112687E+01  0.51100000000E-03 0. -1.
        -11    1    3    3    0    0  0.90260409738E+01  0.55143815959E+01 -0.25175952197E+02  0.27307625113E+02  0.51100000000E-03 0.  1.
         12    1    3    3    0    0  0.86009240494E+01 -0.38678038567E+00 -0.11591567034E+02  0.14439180028E+02  0.00000000000E+00 0. -1.
</event>
<event>
 7    1  0.5743890E-009  0.4614232E+02  0.7816164E-02  0.1320468E+00
        -11   -1    0    0    0    0  0.00000000000E+00  0.00000000000E+00  0.45593999997E+02  0.45594000000E+02  0.51100000000E-03 0. -1.
         11   -1    0    0    0    0 -0.00000000000E+00 -0.00000000000E+00 -0.45593999997E+02  0.45594000000E+02  0.51100000000E-03 0.  1.
    9900012    2    1    2    0    0  0.41481457965E+02  0.54806117246E+00 -0.17552827344E+02  0.46142317924E+02  0.10000001481E+02 0.  0.
         12    1    1    2    0    0 -0.41481457965E+02 -0.54806117246E+00  0.17552827344E+02  0.45045682076E+02  0.00000000000E+00 0. -1.
         11    1    3    3    0    0  0.25441919267E+02  0.17324703418E+01 -0.12639513774E+02  0.28461377658E+02  0.51100000000E-03 0.  1.
        -11    1    3    3    0    0  0.62131048460E+01  0.90430413971E+00  0.44678997588E+00  0.62944467070E+01  0.51100000000E-03 0. -1.
        -12    1    3    3    0    0  0.98264338518E+01 -0.20887133090E+01 -0.53601035458E+01  0.11386493558E+02  0.00000000000E+00 0.  1.
</event>
<event>
 7    1  0.5743890E-009  0.4614232E+02  0.7816164E-02  0.1320468E+00
        -11   -1    0    0    0    0  0.00000000000E+00  0.00000000000E+00  0.45593999997E+02  0.45594000000E+02  0.51100000000E-03 0. -1.
         11   -1    0    0    0    0 -0.00000000000E+00 -0.00000000000E+00 -0.45593999997E+02  0.45594000000E+02  0.51100000000E-03 0.  1.
    9900012    2    1    2    0    0 -0.35496971529E+02  0.14142380193E+02 -0.23855221309E+02  0.46142317755E+02  0.99999999465E+01 0.  0.
         12    1    1    2    0    0  0.35496971529E+02 -0.14142380193E+02  0.23855221309E+02  0.45045682245E+02  0.00000000000E+00 0. -1.
         11    1    3    3    0    0 -0.31112380536E+01  0.43481763122E+00 -0.42001937120E+01  0.52450449072E+01  0.51100000000E-03 0. -1.
        -11    1    3    3    0    0 -0.18520830304E+02  0.41106421207E+01 -0.95596500082E+01  0.21243950724E+02  0.51100000000E-03 0.  1.
         12    1    3    3    0    0 -0.13864903171E+02  0.95969204406E+01 -0.10095377589E+02  0.19653322124E+02  0.00000000000E+00 0. -1.
</event>
<event>
 7    1  0.5743890E-009  0.4614232E+02  0.7816164E-02  0.1320468E+00
        -11   -1    0    0    0    0  0.00000000000E+00  0.00000000000E+00  0.45593999997E+02  0.45594000000E+02  0.51100000000E-03 0. -1.
         11   -1    0    0    0    0 -0.00000000000E+00 -0.00000000000E+00 -0.45593999997E+02  0.45594000000E+02  0.51100000000E-03 0.  1.
    9900012    2    1    2    0    0 -0.15997911694E+02 -0.21657541457E+02 -0.36112754350E+02  0.46142319772E+02  0.10000018333E+02 0.  0.
         12    1    1    2    0    0  0.15997911694E+02  0.21657541457E+02  0.36112754350E+02  0.45045680228E+02  0.00000000000E+00 0. -1.
         11    1    3    3    0    0  0.51984199027E+00 -0.13321023126E+01 -0.28004795930E+00  0.14571065117E+01  0.51100000000E-03 0. -1.
        -11    1    3    3    0    0 -0.10341132984E+02 -0.10086403346E+02 -0.16271350660E+02  0.21758479184E+02  0.51100000000E-03 0.  1.
        -12    1    3    3    0    0 -0.61766206999E+01 -0.10239035798E+02 -0.19561355731E+02  0.22926734075E+02  0.00000000000E+00 0.  1.
</event>
<event>
 7    1  0.7348606E-009  0.4614232E+02  0.7816164E-02  0.1320468E+00
        -11   -1    0    0    0    0  0.00000000000E+00  0.00000000000E+00  0.45593999997E+02  0.45594000000E+02  0.51100000000E-03 0. -1.
         11   -1    0    0    0    0 -0.00000000000E+00 -0.00000000000E+00 -0.45593999997E+02  0.45594000000E+02  0.51100000000E-03 0.  1.
    9900012    2    1    2    0    0 -0.87208640075E+01  0.15028366680E+02  0.41559694447E+02  0.46142317892E+02  0.10000001189E+02 0.  0.
        -12    1    1    2    0    0  0.87208640075E+01 -0.15028366680E+02 -0.41559694447E+02  0.45045682108E+02  0.00000000000E+00 0.  1.
         11    1    3    3    0    0 -0.21726069506E+01  0.65954201583E+01  0.17871307789E+02  0.19172986997E+02  0.51100000000E-03 0. -1.
        -11    1    3    3    0    0 -0.12188233104E+01  0.70695049230E+01  0.15798954152E+02  0.17351379849E+02  0.51100000000E-03 0.  1.
        -12    1    3    3    0    0 -0.53294337464E+01  0.13634415991E+01  0.78894325058E+01  0.96179510456E+01  0.00000000000E+00 0.  1.
</event>
<event>
 7    1  0.5743890E-009  0.4614232E+02  0.7816164E-02  0.1320468E+00
        -11   -1    0    0    0    0  0.00000000000E+00  0.00000000000E+00  0.45593999997E+02  0.45594000000E+02  0.51100000000E-03 0. -1.
         11   -1    0    0    0    0 -0.00000000000E+00 -0.00000000000E+00 -0.45593999997E+02  0.45594000000E+02  0.51100000000E-03 0.  1.
    9900012    2    1    2    0    0 -0.12490275426E+02  0.24840427507E+02  0.35440932794E+02  0.46142317229E+02  0.99999951477E+01 0.  0.
        -12    1    1    2    0    0  0.12490275426E+02 -0.24840427507E+02 -0.35440932794E+02  0.45045682771E+02  0.00000000000E+00 0.  1.
         11    1    3    3    0    0 -0.11629608477E+02  0.14142405497E+02  0.18317234065E+02  0.25899353093E+02  0.51100000000E-03 0. -1.
        -11    1    3    3    0    0  0.20551887213E-01  0.65161232715E+01  0.10675823635E+02  0.12507337663E+02  0.51100000000E-03 0.  1.
         12    1    3    3    0    0 -0.88121883611E+00  0.41818987389E+01  0.64478750939E+01  0.77356264727E+01  0.00000000000E+00 0. -1.
</event>
<event>
 7    1  0.5743890E-009  0.4614232E+02  0.7816164E-02  0.1320468E+00
        -11   -1    0    0    0    0  0.00000000000E+00  0.00000000000E+00  0.45593999997E+02  0.45594000000E+02  0.51100000000E-03 0. -1.
         11   -1    0    0    0    0 -0.00000000000E+00 -0.00000000000E+00 -0.45593999997E+02  0.45594000000E+02  0.51100000000E-03 0.  1.
    9900012    2    1    2    0    0  0.11901186851E+01 -0.23444940608E+02 -0.38445180902E+02  0.46142316997E+02  0.99999930305E+01 0.  0.
         12    1    1    2    0    0 -0.11901186851E+01  0.23444940608E+02  0.38445180902E+02  0.45045683003E+02  0.00000000000E+00 0. -1.
         11    1    3    3    0    0  0.10619337021E+01 -0.75054420623E+01 -0.78479088399E+01  0.10910959498E+02  0.51100000000E-03 0. -1.
        -11    1    3    3    0    0 -0.13197489951E+01  0.28842362545E-01 -0.35659298375E+01  0.38024235902E+01  0.51100000000E-03 0.  1.
         12    1    3    3    0    0  0.14479339781E+01 -0.15968340908E+02 -0.27031342225E+02  0.31428933909E+02  0.00000000000E+00 0. -1.
</event>
<event>
 7    1  0.5743890E-009  0.4614233E+02  0.7816164E-02  0.1320468E+00
        -11   -1    0    0    0    0  0.00000000000E+00  0.00000000000E+00  0.45593999997E+02  0.45594000000E+02  0.51100000000E-03 0. -1.
         11   -1    0    0    0    0 -0.00000000000E+00 -0.00000000000E+00 -0.45593999997E+02  0.45594000000E+02  0.51100000000E-03 0.  1.
    9900012    2    1    2    0    0  0.13292778914E+02  0.67717741028E+01 -0.42503616341E+02  0.46142330976E+02  0.10000120502E+02 0.  0.
         12    1    1    2    0    0 -0.13292778914E+02 -0.67717741028E+01  0.42503616341E+02  0.45045669024E+02  0.00000000000E+00 0. -1.
         11    1    3    3    0    0  0.43032095536E+01 -0.22555501854E+00 -0.64585844987E+01  0.77641355937E+01  0.51100000000E-03 0. -1.
        -11    1    3    3    0    0  0.40108436558E+01  0.21069090307E+01 -0.59162293561E+01  0.74516912543E+01  0.51100000000E-03 0.  1.
         12    1    3    3    0    0  0.49787257041E+01  0.48904200907E+01 -0.30128802486E+02  0.30926504128E+02  0.00000000000E+00 0. -1.
</event>
<event>
 7    1  0.5743890E-009  0.4614232E+02  0.7816164E-02  0.1320468E+00
        -11   -1    0    0    0    0  0.00000000000E+00  0.00000000000E+00  0.45593999997E+02  0.45594000000E+02  0.51100000000E-03 0. -1.
         11   -1    0    0    0    0 -0.00000000000E+00 -0.00000000000E+00 -0.45593999997E+02  0.45594000000E+02  0.51100000000E-03 0.  1.
    9900012    2    1    2    0    0 -0.42092735909E+02 -0.62107602718E+01  0.14789907435E+02  0.46142319614E+02  0.10000016899E+02 0.  0.
        -12    1    1    2    0    0  0.42092735909E+02  0.62107602718E+01 -0.14789907435E+02  0.45045680386E+02  0.00000000000E+00 0.  1.
         11    1    3    3    0    0 -0.96621032987E+00  0.98409742530E+00  0.90353507401E+00  0.16487528727E+01  0.51100000000E-03 0. -1.
        -11    1    3    3    0    0 -0.10057810069E+01 -0.10178153747E+01  0.14514794163E+01  0.20382189107E+01  0.51100000000E-03 0.  1.
         12    1    3    3    0    0 -0.40120744572E+02 -0.61770423224E+01  0.12434892945E+02  0.42455347831E+02  0.00000000000E+00 0. -1.
</event>
<event>
 7    1  0.5743890E-009  0.4614232E+02  0.7816164E-02  0.1320468E+00
        -11   -1    0    0    0    0  0.00000000000E+00  0.00000000000E+00  0.45593999997E+02  0.45594000000E+02  0.51100000000E-03 0. -1.
         11   -1    0    0    0    0 -0.00000000000E+00 -0.00000000000E+00 -0.45593999997E+02  0.45594000000E+02  0.51100000000E-03 0.  1.
    9900012    2    1    2    0    0  0.93733125578E-01 -0.71109949932E+01  0.44480764966E+02  0.46142317769E+02  0.10000000076E+02 0.  0.
        -12    1    1    2    0    0 -0.93733125578E-01  0.71109949932E+01 -0.44480764966E+02  0.45045682231E+02  0.00000000000E+00 0.  1.
         11    1    3    3    0    0  0.37781969535E+01 -0.69314257141E+01  0.34602981827E+02  0.35492052438E+02  0.51100000000E-03 0. -1.
        -11    1    3    3    0    0 -0.15615505244E+01 -0.24203981325E+00  0.62486141566E+01  0.64453240765E+01  0.51100000000E-03 0.  1.
         12    1    3    3    0    0 -0.21229133035E+01  0.62470534096E-01  0.36291689819E+01  0.42049412554E+01  0.00000000000E+00 0. -1.
</event>
<event>
 7    1  0.5743890E-009  0.4614232E+02  0.7816164E-02  0.1320468E+00
        -11   -1    0    0    0    0  0.00000000000E+00  0.00000000000E+00  0.45593999997E+02  0.45594000000E+02  0.51100000000E-03 0.  1.
         11   -1    0    0    0    0 -0.00000000000E+00 -0.00000000000E+00 -0.45593999997E+02  0.45594000000E+02  0.51100000000E-03 0. -1.
    9900012    2    1    2    0    0  0.27311927516E+02 -0.31825718690E+02 -0.16440664144E+02  0.46142321048E+02  0.10000029971E+02 0.  0.
         12    1    1    2    0    0 -0.27311927516E+02  0.31825718690E+02  0.16440664144E+02  0.45045678952E+02  0.00000000000E+00 0. -1.
         11    1    3    3    0    0  0.41267353486E+01 -0.87308560990E+01 -0.59859601750E+01  0.11361756569E+02  0.51100000000E-03 0. -1.
        -11    1    3    3    0    0  0.11109475341E+01 -0.32203500821E+01 -0.17416324337E+01  0.38259826018E+01  0.51100000000E-03 0.  1.
        -12    1    3    3    0    0  0.22074244633E+02 -0.19874512509E+02 -0.87130715358E+01  0.30954581877E+02  0.00000000000E+00 0.  1.
</event>
<event>
 7    1  0.5743890E-009  0.4614232E+02  0.7816164E-02  0.1320468E+00
        -11   -1    0    0    0    0  0.00000000000E+00  0.00000000000E+00  0.45593999997E+02  0.45594000000E+02  0.51100000000E-03 0. -1.
         11   -1    0    0    0    0 -0.00000000000E+00 -0.00000000000E+00 -0.45593999997E+02  0.45594000000E+02  0.51100000000E-03 0.  1.
    9900012    2    1    2    0    0 -0.95524870502E+01  0.16717566107E+02 -0.40723290267E+02  0.46142318791E+02  0.10000009395E+02 0.  0.
         12    1    1    2    0    0  0.95524870502E+01 -0.16717566107E+02  0.40723290267E+02  0.45045681209E+02  0.00000000000E+00 0. -1.
         11    1    3    3    0    0 -0.32830409351E+01  0.74020389109E+01 -0.13397960627E+02  0.15654835899E+02  0.51100000000E-03 0. -1.
        -11    1    3    3    0    0 -0.55302135436E+01  0.21831745148E+01 -0.87752805300E+01  0.10599767047E+02  0.51100000000E-03 0.  1.
         12    1    3    3    0    0 -0.73923257153E+00  0.71323526817E+01 -0.18550049110E+02  0.19887715846E+02  0.00000000000E+00 0. -1.
</event>
<event>
 7    1  0.5743890E-009  0.4614232E+02  0.7816164E-02  0.1320468E+00
        -11   -1    0    0    0    0  0.00000000000E+00  0.00000000000E+00  0.45593999997E+02  0.45594000000E+02  0.51100000000E-03 0.  1.
         11   -1    0    0    0    0 -0.00000000000E+00 -0.00000000000E+00 -0.45593999997E+02  0.45594000000E+02  0.51100000000E-03 0. -1.
    9900012    2    1    2    0    0  0.38718704296E+02  0.10801993013E+02 -0.20329594636E+02  0.46142317261E+02  0.99999954358E+01 0.  0.
         12    1    1    2    0    0 -0.38718704296E+02 -0.10801993013E+02  0.20329594636E+02  0.45045682739E+02  0.00000000000E+00 0. -1.
         11    1    3    3    0    0  0.13914840121E+02  0.67660423830E+01 -0.98832123004E+01  0.18359738308E+02  0.51100000000E-03 0. -1.
        -11    1    3    3    0    0  0.23315663079E+02  0.38102196712E+01 -0.11146559366E+02  0.26122475088E+02  0.51100000000E-03 0.  1.
         12    1    3    3    0    0  0.14882010958E+01  0.22573095878E+00  0.70017702995E+00  0.16601038644E+01  0.00000000000E+00 0. -1.
</event>
<event>
 7    1  0.5743890E-009  0.4614232E+02  0.7816164E-02  0.1320468E+00
        -11   -1    0    0    0    0  0.00000000000E+00  0.00000000000E+00  0.45593999997E+02  0.45594000000E+02  0.51100000000E-03 0. -1.
         11   -1    0    0    0    0 -0.00000000000E+00 -0.00000000000E+00 -0.45593999997E+02  0.45594000000E+02  0.51100000000E-03 0.  1.
    9900012    2    1    2    0    0  0.24310286956E+02 -0.20493122083E+01 -0.37867186399E+02  0.46142317208E+02  0.99999949532E+01 0.  0.
         12    1    1    2    0    0 -0.24310286956E+02  0.20493122083E+01  0.37867186399E+02  0.45045682792E+02  0.00000000000E+00 0. -1.
         11    1    3    3    0    0 -0.32726579468E+00 -0.26001318269E+00 -0.27129825864E+00  0.49830990538E+00  0.51100000000E-03 0. -1.
        -11    1    3    3    0    0  0.26646263515E+01  0.56768716191E+00 -0.95881771994E+01  0.99677301616E+01  0.51100000000E-03 0.  1.
         12    1    3    3    0    0  0.21972926399E+02 -0.23569861875E+01 -0.28007710941E+02  0.35676277141E+02  0.00000000000E+00 0. -1.
</event>
<event>
 7    1  0.5743890E-009  0.4614232E+02  0.7816164E-02  0.1320468E+00
        -11   -1    0    0    0    0  0.00000000000E+00  0.00000000000E+00  0.45593999997E+02  0.45594000000E+02  0.51100000000E-03 0. -1.
         11   -1    0    0    0    0 -0.00000000000E+00 -0.00000000000E+00 -0.45593999997E+02  0.45594000000E+02  0.51100000000E-03 0.  1.
    9900012    2    1    2    0    0  0.16906231708E+02 -0.25122528892E+01 -0.41677108175E+02  0.46142318398E+02  0.10000005811E+02 0.  0.
         12    1    1    2    0    0 -0.16906231708E+02  0.25122528892E+01  0.41677108175E+02  0.45045681602E+02  0.00000000000E+00 0. -1.
         11    1    3    3    0    0  0.26177199437E+01 -0.32327077524E+00 -0.19684498388E+01  0.32911634305E+01  0.51100000000E-03 0. -1.
        -11    1    3    3    0    0  0.14497232687E+02 -0.24157596363E+01 -0.39877552545E+02  0.42499704087E+02  0.51100000000E-03 0.  1.
         12    1    3    3    0    0 -0.20872092204E+00  0.22677752238E+00  0.16889420937E+00  0.35145088122E+00  0.00000000000E+00 0. -1.
</event>
<event>
 7    1  0.5743890E-009  0.4614232E+02  0.7816164E-02  0.1320468E+00
        -11   -1    0    0    0    0  0.00000000000E+00  0.00000000000E+00  0.45593999997E+02  0.45594000000E+02  0.51100000000E-03 0. -1.
         11   -1    0    0    0    0 -0.00000000000E+00 -0.00000000000E+00 -0.45593999997E+02  0.45594000000E+02  0.51100000000E-03 0.  1.
    9900012    2    1    2    0    0 -0.17502670853E+02 -0.26050564103E+02 -0.32313125483E+02  0.46142318125E+02  0.10000003323E+02 0.  0.
         12    1    1    2    0    0  0.17502670853E+02  0.26050564103E+02  0.32313125483E+02  0.45045681875E+02  0.00000000000E+00 0. -1.
         11    1    3    3    0    0 -0.47509217329E+01 -0.74583507371E+01 -0.67855047401E+01  0.11146359400E+02  0.51100000000E-03 0.  1.
        -11    1    3    3    0    0 -0.11281577003E+02 -0.19201971349E+02 -0.23051924762E+02  0.32052783325E+02  0.51100000000E-03 0. -1.
         12    1    3    3    0    0 -0.14701721173E+01  0.60975798324E+00 -0.24756959807E+01  0.29431754011E+01  0.00000000000E+00 0. -1.
</event>
<event>
 7    1  0.5743890E-009  0.4614231E+02  0.7816164E-02  0.1320468E+00
        -11   -1    0    0    0    0  0.00000000000E+00  0.00000000000E+00  0.45593999997E+02  0.45594000000E+02  0.51100000000E-03 0. -1.
         11   -1    0    0    0    0 -0.00000000000E+00 -0.00000000000E+00 -0.45593999997E+02  0.45594000000E+02  0.51100000000E-03 0.  1.
    9900012    2    1    2    0    0 -0.11441206956E+02 -0.25731296352E+02  0.35158400172E+02  0.46142312846E+02  0.99999551776E+01 0.  0.
        -12    1    1    2    0    0  0.11441206956E+02  0.25731296352E+02 -0.35158400172E+02  0.45045687154E+02  0.00000000000E+00 0.  1.
         11    1    3    3    0    0 -0.24924715067E+01 -0.27920833431E+01  0.52729708797E+01  0.64662481986E+01  0.51100000000E-03 0. -1.
        -11    1    3    3    0    0 -0.79745774774E+01 -0.99465514457E+01  0.17877116395E+02  0.21957209806E+02  0.51100000000E-03 0.  1.
         12    1    3    3    0    0 -0.97415797231E+00 -0.12992661563E+02  0.12008312897E+02  0.17718854841E+02  0.00000000000E+00 0. -1.
</event>
<event>
 7    1  0.5743890E-009  0.4614232E+02  0.7816164E-02  0.1320468E+00
        -11   -1    0    0    0    0  0.00000000000E+00  0.00000000000E+00  0.45593999997E+02  0.45594000000E+02  0.51100000000E-03 0. -1.
         11   -1    0    0    0    0 -0.00000000000E+00 -0.00000000000E+00 -0.45593999997E+02  0.45594000000E+02  0.51100000000E-03 0.  1.
    9900012    2    1    2    0    0 -0.66949821763E+01  0.19292144220E+02 -0.40151013574E+02  0.46142317565E+02  0.99999982162E+01 0.  0.
         12    1    1    2    0    0  0.66949821763E+01 -0.19292144220E+02  0.40151013574E+02  0.45045682435E+02  0.00000000000E+00 0. -1.
         11    1    3    3    0    0  0.24446123682E+01  0.50327853205E+01 -0.11537703782E+02  0.12822779205E+02  0.51100000000E-03 0.  1.
        -11    1    3    3    0    0 -0.19459616517E+01  0.27334291603E+01 -0.41523144874E+01  0.53385501391E+01  0.51100000000E-03 0. -1.
        -12    1    3    3    0    0 -0.71936328928E+01  0.11525929739E+02 -0.24460995305E+02  0.27980988222E+02  0.00000000000E+00 0.  1.
</event>
<event>
 7    1  0.5743890E-009  0.4614232E+02  0.7816164E-02  0.1320468E+00
        -11   -1    0    0    0    0  0.00000000000E+00  0.00000000000E+00  0.45593999997E+02  0.45594000000E+02  0.51100000000E-03 0. -1.
         11   -1    0    0    0    0 -0.00000000000E+00 -0.00000000000E+00 -0.45593999997E+02  0.45594000000E+02  0.51100000000E-03 0.  1.
    9900012    2    1    2    0    0 -0.56134259774E+00 -0.37658074936E+02 -0.24711693313E+02  0.46142317634E+02  0.99999988443E+01 0.  0.
         12    1    1    2    0    0  0.56134259774E+00  0.37658074936E+02  0.24711693313E+02  0.45045682366E+02  0.00000000000E+00 0. -1.
         11    1    3    3    0    0  0.27326153001E+01 -0.10975340549E+02 -0.69293360441E+01  0.13264274757E+02  0.51100000000E-03 0.  1.
        -11    1    3    3    0    0  0.94132385036E+00 -0.26182101139E+01 -0.22803617424E+00  0.27916152224E+01  0.51100000000E-03 0. -1.
        -12    1    3    3    0    0 -0.42352817482E+01 -0.24064524273E+02 -0.17554321094E+02  0.30086427655E+02  0.00000000000E+00 0.  1.
</event>
<event>
 7    1  0.5743890E-009  0.4614232E+02  0.7816164E-02  0.1320468E+00
        -11   -1    0    0    0    0  0.00000000000E+00  0.00000000000E+00  0.45593999997E+02  0.45594000000E+02  0.51100000000E-03 0. -1.
         11   -1    0    0    0    0 -0.00000000000E+00 -0.00000000000E+00 -0.45593999997E+02  0.45594000000E+02  0.51100000000E-03 0.  1.
    9900012    2    1    2    0    0 -0.24689028671E+02 -0.26254644776E+02  0.27023303648E+02  0.46142318197E+02  0.10000003975E+02 0.  0.
        -12    1    1    2    0    0  0.24689028671E+02  0.26254644776E+02 -0.27023303648E+02  0.45045681803E+02  0.00000000000E+00 0.  1.
         11    1    3    3    0    0 -0.13435441920E+01 -0.65743314129E+00  0.11473262850E+01  0.18851225946E+01  0.51100000000E-03 0. -1.
        -11    1    3    3    0    0 -0.10087341838E+02 -0.46806310633E+01  0.87002988011E+01  0.14119418260E+02  0.51100000000E-03 0.  1.
         12    1    3    3    0    0 -0.13258142641E+02 -0.20916580572E+02  0.17175678562E+02  0.30137777343E+02  0.00000000000E+00 0. -1.
</event>
<event>
 7    1  0.5743890E-009  0.4614232E+02  0.7816164E-02  0.1320468E+00
        -11   -1    0    0    0    0  0.00000000000E+00  0.00000000000E+00  0.45593999997E+02  0.45594000000E+02  0.51100000000E-03 0. -1.
         11   -1    0    0    0    0 -0.00000000000E+00 -0.00000000000E+00 -0.45593999997E+02  0.45594000000E+02  0.51100000000E-03 0.  1.
    9900012    2    1    2    0    0  0.50322443864E+01 -0.16397162709E+01 -0.44733670750E+02  0.46142318168E+02  0.10000003707E+02 0.  0.
         12    1    1    2    0    0 -0.50322443864E+01  0.16397162709E+01  0.44733670750E+02  0.45045681832E+02  0.00000000000E+00 0. -1.
         11    1    3    3    0    0  0.35654257208E+01  0.23889472484E+01 -0.10842023698E+02  0.11660566352E+02  0.51100000000E-03 0. -1.
        -11    1    3    3    0    0 -0.10362395667E+01 -0.29955335916E+01 -0.11565560237E+02  0.11992047273E+02  0.51100000000E-03 0.  1.
        -12    1    3    3    0    0  0.25030582323E+01 -0.10331299278E+01 -0.22326086814E+02  0.22489704542E+02  0.00000000000E+00 0.  1.
</event>
<event>
 7    1  0.5743890E-009  0.4614232E+02  0.7816164E-02  0.1320468E+00
        -11   -1    0    0    0    0  0.00000000000E+00  0.00000000000E+00  0.45593999997E+02  0.45594000000E+02  0.51100000000E-03 0. -1.
         11   -1    0    0    0    0 -0.00000000000E+00 -0.00000000000E+00 -0.45593999997E+02  0.45594000000E+02  0.51100000000E-03 0.  1.
    9900012    2    1    2    0    0 -0.16776165986E+02 -0.34515295093E+02  0.23587457508E+02  0.46142317718E+02  0.99999996074E+01 0.  0.
        -12    1    1    2    0    0  0.16776165986E+02  0.34515295093E+02 -0.23587457508E+02  0.45045682282E+02  0.00000000000E+00 0.  1.
         11    1    3    3    0    0 -0.23648336666E+01 -0.44344230786E+01  0.17271377652E+01  0.53140898968E+01  0.51100000000E-03 0. -1.
        -11    1    3    3    0    0 -0.80291203303E+01 -0.88400307808E+01  0.10536170743E+02  0.15925571000E+02  0.51100000000E-03 0.  1.
        -12    1    3    3    0    0 -0.63822119888E+01 -0.21240841234E+02  0.11324149000E+02  0.24902656821E+02  0.00000000000E+00 0.  1.
</event>
<event>
 7    1  0.6951822E-009  0.4614232E+02  0.7816164E-02  0.1320468E+00
        -11   -1    0    0    0    0  0.00000000000E+00  0.00000000000E+00  0.45593999997E+02  0.45594000000E+02  0.51100000000E-03 0. -1.
         11   -1    0    0    0    0 -0.00000000000E+00 -0.00000000000E+00 -0.45593999997E+02  0.45594000000E+02  0.51100000000E-03 0.  1.
    9900012    2    1    2    0    0  0.15204698358E+02  0.62971748058E+00  0.42397335967E+02  0.46142317706E+02  0.99999994956E+01 0.  0.
        -12    1    1    2    0    0 -0.15204698358E+02 -0.62971748058E+00 -0.42397335967E+02  0.45045682294E+02  0.00000000000E+00 0.  1.
         11    1    3    3    0    0  0.71357597748E+01  0.19853205627E+01  0.13078510920E+02  0.15030236640E+02  0.51100000000E-03 0. -1.
        -11    1    3    3    0    0  0.19331060406E+01  0.18783818734E+01  0.37433394849E+01  0.46127874638E+01  0.51100000000E-03 0.  1.
         12    1    3    3    0    0  0.61358325423E+01 -0.32339849555E+01  0.25575485562E+02  0.26499293602E+02  0.00000000000E+00 0. -1.
</event>
<event>
 7    1  0.5743890E-009  0.4614231E+02  0.7816164E-02  0.1320468E+00
        -11   -1    0    0    0    0  0.00000000000E+00  0.00000000000E+00  0.45593999997E+02  0.45594000000E+02  0.51100000000E-03 0. -1.
         11   -1    0    0    0    0 -0.00000000000E+00 -0.00000000000E+00 -0.45593999997E+02  0.45594000000E+02  0.51100000000E-03 0.  1.
    9900012    2    1    2    0    0  0.35256992247E+02  0.21363649461E+02  0.18156350994E+02  0.46142310950E+02  0.99999378898E+01 0.  0.
        -12    1    1    2    0    0 -0.35256992247E+02 -0.21363649461E+02 -0.18156350994E+02  0.45045689050E+02  0.00000000000E+00 0.  1.
         11    1    3    3    0    0  0.60413095901E+00  0.13775890946E+01 -0.48927210647E+00  0.15818069997E+01  0.51100000000E-03 0. -1.
        -11    1    3    3    0    0  0.49135567083E+01  0.15528844573E+01  0.58716177975E+00  0.51864485807E+01  0.51100000000E-03 0.  1.
         12    1    3    3    0    0  0.29739304579E+02  0.18433175910E+02  0.18058461321E+02  0.39374055369E+02  0.00000000000E+00 0. -1.
</event>
<event>
 7    1  0.5743890E-009  0.4614232E+02  0.7816164E-02  0.1320468E+00
        -11   -1    0    0    0    0  0.00000000000E+00  0.00000000000E+00  0.45593999997E+02  0.45594000000E+02  0.51100000000E-03 0. -1.
         11   -1    0    0    0    0 -0.00000000000E+00 -0.00000000000E+00 -0.45593999997E+02  0.45594000000E+02  0.51100000000E-03 0.  1.
    9900012    2    1    2    0    0  0.34571805408E+02 -0.26519218735E+02  0.11429555651E+02  0.46142318366E+02  0.10000005516E+02 0.  0.
        -12    1    1    2    0    0 -0.34571805408E+02  0.26519218735E+02 -0.11429555651E+02  0.45045681634E+02  0.00000000000E+00 0.  1.
         11    1    3    3    0    0  0.12687845322E+02 -0.76767627405E+01  0.32047446930E+01  0.15171832252E+02  0.51100000000E-03 0. -1.
        -11    1    3    3    0    0  0.62829611330E+01 -0.61652395332E+01 -0.98751895226E+00  0.88578198809E+01  0.51100000000E-03 0.  1.
         12    1    3    3    0    0  0.15600998953E+02 -0.12677216462E+02  0.92123299104E+01  0.22112666233E+02  0.00000000000E+00 0. -1.
</event>
<event>
 7    1  0.5743890E-009  0.4614232E+02  0.7816164E-02  0.1320468E+00
        -11   -1    0    0    0    0  0.00000000000E+00  0.00000000000E+00  0.45593999997E+02  0.45594000000E+02  0.51100000000E-03 0. -1.
         11   -1    0    0    0    0 -0.00000000000E+00 -0.00000000000E+00 -0.45593999997E+02  0.45594000000E+02  0.51100000000E-03 0.  1.
    9900012    2    1    2    0    0  0.62603487330E+01 -0.30889536737E+02  0.32183194223E+02  0.46142318337E+02  0.10000005252E+02 0.  0.
        -12    1    1    2    0    0 -0.62603487330E+01  0.30889536737E+02 -0.32183194223E+02  0.45045681663E+02  0.00000000000E+00 0.  1.
         11    1    3    3    0    0 -0.10544851444E+01 -0.23753147371E+00  0.24800225489E+00  0.11089930118E+01  0.51100000000E-03 0. -1.
        -11    1    3    3    0    0  0.12810298968E+01 -0.10260865950E+02  0.84762195255E+01  0.13370591062E+02  0.51100000000E-03 0.  1.
         12    1    3    3    0    0  0.60338039806E+01 -0.20391139313E+02  0.23458972442E+02  0.31662734263E+02  0.00000000000E+00 0. -1.
</event>
<event>
 7    1  0.5743890E-009  0.4614232E+02  0.7816164E-02  0.1320468E+00
        -11   -1    0    0    0    0  0.00000000000E+00  0.00000000000E+00  0.45593999997E+02  0.45594000000E+02  0.51100000000E-03 0. -1.
         11   -1    0    0    0    0 -0.00000000000E+00 -0.00000000000E+00 -0.45593999997E+02  0.45594000000E+02  0.51100000000E-03 0.  1.
    9900012    2    1    2    0    0 -0.61347149940E+01  0.32258408751E+01  0.44509242257E+02  0.46142318479E+02  0.10000006545E+02 0.  0.
        -12    1    1    2    0    0  0.61347149940E+01 -0.32258408751E+01 -0.44509242257E+02  0.45045681521E+02  0.00000000000E+00 0.  1.
         11    1    3    3    0    0 -0.55495904638E+01 -0.68395140861E+00  0.14877578946E+02  0.15893649656E+02  0.51100000000E-03 0. -1.
        -11    1    3    3    0    0  0.17888470157E+01  0.48796900241E+00  0.72871688123E+01  0.75193694518E+01  0.51100000000E-03 0.  1.
         12    1    3    3    0    0 -0.23739715458E+01  0.34218232813E+01  0.22344494499E+02  0.22729299371E+02  0.00000000000E+00 0. -1.
</event>
<event>
 7    1  0.5743890E-009  0.4614232E+02  0.7816164E-02  0.1320468E+00
        -11   -1    0    0    0    0  0.00000000000E+00  0.00000000000E+00  0.45593999997E+02  0.45594000000E+02  0.51100000000E-03 0.  1.
         11   -1    0    0    0    0 -0.00000000000E+00 -0.00000000000E+00 -0.45593999997E+02  0.45594000000E+02  0.51100000000E-03 0. -1.
    9900012    2    1    2    0    0  0.32057020675E+02  0.29934245980E+02 -0.10266535594E+02  0.46142318631E+02  0.10000007932E+02 0.  0.
         12    1    1    2    0    0 -0.32057020675E+02 -0.29934245980E+02  0.10266535594E+02  0.45045681369E+02  0.00000000000E+00 0. -1.
         11    1    3    3    0    0  0.18944908965E+02  0.17998508423E+02 -0.23185110458E+01  0.26234164268E+02  0.51100000000E-03 0. -1.
        -11    1    3    3    0    0  0.11212509857E+02  0.79532576165E+01 -0.51305813245E+01  0.14673021127E+02  0.51100000000E-03 0.  1.
         12    1    3    3    0    0  0.18996018525E+01  0.39824799406E+01 -0.28174432232E+01  0.52351332353E+01  0.00000000000E+00 0. -1.
</event>
<event>
 7    1  0.5743890E-009  0.4614232E+02  0.7816164E-02  0.1320468E+00
        -11   -1    0    0    0    0  0.00000000000E+00  0.00000000000E+00  0.45593999997E+02  0.45594000000E+02  0.51100000000E-03 0. -1.
         11   -1    0    0    0    0 -0.00000000000E+00 -0.00000000000E+00 -0.45593999997E+02  0.45594000000E+02  0.51100000000E-03 0.  1.
    9900012    2    1    2    0    0 -0.67041979183E+01 -0.22818414783E+01  0.44485508082E+02  0.46142317637E+02  0.99999988668E+01 0.  0.
        -12    1    1    2    0    0  0.67041979183E+01  0.22818414783E+01 -0.44485508082E+02  0.45045682363E+02  0.00000000000E+00 0.  1.
         11    1    3    3    0    0 -0.49562479142E+01 -0.50069391831E+01  0.18995555220E+02  0.20259934643E+02  0.51100000000E-03 0. -1.
        -11    1    3    3    0    0  0.67408858380E+00  0.13766013530E+01  0.58376749385E+01  0.60355509817E+01  0.51100000000E-03 0.  1.
        -12    1    3    3    0    0 -0.24220385879E+01  0.13484963519E+01  0.19652277923E+02  0.19846832012E+02  0.00000000000E+00 0.  1.
</event>
<event>
 7    1  0.5743890E-009  0.4614232E+02  0.7816164E-02  0.1320468E+00
        -11   -1    0    0    0    0  0.00000000000E+00  0.00000000000E+00  0.45593999997E+02  0.45594000000E+02  0.51100000000E-03 0. -1.
         11   -1    0    0    0    0 -0.00000000000E+00 -0.00000000000E+00 -0.45593999997E+02  0.45594000000E+02  0.51100000000E-03 0.  1.
    9900012    2    1    2    0    0 -0.28662513993E+02  0.25476153892E+02 -0.23633438745E+02  0.46142317050E+02  0.99999935151E+01 0.  0.
         12    1    1    2    0    0  0.28662513993E+02 -0.25476153892E+02  0.23633438745E+02  0.45045682950E+02  0.00000000000E+00 0. -1.
         11    1    3    3    0    0 -0.72123634845E+01  0.44155219199E+01 -0.68332548652E+01  0.10872368333E+02  0.51100000000E-03 0. -1.
        -11    1    3    3    0    0 -0.22058847377E+02  0.20858741876E+02 -0.16582146073E+02  0.34592592110E+02  0.51100000000E-03 0.  1.
        -12    1    3    3    0    0  0.60869686794E+00  0.20189009631E+00 -0.21803780636E+00  0.67735660698E+00  0.00000000000E+00 0.  1.
</event>
<event>
 7    1  0.5743890E-009  0.4614232E+02  0.7816164E-02  0.1320468E+00
        -11   -1    0    0    0    0  0.00000000000E+00  0.00000000000E+00  0.45593999997E+02  0.45594000000E+02  0.51100000000E-03 0. -1.
         11   -1    0    0    0    0 -0.00000000000E+00 -0.00000000000E+00 -0.45593999997E+02  0.45594000000E+02  0.51100000000E-03 0.  1.
    9900012    2    1    2    0    0 -0.52440720576E+01 -0.88853638921E+01 -0.43848186734E+02  0.46142318041E+02  0.10000002556E+02 0.  0.
         12    1    1    2    0    0  0.52440720576E+01  0.88853638921E+01  0.43848186734E+02  0.45045681959E+02  0.00000000000E+00 0. -1.
         11    1    3    3    0    0  0.62333379574E+00 -0.25600170664E+00 -0.20797708685E+00  0.70522097564E+00  0.51100000000E-03 0. -1.
        -11    1    3    3    0    0 -0.56871305182E+01 -0.28903200948E+01 -0.29373536347E+02  0.30058310690E+02  0.51100000000E-03 0.  1.
         12    1    3    3    0    0 -0.18027533510E+00 -0.57390420907E+01 -0.14266673301E+02  0.15378786376E+02  0.00000000000E+00 0. -1.
</event>
<event>
 7    1  0.5743890E-009  0.4614232E+02  0.7816164E-02  0.1320468E+00
        -11   -1    0    0    0    0  0.00000000000E+00  0.00000000000E+00  0.45593999997E+02  0.45594000000E+02  0.51100000000E-03 0. -1.
         11   -1    0    0    0    0 -0.00000000000E+00 -0.00000000000E+00 -0.45593999997E+02  0.45594000000E+02  0.51100000000E-03 0.  1.
    9900012    2    1    2    0    0 -0.34586094162E+02 -0.23143758024E+02  0.17241866644E+02  0.46142318629E+02  0.10000007911E+02 0.  0.
        -12    1    1    2    0    0  0.34586094162E+02  0.23143758024E+02 -0.17241866644E+02  0.45045681371E+02  0.00000000000E+00 0.  1.
         11    1    3    3    0    0 -0.28688823996E+02 -0.19944181378E+02  0.17304026654E+02  0.38990362038E+02  0.51100000000E-03 0. -1.
        -11    1    3    3    0    0 -0.60402586847E+01 -0.26970308693E+01  0.60277573567E-01  0.66153105849E+01  0.51100000000E-03 0.  1.
         12    1    3    3    0    0  0.14298851857E+00 -0.50254577659E+00 -0.12243758411E+00  0.53664600624E+00  0.00000000000E+00 0. -1.
</event>
<event>
 7    1  0.5743890E-009  0.4614232E+02  0.7816164E-02  0.1320468E+00
        -11   -1    0    0    0    0  0.00000000000E+00  0.00000000000E+00  0.45593999997E+02  0.45594000000E+02  0.51100000000E-03 0. -1.
         11   -1    0    0    0    0 -0.00000000000E+00 -0.00000000000E+00 -0.45593999997E+02  0.45594000000E+02  0.51100000000E-03 0.  1.
    9900012    2    1    2    0    0 -0.99575839081E+00  0.23901413959E+02 -0.38168629774E+02  0.46142318488E+02  0.10000006629E+02 0.  0.
         12    1    1    2    0    0  0.99575839081E+00 -0.23901413959E+02  0.38168629774E+02  0.45045681512E+02  0.00000000000E+00 0. -1.
         11    1    3    3    0    0  0.13324804406E+00  0.88408340511E+01 -0.12202214323E+02  0.15068912914E+02  0.51100000000E-03 0. -1.
        -11    1    3    3    0    0  0.24685310223E+01  0.10235930491E+02 -0.19980514713E+02  0.22585147484E+02  0.51100000000E-03 0.  1.
         12    1    3    3    0    0 -0.35975374571E+01  0.48246494173E+01 -0.59859007384E+01  0.84882580902E+01  0.00000000000E+00 0. -1.
</event>
<event>
 7    1  0.5743890E-009  0.4614232E+02  0.7816164E-02  0.1320468E+00
        -11   -1    0    0    0    0  0.00000000000E+00  0.00000000000E+00  0.45593999997E+02  0.45594000000E+02  0.51100000000E-03 0. -1.
         11   -1    0    0    0    0 -0.00000000000E+00 -0.00000000000E+00 -0.45593999997E+02  0.45594000000E+02  0.51100000000E-03 0.  1.
    9900012    2    1    2    0    0 -0.43641246410E+02  0.11060113883E+02  0.14930145875E+01  0.46142316523E+02  0.99999887127E+01 0.  0.
         12    1    1    2    0    0  0.43641246410E+02 -0.11060113883E+02 -0.14930145875E+01  0.45045683477E+02  0.00000000000E+00 0. -1.
         11    1    3    3    0    0 -0.14901168629E+02  0.44524244342E+01 -0.91860254997E+00  0.15579240699E+02  0.51100000000E-03 0. -1.
        -11    1    3    3    0    0 -0.28870701340E+02  0.62555675020E+01  0.15018026483E+01  0.29578791931E+02  0.51100000000E-03 0.  1.
         12    1    3    3    0    0  0.13062355824E+00  0.35212194719E+00  0.90981448919E+00  0.98428389421E+00  0.00000000000E+00 0. -1.
</event>
<event>
 7    1  0.5743890E-009  0.4614232E+02  0.7816164E-02  0.1320468E+00
        -11   -1    0    0    0    0  0.00000000000E+00  0.00000000000E+00  0.45593999997E+02  0.45594000000E+02  0.51100000000E-03 0. -1.
         11   -1    0    0    0    0 -0.00000000000E+00 -0.00000000000E+00 -0.45593999997E+02  0.45594000000E+02  0.51100000000E-03 0.  1.
    9900012    2    1    2    0    0 -0.17113139128E+02 -0.13487227051E+02 -0.39425228283E+02  0.46142318192E+02  0.10000003929E+02 0.  0.
         12    1    1    2    0    0  0.17113139128E+02  0.13487227051E+02  0.39425228283E+02  0.45045681808E+02  0.00000000000E+00 0. -1.
         11    1    3    3    0    0 -0.61980649553E+01 -0.64900796383E+01 -0.14802033389E+02  0.17310035690E+02  0.51100000000E-03 0. -1.
        -11    1    3    3    0    0 -0.14824855273E+01 -0.10001004670E+01 -0.11303091008E+02  0.11443680827E+02  0.51100000000E-03 0.  1.
        -12    1    3    3    0    0 -0.94325886456E+01 -0.59970469461E+01 -0.13320103887E+02  0.17388601674E+02  0.00000000000E+00 0.  1.
</event>
<event>
 7    1  0.5743890E-009  0.4614232E+02  0.7816164E-02  0.1320468E+00
        -11   -1    0    0    0    0  0.00000000000E+00  0.00000000000E+00  0.45593999997E+02  0.45594000000E+02  0.51100000000E-03 0. -1.
         11   -1    0    0    0    0 -0.00000000000E+00 -0.00000000000E+00 -0.45593999997E+02  0.45594000000E+02  0.51100000000E-03 0.  1.
    9900012    2    1    2    0    0  0.15039301253E+02  0.69113297789E+01 -0.41894706667E+02  0.46142317541E+02  0.99999979949E+01 0.  0.
         12    1    1    2    0    0 -0.15039301253E+02 -0.69113297789E+01  0.41894706667E+02  0.45045682459E+02  0.00000000000E+00 0. -1.
         11    1    3    3    0    0  0.38617962161E+01 -0.23413978517E+01 -0.91795875311E+01  0.10230368587E+02  0.51100000000E-03 0. -1.
        -11    1    3    3    0    0  0.45602642858E+01  0.20186303596E+01 -0.11941203515E+02  0.12940758112E+02  0.51100000000E-03 0.  1.
         12    1    3    3    0    0  0.66172407506E+01  0.72340972710E+01 -0.20773915621E+02  0.22971190842E+02  0.00000000000E+00 0. -1.
</event>
<event>
 7    1  0.5743890E-009  0.4614232E+02  0.7816164E-02  0.1320468E+00
        -11   -1    0    0    0    0  0.00000000000E+00  0.00000000000E+00  0.45593999997E+02  0.45594000000E+02  0.51100000000E-03 0. -1.
         11   -1    0    0    0    0 -0.00000000000E+00 -0.00000000000E+00 -0.45593999997E+02  0.45594000000E+02  0.51100000000E-03 0.  1.
    9900012    2    1    2    0    0 -0.16880143852E+02 -0.42191017045E+01 -0.41549649026E+02  0.46142318633E+02  0.10000007948E+02 0.  0.
         12    1    1    2    0    0  0.16880143852E+02  0.42191017045E+01  0.41549649026E+02  0.45045681367E+02  0.00000000000E+00 0. -1.
         11    1    3    3    0    0 -0.14034479661E+01  0.22076327580E+00 -0.10785508169E+01  0.17837249629E+01  0.51100000000E-03 0. -1.
        -11    1    3    3    0    0 -0.14720604846E+02 -0.11379012708E+01 -0.33413273582E+02  0.36529958638E+02  0.51100000000E-03 0.  1.
        -12    1    3    3    0    0 -0.75609103981E+00 -0.33019637095E+01 -0.70578246267E+01  0.78286350318E+01  0.00000000000E+00 0.  1.
</event>
<event>
 7    1  0.5743890E-009  0.4614232E+02  0.7816164E-02  0.1320468E+00
        -11   -1    0    0    0    0  0.00000000000E+00  0.00000000000E+00  0.45593999997E+02  0.45594000000E+02  0.51100000000E-03 0. -1.
         11   -1    0    0    0    0 -0.00000000000E+00 -0.00000000000E+00 -0.45593999997E+02  0.45594000000E+02  0.51100000000E-03 0.  1.
    9900012    2    1    2    0    0  0.26901319023E+02 -0.35275351409E+02 -0.78154961890E+01  0.46142319154E+02  0.10000012700E+02 0.  0.
         12    1    1    2    0    0 -0.26901319023E+02  0.35275351409E+02  0.78154961890E+01  0.45045680846E+02  0.00000000000E+00 0. -1.
         11    1    3    3    0    0  0.36964665250E+00 -0.21887796329E+00  0.71799034184E+00  0.83669385238E+00  0.51100000000E-03 0. -1.
        -11    1    3    3    0    0 -0.29518666094E+00 -0.60573711323E-01  0.18931048906E+00  0.35586944473E+00  0.51100000000E-03 0.  1.
        -12    1    3    3    0    0  0.26826859031E+02 -0.34995899735E+02 -0.87227970199E+01  0.44949755857E+02  0.00000000000E+00 0.  1.
</event>
<event>
 7    1  0.5743890E-009  0.4614232E+02  0.7816164E-02  0.1320468E+00
        -11   -1    0    0    0    0  0.00000000000E+00  0.00000000000E+00  0.45593999997E+02  0.45594000000E+02  0.51100000000E-03 0. -1.
         11   -1    0    0    0    0 -0.00000000000E+00 -0.00000000000E+00 -0.45593999997E+02  0.45594000000E+02  0.51100000000E-03 0.  1.
    9900012    2    1    2    0    0  0.20609498066E+02 -0.10370309851E+02  0.38688741352E+02  0.46142318250E+02  0.10000004454E+02 0.  0.
        -12    1    1    2    0    0 -0.20609498066E+02  0.10370309851E+02 -0.38688741352E+02  0.45045681750E+02  0.00000000000E+00 0.  1.
         11    1    3    3    0    0  0.46672815887E+01 -0.10007839380E+01  0.64787575703E+01  0.80473216559E+01  0.51100000000E-03 0. -1.
        -11    1    3    3    0    0  0.94114962973E+01 -0.19090355505E+01  0.10506995407E+02  0.14234382039E+02  0.51100000000E-03 0.  1.
         12    1    3    3    0    0  0.65307201801E+01 -0.74604903626E+01  0.21702988375E+02  0.23860614555E+02  0.00000000000E+00 0. -1.
</event>
<event>
 7    1  0.5743890E-009  0.4614232E+02  0.7816164E-02  0.1320468E+00
        -11   -1    0    0    0    0  0.00000000000E+00  0.00000000000E+00  0.45593999997E+02  0.45594000000E+02  0.51100000000E-03 0. -1.
         11   -1    0    0    0    0 -0.00000000000E+00 -0.00000000000E+00 -0.45593999997E+02  0.45594000000E+02  0.51100000000E-03 0.  1.
    9900012    2    1    2    0    0 -0.39447191632E+02  0.16839714317E+02  0.13764321093E+02  0.46142318286E+02  0.10000004786E+02 0.  0.
        -12    1    1    2    0    0  0.39447191632E+02 -0.16839714317E+02 -0.13764321093E+02  0.45045681714E+02  0.00000000000E+00 0.  1.
         11    1    3    3    0    0 -0.88657778659E+01  0.50543674218E+01  0.32365882167E+01  0.10706266891E+02  0.51100000000E-03 0. -1.
        -11    1    3    3    0    0 -0.24585824170E+02  0.12037694742E+02  0.62850990022E+01  0.28086853055E+02  0.51100000000E-03 0.  1.
        -12    1    3    3    0    0 -0.59955895961E+01 -0.25234784667E+00  0.42426338746E+01  0.73491983395E+01  0.00000000000E+00 0.  1.
</event>
<event>
 7    1  0.5743890E-009  0.4614232E+02  0.7816164E-02  0.1320468E+00
        -11   -1    0    0    0    0  0.00000000000E+00  0.00000000000E+00  0.45593999997E+02  0.45594000000E+02  0.51100000000E-03 0. -1.
         11   -1    0    0    0    0 -0.00000000000E+00 -0.00000000000E+00 -0.45593999997E+02  0.45594000000E+02  0.51100000000E-03 0.  1.
    9900012    2    1    2    0    0 -0.23649502804E+02  0.16716191159E+01 -0.38301701421E+02  0.46142316243E+02  0.99999861588E+01 0.  0.
         12    1    1    2    0    0  0.23649502804E+02 -0.16716191159E+01  0.38301701421E+02  0.45045683757E+02  0.00000000000E+00 0. -1.
         11    1    3    3    0    0 -0.70208156803E+01 -0.99348508906E+00 -0.10706457862E+02  0.12841616162E+02  0.51100000000E-03 0. -1.
        -11    1    3    3    0    0 -0.89452410529E+01  0.12520390184E+01 -0.21727598938E+02  0.23530267637E+02  0.51100000000E-03 0.  1.
         12    1    3    3    0    0 -0.76834460708E+01  0.14130651865E+01 -0.58676446212E+01  0.97704324442E+01  0.00000000000E+00 0. -1.
</event>
<event>
 7    1  0.5743890E-009  0.4614232E+02  0.7816164E-02  0.1320468E+00
        -11   -1    0    0    0    0  0.00000000000E+00  0.00000000000E+00  0.45593999997E+02  0.45594000000E+02  0.51100000000E-03 0. -1.
         11   -1    0    0    0    0 -0.00000000000E+00 -0.00000000000E+00 -0.45593999997E+02  0.45594000000E+02  0.51100000000E-03 0.  1.
    9900012    2    1    2    0    0 -0.19868060761E+01  0.73659155115E+01 -0.44394925637E+02  0.46142317277E+02  0.99999955857E+01 0.  0.
         12    1    1    2    0    0  0.19868060761E+01 -0.73659155115E+01  0.44394925637E+02  0.45045682723E+02  0.00000000000E+00 0. -1.
         11    1    3    3    0    0  0.27137239408E+01  0.49782904409E+01 -0.16092288087E+02  0.17061928656E+02  0.51100000000E-03 0. -1.
        -11    1    3    3    0    0 -0.16765725592E+01  0.30133023500E+00 -0.19035983914E+02  0.19112048014E+02  0.51100000000E-03 0.  1.
         12    1    3    3    0    0 -0.30239574577E+01  0.20862948356E+01 -0.92666536359E+01  0.99683406069E+01  0.00000000000E+00 0. -1.
</event>
<event>
 7    1  0.5743890E-009  0.4614232E+02  0.7816164E-02  0.1320468E+00
        -11   -1    0    0    0    0  0.00000000000E+00  0.00000000000E+00  0.45593999997E+02  0.45594000000E+02  0.51100000000E-03 0. -1.
         11   -1    0    0    0    0 -0.00000000000E+00 -0.00000000000E+00 -0.45593999997E+02  0.45594000000E+02  0.51100000000E-03 0.  1.
    9900012    2    1    2    0    0 -0.11997158342E+02  0.33547109584E+02  0.27563981608E+02  0.46142318167E+02  0.10000003701E+02 0.  0.
        -12    1    1    2    0    0  0.11997158342E+02 -0.33547109584E+02 -0.27563981608E+02  0.45045681833E+02  0.00000000000E+00 0.  1.
         11    1    3    3    0    0 -0.57961298169E+01  0.21669054612E+02  0.19146109417E+02  0.29490957168E+02  0.51100000000E-03 0. -1.
        -11    1    3    3    0    0 -0.50358035727E+01  0.11396754153E+02  0.57954496652E+01  0.13741635999E+02  0.51100000000E-03 0.  1.
         12    1    3    3    0    0 -0.11652249529E+01  0.48130081853E+00  0.26224225261E+01  0.29097249997E+01  0.00000000000E+00 0. -1.
</event>
<event>
 7    1  0.5743890E-009  0.4614232E+02  0.7816164E-02  0.1320468E+00
        -11   -1    0    0    0    0  0.00000000000E+00  0.00000000000E+00  0.45593999997E+02  0.45594000000E+02  0.51100000000E-03 0. -1.
         11   -1    0    0    0    0 -0.00000000000E+00 -0.00000000000E+00 -0.45593999997E+02  0.45594000000E+02  0.51100000000E-03 0.  1.
    9900012    2    1    2    0    0 -0.20987617872E+02  0.30184508034E+02 -0.26029382939E+02  0.46142318682E+02  0.10000008401E+02 0.  0.
         12    1    1    2    0    0  0.20987617872E+02 -0.30184508034E+02  0.26029382939E+02  0.45045681318E+02  0.00000000000E+00 0. -1.
         11    1    3    3    0    0 -0.43178083144E+01  0.83584663309E+01 -0.88204986211E+01  0.12896070108E+02  0.51100000000E-03 0. -1.
        -11    1    3    3    0    0 -0.10907846155E+02  0.18650601805E+02 -0.11201838349E+02  0.24337363006E+02  0.51100000000E-03 0.  1.
        -12    1    3    3    0    0 -0.57619634027E+01  0.31754398978E+01 -0.60070459684E+01  0.89088855681E+01  0.00000000000E+00 0.  1.
</event>
<event>
 7    1  0.6617726E-009  0.4614232E+02  0.7816164E-02  0.1320468E+00
        -11   -1    0    0    0    0  0.00000000000E+00  0.00000000000E+00  0.45593999997E+02  0.45594000000E+02  0.51100000000E-03 0. -1.
         11   -1    0    0    0    0 -0.00000000000E+00 -0.00000000000E+00 -0.45593999997E+02  0.45594000000E+02  0.51100000000E-03 0.  1.
    9900012    2    1    2    0    0  0.26288588358E+01  0.14382478869E+02  0.42606880424E+02  0.46142324773E+02  0.10000063936E+02 0.  0.
        -12    1    1    2    0    0 -0.26288588358E+01 -0.14382478869E+02 -0.42606880424E+02  0.45045675227E+02  0.00000000000E+00 0.  1.
         11    1    3    3    0    0 -0.16888764748E+01  0.34181778650E+01  0.14596456275E+02  0.15086178433E+02  0.51100000000E-03 0. -1.
        -11    1    3    3    0    0 -0.10011952155E+01  0.39436526492E+01  0.13319722729E+02  0.13927304187E+02  0.51100000000E-03 0.  1.
        -12    1    3    3    0    0  0.53189305261E+01  0.70206483550E+01  0.14690701421E+02  0.17128842153E+02  0.00000000000E+00 0.  1.
</event>
<event>
 7    1  0.5743890E-009  0.4614232E+02  0.7816164E-02  0.1320468E+00
        -11   -1    0    0    0    0  0.00000000000E+00  0.00000000000E+00  0.45593999997E+02  0.45594000000E+02  0.51100000000E-03 0. -1.
         11   -1    0    0    0    0 -0.00000000000E+00 -0.00000000000E+00 -0.45593999997E+02  0.45594000000E+02  0.51100000000E-03 0.  1.
    9900012    2    1    2    0    0  0.23489296891E+02 -0.34041535683E+02 -0.17847698536E+02  0.46142316932E+02  0.99999924385E+01 0.  0.
         12    1    1    2    0    0 -0.23489296891E+02  0.34041535683E+02  0.17847698536E+02  0.45045683068E+02  0.00000000000E+00 0. -1.
         11    1    3    3    0    0  0.74894961279E+01 -0.14496387195E+02 -0.40115283616E+01  0.16802682941E+02  0.51100000000E-03 0. -1.
        -11    1    3    3    0    0  0.89754568479E+01 -0.11009216616E+02 -0.45884565795E+01  0.14927009418E+02  0.51100000000E-03 0.  1.
         12    1    3    3    0    0  0.70243439149E+01 -0.85359318722E+01 -0.92477135945E+01  0.14412624573E+02  0.00000000000E+00 0. -1.
</event>
<event>
 7    1  0.6079274E-009  0.4614232E+02  0.7816164E-02  0.1320468E+00
        -11   -1    0    0    0    0  0.00000000000E+00  0.00000000000E+00  0.45593999997E+02  0.45594000000E+02  0.51100000000E-03 0. -1.
         11   -1    0    0    0    0 -0.00000000000E+00 -0.00000000000E+00 -0.45593999997E+02  0.45594000000E+02  0.51100000000E-03 0.  1.
    9900012    2    1    2    0    0 -0.25684833507E+00  0.60678016247E+00  0.45040861718E+02  0.46142318991E+02  0.10000011219E+02 0.  0.
        -12    1    1    2    0    0  0.25684833507E+00 -0.60678016247E+00 -0.45040861718E+02  0.45045681009E+02  0.00000000000E+00 0.  1.
         11    1    3    3    0    0  0.22643277200E+01 -0.99188858637E+00  0.16695282074E+02  0.16877306266E+02  0.51100000000E-03 0.  1.
        -11    1    3    3    0    0  0.17744749031E+01 -0.26601600008E+00  0.30420368019E+01  0.35317862137E+01  0.51100000000E-03 0. -1.
         12    1    3    3    0    0 -0.42956509582E+01  0.18646847489E+01  0.25303542842E+02  0.25733226512E+02  0.00000000000E+00 0. -1.
</event>
<event>
 7    1  0.5743890E-009  0.4614232E+02  0.7816164E-02  0.1320468E+00
        -11   -1    0    0    0    0  0.00000000000E+00  0.00000000000E+00  0.45593999997E+02  0.45594000000E+02  0.51100000000E-03 0. -1.
         11   -1    0    0    0    0 -0.00000000000E+00 -0.00000000000E+00 -0.45593999997E+02  0.45594000000E+02  0.51100000000E-03 0.  1.
    9900012    2    1    2    0    0  0.34036071777E+02 -0.14915437048E+02  0.25459557712E+02  0.46142317374E+02  0.99999964716E+01 0.  0.
        -12    1    1    2    0    0 -0.34036071777E+02  0.14915437048E+02 -0.25459557712E+02  0.45045682626E+02  0.00000000000E+00 0.  1.
         11    1    3    3    0    0  0.19233879988E+02 -0.10866962279E+02  0.16613471718E+02  0.27641281652E+02  0.51100000000E-03 0. -1.
        -11    1    3    3    0    0  0.12813849395E+02 -0.43478005818E+01  0.93259145783E+01  0.16433830631E+02  0.51100000000E-03 0.  1.
        -12    1    3    3    0    0  0.19883423941E+01  0.29932581288E+00 -0.47982858510E+00  0.20672050913E+01  0.00000000000E+00 0.  1.
</event>
<event>
 7    1  0.6308943E-009  0.4614232E+02  0.7816164E-02  0.1320468E+00
        -11   -1    0    0    0    0  0.00000000000E+00  0.00000000000E+00  0.45593999997E+02  0.45594000000E+02  0.51100000000E-03 0. -1.
         11   -1    0    0    0    0 -0.00000000000E+00 -0.00000000000E+00 -0.45593999997E+02  0.45594000000E+02  0.51100000000E-03 0.  1.
    9900012    2    1    2    0    0 -0.47183038196E+01  0.48570491260E+01  0.44533809124E+02  0.46142317940E+02  0.10000001635E+02 0.  0.
        -12    1    1    2    0    0  0.47183038196E+01 -0.48570491260E+01 -0.44533809124E+02  0.45045682060E+02  0.00000000000E+00 0.  1.
         11    1    3    3    0    0 -0.36062137693E+01  0.88576566211E+00  0.10337718414E+02  0.10984433568E+02  0.51100000000E-03 0. -1.
        -11    1    3    3    0    0 -0.21298200372E+01 -0.51445085586E-01  0.29576760816E+01  0.36450827224E+01  0.51100000000E-03 0.  1.
        -12    1    3    3    0    0  0.10177299870E+01  0.40227285494E+01  0.31238414628E+02  0.31512801650E+02  0.00000000000E+00 0.  1.
</event>
<event>
 7    1  0.5743890E-009  0.4614232E+02  0.7816164E-02  0.1320468E+00
        -11   -1    0    0    0    0  0.00000000000E+00  0.00000000000E+00  0.45593999997E+02  0.45594000000E+02  0.51100000000E-03 0. -1.
         11   -1    0    0    0    0 -0.00000000000E+00 -0.00000000000E+00 -0.45593999997E+02  0.45594000000E+02  0.51100000000E-03 0.  1.
    9900012    2    1    2    0    0 -0.41723320051E+02 -0.64283671698E+01  0.15714777873E+02  0.46142316698E+02  0.99999903037E+01 0.  0.
        -12    1    1    2    0    0  0.41723320051E+02  0.64283671698E+01 -0.15714777873E+02  0.45045683302E+02  0.00000000000E+00 0.  1.
         11    1    3    3    0    0 -0.12899383399E+01  0.81639566012E+00 -0.44090082040E+00  0.15889734388E+01  0.51100000000E-03 0. -1.
        -11    1    3    3    0    0 -0.67262904895E+00  0.31861751644E+00 -0.37564958973E+00  0.83370248570E+00  0.51100000000E-03 0.  1.
         12    1    3    3    0    0 -0.39760752663E+02 -0.75633803464E+01  0.16531328283E+02  0.43719640773E+02  0.00000000000E+00 0. -1.
</event>
<event>
 7    1  0.5743890E-009  0.4614232E+02  0.7816164E-02  0.1320468E+00
        -11   -1    0    0    0    0  0.00000000000E+00  0.00000000000E+00  0.45593999997E+02  0.45594000000E+02  0.51100000000E-03 0. -1.
         11   -1    0    0    0    0 -0.00000000000E+00 -0.00000000000E+00 -0.45593999997E+02  0.45594000000E+02  0.51100000000E-03 0.  1.
    9900012    2    1    2    0    0 -0.22047023982E+02  0.36535529387E+02 -0.14429042912E+02  0.46142318149E+02  0.10000003536E+02 0.  0.
         12    1    1    2    0    0  0.22047023982E+02 -0.36535529387E+02  0.14429042912E+02  0.45045681851E+02  0.00000000000E+00 0. -1.
         11    1    3    3    0    0 -0.86082378658E+01  0.10244263529E+02 -0.67494981232E+00  0.13397845048E+02  0.51100000000E-03 0.  1.
        -11    1    3    3    0    0 -0.28204702955E+01  0.89293055693E+01 -0.43487463500E+01  0.10324686228E+02  0.51100000000E-03 0. -1.
        -12    1    3    3    0    0 -0.10618315820E+02  0.17361960289E+02 -0.94053467501E+01  0.22419786873E+02  0.00000000000E+00 0.  1.
</event>
<event>
 7    1  0.5743890E-009  0.4614232E+02  0.7816164E-02  0.1320468E+00
        -11   -1    0    0    0    0  0.00000000000E+00  0.00000000000E+00  0.45593999997E+02  0.45594000000E+02  0.51100000000E-03 0. -1.
         11   -1    0    0    0    0 -0.00000000000E+00 -0.00000000000E+00 -0.45593999997E+02  0.45594000000E+02  0.51100000000E-03 0.  1.
    9900012    2    1    2    0    0 -0.14206001206E+02 -0.22036073851E+02 -0.36629420902E+02  0.46142317669E+02  0.99999991608E+01 0.  0.
         12    1    1    2    0    0  0.14206001206E+02  0.22036073851E+02  0.36629420902E+02  0.45045682331E+02  0.00000000000E+00 0. -1.
         11    1    3    3    0    0 -0.19475326465E+01 -0.72934855450E+01 -0.11654324054E+02  0.13885643098E+02  0.51100000000E-03 0. -1.
        -11    1    3    3    0    0 -0.46529864798E+01 -0.15022359440E+01 -0.40275658490E+01  0.63346888591E+01  0.51100000000E-03 0.  1.
        -12    1    3    3    0    0 -0.76054820800E+01 -0.13240352362E+02 -0.20947530998E+02  0.25921985712E+02  0.00000000000E+00 0.  1.
</event>
<event>
 7    1  0.5743890E-009  0.4614232E+02  0.7816164E-02  0.1320468E+00
        -11   -1    0    0    0    0  0.00000000000E+00  0.00000000000E+00  0.45593999997E+02  0.45594000000E+02  0.51100000000E-03 0. -1.
         11   -1    0    0    0    0 -0.00000000000E+00 -0.00000000000E+00 -0.45593999997E+02  0.45594000000E+02  0.51100000000E-03 0.  1.
    9900012    2    1    2    0    0 -0.30836093815E+01  0.26330080523E+02  0.36418838114E+02  0.46142317002E+02  0.99999930776E+01 0.  0.
        -12    1    1    2    0    0  0.30836093815E+01 -0.26330080523E+02 -0.36418838114E+02  0.45045682998E+02  0.00000000000E+00 0.  1.
         11    1    3    3    0    0  0.30222609145E+00  0.39274230843E+01  0.54700459283E+01  0.67407266235E+01  0.51100000000E-03 0. -1.
        -11    1    3    3    0    0 -0.52168038115E+01  0.13363620391E+02  0.13671914500E+02  0.19817230844E+02  0.51100000000E-03 0.  1.
        -12    1    3    3    0    0  0.18309683385E+01  0.90390370471E+01  0.17276877686E+02  0.19584359534E+02  0.00000000000E+00 0.  1.
</event>
<event>
 7    1  0.5743890E-009  0.4614232E+02  0.7816164E-02  0.1320468E+00
        -11   -1    0    0    0    0  0.00000000000E+00  0.00000000000E+00  0.45593999997E+02  0.45594000000E+02  0.51100000000E-03 0. -1.
         11   -1    0    0    0    0 -0.00000000000E+00 -0.00000000000E+00 -0.45593999997E+02  0.45594000000E+02  0.51100000000E-03 0.  1.
    9900012    2    1    2    0    0  0.13215869030E+02  0.21714154736E+02  0.37188032808E+02  0.46142317696E+02  0.99999994093E+01 0.  0.
        -12    1    1    2    0    0 -0.13215869030E+02 -0.21714154736E+02 -0.37188032808E+02  0.45045682304E+02  0.00000000000E+00 0.  1.
         11    1    3    3    0    0 -0.10865129600E+01  0.44806358832E+01  0.68732018245E+01  0.82763223664E+01  0.51100000000E-03 0. -1.
        -11    1    3    3    0    0 -0.11521202448E+00  0.70233362850E+00  0.14210051527E+01  0.15892772702E+01  0.51100000000E-03 0.  1.
        -12    1    3    3    0    0  0.14417594014E+02  0.16531185224E+02  0.28893825830E+02  0.36276718060E+02  0.00000000000E+00 0.  1.
</event>
<event>
 7    1  0.5743890E-009  0.4614232E+02  0.7816164E-02  0.1320468E+00
        -11   -1    0    0    0    0  0.00000000000E+00  0.00000000000E+00  0.45593999997E+02  0.45594000000E+02  0.51100000000E-03 0. -1.
         11   -1    0    0    0    0 -0.00000000000E+00 -0.00000000000E+00 -0.45593999997E+02  0.45594000000E+02  0.51100000000E-03 0.  1.
    9900012    2    1    2    0    0 -0.10229271553E+02  0.16666023810E+02  0.40579787722E+02  0.46142317436E+02  0.99999970332E+01 0.  0.
        -12    1    1    2    0    0  0.10229271553E+02 -0.16666023810E+02 -0.40579787722E+02  0.45045682564E+02  0.00000000000E+00 0.  1.
         11    1    3    3    0    0 -0.33999037082E+01  0.41091852524E+01  0.88397017662E+01  0.10324004855E+02  0.51100000000E-03 0. -1.
        -11    1    3    3    0    0 -0.53132642287E+01  0.13468795528E+02  0.25410137260E+02  0.29245757053E+02  0.51100000000E-03 0.  1.
        -12    1    3    3    0    0 -0.15161036157E+01 -0.91195697022E+00  0.63299486952E+01  0.65725555283E+01  0.00000000000E+00 0.  1.
</event>
<event>
 7    1  0.7910821E-009  0.4614232E+02  0.7816164E-02  0.1320468E+00
        -11   -1    0    0    0    0  0.00000000000E+00  0.00000000000E+00  0.45593999997E+02  0.45594000000E+02  0.51100000000E-03 0. -1.
         11   -1    0    0    0    0 -0.00000000000E+00 -0.00000000000E+00 -0.45593999997E+02  0.45594000000E+02  0.51100000000E-03 0.  1.
    9900012    2    1    2    0    0 -0.20747975288E+02 -0.15159948426E+02  0.36997444835E+02  0.46142318307E+02  0.10000004977E+02 0.  0.
        -12    1    1    2    0    0  0.20747975288E+02  0.15159948426E+02 -0.36997444835E+02  0.45045681693E+02  0.00000000000E+00 0.  1.
         11    1    3    3    0    0 -0.11881025773E+02 -0.88643231261E+01  0.19847272310E+02  0.24771944136E+02  0.51100000000E-03 0. -1.
        -11    1    3    3    0    0 -0.86186995959E+01 -0.31524669373E+01  0.10096071428E+02  0.13643705107E+02  0.51100000000E-03 0.  1.
        -12    1    3    3    0    0 -0.24824991980E+00 -0.31431583628E+01  0.70541010981E+01  0.77266690635E+01  0.00000000000E+00 0.  1.
</event>
<event>
 7    1  0.5743890E-009  0.4614232E+02  0.7816164E-02  0.1320468E+00
        -11   -1    0    0    0    0  0.00000000000E+00  0.00000000000E+00  0.45593999997E+02  0.45594000000E+02  0.51100000000E-03 0. -1.
         11   -1    0    0    0    0 -0.00000000000E+00 -0.00000000000E+00 -0.45593999997E+02  0.45594000000E+02  0.51100000000E-03 0.  1.
    9900012    2    1    2    0    0  0.15307809178E+02  0.85312373218E+01  0.41497017187E+02  0.46142317993E+02  0.10000002113E+02 0.  0.
        -12    1    1    2    0    0 -0.15307809178E+02 -0.85312373218E+01 -0.41497017187E+02  0.45045682007E+02  0.00000000000E+00 0.  1.
         11    1    3    3    0    0  0.94308584208E+01  0.88104287059E+01  0.32349568838E+02  0.34829001548E+02  0.51100000000E-03 0. -1.
        -11    1    3    3    0    0 -0.31390164214E-01  0.17703804648E+00 -0.18526820019E+00  0.25817122115E+00  0.51100000000E-03 0.  1.
         12    1    3    3    0    0  0.59083409212E+01 -0.45622943060E+00  0.93327165494E+01  0.11055145224E+02  0.00000000000E+00 0. -1.
</event>
<event>
 7    1  0.5743890E-009  0.4614232E+02  0.7816164E-02  0.1320468E+00
        -11   -1    0    0    0    0  0.00000000000E+00  0.00000000000E+00  0.45593999997E+02  0.45594000000E+02  0.51100000000E-03 0.  1.
         11   -1    0    0    0    0 -0.00000000000E+00 -0.00000000000E+00 -0.45593999997E+02  0.45594000000E+02  0.51100000000E-03 0. -1.
    9900012    2    1    2    0    0  0.43088179935E+02  0.83373859869E+01 -0.10149393862E+02  0.46142318176E+02  0.10000003787E+02 0.  0.
         12    1    1    2    0    0 -0.43088179935E+02 -0.83373859869E+01  0.10149393862E+02  0.45045681824E+02  0.00000000000E+00 0. -1.
         11    1    3    3    0    0  0.29463311906E+01  0.12169341535E+01  0.69204843605E+00  0.32620128015E+01  0.51100000000E-03 0. -1.
        -11    1    3    3    0    0  0.20890121333E+02  0.14386948404E+01 -0.87667275248E+01  0.22700716374E+02  0.51100000000E-03 0.  1.
        -12    1    3    3    0    0  0.19251727411E+02  0.56817569930E+01 -0.20747147737E+01  0.20179589001E+02  0.00000000000E+00 0.  1.
</event>
<event>
 7    1  0.5743890E-009  0.4614232E+02  0.7816164E-02  0.1320468E+00
        -11   -1    0    0    0    0  0.00000000000E+00  0.00000000000E+00  0.45593999997E+02  0.45594000000E+02  0.51100000000E-03 0. -1.
         11   -1    0    0    0    0 -0.00000000000E+00 -0.00000000000E+00 -0.45593999997E+02  0.45594000000E+02  0.51100000000E-03 0.  1.
    9900012    2    1    2    0    0 -0.40963285411E+02  0.28233774683E+01 -0.18524337273E+02  0.46142320037E+02  0.10000020749E+02 0.  0.
         12    1    1    2    0    0  0.40963285411E+02 -0.28233774683E+01  0.18524337273E+02  0.45045679963E+02  0.00000000000E+00 0. -1.
         11    1    3    3    0    0 -0.25703292233E+02 -0.12638170609E+01 -0.14905584743E+02  0.29739416974E+02  0.51100000000E-03 0. -1.
        -11    1    3    3    0    0 -0.56333026439E+01  0.98608146456E+00 -0.24503193757E+01  0.62217779321E+01  0.51100000000E-03 0.  1.
         12    1    3    3    0    0 -0.96266905341E+01  0.31011130647E+01 -0.11684331536E+01  0.10181125130E+02  0.00000000000E+00 0. -1.
</event>
<event>
 7    1  0.5743890E-009  0.4614232E+02  0.7816164E-02  0.1320468E+00
        -11   -1    0    0    0    0  0.00000000000E+00  0.00000000000E+00  0.45593999997E+02  0.45594000000E+02  0.51100000000E-03 0. -1.
         11   -1    0    0    0    0 -0.00000000000E+00 -0.00000000000E+00 -0.45593999997E+02  0.45594000000E+02  0.51100000000E-03 0.  1.
    9900012    2    1    2    0    0 -0.23161741034E+01 -0.23776793435E+02  0.38189172687E+02  0.46142317865E+02  0.10000000945E+02 0.  0.
        -12    1    1    2    0    0  0.23161741034E+01  0.23776793435E+02 -0.38189172687E+02  0.45045682135E+02  0.00000000000E+00 0.  1.
         11    1    3    3    0    0 -0.21346505979E+01 -0.50423245080E+01  0.45926544011E+01  0.71466246808E+01  0.51100000000E-03 0. -1.
        -11    1    3    3    0    0 -0.13911731381E+01 -0.28633899091E+01  0.24477616634E+01  0.40157068984E+01  0.51100000000E-03 0.  1.
         12    1    3    3    0    0  0.12096496325E+01 -0.15871079018E+02  0.31148756622E+02  0.34979986286E+02  0.00000000000E+00 0. -1.
</event>
<event>
 7    1  0.5743890E-009  0.4614232E+02  0.7816164E-02  0.1320468E+00
        -11   -1    0    0    0    0  0.00000000000E+00  0.00000000000E+00  0.45593999997E+02  0.45594000000E+02  0.51100000000E-03 0.  1.
         11   -1    0    0    0    0 -0.00000000000E+00 -0.00000000000E+00 -0.45593999997E+02  0.45594000000E+02  0.51100000000E-03 0. -1.
    9900012    2    1    2    0    0 -0.16804575743E+02 -0.40391562654E+02  0.10735055571E+02  0.46142317436E+02  0.99999970380E+01 0.  0.
        -12    1    1    2    0    0  0.16804575743E+02  0.40391562654E+02 -0.10735055571E+02  0.45045682564E+02  0.00000000000E+00 0.  1.
         11    1    3    3    0    0 -0.10861474486E+02 -0.30298829900E+02  0.11380666497E+02  0.34139570757E+02  0.51100000000E-03 0. -1.
        -11    1    3    3    0    0 -0.43717275795E+01 -0.88102810272E+01 -0.11784635734E+01  0.99056463930E+01  0.51100000000E-03 0.  1.
        -12    1    3    3    0    0 -0.15713736777E+01 -0.12824517268E+01  0.53285264731E+00  0.20971002862E+01  0.00000000000E+00 0.  1.
</event>
<event>
 7    1  0.6771518E-009  0.4614232E+02  0.7816164E-02  0.1320468E+00
        -11   -1    0    0    0    0  0.00000000000E+00  0.00000000000E+00  0.45593999997E+02  0.45594000000E+02  0.51100000000E-03 0. -1.
         11   -1    0    0    0    0 -0.00000000000E+00 -0.00000000000E+00 -0.45593999997E+02  0.45594000000E+02  0.51100000000E-03 0.  1.
    9900012    2    1    2    0    0  0.23180003954E+02  0.29794581136E+01  0.38508750483E+02  0.46142316325E+02  0.99999869039E+01 0.  0.
        -12    1    1    2    0    0 -0.23180003954E+02 -0.29794581136E+01 -0.38508750483E+02  0.45045683675E+02  0.00000000000E+00 0.  1.
         11    1    3    3    0    0  0.12309928288E+02 -0.13379481778E+01  0.21012002490E+02  0.24389110042E+02  0.51100000000E-03 0. -1.
        -11    1    3    3    0    0  0.90733076814E+01  0.12670578644E+01  0.14301959494E+02  0.16984592828E+02  0.51100000000E-03 0.  1.
        -12    1    3    3    0    0  0.17967679849E+01  0.30503484270E+01  0.31947884999E+01  0.47686134543E+01  0.00000000000E+00 0.  1.
</event>
<event>
 7    1  0.5743890E-009  0.4614232E+02  0.7816164E-02  0.1320468E+00
        -11   -1    0    0    0    0  0.00000000000E+00  0.00000000000E+00  0.45593999997E+02  0.45594000000E+02  0.51100000000E-03 0. -1.
         11   -1    0    0    0    0 -0.00000000000E+00 -0.00000000000E+00 -0.45593999997E+02  0.45594000000E+02  0.51100000000E-03 0.  1.
    9900012    2    1    2    0    0 -0.39861123093E+02 -0.20480117862E+02 -0.45573253424E+01  0.46142316787E+02  0.99999911154E+01 0.  0.
        -12    1    1    2    0    0  0.39861123093E+02  0.20480117862E+02  0.45573253424E+01  0.45045683213E+02  0.00000000000E+00 0.  1.
         11    1    3    3    0    0 -0.26897766541E+02 -0.11275002938E+02 -0.12101503077E+01  0.29190409387E+02  0.51100000000E-03 0. -1.
        -11    1    3    3    0    0 -0.10661836203E+02 -0.79199457580E+01 -0.45703135534E+01  0.14045926750E+02  0.51100000000E-03 0.  1.
        -12    1    3    3    0    0 -0.23015203494E+01 -0.12851691663E+01  0.12231385187E+01  0.29059806504E+01  0.00000000000E+00 0.  1.
</event>
<event>
 7    1  0.5743890E-009  0.4614232E+02  0.7816164E-02  0.1320468E+00
        -11   -1    0    0    0    0  0.00000000000E+00  0.00000000000E+00  0.45593999997E+02  0.45594000000E+02  0.51100000000E-03 0. -1.
         11   -1    0    0    0    0 -0.00000000000E+00 -0.00000000000E+00 -0.45593999997E+02  0.45594000000E+02  0.51100000000E-03 0.  1.
    9900012    2    1    2    0    0 -0.11303315133E+01  0.14967034236E+02 -0.42471444307E+02  0.46142319356E+02  0.10000014545E+02 0.  0.
         12    1    1    2    0    0  0.11303315133E+01 -0.14967034236E+02  0.42471444307E+02  0.45045680644E+02  0.00000000000E+00 0. -1.
         11    1    3    3    0    0 -0.38927705543E+01  0.52427837433E+01 -0.14574830919E+02  0.15970790229E+02  0.51100000000E-03 0.  1.
        -11    1    3    3    0    0  0.58923163032E+00  0.26640253458E+00 -0.80852696835E+01  0.81110881108E+01  0.51100000000E-03 0. -1.
        -12    1    3    3    0    0  0.21732074107E+01  0.94578479584E+01 -0.19811343704E+02  0.22060441016E+02  0.00000000000E+00 0.  1.
</event>
<event>
 7    1  0.5743890E-009  0.4614232E+02  0.7816164E-02  0.1320468E+00
        -11   -1    0    0    0    0  0.00000000000E+00  0.00000000000E+00  0.45593999997E+02  0.45594000000E+02  0.51100000000E-03 0. -1.
         11   -1    0    0    0    0 -0.00000000000E+00 -0.00000000000E+00 -0.45593999997E+02  0.45594000000E+02  0.51100000000E-03 0.  1.
    9900012    2    1    2    0    0  0.24424129713E+02 -0.21296038439E+02 -0.31289837895E+02  0.46142319620E+02  0.10000016950E+02 0.  0.
         12    1    1    2    0    0 -0.24424129713E+02  0.21296038439E+02  0.31289837895E+02  0.45045680380E+02  0.00000000000E+00 0. -1.
         11    1    3    3    0    0  0.27074282508E+01 -0.74254489840E+00 -0.39667572902E+01  0.48597020813E+01  0.51100000000E-03 0. -1.
        -11    1    3    3    0    0  0.12021248741E+02 -0.15890787738E+02 -0.20238188491E+02  0.28400912484E+02  0.51100000000E-03 0.  1.
        -12    1    3    3    0    0  0.96954527208E+01 -0.46627058021E+01 -0.70848921134E+01  0.12881705055E+02  0.00000000000E+00 0.  1.
</event>
<event>
 7    1  0.5743890E-009  0.4614232E+02  0.7816164E-02  0.1320468E+00
        -11   -1    0    0    0    0  0.00000000000E+00  0.00000000000E+00  0.45593999997E+02  0.45594000000E+02  0.51100000000E-03 0. -1.
         11   -1    0    0    0    0 -0.00000000000E+00 -0.00000000000E+00 -0.45593999997E+02  0.45594000000E+02  0.51100000000E-03 0.  1.
    9900012    2    1    2    0    0 -0.18253692655E+02  0.41140082134E+02 -0.18465648361E+01  0.46142318128E+02  0.10000003350E+02 0.  0.
        -12    1    1    2    0    0  0.18253692655E+02 -0.41140082134E+02  0.18465648361E+01  0.45045681872E+02  0.00000000000E+00 0.  1.
         11    1    3    3    0    0 -0.59155678923E+01  0.11200354020E+02  0.25770649045E+01  0.12926064267E+02  0.51100000000E-03 0. -1.
        -11    1    3    3    0    0 -0.65284310230E+01  0.15469260669E+02  0.69399266382E+00  0.16804763115E+02  0.51100000000E-03 0.  1.
        -12    1    3    3    0    0 -0.58096937401E+01  0.14470467445E+02 -0.51176224043E+01  0.16411490746E+02  0.00000000000E+00 0.  1.
</event>
<event>
 7    1  0.5743890E-009  0.4614231E+02  0.7816164E-02  0.1320468E+00
        -11   -1    0    0    0    0  0.00000000000E+00  0.00000000000E+00  0.45593999997E+02  0.45594000000E+02  0.51100000000E-03 0. -1.
         11   -1    0    0    0    0 -0.00000000000E+00 -0.00000000000E+00 -0.45593999997E+02  0.45594000000E+02  0.51100000000E-03 0.  1.
    9900012    2    1    2    0    0 -0.11024641227E+02  0.40630078674E+02  0.16023988622E+02  0.46142309656E+02  0.99999260899E+01 0.  0.
        -12    1    1    2    0    0  0.11024641227E+02 -0.40630078674E+02 -0.16023988622E+02  0.45045690344E+02  0.00000000000E+00 0.  1.
         11    1    3    3    0    0 -0.64030673434E+01  0.24796282789E+02  0.10171593184E+02  0.27555693055E+02  0.51100000000E-03 0. -1.
        -11    1    3    3    0    0 -0.19923837000E+01  0.47248603149E+01 -0.10668594437E+01  0.52375650008E+01  0.51100000000E-03 0.  1.
         12    1    3    3    0    0 -0.26291901838E+01  0.11108935569E+02  0.69192548815E+01  0.13349051600E+02  0.00000000000E+00 0. -1.
</event>
<event>
 7    1  0.5743890E-009  0.4614231E+02  0.7816164E-02  0.1320468E+00
        -11   -1    0    0    0    0  0.00000000000E+00  0.00000000000E+00  0.45593999997E+02  0.45594000000E+02  0.51100000000E-03 0. -1.
         11   -1    0    0    0    0 -0.00000000000E+00 -0.00000000000E+00 -0.45593999997E+02  0.45594000000E+02  0.51100000000E-03 0.  1.
    9900012    2    1    2    0    0 -0.25258513307E+01 -0.26177764813E+02 -0.36571287528E+02  0.46142308009E+02  0.99999110688E+01 0.  0.
         12    1    1    2    0    0  0.25258513307E+01  0.26177764813E+02  0.36571287528E+02  0.45045691991E+02  0.00000000000E+00 0. -1.
         11    1    3    3    0    0 -0.14369154913E+00 -0.11667512798E+01 -0.65215399740E+00  0.13443440436E+01  0.51100000000E-03 0. -1.
        -11    1    3    3    0    0  0.26744845065E+01 -0.17566018810E+02 -0.23555936550E+02  0.29505932136E+02  0.51100000000E-03 0.  1.
         12    1    3    3    0    0 -0.50566442880E+01 -0.74449947229E+01 -0.12363196980E+02  0.15292031829E+02  0.00000000000E+00 0. -1.
</event>
<event>
 7    1  0.5743890E-009  0.4614232E+02  0.7816164E-02  0.1320468E+00
        -11   -1    0    0    0    0  0.00000000000E+00  0.00000000000E+00  0.45593999997E+02  0.45594000000E+02  0.51100000000E-03 0.  1.
         11   -1    0    0    0    0 -0.00000000000E+00 -0.00000000000E+00 -0.45593999997E+02  0.45594000000E+02  0.51100000000E-03 0. -1.
    9900012    2    1    2    0    0 -0.15413516709E+02  0.31672556852E+02  0.28078215403E+02  0.46142317242E+02  0.99999952701E+01 0.  0.
        -12    1    1    2    0    0  0.15413516709E+02 -0.31672556852E+02 -0.28078215403E+02  0.45045682758E+02  0.00000000000E+00 0.  1.
         11    1    3    3    0    0 -0.27419432772E+01  0.10410290527E+02  0.72864895117E+01  0.12999435813E+02  0.51100000000E-03 0. -1.
        -11    1    3    3    0    0 -0.25546057878E+01  0.46417887907E+01  0.10063872631E+01  0.53930538188E+01  0.51100000000E-03 0.  1.
         12    1    3    3    0    0 -0.10116967644E+02  0.16620477534E+02  0.19785338629E+02  0.27749827610E+02  0.00000000000E+00 0. -1.
</event>
<event>
 7    1  0.5743890E-009  0.4614232E+02  0.7816164E-02  0.1320468E+00
        -11   -1    0    0    0    0  0.00000000000E+00  0.00000000000E+00  0.45593999997E+02  0.45594000000E+02  0.51100000000E-03 0. -1.
         11   -1    0    0    0    0 -0.00000000000E+00 -0.00000000000E+00 -0.45593999997E+02  0.45594000000E+02  0.51100000000E-03 0.  1.
    9900012    2    1    2    0    0 -0.10484104168E+02 -0.29925401915E+02 -0.31994802276E+02  0.46142317713E+02  0.99999995657E+01 0.  0.
         12    1    1    2    0    0  0.10484104168E+02  0.29925401915E+02  0.31994802276E+02  0.45045682287E+02  0.00000000000E+00 0. -1.
         11    1    3    3    0    0 -0.92668752130E-02 -0.59402880787E+01 -0.32767594434E+01  0.67841182952E+01  0.51100000000E-03 0. -1.
        -11    1    3    3    0    0 -0.52426540551E+01 -0.17948989954E+02 -0.22362559890E+02  0.29150227220E+02  0.51100000000E-03 0.  1.
        -12    1    3    3    0    0 -0.52321832382E+01 -0.60361238820E+01 -0.63554829429E+01  0.10207972198E+02  0.00000000000E+00 0.  1.
</event>
<event>
 7    1  0.5743890E-009  0.4614232E+02  0.7816164E-02  0.1320468E+00
        -11   -1    0    0    0    0  0.00000000000E+00  0.00000000000E+00  0.45593999997E+02  0.45594000000E+02  0.51100000000E-03 0. -1.
         11   -1    0    0    0    0 -0.00000000000E+00 -0.00000000000E+00 -0.45593999997E+02  0.45594000000E+02  0.51100000000E-03 0.  1.
    9900012    2    1    2    0    0  0.15417695443E+02  0.21847648637E+02 -0.36250357199E+02  0.46142317846E+02  0.10000000770E+02 0.  0.
         12    1    1    2    0    0 -0.15417695443E+02 -0.21847648637E+02  0.36250357199E+02  0.45045682154E+02  0.00000000000E+00 0. -1.
         11    1    3    3    0    0  0.62157832130E+01  0.63012566588E+01 -0.76513812485E+01  0.11699804772E+02  0.51100000000E-03 0. -1.
        -11    1    3    3    0    0  0.94680318561E+01  0.13448524345E+02 -0.21711828564E+02  0.27238023683E+02  0.51100000000E-03 0.  1.
        -12    1    3    3    0    0 -0.26611962643E+00  0.20978676330E+01 -0.68871473866E+01  0.72044893910E+01  0.00000000000E+00 0.  1.
</event>
<event>
 7    1  0.5743890E-009  0.4614232E+02  0.7816164E-02  0.1320468E+00
        -11   -1    0    0    0    0  0.00000000000E+00  0.00000000000E+00  0.45593999997E+02  0.45594000000E+02  0.51100000000E-03 0. -1.
         11   -1    0    0    0    0 -0.00000000000E+00 -0.00000000000E+00 -0.45593999997E+02  0.45594000000E+02  0.51100000000E-03 0.  1.
    9900012    2    1    2    0    0 -0.22578015592E+02  0.38131066925E+02  0.80850771535E+01  0.46142317350E+02  0.99999962472E+01 0.  0.
        -12    1    1    2    0    0  0.22578015592E+02 -0.38131066925E+02 -0.80850771535E+01  0.45045682650E+02  0.00000000000E+00 0.  1.
         11    1    3    3    0    0 -0.12045721784E+02  0.23876412523E+02  0.19236775550E+01  0.26811994030E+02  0.51100000000E-03 0. -1.
        -11    1    3    3    0    0 -0.79824921279E+01  0.86433714735E+01  0.21064736827E+01  0.11952626600E+02  0.51100000000E-03 0.  1.
        -12    1    3    3    0    0 -0.25498016799E+01  0.56112829283E+01  0.40549259158E+01  0.73776967199E+01  0.00000000000E+00 0.  1.
</event>
<event>
 7    1  0.5743890E-009  0.4614232E+02  0.7816164E-02  0.1320468E+00
        -11   -1    0    0    0    0  0.00000000000E+00  0.00000000000E+00  0.45593999997E+02  0.45594000000E+02  0.51100000000E-03 0. -1.
         11   -1    0    0    0    0 -0.00000000000E+00 -0.00000000000E+00 -0.45593999997E+02  0.45594000000E+02  0.51100000000E-03 0.  1.
    9900012    2    1    2    0    0 -0.18255732908E+02  0.58330904651E+01  0.40765386990E+02  0.46142317578E+02  0.99999983305E+01 0.  0.
        -12    1    1    2    0    0  0.18255732908E+02 -0.58330904651E+01 -0.40765386990E+02  0.45045682422E+02  0.00000000000E+00 0.  1.
         11    1    3    3    0    0 -0.49988910619E+01  0.15312610417E+01  0.10693973617E+02  0.11903560149E+02  0.51100000000E-03 0. -1.
        -11    1    3    3    0    0 -0.67132460379E+01 -0.18840368705E+01  0.95120354741E+01  0.11793900390E+02  0.51100000000E-03 0.  1.
        -12    1    3    3    0    0 -0.65435958084E+01  0.61858662938E+01  0.20559377899E+02  0.22444857039E+02  0.00000000000E+00 0.  1.
</event>
<event>
 7    1  0.5743890E-009  0.4614232E+02  0.7816164E-02  0.1320468E+00
        -11   -1    0    0    0    0  0.00000000000E+00  0.00000000000E+00  0.45593999997E+02  0.45594000000E+02  0.51100000000E-03 0. -1.
         11   -1    0    0    0    0 -0.00000000000E+00 -0.00000000000E+00 -0.45593999997E+02  0.45594000000E+02  0.51100000000E-03 0.  1.
    9900012    2    1    2    0    0 -0.31700065998E+02 -0.92221320717E+01  0.30645903917E+02  0.46142319507E+02  0.10000015918E+02 0.  0.
        -12    1    1    2    0    0  0.31700065998E+02  0.92221320717E+01 -0.30645903917E+02  0.45045680493E+02  0.00000000000E+00 0.  1.
         11    1    3    3    0    0 -0.18893811966E+02 -0.84346760560E+01  0.16579609964E+02  0.26514210484E+02  0.51100000000E-03 0. -1.
        -11    1    3    3    0    0 -0.11211186404E+02 -0.17111301540E+01  0.13635124337E+02  0.17735142597E+02  0.51100000000E-03 0.  1.
         12    1    3    3    0    0 -0.15950676286E+01  0.92367413829E+00  0.43116961625E+00  0.18929664264E+01  0.00000000000E+00 0. -1.
</event>
<event>
 7    1  0.5743890E-009  0.4614232E+02  0.7816164E-02  0.1320468E+00
        -11   -1    0    0    0    0  0.00000000000E+00  0.00000000000E+00  0.45593999997E+02  0.45594000000E+02  0.51100000000E-03 0. -1.
         11   -1    0    0    0    0 -0.00000000000E+00 -0.00000000000E+00 -0.45593999997E+02  0.45594000000E+02  0.51100000000E-03 0.  1.
    9900012    2    1    2    0    0  0.55621677274E+01 -0.66243060257E+01  0.44207401072E+02  0.46142318190E+02  0.10000003914E+02 0.  0.
        -12    1    1    2    0    0 -0.55621677274E+01  0.66243060257E+01 -0.44207401072E+02  0.45045681810E+02  0.00000000000E+00 0.  1.
         11    1    3    3    0    0  0.16382124543E+01  0.13673652970E+01  0.19676077831E+02  0.19791449340E+02  0.51100000000E-03 0. -1.
        -11    1    3    3    0    0  0.16212356986E+01 -0.38304075416E+01  0.16507644988E+02  0.17023594522E+02  0.51100000000E-03 0.  1.
        -12    1    3    3    0    0  0.23027195745E+01 -0.41612637811E+01  0.80236782523E+01  0.93272743281E+01  0.00000000000E+00 0.  1.
</event>
<event>
 7    1  0.5743890E-009  0.4614232E+02  0.7816164E-02  0.1320468E+00
        -11   -1    0    0    0    0  0.00000000000E+00  0.00000000000E+00  0.45593999997E+02  0.45594000000E+02  0.51100000000E-03 0. -1.
         11   -1    0    0    0    0 -0.00000000000E+00 -0.00000000000E+00 -0.45593999997E+02  0.45594000000E+02  0.51100000000E-03 0.  1.
    9900012    2    1    2    0    0  0.39817764999E+02  0.13915110505E+02 -0.15812301847E+02  0.46142316526E+02  0.99999887406E+01 0.  0.
         12    1    1    2    0    0 -0.39817764999E+02 -0.13915110505E+02  0.15812301847E+02  0.45045683474E+02  0.00000000000E+00 0. -1.
         11    1    3    3    0    0  0.11060903819E+02  0.54078806944E+01 -0.88512070541E+01  0.15163529717E+02  0.51100000000E-03 0. -1.
        -11    1    3    3    0    0  0.14105316565E+02  0.48170802824E+01 -0.51096403664E+01  0.15756669787E+02  0.51100000000E-03 0.  1.
        -12    1    3    3    0    0  0.14651544615E+02  0.36901495282E+01 -0.18514544267E+01  0.15222117022E+02  0.00000000000E+00 0.  1.
</event>
<event>
 7    1  0.5743890E-009  0.4614232E+02  0.7816164E-02  0.1320468E+00
        -11   -1    0    0    0    0  0.00000000000E+00  0.00000000000E+00  0.45593999997E+02  0.45594000000E+02  0.51100000000E-03 0. -1.
         11   -1    0    0    0    0 -0.00000000000E+00 -0.00000000000E+00 -0.45593999997E+02  0.45594000000E+02  0.51100000000E-03 0.  1.
    9900012    2    1    2    0    0  0.22254489273E+01 -0.59961223052E+00 -0.44986679476E+02  0.46142317764E+02  0.10000000030E+02 0.  0.
         12    1    1    2    0    0 -0.22254489273E+01  0.59961223052E+00  0.44986679476E+02  0.45045682236E+02  0.00000000000E+00 0. -1.
         11    1    3    3    0    0  0.19326316533E+01 -0.12324007073E+01 -0.57908780222E+01  0.62280129367E+01  0.51100000000E-03 0. -1.
        -11    1    3    3    0    0  0.17993835295E+01  0.32542458008E+01 -0.12320078930E+02  0.12869041997E+02  0.51100000000E-03 0.  1.
        -12    1    3    3    0    0 -0.15065662556E+01 -0.26214573240E+01 -0.26875722524E+02  0.27045262831E+02  0.00000000000E+00 0.  1.
</event>
<event>
 7    1  0.5743890E-009  0.4614232E+02  0.7816164E-02  0.1320468E+00
        -11   -1    0    0    0    0  0.00000000000E+00  0.00000000000E+00  0.45593999997E+02  0.45594000000E+02  0.51100000000E-03 0. -1.
         11   -1    0    0    0    0 -0.00000000000E+00 -0.00000000000E+00 -0.45593999997E+02  0.45594000000E+02  0.51100000000E-03 0.  1.
    9900012    2    1    2    0    0  0.24634969566E+02 -0.50633410791E+01 -0.37371036767E+02  0.46142317216E+02  0.99999950310E+01 0.  0.
         12    1    1    2    0    0 -0.24634969566E+02  0.50633410791E+01  0.37371036767E+02  0.45045682784E+02  0.00000000000E+00 0. -1.
         11    1    3    3    0    0  0.13548421216E+02  0.17428337046E+01 -0.18830682073E+02  0.23263528846E+02  0.51100000000E-03 0.  1.
        -11    1    3    3    0    0  0.20259299083E+01 -0.11506710311E+01 -0.58194180841E+01  0.62684976601E+01  0.51100000000E-03 0. -1.
         12    1    3    3    0    0  0.90606184420E+01 -0.56555037526E+01 -0.12720936610E+02  0.16610290710E+02  0.00000000000E+00 0. -1.
</event>
<event>
 7    1  0.5743890E-009  0.4614232E+02  0.7816164E-02  0.1320468E+00
        -11   -1    0    0    0    0  0.00000000000E+00  0.00000000000E+00  0.45593999997E+02  0.45594000000E+02  0.51100000000E-03 0. -1.
         11   -1    0    0    0    0 -0.00000000000E+00 -0.00000000000E+00 -0.45593999997E+02  0.45594000000E+02  0.51100000000E-03 0.  1.
    9900012    2    1    2    0    0 -0.14536430909E+02 -0.27106577511E+02 -0.32909560006E+02  0.46142317546E+02  0.99999980371E+01 0.  0.
         12    1    1    2    0    0  0.14536430909E+02  0.27106577511E+02  0.32909560006E+02  0.45045682454E+02  0.00000000000E+00 0. -1.
         11    1    3    3    0    0 -0.89044072880E+00 -0.69409846294E+00 -0.14228381126E+00  0.11379377451E+01  0.51100000000E-03 0. -1.
        -11    1    3    3    0    0 -0.64090525976E+01 -0.49806452591E+01 -0.70173890752E+01  0.10729703262E+02  0.51100000000E-03 0.  1.
        -12    1    3    3    0    0 -0.72369375823E+01 -0.21431833789E+02 -0.25749887120E+02  0.34274676539E+02  0.00000000000E+00 0.  1.
</event>
<event>
 7    1  0.5743890E-009  0.4614232E+02  0.7816164E-02  0.1320468E+00
        -11   -1    0    0    0    0  0.00000000000E+00  0.00000000000E+00  0.45593999997E+02  0.45594000000E+02  0.51100000000E-03 0. -1.
         11   -1    0    0    0    0 -0.00000000000E+00 -0.00000000000E+00 -0.45593999997E+02  0.45594000000E+02  0.51100000000E-03 0.  1.
    9900012    2    1    2    0    0  0.34236172875E+02 -0.28111192713E+02 -0.81706079549E+01  0.46142317374E+02  0.99999964702E+01 0.  0.
         12    1    1    2    0    0 -0.34236172875E+02  0.28111192713E+02  0.81706079549E+01  0.45045682626E+02  0.00000000000E+00 0. -1.
         11    1    3    3    0    0 -0.30812586997E+00 -0.96005010900E+00 -0.28578752342E+00  0.10480040712E+01  0.51100000000E-03 0. -1.
        -11    1    3    3    0    0  0.13228442514E+02 -0.10092661976E+02  0.13521057020E+00  0.16639465114E+02  0.51100000000E-03 0.  1.
         12    1    3    3    0    0  0.21315856231E+02 -0.17058480629E+02 -0.80200310016E+01  0.28454848189E+02  0.00000000000E+00 0. -1.
</event>
<event>
 7    1  0.5743890E-009  0.4614232E+02  0.7816164E-02  0.1320468E+00
        -11   -1    0    0    0    0  0.00000000000E+00  0.00000000000E+00  0.45593999997E+02  0.45594000000E+02  0.51100000000E-03 0. -1.
         11   -1    0    0    0    0 -0.00000000000E+00 -0.00000000000E+00 -0.45593999997E+02  0.45594000000E+02  0.51100000000E-03 0.  1.
    9900012    2    1    2    0    0 -0.12485532393E+02 -0.41664361054E+02  0.11717759897E+02  0.46142318762E+02  0.10000009127E+02 0.  0.
        -12    1    1    2    0    0  0.12485532393E+02  0.41664361054E+02 -0.11717759897E+02  0.45045681238E+02  0.00000000000E+00 0.  1.
         11    1    3    3    0    0 -0.32762727044E+01 -0.20331088148E+02  0.34188778441E+01  0.20875244527E+02  0.51100000000E-03 0. -1.
        -11    1    3    3    0    0 -0.84715706738E+01 -0.18246470788E+02  0.50842229199E+01  0.20749711537E+02  0.51100000000E-03 0.  1.
        -12    1    3    3    0    0 -0.73768901433E+00 -0.30868021183E+01  0.32146591334E+01  0.45173626978E+01  0.00000000000E+00 0.  1.
</event>
<event>
 7    1  0.5743890E-009  0.4614232E+02  0.7816164E-02  0.1320468E+00
        -11   -1    0    0    0    0  0.00000000000E+00  0.00000000000E+00  0.45593999997E+02  0.45594000000E+02  0.51100000000E-03 0. -1.
         11   -1    0    0    0    0 -0.00000000000E+00 -0.00000000000E+00 -0.45593999997E+02  0.45594000000E+02  0.51100000000E-03 0.  1.
    9900012    2    1    2    0    0 -0.11196118496E+02  0.34872659241E+02  0.26223235272E+02  0.46142317631E+02  0.99999988140E+01 0.  0.
        -12    1    1    2    0    0  0.11196118496E+02 -0.34872659241E+02 -0.26223235272E+02  0.45045682369E+02  0.00000000000E+00 0.  1.
         11    1    3    3    0    0 -0.30102378383E+00  0.46914378570E+01  0.18362571307E+01  0.50469837523E+01  0.51100000000E-03 0. -1.
        -11    1    3    3    0    0 -0.45170566071E+00  0.70645370807E+01  0.22498969965E+01  0.74279040734E+01  0.51100000000E-03 0.  1.
         12    1    3    3    0    0 -0.10443389051E+02  0.23116684304E+02  0.22137081145E+02  0.33667429805E+02  0.00000000000E+00 0. -1.
</event>
<event>
 7    1  0.5743890E-009  0.4614232E+02  0.7816164E-02  0.1320468E+00
        -11   -1    0    0    0    0  0.00000000000E+00  0.00000000000E+00  0.45593999997E+02  0.45594000000E+02  0.51100000000E-03 0. -1.
         11   -1    0    0    0    0 -0.00000000000E+00 -0.00000000000E+00 -0.45593999997E+02  0.45594000000E+02  0.51100000000E-03 0.  1.
    9900012    2    1    2    0    0 -0.86601077407E+01 -0.19701485847E+02 -0.39572304730E+02  0.46142319716E+02  0.10000017823E+02 0.  0.
         12    1    1    2    0    0  0.86601077407E+01  0.19701485847E+02  0.39572304730E+02  0.45045680284E+02  0.00000000000E+00 0. -1.
         11    1    3    3    0    0 -0.38268170503E+01 -0.52286188706E+01 -0.13650397307E+02  0.15110140003E+02  0.51100000000E-03 0. -1.
        -11    1    3    3    0    0 -0.22314867179E+01 -0.14195445667E+02 -0.22897035378E+02  0.27032655067E+02  0.51100000000E-03 0.  1.
         12    1    3    3    0    0 -0.26018039724E+01 -0.27742130994E+00 -0.30248720455E+01  0.39995246450E+01  0.00000000000E+00 0. -1.
</event>
<event>
 7    1  0.5743890E-009  0.4614232E+02  0.7816164E-02  0.1320468E+00
        -11   -1    0    0    0    0  0.00000000000E+00  0.00000000000E+00  0.45593999997E+02  0.45594000000E+02  0.51100000000E-03 0. -1.
         11   -1    0    0    0    0 -0.00000000000E+00 -0.00000000000E+00 -0.45593999997E+02  0.45594000000E+02  0.51100000000E-03 0.  1.
    9900012    2    1    2    0    0 -0.30866757805E+01  0.25714790785E+02  0.36855603112E+02  0.46142317485E+02  0.99999974852E+01 0.  0.
        -12    1    1    2    0    0  0.30866757805E+01 -0.25714790785E+02 -0.36855603112E+02  0.45045682515E+02  0.00000000000E+00 0.  1.
         11    1    3    3    0    0 -0.34163713903E+01  0.18802299237E+02  0.28985069875E+02  0.34717896336E+02  0.51100000000E-03 0. -1.
        -11    1    3    3    0    0 -0.16799065434E+01  0.13272874600E+01  0.10560396730E+01  0.23872574323E+01  0.51100000000E-03 0.  1.
         12    1    3    3    0    0  0.20096021532E+01  0.55852040880E+01  0.68144935635E+01  0.90371637169E+01  0.00000000000E+00 0. -1.
</event>
<event>
 7    1  0.5743890E-009  0.4614232E+02  0.7816164E-02  0.1320468E+00
        -11   -1    0    0    0    0  0.00000000000E+00  0.00000000000E+00  0.45593999997E+02  0.45594000000E+02  0.51100000000E-03 0. -1.
         11   -1    0    0    0    0 -0.00000000000E+00 -0.00000000000E+00 -0.45593999997E+02  0.45594000000E+02  0.51100000000E-03 0.  1.
    9900012    2    1    2    0    0 -0.44221862337E+00  0.25759747069E+02 -0.36950688397E+02  0.46142317639E+02  0.99999988870E+01 0.  0.
         12    1    1    2    0    0  0.44221862337E+00 -0.25759747069E+02  0.36950688397E+02  0.45045682361E+02  0.00000000000E+00 0. -1.
         11    1    3    3    0    0 -0.31235636301E+01  0.26546855319E+01 -0.69497455470E+01  0.80686410537E+01  0.51100000000E-03 0. -1.
        -11    1    3    3    0    0  0.65019687523E+00  0.75346026557E+00 -0.14112772192E+01  0.17268937428E+01  0.51100000000E-03 0.  1.
        -12    1    3    3    0    0  0.20311481315E+01  0.22351601272E+02 -0.28589665630E+02  0.36346782843E+02  0.00000000000E+00 0.  1.
</event>
<event>
 7    1  0.7261083E-009  0.4614232E+02  0.7816164E-02  0.1320468E+00
        -11   -1    0    0    0    0  0.00000000000E+00  0.00000000000E+00  0.45593999997E+02  0.45594000000E+02  0.51100000000E-03 0. -1.
         11   -1    0    0    0    0 -0.00000000000E+00 -0.00000000000E+00 -0.45593999997E+02  0.45594000000E+02  0.51100000000E-03 0.  1.
    9900012    2    1    2    0    0 -0.66854435890E+01 -0.12264964846E+02  0.42825094249E+02  0.46142320783E+02  0.10000027555E+02 0.  0.
        -12    1    1    2    0    0  0.66854435890E+01  0.12264964846E+02 -0.42825094249E+02  0.45045679217E+02  0.00000000000E+00 0.  1.
         11    1    3    3    0    0 -0.68161810583E+01 -0.55217468029E+01  0.27914725147E+02  0.29260585986E+02  0.51100000000E-03 0. -1.
        -11    1    3    3    0    0 -0.14637755006E+01 -0.32602406074E+01  0.10214500225E+02  0.10821636782E+02  0.51100000000E-03 0.  1.
        -12    1    3    3    0    0  0.15945129699E+01 -0.34829774360E+01  0.46958688777E+01  0.60600980147E+01  0.00000000000E+00 0.  1.
</event>
<event>
 7    1  0.5743890E-009  0.4614232E+02  0.7816164E-02  0.1320468E+00
        -11   -1    0    0    0    0  0.00000000000E+00  0.00000000000E+00  0.45593999997E+02  0.45594000000E+02  0.51100000000E-03 0. -1.
         11   -1    0    0    0    0 -0.00000000000E+00 -0.00000000000E+00 -0.45593999997E+02  0.45594000000E+02  0.51100000000E-03 0.  1.
    9900012    2    1    2    0    0  0.35226283300E+02  0.81074125482E+01 -0.26879219953E+02  0.46142316093E+02  0.99999847911E+01 0.  0.
         12    1    1    2    0    0 -0.35226283300E+02 -0.81074125482E+01  0.26879219953E+02  0.45045683907E+02  0.00000000000E+00 0. -1.
         11    1    3    3    0    0  0.12125752580E+02  0.22526612312E+01 -0.57341649726E+01  0.13601066371E+02  0.51100000000E-03 0. -1.
        -11    1    3    3    0    0  0.13426999660E+02  0.66490763863E+01 -0.13790375314E+02  0.20363422802E+02  0.51100000000E-03 0.  1.
         12    1    3    3    0    0  0.96735310602E+01 -0.79432506925E+00 -0.73546796661E+01  0.12177826919E+02  0.00000000000E+00 0. -1.
</event>
<event>
 7    1  0.5743890E-009  0.4614232E+02  0.7816164E-02  0.1320468E+00
        -11   -1    0    0    0    0  0.00000000000E+00  0.00000000000E+00  0.45593999997E+02  0.45594000000E+02  0.51100000000E-03 0. -1.
         11   -1    0    0    0    0 -0.00000000000E+00 -0.00000000000E+00 -0.45593999997E+02  0.45594000000E+02  0.51100000000E-03 0.  1.
    9900012    2    1    2    0    0 -0.10685248258E+02  0.16659586483E+02 -0.40464765585E+02  0.46142316456E+02  0.99999881005E+01 0.  0.
         12    1    1    2    0    0  0.10685248258E+02 -0.16659586483E+02  0.40464765585E+02  0.45045683544E+02  0.00000000000E+00 0. -1.
         11    1    3    3    0    0  0.73086014212E+00  0.13502265703E+00 -0.32990852411E+01  0.33817674897E+01  0.51100000000E-03 0. -1.
        -11    1    3    3    0    0 -0.10897351265E+02  0.10616542678E+02 -0.26996366568E+02  0.30988175990E+02  0.51100000000E-03 0.  1.
        -12    1    3    3    0    0 -0.51875713572E+00  0.59080211471E+01 -0.10169313775E+02  0.11772372977E+02  0.00000000000E+00 0.  1.
</event>
<event>
 7    1  0.5743890E-009  0.4614232E+02  0.7816164E-02  0.1320468E+00
        -11   -1    0    0    0    0  0.00000000000E+00  0.00000000000E+00  0.45593999997E+02  0.45594000000E+02  0.51100000000E-03 0.  1.
         11   -1    0    0    0    0 -0.00000000000E+00 -0.00000000000E+00 -0.45593999997E+02  0.45594000000E+02  0.51100000000E-03 0. -1.
    9900012    2    1    2    0    0  0.39850061823E+02  0.14616912522E+02 -0.15080830611E+02  0.46142323061E+02  0.10000048332E+02 0.  0.
         12    1    1    2    0    0 -0.39850061823E+02 -0.14616912522E+02  0.15080830611E+02  0.45045676939E+02  0.00000000000E+00 0. -1.
         11    1    3    3    0    0  0.63673953869E+01  0.19080023680E+01 -0.10410215752E+01  0.67281441149E+01  0.51100000000E-03 0. -1.
        -11    1    3    3    0    0  0.26149581996E+02  0.12361643403E+02 -0.13853019186E+02  0.32070500574E+02  0.51100000000E-03 0.  1.
         12    1    3    3    0    0  0.73330844398E+01  0.34726675003E+00 -0.18678984937E+00  0.73436783730E+01  0.00000000000E+00 0. -1.
</event>
<event>
 7    1  0.5743890E-009  0.4614231E+02  0.7816164E-02  0.1320468E+00
        -11   -1    0    0    0    0  0.00000000000E+00  0.00000000000E+00  0.45593999997E+02  0.45594000000E+02  0.51100000000E-03 0. -1.
         11   -1    0    0    0    0 -0.00000000000E+00 -0.00000000000E+00 -0.45593999997E+02  0.45594000000E+02  0.51100000000E-03 0.  1.
    9900012    2    1    2    0    0  0.17498254978E+02 -0.11537559061E+02 -0.39872421269E+02  0.46142310148E+02  0.99999305814E+01 0.  0.
         12    1    1    2    0    0 -0.17498254978E+02  0.11537559061E+02  0.39872421269E+02  0.45045689852E+02  0.00000000000E+00 0. -1.
         11    1    3    3    0    0  0.11086111403E+02 -0.34575597099E+01 -0.14099088056E+02  0.18265838865E+02  0.51100000000E-03 0. -1.
        -11    1    3    3    0    0  0.56502275923E+01 -0.53415259036E+01 -0.18513953975E+02  0.20080424868E+02  0.51100000000E-03 0.  1.
         12    1    3    3    0    0  0.76191598276E+00 -0.27384734473E+01 -0.72593792387E+01  0.77960464158E+01  0.00000000000E+00 0. -1.
</event>
<event>
 7    1  0.5743890E-009  0.4614232E+02  0.7816164E-02  0.1320468E+00
        -11   -1    0    0    0    0  0.00000000000E+00  0.00000000000E+00  0.45593999997E+02  0.45594000000E+02  0.51100000000E-03 0. -1.
         11   -1    0    0    0    0 -0.00000000000E+00 -0.00000000000E+00 -0.45593999997E+02  0.45594000000E+02  0.51100000000E-03 0.  1.
    9900012    2    1    2    0    0  0.26617963370E+02  0.60380902194E+01 -0.35834876823E+02  0.46142324243E+02  0.10000059107E+02 0.  0.
         12    1    1    2    0    0 -0.26617963370E+02 -0.60380902194E+01  0.35834876823E+02  0.45045675757E+02  0.00000000000E+00 0. -1.
         11    1    3    3    0    0  0.18277457212E+02  0.36567213298E+01 -0.30184842181E+02  0.35476213873E+02  0.51100000000E-03 0. -1.
        -11    1    3    3    0    0  0.85304697285E+00 -0.25772870121E+00 -0.14042386717E+01  0.16631294987E+01  0.51100000000E-03 0.  1.
         12    1    3    3    0    0  0.74874591849E+01  0.26390975908E+01 -0.42457959705E+01  0.90029808710E+01  0.00000000000E+00 0. -1.
</event>
<event>
 7    1  0.5743890E-009  0.4614232E+02  0.7816164E-02  0.1320468E+00
        -11   -1    0    0    0    0  0.00000000000E+00  0.00000000000E+00  0.45593999997E+02  0.45594000000E+02  0.51100000000E-03 0. -1.
         11   -1    0    0    0    0 -0.00000000000E+00 -0.00000000000E+00 -0.45593999997E+02  0.45594000000E+02  0.51100000000E-03 0.  1.
    9900012    2    1    2    0    0  0.34626635043E+02 -0.13321062672E+01  0.28780813135E+02  0.46142316897E+02  0.99999921193E+01 0.  0.
        -12    1    1    2    0    0 -0.34626635043E+02  0.13321062672E+01 -0.28780813135E+02  0.45045683103E+02  0.00000000000E+00 0.  1.
         11    1    3    3    0    0  0.13529859967E+02  0.24011310802E+01  0.95701923613E+01  0.16745480683E+02  0.51100000000E-03 0.  1.
        -11    1    3    3    0    0  0.18187388142E+02 -0.50755596299E+01  0.17590732782E+02  0.25806516096E+02  0.51100000000E-03 0. -1.
        -12    1    3    3    0    0  0.29093869340E+01  0.13423222826E+01  0.16198879922E+01  0.35903201180E+01  0.00000000000E+00 0.  1.
</event>
<event>
 7    1  0.5743890E-009  0.4614232E+02  0.7816164E-02  0.1320468E+00
        -11   -1    0    0    0    0  0.00000000000E+00  0.00000000000E+00  0.45593999997E+02  0.45594000000E+02  0.51100000000E-03 0. -1.
         11   -1    0    0    0    0 -0.00000000000E+00 -0.00000000000E+00 -0.45593999997E+02  0.45594000000E+02  0.51100000000E-03 0.  1.
    9900012    2    1    2    0    0  0.35173671699E+02 -0.10100532169E+02  0.26266051041E+02  0.46142319095E+02  0.10000012163E+02 0.  0.
        -12    1    1    2    0    0 -0.35173671699E+02  0.10100532169E+02 -0.26266051041E+02  0.45045680905E+02  0.00000000000E+00 0.  1.
         11    1    3    3    0    0  0.19766837909E+02 -0.35100329952E+01  0.87906187308E+01  0.21916276839E+02  0.51100000000E-03 0.  1.
        -11    1    3    3    0    0  0.85475755629E+01 -0.40164352509E+01  0.94752069003E+01  0.13378054649E+02  0.51100000000E-03 0. -1.
        -12    1    3    3    0    0  0.68592582273E+01 -0.25740639232E+01  0.80002254101E+01  0.10847987607E+02  0.00000000000E+00 0.  1.
</event>
<event>
 7    1  0.5743890E-009  0.4614233E+02  0.7816164E-02  0.1320468E+00
        -11   -1    0    0    0    0  0.00000000000E+00  0.00000000000E+00  0.45593999997E+02  0.45594000000E+02  0.51100000000E-03 0. -1.
         11   -1    0    0    0    0 -0.00000000000E+00 -0.00000000000E+00 -0.45593999997E+02  0.45594000000E+02  0.51100000000E-03 0.  1.
    9900012    2    1    2    0    0 -0.20876614993E+02 -0.35888825215E+02 -0.17472033899E+02  0.46142325430E+02  0.10000069930E+02 0.  0.
         12    1    1    2    0    0  0.20876614993E+02  0.35888825215E+02  0.17472033899E+02  0.45045674570E+02  0.00000000000E+00 0. -1.
         11    1    3    3    0    0 -0.35643302847E+00 -0.37701049783E+01 -0.40139834095E+01  0.55184054874E+01  0.51100000000E-03 0. -1.
        -11    1    3    3    0    0 -0.46327326892E+01 -0.61424681293E+01 -0.11422114064E+01  0.77779672182E+01  0.51100000000E-03 0.  1.
        -12    1    3    3    0    0 -0.15887449275E+02 -0.25976252108E+02 -0.12315839083E+02  0.32845952724E+02  0.00000000000E+00 0.  1.
</event>
<event>
 7    1  0.5743890E-009  0.4614232E+02  0.7816164E-02  0.1320468E+00
        -11   -1    0    0    0    0  0.00000000000E+00  0.00000000000E+00  0.45593999997E+02  0.45594000000E+02  0.51100000000E-03 0. -1.
         11   -1    0    0    0    0 -0.00000000000E+00 -0.00000000000E+00 -0.45593999997E+02  0.45594000000E+02  0.51100000000E-03 0.  1.
    9900012    2    1    2    0    0  0.61582054552E+01  0.23431236406E+02 -0.37975878189E+02  0.46142315876E+02  0.99999828107E+01 0.  0.
         12    1    1    2    0    0 -0.61582054552E+01 -0.23431236406E+02  0.37975878189E+02  0.45045684124E+02  0.00000000000E+00 0. -1.
         11    1    3    3    0    0  0.25598334753E+01  0.18240774725E+01 -0.66829649337E+01  0.73852573830E+01  0.51100000000E-03 0. -1.
        -11    1    3    3    0    0  0.23532448445E+01  0.89434675379E+01 -0.18662298301E+02  0.20827980004E+02  0.51100000000E-03 0.  1.
        -12    1    3    3    0    0  0.12451271353E+01  0.12663691395E+02 -0.12630614955E+02  0.17929078489E+02  0.00000000000E+00 0.  1.
</event>
<event>
 7    1  0.5743890E-009  0.4614232E+02  0.7816164E-02  0.1320468E+00
        -11   -1    0    0    0    0  0.00000000000E+00  0.00000000000E+00  0.45593999997E+02  0.45594000000E+02  0.51100000000E-03 0. -1.
         11   -1    0    0    0    0 -0.00000000000E+00 -0.00000000000E+00 -0.45593999997E+02  0.45594000000E+02  0.51100000000E-03 0.  1.
    9900012    2    1    2    0    0  0.36575977946E+02 -0.89141387813E+01 -0.24735591274E+02  0.46142317537E+02  0.99999979542E+01 0.  0.
         12    1    1    2    0    0 -0.36575977946E+02  0.89141387813E+01  0.24735591274E+02  0.45045682463E+02  0.00000000000E+00 0. -1.
         11    1    3    3    0    0  0.79525001093E+01 -0.48651099129E+01 -0.31068722931E+01  0.98267089180E+01  0.51100000000E-03 0. -1.
        -11    1    3    3    0    0  0.45490549173E+01 -0.58791335465E+00 -0.17714539879E+01  0.49170715111E+01  0.51100000000E-03 0.  1.
         12    1    3    3    0    0  0.24074422919E+02 -0.34611155138E+01 -0.19857264993E+02  0.31398537108E+02  0.00000000000E+00 0. -1.
</event>
<event>
 7    1  0.5743890E-009  0.4614232E+02  0.7816164E-02  0.1320468E+00
        -11   -1    0    0    0    0  0.00000000000E+00  0.00000000000E+00  0.45593999997E+02  0.45594000000E+02  0.51100000000E-03 0. -1.
         11   -1    0    0    0    0 -0.00000000000E+00 -0.00000000000E+00 -0.45593999997E+02  0.45594000000E+02  0.51100000000E-03 0.  1.
    9900012    2    1    2    0    0 -0.12137368699E+02  0.23017616991E+02 -0.36769377104E+02  0.46142317593E+02  0.99999984707E+01 0.  0.
         12    1    1    2    0    0  0.12137368699E+02 -0.23017616991E+02  0.36769377104E+02  0.45045682407E+02  0.00000000000E+00 0. -1.
         11    1    3    3    0    0 -0.73937988601E+01  0.15484860204E+02 -0.23545427144E+02  0.29134795293E+02  0.51100000000E-03 0. -1.
        -11    1    3    3    0    0 -0.29740382332E+01  0.45026905267E+01 -0.12219025301E+02  0.13357533640E+02  0.51100000000E-03 0.  1.
         12    1    3    3    0    0 -0.17695316055E+01  0.30300662607E+01 -0.10049246588E+01  0.36499886598E+01  0.00000000000E+00 0. -1.
</event>
<event>
 7    1  0.5743890E-009  0.4614232E+02  0.7816164E-02  0.1320468E+00
        -11   -1    0    0    0    0  0.00000000000E+00  0.00000000000E+00  0.45593999997E+02  0.45594000000E+02  0.51100000000E-03 0.  1.
         11   -1    0    0    0    0 -0.00000000000E+00 -0.00000000000E+00 -0.45593999997E+02  0.45594000000E+02  0.51100000000E-03 0. -1.
    9900012    2    1    2    0    0  0.37811783345E+02 -0.24092321553E+02  0.43522327024E+01  0.46142324880E+02  0.10000064918E+02 0.  0.
         12    1    1    2    0    0 -0.37811783345E+02  0.24092321553E+02 -0.43522327024E+01  0.45045675120E+02  0.00000000000E+00 0. -1.
         11    1    3    3    0    0  0.13787091973E+01 -0.12511371834E+01 -0.35549904736E+00  0.18954057973E+01  0.51100000000E-03 0. -1.
        -11    1    3    3    0    0 -0.42583059068E-02  0.55423715553E+00 -0.34298879661E+00  0.65179638957E+00  0.51100000000E-03 0.  1.
        -12    1    3    3    0    0  0.36437332453E+02 -0.23395421525E+02  0.50507205464E+01  0.43595122693E+02  0.00000000000E+00 0.  1.
</event>
<event>
 7    1  0.5743890E-009  0.4614232E+02  0.7816164E-02  0.1320468E+00
        -11   -1    0    0    0    0  0.00000000000E+00  0.00000000000E+00  0.45593999997E+02  0.45594000000E+02  0.51100000000E-03 0. -1.
         11   -1    0    0    0    0 -0.00000000000E+00 -0.00000000000E+00 -0.45593999997E+02  0.45594000000E+02  0.51100000000E-03 0.  1.
    9900012    2    1    2    0    0  0.12741827660E+02  0.11303776140E+02 -0.41701126915E+02  0.46142317487E+02  0.99999974972E+01 0.  0.
         12    1    1    2    0    0 -0.12741827660E+02 -0.11303776140E+02  0.41701126915E+02  0.45045682513E+02  0.00000000000E+00 0. -1.
         11    1    3    3    0    0  0.34458048918E+01  0.42573833682E+01 -0.92274414215E+01  0.10730543320E+02  0.51100000000E-03 0.  1.
        -11    1    3    3    0    0  0.63900826164E+00 -0.14626383218E+01 -0.17065964869E+01  0.23366887360E+01  0.51100000000E-03 0. -1.
         12    1    3    3    0    0  0.86570145067E+01  0.85090310933E+01 -0.30767089006E+02  0.33075085431E+02  0.00000000000E+00 0. -1.
</event>
<event>
 7    1  0.5743890E-009  0.4614232E+02  0.7816164E-02  0.1320468E+00
        -11   -1    0    0    0    0  0.00000000000E+00  0.00000000000E+00  0.45593999997E+02  0.45594000000E+02  0.51100000000E-03 0. -1.
         11   -1    0    0    0    0 -0.00000000000E+00 -0.00000000000E+00 -0.45593999997E+02  0.45594000000E+02  0.51100000000E-03 0.  1.
    9900012    2    1    2    0    0  0.15454686180E+02 -0.25433448106E+02 -0.33814285670E+02  0.46142317378E+02  0.99999965061E+01 0.  0.
         12    1    1    2    0    0 -0.15454686180E+02  0.25433448106E+02  0.33814285670E+02  0.45045682622E+02  0.00000000000E+00 0. -1.
         11    1    3    3    0    0  0.20854888117E+01 -0.33640183068E+01 -0.11647187796E+01  0.41258275350E+01  0.51100000000E-03 0. -1.
        -11    1    3    3    0    0  0.24843693583E+01 -0.67067566251E+01 -0.12767301393E+02  0.14634092410E+02  0.51100000000E-03 0.  1.
         12    1    3    3    0    0  0.10884828010E+02 -0.15362673175E+02 -0.19882265498E+02  0.27382397433E+02  0.00000000000E+00 0. -1.
</event>
<event>
 7    1  0.5743890E-009  0.4614232E+02  0.7816164E-02  0.1320468E+00
        -11   -1    0    0    0    0  0.00000000000E+00  0.00000000000E+00  0.45593999997E+02  0.45594000000E+02  0.51100000000E-03 0. -1.
         11   -1    0    0    0    0 -0.00000000000E+00 -0.00000000000E+00 -0.45593999997E+02  0.45594000000E+02  0.51100000000E-03 0.  1.
    9900012    2    1    2    0    0 -0.22481626295E+02 -0.61419051610E+01  0.38548243331E+02  0.46142316702E+02  0.99999903446E+01 0.  0.
        -12    1    1    2    0    0  0.22481626295E+02  0.61419051610E+01 -0.38548243331E+02  0.45045683298E+02  0.00000000000E+00 0.  1.
         11    1    3    3    0    0 -0.59376621602E+01 -0.11464738724E+01  0.11675095824E+02  0.13148311565E+02  0.51100000000E-03 0. -1.
        -11    1    3    3    0    0 -0.93106336744E+01  0.13086796153E+01  0.11272378671E+02  0.14678796371E+02  0.51100000000E-03 0.  1.
         12    1    3    3    0    0 -0.72333304603E+01 -0.63041109038E+01  0.15600768836E+02  0.18315208765E+02  0.00000000000E+00 0. -1.
</event>
<event>
 7    1  0.5743890E-009  0.4614232E+02  0.7816164E-02  0.1320468E+00
        -11   -1    0    0    0    0  0.00000000000E+00  0.00000000000E+00  0.45593999997E+02  0.45594000000E+02  0.51100000000E-03 0. -1.
         11   -1    0    0    0    0 -0.00000000000E+00 -0.00000000000E+00 -0.45593999997E+02  0.45594000000E+02  0.51100000000E-03 0.  1.
    9900012    2    1    2    0    0 -0.30263578268E+02 -0.52511720510E+01 -0.32949271170E+02  0.46142318208E+02  0.10000004075E+02 0.  0.
         12    1    1    2    0    0  0.30263578268E+02  0.52511720510E+01  0.32949271170E+02  0.45045681792E+02  0.00000000000E+00 0. -1.
         11    1    3    3    0    0 -0.46612173074E+01  0.19525827957E+01 -0.54003063340E+01  0.73961364997E+01  0.51100000000E-03 0.  1.
        -11    1    3    3    0    0 -0.10638960057E+02 -0.51233151377E+01 -0.15110507033E+02  0.19177154433E+02  0.51100000000E-03 0. -1.
         12    1    3    3    0    0 -0.14963400904E+02 -0.20804397090E+01 -0.12438457802E+02  0.19569027275E+02  0.00000000000E+00 0. -1.
</event>
<event>
 7    1  0.5743890E-009  0.4614232E+02  0.7816164E-02  0.1320468E+00
        -11   -1    0    0    0    0  0.00000000000E+00  0.00000000000E+00  0.45593999997E+02  0.45594000000E+02  0.51100000000E-03 0. -1.
         11   -1    0    0    0    0 -0.00000000000E+00 -0.00000000000E+00 -0.45593999997E+02  0.45594000000E+02  0.51100000000E-03 0.  1.
    9900012    2    1    2    0    0 -0.65887168055E+01 -0.40561024877E+01 -0.44376236220E+02  0.46142317659E+02  0.99999990659E+01 0.  0.
         12    1    1    2    0    0  0.65887168055E+01  0.40561024877E+01  0.44376236220E+02  0.45045682341E+02  0.00000000000E+00 0. -1.
         11    1    3    3    0    0  0.80223940327E-01 -0.32930807866E+00  0.27950722871E+00  0.43932248211E+00  0.51100000000E-03 0. -1.
        -11    1    3    3    0    0 -0.22552974696E+00 -0.90415921052E+00 -0.21069028320E+02  0.21089625937E+02  0.51100000000E-03 0.  1.
         12    1    3    3    0    0 -0.64434109988E+01 -0.28226351985E+01 -0.23586715129E+02  0.24613369239E+02  0.00000000000E+00 0. -1.
</event>
<event>
 7    1  0.5743890E-009  0.4614232E+02  0.7816164E-02  0.1320468E+00
        -11   -1    0    0    0    0  0.00000000000E+00  0.00000000000E+00  0.45593999997E+02  0.45594000000E+02  0.51100000000E-03 0. -1.
         11   -1    0    0    0    0 -0.00000000000E+00 -0.00000000000E+00 -0.45593999997E+02  0.45594000000E+02  0.51100000000E-03 0.  1.
    9900012    2    1    2    0    0  0.49503734710E+01  0.31517442181E+00 -0.44771731505E+02  0.46142317916E+02  0.10000001413E+02 0.  0.
         12    1    1    2    0    0 -0.49503734710E+01 -0.31517442181E+00  0.44771731505E+02  0.45045682084E+02  0.00000000000E+00 0. -1.
         11    1    3    3    0    0  0.20450160607E+01  0.18123114695E+01 -0.12531766702E+02  0.12826213022E+02  0.51100000000E-03 0. -1.
        -11    1    3    3    0    0 -0.66386476691E+00  0.22156946160E+01 -0.18474678514E+02  0.18618908816E+02  0.51100000000E-03 0.  1.
         12    1    3    3    0    0  0.35692221773E+01 -0.37128316637E+01 -0.13765286290E+02  0.14697196078E+02  0.00000000000E+00 0. -1.
</event>
<event>
 7    1  0.5743890E-009  0.4614231E+02  0.7816164E-02  0.1320468E+00
        -11   -1    0    0    0    0  0.00000000000E+00  0.00000000000E+00  0.45593999997E+02  0.45594000000E+02  0.51100000000E-03 0. -1.
         11   -1    0    0    0    0 -0.00000000000E+00 -0.00000000000E+00 -0.45593999997E+02  0.45594000000E+02  0.51100000000E-03 0.  1.
    9900012    2    1    2    0    0 -0.12087882422E+02 -0.15054192382E+01  0.43367390780E+02  0.46142314617E+02  0.99999713324E+01 0.  0.
        -12    1    1    2    0    0  0.12087882422E+02  0.15054192382E+01 -0.43367390780E+02  0.45045685383E+02  0.00000000000E+00 0.  1.
         11    1    3    3    0    0 -0.79152689159E+01 -0.32330190196E+01  0.35054952359E+02  0.36082593853E+02  0.51100000000E-03 0. -1.
        -11    1    3    3    0    0 -0.16354140825E+01  0.14529947455E+01  0.66828247787E+01  0.70317793079E+01  0.51100000000E-03 0.  1.
        -12    1    3    3    0    0 -0.25371994235E+01  0.27460503597E+00  0.16296136419E+01  0.30279414562E+01  0.00000000000E+00 0.  1.
</event>
<event>
 7    1  0.5743890E-009  0.4614232E+02  0.7816164E-02  0.1320468E+00
        -11   -1    0    0    0    0  0.00000000000E+00  0.00000000000E+00  0.45593999997E+02  0.45594000000E+02  0.51100000000E-03 0. -1.
         11   -1    0    0    0    0 -0.00000000000E+00 -0.00000000000E+00 -0.45593999997E+02  0.45594000000E+02  0.51100000000E-03 0.  1.
    9900012    2    1    2    0    0 -0.27347974399E+02  0.10214979452E+02 -0.34305335329E+02  0.46142317178E+02  0.99999946792E+01 0.  0.
         12    1    1    2    0    0  0.27347974399E+02 -0.10214979452E+02  0.34305335329E+02  0.45045682822E+02  0.00000000000E+00 0. -1.
         11    1    3    3    0    0 -0.92521543359E+01  0.13987117247E+01 -0.10658910393E+02  0.14183480721E+02  0.51100000000E-03 0. -1.
        -11    1    3    3    0    0 -0.11097555222E+02  0.20292450482E+01 -0.15958031035E+02  0.19543088858E+02  0.51100000000E-03 0.  1.
        -12    1    3    3    0    0 -0.69982648410E+01  0.67870226795E+01 -0.76883939009E+01  0.12415747598E+02  0.00000000000E+00 0.  1.
</event>
<event>
 7    1  0.5743890E-009  0.4614232E+02  0.7816164E-02  0.1320468E+00
        -11   -1    0    0    0    0  0.00000000000E+00  0.00000000000E+00  0.45593999997E+02  0.45594000000E+02  0.51100000000E-03 0. -1.
         11   -1    0    0    0    0 -0.00000000000E+00 -0.00000000000E+00 -0.45593999997E+02  0.45594000000E+02  0.51100000000E-03 0.  1.
    9900012    2    1    2    0    0  0.20701729058E+02  0.12837824069E+02  0.37891191106E+02  0.46142315676E+02  0.99999809861E+01 0.  0.
        -12    1    1    2    0    0 -0.20701729058E+02 -0.12837824069E+02 -0.37891191106E+02  0.45045684324E+02  0.00000000000E+00 0.  1.
         11    1    3    3    0    0  0.23717276556E+01  0.29929303778E+01  0.64473694278E+01  0.74934169188E+01  0.51100000000E-03 0. -1.
        -11    1    3    3    0    0  0.13506387652E+02  0.75107346461E+01  0.28774935331E+02  0.32662372019E+02  0.51100000000E-03 0.  1.
        -12    1    3    3    0    0  0.48236137498E+01  0.23341590456E+01  0.26688863471E+01  0.59865267385E+01  0.00000000000E+00 0.  1.
</event>
<event>
 7    1  0.6285930E-009  0.4614232E+02  0.7816164E-02  0.1320468E+00
        -11   -1    0    0    0    0  0.00000000000E+00  0.00000000000E+00  0.45593999997E+02  0.45594000000E+02  0.51100000000E-03 0. -1.
         11   -1    0    0    0    0 -0.00000000000E+00 -0.00000000000E+00 -0.45593999997E+02  0.45594000000E+02  0.51100000000E-03 0.  1.
    9900012    2    1    2    0    0 -0.85419023922E+01 -0.48727339285E+01  0.43959138555E+02  0.46142317688E+02  0.99999993361E+01 0.  0.
        -12    1    1    2    0    0  0.85419023922E+01  0.48727339285E+01 -0.43959138555E+02  0.45045682312E+02  0.00000000000E+00 0.  1.
         11    1    3    3    0    0 -0.39138994265E+01 -0.38021135884E+01  0.18274340504E+02  0.19071607105E+02  0.51100000000E-03 0. -1.
        -11    1    3    3    0    0 -0.26861695934E+01 -0.40876524847E+01  0.16510086491E+02  0.17219389250E+02  0.51100000000E-03 0.  1.
        -12    1    3    3    0    0 -0.19418333722E+01  0.30170321446E+01  0.91747115598E+01  0.98513213334E+01  0.00000000000E+00 0.  1.
</event>
<event>
 7    1  0.5743890E-009  0.4614232E+02  0.7816164E-02  0.1320468E+00
        -11   -1    0    0    0    0  0.00000000000E+00  0.00000000000E+00  0.45593999997E+02  0.45594000000E+02  0.51100000000E-03 0. -1.
         11   -1    0    0    0    0 -0.00000000000E+00 -0.00000000000E+00 -0.45593999997E+02  0.45594000000E+02  0.51100000000E-03 0.  1.
    9900012    2    1    2    0    0  0.26706419726E+02  0.11692425549E+01  0.36256221156E+02  0.46142317018E+02  0.99999932269E+01 0.  0.
        -12    1    1    2    0    0 -0.26706419726E+02 -0.11692425549E+01 -0.36256221156E+02  0.45045682982E+02  0.00000000000E+00 0.  1.
         11    1    3    3    0    0  0.10423010107E+02  0.34945434886E+01  0.15845581984E+02  0.19285576023E+02  0.51100000000E-03 0. -1.
        -11    1    3    3    0    0  0.16625670723E+02 -0.16622347469E+01  0.19583663113E+02  0.25742878870E+02  0.51100000000E-03 0.  1.
         12    1    3    3    0    0 -0.34226110310E+00 -0.66306618678E+00  0.82697605868E+00  0.11138621245E+01  0.00000000000E+00 0. -1.
</event>
<event>
 7    1  0.5767023E-009  0.4614232E+02  0.7816164E-02  0.1320468E+00
        -11   -1    0    0    0    0  0.00000000000E+00  0.00000000000E+00  0.45593999997E+02  0.45594000000E+02  0.51100000000E-03 0. -1.
         11   -1    0    0    0    0 -0.00000000000E+00 -0.00000000000E+00 -0.45593999997E+02  0.45594000000E+02  0.51100000000E-03 0.  1.
    9900012    2    1    2    0    0  0.26596263742E+02  0.48531814319E+01  0.36030527431E+02  0.46142317388E+02  0.99999965945E+01 0.  0.
        -12    1    1    2    0    0 -0.26596263742E+02 -0.48531814319E+01 -0.36030527431E+02  0.45045682612E+02  0.00000000000E+00 0.  1.
         11    1    3    3    0    0  0.95091412992E+01  0.34275972140E+01  0.14053529051E+02  0.17311090952E+02  0.51100000000E-03 0. -1.
        -11    1    3    3    0    0  0.16350269710E+02  0.10393180721E+01  0.22511742205E+02  0.27842234806E+02  0.51100000000E-03 0.  1.
        -12    1    3    3    0    0  0.73685273303E+00  0.38626614576E+00 -0.53474382441E+00  0.98899162953E+00  0.00000000000E+00 0.  1.
</event>
<event>
 7    1  0.5743890E-009  0.4614232E+02  0.7816164E-02  0.1320468E+00
        -11   -1    0    0    0    0  0.00000000000E+00  0.00000000000E+00  0.45593999997E+02  0.45594000000E+02  0.51100000000E-03 0. -1.
         11   -1    0    0    0    0 -0.00000000000E+00 -0.00000000000E+00 -0.45593999997E+02  0.45594000000E+02  0.51100000000E-03 0.  1.
    9900012    2    1    2    0    0 -0.28995709112E+02 -0.19347229002E+01  0.34418297948E+02  0.46142317263E+02  0.99999954583E+01 0.  0.
        -12    1    1    2    0    0  0.28995709112E+02  0.19347229002E+01 -0.34418297948E+02  0.45045682737E+02  0.00000000000E+00 0.  1.
         11    1    3    3    0    0 -0.23595387309E+01  0.21983288783E+00  0.13901091366E+01  0.27473902515E+01  0.51100000000E-03 0.  1.
        -11    1    3    3    0    0 -0.17386083133E+02 -0.52359125853E+01  0.24102502648E+02  0.30176502473E+02  0.51100000000E-03 0. -1.
         12    1    3    3    0    0 -0.92500872486E+01  0.30813567973E+01  0.89256861627E+01  0.13218424539E+02  0.00000000000E+00 0. -1.
</event>
<event>
 7    1  0.5743890E-009  0.4614232E+02  0.7816164E-02  0.1320468E+00
        -11   -1    0    0    0    0  0.00000000000E+00  0.00000000000E+00  0.45593999997E+02  0.45594000000E+02  0.51100000000E-03 0.  1.
         11   -1    0    0    0    0 -0.00000000000E+00 -0.00000000000E+00 -0.45593999997E+02  0.45594000000E+02  0.51100000000E-03 0. -1.
    9900012    2    1    2    0    0 -0.20181053837E+02  0.28977527515E+01 -0.40167669041E+02  0.46142317175E+02  0.99999946525E+01 0.  0.
         12    1    1    2    0    0  0.20181053837E+02 -0.28977527515E+01  0.40167669041E+02  0.45045682825E+02  0.00000000000E+00 0. -1.
         11    1    3    3    0    0 -0.59224015089E+01  0.35204982290E+01 -0.16290583966E+02  0.17687619219E+02  0.51100000000E-03 0. -1.
        -11    1    3    3    0    0 -0.11339611422E+02  0.19346899873E+01 -0.19139573118E+02  0.22330541237E+02  0.51100000000E-03 0.  1.
         12    1    3    3    0    0 -0.29190409064E+01 -0.25574354649E+01 -0.47375119575E+01  0.61241567189E+01  0.00000000000E+00 0. -1.
</event>
<event>
 7    1  0.5743890E-009  0.4614232E+02  0.7816164E-02  0.1320468E+00
        -11   -1    0    0    0    0  0.00000000000E+00  0.00000000000E+00  0.45593999997E+02  0.45594000000E+02  0.51100000000E-03 0. -1.
         11   -1    0    0    0    0 -0.00000000000E+00 -0.00000000000E+00 -0.45593999997E+02  0.45594000000E+02  0.51100000000E-03 0.  1.
    9900012    2    1    2    0    0  0.29195690553E+02 -0.17316104854E+02  0.29612120063E+02  0.46142317756E+02  0.99999999547E+01 0.  0.
        -12    1    1    2    0    0 -0.29195690553E+02  0.17316104854E+02 -0.29612120063E+02  0.45045682244E+02  0.00000000000E+00 0.  1.
         11    1    3    3    0    0  0.49903056140E+01 -0.13101066827E+01  0.81574372150E+01  0.96521143704E+01  0.51100000000E-03 0. -1.
        -11    1    3    3    0    0  0.44003595047E+01 -0.92958886562E+00  0.21179473220E+01  0.49712171899E+01  0.51100000000E-03 0.  1.
        -12    1    3    3    0    0  0.19805025434E+02 -0.15076409305E+02  0.19336735526E+02  0.31518986196E+02  0.00000000000E+00 0.  1.
</event>
<event>
 7    1  0.5743890E-009  0.4614232E+02  0.7816164E-02  0.1320468E+00
        -11   -1    0    0    0    0  0.00000000000E+00  0.00000000000E+00  0.45593999997E+02  0.45594000000E+02  0.51100000000E-03 0.  1.
         11   -1    0    0    0    0 -0.00000000000E+00 -0.00000000000E+00 -0.45593999997E+02  0.45594000000E+02  0.51100000000E-03 0. -1.
    9900012    2    1    2    0    0  0.65993257456E+01  0.40395070770E+02  0.18809590056E+02  0.46142317401E+02  0.99999967117E+01 0.  0.
        -12    1    1    2    0    0 -0.65993257456E+01 -0.40395070770E+02 -0.18809590056E+02  0.45045682599E+02  0.00000000000E+00 0.  1.
         11    1    3    3    0    0  0.17500625929E+01  0.16771211202E+02  0.31251405689E+01  0.17149424134E+02  0.51100000000E-03 0. -1.
        -11    1    3    3    0    0  0.22987597721E+01  0.41915838357E+01  0.28527387729E+01  0.55670270620E+01  0.51100000000E-03 0.  1.
         12    1    3    3    0    0  0.25505033806E+01  0.19432275731E+02  0.12831710714E+02  0.23425866205E+02  0.00000000000E+00 0. -1.
</event>
<event>
 7    1  0.5743890E-009  0.4614232E+02  0.7816164E-02  0.1320468E+00
        -11   -1    0    0    0    0  0.00000000000E+00  0.00000000000E+00  0.45593999997E+02  0.45594000000E+02  0.51100000000E-03 0. -1.
         11   -1    0    0    0    0 -0.00000000000E+00 -0.00000000000E+00 -0.45593999997E+02  0.45594000000E+02  0.51100000000E-03 0.  1.
    9900012    2    1    2    0    0 -0.87112286380E+01 -0.18717153162E+02 -0.40036184569E+02  0.46142318723E+02  0.10000008775E+02 0.  0.
         12    1    1    2    0    0  0.87112286380E+01  0.18717153162E+02  0.40036184569E+02  0.45045681277E+02  0.00000000000E+00 0. -1.
         11    1    3    3    0    0 -0.30638374294E+01 -0.20752284290E+01 -0.12649517840E+02  0.13179680371E+02  0.51100000000E-03 0. -1.
        -11    1    3    3    0    0 -0.38173681156E+01 -0.45294261625E+01 -0.11119833173E+02  0.12599154367E+02  0.51100000000E-03 0.  1.
         12    1    3    3    0    0 -0.18300230930E+01 -0.12112498570E+02 -0.16266833555E+02  0.20363483986E+02  0.00000000000E+00 0. -1.
</event>
<event>
 7    1  0.5743890E-009  0.4614232E+02  0.7816164E-02  0.1320468E+00
        -11   -1    0    0    0    0  0.00000000000E+00  0.00000000000E+00  0.45593999997E+02  0.45594000000E+02  0.51100000000E-03 0. -1.
         11   -1    0    0    0    0 -0.00000000000E+00 -0.00000000000E+00 -0.45593999997E+02  0.45594000000E+02  0.51100000000E-03 0.  1.
    9900012    2    1    2    0    0  0.33335013636E+02 -0.67516254988E+01  0.29534826299E+02  0.46142317127E+02  0.99999942140E+01 0.  0.
        -12    1    1    2    0    0 -0.33335013636E+02  0.67516254988E+01 -0.29534826299E+02  0.45045682873E+02  0.00000000000E+00 0.  1.
         11    1    3    3    0    0  0.73389925522E+01  0.20710309556E+01  0.67665619727E+01  0.10194917464E+02  0.51100000000E-03 0. -1.
        -11    1    3    3    0    0  0.35764204881E+01 -0.29377097784E+01  0.34313019927E+01  0.57614890328E+01  0.51100000000E-03 0.  1.
         12    1    3    3    0    0  0.22419600596E+02 -0.58849466760E+01  0.19336962334E+02  0.30185910630E+02  0.00000000000E+00 0. -1.
</event>
<event>
 7    1  0.5743890E-009  0.4614232E+02  0.7816164E-02  0.1320468E+00
        -11   -1    0    0    0    0  0.00000000000E+00  0.00000000000E+00  0.45593999997E+02  0.45594000000E+02  0.51100000000E-03 0. -1.
         11   -1    0    0    0    0 -0.00000000000E+00 -0.00000000000E+00 -0.45593999997E+02  0.45594000000E+02  0.51100000000E-03 0.  1.
    9900012    2    1    2    0    0  0.20661843178E+02  0.28472560237E+02  0.28133869966E+02  0.46142322192E+02  0.10000040403E+02 0.  0.
        -12    1    1    2    0    0 -0.20661843178E+02 -0.28472560237E+02 -0.28133869966E+02  0.45045677808E+02  0.00000000000E+00 0.  1.
         11    1    3    3    0    0 -0.20727038070E+00 -0.28635141571E+00  0.11157095161E+01  0.11703700823E+01  0.51100000000E-03 0. -1.
        -11    1    3    3    0    0  0.11142583153E+02  0.17948228176E+02  0.13193486708E+02  0.24907110346E+02  0.51100000000E-03 0.  1.
         12    1    3    3    0    0  0.97265304054E+01  0.10810683476E+02  0.13824673742E+02  0.20064841764E+02  0.00000000000E+00 0. -1.
</event>
<event>
 7    1  0.5743890E-009  0.4614232E+02  0.7816164E-02  0.1320468E+00
        -11   -1    0    0    0    0  0.00000000000E+00  0.00000000000E+00  0.45593999997E+02  0.45594000000E+02  0.51100000000E-03 0. -1.
         11   -1    0    0    0    0 -0.00000000000E+00 -0.00000000000E+00 -0.45593999997E+02  0.45594000000E+02  0.51100000000E-03 0.  1.
    9900012    2    1    2    0    0  0.20542998164E+02 -0.34702544566E+00  0.40087133868E+02  0.46142317610E+02  0.99999986196E+01 0.  0.
        -12    1    1    2    0    0 -0.20542998164E+02  0.34702544566E+00 -0.40087133868E+02  0.45045682390E+02  0.00000000000E+00 0.  1.
         11    1    3    3    0    0  0.78632191712E+01  0.40968092937E+01  0.19540743717E+02  0.21458208858E+02  0.51100000000E-03 0. -1.
        -11    1    3    3    0    0  0.77169248021E+01 -0.13775982436E+01  0.11368013669E+02  0.13808708860E+02  0.51100000000E-03 0.  1.
         12    1    3    3    0    0  0.49628541906E+01 -0.30662364958E+01  0.91783764824E+01  0.10875399892E+02  0.00000000000E+00 0. -1.
</event>
<event>
 7    1  0.5743890E-009  0.4614232E+02  0.7816164E-02  0.1320468E+00
        -11   -1    0    0    0    0  0.00000000000E+00  0.00000000000E+00  0.45593999997E+02  0.45594000000E+02  0.51100000000E-03 0. -1.
         11   -1    0    0    0    0 -0.00000000000E+00 -0.00000000000E+00 -0.45593999997E+02  0.45594000000E+02  0.51100000000E-03 0.  1.
    9900012    2    1    2    0    0 -0.28246664317E+02  0.96443206930E+01 -0.33737613025E+02  0.46142317639E+02  0.99999988911E+01 0.  0.
         12    1    1    2    0    0  0.28246664317E+02 -0.96443206930E+01  0.33737613025E+02  0.45045682361E+02  0.00000000000E+00 0. -1.
         11    1    3    3    0    0 -0.77201127554E+00 -0.30885655381E+00 -0.19156981622E+01  0.20883710135E+01  0.51100000000E-03 0. -1.
        -11    1    3    3    0    0 -0.22388732987E+02  0.42803496130E+01 -0.22708962328E+02  0.32175669812E+02  0.51100000000E-03 0.  1.
        -12    1    3    3    0    0 -0.50859200549E+01  0.56728276337E+01 -0.91129525350E+01  0.11878276814E+02  0.00000000000E+00 0.  1.
</event>
<event>
 7    1  0.5743890E-009  0.4614230E+02  0.7816164E-02  0.1320468E+00
        -11   -1    0    0    0    0  0.00000000000E+00  0.00000000000E+00  0.45593999997E+02  0.45594000000E+02  0.51100000000E-03 0. -1.
         11   -1    0    0    0    0 -0.00000000000E+00 -0.00000000000E+00 -0.45593999997E+02  0.45594000000E+02  0.51100000000E-03 0.  1.
    9900012    2    1    2    0    0 -0.80804144974E+01 -0.15418727579E+02  0.41546171955E+02  0.46142304726E+02  0.99998811321E+01 0.  0.
        -12    1    1    2    0    0  0.80804144974E+01  0.15418727579E+02 -0.41546171955E+02  0.45045695274E+02  0.00000000000E+00 0.  1.
         11    1    3    3    0    0 -0.17703424597E+01 -0.18239425759E+01  0.95609853643E+01  0.98930945786E+01  0.51100000000E-03 0. -1.
        -11    1    3    3    0    0 -0.74334546844E+01 -0.92539407973E+01  0.17987555001E+02  0.21550958308E+02  0.51100000000E-03 0.  1.
        -12    1    3    3    0    0  0.11233826467E+01 -0.43408442062E+01  0.13997631590E+02  0.14698251839E+02  0.00000000000E+00 0.  1.
</event>
<event>
 7    1  0.5743890E-009  0.4614232E+02  0.7816164E-02  0.1320468E+00
        -11   -1    0    0    0    0  0.00000000000E+00  0.00000000000E+00  0.45593999997E+02  0.45594000000E+02  0.51100000000E-03 0. -1.
         11   -1    0    0    0    0 -0.00000000000E+00 -0.00000000000E+00 -0.45593999997E+02  0.45594000000E+02  0.51100000000E-03 0.  1.
    9900012    2    1    2    0    0  0.30675061873E+02  0.83314295148E+01  0.31917725706E+02  0.46142319265E+02  0.10000013710E+02 0.  0.
        -12    1    1    2    0    0 -0.30675061873E+02 -0.83314295148E+01 -0.31917725706E+02  0.45045680735E+02  0.00000000000E+00 0.  1.
         11    1    3    3    0    0  0.18683168009E+02  0.53448307195E+01  0.21404169476E+02  0.28909625620E+02  0.51100000000E-03 0. -1.
        -11    1    3    3    0    0  0.11394987592E+02  0.12347724289E+01  0.75041056244E+01  0.13699708269E+02  0.51100000000E-03 0.  1.
        -12    1    3    3    0    0  0.59690627180E+00  0.17518263664E+01  0.30094506060E+01  0.35329853757E+01  0.00000000000E+00 0.  1.
</event>
<event>
 7    1  0.5743890E-009  0.4614232E+02  0.7816164E-02  0.1320468E+00
        -11   -1    0    0    0    0  0.00000000000E+00  0.00000000000E+00  0.45593999997E+02  0.45594000000E+02  0.51100000000E-03 0. -1.
         11   -1    0    0    0    0 -0.00000000000E+00 -0.00000000000E+00 -0.45593999997E+02  0.45594000000E+02  0.51100000000E-03 0.  1.
    9900012    2    1    2    0    0  0.88991795318E+01  0.19009909362E+02  0.39856510997E+02  0.46142317419E+02  0.99999968807E+01 0.  0.
        -12    1    1    2    0    0 -0.88991795318E+01 -0.19009909362E+02 -0.39856510997E+02  0.45045682581E+02  0.00000000000E+00 0.  1.
         11    1    3    3    0    0  0.42663083128E+01  0.43584354902E+01  0.18398245461E+02  0.19382796053E+02  0.51100000000E-03 0. -1.
        -11    1    3    3    0    0  0.62809685106E+00 -0.11950654565E+00  0.13118331496E+01  0.14593470945E+01  0.51100000000E-03 0.  1.
        -12    1    3    3    0    0  0.40047743680E+01  0.14770980418E+02  0.20146432387E+02  0.25300174271E+02  0.00000000000E+00 0.  1.
</event>
<event>
 7    1  0.5743890E-009  0.4614232E+02  0.7816164E-02  0.1320468E+00
        -11   -1    0    0    0    0  0.00000000000E+00  0.00000000000E+00  0.45593999997E+02  0.45594000000E+02  0.51100000000E-03 0. -1.
         11   -1    0    0    0    0 -0.00000000000E+00 -0.00000000000E+00 -0.45593999997E+02  0.45594000000E+02  0.51100000000E-03 0.  1.
    9900012    2    1    2    0    0  0.91647033727E+01  0.19092844594E+02 -0.39756572462E+02  0.46142317005E+02  0.99999931036E+01 0.  0.
         12    1    1    2    0    0 -0.91647033727E+01 -0.19092844594E+02  0.39756572462E+02  0.45045682995E+02  0.00000000000E+00 0. -1.
         11    1    3    3    0    0  0.21163100050E+01  0.17152993541E+01 -0.45153965129E+01  0.52735022367E+01  0.51100000000E-03 0. -1.
        -11    1    3    3    0    0  0.74643364376E+01  0.76830063344E+01 -0.21816614167E+02  0.24304517250E+02  0.51100000000E-03 0.  1.
         12    1    3    3    0    0 -0.41594306995E+00  0.96945389058E+01 -0.13424561782E+02  0.16564297518E+02  0.00000000000E+00 0. -1.
</event>
<event>
 7    1  0.5743890E-009  0.4614232E+02  0.7816164E-02  0.1320468E+00
        -11   -1    0    0    0    0  0.00000000000E+00  0.00000000000E+00  0.45593999997E+02  0.45594000000E+02  0.51100000000E-03 0. -1.
         11   -1    0    0    0    0 -0.00000000000E+00 -0.00000000000E+00 -0.45593999997E+02  0.45594000000E+02  0.51100000000E-03 0.  1.
    9900012    2    1    2    0    0  0.20938905738E+02  0.27257207095E+02 -0.29115642043E+02  0.46142315149E+02  0.99999761810E+01 0.  0.
         12    1    1    2    0    0 -0.20938905738E+02 -0.27257207095E+02  0.29115642043E+02  0.45045684851E+02  0.00000000000E+00 0. -1.
         11    1    3    3    0    0  0.10494454238E+01  0.29469493557E+01 -0.89994018882E+00  0.32551096460E+01  0.51100000000E-03 0. -1.
        -11    1    3    3    0    0  0.13001743074E+02  0.19652819140E+02 -0.23718967859E+02  0.33434533938E+02  0.51100000000E-03 0.  1.
        -12    1    3    3    0    0  0.68877172404E+01  0.46574385991E+01 -0.44967339949E+01  0.94526715647E+01  0.00000000000E+00 0.  1.
</event>
<event>
 7    1  0.5743890E-009  0.4614232E+02  0.7816164E-02  0.1320468E+00
        -11   -1    0    0    0    0  0.00000000000E+00  0.00000000000E+00  0.45593999997E+02  0.45594000000E+02  0.51100000000E-03 0.  1.
         11   -1    0    0    0    0 -0.00000000000E+00 -0.00000000000E+00 -0.45593999997E+02  0.45594000000E+02  0.51100000000E-03 0. -1.
    9900012    2    1    2    0    0  0.38938456169E+01 -0.39610144200E+02 -0.21094742817E+02  0.46142315060E+02  0.99999753673E+01 0.  0.
         12    1    1    2    0    0 -0.38938456169E+01  0.39610144200E+02  0.21094742817E+02  0.45045684940E+02  0.00000000000E+00 0. -1.
         11    1    3    3    0    0 -0.34466841373E+00 -0.15923763383E+02 -0.89161475332E+01  0.18253293502E+02  0.51100000000E-03 0.  1.
        -11    1    3    3    0    0 -0.13659888171E+01 -0.10443900263E+01 -0.12773663277E+01  0.21420413095E+01  0.51100000000E-03 0. -1.
         12    1    3    3    0    0  0.56045028477E+01 -0.22641990791E+02 -0.10901228956E+02  0.25746980248E+02  0.00000000000E+00 0. -1.
</event>
<event>
 7    1  0.5743890E-009  0.4614232E+02  0.7816164E-02  0.1320468E+00
        -11   -1    0    0    0    0  0.00000000000E+00  0.00000000000E+00  0.45593999997E+02  0.45594000000E+02  0.51100000000E-03 0.  1.
         11   -1    0    0    0    0 -0.00000000000E+00 -0.00000000000E+00 -0.45593999997E+02  0.45594000000E+02  0.51100000000E-03 0. -1.
    9900012    2    1    2    0    0 -0.59829034257E+01  0.44202143152E+02 -0.62840186899E+01  0.46142317815E+02  0.10000000491E+02 0.  0.
         12    1    1    2    0    0  0.59829034257E+01 -0.44202143152E+02  0.62840186899E+01  0.45045682185E+02  0.00000000000E+00 0. -1.
         11    1    3    3    0    0 -0.43770202741E+00  0.83429224097E+01 -0.13069362983E+01  0.84560049757E+01  0.51100000000E-03 0. -1.
        -11    1    3    3    0    0 -0.42755450249E+01  0.32127012506E+02 -0.15247941433E+01  0.32446112483E+02  0.51100000000E-03 0.  1.
         12    1    3    3    0    0 -0.12696563733E+01  0.37322082359E+01 -0.34522882483E+01  0.52402003560E+01  0.00000000000E+00 0. -1.
</event>
<event>
 7    1  0.5743890E-009  0.4614231E+02  0.7816164E-02  0.1320468E+00
        -11   -1    0    0    0    0  0.00000000000E+00  0.00000000000E+00  0.45593999997E+02  0.45594000000E+02  0.51100000000E-03 0. -1.
         11   -1    0    0    0    0 -0.00000000000E+00 -0.00000000000E+00 -0.45593999997E+02  0.45594000000E+02  0.51100000000E-03 0.  1.
    9900012    2    1    2    0    0  0.23625484888E+02 -0.22268214045E+02 -0.31226231618E+02  0.46142307265E+02  0.99999042838E+01 0.  0.
         12    1    1    2    0    0 -0.23625484888E+02  0.22268214045E+02  0.31226231618E+02  0.45045692735E+02  0.00000000000E+00 0. -1.
         11    1    3    3    0    0  0.12687636157E+01  0.22251700488E+00 -0.19458048302E+01  0.23335448632E+01  0.51100000000E-03 0. -1.
        -11    1    3    3    0    0  0.42141433763E+01 -0.86405615042E+01 -0.68264474412E+01  0.11790618832E+02  0.51100000000E-03 0.  1.
        -12    1    3    3    0    0  0.18142577896E+02 -0.13850169546E+02 -0.22453979347E+02  0.32018143570E+02  0.00000000000E+00 0.  1.
</event>
<event>
 7    1  0.5743890E-009  0.4614232E+02  0.7816164E-02  0.1320468E+00
        -11   -1    0    0    0    0  0.00000000000E+00  0.00000000000E+00  0.45593999997E+02  0.45594000000E+02  0.51100000000E-03 0. -1.
         11   -1    0    0    0    0 -0.00000000000E+00 -0.00000000000E+00 -0.45593999997E+02  0.45594000000E+02  0.51100000000E-03 0.  1.
    9900012    2    1    2    0    0  0.42826631645E+02  0.43981467510E+01  0.13253276568E+02  0.46142318601E+02  0.10000007659E+02 0.  0.
        -12    1    1    2    0    0 -0.42826631645E+02 -0.43981467510E+01 -0.13253276568E+02  0.45045681399E+02  0.00000000000E+00 0.  1.
         11    1    3    3    0    0  0.29071179520E+02  0.25518913525E+01  0.11592532430E+02  0.31401153428E+02  0.51100000000E-03 0. -1.
        -11    1    3    3    0    0  0.40113513010E+01  0.20237476889E+01  0.21547924798E+01  0.49829333590E+01  0.51100000000E-03 0.  1.
         12    1    3    3    0    0  0.97441008239E+01 -0.17749229039E+00 -0.49404834224E+00  0.97582318144E+01  0.00000000000E+00 0. -1.
</event>
<event>
 7    1  0.5743890E-009  0.4614232E+02  0.7816164E-02  0.1320468E+00
        -11   -1    0    0    0    0  0.00000000000E+00  0.00000000000E+00  0.45593999997E+02  0.45594000000E+02  0.51100000000E-03 0. -1.
         11   -1    0    0    0    0 -0.00000000000E+00 -0.00000000000E+00 -0.45593999997E+02  0.45594000000E+02  0.51100000000E-03 0.  1.
    9900012    2    1    2    0    0 -0.22205341324E+01 -0.23726105168E+02 -0.38226361962E+02  0.46142316665E+02  0.99999900075E+01 0.  0.
         12    1    1    2    0    0  0.22205341324E+01  0.23726105168E+02  0.38226361962E+02  0.45045683335E+02  0.00000000000E+00 0. -1.
         11    1    3    3    0    0  0.23161305151E+01 -0.11533739974E+02 -0.11730522628E+02  0.16613150807E+02  0.51100000000E-03 0. -1.
        -11    1    3    3    0    0 -0.89647545115E+00 -0.17272194347E+01 -0.35599557071E+01  0.40571221460E+01  0.51100000000E-03 0.  1.
         12    1    3    3    0    0 -0.36401891964E+01 -0.10465145759E+02 -0.22935883627E+02  0.25472043712E+02  0.00000000000E+00 0. -1.
</event>
<event>
 7    1  0.5743890E-009  0.4614232E+02  0.7816164E-02  0.1320468E+00
        -11   -1    0    0    0    0  0.00000000000E+00  0.00000000000E+00  0.45593999997E+02  0.45594000000E+02  0.51100000000E-03 0.  1.
         11   -1    0    0    0    0 -0.00000000000E+00 -0.00000000000E+00 -0.45593999997E+02  0.45594000000E+02  0.51100000000E-03 0. -1.
    9900012    2    1    2    0    0 -0.30899496335E+02  0.27542071271E+02  0.17769889115E+02  0.46142317379E+02  0.99999965174E+01 0.  0.
        -12    1    1    2    0    0  0.30899496335E+02 -0.27542071271E+02 -0.17769889115E+02  0.45045682621E+02  0.00000000000E+00 0.  1.
         11    1    3    3    0    0 -0.25074404234E+02  0.19660807547E+02  0.15016783294E+02  0.35224662977E+02  0.51100000000E-03 0. -1.
        -11    1    3    3    0    0 -0.55044535288E+01  0.79150165220E+01  0.33771333512E+01  0.10215259425E+02  0.51100000000E-03 0.  1.
        -12    1    3    3    0    0 -0.32063857177E+00 -0.33752798516E-01 -0.62402752995E+00  0.70239497667E+00  0.00000000000E+00 0.  1.
</event>
<event>
 7    1  0.5743890E-009  0.4614232E+02  0.7816164E-02  0.1320468E+00
        -11   -1    0    0    0    0  0.00000000000E+00  0.00000000000E+00  0.45593999997E+02  0.45594000000E+02  0.51100000000E-03 0. -1.
         11   -1    0    0    0    0 -0.00000000000E+00 -0.00000000000E+00 -0.45593999997E+02  0.45594000000E+02  0.51100000000E-03 0.  1.
    9900012    2    1    2    0    0 -0.10277252059E+02  0.13293967087E+02 -0.41794281224E+02  0.46142318588E+02  0.10000007540E+02 0.  0.
         12    1    1    2    0    0  0.10277252059E+02 -0.13293967087E+02  0.41794281224E+02  0.45045681412E+02  0.00000000000E+00 0. -1.
         11    1    3    3    0    0 -0.31339208445E+01  0.21808132840E+01 -0.18083268277E+02  0.18481937081E+02  0.51100000000E-03 0. -1.
        -11    1    3    3    0    0 -0.64157852469E+01  0.97468017829E+01 -0.23300205651E+02  0.26058818641E+02  0.51100000000E-03 0.  1.
        -12    1    3    3    0    0 -0.72754596788E+00  0.13663520201E+01 -0.41080729674E+00  0.16015628658E+01  0.00000000000E+00 0.  1.
</event>
<event>
 7    1  0.5743890E-009  0.4614232E+02  0.7816164E-02  0.1320468E+00
        -11   -1    0    0    0    0  0.00000000000E+00  0.00000000000E+00  0.45593999997E+02  0.45594000000E+02  0.51100000000E-03 0. -1.
         11   -1    0    0    0    0 -0.00000000000E+00 -0.00000000000E+00 -0.45593999997E+02  0.45594000000E+02  0.51100000000E-03 0.  1.
    9900012    2    1    2    0    0  0.29997805013E+02 -0.23507293043E+02 -0.24013586094E+02  0.46142318199E+02  0.10000003993E+02 0.  0.
         12    1    1    2    0    0 -0.29997805013E+02  0.23507293043E+02  0.24013586094E+02  0.45045681801E+02  0.00000000000E+00 0. -1.
         11    1    3    3    0    0  0.53875784604E+01 -0.85647811787E+01 -0.57671178261E+01  0.11646507055E+02  0.51100000000E-03 0. -1.
        -11    1    3    3    0    0  0.17896108960E+02 -0.83896810984E+01 -0.13852046899E+02  0.24135796411E+02  0.51100000000E-03 0.  1.
        -12    1    3    3    0    0  0.67141175930E+01 -0.65528307662E+01 -0.43944213692E+01  0.10360014733E+02  0.00000000000E+00 0.  1.
</event>
<event>
 7    1  0.5743890E-009  0.4614232E+02  0.7816164E-02  0.1320468E+00
        -11   -1    0    0    0    0  0.00000000000E+00  0.00000000000E+00  0.45593999997E+02  0.45594000000E+02  0.51100000000E-03 0. -1.
         11   -1    0    0    0    0 -0.00000000000E+00 -0.00000000000E+00 -0.45593999997E+02  0.45594000000E+02  0.51100000000E-03 0.  1.
    9900012    2    1    2    0    0  0.17134583608E+02  0.25834594230E+02  0.32681695804E+02  0.46142318131E+02  0.10000003372E+02 0.  0.
        -12    1    1    2    0    0 -0.17134583608E+02 -0.25834594230E+02 -0.32681695804E+02  0.45045681869E+02  0.00000000000E+00 0.  1.
         11    1    3    3    0    0  0.44186768667E+01  0.52525308296E+01  0.74102193487E+01  0.10100749300E+02  0.51100000000E-03 0.  1.
        -11    1    3    3    0    0  0.13909249245E+02  0.17334026088E+02  0.21478145651E+02  0.30907060938E+02  0.51100000000E-03 0. -1.
        -12    1    3    3    0    0 -0.11933425030E+01  0.32480373116E+01  0.37933308042E+01  0.51345078924E+01  0.00000000000E+00 0.  1.
</event>
<event>
 7    1  0.5743890E-009  0.4614232E+02  0.7816164E-02  0.1320468E+00
        -11   -1    0    0    0    0  0.00000000000E+00  0.00000000000E+00  0.45593999997E+02  0.45594000000E+02  0.51100000000E-03 0.  1.
         11   -1    0    0    0    0 -0.00000000000E+00 -0.00000000000E+00 -0.45593999997E+02  0.45594000000E+02  0.51100000000E-03 0. -1.
    9900012    2    1    2    0    0 -0.27744655723E+02 -0.34371674164E+02 -0.88281113535E+01  0.46142318120E+02  0.10000003269E+02 0.  0.
         12    1    1    2    0    0  0.27744655723E+02  0.34371674164E+02  0.88281113535E+01  0.45045681880E+02  0.00000000000E+00 0. -1.
         11    1    3    3    0    0 -0.27012975499E+01 -0.20229460249E+01  0.16561188516E+01  0.37592617606E+01  0.51100000000E-03 0. -1.
        -11    1    3    3    0    0 -0.16683513752E+02 -0.20848420979E+02 -0.51284796108E+01  0.27190027433E+02  0.51100000000E-03 0.  1.
        -12    1    3    3    0    0 -0.83598444210E+01 -0.11500307160E+02 -0.53557505942E+01  0.15193028926E+02  0.00000000000E+00 0.  1.
</event>
<event>
 7    1  0.5743890E-009  0.4614232E+02  0.7816164E-02  0.1320468E+00
        -11   -1    0    0    0    0  0.00000000000E+00  0.00000000000E+00  0.45593999997E+02  0.45594000000E+02  0.51100000000E-03 0.  1.
         11   -1    0    0    0    0 -0.00000000000E+00 -0.00000000000E+00 -0.45593999997E+02  0.45594000000E+02  0.51100000000E-03 0. -1.
    9900012    2    1    2    0    0 -0.44090935280E+02 -0.50940015180E+01  0.76911778454E+01  0.46142316056E+02  0.99999844535E+01 0.  0.
        -12    1    1    2    0    0  0.44090935280E+02  0.50940015180E+01 -0.76911778454E+01  0.45045683944E+02  0.00000000000E+00 0.  1.
         11    1    3    3    0    0 -0.26794275701E+02 -0.24821389410E+01  0.39309919137E+01  0.27194611998E+02  0.51100000000E-03 0. -1.
        -11    1    3    3    0    0 -0.16446346043E+02 -0.15052961584E+01  0.19026145808E+01  0.16624324263E+02  0.51100000000E-03 0.  1.
        -12    1    3    3    0    0 -0.85031353593E+00 -0.11065664186E+01  0.18575713509E+01  0.23233797950E+01  0.00000000000E+00 0.  1.
</event>
<event>
 7    1  0.8232301E-009  0.4614232E+02  0.7816164E-02  0.1320468E+00
        -11   -1    0    0    0    0  0.00000000000E+00  0.00000000000E+00  0.45593999997E+02  0.45594000000E+02  0.51100000000E-03 0. -1.
         11   -1    0    0    0    0 -0.00000000000E+00 -0.00000000000E+00 -0.45593999997E+02  0.45594000000E+02  0.51100000000E-03 0.  1.
    9900012    2    1    2    0    0 -0.11381914824E+02 -0.13292462973E+02  0.41507539328E+02  0.46142318986E+02  0.10000011169E+02 0.  0.
        -12    1    1    2    0    0  0.11381914824E+02  0.13292462973E+02 -0.41507539328E+02  0.45045681014E+02  0.00000000000E+00 0.  1.
         11    1    3    3    0    0 -0.52252948705E+01 -0.84655183858E+01  0.28234799268E+02  0.29936142003E+02  0.51100000000E-03 0. -1.
        -11    1    3    3    0    0 -0.48945040779E+01 -0.30420775179E+01  0.12700048479E+02  0.13946384385E+02  0.51100000000E-03 0.  1.
        -12    1    3    3    0    0 -0.12621158757E+01 -0.17848670696E+01  0.57269158086E+00  0.22597925981E+01  0.00000000000E+00 0.  1.
</event>
<event>
 7    1  0.5743890E-009  0.4614232E+02  0.7816164E-02  0.1320468E+00
        -11   -1    0    0    0    0  0.00000000000E+00  0.00000000000E+00  0.45593999997E+02  0.45594000000E+02  0.51100000000E-03 0. -1.
         11   -1    0    0    0    0 -0.00000000000E+00 -0.00000000000E+00 -0.45593999997E+02  0.45594000000E+02  0.51100000000E-03 0.  1.
    9900012    2    1    2    0    0  0.11447466613E+02 -0.64321402941E+01 -0.43089404437E+02  0.46142315463E+02  0.99999790480E+01 0.  0.
         12    1    1    2    0    0 -0.11447466613E+02  0.64321402941E+01  0.43089404437E+02  0.45045684537E+02  0.00000000000E+00 0. -1.
         11    1    3    3    0    0  0.45423769607E+01  0.34257391178E+00 -0.10640565843E+02  0.11574635505E+02  0.51100000000E-03 0. -1.
        -11    1    3    3    0    0  0.16779002800E+01 -0.20085740677E+00 -0.16092931886E+02  0.16181413720E+02  0.51100000000E-03 0.  1.
        -12    1    3    3    0    0  0.52271893722E+01 -0.65738567991E+01 -0.16355906708E+02  0.18386266238E+02  0.00000000000E+00 0.  1.
</event>
<event>
 7    1  0.5743890E-009  0.4614232E+02  0.7816164E-02  0.1320468E+00
        -11   -1    0    0    0    0  0.00000000000E+00  0.00000000000E+00  0.45593999997E+02  0.45594000000E+02  0.51100000000E-03 0. -1.
         11   -1    0    0    0    0 -0.00000000000E+00 -0.00000000000E+00 -0.45593999997E+02  0.45594000000E+02  0.51100000000E-03 0.  1.
    9900012    2    1    2    0    0  0.28179720194E+01 -0.20462636852E+02 -0.40030651010E+02  0.46142317704E+02  0.99999994805E+01 0.  0.
         12    1    1    2    0    0 -0.28179720194E+01  0.20462636852E+02  0.40030651010E+02  0.45045682296E+02  0.00000000000E+00 0. -1.
         11    1    3    3    0    0  0.35760987936E+01 -0.36085785576E+01 -0.10699622901E+02  0.11844503041E+02  0.51100000000E-03 0. -1.
        -11    1    3    3    0    0  0.22646444953E+01 -0.85438663934E+01 -0.16437192777E+02  0.18663000142E+02  0.51100000000E-03 0.  1.
        -12    1    3    3    0    0 -0.30227712696E+01 -0.83101919008E+01 -0.12893835331E+02  0.15634814522E+02  0.00000000000E+00 0.  1.
</event>
<event>
 7    1  0.5743890E-009  0.4614232E+02  0.7816164E-02  0.1320468E+00
        -11   -1    0    0    0    0  0.00000000000E+00  0.00000000000E+00  0.45593999997E+02  0.45594000000E+02  0.51100000000E-03 0. -1.
         11   -1    0    0    0    0 -0.00000000000E+00 -0.00000000000E+00 -0.45593999997E+02  0.45594000000E+02  0.51100000000E-03 0.  1.
    9900012    2    1    2    0    0 -0.30396279307E+02 -0.72222946163E+01  0.32450243873E+02  0.46142315826E+02  0.99999823571E+01 0.  0.
        -12    1    1    2    0    0  0.30396279307E+02  0.72222946163E+01 -0.32450243873E+02  0.45045684174E+02  0.00000000000E+00 0.  1.
         11    1    3    3    0    0 -0.64624954255E+01 -0.43296233880E+01  0.55777702820E+01  0.95718863024E+01  0.51100000000E-03 0. -1.
        -11    1    3    3    0    0 -0.10494497657E+02 -0.15990104447E+01  0.76700924791E+01  0.13096626832E+02  0.51100000000E-03 0.  1.
         12    1    3    3    0    0 -0.13439286225E+02 -0.12936607836E+01  0.19202381112E+02  0.23473802692E+02  0.00000000000E+00 0. -1.
</event>
<event>
 7    1  0.5743890E-009  0.4614232E+02  0.7816164E-02  0.1320468E+00
        -11   -1    0    0    0    0  0.00000000000E+00  0.00000000000E+00  0.45593999997E+02  0.45594000000E+02  0.51100000000E-03 0. -1.
         11   -1    0    0    0    0 -0.00000000000E+00 -0.00000000000E+00 -0.45593999997E+02  0.45594000000E+02  0.51100000000E-03 0.  1.
    9900012    2    1    2    0    0  0.35622526150E+02 -0.23834670190E+02 -0.13858486176E+02  0.46142317504E+02  0.99999976596E+01 0.  0.
         12    1    1    2    0    0 -0.35622526150E+02  0.23834670190E+02  0.13858486176E+02  0.45045682496E+02  0.00000000000E+00 0. -1.
         11    1    3    3    0    0  0.10035019728E+02 -0.52264793766E+01 -0.45414804463E+00  0.11323601827E+02  0.51100000000E-03 0. -1.
        -11    1    3    3    0    0  0.78014592911E+01 -0.88759013458E+01 -0.40683167945E+01  0.12497823553E+02  0.51100000000E-03 0.  1.
         12    1    3    3    0    0  0.17786047131E+02 -0.97322894677E+01 -0.93360213366E+01  0.22320892124E+02  0.00000000000E+00 0. -1.
</event>
<event>
 7    1  0.5743890E-009  0.4614232E+02  0.7816164E-02  0.1320468E+00
        -11   -1    0    0    0    0  0.00000000000E+00  0.00000000000E+00  0.45593999997E+02  0.45594000000E+02  0.51100000000E-03 0. -1.
         11   -1    0    0    0    0 -0.00000000000E+00 -0.00000000000E+00 -0.45593999997E+02  0.45594000000E+02  0.51100000000E-03 0.  1.
    9900012    2    1    2    0    0  0.33951712210E+02  0.25224205476E+02 -0.15496262164E+02  0.46142318243E+02  0.10000004398E+02 0.  0.
         12    1    1    2    0    0 -0.33951712210E+02 -0.25224205476E+02  0.15496262164E+02  0.45045681757E+02  0.00000000000E+00 0. -1.
         11    1    3    3    0    0  0.59787107960E+01  0.13094957933E+01 -0.38399512885E+00  0.61324721390E+01  0.51100000000E-03 0. -1.
        -11    1    3    3    0    0  0.18561266441E+02  0.17864926270E+02 -0.11841991478E+02  0.28353288433E+02  0.51100000000E-03 0.  1.
        -12    1    3    3    0    0  0.94117349724E+01  0.60497834130E+01 -0.32702755565E+01  0.11656557672E+02  0.00000000000E+00 0.  1.
</event>
<event>
 7    1  0.5743890E-009  0.4614232E+02  0.7816164E-02  0.1320468E+00
        -11   -1    0    0    0    0  0.00000000000E+00  0.00000000000E+00  0.45593999997E+02  0.45594000000E+02  0.51100000000E-03 0. -1.
         11   -1    0    0    0    0 -0.00000000000E+00 -0.00000000000E+00 -0.45593999997E+02  0.45594000000E+02  0.51100000000E-03 0.  1.
    9900012    2    1    2    0    0 -0.38504254364E+02  0.12153134262E+02 -0.19970908735E+02  0.46142317940E+02  0.10000001635E+02 0.  0.
         12    1    1    2    0    0  0.38504254364E+02 -0.12153134262E+02  0.19970908735E+02  0.45045682060E+02  0.00000000000E+00 0. -1.
         11    1    3    3    0    0 -0.96474853201E+00  0.16229224773E+01 -0.26480547426E+01  0.32522009898E+01  0.51100000000E-03 0. -1.
        -11    1    3    3    0    0 -0.17874454896E+01 -0.53131167914E-01 -0.16880921322E+01  0.24591542463E+01  0.51100000000E-03 0.  1.
        -12    1    3    3    0    0 -0.35752060343E+02  0.10583342952E+02 -0.15634761860E+02  0.40430962704E+02  0.00000000000E+00 0.  1.
</event>
<event>
 7    1  0.5743890E-009  0.4614232E+02  0.7816164E-02  0.1320468E+00
        -11   -1    0    0    0    0  0.00000000000E+00  0.00000000000E+00  0.45593999997E+02  0.45594000000E+02  0.51100000000E-03 0. -1.
         11   -1    0    0    0    0 -0.00000000000E+00 -0.00000000000E+00 -0.45593999997E+02  0.45594000000E+02  0.51100000000E-03 0.  1.
    9900012    2    1    2    0    0  0.30661262438E+01  0.66571591917E+01 -0.44445410214E+02  0.46142318878E+02  0.10000010188E+02 0.  0.
         12    1    1    2    0    0 -0.30661262438E+01 -0.66571591917E+01  0.44445410214E+02  0.45045681122E+02  0.00000000000E+00 0. -1.
         11    1    3    3    0    0  0.77915133938E+00  0.35788834234E+00 -0.54185530305E+00  0.10142821628E+01  0.51100000000E-03 0. -1.
        -11    1    3    3    0    0  0.38462025040E+01  0.18912133309E+00 -0.22013975896E+02  0.22348247707E+02  0.51100000000E-03 0.  1.
        -12    1    3    3    0    0 -0.15592275996E+01  0.61101495163E+01 -0.21889579015E+02  0.22779789009E+02  0.00000000000E+00 0.  1.
</event>
<event>
 7    1  0.5743890E-009  0.4614232E+02  0.7816164E-02  0.1320468E+00
        -11   -1    0    0    0    0  0.00000000000E+00  0.00000000000E+00  0.45593999997E+02  0.45594000000E+02  0.51100000000E-03 0. -1.
         11   -1    0    0    0    0 -0.00000000000E+00 -0.00000000000E+00 -0.45593999997E+02  0.45594000000E+02  0.51100000000E-03 0.  1.
    9900012    2    1    2    0    0 -0.29994362583E+02  0.40547166353E+00 -0.33604870455E+02  0.46142317495E+02  0.99999975706E+01 0.  0.
         12    1    1    2    0    0  0.29994362583E+02 -0.40547166353E+00  0.33604870455E+02  0.45045682505E+02  0.00000000000E+00 0. -1.
         11    1    3    3    0    0 -0.97487621293E+01 -0.31917468435E+01 -0.11354053316E+02  0.15301638407E+02  0.51100000000E-03 0. -1.
        -11    1    3    3    0    0 -0.12002207062E+02 -0.76848189324E+00 -0.12432954234E+02  0.17298031391E+02  0.51100000000E-03 0.  1.
         12    1    3    3    0    0 -0.82433933926E+01  0.43657004003E+01 -0.98178629054E+01  0.13542647697E+02  0.00000000000E+00 0. -1.
</event>
<event>
 7    1  0.5743890E-009  0.4614232E+02  0.7816164E-02  0.1320468E+00
        -11   -1    0    0    0    0  0.00000000000E+00  0.00000000000E+00  0.45593999997E+02  0.45594000000E+02  0.51100000000E-03 0. -1.
         11   -1    0    0    0    0 -0.00000000000E+00 -0.00000000000E+00 -0.45593999997E+02  0.45594000000E+02  0.51100000000E-03 0.  1.
    9900012    2    1    2    0    0 -0.93656403301E+01 -0.27090260012E+02  0.34749331937E+02  0.46142317894E+02  0.10000001213E+02 0.  0.
        -12    1    1    2    0    0  0.93656403301E+01  0.27090260012E+02 -0.34749331937E+02  0.45045682106E+02  0.00000000000E+00 0.  1.
         11    1    3    3    0    0 -0.40087890865E+01 -0.14030988113E+02  0.13631238135E+02  0.19968717303E+02  0.51100000000E-03 0. -1.
        -11    1    3    3    0    0 -0.13699620646E+01 -0.83765995828E+01  0.16238129093E+02  0.18322692306E+02  0.51100000000E-03 0.  1.
         12    1    3    3    0    0 -0.39868891790E+01 -0.46826723163E+01  0.48799647091E+01  0.78509082856E+01  0.00000000000E+00 0. -1.
</event>
<event>
 7    1  0.5743890E-009  0.4614232E+02  0.7816164E-02  0.1320468E+00
        -11   -1    0    0    0    0  0.00000000000E+00  0.00000000000E+00  0.45593999997E+02  0.45594000000E+02  0.51100000000E-03 0.  1.
         11   -1    0    0    0    0 -0.00000000000E+00 -0.00000000000E+00 -0.45593999997E+02  0.45594000000E+02  0.51100000000E-03 0. -1.
    9900012    2    1    2    0    0 -0.94630053401E+01 -0.41824069277E+02 -0.13795369999E+02  0.46142317917E+02  0.10000001419E+02 0.  0.
         12    1    1    2    0    0  0.94630053401E+01  0.41824069277E+02  0.13795369999E+02  0.45045682083E+02  0.00000000000E+00 0. -1.
         11    1    3    3    0    0  0.68641629039E+00 -0.15207244891E+01 -0.24022337042E+01  0.29248072289E+01  0.51100000000E-03 0. -1.
        -11    1    3    3    0    0 -0.74185453638E+01 -0.23379397904E+02 -0.73248679681E+01  0.25598530283E+02  0.51100000000E-03 0.  1.
         12    1    3    3    0    0 -0.27308762667E+01 -0.16923946884E+02 -0.40682683265E+01  0.17618980405E+02  0.00000000000E+00 0. -1.
</event>
<event>
 7    1  0.7377764E-009  0.4614232E+02  0.7816164E-02  0.1320468E+00
        -11   -1    0    0    0    0  0.00000000000E+00  0.00000000000E+00  0.45593999997E+02  0.45594000000E+02  0.51100000000E-03 0. -1.
         11   -1    0    0    0    0 -0.00000000000E+00 -0.00000000000E+00 -0.45593999997E+02  0.45594000000E+02  0.51100000000E-03 0.  1.
    9900012    2    1    2    0    0  0.19510700605E+02 -0.18209649227E+01  0.40560204002E+02  0.46142317632E+02  0.99999988225E+01 0.  0.
        -12    1    1    2    0    0 -0.19510700605E+02  0.18209649227E+01 -0.40560204002E+02  0.45045682368E+02  0.00000000000E+00 0.  1.
         11    1    3    3    0    0  0.95628624937E+01 -0.15626690624E+01  0.22233650109E+02  0.24253359996E+02  0.51100000000E-03 0. -1.
        -11    1    3    3    0    0  0.90144533928E+01  0.21060738119E+01  0.12709049040E+02  0.15723099078E+02  0.51100000000E-03 0.  1.
        -12    1    3    3    0    0  0.93338471871E+00 -0.23643696721E+01  0.56175048534E+01  0.61658585580E+01  0.00000000000E+00 0.  1.
</event>
<event>
 7    1  0.6902017E-009  0.4614232E+02  0.7816164E-02  0.1320468E+00
        -11   -1    0    0    0    0  0.00000000000E+00  0.00000000000E+00  0.45593999997E+02  0.45594000000E+02  0.51100000000E-03 0. -1.
         11   -1    0    0    0    0 -0.00000000000E+00 -0.00000000000E+00 -0.45593999997E+02  0.45594000000E+02  0.51100000000E-03 0.  1.
    9900012    2    1    2    0    0  0.19533592002E+02  0.18681394808E+02  0.36035506026E+02  0.46142318487E+02  0.10000006617E+02 0.  0.
        -12    1    1    2    0    0 -0.19533592002E+02 -0.18681394808E+02 -0.36035506026E+02  0.45045681513E+02  0.00000000000E+00 0.  1.
         11    1    3    3    0    0  0.68672945850E+01  0.56379468598E+01  0.11889098425E+02  0.14842400120E+02  0.51100000000E-03 0. -1.
        -11    1    3    3    0    0  0.39195618402E+01  0.98157223228E+01  0.12076019170E+02  0.16048102971E+02  0.51100000000E-03 0.  1.
        -12    1    3    3    0    0  0.87467355771E+01  0.32277256252E+01  0.12070388431E+02  0.15251815395E+02  0.00000000000E+00 0.  1.
</event>
<event>
 7    1  0.7793838E-009  0.4614232E+02  0.7816164E-02  0.1320468E+00
        -11   -1    0    0    0    0  0.00000000000E+00  0.00000000000E+00  0.45593999997E+02  0.45594000000E+02  0.51100000000E-03 0. -1.
         11   -1    0    0    0    0 -0.00000000000E+00 -0.00000000000E+00 -0.45593999997E+02  0.45594000000E+02  0.51100000000E-03 0.  1.
    9900012    2    1    2    0    0 -0.28988399280E+02  0.14491660833E+02  0.31285428233E+02  0.46142317119E+02  0.99999941406E+01 0.  0.
        -12    1    1    2    0    0  0.28988399280E+02 -0.14491660833E+02 -0.31285428233E+02  0.45045682881E+02  0.00000000000E+00 0.  1.
         11    1    3    3    0    0 -0.21689055517E+02  0.12391107605E+02  0.21543637419E+02  0.32986102989E+02  0.51100000000E-03 0. -1.
        -11    1    3    3    0    0 -0.34022204847E+01  0.32312926986E+01  0.42719819693E+01  0.63455643514E+01  0.51100000000E-03 0.  1.
        -12    1    3    3    0    0 -0.38971232784E+01 -0.11307394710E+01  0.54698088451E+01  0.68106497782E+01  0.00000000000E+00 0.  1.
</event>
<event>
 7    1  0.5743890E-009  0.4614232E+02  0.7816164E-02  0.1320468E+00
        -11   -1    0    0    0    0  0.00000000000E+00  0.00000000000E+00  0.45593999997E+02  0.45594000000E+02  0.51100000000E-03 0. -1.
         11   -1    0    0    0    0 -0.00000000000E+00 -0.00000000000E+00 -0.45593999997E+02  0.45594000000E+02  0.51100000000E-03 0.  1.
    9900012    2    1    2    0    0  0.36210921182E+02 -0.85456430353E+01 -0.25393993561E+02  0.46142315005E+02  0.99999748657E+01 0.  0.
         12    1    1    2    0    0 -0.36210921182E+02  0.85456430353E+01  0.25393993561E+02  0.45045684995E+02  0.00000000000E+00 0. -1.
         11    1    3    3    0    0  0.96069062909E+01  0.13104652678E+01 -0.61686074295E+01  0.11491809500E+02  0.51100000000E-03 0. -1.
        -11    1    3    3    0    0  0.11141473394E+02 -0.15656811981E+01 -0.67197107533E+01  0.13104896027E+02  0.51100000000E-03 0.  1.
        -12    1    3    3    0    0  0.15462541497E+02 -0.82904271051E+01 -0.12505675378E+02  0.21545609478E+02  0.00000000000E+00 0.  1.
</event>
<event>
 7    1  0.5743890E-009  0.4614232E+02  0.7816164E-02  0.1320468E+00
        -11   -1    0    0    0    0  0.00000000000E+00  0.00000000000E+00  0.45593999997E+02  0.45594000000E+02  0.51100000000E-03 0. -1.
         11   -1    0    0    0    0 -0.00000000000E+00 -0.00000000000E+00 -0.45593999997E+02  0.45594000000E+02  0.51100000000E-03 0.  1.
    9900012    2    1    2    0    0  0.30875761040E+02 -0.76164357793E+00 -0.32790558852E+02  0.46142317959E+02  0.10000001802E+02 0.  0.
         12    1    1    2    0    0 -0.30875761040E+02  0.76164357793E+00  0.32790558852E+02  0.45045682041E+02  0.00000000000E+00 0. -1.
         11    1    3    3    0    0  0.23876208651E+01 -0.13588447399E+00  0.27362369199E+00  0.24070870719E+01  0.51100000000E-03 0. -1.
        -11    1    3    3    0    0  0.17221772192E+02  0.96750165163E+00 -0.19959618583E+02  0.26380141606E+02  0.51100000000E-03 0.  1.
         12    1    3    3    0    0  0.11266367983E+02 -0.15932607556E+01 -0.13104563961E+02  0.17355089281E+02  0.00000000000E+00 0. -1.
</event>
<event>
 7    1  0.5743890E-009  0.4614232E+02  0.7816164E-02  0.1320468E+00
        -11   -1    0    0    0    0  0.00000000000E+00  0.00000000000E+00  0.45593999997E+02  0.45594000000E+02  0.51100000000E-03 0. -1.
         11   -1    0    0    0    0 -0.00000000000E+00 -0.00000000000E+00 -0.45593999997E+02  0.45594000000E+02  0.51100000000E-03 0.  1.
    9900012    2    1    2    0    0 -0.42932844061E+00 -0.37552316443E+02  0.24874739379E+02  0.46142318161E+02  0.10000003647E+02 0.  0.
        -12    1    1    2    0    0  0.42932844061E+00  0.37552316443E+02 -0.24874739379E+02  0.45045681839E+02  0.00000000000E+00 0.  1.
         11    1    3    3    0    0  0.45187108587E+00 -0.26769658779E+02  0.18836453401E+02  0.32735772415E+02  0.51100000000E-03 0. -1.
        -11    1    3    3    0    0 -0.10252242451E+01 -0.17948038190E+01  0.35021340770E+01  0.40666139300E+01  0.51100000000E-03 0.  1.
         12    1    3    3    0    0  0.14402471867E+00 -0.89878538456E+01  0.25361519015E+01  0.93399318165E+01  0.00000000000E+00 0. -1.
</event>
<event>
 7    1  0.5743890E-009  0.4614232E+02  0.7816164E-02  0.1320468E+00
        -11   -1    0    0    0    0  0.00000000000E+00  0.00000000000E+00  0.45593999997E+02  0.45594000000E+02  0.51100000000E-03 0. -1.
         11   -1    0    0    0    0 -0.00000000000E+00 -0.00000000000E+00 -0.45593999997E+02  0.45594000000E+02  0.51100000000E-03 0.  1.
    9900012    2    1    2    0    0  0.22915105746E+02  0.24671082180E+02  0.29922381874E+02  0.46142319804E+02  0.10000018630E+02 0.  0.
        -12    1    1    2    0    0 -0.22915105746E+02 -0.24671082180E+02 -0.29922381874E+02  0.45045680196E+02  0.00000000000E+00 0.  1.
         11    1    3    3    0    0  0.98530272444E+01  0.95530335420E+01  0.12505606649E+02  0.18566981275E+02  0.51100000000E-03 0. -1.
        -11    1    3    3    0    0 -0.60912181990E-01  0.29926199757E+01  0.49641734466E+01  0.57967665885E+01  0.51100000000E-03 0.  1.
        -12    1    3    3    0    0  0.13122990684E+02  0.12125428662E+02  0.12452601778E+02  0.21778571941E+02  0.00000000000E+00 0.  1.
</event>
<event>
 7    1  0.5743890E-009  0.4614232E+02  0.7816164E-02  0.1320468E+00
        -11   -1    0    0    0    0  0.00000000000E+00  0.00000000000E+00  0.45593999997E+02  0.45594000000E+02  0.51100000000E-03 0. -1.
         11   -1    0    0    0    0 -0.00000000000E+00 -0.00000000000E+00 -0.45593999997E+02  0.45594000000E+02  0.51100000000E-03 0.  1.
    9900012    2    1    2    0    0  0.26929469900E+02  0.11764222950E+02  0.34139715910E+02  0.46142317709E+02  0.99999995206E+01 0.  0.
        -12    1    1    2    0    0 -0.26929469900E+02 -0.11764222950E+02 -0.34139715910E+02  0.45045682291E+02  0.00000000000E+00 0.  1.
         11    1    3    3    0    0  0.16427631474E+01  0.23990906972E+01  0.21662943418E+01  0.36258982843E+01  0.51100000000E-03 0. -1.
        -11    1    3    3    0    0  0.97971156060E+01  0.47495123174E+01  0.18537788443E+02  0.21498626516E+02  0.51100000000E-03 0.  1.
         12    1    3    3    0    0  0.15489591146E+02  0.46156199350E+01  0.13435633125E+02  0.21017792909E+02  0.00000000000E+00 0. -1.
</event>
<event>
 7    1  0.5743890E-009  0.4614232E+02  0.7816164E-02  0.1320468E+00
        -11   -1    0    0    0    0  0.00000000000E+00  0.00000000000E+00  0.45593999997E+02  0.45594000000E+02  0.51100000000E-03 0. -1.
         11   -1    0    0    0    0 -0.00000000000E+00 -0.00000000000E+00 -0.45593999997E+02  0.45594000000E+02  0.51100000000E-03 0.  1.
    9900012    2    1    2    0    0  0.20530418434E+02 -0.27460319015E+02  0.29215515420E+02  0.46142317158E+02  0.99999944959E+01 0.  0.
        -12    1    1    2    0    0 -0.20530418434E+02  0.27460319015E+02 -0.29215515420E+02  0.45045682842E+02  0.00000000000E+00 0.  1.
         11    1    3    3    0    0  0.13677197014E+02 -0.15633627338E+02  0.14307164562E+02  0.25222430096E+02  0.51100000000E-03 0. -1.
        -11    1    3    3    0    0 -0.20591004158E+00 -0.57306644368E+00  0.30579602832E+01  0.31180002323E+01  0.51100000000E-03 0.  1.
        -12    1    3    3    0    0  0.70591314616E+01 -0.11253625234E+02  0.11850390575E+02  0.17801886829E+02  0.00000000000E+00 0.  1.
</event>
<event>
 7    1  0.5743890E-009  0.4614232E+02  0.7816164E-02  0.1320468E+00
        -11   -1    0    0    0    0  0.00000000000E+00  0.00000000000E+00  0.45593999997E+02  0.45594000000E+02  0.51100000000E-03 0. -1.
         11   -1    0    0    0    0 -0.00000000000E+00 -0.00000000000E+00 -0.45593999997E+02  0.45594000000E+02  0.51100000000E-03 0.  1.
    9900012    2    1    2    0    0  0.23111468044E+02 -0.27470619168E+02  0.27209159007E+02  0.46142320890E+02  0.10000028531E+02 0.  0.
        -12    1    1    2    0    0 -0.23111468044E+02  0.27470619168E+02 -0.27209159007E+02  0.45045679110E+02  0.00000000000E+00 0.  1.
         11    1    3    3    0    0  0.82042788217E+01 -0.11127546173E+02  0.13956266171E+02  0.19644588072E+02  0.51100000000E-03 0. -1.
        -11    1    3    3    0    0  0.15077291185E+02 -0.14110940942E+02  0.11377222205E+02  0.23577204014E+02  0.51100000000E-03 0.  1.
        -12    1    3    3    0    0 -0.17010196300E+00 -0.22321320526E+01  0.18756706309E+01  0.29205288038E+01  0.00000000000E+00 0.  1.
</event>
<event>
 7    1  0.5743890E-009  0.4614232E+02  0.7816164E-02  0.1320468E+00
        -11   -1    0    0    0    0  0.00000000000E+00  0.00000000000E+00  0.45593999997E+02  0.45594000000E+02  0.51100000000E-03 0. -1.
         11   -1    0    0    0    0 -0.00000000000E+00 -0.00000000000E+00 -0.45593999997E+02  0.45594000000E+02  0.51100000000E-03 0.  1.
    9900012    2    1    2    0    0 -0.28767654710E+02  0.14437956694E+02 -0.31513186627E+02  0.46142317827E+02  0.10000000601E+02 0.  0.
         12    1    1    2    0    0  0.28767654710E+02 -0.14437956694E+02  0.31513186627E+02  0.45045682173E+02  0.00000000000E+00 0. -1.
         11    1    3    3    0    0 -0.12944962624E+02  0.90060130108E+01 -0.14706594861E+02  0.21563029944E+02  0.51100000000E-03 0.  1.
        -11    1    3    3    0    0 -0.93556163343E+01  0.13313761956E+01 -0.55317101067E+01  0.10949882946E+02  0.51100000000E-03 0. -1.
        -12    1    3    3    0    0 -0.64670757513E+01  0.41005674880E+01 -0.11274881660E+02  0.13629404937E+02  0.00000000000E+00 0.  1.
</event>
<event>
 7    1  0.5743890E-009  0.4614232E+02  0.7816164E-02  0.1320468E+00
        -11   -1    0    0    0    0  0.00000000000E+00  0.00000000000E+00  0.45593999997E+02  0.45594000000E+02  0.51100000000E-03 0. -1.
         11   -1    0    0    0    0 -0.00000000000E+00 -0.00000000000E+00 -0.45593999997E+02  0.45594000000E+02  0.51100000000E-03 0.  1.
    9900012    2    1    2    0    0  0.11751216371E+01 -0.10044031507E+02  0.43895897558E+02  0.46142319827E+02  0.10000018841E+02 0.  0.
        -12    1    1    2    0    0 -0.11751216371E+01  0.10044031507E+02 -0.43895897558E+02  0.45045680173E+02  0.00000000000E+00 0.  1.
         11    1    3    3    0    0 -0.85561374522E+00  0.33884230291E+00  0.10116411005E+01  0.13675916659E+01  0.51100000000E-03 0. -1.
        -11    1    3    3    0    0 -0.26283328849E+01 -0.36130414863E+01  0.11648528777E+02  0.12475993967E+02  0.51100000000E-03 0.  1.
         12    1    3    3    0    0  0.46590682672E+01 -0.67698323234E+01  0.31235727681E+02  0.32298734194E+02  0.00000000000E+00 0. -1.
</event>
<event>
 7    1  0.5743890E-009  0.4614232E+02  0.7816164E-02  0.1320468E+00
        -11   -1    0    0    0    0  0.00000000000E+00  0.00000000000E+00  0.45593999997E+02  0.45594000000E+02  0.51100000000E-03 0. -1.
         11   -1    0    0    0    0 -0.00000000000E+00 -0.00000000000E+00 -0.45593999997E+02  0.45594000000E+02  0.51100000000E-03 0.  1.
    9900012    2    1    2    0    0  0.55285064385E+01 -0.10206131763E+02 -0.43524519803E+02  0.46142319485E+02  0.10000015716E+02 0.  0.
         12    1    1    2    0    0 -0.55285064385E+01  0.10206131763E+02  0.43524519803E+02  0.45045680515E+02  0.00000000000E+00 0. -1.
         11    1    3    3    0    0 -0.18349725998E+01 -0.11948031873E+01 -0.41617064093E+01  0.47026034913E+01  0.51100000000E-03 0. -1.
        -11    1    3    3    0    0  0.60503471431E+01 -0.61075360948E+01 -0.19337624026E+02  0.21162523501E+02  0.51100000000E-03 0.  1.
        -12    1    3    3    0    0  0.13131318952E+01 -0.29037924811E+01 -0.20025189368E+02  0.20277192492E+02  0.00000000000E+00 0.  1.
</event>
<event>
 7    1  0.5743890E-009  0.4614232E+02  0.7816164E-02  0.1320468E+00
        -11   -1    0    0    0    0  0.00000000000E+00  0.00000000000E+00  0.45593999997E+02  0.45594000000E+02  0.51100000000E-03 0. -1.
         11   -1    0    0    0    0 -0.00000000000E+00 -0.00000000000E+00 -0.45593999997E+02  0.45594000000E+02  0.51100000000E-03 0.  1.
    9900012    2    1    2    0    0  0.27226239943E+02 -0.14740539263E+02 -0.32719441741E+02  0.46142317554E+02  0.99999981115E+01 0.  0.
         12    1    1    2    0    0 -0.27226239943E+02  0.14740539263E+02  0.32719441741E+02  0.45045682446E+02  0.00000000000E+00 0. -1.
         11    1    3    3    0    0  0.71385260408E+00 -0.54674949563E+00 -0.49042030022E+01  0.49859530583E+01  0.51100000000E-03 0. -1.
        -11    1    3    3    0    0  0.25122018786E+01 -0.16272766477E+01 -0.45511012838E+01  0.54471745633E+01  0.51100000000E-03 0.  1.
        -12    1    3    3    0    0  0.24000185460E+02 -0.12566513120E+02 -0.23264137455E+02  0.35709189932E+02  0.00000000000E+00 0.  1.
</event>
<event>
 7    1  0.5743890E-009  0.4614232E+02  0.7816164E-02  0.1320468E+00
        -11   -1    0    0    0    0  0.00000000000E+00  0.00000000000E+00  0.45593999997E+02  0.45594000000E+02  0.51100000000E-03 0. -1.
         11   -1    0    0    0    0 -0.00000000000E+00 -0.00000000000E+00 -0.45593999997E+02  0.45594000000E+02  0.51100000000E-03 0.  1.
    9900012    2    1    2    0    0  0.28724841821E+02 -0.45846011326E+01 -0.34394453191E+02  0.46142317460E+02  0.99999972537E+01 0.  0.
         12    1    1    2    0    0 -0.28724841821E+02  0.45846011326E+01  0.34394453191E+02  0.45045682540E+02  0.00000000000E+00 0. -1.
         11    1    3    3    0    0  0.10891435836E+02 -0.31148293056E+01 -0.19266212047E+02  0.22349775459E+02  0.51100000000E-03 0. -1.
        -11    1    3    3    0    0  0.13262915791E+02 -0.99443292277E+00 -0.13408821180E+02  0.18886246790E+02  0.51100000000E-03 0.  1.
        -12    1    3    3    0    0  0.45704901936E+01 -0.47533890420E+00 -0.17194199649E+01  0.49062952112E+01  0.00000000000E+00 0.  1.
</event>
<event>
 7    1  0.5743890E-009  0.4614232E+02  0.7816164E-02  0.1320468E+00
        -11   -1    0    0    0    0  0.00000000000E+00  0.00000000000E+00  0.45593999997E+02  0.45594000000E+02  0.51100000000E-03 0. -1.
         11   -1    0    0    0    0 -0.00000000000E+00 -0.00000000000E+00 -0.45593999997E+02  0.45594000000E+02  0.51100000000E-03 0.  1.
    9900012    2    1    2    0    0  0.78984408166E+01 -0.15813137341E+02  0.41432751489E+02  0.46142316790E+02  0.99999911453E+01 0.  0.
        -12    1    1    2    0    0 -0.78984408166E+01  0.15813137341E+02 -0.41432751489E+02  0.45045683210E+02  0.00000000000E+00 0.  1.
         11    1    3    3    0    0  0.10664917942E+01 -0.46721964810E+01  0.42868171694E+01  0.64299009642E+01  0.51100000000E-03 0. -1.
        -11    1    3    3    0    0  0.13381665519E+01 -0.55952700587E+01  0.21072061712E+02  0.21843294665E+02  0.51100000000E-03 0.  1.
         12    1    3    3    0    0  0.54937824705E+01 -0.55456708013E+01  0.16073872607E+02  0.17869121161E+02  0.00000000000E+00 0. -1.
</event>
<event>
 7    1  0.5743890E-009  0.4614232E+02  0.7816164E-02  0.1320468E+00
        -11   -1    0    0    0    0  0.00000000000E+00  0.00000000000E+00  0.45593999997E+02  0.45594000000E+02  0.51100000000E-03 0. -1.
         11   -1    0    0    0    0 -0.00000000000E+00 -0.00000000000E+00 -0.45593999997E+02  0.45594000000E+02  0.51100000000E-03 0.  1.
    9900012    2    1    2    0    0  0.79191968947E+01  0.33439294519E+02  0.29124103104E+02  0.46142317865E+02  0.10000000948E+02 0.  0.
        -12    1    1    2    0    0 -0.79191968947E+01 -0.33439294519E+02 -0.29124103104E+02  0.45045682135E+02  0.00000000000E+00 0.  1.
         11    1    3    3    0    0 -0.42597510525E-01  0.60047235112E+01  0.37575660713E+01  0.70836305688E+01  0.51100000000E-03 0. -1.
        -11    1    3    3    0    0  0.14930503468E+01  0.81623446937E+01  0.29734348568E+01  0.88144418624E+01  0.51100000000E-03 0.  1.
         12    1    3    3    0    0  0.64687440584E+01  0.19272226314E+02  0.22393102176E+02  0.30244245434E+02  0.00000000000E+00 0. -1.
</event>
<event>
 7    1  0.5743890E-009  0.4614232E+02  0.7816164E-02  0.1320468E+00
        -11   -1    0    0    0    0  0.00000000000E+00  0.00000000000E+00  0.45593999997E+02  0.45594000000E+02  0.51100000000E-03 0. -1.
         11   -1    0    0    0    0 -0.00000000000E+00 -0.00000000000E+00 -0.45593999997E+02  0.45594000000E+02  0.51100000000E-03 0.  1.
    9900012    2    1    2    0    0  0.67210244092E+01 -0.41173518301E+02 -0.16990665150E+02  0.46142317847E+02  0.10000000782E+02 0.  0.
         12    1    1    2    0    0 -0.67210244092E+01  0.41173518301E+02  0.16990665150E+02  0.45045682153E+02  0.00000000000E+00 0. -1.
         11    1    3    3    0    0  0.73309556536E+00 -0.52150298082E+00 -0.13009304025E-01  0.89975772854E+00  0.51100000000E-03 0. -1.
        -11    1    3    3    0    0  0.67569078667E+01 -0.26600443717E+02 -0.81475183931E+01  0.28629031875E+02  0.51100000000E-03 0.  1.
        -12    1    3    3    0    0 -0.76897902287E+00 -0.14051571603E+02 -0.88301374528E+01  0.16613528243E+02  0.00000000000E+00 0.  1.
</event>
<event>
 7    1  0.5743890E-009  0.4614232E+02  0.7816164E-02  0.1320468E+00
        -11   -1    0    0    0    0  0.00000000000E+00  0.00000000000E+00  0.45593999997E+02  0.45594000000E+02  0.51100000000E-03 0. -1.
         11   -1    0    0    0    0 -0.00000000000E+00 -0.00000000000E+00 -0.45593999997E+02  0.45594000000E+02  0.51100000000E-03 0.  1.
    9900012    2    1    2    0    0 -0.30805166940E+02  0.11492883833E+02  0.30790723042E+02  0.46142319692E+02  0.10000017604E+02 0.  0.
        -12    1    1    2    0    0  0.30805166940E+02 -0.11492883833E+02 -0.30790723042E+02  0.45045680308E+02  0.00000000000E+00 0.  1.
         11    1    3    3    0    0 -0.12755084269E+02  0.75212617169E+01  0.11557451521E+02  0.18783935648E+02  0.51100000000E-03 0. -1.
        -11    1    3    3    0    0 -0.15721133770E+02  0.27295107562E+01  0.12973612436E+02  0.20564991998E+02  0.51100000000E-03 0.  1.
        -12    1    3    3    0    0 -0.23289489006E+01  0.12421113600E+01  0.62596590854E+01  0.67933920450E+01  0.00000000000E+00 0.  1.
</event>
<event>
 7    1  0.5743890E-009  0.4614232E+02  0.7816164E-02  0.1320468E+00
        -11   -1    0    0    0    0  0.00000000000E+00  0.00000000000E+00  0.45593999997E+02  0.45594000000E+02  0.51100000000E-03 0.  1.
         11   -1    0    0    0    0 -0.00000000000E+00 -0.00000000000E+00 -0.45593999997E+02  0.45594000000E+02  0.51100000000E-03 0. -1.
    9900012    2    1    2    0    0 -0.17790374880E+01  0.43907101580E+02  0.99052772441E+01  0.46142322507E+02  0.10000043272E+02 0.  0.
        -12    1    1    2    0    0  0.17790374880E+01 -0.43907101580E+02 -0.99052772441E+01  0.45045677493E+02  0.00000000000E+00 0.  1.
         11    1    3    3    0    0  0.15900775443E+01  0.37070051067E+02  0.70105825011E+01  0.37760631615E+02  0.51100000000E-03 0. -1.
        -11    1    3    3    0    0 -0.69661719912E+00  0.22993904530E+00  0.18260233091E+00  0.75597047498E+00  0.51100000000E-03 0.  1.
         12    1    3    3    0    0 -0.26724978332E+01  0.66071114684E+01  0.27120924121E+01  0.76257204168E+01  0.00000000000E+00 0. -1.
</event>
<event>
 7    1  0.5743890E-009  0.4614232E+02  0.7816164E-02  0.1320468E+00
        -11   -1    0    0    0    0  0.00000000000E+00  0.00000000000E+00  0.45593999997E+02  0.45594000000E+02  0.51100000000E-03 0. -1.
         11   -1    0    0    0    0 -0.00000000000E+00 -0.00000000000E+00 -0.45593999997E+02  0.45594000000E+02  0.51100000000E-03 0.  1.
    9900012    2    1    2    0    0 -0.20940988562E+02  0.56128973578E+01  0.39485233117E+02  0.46142320373E+02  0.10000023821E+02 0.  0.
        -12    1    1    2    0    0  0.20940988562E+02 -0.56128973578E+01 -0.39485233117E+02  0.45045679627E+02  0.00000000000E+00 0.  1.
         11    1    3    3    0    0 -0.59925766808E+00  0.10674008512E+01 -0.18772641477E+00  0.12384247243E+01  0.51100000000E-03 0. -1.
        -11    1    3    3    0    0 -0.28231065219E+01  0.58360522207E+00  0.78433336769E+01  0.83563394448E+01  0.51100000000E-03 0.  1.
         12    1    3    3    0    0 -0.17518624372E+02  0.39618912846E+01  0.31829625855E+02  0.36547556204E+02  0.00000000000E+00 0. -1.
</event>
<event>
 7    1  0.5743890E-009  0.4614232E+02  0.7816164E-02  0.1320468E+00
        -11   -1    0    0    0    0  0.00000000000E+00  0.00000000000E+00  0.45593999997E+02  0.45594000000E+02  0.51100000000E-03 0. -1.
         11   -1    0    0    0    0 -0.00000000000E+00 -0.00000000000E+00 -0.45593999997E+02  0.45594000000E+02  0.51100000000E-03 0.  1.
    9900012    2    1    2    0    0 -0.42104759544E+02  0.27590851675E+01  0.15769911318E+02  0.46142318407E+02  0.10000005888E+02 0.  0.
        -12    1    1    2    0    0  0.42104759544E+02 -0.27590851675E+01 -0.15769911318E+02  0.45045681593E+02  0.00000000000E+00 0.  1.
         11    1    3    3    0    0 -0.16210822865E+02 -0.25824355574E+01  0.55548397808E+01  0.17329627712E+02  0.51100000000E-03 0. -1.
        -11    1    3    3    0    0 -0.33588499290E+01  0.91381773577E+00 -0.41559574862E+00  0.35056605350E+01  0.51100000000E-03 0.  1.
         12    1    3    3    0    0 -0.22535086750E+02  0.44277029892E+01  0.10630667286E+02  0.25307030160E+02  0.00000000000E+00 0. -1.
</event>
<event>
 7    1  0.5743890E-009  0.4614232E+02  0.7816164E-02  0.1320468E+00
        -11   -1    0    0    0    0  0.00000000000E+00  0.00000000000E+00  0.45593999997E+02  0.45594000000E+02  0.51100000000E-03 0.  1.
         11   -1    0    0    0    0 -0.00000000000E+00 -0.00000000000E+00 -0.45593999997E+02  0.45594000000E+02  0.51100000000E-03 0. -1.
    9900012    2    1    2    0    0  0.49066404746E+01 -0.33408892764E+02 -0.29814162068E+02  0.46142317673E+02  0.99999991965E+01 0.  0.
         12    1    1    2    0    0 -0.49066404746E+01  0.33408892764E+02  0.29814162068E+02  0.45045682327E+02  0.00000000000E+00 0. -1.
         11    1    3    3    0    0  0.16773373748E+01 -0.11398834549E+02 -0.70360071856E+01  0.13500084708E+02  0.51100000000E-03 0. -1.
        -11    1    3    3    0    0 -0.10067219599E+01 -0.12684164603E+02 -0.95354905924E+01  0.15900537786E+02  0.51100000000E-03 0.  1.
         12    1    3    3    0    0  0.42360250597E+01 -0.93258936123E+01 -0.13242664290E+02  0.16741695179E+02  0.00000000000E+00 0. -1.
</event>
<event>
 7    1  0.5743890E-009  0.4614232E+02  0.7816164E-02  0.1320468E+00
        -11   -1    0    0    0    0  0.00000000000E+00  0.00000000000E+00  0.45593999997E+02  0.45594000000E+02  0.51100000000E-03 0. -1.
         11   -1    0    0    0    0 -0.00000000000E+00 -0.00000000000E+00 -0.45593999997E+02  0.45594000000E+02  0.51100000000E-03 0.  1.
    9900012    2    1    2    0    0  0.23047566953E+02  0.23953744316E+02  0.30399692170E+02  0.46142317707E+02  0.99999995060E+01 0.  0.
        -12    1    1    2    0    0 -0.23047566953E+02 -0.23953744316E+02 -0.30399692170E+02  0.45045682293E+02  0.00000000000E+00 0.  1.
         11    1    3    3    0    0  0.96412659753E+01  0.80445868042E+01  0.11689260995E+02  0.17155413412E+02  0.51100000000E-03 0. -1.
        -11    1    3    3    0    0  0.61326314547E+01  0.37753124049E+01  0.10171092864E+02  0.12462474980E+02  0.51100000000E-03 0.  1.
        -12    1    3    3    0    0  0.72736695231E+01  0.12133845107E+02  0.85393383113E+01  0.16524429315E+02  0.00000000000E+00 0.  1.
</event>
<event>
 7    1  0.5743890E-009  0.4614232E+02  0.7816164E-02  0.1320468E+00
        -11   -1    0    0    0    0  0.00000000000E+00  0.00000000000E+00  0.45593999997E+02  0.45594000000E+02  0.51100000000E-03 0. -1.
         11   -1    0    0    0    0 -0.00000000000E+00 -0.00000000000E+00 -0.45593999997E+02  0.45594000000E+02  0.51100000000E-03 0.  1.
    9900012    2    1    2    0    0 -0.56780927434E+01 -0.11934137806E+02 -0.43063315287E+02  0.46142317567E+02  0.99999982269E+01 0.  0.
         12    1    1    2    0    0  0.56780927434E+01  0.11934137806E+02  0.43063315287E+02  0.45045682433E+02  0.00000000000E+00 0. -1.
         11    1    3    3    0    0 -0.27967373662E+01 -0.64156309946E+01 -0.25425252372E+02  0.26370921853E+02  0.51100000000E-03 0. -1.
        -11    1    3    3    0    0 -0.14036824207E+01 -0.59667125157E+01 -0.17051213179E+02  0.18119488231E+02  0.51100000000E-03 0.  1.
         12    1    3    3    0    0 -0.14776729565E+01  0.44820570448E+00 -0.58684973577E+00  0.16519074830E+01  0.00000000000E+00 0. -1.
</event>
<event>
 7    1  0.5743890E-009  0.4614232E+02  0.7816164E-02  0.1320468E+00
        -11   -1    0    0    0    0  0.00000000000E+00  0.00000000000E+00  0.45593999997E+02  0.45594000000E+02  0.51100000000E-03 0. -1.
         11   -1    0    0    0    0 -0.00000000000E+00 -0.00000000000E+00 -0.45593999997E+02  0.45594000000E+02  0.51100000000E-03 0.  1.
    9900012    2    1    2    0    0 -0.12078510633E+02 -0.13736886522E+02 -0.41164562145E+02  0.46142316000E+02  0.99999839423E+01 0.  0.
         12    1    1    2    0    0  0.12078510633E+02  0.13736886522E+02  0.41164562145E+02  0.45045684000E+02  0.00000000000E+00 0. -1.
         11    1    3    3    0    0 -0.60874509103E+01 -0.60682333194E+01 -0.17827666474E+02  0.19791569073E+02  0.51100000000E-03 0. -1.
        -11    1    3    3    0    0 -0.22451217359E+01 -0.97319681173E+00 -0.14248303312E+02  0.14456895627E+02  0.51100000000E-03 0.  1.
         12    1    3    3    0    0 -0.37459379864E+01 -0.66954563906E+01 -0.90885923595E+01  0.11893851300E+02  0.00000000000E+00 0. -1.
</event>
<event>
 7    1  0.5743890E-009  0.4614232E+02  0.7816164E-02  0.1320468E+00
        -11   -1    0    0    0    0  0.00000000000E+00  0.00000000000E+00  0.45593999997E+02  0.45594000000E+02  0.51100000000E-03 0. -1.
         11   -1    0    0    0    0 -0.00000000000E+00 -0.00000000000E+00 -0.45593999997E+02  0.45594000000E+02  0.51100000000E-03 0.  1.
    9900012    2    1    2    0    0  0.33933343266E+02  0.14110941107E+02  0.26048475062E+02  0.46142317663E+02  0.99999991091E+01 0.  0.
        -12    1    1    2    0    0 -0.33933343266E+02 -0.14110941107E+02 -0.26048475062E+02  0.45045682337E+02  0.00000000000E+00 0.  1.
         11    1    3    3    0    0  0.12419661655E+02  0.23740651670E+01  0.81482708306E+01  0.15042556260E+02  0.51100000000E-03 0. -1.
        -11    1    3    3    0    0  0.67079021580E+01  0.59645158631E+01  0.34353654779E+01  0.96110944783E+01  0.51100000000E-03 0.  1.
         12    1    3    3    0    0  0.14805779452E+02  0.57723600773E+01  0.14464838753E+02  0.21488666925E+02  0.00000000000E+00 0. -1.
</event>
<event>
 7    1  0.5743890E-009  0.4614232E+02  0.7816164E-02  0.1320468E+00
        -11   -1    0    0    0    0  0.00000000000E+00  0.00000000000E+00  0.45593999997E+02  0.45594000000E+02  0.51100000000E-03 0. -1.
         11   -1    0    0    0    0 -0.00000000000E+00 -0.00000000000E+00 -0.45593999997E+02  0.45594000000E+02  0.51100000000E-03 0.  1.
    9900012    2    1    2    0    0 -0.13266887043E+02  0.21333645112E+02 -0.37389553879E+02  0.46142318244E+02  0.10000004405E+02 0.  0.
         12    1    1    2    0    0  0.13266887043E+02 -0.21333645112E+02  0.37389553879E+02  0.45045681756E+02  0.00000000000E+00 0. -1.
         11    1    3    3    0    0  0.10503346358E+01  0.63701078862E+00 -0.19372942168E+01  0.22939256168E+01  0.51100000000E-03 0. -1.
        -11    1    3    3    0    0 -0.10434948060E+01  0.34185343405E+01 -0.82866492738E+01  0.90246227010E+01  0.51100000000E-03 0.  1.
        -12    1    3    3    0    0 -0.13273726873E+02  0.17278099982E+02 -0.27165610389E+02  0.34823769926E+02  0.00000000000E+00 0.  1.
</event>
<event>
 7    1  0.5743890E-009  0.4614232E+02  0.7816164E-02  0.1320468E+00
        -11   -1    0    0    0    0  0.00000000000E+00  0.00000000000E+00  0.45593999997E+02  0.45594000000E+02  0.51100000000E-03 0.  1.
         11   -1    0    0    0    0 -0.00000000000E+00 -0.00000000000E+00 -0.45593999997E+02  0.45594000000E+02  0.51100000000E-03 0. -1.
    9900012    2    1    2    0    0 -0.42588473834E+02 -0.11262242730E+02  0.94072997523E+01  0.46142317594E+02  0.99999984722E+01 0.  0.
         12    1    1    2    0    0  0.42588473834E+02  0.11262242730E+02 -0.94072997523E+01  0.45045682406E+02  0.00000000000E+00 0. -1.
         11    1    3    3    0    0 -0.56867772620E+01  0.17746211930E+00  0.14721516806E+01  0.58769174967E+01  0.51100000000E-03 0. -1.
        -11    1    3    3    0    0 -0.15209578705E+02 -0.43616001379E+01  0.73342572851E+01  0.17439786992E+02  0.51100000000E-03 0.  1.
        -12    1    3    3    0    0 -0.21692117867E+02 -0.70781047115E+01  0.60089078659E+00  0.22825613104E+02  0.00000000000E+00 0.  1.
</event>
<event>
 7    1  0.5743890E-009  0.4614232E+02  0.7816164E-02  0.1320468E+00
        -11   -1    0    0    0    0  0.00000000000E+00  0.00000000000E+00  0.45593999997E+02  0.45594000000E+02  0.51100000000E-03 0. -1.
         11   -1    0    0    0    0 -0.00000000000E+00 -0.00000000000E+00 -0.45593999997E+02  0.45594000000E+02  0.51100000000E-03 0.  1.
    9900012    2    1    2    0    0  0.31255394407E+02 -0.11469276184E+02 -0.30342536828E+02  0.46142317445E+02  0.99999971146E+01 0.  0.
         12    1    1    2    0    0 -0.31255394407E+02  0.11469276184E+02  0.30342536828E+02  0.45045682555E+02  0.00000000000E+00 0. -1.
         11    1    3    3    0    0  0.75545535534E+01 -0.13577054078E+01 -0.87501277439E+01  0.11639560952E+02  0.51100000000E-03 0. -1.
        -11    1    3    3    0    0  0.68806207062E+01  0.48308419076E+00 -0.71248833705E+01  0.99166665238E+01  0.51100000000E-03 0.  1.
         12    1    3    3    0    0  0.16820220147E+02 -0.10594654967E+02 -0.14467525713E+02  0.24586089969E+02  0.00000000000E+00 0. -1.
</event>
<event>
 7    1  0.5743890E-009  0.4614232E+02  0.7816164E-02  0.1320468E+00
        -11   -1    0    0    0    0  0.00000000000E+00  0.00000000000E+00  0.45593999997E+02  0.45594000000E+02  0.51100000000E-03 0. -1.
         11   -1    0    0    0    0 -0.00000000000E+00 -0.00000000000E+00 -0.45593999997E+02  0.45594000000E+02  0.51100000000E-03 0.  1.
    9900012    2    1    2    0    0  0.35880873778E+02  0.13768533696E+02 -0.23496889559E+02  0.46142318274E+02  0.10000004679E+02 0.  0.
         12    1    1    2    0    0 -0.35880873778E+02 -0.13768533696E+02  0.23496889559E+02  0.45045681726E+02  0.00000000000E+00 0. -1.
         11    1    3    3    0    0  0.47287725042E+01  0.11943150285E+01 -0.20625604375E+01  0.52954540507E+01  0.51100000000E-03 0. -1.
        -11    1    3    3    0    0  0.26784233262E+02  0.97454696504E+01 -0.21402049938E+02  0.35642910542E+02  0.51100000000E-03 0.  1.
         12    1    3    3    0    0  0.43678680123E+01  0.28287490166E+01 -0.32279183656E-01  0.52039536813E+01  0.00000000000E+00 0. -1.
</event>
<event>
 7    1  0.5743890E-009  0.4614232E+02  0.7816164E-02  0.1320468E+00
        -11   -1    0    0    0    0  0.00000000000E+00  0.00000000000E+00  0.45593999997E+02  0.45594000000E+02  0.51100000000E-03 0. -1.
         11   -1    0    0    0    0 -0.00000000000E+00 -0.00000000000E+00 -0.45593999997E+02  0.45594000000E+02  0.51100000000E-03 0.  1.
    9900012    2    1    2    0    0  0.28557935883E+02  0.27755450580E+02 -0.21052144439E+02  0.46142317363E+02  0.99999963662E+01 0.  0.
         12    1    1    2    0    0 -0.28557935883E+02 -0.27755450580E+02  0.21052144439E+02  0.45045682637E+02  0.00000000000E+00 0. -1.
         11    1    3    3    0    0  0.83389024728E+01  0.48044967535E+01 -0.15595542034E+01  0.97494970680E+01  0.51100000000E-03 0. -1.
        -11    1    3    3    0    0  0.11456458643E+02  0.11182337625E+02 -0.91268803795E+01  0.18428105304E+02  0.51100000000E-03 0.  1.
         12    1    3    3    0    0  0.87625747673E+01  0.11768616202E+02 -0.10365709856E+02  0.17964714990E+02  0.00000000000E+00 0. -1.
</event>
<event>
 7    1  0.5743890E-009  0.4614232E+02  0.7816164E-02  0.1320468E+00
        -11   -1    0    0    0    0  0.00000000000E+00  0.00000000000E+00  0.45593999997E+02  0.45594000000E+02  0.51100000000E-03 0. -1.
         11   -1    0    0    0    0 -0.00000000000E+00 -0.00000000000E+00 -0.45593999997E+02  0.45594000000E+02  0.51100000000E-03 0.  1.
    9900012    2    1    2    0    0  0.15325526751E+02 -0.91819560295E+01  0.41351335675E+02  0.46142322640E+02  0.10000044492E+02 0.  0.
        -12    1    1    2    0    0 -0.15325526751E+02  0.91819560295E+01 -0.41351335675E+02  0.45045677360E+02  0.00000000000E+00 0.  1.
         11    1    3    3    0    0  0.28993965236E+01 -0.23602044446E+01  0.76437828192E+01  0.85090822812E+01  0.51100000000E-03 0. -1.
        -11    1    3    3    0    0  0.11828558871E+02 -0.23296042388E+01  0.22137489296E+02  0.25207346022E+02  0.51100000000E-03 0.  1.
        -12    1    3    3    0    0  0.59757135603E+00 -0.44921473461E+01  0.11570063560E+02  0.12425894337E+02  0.00000000000E+00 0.  1.
</event>
<event>
 7    1  0.5743890E-009  0.4614232E+02  0.7816164E-02  0.1320468E+00
        -11   -1    0    0    0    0  0.00000000000E+00  0.00000000000E+00  0.45593999997E+02  0.45594000000E+02  0.51100000000E-03 0.  1.
         11   -1    0    0    0    0 -0.00000000000E+00 -0.00000000000E+00 -0.45593999997E+02  0.45594000000E+02  0.51100000000E-03 0. -1.
    9900012    2    1    2    0    0  0.71961990686E+01 -0.44464788099E+02  0.45916075790E+00  0.46142317739E+02  0.99999998016E+01 0.  0.
         12    1    1    2    0    0 -0.71961990686E+01  0.44464788099E+02 -0.45916075790E+00  0.45045682261E+02  0.00000000000E+00 0. -1.
         11    1    3    3    0    0  0.34998458974E+01 -0.11699508009E+02 -0.14335615226E+01  0.12295629624E+02  0.51100000000E-03 0. -1.
        -11    1    3    3    0    0  0.39135037926E+01 -0.15661040961E+02 -0.21074018144E+01  0.16279584103E+02  0.51100000000E-03 0.  1.
        -12    1    3    3    0    0 -0.21715062141E+00 -0.17104239129E+02  0.40001240949E+01  0.17567104012E+02  0.00000000000E+00 0.  1.
</event>
<event>
 7    1  0.5743890E-009  0.4614232E+02  0.7816164E-02  0.1320468E+00
        -11   -1    0    0    0    0  0.00000000000E+00  0.00000000000E+00  0.45593999997E+02  0.45594000000E+02  0.51100000000E-03 0. -1.
         11   -1    0    0    0    0 -0.00000000000E+00 -0.00000000000E+00 -0.45593999997E+02  0.45594000000E+02  0.51100000000E-03 0.  1.
    9900012    2    1    2    0    0  0.10976386657E+02  0.31998070322E+02  0.29744848246E+02  0.46142316905E+02  0.99999921897E+01 0.  0.
        -12    1    1    2    0    0 -0.10976386657E+02 -0.31998070322E+02 -0.29744848246E+02  0.45045683095E+02  0.00000000000E+00 0.  1.
         11    1    3    3    0    0  0.94284483987E+00 -0.38914402588E+00  0.73233705438E+00  0.12556700551E+01  0.51100000000E-03 0. -1.
        -11    1    3    3    0    0  0.26410269527E+01  0.13824137380E+02  0.96615672548E+01  0.17071253022E+02  0.51100000000E-03 0.  1.
         12    1    3    3    0    0  0.73925148644E+01  0.18563076968E+02  0.19350943937E+02  0.27815393827E+02  0.00000000000E+00 0. -1.
</event>
<event>
 7    1  0.5743890E-009  0.4614232E+02  0.7816164E-02  0.1320468E+00
        -11   -1    0    0    0    0  0.00000000000E+00  0.00000000000E+00  0.45593999997E+02  0.45594000000E+02  0.51100000000E-03 0. -1.
         11   -1    0    0    0    0 -0.00000000000E+00 -0.00000000000E+00 -0.45593999997E+02  0.45594000000E+02  0.51100000000E-03 0.  1.
    9900012    2    1    2    0    0  0.34718373351E+02 -0.21076093129E+02  0.19481949663E+02  0.46142317494E+02  0.99999975669E+01 0.  0.
        -12    1    1    2    0    0 -0.34718373351E+02  0.21076093129E+02 -0.19481949663E+02  0.45045682506E+02  0.00000000000E+00 0.  1.
         11    1    3    3    0    0  0.24310504156E+02 -0.14434343515E+02  0.15620049328E+02  0.32300724857E+02  0.51100000000E-03 0. -1.
        -11    1    3    3    0    0  0.27681031350E+01  0.49782844337E+00  0.49047594147E+00  0.28549597257E+01  0.51100000000E-03 0.  1.
        -12    1    3    3    0    0  0.76397660599E+01 -0.71395780571E+01  0.33714243939E+01  0.10986632911E+02  0.00000000000E+00 0.  1.
</event>
<event>
 7    1  0.5743890E-009  0.4614232E+02  0.7816164E-02  0.1320468E+00
        -11   -1    0    0    0    0  0.00000000000E+00  0.00000000000E+00  0.45593999997E+02  0.45594000000E+02  0.51100000000E-03 0. -1.
         11   -1    0    0    0    0 -0.00000000000E+00 -0.00000000000E+00 -0.45593999997E+02  0.45594000000E+02  0.51100000000E-03 0.  1.
    9900012    2    1    2    0    0  0.21895143969E+02  0.35825159728E+02 -0.16317908716E+02  0.46142317146E+02  0.99999943878E+01 0.  0.
         12    1    1    2    0    0 -0.21895143969E+02 -0.35825159728E+02  0.16317908716E+02  0.45045682854E+02  0.00000000000E+00 0. -1.
         11    1    3    3    0    0 -0.15559915433E+00  0.29046597909E+01  0.71323944345E+00  0.29949908785E+01  0.51100000000E-03 0. -1.
        -11    1    3    3    0    0  0.13400607320E+02  0.20876228474E+02 -0.10238428889E+02  0.26836889131E+02  0.51100000000E-03 0.  1.
         12    1    3    3    0    0  0.86501358039E+01  0.12044271463E+02 -0.67927192701E+01  0.16310437136E+02  0.00000000000E+00 0. -1.
</event>
<event>
 7    1  0.5743890E-009  0.4614232E+02  0.7816164E-02  0.1320468E+00
        -11   -1    0    0    0    0  0.00000000000E+00  0.00000000000E+00  0.45593999997E+02  0.45594000000E+02  0.51100000000E-03 0. -1.
         11   -1    0    0    0    0 -0.00000000000E+00 -0.00000000000E+00 -0.45593999997E+02  0.45594000000E+02  0.51100000000E-03 0.  1.
    9900012    2    1    2    0    0 -0.25284052968E+02 -0.35416476601E+02 -0.11640590352E+02  0.46142317709E+02  0.99999995286E+01 0.  0.
         12    1    1    2    0    0  0.25284052968E+02  0.35416476601E+02  0.11640590352E+02  0.45045682291E+02  0.00000000000E+00 0. -1.
         11    1    3    3    0    0 -0.15934364777E+01 -0.12500999474E+01 -0.25158560241E+01  0.32297556381E+01  0.51100000000E-03 0. -1.
        -11    1    3    3    0    0 -0.68783653557E+01 -0.12782196547E+02 -0.11251330481E+01  0.14558927954E+02  0.51100000000E-03 0.  1.
        -12    1    3    3    0    0 -0.16812251135E+02 -0.21384180106E+02 -0.79996012797E+01  0.28353634117E+02  0.00000000000E+00 0.  1.
</event>
<event>
 7    1  0.5743890E-009  0.4614232E+02  0.7816164E-02  0.1320468E+00
        -11   -1    0    0    0    0  0.00000000000E+00  0.00000000000E+00  0.45593999997E+02  0.45594000000E+02  0.51100000000E-03 0. -1.
         11   -1    0    0    0    0 -0.00000000000E+00 -0.00000000000E+00 -0.45593999997E+02  0.45594000000E+02  0.51100000000E-03 0.  1.
    9900012    2    1    2    0    0  0.16952364046E+02 -0.39228201259E+02 -0.14243559715E+02  0.46142318585E+02  0.10000007514E+02 0.  0.
         12    1    1    2    0    0 -0.16952364046E+02  0.39228201259E+02  0.14243559715E+02  0.45045681415E+02  0.00000000000E+00 0. -1.
         11    1    3    3    0    0  0.15528838716E+01 -0.17172645484E+00 -0.62381651042E+00  0.16822858241E+01  0.51100000000E-03 0. -1.
        -11    1    3    3    0    0  0.35230635690E+01 -0.11975683609E+02 -0.63664987340E+01  0.14012896960E+02  0.51100000000E-03 0.  1.
        -12    1    3    3    0    0  0.11876416606E+02 -0.27080791195E+02 -0.72532444704E+01  0.30447135801E+02  0.00000000000E+00 0.  1.
</event>
<event>
 7    1  0.5743890E-009  0.4614232E+02  0.7816164E-02  0.1320468E+00
        -11   -1    0    0    0    0  0.00000000000E+00  0.00000000000E+00  0.45593999997E+02  0.45594000000E+02  0.51100000000E-03 0. -1.
         11   -1    0    0    0    0 -0.00000000000E+00 -0.00000000000E+00 -0.45593999997E+02  0.45594000000E+02  0.51100000000E-03 0.  1.
    9900012    2    1    2    0    0 -0.17988792684E+02 -0.85375564309E+01  0.40405778360E+02  0.46142318111E+02  0.10000003187E+02 0.  0.
        -12    1    1    2    0    0  0.17988792684E+02  0.85375564309E+01 -0.40405778360E+02  0.45045681889E+02  0.00000000000E+00 0.  1.
         11    1    3    3    0    0 -0.47349293046E+00 -0.28567475877E+01  0.97567206570E+01  0.10177367075E+02  0.51100000000E-03 0. -1.
        -11    1    3    3    0    0 -0.11186025086E+02 -0.55480954444E+01  0.20502511214E+02  0.24005447019E+02  0.51100000000E-03 0.  1.
         12    1    3    3    0    0 -0.63292746674E+01 -0.13271339887E+00  0.10146546489E+02  0.11959504016E+02  0.00000000000E+00 0. -1.
</event>
<event>
 7    1  0.5743890E-009  0.4614232E+02  0.7816164E-02  0.1320468E+00
        -11   -1    0    0    0    0  0.00000000000E+00  0.00000000000E+00  0.45593999997E+02  0.45594000000E+02  0.51100000000E-03 0. -1.
         11   -1    0    0    0    0 -0.00000000000E+00 -0.00000000000E+00 -0.45593999997E+02  0.45594000000E+02  0.51100000000E-03 0.  1.
    9900012    2    1    2    0    0  0.27267843181E+02 -0.30179397924E+02 -0.19359292163E+02  0.46142317367E+02  0.99999964106E+01 0.  0.
         12    1    1    2    0    0 -0.27267843181E+02  0.30179397924E+02  0.19359292163E+02  0.45045682633E+02  0.00000000000E+00 0. -1.
         11    1    3    3    0    0  0.15975146836E+02 -0.11711870861E+02 -0.10105395579E+02  0.22237181827E+02  0.51100000000E-03 0. -1.
        -11    1    3    3    0    0  0.41906202456E+01 -0.74378105400E+01 -0.58598683158E+01  0.10354727452E+02  0.51100000000E-03 0.  1.
         12    1    3    3    0    0  0.71020760985E+01 -0.11029716523E+02 -0.33940282679E+01  0.13550408089E+02  0.00000000000E+00 0. -1.
</event>
<event>
 7    1  0.5743890E-009  0.4614232E+02  0.7816164E-02  0.1320468E+00
        -11   -1    0    0    0    0  0.00000000000E+00  0.00000000000E+00  0.45593999997E+02  0.45594000000E+02  0.51100000000E-03 0. -1.
         11   -1    0    0    0    0 -0.00000000000E+00 -0.00000000000E+00 -0.45593999997E+02  0.45594000000E+02  0.51100000000E-03 0.  1.
    9900012    2    1    2    0    0 -0.40400653627E+02 -0.11516950043E+02  0.16256092996E+02  0.46142317506E+02  0.99999976781E+01 0.  0.
        -12    1    1    2    0    0  0.40400653627E+02  0.11516950043E+02 -0.16256092996E+02  0.45045682494E+02  0.00000000000E+00 0.  1.
         11    1    3    3    0    0  0.97909417055E-02  0.71829529981E+00  0.52771487274E+00  0.89136257960E+00  0.51100000000E-03 0. -1.
        -11    1    3    3    0    0 -0.20163440344E+02 -0.61645927286E+01  0.56206181766E+01  0.21821042115E+02  0.51100000000E-03 0.  1.
         12    1    3    3    0    0 -0.20247004225E+02 -0.60706526140E+01  0.10107759947E+02  0.23429912812E+02  0.00000000000E+00 0. -1.
</event>
<event>
 7    1  0.5743890E-009  0.4614231E+02  0.7816164E-02  0.1320468E+00
        -11   -1    0    0    0    0  0.00000000000E+00  0.00000000000E+00  0.45593999997E+02  0.45594000000E+02  0.51100000000E-03 0. -1.
         11   -1    0    0    0    0 -0.00000000000E+00 -0.00000000000E+00 -0.45593999997E+02  0.45594000000E+02  0.51100000000E-03 0.  1.
    9900012    2    1    2    0    0 -0.67243038729E+01  0.20766809103E+02  0.39403525861E+02  0.46142306830E+02  0.99999003178E+01 0.  0.
        -12    1    1    2    0    0  0.67243038729E+01 -0.20766809103E+02 -0.39403525861E+02  0.45045693170E+02  0.00000000000E+00 0.  1.
         11    1    3    3    0    0 -0.12065460671E+01  0.73752312271E+01  0.16263003706E+02  0.17897907109E+02  0.51100000000E-03 0.  1.
        -11    1    3    3    0    0 -0.19121756695E+01  0.11293080582E+02  0.19904153688E+02  0.22964438141E+02  0.51100000000E-03 0. -1.
        -12    1    3    3    0    0 -0.36055821363E+01  0.20984972937E+01  0.32363684674E+01  0.52799615803E+01  0.00000000000E+00 0.  1.
</event>
<event>
 7    1  0.5743890E-009  0.4614232E+02  0.7816164E-02  0.1320468E+00
        -11   -1    0    0    0    0  0.00000000000E+00  0.00000000000E+00  0.45593999997E+02  0.45594000000E+02  0.51100000000E-03 0. -1.
         11   -1    0    0    0    0 -0.00000000000E+00 -0.00000000000E+00 -0.45593999997E+02  0.45594000000E+02  0.51100000000E-03 0.  1.
    9900012    2    1    2    0    0  0.29258571598E+02  0.23304987835E+02  0.25098346223E+02  0.46142318153E+02  0.10000003573E+02 0.  0.
        -12    1    1    2    0    0 -0.29258571598E+02 -0.23304987835E+02 -0.25098346223E+02  0.45045681847E+02  0.00000000000E+00 0.  1.
         11    1    3    3    0    0  0.71639674341E+01  0.66470549411E+01  0.62051315446E+01  0.11576244060E+02  0.51100000000E-03 0. -1.
        -11    1    3    3    0    0  0.65811754685E+01  0.10206663908E+02  0.79341335067E+01  0.14506492803E+02  0.51100000000E-03 0.  1.
        -12    1    3    3    0    0  0.15513428695E+02  0.64512689858E+01  0.10959081172E+02  0.20059581290E+02  0.00000000000E+00 0.  1.
</event>
<event>
 7    1  0.5743890E-009  0.4614232E+02  0.7816164E-02  0.1320468E+00
        -11   -1    0    0    0    0  0.00000000000E+00  0.00000000000E+00  0.45593999997E+02  0.45594000000E+02  0.51100000000E-03 0. -1.
         11   -1    0    0    0    0 -0.00000000000E+00 -0.00000000000E+00 -0.45593999997E+02  0.45594000000E+02  0.51100000000E-03 0.  1.
    9900012    2    1    2    0    0  0.68647192036E+01 -0.25479430739E+02 -0.36507365726E+02  0.46142317490E+02  0.99999975314E+01 0.  0.
         12    1    1    2    0    0 -0.68647192036E+01  0.25479430739E+02  0.36507365726E+02  0.45045682510E+02  0.00000000000E+00 0. -1.
         11    1    3    3    0    0 -0.76270543793E-01 -0.29124853832E+01 -0.79687790584E+01  0.84846819767E+01  0.51100000000E-03 0. -1.
        -11    1    3    3    0    0 -0.41006607234E+00 -0.51601348994E+01 -0.33356410625E+01  0.61580555309E+01  0.51100000000E-03 0.  1.
        -12    1    3    3    0    0  0.73510558197E+01 -0.17406810456E+02 -0.25202945605E+02  0.31499579983E+02  0.00000000000E+00 0.  1.
</event>
<event>
 7    1  0.5743890E-009  0.4614232E+02  0.7816164E-02  0.1320468E+00
        -11   -1    0    0    0    0  0.00000000000E+00  0.00000000000E+00  0.45593999997E+02  0.45594000000E+02  0.51100000000E-03 0. -1.
         11   -1    0    0    0    0 -0.00000000000E+00 -0.00000000000E+00 -0.45593999997E+02  0.45594000000E+02  0.51100000000E-03 0.  1.
    9900012    2    1    2    0    0  0.12412250389E+02 -0.18482758511E+02 -0.39159126768E+02  0.46142317286E+02  0.99999956697E+01 0.  0.
         12    1    1    2    0    0 -0.12412250389E+02  0.18482758511E+02  0.39159126768E+02  0.45045682714E+02  0.00000000000E+00 0. -1.
         11    1    3    3    0    0  0.43313341322E+01 -0.32923783214E+01 -0.10917157378E+02  0.12197726668E+02  0.51100000000E-03 0. -1.
        -11    1    3    3    0    0  0.73403677250E+01 -0.78841424582E+01 -0.12037271475E+02  0.16153532291E+02  0.51100000000E-03 0.  1.
         12    1    3    3    0    0  0.74054853195E+00 -0.73062377316E+01 -0.16204697914E+02  0.17791058328E+02  0.00000000000E+00 0. -1.
</event>
<event>
 7    1  0.5743890E-009  0.4614232E+02  0.7816164E-02  0.1320468E+00
        -11   -1    0    0    0    0  0.00000000000E+00  0.00000000000E+00  0.45593999997E+02  0.45594000000E+02  0.51100000000E-03 0. -1.
         11   -1    0    0    0    0 -0.00000000000E+00 -0.00000000000E+00 -0.45593999997E+02  0.45594000000E+02  0.51100000000E-03 0.  1.
    9900012    2    1    2    0    0  0.31450301088E+02  0.18258800265E+02  0.26582102926E+02  0.46142318502E+02  0.10000006755E+02 0.  0.
        -12    1    1    2    0    0 -0.31450301088E+02 -0.18258800265E+02 -0.26582102926E+02  0.45045681498E+02  0.00000000000E+00 0.  1.
         11    1    3    3    0    0  0.14425714610E+02  0.72055320925E+01  0.15990781058E+02  0.22709601799E+02  0.51100000000E-03 0. -1.
        -11    1    3    3    0    0  0.14530519186E+01  0.29679060900E+00 -0.41430279541E+00  0.15398349298E+01  0.51100000000E-03 0.  1.
        -12    1    3    3    0    0  0.15571534560E+02  0.10756477563E+02  0.11005624663E+02  0.21892881773E+02  0.00000000000E+00 0.  1.
</event>
<event>
 7    1  0.5743890E-009  0.4614232E+02  0.7816164E-02  0.1320468E+00
        -11   -1    0    0    0    0  0.00000000000E+00  0.00000000000E+00  0.45593999997E+02  0.45594000000E+02  0.51100000000E-03 0. -1.
         11   -1    0    0    0    0 -0.00000000000E+00 -0.00000000000E+00 -0.45593999997E+02  0.45594000000E+02  0.51100000000E-03 0.  1.
    9900012    2    1    2    0    0  0.13110250402E+02 -0.31316478854E+02  0.29605958103E+02  0.46142320200E+02  0.10000022242E+02 0.  0.
        -12    1    1    2    0    0 -0.13110250402E+02  0.31316478854E+02 -0.29605958103E+02  0.45045679800E+02  0.00000000000E+00 0.  1.
         11    1    3    3    0    0  0.97244484907E+00 -0.61462711183E+01  0.73686381778E+01  0.96446423729E+01  0.51100000000E-03 0. -1.
        -11    1    3    3    0    0  0.75624632086E+01 -0.21227113948E+02  0.14994581125E+02  0.27066929633E+02  0.51100000000E-03 0.  1.
         12    1    3    3    0    0  0.45753423444E+01 -0.39430937873E+01  0.72427388002E+01  0.94307481946E+01  0.00000000000E+00 0. -1.
</event>
<event>
 7    1  0.5743890E-009  0.4614232E+02  0.7816164E-02  0.1320468E+00
        -11   -1    0    0    0    0  0.00000000000E+00  0.00000000000E+00  0.45593999997E+02  0.45594000000E+02  0.51100000000E-03 0.  1.
         11   -1    0    0    0    0 -0.00000000000E+00 -0.00000000000E+00 -0.45593999997E+02  0.45594000000E+02  0.51100000000E-03 0. -1.
    9900012    2    1    2    0    0 -0.20937204556E+02  0.36152077600E+02 -0.16845602346E+02  0.46142316879E+02  0.99999919597E+01 0.  0.
         12    1    1    2    0    0  0.20937204556E+02 -0.36152077600E+02  0.16845602346E+02  0.45045683121E+02  0.00000000000E+00 0. -1.
         11    1    3    3    0    0 -0.14823626244E+01  0.37135698869E+01 -0.41543734883E+00  0.40200234710E+01  0.51100000000E-03 0. -1.
        -11    1    3    3    0    0 -0.84553254121E+01  0.68642590058E+01 -0.56439385859E+01  0.12266402184E+02  0.51100000000E-03 0.  1.
        -12    1    3    3    0    0 -0.10999516520E+02  0.25574248707E+02 -0.10786226412E+02  0.29855891224E+02  0.00000000000E+00 0.  1.
</event>
<event>
 7    1  0.5743890E-009  0.4614232E+02  0.7816164E-02  0.1320468E+00
        -11   -1    0    0    0    0  0.00000000000E+00  0.00000000000E+00  0.45593999997E+02  0.45594000000E+02  0.51100000000E-03 0. -1.
         11   -1    0    0    0    0 -0.00000000000E+00 -0.00000000000E+00 -0.45593999997E+02  0.45594000000E+02  0.51100000000E-03 0.  1.
    9900012    2    1    2    0    0 -0.25846569162E+02  0.17026703391E+02 -0.32728577394E+02  0.46142317143E+02  0.99999943632E+01 0.  0.
         12    1    1    2    0    0  0.25846569162E+02 -0.17026703391E+02  0.32728577394E+02  0.45045682857E+02  0.00000000000E+00 0. -1.
         11    1    3    3    0    0 -0.11719013166E+02  0.60060612144E+01 -0.14543173522E+02  0.19619172695E+02  0.51100000000E-03 0.  1.
        -11    1    3    3    0    0 -0.48230079892E+01  0.40810073546E+01 -0.11518184379E+02  0.13137145761E+02  0.51100000000E-03 0. -1.
         12    1    3    3    0    0 -0.93045480066E+01  0.69396348220E+01 -0.66672194934E+01  0.13385998687E+02  0.00000000000E+00 0. -1.
</event>
<event>
 7    1  0.5743890E-009  0.4614232E+02  0.7816164E-02  0.1320468E+00
        -11   -1    0    0    0    0  0.00000000000E+00  0.00000000000E+00  0.45593999997E+02  0.45594000000E+02  0.51100000000E-03 0. -1.
         11   -1    0    0    0    0 -0.00000000000E+00 -0.00000000000E+00 -0.45593999997E+02  0.45594000000E+02  0.51100000000E-03 0.  1.
    9900012    2    1    2    0    0 -0.27378974820E+02 -0.10329292809E+02 -0.34246327013E+02  0.46142318009E+02  0.10000002261E+02 0.  0.
         12    1    1    2    0    0  0.27378974820E+02  0.10329292809E+02  0.34246327013E+02  0.45045681991E+02  0.00000000000E+00 0. -1.
         11    1    3    3    0    0 -0.14417291795E+02 -0.26521589456E+01 -0.10717174591E+02  0.18159022035E+02  0.51100000000E-03 0. -1.
        -11    1    3    3    0    0 -0.58597157221E+01 -0.27781871654E+01 -0.11041548749E+02  0.12805092398E+02  0.51100000000E-03 0.  1.
         12    1    3    3    0    0 -0.71019673028E+01 -0.48989466979E+01 -0.12487603673E+02  0.15178203577E+02  0.00000000000E+00 0. -1.
</event>
<event>
 7    1  0.5743890E-009  0.4614232E+02  0.7816164E-02  0.1320468E+00
        -11   -1    0    0    0    0  0.00000000000E+00  0.00000000000E+00  0.45593999997E+02  0.45594000000E+02  0.51100000000E-03 0. -1.
         11   -1    0    0    0    0 -0.00000000000E+00 -0.00000000000E+00 -0.45593999997E+02  0.45594000000E+02  0.51100000000E-03 0.  1.
    9900012    2    1    2    0    0 -0.26646836501E+02  0.65058566253E+01 -0.35731406937E+02  0.46142317548E+02  0.99999980533E+01 0.  0.
         12    1    1    2    0    0  0.26646836501E+02 -0.65058566253E+01  0.35731406937E+02  0.45045682452E+02  0.00000000000E+00 0. -1.
         11    1    3    3    0    0 -0.15566111209E+01  0.37978773046E+00 -0.60260878960E+00  0.17118453541E+01  0.51100000000E-03 0. -1.
        -11    1    3    3    0    0 -0.26080376031E+01 -0.49242013595E-01 -0.91920674614E+01  0.95550190681E+01  0.51100000000E-03 0.  1.
        -12    1    3    3    0    0 -0.22482187777E+02  0.61753109084E+01 -0.25936730686E+02  0.34875453125E+02  0.00000000000E+00 0.  1.
</event>
<event>
 7    1  0.5743890E-009  0.4614232E+02  0.7816164E-02  0.1320468E+00
        -11   -1    0    0    0    0  0.00000000000E+00  0.00000000000E+00  0.45593999997E+02  0.45594000000E+02  0.51100000000E-03 0. -1.
         11   -1    0    0    0    0 -0.00000000000E+00 -0.00000000000E+00 -0.45593999997E+02  0.45594000000E+02  0.51100000000E-03 0.  1.
    9900012    2    1    2    0    0 -0.14918207602E+02 -0.14829183012E+02 -0.39832850089E+02  0.46142317265E+02  0.99999954752E+01 0.  0.
         12    1    1    2    0    0  0.14918207602E+02  0.14829183012E+02  0.39832850089E+02  0.45045682735E+02  0.00000000000E+00 0. -1.
         11    1    3    3    0    0 -0.41528710648E+00 -0.44299951883E+01 -0.10526320362E+02  0.11428068138E+02  0.51100000000E-03 0. -1.
        -11    1    3    3    0    0 -0.96041624115E+01 -0.86486064473E+01 -0.17013474579E+02  0.21365782144E+02  0.51100000000E-03 0.  1.
         12    1    3    3    0    0 -0.48987580837E+01 -0.17505813766E+01 -0.12293055148E+02  0.13348466983E+02  0.00000000000E+00 0. -1.
</event>
<event>
 7    1  0.5743890E-009  0.4614232E+02  0.7816164E-02  0.1320468E+00
        -11   -1    0    0    0    0  0.00000000000E+00  0.00000000000E+00  0.45593999997E+02  0.45594000000E+02  0.51100000000E-03 0.  1.
         11   -1    0    0    0    0 -0.00000000000E+00 -0.00000000000E+00 -0.45593999997E+02  0.45594000000E+02  0.51100000000E-03 0. -1.
    9900012    2    1    2    0    0 -0.29183328413E+02 -0.33573333004E+02 -0.70907073730E+01  0.46142317884E+02  0.10000001119E+02 0.  0.
         12    1    1    2    0    0  0.29183328413E+02  0.33573333004E+02  0.70907073730E+01  0.45045682116E+02  0.00000000000E+00 0. -1.
         11    1    3    3    0    0 -0.92444489508E+01 -0.75031513900E+01 -0.22395847935E+01  0.12114984833E+02  0.51100000000E-03 0.  1.
        -11    1    3    3    0    0 -0.16308228600E+02 -0.15496394644E+02 -0.34690579078E+01  0.22762489540E+02  0.51100000000E-03 0. -1.
         12    1    3    3    0    0 -0.36306508619E+01 -0.10573786970E+02 -0.13820646716E+01  0.11264843511E+02  0.00000000000E+00 0. -1.
</event>
<event>
 7    1  0.5772224E-009  0.4614232E+02  0.7816164E-02  0.1320468E+00
        -11   -1    0    0    0    0  0.00000000000E+00  0.00000000000E+00  0.45593999997E+02  0.45594000000E+02  0.51100000000E-03 0. -1.
         11   -1    0    0    0    0 -0.00000000000E+00 -0.00000000000E+00 -0.45593999997E+02  0.45594000000E+02  0.51100000000E-03 0.  1.
    9900012    2    1    2    0    0 -0.12478575010E+02 -0.22892672781E+02  0.36733150121E+02  0.46142316309E+02  0.99999867622E+01 0.  0.
        -12    1    1    2    0    0  0.12478575010E+02  0.22892672781E+02 -0.36733150121E+02  0.45045683691E+02  0.00000000000E+00 0.  1.
         11    1    3    3    0    0 -0.99678374848E+01 -0.19499451495E+02  0.27373087524E+02  0.35055275117E+02  0.51100000000E-03 0. -1.
        -11    1    3    3    0    0 -0.20842208214E+01 -0.39627276646E+01  0.51800513596E+01  0.68469058213E+01  0.51100000000E-03 0.  1.
        -12    1    3    3    0    0 -0.42651670352E+00  0.56950637830E+00  0.41800112378E+01  0.42401353706E+01  0.00000000000E+00 0.  1.
</event>
<event>
 7    1  0.5743890E-009  0.4614232E+02  0.7816164E-02  0.1320468E+00
        -11   -1    0    0    0    0  0.00000000000E+00  0.00000000000E+00  0.45593999997E+02  0.45594000000E+02  0.51100000000E-03 0. -1.
         11   -1    0    0    0    0 -0.00000000000E+00 -0.00000000000E+00 -0.45593999997E+02  0.45594000000E+02  0.51100000000E-03 0.  1.
    9900012    2    1    2    0    0  0.32136154526E+02 -0.31502594335E+02 -0.19918828096E+01  0.46142317913E+02  0.10000001385E+02 0.  0.
         12    1    1    2    0    0 -0.32136154526E+02  0.31502594335E+02  0.19918828096E+01  0.45045682087E+02  0.00000000000E+00 0. -1.
         11    1    3    3    0    0  0.17417145941E+02 -0.10633127808E+02  0.22302111595E+00  0.20407599525E+02  0.51100000000E-03 0. -1.
        -11    1    3    3    0    0  0.78779317355E+00 -0.17489651871E+01  0.30953475936E+00  0.19430155270E+01  0.51100000000E-03 0.  1.
         12    1    3    3    0    0  0.13931215412E+02 -0.19120501340E+02 -0.25244386849E+01  0.23791702861E+02  0.00000000000E+00 0. -1.
</event>
<event>
 7    1  0.5804505E-009  0.4614232E+02  0.7816164E-02  0.1320468E+00
        -11   -1    0    0    0    0  0.00000000000E+00  0.00000000000E+00  0.45593999997E+02  0.45594000000E+02  0.51100000000E-03 0. -1.
         11   -1    0    0    0    0 -0.00000000000E+00 -0.00000000000E+00 -0.45593999997E+02  0.45594000000E+02  0.51100000000E-03 0.  1.
    9900012    2    1    2    0    0  0.21489644957E+02  0.84593922554E+01  0.38674892949E+02  0.46142317606E+02  0.99999985890E+01 0.  0.
        -12    1    1    2    0    0 -0.21489644957E+02 -0.84593922554E+01 -0.38674892949E+02  0.45045682394E+02  0.00000000000E+00 0.  1.
         11    1    3    3    0    0  0.12715472101E+02  0.63239948703E+01  0.28013862878E+02  0.31407843853E+02  0.51100000000E-03 0. -1.
        -11    1    3    3    0    0  0.39225189958E+01  0.33390422198E+01  0.58824948240E+01  0.78191498152E+01  0.51100000000E-03 0.  1.
        -12    1    3    3    0    0  0.48516538604E+01 -0.12036448347E+01  0.47785352467E+01  0.69153239384E+01  0.00000000000E+00 0.  1.
</event>
<event>
 7    1  0.5743890E-009  0.4614232E+02  0.7816164E-02  0.1320468E+00
        -11   -1    0    0    0    0  0.00000000000E+00  0.00000000000E+00  0.45593999997E+02  0.45594000000E+02  0.51100000000E-03 0. -1.
         11   -1    0    0    0    0 -0.00000000000E+00 -0.00000000000E+00 -0.45593999997E+02  0.45594000000E+02  0.51100000000E-03 0.  1.
    9900012    2    1    2    0    0 -0.25949391433E+02 -0.60806223866E+01 -0.36314853751E+02  0.46142317772E+02  0.10000000103E+02 0.  0.
         12    1    1    2    0    0  0.25949391433E+02  0.60806223866E+01  0.36314853751E+02  0.45045682228E+02  0.00000000000E+00 0. -1.
         11    1    3    3    0    0 -0.74849609523E+01 -0.10788761789E+01 -0.14644345838E+02  0.16481671018E+02  0.51100000000E-03 0. -1.
        -11    1    3    3    0    0 -0.53866155017E+00  0.11556090333E+01 -0.10412735843E+01  0.16461589966E+01  0.51100000000E-03 0.  1.
        -12    1    3    3    0    0 -0.17925768931E+02 -0.61573552411E+01 -0.20629234329E+02  0.28014487758E+02  0.00000000000E+00 0.  1.
</event>
<event>
 7    1  0.5743890E-009  0.4614232E+02  0.7816164E-02  0.1320468E+00
        -11   -1    0    0    0    0  0.00000000000E+00  0.00000000000E+00  0.45593999997E+02  0.45594000000E+02  0.51100000000E-03 0. -1.
         11   -1    0    0    0    0 -0.00000000000E+00 -0.00000000000E+00 -0.45593999997E+02  0.45594000000E+02  0.51100000000E-03 0.  1.
    9900012    2    1    2    0    0 -0.41679143038E+02  0.12147608324E+02  0.12016576621E+02  0.46142318009E+02  0.10000002256E+02 0.  0.
        -12    1    1    2    0    0  0.41679143038E+02 -0.12147608324E+02 -0.12016576621E+02  0.45045681991E+02  0.00000000000E+00 0.  1.
         11    1    3    3    0    0 -0.12391187818E+02  0.59320115405E+01  0.20962141691E+01  0.13896920902E+02  0.51100000000E-03 0. -1.
        -11    1    3    3    0    0 -0.26558087412E+02  0.74181068668E+01  0.80544381413E+01  0.28726891417E+02  0.51100000000E-03 0.  1.
        -12    1    3    3    0    0 -0.27298678079E+01 -0.12025100835E+01  0.18659243101E+01  0.35185056886E+01  0.00000000000E+00 0.  1.
</event>
<event>
 7    1  0.5743890E-009  0.4614231E+02  0.7816164E-02  0.1320468E+00
        -11   -1    0    0    0    0  0.00000000000E+00  0.00000000000E+00  0.45593999997E+02  0.45594000000E+02  0.51100000000E-03 0. -1.
         11   -1    0    0    0    0 -0.00000000000E+00 -0.00000000000E+00 -0.45593999997E+02  0.45594000000E+02  0.51100000000E-03 0.  1.
    9900012    2    1    2    0    0 -0.11458833985E+02 -0.26292286053E+02  0.34735066862E+02  0.46142311504E+02  0.99999429450E+01 0.  0.
        -12    1    1    2    0    0  0.11458833985E+02  0.26292286053E+02 -0.34735066862E+02  0.45045688496E+02  0.00000000000E+00 0.  1.
         11    1    3    3    0    0 -0.32993656325E+01 -0.13887329441E+02  0.17775883579E+02  0.22797494816E+02  0.51100000000E-03 0. -1.
        -11    1    3    3    0    0 -0.62529191158E+01 -0.12430575428E+02  0.16020134163E+02  0.21219399186E+02  0.51100000000E-03 0.  1.
        -12    1    3    3    0    0 -0.19065492362E+01  0.25618815752E-01  0.93904911886E+00  0.21254175029E+01  0.00000000000E+00 0.  1.
</event>
<event>
 7    1  0.5743890E-009  0.4614232E+02  0.7816164E-02  0.1320468E+00
        -11   -1    0    0    0    0  0.00000000000E+00  0.00000000000E+00  0.45593999997E+02  0.45594000000E+02  0.51100000000E-03 0. -1.
         11   -1    0    0    0    0 -0.00000000000E+00 -0.00000000000E+00 -0.45593999997E+02  0.45594000000E+02  0.51100000000E-03 0.  1.
    9900012    2    1    2    0    0  0.28142971503E+02  0.15373740267E+02  0.31634392347E+02  0.46142317476E+02  0.99999974046E+01 0.  0.
        -12    1    1    2    0    0 -0.28142971503E+02 -0.15373740267E+02 -0.31634392347E+02  0.45045682524E+02  0.00000000000E+00 0.  1.
         11    1    3    3    0    0  0.88291555467E+00  0.33060925228E+01  0.32722808284E+01  0.47347238279E+01  0.51100000000E-03 0. -1.
        -11    1    3    3    0    0  0.21426783743E+02  0.96660935191E+01  0.24770695880E+02  0.34148613444E+02  0.51100000000E-03 0.  1.
         12    1    3    3    0    0  0.58332722061E+01  0.24015542250E+01  0.35914156386E+01  0.72589802049E+01  0.00000000000E+00 0. -1.
</event>
<event>
 7    1  0.5743890E-009  0.4614232E+02  0.7816164E-02  0.1320468E+00
        -11   -1    0    0    0    0  0.00000000000E+00  0.00000000000E+00  0.45593999997E+02  0.45594000000E+02  0.51100000000E-03 0. -1.
         11   -1    0    0    0    0 -0.00000000000E+00 -0.00000000000E+00 -0.45593999997E+02  0.45594000000E+02  0.51100000000E-03 0.  1.
    9900012    2    1    2    0    0  0.16472022976E+02  0.25815186612E+02  0.33035770354E+02  0.46142317370E+02  0.99999964315E+01 0.  0.
        -12    1    1    2    0    0 -0.16472022976E+02 -0.25815186612E+02 -0.33035770354E+02  0.45045682630E+02  0.00000000000E+00 0.  1.
         11    1    3    3    0    0  0.10220786707E+02  0.12187000581E+02  0.12057565019E+02  0.19959266983E+02  0.51100000000E-03 0. -1.
        -11    1    3    3    0    0  0.37003514679E+01  0.31082114645E+01  0.69121668361E+01  0.84339569672E+01  0.51100000000E-03 0.  1.
         12    1    3    3    0    0  0.25508848017E+01  0.10519974567E+02  0.14066038499E+02  0.17749093420E+02  0.00000000000E+00 0. -1.
</event>
<event>
 7    1  0.5743890E-009  0.4614232E+02  0.7816164E-02  0.1320468E+00
        -11   -1    0    0    0    0  0.00000000000E+00  0.00000000000E+00  0.45593999997E+02  0.45594000000E+02  0.51100000000E-03 0. -1.
         11   -1    0    0    0    0 -0.00000000000E+00 -0.00000000000E+00 -0.45593999997E+02  0.45594000000E+02  0.51100000000E-03 0.  1.
    9900012    2    1    2    0    0  0.27855521822E+01  0.22149274391E+02  0.39124977357E+02  0.46142317519E+02  0.99999977906E+01 0.  0.
        -12    1    1    2    0    0 -0.27855521822E+01 -0.22149274391E+02 -0.39124977357E+02  0.45045682481E+02  0.00000000000E+00 0.  1.
         11    1    3    3    0    0 -0.18177728798E+01  0.88820798137E+01  0.10932191463E+02  0.14202410024E+02  0.51100000000E-03 0. -1.
        -11    1    3    3    0    0  0.10182428364E+01  0.75134074851E+00  0.54043659423E+00  0.13760099446E+01  0.51100000000E-03 0.  1.
         12    1    3    3    0    0  0.35850822256E+01  0.12515853829E+02  0.27652349300E+02  0.30563897550E+02  0.00000000000E+00 0. -1.
</event>
<event>
 7    1  0.5743890E-009  0.4614232E+02  0.7816164E-02  0.1320468E+00
        -11   -1    0    0    0    0  0.00000000000E+00  0.00000000000E+00  0.45593999997E+02  0.45594000000E+02  0.51100000000E-03 0.  1.
         11   -1    0    0    0    0 -0.00000000000E+00 -0.00000000000E+00 -0.45593999997E+02  0.45594000000E+02  0.51100000000E-03 0. -1.
    9900012    2    1    2    0    0 -0.43164448031E+02  0.91884399475E+01  0.90286465062E+01  0.46142318074E+02  0.10000002850E+02 0.  0.
        -12    1    1    2    0    0  0.43164448031E+02 -0.91884399475E+01 -0.90286465062E+01  0.45045681926E+02  0.00000000000E+00 0.  1.
         11    1    3    3    0    0 -0.10609854542E+02 -0.15517214541E+01  0.21051842214E+01  0.10927426675E+02  0.51100000000E-03 0. -1.
        -11    1    3    3    0    0 -0.83870039592E+01  0.45092412805E+01  0.10918085657E+01  0.95847346621E+01  0.51100000000E-03 0.  1.
        -12    1    3    3    0    0 -0.24167589530E+02  0.62309201211E+01  0.58316537190E+01  0.25630156736E+02  0.00000000000E+00 0.  1.
</event>
<event>
 7    1  0.5743890E-009  0.4614232E+02  0.7816164E-02  0.1320468E+00
        -11   -1    0    0    0    0  0.00000000000E+00  0.00000000000E+00  0.45593999997E+02  0.45594000000E+02  0.51100000000E-03 0. -1.
         11   -1    0    0    0    0 -0.00000000000E+00 -0.00000000000E+00 -0.45593999997E+02  0.45594000000E+02  0.51100000000E-03 0.  1.
    9900012    2    1    2    0    0  0.19239505894E+02 -0.33214492256E+02 -0.23574400648E+02  0.46142318201E+02  0.10000004011E+02 0.  0.
         12    1    1    2    0    0 -0.19239505894E+02  0.33214492256E+02  0.23574400648E+02  0.45045681799E+02  0.00000000000E+00 0. -1.
         11    1    3    3    0    0  0.71182472345E+01 -0.74530267076E+01 -0.85341002598E+01  0.13380878831E+02  0.51100000000E-03 0. -1.
        -11    1    3    3    0    0  0.63247854913E+01 -0.10830975517E+02 -0.97759133735E+01  0.15902245901E+02  0.51100000000E-03 0.  1.
        -12    1    3    3    0    0  0.57964731681E+01 -0.14930490031E+02 -0.52643870145E+01  0.16859193468E+02  0.00000000000E+00 0.  1.
</event>
<event>
 7    1  0.5743890E-009  0.4614232E+02  0.7816164E-02  0.1320468E+00
        -11   -1    0    0    0    0  0.00000000000E+00  0.00000000000E+00  0.45593999997E+02  0.45594000000E+02  0.51100000000E-03 0. -1.
         11   -1    0    0    0    0 -0.00000000000E+00 -0.00000000000E+00 -0.45593999997E+02  0.45594000000E+02  0.51100000000E-03 0.  1.
    9900012    2    1    2    0    0 -0.27795552919E+01  0.34840437310E+01 -0.44824646901E+02  0.46142318097E+02  0.10000003062E+02 0.  0.
         12    1    1    2    0    0  0.27795552919E+01 -0.34840437310E+01  0.44824646901E+02  0.45045681903E+02  0.00000000000E+00 0. -1.
         11    1    3    3    0    0  0.23499809070E+00  0.38193806728E+01 -0.98835280997E+01  0.10598444262E+02  0.51100000000E-03 0. -1.
        -11    1    3    3    0    0 -0.25648666519E+01  0.22418068910E+01 -0.26174514894E+02  0.26395254674E+02  0.51100000000E-03 0.  1.
         12    1    3    3    0    0 -0.44968673066E+00 -0.25771438327E+01 -0.87666039067E+01  0.91486191607E+01  0.00000000000E+00 0. -1.
</event>
<event>
 7    1  0.5743890E-009  0.4614232E+02  0.7816164E-02  0.1320468E+00
        -11   -1    0    0    0    0  0.00000000000E+00  0.00000000000E+00  0.45593999997E+02  0.45594000000E+02  0.51100000000E-03 0. -1.
         11   -1    0    0    0    0 -0.00000000000E+00 -0.00000000000E+00 -0.45593999997E+02  0.45594000000E+02  0.51100000000E-03 0.  1.
    9900012    2    1    2    0    0 -0.20055356576E+02 -0.41748974048E+01 -0.40118156093E+02  0.46142317143E+02  0.99999943646E+01 0.  0.
         12    1    1    2    0    0  0.20055356576E+02  0.41748974048E+01  0.40118156093E+02  0.45045682857E+02  0.00000000000E+00 0. -1.
         11    1    3    3    0    0 -0.59998233543E+00 -0.17634827096E+00 -0.27214923147E+01  0.27924179837E+01  0.51100000000E-03 0. -1.
        -11    1    3    3    0    0 -0.98248536964E+01 -0.43301156527E+01 -0.27570156632E+02  0.29587010473E+02  0.51100000000E-03 0.  1.
         12    1    3    3    0    0 -0.96305205444E+01  0.33156651889E+00 -0.98265071461E+01  0.13762888687E+02  0.00000000000E+00 0. -1.
</event>
<event>
 7    1  0.5743890E-009  0.4614232E+02  0.7816164E-02  0.1320468E+00
        -11   -1    0    0    0    0  0.00000000000E+00  0.00000000000E+00  0.45593999997E+02  0.45594000000E+02  0.51100000000E-03 0. -1.
         11   -1    0    0    0    0 -0.00000000000E+00 -0.00000000000E+00 -0.45593999997E+02  0.45594000000E+02  0.51100000000E-03 0.  1.
    9900012    2    1    2    0    0  0.23233786558E+02 -0.17040631435E+02  0.34625445689E+02  0.46142318224E+02  0.10000004218E+02 0.  0.
        -12    1    1    2    0    0 -0.23233786558E+02  0.17040631435E+02 -0.34625445689E+02  0.45045681776E+02  0.00000000000E+00 0.  1.
         11    1    3    3    0    0  0.53270754135E+01 -0.13469712374E+01  0.26049037346E+01  0.60809199718E+01  0.51100000000E-03 0. -1.
        -11    1    3    3    0    0  0.13169286740E+02 -0.94355974275E+01  0.22419074904E+02  0.27659998768E+02  0.51100000000E-03 0.  1.
        -12    1    3    3    0    0  0.47374244037E+01 -0.62580627706E+01  0.96014670506E+01  0.12401399483E+02  0.00000000000E+00 0.  1.
</event>
<event>
 7    1  0.5743890E-009  0.4614232E+02  0.7816164E-02  0.1320468E+00
        -11   -1    0    0    0    0  0.00000000000E+00  0.00000000000E+00  0.45593999997E+02  0.45594000000E+02  0.51100000000E-03 0. -1.
         11   -1    0    0    0    0 -0.00000000000E+00 -0.00000000000E+00 -0.45593999997E+02  0.45594000000E+02  0.51100000000E-03 0.  1.
    9900012    2    1    2    0    0  0.18865102588E+02 -0.36767564133E+02  0.17926729912E+02  0.46142317485E+02  0.99999974790E+01 0.  0.
        -12    1    1    2    0    0 -0.18865102588E+02  0.36767564133E+02 -0.17926729912E+02  0.45045682515E+02  0.00000000000E+00 0.  1.
         11    1    3    3    0    0  0.76554180324E+01 -0.11979281667E+02  0.51201684296E+01  0.15110418244E+02  0.51100000000E-03 0. -1.
        -11    1    3    3    0    0  0.81860405353E+00  0.38257747737E+00  0.10100301473E+01  0.13552266534E+01  0.51100000000E-03 0.  1.
         12    1    3    3    0    0  0.10391080502E+02 -0.25170859944E+02  0.11796531335E+02  0.29676672587E+02  0.00000000000E+00 0. -1.
</event>
<event>
 7    1  0.5743890E-009  0.4614231E+02  0.7816164E-02  0.1320468E+00
        -11   -1    0    0    0    0  0.00000000000E+00  0.00000000000E+00  0.45593999997E+02  0.45594000000E+02  0.51100000000E-03 0. -1.
         11   -1    0    0    0    0 -0.00000000000E+00 -0.00000000000E+00 -0.45593999997E+02  0.45594000000E+02  0.51100000000E-03 0.  1.
    9900012    2    1    2    0    0  0.18508628996E+02 -0.19074189385E+02 -0.36369214394E+02  0.46142314261E+02  0.99999680871E+01 0.  0.
         12    1    1    2    0    0 -0.18508628996E+02  0.19074189385E+02  0.36369214394E+02  0.45045685739E+02  0.00000000000E+00 0. -1.
         11    1    3    3    0    0 -0.47783693696E+00 -0.32509651132E+01 -0.65803289331E+01  0.73551228021E+01  0.51100000000E-03 0. -1.
        -11    1    3    3    0    0  0.21001672077E+01 -0.28157165484E+01 -0.46609541995E+01  0.58363906905E+01  0.51100000000E-03 0.  1.
         12    1    3    3    0    0  0.16886298726E+02 -0.13007507723E+02 -0.25127931261E+02  0.32950800769E+02  0.00000000000E+00 0. -1.
</event>
<event>
 7    1  0.5743890E-009  0.4614231E+02  0.7816164E-02  0.1320468E+00
        -11   -1    0    0    0    0  0.00000000000E+00  0.00000000000E+00  0.45593999997E+02  0.45594000000E+02  0.51100000000E-03 0. -1.
         11   -1    0    0    0    0 -0.00000000000E+00 -0.00000000000E+00 -0.45593999997E+02  0.45594000000E+02  0.51100000000E-03 0.  1.
    9900012    2    1    2    0    0  0.20481468143E+02  0.57184704385E+01 -0.39710485340E+02  0.46142311112E+02  0.99999393718E+01 0.  0.
         12    1    1    2    0    0 -0.20481468143E+02 -0.57184704385E+01  0.39710485340E+02  0.45045688888E+02  0.00000000000E+00 0. -1.
         11    1    3    3    0    0  0.52541581678E+01  0.13789274924E+01 -0.17303229006E+02  0.18135858220E+02  0.51100000000E-03 0. -1.
        -11    1    3    3    0    0  0.67236276635E+01  0.12286288767E+01 -0.52943808701E+01  0.86456443908E+01  0.51100000000E-03 0.  1.
        -12    1    3    3    0    0  0.85036823118E+01  0.31109140695E+01 -0.17112875464E+02  0.19360808502E+02  0.00000000000E+00 0.  1.
</event>
<event>
 7    1  0.5743890E-009  0.4614232E+02  0.7816164E-02  0.1320468E+00
        -11   -1    0    0    0    0  0.00000000000E+00  0.00000000000E+00  0.45593999997E+02  0.45594000000E+02  0.51100000000E-03 0. -1.
         11   -1    0    0    0    0 -0.00000000000E+00 -0.00000000000E+00 -0.45593999997E+02  0.45594000000E+02  0.51100000000E-03 0.  1.
    9900012    2    1    2    0    0 -0.17955038371E+02  0.18130386962E+02 -0.37121679810E+02  0.46142318229E+02  0.10000004268E+02 0.  0.
         12    1    1    2    0    0  0.17955038371E+02 -0.18130386962E+02  0.37121679810E+02  0.45045681771E+02  0.00000000000E+00 0. -1.
         11    1    3    3    0    0 -0.73607566744E+01  0.92348265665E+01 -0.17238486613E+02  0.20895649822E+02  0.51100000000E-03 0. -1.
        -11    1    3    3    0    0 -0.93127524569E+01  0.63436113977E+01 -0.19274967150E+02  0.22326959551E+02  0.51100000000E-03 0.  1.
         12    1    3    3    0    0 -0.12815292401E+01  0.25519489974E+01 -0.60822604672E+00  0.29197088557E+01  0.00000000000E+00 0. -1.
</event>
<event>
 7    1  0.5743890E-009  0.4614232E+02  0.7816164E-02  0.1320468E+00
        -11   -1    0    0    0    0  0.00000000000E+00  0.00000000000E+00  0.45593999997E+02  0.45594000000E+02  0.51100000000E-03 0. -1.
         11   -1    0    0    0    0 -0.00000000000E+00 -0.00000000000E+00 -0.45593999997E+02  0.45594000000E+02  0.51100000000E-03 0.  1.
    9900012    2    1    2    0    0  0.74534154914E+01 -0.11922146831E+02 -0.42795122926E+02  0.46142317256E+02  0.99999953980E+01 0.  0.
         12    1    1    2    0    0 -0.74534154914E+01  0.11922146831E+02  0.42795122926E+02  0.45045682744E+02  0.00000000000E+00 0. -1.
         11    1    3    3    0    0  0.39279320275E+01 -0.16731606361E+01 -0.12873321527E+02  0.13562836131E+02  0.51100000000E-03 0. -1.
        -11    1    3    3    0    0  0.54267810147E+01 -0.54468301037E+01 -0.19053306201E+02  0.20546201298E+02  0.51100000000E-03 0.  1.
         12    1    3    3    0    0 -0.19012975508E+01 -0.48021560912E+01 -0.10868495199E+02  0.12033279827E+02  0.00000000000E+00 0. -1.
</event>
<event>
 7    1  0.5743890E-009  0.4614232E+02  0.7816164E-02  0.1320468E+00
        -11   -1    0    0    0    0  0.00000000000E+00  0.00000000000E+00  0.45593999997E+02  0.45594000000E+02  0.51100000000E-03 0.  1.
         11   -1    0    0    0    0 -0.00000000000E+00 -0.00000000000E+00 -0.45593999997E+02  0.45594000000E+02  0.51100000000E-03 0. -1.
    9900012    2    1    2    0    0 -0.48827090300E+01 -0.42562054934E+02 -0.13919196324E+02  0.46142318809E+02  0.10000009553E+02 0.  0.
        -12    1    1    2    0    0  0.48827090300E+01  0.42562054934E+02  0.13919196324E+02  0.45045681191E+02  0.00000000000E+00 0.  1.
         11    1    3    3    0    0 -0.29956736835E+01 -0.95965519166E+01 -0.41017868071E+01  0.10857832416E+02  0.51100000000E-03 0. -1.
        -11    1    3    3    0    0 -0.35807169996E+01 -0.75875129176E+01 -0.34016083802E+01  0.90533323334E+01  0.51100000000E-03 0.  1.
         12    1    3    3    0    0  0.16936816531E+01 -0.25377990100E+02 -0.64158011371E+01  0.26231154059E+02  0.00000000000E+00 0. -1.
</event>
<event>
 7    1  0.5743890E-009  0.4614232E+02  0.7816164E-02  0.1320468E+00
        -11   -1    0    0    0    0  0.00000000000E+00  0.00000000000E+00  0.45593999997E+02  0.45594000000E+02  0.51100000000E-03 0.  1.
         11   -1    0    0    0    0 -0.00000000000E+00 -0.00000000000E+00 -0.45593999997E+02  0.45594000000E+02  0.51100000000E-03 0. -1.
    9900012    2    1    2    0    0  0.17266363468E+02 -0.24463865998E+02 -0.33652718387E+02  0.46142317612E+02  0.99999986438E+01 0.  0.
         12    1    1    2    0    0 -0.17266363468E+02  0.24463865998E+02  0.33652718387E+02  0.45045682388E+02  0.00000000000E+00 0. -1.
         11    1    3    3    0    0  0.55189032019E+01 -0.33448478384E+01 -0.42992649590E+01  0.77543522658E+01  0.51100000000E-03 0. -1.
        -11    1    3    3    0    0  0.14995336695E+01 -0.61418688234E+01 -0.10216817610E+02  0.12014762428E+02  0.51100000000E-03 0.  1.
        -12    1    3    3    0    0  0.10247926597E+02 -0.14977149336E+02 -0.19136635818E+02  0.26373202918E+02  0.00000000000E+00 0.  1.
</event>
<event>
 7    1  0.5743890E-009  0.4614232E+02  0.7816164E-02  0.1320468E+00
        -11   -1    0    0    0    0  0.00000000000E+00  0.00000000000E+00  0.45593999997E+02  0.45594000000E+02  0.51100000000E-03 0. -1.
         11   -1    0    0    0    0 -0.00000000000E+00 -0.00000000000E+00 -0.45593999997E+02  0.45594000000E+02  0.51100000000E-03 0.  1.
    9900012    2    1    2    0    0  0.44977621556E+01  0.36460921244E+02 -0.26066931121E+02  0.46142317183E+02  0.99999947252E+01 0.  0.
         12    1    1    2    0    0 -0.44977621556E+01 -0.36460921244E+02  0.26066931121E+02  0.45045682817E+02  0.00000000000E+00 0. -1.
         11    1    3    3    0    0  0.26091198309E+01  0.11610230583E+02 -0.32994236084E+01  0.12348730983E+02  0.51100000000E-03 0. -1.
        -11    1    3    3    0    0  0.12438393088E+01  0.13986946071E+02 -0.11783290521E+02  0.18331059226E+02  0.51100000000E-03 0.  1.
        -12    1    3    3    0    0  0.64480301587E+00  0.10863744591E+02 -0.10984216992E+02  0.15462526973E+02  0.00000000000E+00 0.  1.
</event>
<event>
 7    1  0.5743890E-009  0.4614232E+02  0.7816164E-02  0.1320468E+00
        -11   -1    0    0    0    0  0.00000000000E+00  0.00000000000E+00  0.45593999997E+02  0.45594000000E+02  0.51100000000E-03 0. -1.
         11   -1    0    0    0    0 -0.00000000000E+00 -0.00000000000E+00 -0.45593999997E+02  0.45594000000E+02  0.51100000000E-03 0.  1.
    9900012    2    1    2    0    0  0.16977431484E+02  0.37608822315E+01  0.41554013034E+02  0.46142318585E+02  0.10000007510E+02 0.  0.
        -12    1    1    2    0    0 -0.16977431484E+02 -0.37608822315E+01 -0.41554013034E+02  0.45045681415E+02  0.00000000000E+00 0.  1.
         11    1    3    3    0    0  0.15865359100E+02  0.36343322507E+01  0.35773150854E+02  0.39301861439E+02  0.51100000000E-03 0. -1.
        -11    1    3    3    0    0  0.13314993486E+01  0.16443955985E+01  0.31338634466E+01  0.37812732992E+01  0.51100000000E-03 0.  1.
        -12    1    3    3    0    0 -0.21942696512E+00 -0.15178456178E+01  0.26469987336E+01  0.30591838467E+01  0.00000000000E+00 0.  1.
</event>
<event>
 7    1  0.6886790E-009  0.4614232E+02  0.7816164E-02  0.1320468E+00
        -11   -1    0    0    0    0  0.00000000000E+00  0.00000000000E+00  0.45593999997E+02  0.45594000000E+02  0.51100000000E-03 0. -1.
         11   -1    0    0    0    0 -0.00000000000E+00 -0.00000000000E+00 -0.45593999997E+02  0.45594000000E+02  0.51100000000E-03 0.  1.
    9900012    2    1    2    0    0  0.14735256779E+02 -0.45996679852E+01  0.42318184732E+02  0.46142317666E+02  0.99999991336E+01 0.  0.
        -12    1    1    2    0    0 -0.14735256779E+02  0.45996679852E+01 -0.42318184732E+02  0.45045682334E+02  0.00000000000E+00 0.  1.
         11    1    3    3    0    0  0.65547314252E+01  0.96160775429E+00  0.18603766207E+02  0.19748147024E+02  0.51100000000E-03 0. -1.
        -11    1    3    3    0    0  0.49082833812E+01 -0.29942101110E+01  0.20026772204E+02  0.20835742010E+02  0.51100000000E-03 0.  1.
        -12    1    3    3    0    0  0.32722419727E+01 -0.25670656285E+01  0.36876463205E+01  0.55584286317E+01  0.00000000000E+00 0.  1.
</event>
<event>
 7    1  0.5743890E-009  0.4614232E+02  0.7816164E-02  0.1320468E+00
        -11   -1    0    0    0    0  0.00000000000E+00  0.00000000000E+00  0.45593999997E+02  0.45594000000E+02  0.51100000000E-03 0. -1.
         11   -1    0    0    0    0 -0.00000000000E+00 -0.00000000000E+00 -0.45593999997E+02  0.45594000000E+02  0.51100000000E-03 0.  1.
    9900012    2    1    2    0    0 -0.15402854681E+02 -0.28069541530E+02 -0.31685429866E+02  0.46142316968E+02  0.99999927665E+01 0.  0.
         12    1    1    2    0    0  0.15402854681E+02  0.28069541530E+02  0.31685429866E+02  0.45045683032E+02  0.00000000000E+00 0. -1.
         11    1    3    3    0    0 -0.40681704651E+01 -0.44284973240E+01 -0.48109323294E+01  0.77010823669E+01  0.51100000000E-03 0. -1.
        -11    1    3    3    0    0 -0.86053068319E+01 -0.20862908910E+02 -0.18412904004E+02  0.29126402249E+02  0.51100000000E-03 0.  1.
        -12    1    3    3    0    0 -0.27293773837E+01 -0.27781352959E+01 -0.84615935331E+01  0.93148323519E+01  0.00000000000E+00 0.  1.
</event>
<event>
 7    1  0.5743890E-009  0.4614232E+02  0.7816164E-02  0.1320468E+00
        -11   -1    0    0    0    0  0.00000000000E+00  0.00000000000E+00  0.45593999997E+02  0.45594000000E+02  0.51100000000E-03 0. -1.
         11   -1    0    0    0    0 -0.00000000000E+00 -0.00000000000E+00 -0.45593999997E+02  0.45594000000E+02  0.51100000000E-03 0.  1.
    9900012    2    1    2    0    0 -0.35641905303E+02  0.26494256204E+02 -0.75380642180E+01  0.46142318324E+02  0.10000005137E+02 0.  0.
         12    1    1    2    0    0  0.35641905303E+02 -0.26494256204E+02  0.75380642180E+01  0.45045681676E+02  0.00000000000E+00 0. -1.
         11    1    3    3    0    0 -0.26462428920E+02  0.16652057076E+02 -0.91458922525E+01  0.32576041726E+02  0.51100000000E-03 0.  1.
        -11    1    3    3    0    0 -0.49614038021E+01  0.54728531737E+01  0.11488382147E+01  0.74757928712E+01  0.51100000000E-03 0. -1.
        -12    1    3    3    0    0 -0.42180725813E+01  0.43693459546E+01  0.45898981983E+00  0.60904837268E+01  0.00000000000E+00 0.  1.
</event>
<event>
 7    1  0.5743890E-009  0.4614232E+02  0.7816164E-02  0.1320468E+00
        -11   -1    0    0    0    0  0.00000000000E+00  0.00000000000E+00  0.45593999997E+02  0.45594000000E+02  0.51100000000E-03 0. -1.
         11   -1    0    0    0    0 -0.00000000000E+00 -0.00000000000E+00 -0.45593999997E+02  0.45594000000E+02  0.51100000000E-03 0.  1.
    9900012    2    1    2    0    0  0.15367054889E+02  0.82643476441E+01 -0.41529118270E+02  0.46142317829E+02  0.10000000619E+02 0.  0.
         12    1    1    2    0    0 -0.15367054889E+02 -0.82643476441E+01  0.41529118270E+02  0.45045682171E+02  0.00000000000E+00 0. -1.
         11    1    3    3    0    0  0.74776323677E+01  0.63719482311E+01 -0.18593961198E+02  0.21029790854E+02  0.51100000000E-03 0. -1.
        -11    1    3    3    0    0  0.88398714125E+01  0.15054655048E+01 -0.21852626470E+02  0.23620902541E+02  0.51100000000E-03 0.  1.
         12    1    3    3    0    0 -0.95044889155E+00  0.38693390817E+00 -0.10825306029E+01  0.14916244336E+01  0.00000000000E+00 0. -1.
</event>
<event>
 7    1  0.5743890E-009  0.4614232E+02  0.7816164E-02  0.1320468E+00
        -11   -1    0    0    0    0  0.00000000000E+00  0.00000000000E+00  0.45593999997E+02  0.45594000000E+02  0.51100000000E-03 0. -1.
         11   -1    0    0    0    0 -0.00000000000E+00 -0.00000000000E+00 -0.45593999997E+02  0.45594000000E+02  0.51100000000E-03 0.  1.
    9900012    2    1    2    0    0  0.71524492511E+00 -0.22783877554E+02 -0.38852243759E+02  0.46142317667E+02  0.99999991456E+01 0.  0.
         12    1    1    2    0    0 -0.71524492511E+00  0.22783877554E+02  0.38852243759E+02  0.45045682333E+02  0.00000000000E+00 0. -1.
         11    1    3    3    0    0 -0.21236433069E+01 -0.20935133766E+01 -0.22617130397E+01  0.37427269855E+01  0.51100000000E-03 0. -1.
        -11    1    3    3    0    0 -0.33897238942E+00 -0.14069067946E+02 -0.23681703930E+02  0.27547716356E+02  0.51100000000E-03 0.  1.
         12    1    3    3    0    0  0.31778606214E+01 -0.66212962316E+01 -0.12908826789E+02  0.14851874325E+02  0.00000000000E+00 0. -1.
</event>
<event>
 7    1  0.9683023E-009  0.4614231E+02  0.7816164E-02  0.1320468E+00
        -11   -1    0    0    0    0  0.00000000000E+00  0.00000000000E+00  0.45593999997E+02  0.45594000000E+02  0.51100000000E-03 0. -1.
         11   -1    0    0    0    0 -0.00000000000E+00 -0.00000000000E+00 -0.45593999997E+02  0.45594000000E+02  0.51100000000E-03 0.  1.
    9900012    2    1    2    0    0 -0.19976870186E+02 -0.20921057620E+02  0.34530388899E+02  0.46142314836E+02  0.99999733233E+01 0.  0.
        -12    1    1    2    0    0  0.19976870186E+02  0.20921057620E+02 -0.34530388899E+02  0.45045685164E+02  0.00000000000E+00 0.  1.
         11    1    3    3    0    0 -0.77764644533E+00  0.51872844379E+00  0.11920404550E+01  0.15148511147E+01  0.51100000000E-03 0. -1.
        -11    1    3    3    0    0  0.43316665589E+00 -0.17677451669E+01  0.27601937105E+01  0.33062404492E+01  0.51100000000E-03 0.  1.
         12    1    3    3    0    0 -0.19632390397E+02 -0.19672040897E+02  0.30578154734E+02  0.41321223272E+02  0.00000000000E+00 0. -1.
</event>
<event>
 7    1  0.5743890E-009  0.4614232E+02  0.7816164E-02  0.1320468E+00
        -11   -1    0    0    0    0  0.00000000000E+00  0.00000000000E+00  0.45593999997E+02  0.45594000000E+02  0.51100000000E-03 0. -1.
         11   -1    0    0    0    0 -0.00000000000E+00 -0.00000000000E+00 -0.45593999997E+02  0.45594000000E+02  0.51100000000E-03 0.  1.
    9900012    2    1    2    0    0  0.33983304792E+02 -0.16899198181E+02  0.24262425832E+02  0.46142320840E+02  0.10000028079E+02 0.  0.
        -12    1    1    2    0    0 -0.33983304792E+02  0.16899198181E+02 -0.24262425832E+02  0.45045679160E+02  0.00000000000E+00 0.  1.
         11    1    3    3    0    0  0.22880110536E+02 -0.10630691212E+02  0.18266102297E+02  0.31147416381E+02  0.51100000000E-03 0. -1.
        -11    1    3    3    0    0  0.77738522257E+01 -0.68363484221E+01  0.48110299270E+01  0.11415535353E+02  0.51100000000E-03 0.  1.
        -12    1    3    3    0    0  0.33293420295E+01  0.56784145351E+00  0.11852936081E+01  0.35793691069E+01  0.00000000000E+00 0.  1.
</event>
<event>
 7    1  0.5743890E-009  0.4614232E+02  0.7816164E-02  0.1320468E+00
        -11   -1    0    0    0    0  0.00000000000E+00  0.00000000000E+00  0.45593999997E+02  0.45594000000E+02  0.51100000000E-03 0. -1.
         11   -1    0    0    0    0 -0.00000000000E+00 -0.00000000000E+00 -0.45593999997E+02  0.45594000000E+02  0.51100000000E-03 0.  1.
    9900012    2    1    2    0    0  0.28151757637E+02 -0.23650255801E+02 -0.26024169601E+02  0.46142318066E+02  0.10000002777E+02 0.  0.
         12    1    1    2    0    0 -0.28151757637E+02  0.23650255801E+02  0.26024169601E+02  0.45045681934E+02  0.00000000000E+00 0. -1.
         11    1    3    3    0    0  0.97022003537E-01  0.49828323433E-01 -0.77807254280E+00  0.78568013464E+00  0.51100000000E-03 0. -1.
        -11    1    3    3    0    0  0.18200093140E+02 -0.10400197060E+02 -0.16205308898E+02  0.26495651076E+02  0.51100000000E-03 0.  1.
         12    1    3    3    0    0  0.98546424939E+01 -0.13299887064E+02 -0.90407881605E+01  0.18860986855E+02  0.00000000000E+00 0. -1.
</event>
<event>
 7    1  0.5743890E-009  0.4614232E+02  0.7816164E-02  0.1320468E+00
        -11   -1    0    0    0    0  0.00000000000E+00  0.00000000000E+00  0.45593999997E+02  0.45594000000E+02  0.51100000000E-03 0. -1.
         11   -1    0    0    0    0 -0.00000000000E+00 -0.00000000000E+00 -0.45593999997E+02  0.45594000000E+02  0.51100000000E-03 0.  1.
    9900012    2    1    2    0    0 -0.23068727211E+02  0.20351903497E+01  0.38636837958E+02  0.46142318495E+02  0.10000006689E+02 0.  0.
        -12    1    1    2    0    0  0.23068727211E+02 -0.20351903497E+01 -0.38636837958E+02  0.45045681505E+02  0.00000000000E+00 0.  1.
         11    1    3    3    0    0 -0.10381518461E+02  0.52603921462E+00  0.20862943461E+02  0.23309119523E+02  0.51100000000E-03 0. -1.
        -11    1    3    3    0    0 -0.30082464026E+01 -0.24419508310E+01  0.50579768887E+01  0.63714834024E+01  0.51100000000E-03 0.  1.
         12    1    3    3    0    0 -0.96789623476E+01  0.39511019661E+01  0.12715917608E+02  0.16461715569E+02  0.00000000000E+00 0. -1.
</event>
<event>
 7    1  0.5743890E-009  0.4614233E+02  0.7816164E-02  0.1320468E+00
        -11   -1    0    0    0    0  0.00000000000E+00  0.00000000000E+00  0.45593999997E+02  0.45594000000E+02  0.51100000000E-03 0. -1.
         11   -1    0    0    0    0 -0.00000000000E+00 -0.00000000000E+00 -0.45593999997E+02  0.45594000000E+02  0.51100000000E-03 0.  1.
    9900012    2    1    2    0    0 -0.14083217967E+02  0.36156227239E+02  0.22880176437E+02  0.46142331282E+02  0.10000123289E+02 0.  0.
        -12    1    1    2    0    0  0.14083217967E+02 -0.36156227239E+02 -0.22880176437E+02  0.45045668718E+02  0.00000000000E+00 0.  1.
         11    1    3    3    0    0 -0.42675753174E+01  0.34284068247E+01  0.24112881603E+01  0.59816789699E+01  0.51100000000E-03 0. -1.
        -11    1    3    3    0    0 -0.49166056908E+01  0.93871620527E+01  0.48639116839E+01  0.11659736706E+02  0.51100000000E-03 0.  1.
        -12    1    3    3    0    0 -0.48990369591E+01  0.23340658362E+02  0.15604976593E+02  0.28500915606E+02  0.00000000000E+00 0.  1.
</event>
<event>
 7    1  0.5743890E-009  0.4614232E+02  0.7816164E-02  0.1320468E+00
        -11   -1    0    0    0    0  0.00000000000E+00  0.00000000000E+00  0.45593999997E+02  0.45594000000E+02  0.51100000000E-03 0. -1.
         11   -1    0    0    0    0 -0.00000000000E+00 -0.00000000000E+00 -0.45593999997E+02  0.45594000000E+02  0.51100000000E-03 0.  1.
    9900012    2    1    2    0    0 -0.13059528390E+02 -0.29643892260E+02 -0.31301789013E+02  0.46142316239E+02  0.99999861180E+01 0.  0.
         12    1    1    2    0    0  0.13059528390E+02  0.29643892260E+02  0.31301789013E+02  0.45045683761E+02  0.00000000000E+00 0. -1.
         11    1    3    3    0    0 -0.26859377790E+01 -0.14974680200E+02 -0.15061735232E+02  0.21408203504E+02  0.51100000000E-03 0. -1.
        -11    1    3    3    0    0 -0.72867188346E+00 -0.47785881669E+01 -0.39131088035E+01  0.62191871134E+01  0.51100000000E-03 0.  1.
        -12    1    3    3    0    0 -0.96449187271E+01 -0.98906238934E+01 -0.12326944978E+02  0.18514925621E+02  0.00000000000E+00 0.  1.
</event>
<event>
 7    1  0.5743890E-009  0.4614232E+02  0.7816164E-02  0.1320468E+00
        -11   -1    0    0    0    0  0.00000000000E+00  0.00000000000E+00  0.45593999997E+02  0.45594000000E+02  0.51100000000E-03 0. -1.
         11   -1    0    0    0    0 -0.00000000000E+00 -0.00000000000E+00 -0.45593999997E+02  0.45594000000E+02  0.51100000000E-03 0.  1.
    9900012    2    1    2    0    0  0.10973981605E+02 -0.34934128105E+02 -0.26235315317E+02  0.46142319313E+02  0.10000014153E+02 0.  0.
         12    1    1    2    0    0 -0.10973981605E+02  0.34934128105E+02  0.26235315317E+02  0.45045680687E+02  0.00000000000E+00 0. -1.
         11    1    3    3    0    0  0.80687892601E+01 -0.13064295935E+02 -0.95350471513E+01  0.18074797726E+02  0.51100000000E-03 0. -1.
        -11    1    3    3    0    0  0.36960030094E+01 -0.99885583068E+01 -0.77893646527E+01  0.13194920888E+02  0.51100000000E-03 0.  1.
        -12    1    3    3    0    0 -0.79081066432E+00 -0.11881273863E+02 -0.89109035132E+01  0.14872600699E+02  0.00000000000E+00 0.  1.
</event>
<event>
 7    1  0.5743890E-009  0.4614232E+02  0.7816164E-02  0.1320468E+00
        -11   -1    0    0    0    0  0.00000000000E+00  0.00000000000E+00  0.45593999997E+02  0.45594000000E+02  0.51100000000E-03 0. -1.
         11   -1    0    0    0    0 -0.00000000000E+00 -0.00000000000E+00 -0.45593999997E+02  0.45594000000E+02  0.51100000000E-03 0.  1.
    9900012    2    1    2    0    0  0.18050981647E+01 -0.25319593506E+02  0.37212542671E+02  0.46142317335E+02  0.99999961136E+01 0.  0.
        -12    1    1    2    0    0 -0.18050981647E+01  0.25319593506E+02 -0.37212542671E+02  0.45045682665E+02  0.00000000000E+00 0.  1.
         11    1    3    3    0    0  0.10148870683E+01 -0.10536861315E+01  0.43957963070E+01  0.46328474676E+01  0.51100000000E-03 0. -1.
        -11    1    3    3    0    0 -0.14951029145E+01 -0.23327946532E+01  0.13425981932E+01  0.30789338720E+01  0.51100000000E-03 0.  1.
        -12    1    3    3    0    0  0.22853140109E+01 -0.21933112722E+02  0.31474148171E+02  0.38430535995E+02  0.00000000000E+00 0.  1.
</event>
<event>
 7    1  0.5743890E-009  0.4614232E+02  0.7816164E-02  0.1320468E+00
        -11   -1    0    0    0    0  0.00000000000E+00  0.00000000000E+00  0.45593999997E+02  0.45594000000E+02  0.51100000000E-03 0. -1.
         11   -1    0    0    0    0 -0.00000000000E+00 -0.00000000000E+00 -0.45593999997E+02  0.45594000000E+02  0.51100000000E-03 0.  1.
    9900012    2    1    2    0    0 -0.43807291232E+02  0.31417852160E+01  0.10008191618E+02  0.46142317866E+02  0.10000000958E+02 0.  0.
        -12    1    1    2    0    0  0.43807291232E+02 -0.31417852160E+01 -0.10008191618E+02  0.45045682134E+02  0.00000000000E+00 0.  1.
         11    1    3    3    0    0 -0.96547054495E+01  0.15887586615E+01  0.45977728432E+01  0.10810966968E+02  0.51100000000E-03 0. -1.
        -11    1    3    3    0    0 -0.12601279480E+02 -0.28368881690E+01  0.22635761526E+01  0.13113502822E+02  0.51100000000E-03 0.  1.
         12    1    3    3    0    0 -0.21551306303E+02  0.43899147236E+01  0.31468426224E+01  0.22217848076E+02  0.00000000000E+00 0. -1.
</event>
<event>
 7    1  0.5743890E-009  0.4614232E+02  0.7816164E-02  0.1320468E+00
        -11   -1    0    0    0    0  0.00000000000E+00  0.00000000000E+00  0.45593999997E+02  0.45594000000E+02  0.51100000000E-03 0. -1.
         11   -1    0    0    0    0 -0.00000000000E+00 -0.00000000000E+00 -0.45593999997E+02  0.45594000000E+02  0.51100000000E-03 0.  1.
    9900012    2    1    2    0    0  0.92925859478E+01 -0.14772446336E+02  0.41527534689E+02  0.46142318057E+02  0.10000002700E+02 0.  0.
        -12    1    1    2    0    0 -0.92925859478E+01  0.14772446336E+02 -0.41527534689E+02  0.45045681943E+02  0.00000000000E+00 0.  1.
         11    1    3    3    0    0  0.19230787838E+00 -0.75930858485E-01 -0.12608580935E+00  0.24216875893E+00  0.51100000000E-03 0.  1.
        -11    1    3    3    0    0  0.33743289935E+01 -0.81989671222E+01  0.30595581097E+02  0.31854336297E+02  0.51100000000E-03 0. -1.
         12    1    3    3    0    0  0.57259490760E+01 -0.64975483558E+01  0.11058039402E+02  0.14045813001E+02  0.00000000000E+00 0. -1.
</event>
<event>
 7    1  0.5743890E-009  0.4614232E+02  0.7816164E-02  0.1320468E+00
        -11   -1    0    0    0    0  0.00000000000E+00  0.00000000000E+00  0.45593999997E+02  0.45594000000E+02  0.51100000000E-03 0. -1.
         11   -1    0    0    0    0 -0.00000000000E+00 -0.00000000000E+00 -0.45593999997E+02  0.45594000000E+02  0.51100000000E-03 0.  1.
    9900012    2    1    2    0    0  0.23682415336E+02 -0.27323114624E+02 -0.26864549704E+02  0.46142318523E+02  0.10000006951E+02 0.  0.
         12    1    1    2    0    0 -0.23682415336E+02  0.27323114624E+02  0.26864549704E+02  0.45045681477E+02  0.00000000000E+00 0. -1.
         11    1    3    3    0    0  0.74235729281E+00 -0.58576153019E+01 -0.41330228754E+01  0.72072622906E+01  0.51100000000E-03 0. -1.
        -11    1    3    3    0    0  0.88621213384E+01 -0.67646380082E+01 -0.95984713860E+01  0.14711498061E+02  0.51100000000E-03 0.  1.
        -12    1    3    3    0    0  0.14077936705E+02 -0.14700861313E+02 -0.13133055443E+02  0.24223558171E+02  0.00000000000E+00 0.  1.
</event>
<event>
 7    1  0.5743890E-009  0.4614232E+02  0.7816164E-02  0.1320468E+00
        -11   -1    0    0    0    0  0.00000000000E+00  0.00000000000E+00  0.45593999997E+02  0.45594000000E+02  0.51100000000E-03 0. -1.
         11   -1    0    0    0    0 -0.00000000000E+00 -0.00000000000E+00 -0.45593999997E+02  0.45594000000E+02  0.51100000000E-03 0.  1.
    9900012    2    1    2    0    0  0.74936335905E+01  0.42261022490E+01 -0.44216501956E+02  0.46142317301E+02  0.99999958058E+01 0.  0.
         12    1    1    2    0    0 -0.74936335905E+01 -0.42261022490E+01  0.44216501956E+02  0.45045682699E+02  0.00000000000E+00 0. -1.
         11    1    3    3    0    0  0.50927043049E+01 -0.10750348231E+00 -0.17942575076E+02  0.18651627134E+02  0.51100000000E-03 0. -1.
        -11    1    3    3    0    0  0.43630574976E+01  0.42989309611E+01 -0.19749684886E+02  0.20677696474E+02  0.51100000000E-03 0.  1.
         12    1    3    3    0    0 -0.19621282120E+01  0.34674770241E-01 -0.65242419939E+01  0.68129936926E+01  0.00000000000E+00 0. -1.
</event>
<event>
 7    1  0.5743890E-009  0.4614232E+02  0.7816164E-02  0.1320468E+00
        -11   -1    0    0    0    0  0.00000000000E+00  0.00000000000E+00  0.45593999997E+02  0.45594000000E+02  0.51100000000E-03 0. -1.
         11   -1    0    0    0    0 -0.00000000000E+00 -0.00000000000E+00 -0.45593999997E+02  0.45594000000E+02  0.51100000000E-03 0.  1.
    9900012    2    1    2    0    0  0.26415938929E+02  0.66659232386E+01 -0.35873069880E+02  0.46142317580E+02  0.99999983470E+01 0.  0.
         12    1    1    2    0    0 -0.26415938929E+02 -0.66659232386E+01  0.35873069880E+02  0.45045682420E+02  0.00000000000E+00 0. -1.
         11    1    3    3    0    0  0.17781377624E+01 -0.78024277446E+00 -0.56215047314E+01  0.59474253585E+01  0.51100000000E-03 0. -1.
        -11    1    3    3    0    0  0.17360947693E+02  0.22390505453E+01 -0.20625336098E+02  0.27052178129E+02  0.51100000000E-03 0.  1.
        -12    1    3    3    0    0  0.72768534739E+01  0.52071154677E+01 -0.96262290501E+01  0.13142714092E+02  0.00000000000E+00 0.  1.
</event>
<event>
 7    1  0.5743890E-009  0.4614232E+02  0.7816164E-02  0.1320468E+00
        -11   -1    0    0    0    0  0.00000000000E+00  0.00000000000E+00  0.45593999997E+02  0.45594000000E+02  0.51100000000E-03 0. -1.
         11   -1    0    0    0    0 -0.00000000000E+00 -0.00000000000E+00 -0.45593999997E+02  0.45594000000E+02  0.51100000000E-03 0.  1.
    9900012    2    1    2    0    0 -0.17215724780E+02  0.28472597239E+02 -0.30365169177E+02  0.46142317939E+02  0.10000001621E+02 0.  0.
         12    1    1    2    0    0  0.17215724780E+02 -0.28472597239E+02  0.30365169177E+02  0.45045682061E+02  0.00000000000E+00 0. -1.
         11    1    3    3    0    0 -0.31491739647E+01  0.14426543614E+01 -0.55525638036E+01  0.65444261262E+01  0.51100000000E-03 0. -1.
        -11    1    3    3    0    0 -0.53451445670E+01  0.57002992256E+01 -0.61052554514E+01  0.99165581777E+01  0.51100000000E-03 0.  1.
         12    1    3    3    0    0 -0.87214062480E+01  0.21329643652E+02 -0.18707349922E+02  0.29681333635E+02  0.00000000000E+00 0. -1.
</event>
<event>
 7    1  0.5743890E-009  0.4614232E+02  0.7816164E-02  0.1320468E+00
        -11   -1    0    0    0    0  0.00000000000E+00  0.00000000000E+00  0.45593999997E+02  0.45594000000E+02  0.51100000000E-03 0. -1.
         11   -1    0    0    0    0 -0.00000000000E+00 -0.00000000000E+00 -0.45593999997E+02  0.45594000000E+02  0.51100000000E-03 0.  1.
    9900012    2    1    2    0    0 -0.29094282088E+02  0.43228877704E+00  0.34386763000E+02  0.46142316595E+02  0.99999893628E+01 0.  0.
        -12    1    1    2    0    0  0.29094282088E+02 -0.43228877704E+00 -0.34386763000E+02  0.45045683405E+02  0.00000000000E+00 0.  1.
         11    1    3    3    0    0 -0.10292438850E+02 -0.78931602046E+00  0.11433409746E+02  0.15403901322E+02  0.51100000000E-03 0.  1.
        -11    1    3    3    0    0 -0.19358282967E+02  0.19924085260E+01  0.22224521695E+02  0.29540517531E+02  0.51100000000E-03 0. -1.
         12    1    3    3    0    0  0.55643972775E+00 -0.77080372854E+00  0.72883155880E+00  0.11978977417E+01  0.00000000000E+00 0. -1.
</event>
<event>
 7    1  0.5743890E-009  0.4614232E+02  0.7816164E-02  0.1320468E+00
        -11   -1    0    0    0    0  0.00000000000E+00  0.00000000000E+00  0.45593999997E+02  0.45594000000E+02  0.51100000000E-03 0. -1.
         11   -1    0    0    0    0 -0.00000000000E+00 -0.00000000000E+00 -0.45593999997E+02  0.45594000000E+02  0.51100000000E-03 0.  1.
    9900012    2    1    2    0    0 -0.10801234244E+02  0.20654862111E+02  0.38546381611E+02  0.46142317351E+02  0.99999962582E+01 0.  0.
        -12    1    1    2    0    0  0.10801234244E+02 -0.20654862111E+02 -0.38546381611E+02  0.45045682649E+02  0.00000000000E+00 0.  1.
         11    1    3    3    0    0 -0.43884659181E+01  0.16031327258E+02  0.26029498867E+02  0.30883602418E+02  0.51100000000E-03 0. -1.
        -11    1    3    3    0    0 -0.16820805844E+01  0.34685290575E+01  0.53600369612E+01  0.66022788037E+01  0.51100000000E-03 0.  1.
        -12    1    3    3    0    0 -0.47306877418E+01  0.11550057950E+01  0.71568457832E+01  0.86564361294E+01  0.00000000000E+00 0.  1.
</event>
<event>
 7    1  0.5743890E-009  0.4614232E+02  0.7816164E-02  0.1320468E+00
        -11   -1    0    0    0    0  0.00000000000E+00  0.00000000000E+00  0.45593999997E+02  0.45594000000E+02  0.51100000000E-03 0. -1.
         11   -1    0    0    0    0 -0.00000000000E+00 -0.00000000000E+00 -0.45593999997E+02  0.45594000000E+02  0.51100000000E-03 0.  1.
    9900012    2    1    2    0    0 -0.34014799730E+02  0.23764185836E+02 -0.17531982041E+02  0.46142317373E+02  0.99999964565E+01 0.  0.
         12    1    1    2    0    0  0.34014799730E+02 -0.23764185836E+02  0.17531982041E+02  0.45045682627E+02  0.00000000000E+00 0. -1.
         11    1    3    3    0    0 -0.48839337975E+01  0.61983751883E+01 -0.17699136107E+01  0.80873517769E+01  0.51100000000E-03 0. -1.
        -11    1    3    3    0    0 -0.26917716158E+02  0.17020471536E+02 -0.16204651838E+02  0.35733046832E+02  0.51100000000E-03 0.  1.
        -12    1    3    3    0    0 -0.22131497745E+01  0.54533911114E+00  0.44258340769E+00  0.23219187633E+01  0.00000000000E+00 0.  1.
</event>
<event>
 7    1  0.5743890E-009  0.4614232E+02  0.7816164E-02  0.1320468E+00
        -11   -1    0    0    0    0  0.00000000000E+00  0.00000000000E+00  0.45593999997E+02  0.45594000000E+02  0.51100000000E-03 0.  1.
         11   -1    0    0    0    0 -0.00000000000E+00 -0.00000000000E+00 -0.45593999997E+02  0.45594000000E+02  0.51100000000E-03 0. -1.
    9900012    2    1    2    0    0  0.31416645781E+02  0.13789348761E+02 -0.29188384607E+02  0.46142316884E+02  0.99999920057E+01 0.  0.
         12    1    1    2    0    0 -0.31416645781E+02 -0.13789348761E+02  0.29188384607E+02  0.45045683116E+02  0.00000000000E+00 0. -1.
         11    1    3    3    0    0  0.14039741777E+02  0.81554835583E+01 -0.12440681241E+02  0.20454750334E+02  0.51100000000E-03 0. -1.
        -11    1    3    3    0    0  0.10841468197E+02  0.29066656816E+01 -0.57613553610E+01  0.12616630053E+02  0.51100000000E-03 0.  1.
         12    1    3    3    0    0  0.65354358074E+01  0.27271995216E+01 -0.10986348005E+02  0.13070936497E+02  0.00000000000E+00 0. -1.
</event>
<event>
 7    1  0.5743890E-009  0.4614232E+02  0.7816164E-02  0.1320468E+00
        -11   -1    0    0    0    0  0.00000000000E+00  0.00000000000E+00  0.45593999997E+02  0.45594000000E+02  0.51100000000E-03 0. -1.
         11   -1    0    0    0    0 -0.00000000000E+00 -0.00000000000E+00 -0.45593999997E+02  0.45594000000E+02  0.51100000000E-03 0.  1.
    9900012    2    1    2    0    0 -0.12246655315E+02 -0.20631724390E+01 -0.43299842223E+02  0.46142316706E+02  0.99999903761E+01 0.  0.
         12    1    1    2    0    0  0.12246655315E+02  0.20631724390E+01  0.43299842223E+02  0.45045683294E+02  0.00000000000E+00 0. -1.
         11    1    3    3    0    0 -0.28379486944E+01 -0.66827276332E+00 -0.14842552746E+02  0.15126199574E+02  0.51100000000E-03 0. -1.
        -11    1    3    3    0    0 -0.48655579454E+01  0.29541386501E+01 -0.98713493126E+01  0.11394916709E+02  0.51100000000E-03 0.  1.
         12    1    3    3    0    0 -0.45431486750E+01 -0.43490383258E+01 -0.18585940164E+02  0.19621200423E+02  0.00000000000E+00 0. -1.
</event>
<event>
 7    1  0.5743890E-009  0.4614232E+02  0.7816164E-02  0.1320468E+00
        -11   -1    0    0    0    0  0.00000000000E+00  0.00000000000E+00  0.45593999997E+02  0.45594000000E+02  0.51100000000E-03 0. -1.
         11   -1    0    0    0    0 -0.00000000000E+00 -0.00000000000E+00 -0.45593999997E+02  0.45594000000E+02  0.51100000000E-03 0.  1.
    9900012    2    1    2    0    0  0.32553332680E+02  0.19674835142E+02 -0.24130790277E+02  0.46142316013E+02  0.99999840608E+01 0.  0.
         12    1    1    2    0    0 -0.32553332680E+02 -0.19674835142E+02  0.24130790277E+02  0.45045683987E+02  0.00000000000E+00 0. -1.
         11    1    3    3    0    0  0.30118776156E+02  0.17084576504E+02 -0.18265374607E+02  0.39149040106E+02  0.51100000000E-03 0. -1.
        -11    1    3    3    0    0  0.24338740297E+01  0.19310036319E+01 -0.43992667184E+01  0.53857279675E+01  0.51100000000E-03 0.  1.
         12    1    3    3    0    0  0.68249448802E-03  0.65925500636E+00 -0.14661489516E+01  0.16075479395E+01  0.00000000000E+00 0. -1.
</event>
<event>
 7    1  0.5743890E-009  0.4614232E+02  0.7816164E-02  0.1320468E+00
        -11   -1    0    0    0    0  0.00000000000E+00  0.00000000000E+00  0.45593999997E+02  0.45594000000E+02  0.51100000000E-03 0. -1.
         11   -1    0    0    0    0 -0.00000000000E+00 -0.00000000000E+00 -0.45593999997E+02  0.45594000000E+02  0.51100000000E-03 0.  1.
    9900012    2    1    2    0    0 -0.26189508071E+02  0.25438645505E+02  0.26383679171E+02  0.46142317136E+02  0.99999942952E+01 0.  0.
        -12    1    1    2    0    0  0.26189508071E+02 -0.25438645505E+02 -0.26383679171E+02  0.45045682864E+02  0.00000000000E+00 0.  1.
         11    1    3    3    0    0 -0.52704733100E+01  0.35277982414E+01  0.22170423316E+01  0.67185211397E+01  0.51100000000E-03 0. -1.
        -11    1    3    3    0    0 -0.24379084395E+01  0.43601902976E+01  0.12507257519E+01  0.51496574797E+01  0.51100000000E-03 0.  1.
         12    1    3    3    0    0 -0.18481126322E+02  0.17550656966E+02  0.22915911087E+02  0.34274138516E+02  0.00000000000E+00 0. -1.
</event>
<event>
 7    1  0.5743890E-009  0.4614232E+02  0.7816164E-02  0.1320468E+00
        -11   -1    0    0    0    0  0.00000000000E+00  0.00000000000E+00  0.45593999997E+02  0.45594000000E+02  0.51100000000E-03 0. -1.
         11   -1    0    0    0    0 -0.00000000000E+00 -0.00000000000E+00 -0.45593999997E+02  0.45594000000E+02  0.51100000000E-03 0.  1.
    9900012    2    1    2    0    0 -0.11306269946E+02  0.25919067202E+02 -0.35063994551E+02  0.46142317647E+02  0.99999989637E+01 0.  0.
         12    1    1    2    0    0  0.11306269946E+02 -0.25919067202E+02  0.35063994551E+02  0.45045682353E+02  0.00000000000E+00 0. -1.
         11    1    3    3    0    0 -0.93327361879E+00  0.11960213150E+02 -0.12890393948E+02  0.17609087274E+02  0.51100000000E-03 0. -1.
        -11    1    3    3    0    0 -0.28196451066E+01  0.75202446507E+01 -0.97674667808E+01  0.12645468979E+02  0.51100000000E-03 0.  1.
         12    1    3    3    0    0 -0.75533512202E+01  0.64386094015E+01 -0.12406133823E+02  0.15887761394E+02  0.00000000000E+00 0. -1.
</event>
<event>
 7    1  0.5743890E-009  0.4614232E+02  0.7816164E-02  0.1320468E+00
        -11   -1    0    0    0    0  0.00000000000E+00  0.00000000000E+00  0.45593999997E+02  0.45594000000E+02  0.51100000000E-03 0. -1.
         11   -1    0    0    0    0 -0.00000000000E+00 -0.00000000000E+00 -0.45593999997E+02  0.45594000000E+02  0.51100000000E-03 0.  1.
    9900012    2    1    2    0    0  0.20490779179E+02 -0.31353294321E+02 -0.25024238078E+02  0.46142316660E+02  0.99999899631E+01 0.  0.
         12    1    1    2    0    0 -0.20490779179E+02  0.31353294321E+02  0.25024238078E+02  0.45045683340E+02  0.00000000000E+00 0. -1.
         11    1    3    3    0    0  0.49039031163E+01 -0.27972732142E+01 -0.50470342080E+01  0.75726849774E+01  0.51100000000E-03 0. -1.
        -11    1    3    3    0    0  0.15775170760E+02 -0.27566333946E+02 -0.18422707625E+02  0.36717229419E+02  0.51100000000E-03 0.  1.
        -12    1    3    3    0    0 -0.18829469808E+00 -0.98968716100E+00 -0.15544962451E+01  0.18524022635E+01  0.00000000000E+00 0.  1.
</event>
<event>
 7    1  0.5743890E-009  0.4614232E+02  0.7816164E-02  0.1320468E+00
        -11   -1    0    0    0    0  0.00000000000E+00  0.00000000000E+00  0.45593999997E+02  0.45594000000E+02  0.51100000000E-03 0. -1.
         11   -1    0    0    0    0 -0.00000000000E+00 -0.00000000000E+00 -0.45593999997E+02  0.45594000000E+02  0.51100000000E-03 0.  1.
    9900012    2    1    2    0    0  0.26752602734E+02  0.10603945645E+02 -0.34654985917E+02  0.46142318018E+02  0.10000002344E+02 0.  0.
         12    1    1    2    0    0 -0.26752602734E+02 -0.10603945645E+02  0.34654985917E+02  0.45045681982E+02  0.00000000000E+00 0. -1.
         11    1    3    3    0    0  0.18970888368E+02  0.61974818696E+01 -0.23259420869E+02  0.30648067580E+02  0.51100000000E-03 0. -1.
        -11    1    3    3    0    0  0.73613064849E+01  0.55647113174E+01 -0.95942531662E+01  0.13311819533E+02  0.51100000000E-03 0.  1.
         12    1    3    3    0    0  0.42040788046E+00 -0.11582475418E+01 -0.18013118825E+01  0.21824309043E+01  0.00000000000E+00 0. -1.
</event>
<event>
 7    1  0.5743890E-009  0.4614232E+02  0.7816164E-02  0.1320468E+00
        -11   -1    0    0    0    0  0.00000000000E+00  0.00000000000E+00  0.45593999997E+02  0.45594000000E+02  0.51100000000E-03 0. -1.
         11   -1    0    0    0    0 -0.00000000000E+00 -0.00000000000E+00 -0.45593999997E+02  0.45594000000E+02  0.51100000000E-03 0.  1.
    9900012    2    1    2    0    0  0.23509018209E+02  0.93853496068E+01  0.37260630032E+02  0.46142320132E+02  0.10000021623E+02 0.  0.
        -12    1    1    2    0    0 -0.23509018209E+02 -0.93853496068E+01 -0.37260630032E+02  0.45045679868E+02  0.00000000000E+00 0.  1.
         11    1    3    3    0    0  0.10235692156E+02  0.61430275314E+01  0.18296140026E+02  0.21846164911E+02  0.51100000000E-03 0. -1.
        -11    1    3    3    0    0  0.91794693570E+01 -0.27570417535E+00  0.15041274015E+02  0.17623240188E+02  0.51100000000E-03 0.  1.
        -12    1    3    3    0    0  0.40938566951E+01  0.35180262508E+01  0.39232159899E+01  0.66729150335E+01  0.00000000000E+00 0.  1.
</event>
<event>
 7    1  0.5743890E-009  0.4614232E+02  0.7816164E-02  0.1320468E+00
        -11   -1    0    0    0    0  0.00000000000E+00  0.00000000000E+00  0.45593999997E+02  0.45594000000E+02  0.51100000000E-03 0. -1.
         11   -1    0    0    0    0 -0.00000000000E+00 -0.00000000000E+00 -0.45593999997E+02  0.45594000000E+02  0.51100000000E-03 0.  1.
    9900012    2    1    2    0    0  0.29904834893E+02  0.12032339244E+02  0.31464853976E+02  0.46142319037E+02  0.10000011636E+02 0.  0.
        -12    1    1    2    0    0 -0.29904834893E+02 -0.12032339244E+02 -0.31464853976E+02  0.45045680963E+02  0.00000000000E+00 0.  1.
         11    1    3    3    0    0  0.57641420788E+01  0.13535302187E+01  0.40269210280E+01  0.71605496426E+01  0.51100000000E-03 0. -1.
        -11    1    3    3    0    0  0.12508013407E+02  0.35388537218E+01  0.81140561557E+01  0.15323569839E+02  0.51100000000E-03 0.  1.
        -12    1    3    3    0    0  0.11632679408E+02  0.71399553038E+01  0.19323876792E+02  0.23658199556E+02  0.00000000000E+00 0.  1.
</event>
<event>
 7    1  0.5743890E-009  0.4614232E+02  0.7816164E-02  0.1320468E+00
        -11   -1    0    0    0    0  0.00000000000E+00  0.00000000000E+00  0.45593999997E+02  0.45594000000E+02  0.51100000000E-03 0. -1.
         11   -1    0    0    0    0 -0.00000000000E+00 -0.00000000000E+00 -0.45593999997E+02  0.45594000000E+02  0.51100000000E-03 0.  1.
    9900012    2    1    2    0    0  0.31967193831E+01  0.15623482838E+02 -0.42128389930E+02  0.46142317977E+02  0.10000001969E+02 0.  0.
         12    1    1    2    0    0 -0.31967193831E+01 -0.15623482838E+02  0.42128389930E+02  0.45045682023E+02  0.00000000000E+00 0. -1.
         11    1    3    3    0    0  0.81283775075E+00  0.87625545688E+01 -0.23343541915E+02  0.24947224639E+02  0.51100000000E-03 0. -1.
        -11    1    3    3    0    0  0.25831047445E+01  0.18217705800E+01 -0.21759925546E+01  0.38374759968E+01  0.51100000000E-03 0.  1.
        -12    1    3    3    0    0 -0.19922311215E+00  0.50391576895E+01 -0.16608855460E+02  0.17357617341E+02  0.00000000000E+00 0.  1.
</event>
<event>
 7    1  0.5743890E-009  0.4614232E+02  0.7816164E-02  0.1320468E+00
        -11   -1    0    0    0    0  0.00000000000E+00  0.00000000000E+00  0.45593999997E+02  0.45594000000E+02  0.51100000000E-03 0. -1.
         11   -1    0    0    0    0 -0.00000000000E+00 -0.00000000000E+00 -0.45593999997E+02  0.45594000000E+02  0.51100000000E-03 0.  1.
    9900012    2    1    2    0    0  0.24518879600E+02 -0.36943975864E+02  0.79423036327E+01  0.46142323221E+02  0.10000049788E+02 0.  0.
        -12    1    1    2    0    0 -0.24518879600E+02  0.36943975864E+02 -0.79423036327E+01  0.45045676779E+02  0.00000000000E+00 0.  1.
         11    1    3    3    0    0  0.52847663231E+01 -0.75501671653E+01  0.12102105618E+01  0.92950733822E+01  0.51100000000E-03 0. -1.
        -11    1    3    3    0    0  0.12661458001E+02 -0.25790664977E+02  0.54206105874E+01  0.29237885321E+02  0.51100000000E-03 0.  1.
         12    1    3    3    0    0  0.65726552760E+01 -0.36031437217E+01  0.13114824835E+01  0.76093645175E+01  0.00000000000E+00 0. -1.
</event>
<event>
 7    1  0.5743890E-009  0.4614232E+02  0.7816164E-02  0.1320468E+00
        -11   -1    0    0    0    0  0.00000000000E+00  0.00000000000E+00  0.45593999997E+02  0.45594000000E+02  0.51100000000E-03 0. -1.
         11   -1    0    0    0    0 -0.00000000000E+00 -0.00000000000E+00 -0.45593999997E+02  0.45594000000E+02  0.51100000000E-03 0.  1.
    9900012    2    1    2    0    0 -0.21095215778E+02 -0.16138936132E+02  0.36381867360E+02  0.46142315847E+02  0.99999825434E+01 0.  0.
        -12    1    1    2    0    0  0.21095215778E+02  0.16138936132E+02 -0.36381867360E+02  0.45045684153E+02  0.00000000000E+00 0.  1.
         11    1    3    3    0    0 -0.43800374919E+00  0.54119222620E+00  0.26166588475E+00  0.74377792813E+00  0.51100000000E-03 0.  1.
        -11    1    3    3    0    0 -0.27935089542E+01 -0.47482134658E+00  0.72204387846E+01  0.77565381512E+01  0.51100000000E-03 0. -1.
         12    1    3    3    0    0 -0.17863703075E+02 -0.16205307012E+02  0.28899762691E+02  0.37641999767E+02  0.00000000000E+00 0. -1.
</event>
<event>
 7    1  0.5743890E-009  0.4614232E+02  0.7816164E-02  0.1320468E+00
        -11   -1    0    0    0    0  0.00000000000E+00  0.00000000000E+00  0.45593999997E+02  0.45594000000E+02  0.51100000000E-03 0. -1.
         11   -1    0    0    0    0 -0.00000000000E+00 -0.00000000000E+00 -0.45593999997E+02  0.45594000000E+02  0.51100000000E-03 0.  1.
    9900012    2    1    2    0    0 -0.31230735795E+02 -0.12525754108E+02 -0.29947622841E+02  0.46142317764E+02  0.10000000025E+02 0.  0.
         12    1    1    2    0    0  0.31230735795E+02  0.12525754108E+02  0.29947622841E+02  0.45045682236E+02  0.00000000000E+00 0. -1.
         11    1    3    3    0    0 -0.14223332789E+02 -0.83617822336E+01 -0.19888018530E+02  0.25840972874E+02  0.51100000000E-03 0. -1.
        -11    1    3    3    0    0 -0.91112933635E+01 -0.30191474367E+01 -0.62994828540E+01  0.11481045357E+02  0.51100000000E-03 0.  1.
        -12    1    3    3    0    0 -0.78961096423E+01 -0.11448244375E+01 -0.37601214570E+01  0.88202995327E+01  0.00000000000E+00 0.  1.
</event>
<event>
 7    1  0.5743890E-009  0.4614232E+02  0.7816164E-02  0.1320468E+00
        -11   -1    0    0    0    0  0.00000000000E+00  0.00000000000E+00  0.45593999997E+02  0.45594000000E+02  0.51100000000E-03 0. -1.
         11   -1    0    0    0    0 -0.00000000000E+00 -0.00000000000E+00 -0.45593999997E+02  0.45594000000E+02  0.51100000000E-03 0.  1.
    9900012    2    1    2    0    0 -0.29853161728E+02 -0.73368153016E+00  0.33724827008E+02  0.46142317516E+02  0.99999977626E+01 0.  0.
        -12    1    1    2    0    0  0.29853161728E+02  0.73368153016E+00 -0.33724827008E+02  0.45045682484E+02  0.00000000000E+00 0.  1.
         11    1    3    3    0    0 -0.22894982545E+02 -0.42932822267E+01  0.22167509508E+02  0.32156041051E+02  0.51100000000E-03 0. -1.
        -11    1    3    3    0    0 -0.31881151816E+01  0.11039804853E+01  0.47412158459E+01  0.58191046805E+01  0.51100000000E-03 0.  1.
         12    1    3    3    0    0 -0.37700640013E+01  0.24556202112E+01  0.68161016542E+01  0.81671717844E+01  0.00000000000E+00 0. -1.
</event>
<event>
 7    1  0.5743890E-009  0.4614232E+02  0.7816164E-02  0.1320468E+00
        -11   -1    0    0    0    0  0.00000000000E+00  0.00000000000E+00  0.45593999997E+02  0.45594000000E+02  0.51100000000E-03 0. -1.
         11   -1    0    0    0    0 -0.00000000000E+00 -0.00000000000E+00 -0.45593999997E+02  0.45594000000E+02  0.51100000000E-03 0.  1.
    9900012    2    1    2    0    0  0.37803200565E+01  0.30207995996E+02  0.33200897658E+02  0.46142318219E+02  0.10000004173E+02 0.  0.
        -12    1    1    2    0    0 -0.37803200565E+01 -0.30207995996E+02 -0.33200897658E+02  0.45045681781E+02  0.00000000000E+00 0.  1.
         11    1    3    3    0    0 -0.69263716229E+00  0.41254806385E+01  0.46634268486E+01  0.62647335913E+01  0.51100000000E-03 0. -1.
        -11    1    3    3    0    0 -0.26193325768E+01  0.83716521122E+01  0.86832879647E+01  0.12342809744E+02  0.51100000000E-03 0.  1.
        -12    1    3    3    0    0  0.70922897955E+01  0.17710863245E+02  0.19854182845E+02  0.27534774883E+02  0.00000000000E+00 0.  1.
</event>
<event>
 7    1  0.5743890E-009  0.4614232E+02  0.7816164E-02  0.1320468E+00
        -11   -1    0    0    0    0  0.00000000000E+00  0.00000000000E+00  0.45593999997E+02  0.45594000000E+02  0.51100000000E-03 0. -1.
         11   -1    0    0    0    0 -0.00000000000E+00 -0.00000000000E+00 -0.45593999997E+02  0.45594000000E+02  0.51100000000E-03 0.  1.
    9900012    2    1    2    0    0  0.76131800056E+01  0.23064609260E+01 -0.44337717935E+02  0.46142317593E+02  0.99999984707E+01 0.  0.
         12    1    1    2    0    0 -0.76131800056E+01 -0.23064609260E+01  0.44337717935E+02  0.45045682407E+02  0.00000000000E+00 0. -1.
         11    1    3    3    0    0  0.26106676651E+01 -0.21589644647E+01 -0.80378015431E+01  0.87225550801E+01  0.51100000000E-03 0. -1.
        -11    1    3    3    0    0  0.50141065859E+01  0.15215491466E+01 -0.14416656783E+02  0.15339373185E+02  0.51100000000E-03 0.  1.
         12    1    3    3    0    0 -0.11594245469E-01  0.29438762441E+01 -0.21883259609E+02  0.22080389328E+02  0.00000000000E+00 0. -1.
</event>
<event>
 7    1  0.5743890E-009  0.4614232E+02  0.7816164E-02  0.1320468E+00
        -11   -1    0    0    0    0  0.00000000000E+00  0.00000000000E+00  0.45593999997E+02  0.45594000000E+02  0.51100000000E-03 0. -1.
         11   -1    0    0    0    0 -0.00000000000E+00 -0.00000000000E+00 -0.45593999997E+02  0.45594000000E+02  0.51100000000E-03 0.  1.
    9900012    2    1    2    0    0 -0.75587450564E+01 -0.32847909023E+02 -0.29883001154E+02  0.46142317499E+02  0.99999976083E+01 0.  0.
         12    1    1    2    0    0  0.75587450564E+01  0.32847909023E+02  0.29883001154E+02  0.45045682501E+02  0.00000000000E+00 0. -1.
         11    1    3    3    0    0 -0.39678859271E+01 -0.24174461400E+02 -0.18392194900E+02  0.30633666712E+02  0.51100000000E-03 0. -1.
        -11    1    3    3    0    0  0.43856000646E+00 -0.37162411459E+01 -0.25830084455E+01  0.45469457908E+01  0.51100000000E-03 0.  1.
        -12    1    3    3    0    0 -0.40294191358E+01 -0.49572064777E+01 -0.89077978083E+01  0.10961704996E+02  0.00000000000E+00 0.  1.
</event>
<event>
 7    1  0.5743890E-009  0.4614232E+02  0.7816164E-02  0.1320468E+00
        -11   -1    0    0    0    0  0.00000000000E+00  0.00000000000E+00  0.45593999997E+02  0.45594000000E+02  0.51100000000E-03 0. -1.
         11   -1    0    0    0    0 -0.00000000000E+00 -0.00000000000E+00 -0.45593999997E+02  0.45594000000E+02  0.51100000000E-03 0.  1.
    9900012    2    1    2    0    0 -0.18849686448E+02 -0.35972420144E+02  0.19488148712E+02  0.46142316184E+02  0.99999856206E+01 0.  0.
        -12    1    1    2    0    0  0.18849686448E+02  0.35972420144E+02 -0.19488148712E+02  0.45045683816E+02  0.00000000000E+00 0.  1.
         11    1    3    3    0    0 -0.18639037817E+02 -0.30495069165E+02  0.19216037016E+02  0.40578554102E+02  0.51100000000E-03 0. -1.
        -11    1    3    3    0    0 -0.54609016194E+00 -0.26487850276E+01  0.24096059381E+00  0.27152051223E+01  0.51100000000E-03 0.  1.
         12    1    3    3    0    0  0.33544153121E+00 -0.28285659513E+01  0.31151101706E-01  0.28485569597E+01  0.00000000000E+00 0. -1.
</event>
<event>
 7    1  0.5743890E-009  0.4614232E+02  0.7816164E-02  0.1320468E+00
        -11   -1    0    0    0    0  0.00000000000E+00  0.00000000000E+00  0.45593999997E+02  0.45594000000E+02  0.51100000000E-03 0.  1.
         11   -1    0    0    0    0 -0.00000000000E+00 -0.00000000000E+00 -0.45593999997E+02  0.45594000000E+02  0.51100000000E-03 0. -1.
    9900012    2    1    2    0    0  0.29058350826E+02 -0.34418853445E+02  0.26136252156E+00  0.46142317238E+02  0.99999952262E+01 0.  0.
         12    1    1    2    0    0 -0.29058350826E+02  0.34418853445E+02 -0.26136252156E+00  0.45045682762E+02  0.00000000000E+00 0. -1.
         11    1    3    3    0    0  0.15920449221E+02 -0.16954712692E+02 -0.15436572879E+00  0.23258263368E+02  0.51100000000E-03 0. -1.
        -11    1    3    3    0    0  0.11461690054E+02 -0.10004225744E+02  0.73600486099E+00  0.15231433782E+02  0.51100000000E-03 0.  1.
         12    1    3    3    0    0  0.16762115509E+01 -0.74599150084E+01 -0.32027661065E+00  0.76526200874E+01  0.00000000000E+00 0. -1.
</event>
<event>
 7    1  0.5743890E-009  0.4614232E+02  0.7816164E-02  0.1320468E+00
        -11   -1    0    0    0    0  0.00000000000E+00  0.00000000000E+00  0.45593999997E+02  0.45594000000E+02  0.51100000000E-03 0. -1.
         11   -1    0    0    0    0 -0.00000000000E+00 -0.00000000000E+00 -0.45593999997E+02  0.45594000000E+02  0.51100000000E-03 0.  1.
    9900012    2    1    2    0    0 -0.40099848248E+02  0.49111591835E+01  0.19924761585E+02  0.46142318317E+02  0.10000005072E+02 0.  0.
        -12    1    1    2    0    0  0.40099848248E+02 -0.49111591835E+01 -0.19924761585E+02  0.45045681683E+02  0.00000000000E+00 0.  1.
         11    1    3    3    0    0 -0.11121853567E+02 -0.27265700978E+00  0.74472738039E+01  0.13387750221E+02  0.51100000000E-03 0. -1.
        -11    1    3    3    0    0 -0.96963118868E+01  0.38086384014E+01  0.73688436495E+01  0.12760252649E+02  0.51100000000E-03 0.  1.
         12    1    3    3    0    0 -0.19281682794E+02  0.13751777918E+01  0.51086441319E+01  0.19994315447E+02  0.00000000000E+00 0. -1.
</event>
<event>
 7    1  0.5743890E-009  0.4614232E+02  0.7816164E-02  0.1320468E+00
        -11   -1    0    0    0    0  0.00000000000E+00  0.00000000000E+00  0.45593999997E+02  0.45594000000E+02  0.51100000000E-03 0. -1.
         11   -1    0    0    0    0 -0.00000000000E+00 -0.00000000000E+00 -0.45593999997E+02  0.45594000000E+02  0.51100000000E-03 0.  1.
    9900012    2    1    2    0    0  0.28982834658E+02  0.30023166190E+02  0.16962258635E+02  0.46142318399E+02  0.10000005816E+02 0.  0.
        -12    1    1    2    0    0 -0.28982834658E+02 -0.30023166190E+02 -0.16962258635E+02  0.45045681601E+02  0.00000000000E+00 0.  1.
         11    1    3    3    0    0  0.20187221951E+02  0.21040629553E+02  0.12909091620E+02  0.31888503709E+02  0.51100000000E-03 0. -1.
        -11    1    3    3    0    0  0.56943480661E+01  0.20565582254E+01  0.22051559117E+01  0.64434264556E+01  0.51100000000E-03 0.  1.
         12    1    3    3    0    0  0.31012646413E+01  0.69259784118E+01  0.18480111030E+01  0.78103882345E+01  0.00000000000E+00 0. -1.
</event>
<event>
 7    1  0.5743890E-009  0.4614232E+02  0.7816164E-02  0.1320468E+00
        -11   -1    0    0    0    0  0.00000000000E+00  0.00000000000E+00  0.45593999997E+02  0.45594000000E+02  0.51100000000E-03 0. -1.
         11   -1    0    0    0    0 -0.00000000000E+00 -0.00000000000E+00 -0.45593999997E+02  0.45594000000E+02  0.51100000000E-03 0.  1.
    9900012    2    1    2    0    0  0.13507228141E+02  0.65136884646E+01 -0.42476347584E+02  0.46142318147E+02  0.10000003523E+02 0.  0.
         12    1    1    2    0    0 -0.13507228141E+02 -0.65136884646E+01  0.42476347584E+02  0.45045681853E+02  0.00000000000E+00 0. -1.
         11    1    3    3    0    0  0.76098216407E+01  0.42117312008E+01 -0.15547332179E+02  0.17814814152E+02  0.51100000000E-03 0. -1.
        -11    1    3    3    0    0  0.61602958409E+01  0.33298696232E+01 -0.17656020551E+02  0.18994007964E+02  0.51100000000E-03 0.  1.
        -12    1    3    3    0    0 -0.26288934023E+00 -0.10279123594E+01 -0.92729948538E+01  0.93334960321E+01  0.00000000000E+00 0.  1.
</event>
<event>
 7    1  0.5743890E-009  0.4614232E+02  0.7816164E-02  0.1320468E+00
        -11   -1    0    0    0    0  0.00000000000E+00  0.00000000000E+00  0.45593999997E+02  0.45594000000E+02  0.51100000000E-03 0. -1.
         11   -1    0    0    0    0 -0.00000000000E+00 -0.00000000000E+00 -0.45593999997E+02  0.45594000000E+02  0.51100000000E-03 0.  1.
    9900012    2    1    2    0    0  0.12685395843E+02 -0.14932174294E+02  0.40561366088E+02  0.46142317456E+02  0.99999972220E+01 0.  0.
        -12    1    1    2    0    0 -0.12685395843E+02  0.14932174294E+02 -0.40561366088E+02  0.45045682544E+02  0.00000000000E+00 0.  1.
         11    1    3    3    0    0  0.87222639446E+01 -0.84866272529E+01  0.18557129606E+02  0.22191615307E+02  0.51100000000E-03 0. -1.
        -11    1    3    3    0    0  0.45631881636E+01 -0.38914833231E+01  0.19180654668E+02  0.20096363911E+02  0.51100000000E-03 0.  1.
         12    1    3    3    0    0 -0.60005626478E+00 -0.25540637185E+01  0.28235818136E+01  0.38543382386E+01  0.00000000000E+00 0. -1.
</event>
<event>
 7    1  0.5743890E-009  0.4614232E+02  0.7816164E-02  0.1320468E+00
        -11   -1    0    0    0    0  0.00000000000E+00  0.00000000000E+00  0.45593999997E+02  0.45594000000E+02  0.51100000000E-03 0. -1.
         11   -1    0    0    0    0 -0.00000000000E+00 -0.00000000000E+00 -0.45593999997E+02  0.45594000000E+02  0.51100000000E-03 0.  1.
    9900012    2    1    2    0    0  0.15202632396E+02  0.14302846411E+02 -0.39917691237E+02  0.46142317400E+02  0.99999967038E+01 0.  0.
         12    1    1    2    0    0 -0.15202632396E+02 -0.14302846411E+02  0.39917691237E+02  0.45045682600E+02  0.00000000000E+00 0. -1.
         11    1    3    3    0    0 -0.83536621320E+00  0.59235370151E-01 -0.96377735981E+00  0.12767977912E+01  0.51100000000E-03 0. -1.
        -11    1    3    3    0    0  0.45129251544E+00  0.28872872172E+01 -0.62392861047E+01  0.68897593403E+01  0.51100000000E-03 0.  1.
        -12    1    3    3    0    0  0.15586706094E+02  0.11356323824E+02 -0.32714627773E+02  0.37975760268E+02  0.00000000000E+00 0.  1.
</event>
<event>
 7    1  0.5743890E-009  0.4614232E+02  0.7816164E-02  0.1320468E+00
        -11   -1    0    0    0    0  0.00000000000E+00  0.00000000000E+00  0.45593999997E+02  0.45594000000E+02  0.51100000000E-03 0.  1.
         11   -1    0    0    0    0 -0.00000000000E+00 -0.00000000000E+00 -0.45593999997E+02  0.45594000000E+02  0.51100000000E-03 0. -1.
    9900012    2    1    2    0    0  0.37352716087E+02  0.22922786312E+02 -0.10413162265E+02  0.46142317856E+02  0.10000000869E+02 0.  0.
         12    1    1    2    0    0 -0.37352716087E+02 -0.22922786312E+02  0.10413162265E+02  0.45045682144E+02  0.00000000000E+00 0. -1.
         11    1    3    3    0    0  0.34158812230E+00 -0.41876255008E+00 -0.39504355574E+00  0.66940584902E+00  0.51100000000E-03 0. -1.
        -11    1    3    3    0    0  0.97116885836E+01  0.29527530934E+01 -0.83903019613E+00  0.10185264744E+02  0.51100000000E-03 0.  1.
        -12    1    3    3    0    0  0.27299439381E+02  0.20388795769E+02 -0.91790885135E+01  0.35287647263E+02  0.00000000000E+00 0.  1.
</event>
<event>
 7    1  0.5743890E-009  0.4614231E+02  0.7816164E-02  0.1320468E+00
        -11   -1    0    0    0    0  0.00000000000E+00  0.00000000000E+00  0.45593999997E+02  0.45594000000E+02  0.51100000000E-03 0. -1.
         11   -1    0    0    0    0 -0.00000000000E+00 -0.00000000000E+00 -0.45593999997E+02  0.45594000000E+02  0.51100000000E-03 0.  1.
    9900012    2    1    2    0    0  0.18451877098E+02  0.14198683421E+02 -0.38562157150E+02  0.46142308271E+02  0.99999134581E+01 0.  0.
         12    1    1    2    0    0 -0.18451877098E+02 -0.14198683421E+02  0.38562157150E+02  0.45045691729E+02  0.00000000000E+00 0. -1.
         11    1    3    3    0    0  0.10415207440E+02  0.56062797819E+01 -0.13734336313E+02  0.18125642422E+02  0.51100000000E-03 0. -1.
        -11    1    3    3    0    0  0.23478921425E+01  0.63774995932E+01 -0.11515019027E+02  0.13370892342E+02  0.51100000000E-03 0.  1.
         12    1    3    3    0    0  0.56887775152E+01  0.22149040454E+01 -0.13312801811E+02  0.14645773506E+02  0.00000000000E+00 0. -1.
</event>
<event>
 7    1  0.5743890E-009  0.4614232E+02  0.7816164E-02  0.1320468E+00
        -11   -1    0    0    0    0  0.00000000000E+00  0.00000000000E+00  0.45593999997E+02  0.45594000000E+02  0.51100000000E-03 0. -1.
         11   -1    0    0    0    0 -0.00000000000E+00 -0.00000000000E+00 -0.45593999997E+02  0.45594000000E+02  0.51100000000E-03 0.  1.
    9900012    2    1    2    0    0 -0.35580348533E+02 -0.88380243752E+01  0.26173299735E+02  0.46142317681E+02  0.99999992718E+01 0.  0.
        -12    1    1    2    0    0  0.35580348533E+02  0.88380243752E+01 -0.26173299735E+02  0.45045682319E+02  0.00000000000E+00 0.  1.
         11    1    3    3    0    0 -0.19443006497E+02 -0.33774140650E+01  0.11015739533E+02  0.22600529753E+02  0.51100000000E-03 0. -1.
        -11    1    3    3    0    0 -0.13386489828E+02 -0.48282802750E+01  0.15056553047E+02  0.20717388596E+02  0.51100000000E-03 0.  1.
        -12    1    3    3    0    0 -0.27508522075E+01 -0.63233003522E+00  0.10100715533E+00  0.28243993319E+01  0.00000000000E+00 0.  1.
</event>
<event>
 7    1  0.5743890E-009  0.4614232E+02  0.7816164E-02  0.1320468E+00
        -11   -1    0    0    0    0  0.00000000000E+00  0.00000000000E+00  0.45593999997E+02  0.45594000000E+02  0.51100000000E-03 0. -1.
         11   -1    0    0    0    0 -0.00000000000E+00 -0.00000000000E+00 -0.45593999997E+02  0.45594000000E+02  0.51100000000E-03 0.  1.
    9900012    2    1    2    0    0 -0.27607391722E+01 -0.21508186399E+02 -0.39482776954E+02  0.46142318310E+02  0.10000005003E+02 0.  0.
         12    1    1    2    0    0  0.27607391722E+01  0.21508186399E+02  0.39482776954E+02  0.45045681690E+02  0.00000000000E+00 0. -1.
         11    1    3    3    0    0 -0.20669298564E+00 -0.50150099316E+01 -0.10494941282E+02  0.11633436267E+02  0.51100000000E-03 0. -1.
        -11    1    3    3    0    0 -0.51188707401E+01 -0.58398615947E+01 -0.12041934543E+02  0.14328817429E+02  0.51100000000E-03 0.  1.
         12    1    3    3    0    0  0.25648245535E+01 -0.10653314873E+02 -0.16945901128E+02  0.20180064614E+02  0.00000000000E+00 0. -1.
</event>
<event>
 7    1  0.5743890E-009  0.4614232E+02  0.7816164E-02  0.1320468E+00
        -11   -1    0    0    0    0  0.00000000000E+00  0.00000000000E+00  0.45593999997E+02  0.45594000000E+02  0.51100000000E-03 0. -1.
         11   -1    0    0    0    0 -0.00000000000E+00 -0.00000000000E+00 -0.45593999997E+02  0.45594000000E+02  0.51100000000E-03 0.  1.
    9900012    2    1    2    0    0 -0.22226424574E+02 -0.33067011805E+02 -0.21015999168E+02  0.46142318297E+02  0.10000004886E+02 0.  0.
         12    1    1    2    0    0  0.22226424574E+02  0.33067011805E+02  0.21015999168E+02  0.45045681703E+02  0.00000000000E+00 0. -1.
         11    1    3    3    0    0 -0.13262434730E+01 -0.33125512094E+01 -0.13137998850E+01  0.38023660612E+01  0.51100000000E-03 0. -1.
        -11    1    3    3    0    0 -0.18475634347E+02 -0.19369219710E+02 -0.15007948162E+02  0.30688014680E+02  0.51100000000E-03 0.  1.
        -12    1    3    3    0    0 -0.24245467538E+01 -0.10385240886E+02 -0.46942511208E+01  0.11651937556E+02  0.00000000000E+00 0.  1.
</event>
<event>
 7    1  0.5743890E-009  0.4614232E+02  0.7816164E-02  0.1320468E+00
        -11   -1    0    0    0    0  0.00000000000E+00  0.00000000000E+00  0.45593999997E+02  0.45594000000E+02  0.51100000000E-03 0. -1.
         11   -1    0    0    0    0 -0.00000000000E+00 -0.00000000000E+00 -0.45593999997E+02  0.45594000000E+02  0.51100000000E-03 0.  1.
    9900012    2    1    2    0    0 -0.87158564281E+01  0.44190295426E+02 -0.60428736030E+00  0.46142317340E+02  0.99999961592E+01 0.  0.
        -12    1    1    2    0    0  0.87158564281E+01 -0.44190295426E+02  0.60428736030E+00  0.45045682660E+02  0.00000000000E+00 0.  1.
         11    1    3    3    0    0  0.14319329025E+00  0.18499331851E+02 -0.10838989265E+01  0.18531611381E+02  0.51100000000E-03 0. -1.
        -11    1    3    3    0    0 -0.10452643866E+00  0.26814542003E+01 -0.11899341231E+01  0.29354839265E+01  0.51100000000E-03 0.  1.
        -12    1    3    3    0    0 -0.87545232797E+01  0.23009509375E+02  0.16695456893E+01  0.24675222032E+02  0.00000000000E+00 0.  1.
</event>
<event>
 7    1  0.5743890E-009  0.4614233E+02  0.7816164E-02  0.1320468E+00
        -11   -1    0    0    0    0  0.00000000000E+00  0.00000000000E+00  0.45593999997E+02  0.45594000000E+02  0.51100000000E-03 0.  1.
         11   -1    0    0    0    0 -0.00000000000E+00 -0.00000000000E+00 -0.45593999997E+02  0.45594000000E+02  0.51100000000E-03 0. -1.
    9900012    2    1    2    0    0 -0.31909555083E+02  0.20869498027E+02  0.23986597638E+02  0.46142328513E+02  0.10000098045E+02 0.  0.
        -12    1    1    2    0    0  0.31909555083E+02 -0.20869498027E+02 -0.23986597638E+02  0.45045671487E+02  0.00000000000E+00 0.  1.
         11    1    3    3    0    0 -0.12253099546E+02  0.58928577694E+01  0.87313927075E+01  0.16158633607E+02  0.51100000000E-03 0. -1.
        -11    1    3    3    0    0 -0.17116357885E+02  0.93039823029E+01  0.10313467454E+02  0.22043171395E+02  0.51100000000E-03 0.  1.
        -12    1    3    3    0    0 -0.25400976512E+01  0.56726579550E+01  0.49417374757E+01  0.79405235112E+01  0.00000000000E+00 0.  1.
</event>
<event>
 7    1  0.5743890E-009  0.4614232E+02  0.7816164E-02  0.1320468E+00
        -11   -1    0    0    0    0  0.00000000000E+00  0.00000000000E+00  0.45593999997E+02  0.45594000000E+02  0.51100000000E-03 0. -1.
         11   -1    0    0    0    0 -0.00000000000E+00 -0.00000000000E+00 -0.45593999997E+02  0.45594000000E+02  0.51100000000E-03 0.  1.
    9900012    2    1    2    0    0 -0.92549887261E+01 -0.12377351166E+02 -0.42311461179E+02  0.46142318905E+02  0.10000010433E+02 0.  0.
         12    1    1    2    0    0  0.92549887261E+01  0.12377351166E+02  0.42311461179E+02  0.45045681095E+02  0.00000000000E+00 0. -1.
         11    1    3    3    0    0 -0.26902884467E+00 -0.49116977660E+00 -0.37576888225E+01  0.37991906792E+01  0.51100000000E-03 0. -1.
        -11    1    3    3    0    0 -0.10438852256E+02 -0.74864096965E+01 -0.27224606642E+02  0.30103075817E+02  0.51100000000E-03 0.  1.
        -12    1    3    3    0    0  0.14528923741E+01 -0.43997716932E+01 -0.11329165714E+02  0.12240052409E+02  0.00000000000E+00 0.  1.
</event>
<event>
 7    1  0.5743890E-009  0.4614231E+02  0.7816164E-02  0.1320468E+00
        -11   -1    0    0    0    0  0.00000000000E+00  0.00000000000E+00  0.45593999997E+02  0.45594000000E+02  0.51100000000E-03 0. -1.
         11   -1    0    0    0    0 -0.00000000000E+00 -0.00000000000E+00 -0.45593999997E+02  0.45594000000E+02  0.51100000000E-03 0.  1.
    9900012    2    1    2    0    0  0.25604330153E+02 -0.41774413098E+01  0.36825011747E+02  0.46142309544E+02  0.99999250667E+01 0.  0.
        -12    1    1    2    0    0 -0.25604330153E+02  0.41774413098E+01 -0.36825011747E+02  0.45045690456E+02  0.00000000000E+00 0.  1.
         11    1    3    3    0    0  0.35443980465E+01  0.73719313242E+00  0.34997619516E+01  0.50353297018E+01  0.51100000000E-03 0. -1.
        -11    1    3    3    0    0  0.10194126988E+00  0.18072859404E+00 -0.45287123818E+00  0.49814402204E+00  0.51100000000E-03 0.  1.
        -12    1    3    3    0    0  0.21957990837E+02 -0.50953630363E+01  0.33778121034E+02  0.40608835820E+02  0.00000000000E+00 0.  1.
</event>
<event>
 7    1  0.5743890E-009  0.4614232E+02  0.7816164E-02  0.1320468E+00
        -11   -1    0    0    0    0  0.00000000000E+00  0.00000000000E+00  0.45593999997E+02  0.45594000000E+02  0.51100000000E-03 0. -1.
         11   -1    0    0    0    0 -0.00000000000E+00 -0.00000000000E+00 -0.45593999997E+02  0.45594000000E+02  0.51100000000E-03 0.  1.
    9900012    2    1    2    0    0  0.16611446405E+02 -0.54947612871E+01  0.41508803305E+02  0.46142319796E+02  0.10000018552E+02 0.  0.
        -12    1    1    2    0    0 -0.16611446405E+02  0.54947612871E+01 -0.41508803305E+02  0.45045680204E+02  0.00000000000E+00 0.  1.
         11    1    3    3    0    0  0.77064714243E+01 -0.61656432549E+01  0.27495565998E+02  0.29213199215E+02  0.51100000000E-03 0. -1.
        -11    1    3    3    0    0  0.19029825758E+01  0.13062666188E+01  0.49227107941E+01  0.54369805027E+01  0.51100000000E-03 0.  1.
         12    1    3    3    0    0  0.70019924047E+01 -0.63538465094E+00  0.90905265132E+01  0.11492140078E+02  0.00000000000E+00 0. -1.
</event>
<event>
 7    1  0.5743890E-009  0.4614232E+02  0.7816164E-02  0.1320468E+00
        -11   -1    0    0    0    0  0.00000000000E+00  0.00000000000E+00  0.45593999997E+02  0.45594000000E+02  0.51100000000E-03 0. -1.
         11   -1    0    0    0    0 -0.00000000000E+00 -0.00000000000E+00 -0.45593999997E+02  0.45594000000E+02  0.51100000000E-03 0.  1.
    9900012    2    1    2    0    0 -0.29757181675E+02  0.13201071419E+02 -0.31134471343E+02  0.46142318146E+02  0.10000003514E+02 0.  0.
         12    1    1    2    0    0  0.29757181675E+02 -0.13201071419E+02  0.31134471343E+02  0.45045681854E+02  0.00000000000E+00 0. -1.
         11    1    3    3    0    0 -0.65845019553E+01  0.27200794684E+01 -0.12500389783E+02  0.14387989550E+02  0.51100000000E-03 0. -1.
        -11    1    3    3    0    0 -0.36813597416E+01  0.21339875558E+01 -0.49085977843E+01  0.64962023448E+01  0.51100000000E-03 0.  1.
         12    1    3    3    0    0 -0.19491319978E+02  0.83470043949E+01 -0.13725483776E+02  0.25258126252E+02  0.00000000000E+00 0. -1.
</event>
<event>
 7    1  0.5743890E-009  0.4614232E+02  0.7816164E-02  0.1320468E+00
        -11   -1    0    0    0    0  0.00000000000E+00  0.00000000000E+00  0.45593999997E+02  0.45594000000E+02  0.51100000000E-03 0. -1.
         11   -1    0    0    0    0 -0.00000000000E+00 -0.00000000000E+00 -0.45593999997E+02  0.45594000000E+02  0.51100000000E-03 0.  1.
    9900012    2    1    2    0    0 -0.36128934344E+02 -0.25569497472E+02  0.83674564867E+01  0.46142318455E+02  0.10000006327E+02 0.  0.
        -12    1    1    2    0    0  0.36128934344E+02  0.25569497472E+02 -0.83674564867E+01  0.45045681545E+02  0.00000000000E+00 0.  1.
         11    1    3    3    0    0 -0.86849132469E+01 -0.81811719998E+01  0.40697640779E+01  0.12606437772E+02  0.51100000000E-03 0. -1.
        -11    1    3    3    0    0 -0.13388843019E+02 -0.84542168357E+01  0.56842112443E+01  0.16823945952E+02  0.51100000000E-03 0.  1.
        -12    1    3    3    0    0 -0.14055178078E+02 -0.89341086367E+01 -0.13865188354E+01  0.16711934730E+02  0.00000000000E+00 0.  1.
</event>
<event>
 7    1  0.5743890E-009  0.4614232E+02  0.7816164E-02  0.1320468E+00
        -11   -1    0    0    0    0  0.00000000000E+00  0.00000000000E+00  0.45593999997E+02  0.45594000000E+02  0.51100000000E-03 0.  1.
         11   -1    0    0    0    0 -0.00000000000E+00 -0.00000000000E+00 -0.45593999997E+02  0.45594000000E+02  0.51100000000E-03 0. -1.
    9900012    2    1    2    0    0 -0.32225839928E+02 -0.24918457611E+02 -0.19227046862E+02  0.46142316302E+02  0.99999866978E+01 0.  0.
         12    1    1    2    0    0  0.32225839928E+02  0.24918457611E+02  0.19227046862E+02  0.45045683698E+02  0.00000000000E+00 0. -1.
         11    1    3    3    0    0 -0.83250598953E+01 -0.84544722678E+01 -0.35913789765E+01  0.12396883754E+02  0.51100000000E-03 0.  1.
        -11    1    3    3    0    0 -0.89678166766E+01 -0.57405204193E+01 -0.97621406017E+01  0.14445577178E+02  0.51100000000E-03 0. -1.
        -12    1    3    3    0    0 -0.14932963356E+02 -0.10723464924E+02 -0.58735272838E+01  0.19299855370E+02  0.00000000000E+00 0.  1.
</event>
<event>
 7    1  0.9013538E-009  0.4614232E+02  0.7816164E-02  0.1320468E+00
        -11   -1    0    0    0    0  0.00000000000E+00  0.00000000000E+00  0.45593999997E+02  0.45594000000E+02  0.51100000000E-03 0. -1.
         11   -1    0    0    0    0 -0.00000000000E+00 -0.00000000000E+00 -0.45593999997E+02  0.45594000000E+02  0.51100000000E-03 0.  1.
    9900012    2    1    2    0    0  0.16138365906E+02 -0.18498403978E+01  0.42014817586E+02  0.46142315852E+02  0.99999825926E+01 0.  0.
        -12    1    1    2    0    0 -0.16138365906E+02  0.18498403978E+01 -0.42014817586E+02  0.45045684148E+02  0.00000000000E+00 0.  1.
         11    1    3    3    0    0  0.57864709856E+00 -0.19410599429E+00  0.10873300357E+02  0.10890416453E+02  0.51100000000E-03 0. -1.
        -11    1    3    3    0    0  0.51437996978E+01  0.72717026998E+00  0.60147930603E+01  0.79476529713E+01  0.51100000000E-03 0.  1.
         12    1    3    3    0    0  0.10415919109E+02 -0.23829046735E+01  0.25126724168E+02  0.27304246428E+02  0.00000000000E+00 0. -1.
</event>
<event>
 7    1  0.5743890E-009  0.4614232E+02  0.7816164E-02  0.1320468E+00
        -11   -1    0    0    0    0  0.00000000000E+00  0.00000000000E+00  0.45593999997E+02  0.45594000000E+02  0.51100000000E-03 0. -1.
         11   -1    0    0    0    0 -0.00000000000E+00 -0.00000000000E+00 -0.45593999997E+02  0.45594000000E+02  0.51100000000E-03 0.  1.
    9900012    2    1    2    0    0  0.36320880617E+02 -0.22348639389E+02 -0.14506743106E+02  0.46142316002E+02  0.99999839562E+01 0.  0.
         12    1    1    2    0    0 -0.36320880617E+02  0.22348639389E+02  0.14506743106E+02  0.45045683998E+02  0.00000000000E+00 0. -1.
         11    1    3    3    0    0  0.13804639252E+01 -0.35089783445E+00  0.14292171762E+00  0.14315155666E+01  0.51100000000E-03 0. -1.
        -11    1    3    3    0    0  0.26939859593E+02 -0.12727235023E+02 -0.12340909703E+02  0.32249598429E+02  0.51100000000E-03 0.  1.
        -12    1    3    3    0    0  0.80005570981E+01 -0.92705065321E+01 -0.23087551204E+01  0.12461202007E+02  0.00000000000E+00 0.  1.
</event>
<event>
 7    1  0.5743890E-009  0.4614232E+02  0.7816164E-02  0.1320468E+00
        -11   -1    0    0    0    0  0.00000000000E+00  0.00000000000E+00  0.45593999997E+02  0.45594000000E+02  0.51100000000E-03 0. -1.
         11   -1    0    0    0    0 -0.00000000000E+00 -0.00000000000E+00 -0.45593999997E+02  0.45594000000E+02  0.51100000000E-03 0.  1.
    9900012    2    1    2    0    0  0.18004746663E+02  0.27831956521E+02 -0.30501228509E+02  0.46142316003E+02  0.99999839688E+01 0.  0.
         12    1    1    2    0    0 -0.18004746663E+02 -0.27831956521E+02  0.30501228509E+02  0.45045683997E+02  0.00000000000E+00 0. -1.
         11    1    3    3    0    0  0.78221106203E-01  0.17097408053E-01 -0.23039871440E+01  0.23053780349E+01  0.51100000000E-03 0. -1.
        -11    1    3    3    0    0  0.53772319266E+01  0.54095527570E+01 -0.88555578664E+01  0.11687548486E+02  0.51100000000E-03 0.  1.
         12    1    3    3    0    0  0.12549293630E+02  0.22405306356E+02 -0.19341683498E+02  0.32149389482E+02  0.00000000000E+00 0. -1.
</event>
<event>
 7    1  0.5743890E-009  0.4614232E+02  0.7816164E-02  0.1320468E+00
        -11   -1    0    0    0    0  0.00000000000E+00  0.00000000000E+00  0.45593999997E+02  0.45594000000E+02  0.51100000000E-03 0. -1.
         11   -1    0    0    0    0 -0.00000000000E+00 -0.00000000000E+00 -0.45593999997E+02  0.45594000000E+02  0.51100000000E-03 0.  1.
    9900012    2    1    2    0    0 -0.20993946771E+02 -0.27238710593E+02 -0.29093305348E+02  0.46142316834E+02  0.99999915457E+01 0.  0.
         12    1    1    2    0    0  0.20993946771E+02  0.27238710593E+02  0.29093305348E+02  0.45045683166E+02  0.00000000000E+00 0. -1.
         11    1    3    3    0    0 -0.13731698054E+01 -0.39059602403E+00 -0.92323177924E+00  0.17001522719E+01  0.51100000000E-03 0. -1.
        -11    1    3    3    0    0 -0.53493839327E+01 -0.55472249026E+01 -0.23557055030E+01  0.80583473031E+01  0.51100000000E-03 0.  1.
        -12    1    3    3    0    0 -0.14271393033E+02 -0.21300889667E+02 -0.25814368066E+02  0.36383817259E+02  0.00000000000E+00 0.  1.
</event>
<event>
 7    1  0.5743890E-009  0.4614232E+02  0.7816164E-02  0.1320468E+00
        -11   -1    0    0    0    0  0.00000000000E+00  0.00000000000E+00  0.45593999997E+02  0.45594000000E+02  0.51100000000E-03 0. -1.
         11   -1    0    0    0    0 -0.00000000000E+00 -0.00000000000E+00 -0.45593999997E+02  0.45594000000E+02  0.51100000000E-03 0.  1.
    9900012    2    1    2    0    0  0.14079068470E+02  0.14465512547E+02 -0.40269618334E+02  0.46142318930E+02  0.10000010661E+02 0.  0.
         12    1    1    2    0    0 -0.14079068470E+02 -0.14465512547E+02  0.40269618334E+02  0.45045681070E+02  0.00000000000E+00 0. -1.
         11    1    3    3    0    0  0.94041031226E+01  0.11125016937E+02 -0.26891979791E+02  0.30584011097E+02  0.51100000000E-03 0. -1.
        -11    1    3    3    0    0  0.14254737836E+01  0.41446604118E+01 -0.93117085738E+01  0.10291652067E+02  0.51100000000E-03 0.  1.
         12    1    3    3    0    0  0.32494915641E+01 -0.80416480202E+00 -0.40659299693E+01  0.52666557671E+01  0.00000000000E+00 0. -1.
</event>
<event>
 7    1  0.5743890E-009  0.4614232E+02  0.7816164E-02  0.1320468E+00
        -11   -1    0    0    0    0  0.00000000000E+00  0.00000000000E+00  0.45593999997E+02  0.45594000000E+02  0.51100000000E-03 0. -1.
         11   -1    0    0    0    0 -0.00000000000E+00 -0.00000000000E+00 -0.45593999997E+02  0.45594000000E+02  0.51100000000E-03 0.  1.
    9900012    2    1    2    0    0 -0.23835959717E+02 -0.34275478930E+01  0.38068523380E+02  0.46142317271E+02  0.99999955310E+01 0.  0.
        -12    1    1    2    0    0  0.23835959717E+02  0.34275478930E+01 -0.38068523380E+02  0.45045682729E+02  0.00000000000E+00 0.  1.
         11    1    3    3    0    0 -0.12730713864E+02 -0.53238009442E+01  0.25344837243E+02  0.28857836148E+02  0.51100000000E-03 0. -1.
        -11    1    3    3    0    0 -0.37476821862E+01  0.10881396422E+01  0.23995722224E+01  0.45811698028E+01  0.51100000000E-03 0.  1.
         12    1    3    3    0    0 -0.73575636666E+01  0.80811340900E+00  0.10324113914E+02  0.12703311321E+02  0.00000000000E+00 0. -1.
</event>
<event>
 7    1  0.5743890E-009  0.4614232E+02  0.7816164E-02  0.1320468E+00
        -11   -1    0    0    0    0  0.00000000000E+00  0.00000000000E+00  0.45593999997E+02  0.45594000000E+02  0.51100000000E-03 0. -1.
         11   -1    0    0    0    0 -0.00000000000E+00 -0.00000000000E+00 -0.45593999997E+02  0.45594000000E+02  0.51100000000E-03 0.  1.
    9900012    2    1    2    0    0  0.14745694450E+02 -0.40286049404E+01  0.42372731579E+02  0.46142317143E+02  0.99999943651E+01 0.  0.
        -12    1    1    2    0    0 -0.14745694450E+02  0.40286049404E+01 -0.42372731579E+02  0.45045682857E+02  0.00000000000E+00 0.  1.
         11    1    3    3    0    0  0.26985529341E+01  0.41785913465E+00  0.11451009762E+02  0.11772103424E+02  0.51100000000E-03 0. -1.
        -11    1    3    3    0    0  0.66591953297E+01 -0.42301866879E+01  0.25623842412E+02  0.26810831059E+02  0.51100000000E-03 0.  1.
        -12    1    3    3    0    0  0.53879461863E+01 -0.21627738714E+00  0.52978794046E+01  0.75593826600E+01  0.00000000000E+00 0.  1.
</event>
<event>
 7    1  0.5743890E-009  0.4614232E+02  0.7816164E-02  0.1320468E+00
        -11   -1    0    0    0    0  0.00000000000E+00  0.00000000000E+00  0.45593999997E+02  0.45594000000E+02  0.51100000000E-03 0. -1.
         11   -1    0    0    0    0 -0.00000000000E+00 -0.00000000000E+00 -0.45593999997E+02  0.45594000000E+02  0.51100000000E-03 0.  1.
    9900012    2    1    2    0    0 -0.24574259513E+02  0.30127700171E+02  0.22749524949E+02  0.46142318369E+02  0.10000005547E+02 0.  0.
        -12    1    1    2    0    0  0.24574259513E+02 -0.30127700171E+02 -0.22749524949E+02  0.45045681631E+02  0.00000000000E+00 0.  1.
         11    1    3    3    0    0 -0.51305814597E+01  0.49530791719E+01  0.10093097499E+01  0.72024000049E+01  0.51100000000E-03 0. -1.
        -11    1    3    3    0    0  0.11920722480E+00  0.92271195238E+00  0.15623493156E+01  0.18183903196E+01  0.51100000000E-03 0.  1.
         12    1    3    3    0    0 -0.19562885278E+02  0.24251909046E+02  0.20177865883E+02  0.37121528045E+02  0.00000000000E+00 0. -1.
</event>
<event>
 7    1  0.5743890E-009  0.4614232E+02  0.7816164E-02  0.1320468E+00
        -11   -1    0    0    0    0  0.00000000000E+00  0.00000000000E+00  0.45593999997E+02  0.45594000000E+02  0.51100000000E-03 0. -1.
         11   -1    0    0    0    0 -0.00000000000E+00 -0.00000000000E+00 -0.45593999997E+02  0.45594000000E+02  0.51100000000E-03 0.  1.
    9900012    2    1    2    0    0  0.27644037207E+02  0.54127281020E+01  0.35151430022E+02  0.46142318173E+02  0.10000003757E+02 0.  0.
        -12    1    1    2    0    0 -0.27644037207E+02 -0.54127281020E+01 -0.35151430022E+02  0.45045681827E+02  0.00000000000E+00 0.  1.
         11    1    3    3    0    0  0.52980344420E+01  0.14590094383E+01  0.69919546862E+01  0.88929920772E+01  0.51100000000E-03 0. -1.
        -11    1    3    3    0    0  0.13914205717E+02 -0.17247525693E+01  0.13953652275E+02  0.19780907568E+02  0.51100000000E-03 0.  1.
        -12    1    3    3    0    0  0.84317970489E+01  0.56784712330E+01  0.14205823062E+02  0.17468418528E+02  0.00000000000E+00 0.  1.
</event>
<event>
 7    1  0.5743890E-009  0.4614232E+02  0.7816164E-02  0.1320468E+00
        -11   -1    0    0    0    0  0.00000000000E+00  0.00000000000E+00  0.45593999997E+02  0.45594000000E+02  0.51100000000E-03 0. -1.
         11   -1    0    0    0    0 -0.00000000000E+00 -0.00000000000E+00 -0.45593999997E+02  0.45594000000E+02  0.51100000000E-03 0.  1.
    9900012    2    1    2    0    0  0.19145810059E+02  0.39485825440E+02 -0.10169619601E+02  0.46142316341E+02  0.99999870463E+01 0.  0.
         12    1    1    2    0    0 -0.19145810059E+02 -0.39485825440E+02  0.10169619601E+02  0.45045683659E+02  0.00000000000E+00 0. -1.
         11    1    3    3    0    0  0.93564561412E+01  0.13927968715E+02 -0.73066496287E+01  0.18300784494E+02  0.51100000000E-03 0. -1.
        -11    1    3    3    0    0  0.48806165995E+01  0.73042639896E+01 -0.12008690014E+01  0.88664974731E+01  0.51100000000E-03 0.  1.
         12    1    3    3    0    0  0.49087373183E+01  0.18253592736E+02 -0.16621009704E+01  0.18975034373E+02  0.00000000000E+00 0. -1.
</event>
<event>
 7    1  0.5743890E-009  0.4614232E+02  0.7816164E-02  0.1320468E+00
        -11   -1    0    0    0    0  0.00000000000E+00  0.00000000000E+00  0.45593999997E+02  0.45594000000E+02  0.51100000000E-03 0. -1.
         11   -1    0    0    0    0 -0.00000000000E+00 -0.00000000000E+00 -0.45593999997E+02  0.45594000000E+02  0.51100000000E-03 0.  1.
    9900012    2    1    2    0    0 -0.13793283452E+01 -0.21044331446E+02 -0.39803856920E+02  0.46142318094E+02  0.10000003033E+02 0.  0.
         12    1    1    2    0    0  0.13793283452E+01  0.21044331446E+02  0.39803856920E+02  0.45045681906E+02  0.00000000000E+00 0. -1.
         11    1    3    3    0    0 -0.31266699648E+01 -0.13781215277E+02 -0.19216138277E+02  0.23852839037E+02  0.51100000000E-03 0. -1.
        -11    1    3    3    0    0  0.79835540619E+00 -0.25458069211E+01 -0.13241705968E+02  0.13507822972E+02  0.51100000000E-03 0.  1.
         12    1    3    3    0    0  0.94898621337E+00 -0.47173092473E+01 -0.73460126754E+01  0.87816560850E+01  0.00000000000E+00 0. -1.
</event>
<event>
 7    1  0.5743890E-009  0.4614232E+02  0.7816164E-02  0.1320468E+00
        -11   -1    0    0    0    0  0.00000000000E+00  0.00000000000E+00  0.45593999997E+02  0.45594000000E+02  0.51100000000E-03 0. -1.
         11   -1    0    0    0    0 -0.00000000000E+00 -0.00000000000E+00 -0.45593999997E+02  0.45594000000E+02  0.51100000000E-03 0.  1.
    9900012    2    1    2    0    0 -0.23165921182E+02  0.13974210326E+02  0.36016316319E+02  0.46142317636E+02  0.99999988574E+01 0.  0.
        -12    1    1    2    0    0  0.23165921182E+02 -0.13974210326E+02 -0.36016316319E+02  0.45045682364E+02  0.00000000000E+00 0.  1.
         11    1    3    3    0    0 -0.67132223869E+01  0.47869650798E+01  0.96477378305E+01  0.12690990308E+02  0.51100000000E-03 0. -1.
        -11    1    3    3    0    0 -0.17287432917E+02  0.89300585460E+01  0.23818738836E+02  0.30756033595E+02  0.51100000000E-03 0.  1.
        -12    1    3    3    0    0  0.83473412167E+00  0.25718670017E+00  0.25498396522E+01  0.26952937325E+01  0.00000000000E+00 0.  1.
</event>
<event>
 7    1  0.8789349E-009  0.4614232E+02  0.7816164E-02  0.1320468E+00
        -11   -1    0    0    0    0  0.00000000000E+00  0.00000000000E+00  0.45593999997E+02  0.45594000000E+02  0.51100000000E-03 0. -1.
         11   -1    0    0    0    0 -0.00000000000E+00 -0.00000000000E+00 -0.45593999997E+02  0.45594000000E+02  0.51100000000E-03 0.  1.
    9900012    2    1    2    0    0 -0.78066485776E+01  0.73624221728E+00  0.44357948666E+02  0.46142318471E+02  0.10000006469E+02 0.  0.
        -12    1    1    2    0    0  0.78066485776E+01 -0.73624221728E+00 -0.44357948666E+02  0.45045681529E+02  0.00000000000E+00 0.  1.
         11    1    3    3    0    0 -0.16972318132E+01  0.24374861997E+01  0.18365471051E+02  0.18604097989E+02  0.51100000000E-03 0. -1.
        -11    1    3    3    0    0 -0.14521872806E+01  0.22706534700E+01  0.51113878128E+01  0.57784946753E+01  0.51100000000E-03 0.  1.
        -12    1    3    3    0    0 -0.46572294838E+01 -0.39718974524E+01  0.20881089802E+02  0.21759725806E+02  0.00000000000E+00 0.  1.
</event>
<event>
 7    1  0.5743890E-009  0.4614232E+02  0.7816164E-02  0.1320468E+00
        -11   -1    0    0    0    0  0.00000000000E+00  0.00000000000E+00  0.45593999997E+02  0.45594000000E+02  0.51100000000E-03 0. -1.
         11   -1    0    0    0    0 -0.00000000000E+00 -0.00000000000E+00 -0.45593999997E+02  0.45594000000E+02  0.51100000000E-03 0.  1.
    9900012    2    1    2    0    0  0.22116920005E+02  0.58828980669E+01 -0.38798798235E+02  0.46142318912E+02  0.10000010495E+02 0.  0.
         12    1    1    2    0    0 -0.22116920005E+02 -0.58828980669E+01  0.38798798235E+02  0.45045681088E+02  0.00000000000E+00 0. -1.
         11    1    3    3    0    0  0.13217971550E+02  0.23237359994E+01 -0.26036818937E+02  0.29292156997E+02  0.51100000000E-03 0.  1.
        -11    1    3    3    0    0  0.83947420179E+01  0.46465978745E+01 -0.10101217219E+02  0.13931875499E+02  0.51100000000E-03 0. -1.
        -12    1    3    3    0    0  0.50420643692E+00 -0.10874358070E+01 -0.26607620786E+01  0.29182864157E+01  0.00000000000E+00 0.  1.
</event>
<event>
 7    1  0.5743890E-009  0.4614232E+02  0.7816164E-02  0.1320468E+00
        -11   -1    0    0    0    0  0.00000000000E+00  0.00000000000E+00  0.45593999997E+02  0.45594000000E+02  0.51100000000E-03 0. -1.
         11   -1    0    0    0    0 -0.00000000000E+00 -0.00000000000E+00 -0.45593999997E+02  0.45594000000E+02  0.51100000000E-03 0.  1.
    9900012    2    1    2    0    0 -0.15512023175E+02 -0.31718230098E+01  0.42171439626E+02  0.46142316030E+02  0.99999842173E+01 0.  0.
        -12    1    1    2    0    0  0.15512023175E+02  0.31718230098E+01 -0.42171439626E+02  0.45045683970E+02  0.00000000000E+00 0.  1.
         11    1    3    3    0    0 -0.11907561533E+02 -0.40121412156E+01  0.25375422024E+02  0.28316061555E+02  0.51100000000E-03 0. -1.
        -11    1    3    3    0    0 -0.39393847319E+01  0.16733881587E+01  0.88604004814E+01  0.98400039099E+01  0.51100000000E-03 0.  1.
        -12    1    3    3    0    0  0.33492308985E+00 -0.83306995289E+00  0.79356171201E+01  0.79862505658E+01  0.00000000000E+00 0.  1.
</event>
<event>
 7    1  0.5743890E-009  0.4614232E+02  0.7816164E-02  0.1320468E+00
        -11   -1    0    0    0    0  0.00000000000E+00  0.00000000000E+00  0.45593999997E+02  0.45594000000E+02  0.51100000000E-03 0.  1.
         11   -1    0    0    0    0 -0.00000000000E+00 -0.00000000000E+00 -0.45593999997E+02  0.45594000000E+02  0.51100000000E-03 0. -1.
    9900012    2    1    2    0    0  0.13541122516E+02  0.26206677975E+02 -0.34043525381E+02  0.46142316635E+02  0.99999897280E+01 0.  0.
         12    1    1    2    0    0 -0.13541122516E+02 -0.26206677975E+02  0.34043525381E+02  0.45045683365E+02  0.00000000000E+00 0. -1.
         11    1    3    3    0    0  0.28985279096E+01  0.35115089722E+01 -0.59968957286E+01  0.75296027747E+01  0.51100000000E-03 0. -1.
        -11    1    3    3    0    0  0.11952217930E+02  0.21546080492E+02 -0.27112828014E+02  0.36635973321E+02  0.51100000000E-03 0.  1.
         12    1    3    3    0    0 -0.13096233241E+01  0.11490885111E+01 -0.93380163850E+00  0.19767405387E+01  0.00000000000E+00 0. -1.
</event>
<event>
 7    1  0.8886619E-009  0.4614232E+02  0.7816164E-02  0.1320468E+00
        -11   -1    0    0    0    0  0.00000000000E+00  0.00000000000E+00  0.45593999997E+02  0.45594000000E+02  0.51100000000E-03 0. -1.
         11   -1    0    0    0    0 -0.00000000000E+00 -0.00000000000E+00 -0.45593999997E+02  0.45594000000E+02  0.51100000000E-03 0.  1.
    9900012    2    1    2    0    0 -0.91800573222E+01 -0.47000333342E+01  0.43849169580E+02  0.46142318313E+02  0.10000005033E+02 0.  0.
        -12    1    1    2    0    0  0.91800573222E+01  0.47000333342E+01 -0.43849169580E+02  0.45045681687E+02  0.00000000000E+00 0.  1.
         11    1    3    3    0    0 -0.59099212408E+01  0.37891493755E+00  0.25282354433E+02  0.25966674634E+02  0.51100000000E-03 0. -1.
        -11    1    3    3    0    0 -0.20498255673E+01  0.21153102404E+00  0.26414068750E+01  0.33501583203E+01  0.51100000000E-03 0.  1.
        -12    1    3    3    0    0 -0.12203105142E+01 -0.52904792958E+01  0.15925408272E+02  0.16825485359E+02  0.00000000000E+00 0.  1.
</event>
<event>
 7    1  0.5743890E-009  0.4614232E+02  0.7816164E-02  0.1320468E+00
        -11   -1    0    0    0    0  0.00000000000E+00  0.00000000000E+00  0.45593999997E+02  0.45594000000E+02  0.51100000000E-03 0. -1.
         11   -1    0    0    0    0 -0.00000000000E+00 -0.00000000000E+00 -0.45593999997E+02  0.45594000000E+02  0.51100000000E-03 0.  1.
    9900012    2    1    2    0    0  0.12808672364E+01  0.25400329493E+02  0.37179243275E+02  0.46142317746E+02  0.99999998598E+01 0.  0.
        -12    1    1    2    0    0 -0.12808672364E+01 -0.25400329493E+02 -0.37179243275E+02  0.45045682254E+02  0.00000000000E+00 0.  1.
         11    1    3    3    0    0 -0.17610369069E+01  0.76154491435E+01  0.13108579492E+02  0.15262082859E+02  0.51100000000E-03 0. -1.
        -11    1    3    3    0    0  0.30235273003E+01  0.22915322625E+01  0.38352119377E+01  0.53945980679E+01  0.51100000000E-03 0.  1.
         12    1    3    3    0    0  0.18376843024E-01  0.15493348088E+02  0.20235451845E+02  0.25485636819E+02  0.00000000000E+00 0. -1.
</event>
<event>
 7    1  0.5743890E-009  0.4614232E+02  0.7816164E-02  0.1320468E+00
        -11   -1    0    0    0    0  0.00000000000E+00  0.00000000000E+00  0.45593999997E+02  0.45594000000E+02  0.51100000000E-03 0. -1.
         11   -1    0    0    0    0 -0.00000000000E+00 -0.00000000000E+00 -0.45593999997E+02  0.45594000000E+02  0.51100000000E-03 0.  1.
    9900012    2    1    2    0    0 -0.17486954885E+02 -0.56714852513E+01  0.41123643925E+02  0.46142318456E+02  0.10000006336E+02 0.  0.
        -12    1    1    2    0    0  0.17486954885E+02  0.56714852513E+01 -0.41123643925E+02  0.45045681544E+02  0.00000000000E+00 0.  1.
         11    1    3    3    0    0 -0.29335670475E+01 -0.12499338461E+01  0.11425864861E+02  0.11862484492E+02  0.51100000000E-03 0. -1.
        -11    1    3    3    0    0 -0.99074314566E+01 -0.61571767761E+01  0.16722192071E+02  0.20388715797E+02  0.51100000000E-03 0.  1.
        -12    1    3    3    0    0 -0.46459563808E+01  0.17356253708E+01  0.12975586993E+02  0.13891118167E+02  0.00000000000E+00 0.  1.
</event>
<event>
 7    1  0.5743890E-009  0.4614232E+02  0.7816164E-02  0.1320468E+00
        -11   -1    0    0    0    0  0.00000000000E+00  0.00000000000E+00  0.45593999997E+02  0.45594000000E+02  0.51100000000E-03 0. -1.
         11   -1    0    0    0    0 -0.00000000000E+00 -0.00000000000E+00 -0.45593999997E+02  0.45594000000E+02  0.51100000000E-03 0.  1.
    9900012    2    1    2    0    0 -0.16573851000E+01 -0.13957585246E+02 -0.42796639648E+02  0.46142317893E+02  0.10000001205E+02 0.  0.
         12    1    1    2    0    0  0.16573851000E+01  0.13957585246E+02  0.42796639648E+02  0.45045682107E+02  0.00000000000E+00 0. -1.
         11    1    3    3    0    0 -0.11985028743E+01 -0.21711684783E+01 -0.34697120008E+01  0.42648896035E+01  0.51100000000E-03 0. -1.
        -11    1    3    3    0    0  0.59647086304E+00 -0.11880194686E+02 -0.38992288273E+02  0.40766326156E+02  0.51100000000E-03 0.  1.
        -12    1    3    3    0    0 -0.10553530887E+01  0.93777918460E-01 -0.33463937478E+00  0.11111021335E+01  0.00000000000E+00 0.  1.
</event>
<event>
 7    1  0.5743890E-009  0.4614232E+02  0.7816164E-02  0.1320468E+00
        -11   -1    0    0    0    0  0.00000000000E+00  0.00000000000E+00  0.45593999997E+02  0.45594000000E+02  0.51100000000E-03 0. -1.
         11   -1    0    0    0    0 -0.00000000000E+00 -0.00000000000E+00 -0.45593999997E+02  0.45594000000E+02  0.51100000000E-03 0.  1.
    9900012    2    1    2    0    0  0.35149813018E+02  0.11231918306E+02  0.25835015775E+02  0.46142318918E+02  0.10000010551E+02 0.  0.
        -12    1    1    2    0    0 -0.35149813018E+02 -0.11231918306E+02 -0.25835015775E+02  0.45045681082E+02  0.00000000000E+00 0.  1.
         11    1    3    3    0    0  0.14528168998E+02  0.29040467598E+01  0.86047406474E+01  0.17133089152E+02  0.51100000000E-03 0. -1.
        -11    1    3    3    0    0  0.23305737366E+00 -0.33376862831E+00 -0.49321724288E+00  0.63951602517E+00  0.51100000000E-03 0.  1.
        -12    1    3    3    0    0  0.20388586646E+02  0.86616401741E+01  0.17723492371E+02  0.28369713741E+02  0.00000000000E+00 0.  1.
</event>
<event>
 7    1  0.5743890E-009  0.4614232E+02  0.7816164E-02  0.1320468E+00
        -11   -1    0    0    0    0  0.00000000000E+00  0.00000000000E+00  0.45593999997E+02  0.45594000000E+02  0.51100000000E-03 0. -1.
         11   -1    0    0    0    0 -0.00000000000E+00 -0.00000000000E+00 -0.45593999997E+02  0.45594000000E+02  0.51100000000E-03 0.  1.
    9900012    2    1    2    0    0 -0.39940075766E+02 -0.12358097832E+02  0.16768462578E+02  0.46142316839E+02  0.99999915884E+01 0.  0.
        -12    1    1    2    0    0  0.39940075766E+02  0.12358097832E+02 -0.16768462578E+02  0.45045683161E+02  0.00000000000E+00 0.  1.
         11    1    3    3    0    0 -0.18046212278E+01 -0.14429775983E+01 -0.92573552864E+00  0.24891421524E+01  0.51100000000E-03 0. -1.
        -11    1    3    3    0    0 -0.34135507391E+01 -0.90910566229E+00  0.28733763277E+00  0.35442015927E+01  0.51100000000E-03 0.  1.
        -12    1    3    3    0    0 -0.34721903799E+02 -0.10006014572E+02  0.17406860474E+02  0.40108973094E+02  0.00000000000E+00 0.  1.
</event>
<event>
 7    1  0.5743890E-009  0.4614232E+02  0.7816164E-02  0.1320468E+00
        -11   -1    0    0    0    0  0.00000000000E+00  0.00000000000E+00  0.45593999997E+02  0.45594000000E+02  0.51100000000E-03 0. -1.
         11   -1    0    0    0    0 -0.00000000000E+00 -0.00000000000E+00 -0.45593999997E+02  0.45594000000E+02  0.51100000000E-03 0.  1.
    9900012    2    1    2    0    0 -0.31003073678E+02  0.12780271098E+02  0.30076362755E+02  0.46142317595E+02  0.99999984826E+01 0.  0.
        -12    1    1    2    0    0  0.31003073678E+02 -0.12780271098E+02 -0.30076362755E+02  0.45045682405E+02  0.00000000000E+00 0.  1.
         11    1    3    3    0    0 -0.15420871136E+02  0.90191055169E+01  0.11255618509E+02  0.21114840260E+02  0.51100000000E-03 0. -1.
        -11    1    3    3    0    0 -0.13433873720E+02  0.20942510893E+01  0.14153616013E+02  0.19625995446E+02  0.51100000000E-03 0.  1.
         12    1    3    3    0    0 -0.21483288214E+01  0.16669144915E+01  0.46671282335E+01  0.54014818888E+01  0.00000000000E+00 0. -1.
</event>
<event>
 7    1  0.5743890E-009  0.4614232E+02  0.7816164E-02  0.1320468E+00
        -11   -1    0    0    0    0  0.00000000000E+00  0.00000000000E+00  0.45593999997E+02  0.45594000000E+02  0.51100000000E-03 0. -1.
         11   -1    0    0    0    0 -0.00000000000E+00 -0.00000000000E+00 -0.45593999997E+02  0.45594000000E+02  0.51100000000E-03 0.  1.
    9900012    2    1    2    0    0  0.87876684479E+01 -0.20870288881E+02 -0.38939972191E+02  0.46142317533E+02  0.99999979211E+01 0.  0.
         12    1    1    2    0    0 -0.87876684479E+01  0.20870288881E+02  0.38939972191E+02  0.45045682467E+02  0.00000000000E+00 0. -1.
         11    1    3    3    0    0 -0.61128682778E+00 -0.57995745028E+00 -0.80083444111E+00  0.11624793732E+01  0.51100000000E-03 0. -1.
        -11    1    3    3    0    0  0.76376813228E+01 -0.20547399202E+02 -0.36401614911E+02  0.42492438837E+02  0.51100000000E-03 0.  1.
        -12    1    3    3    0    0  0.17612739528E+01  0.25706777159E+00 -0.17375228383E+01  0.24873993225E+01  0.00000000000E+00 0.  1.
</event>
<event>
 7    1  0.5743890E-009  0.4614232E+02  0.7816164E-02  0.1320468E+00
        -11   -1    0    0    0    0  0.00000000000E+00  0.00000000000E+00  0.45593999997E+02  0.45594000000E+02  0.51100000000E-03 0. -1.
         11   -1    0    0    0    0 -0.00000000000E+00 -0.00000000000E+00 -0.45593999997E+02  0.45594000000E+02  0.51100000000E-03 0.  1.
    9900012    2    1    2    0    0  0.63803670122E+01  0.10132695005E+02  0.43425026281E+02  0.46142317646E+02  0.99999989469E+01 0.  0.
        -12    1    1    2    0    0 -0.63803670122E+01 -0.10132695005E+02 -0.43425026281E+02  0.45045682354E+02  0.00000000000E+00 0.  1.
         11    1    3    3    0    0  0.24852301125E+00  0.40908573505E+01  0.19027931109E+02  0.19464301686E+02  0.51100000000E-03 0. -1.
        -11    1    3    3    0    0  0.64638057606E+01  0.70642361753E+01  0.23012927893E+02  0.24925470269E+02  0.51100000000E-03 0.  1.
         12    1    3    3    0    0 -0.33196175960E+00 -0.10223985205E+01  0.13841672785E+01  0.17525456912E+01  0.00000000000E+00 0. -1.
</event>
<event>
 7    1  0.5743890E-009  0.4614232E+02  0.7816164E-02  0.1320468E+00
        -11   -1    0    0    0    0  0.00000000000E+00  0.00000000000E+00  0.45593999997E+02  0.45594000000E+02  0.51100000000E-03 0. -1.
         11   -1    0    0    0    0 -0.00000000000E+00 -0.00000000000E+00 -0.45593999997E+02  0.45594000000E+02  0.51100000000E-03 0.  1.
    9900012    2    1    2    0    0  0.12462677127E+02  0.10382952881E+02 -0.42023676789E+02  0.46142318269E+02  0.10000004634E+02 0.  0.
         12    1    1    2    0    0 -0.12462677127E+02 -0.10382952881E+02  0.42023676789E+02  0.45045681731E+02  0.00000000000E+00 0. -1.
         11    1    3    3    0    0  0.39999068261E+01  0.12078379896E+01 -0.36590041761E+01  0.55539570622E+01  0.51100000000E-03 0. -1.
        -11    1    3    3    0    0  0.42096032636E+00  0.18343739183E+01 -0.26468123445E+01  0.32477301483E+01  0.51100000000E-03 0.  1.
        -12    1    3    3    0    0  0.80418099746E+01  0.73407409736E+01 -0.35717860268E+02  0.37340631059E+02  0.00000000000E+00 0.  1.
</event>
<event>
 7    1  0.5743890E-009  0.4614232E+02  0.7816164E-02  0.1320468E+00
        -11   -1    0    0    0    0  0.00000000000E+00  0.00000000000E+00  0.45593999997E+02  0.45594000000E+02  0.51100000000E-03 0. -1.
         11   -1    0    0    0    0 -0.00000000000E+00 -0.00000000000E+00 -0.45593999997E+02  0.45594000000E+02  0.51100000000E-03 0.  1.
    9900012    2    1    2    0    0 -0.32604068124E+02  0.20546694984E+02 -0.23322126866E+02  0.46142317249E+02  0.99999953297E+01 0.  0.
         12    1    1    2    0    0  0.32604068124E+02 -0.20546694984E+02  0.23322126866E+02  0.45045682751E+02  0.00000000000E+00 0. -1.
         11    1    3    3    0    0 -0.10640065225E+02  0.82080163851E+01 -0.56133883950E+01  0.14563401062E+02  0.51100000000E-03 0. -1.
        -11    1    3    3    0    0 -0.20069980012E+02  0.13217257621E+02 -0.15886292458E+02  0.28807538683E+02  0.51100000000E-03 0.  1.
        -12    1    3    3    0    0 -0.18940228871E+01 -0.87857902209E+00 -0.18224460132E+01  0.27713775033E+01  0.00000000000E+00 0.  1.
</event>
<event>
 7    1  0.5743890E-009  0.4614232E+02  0.7816164E-02  0.1320468E+00
        -11   -1    0    0    0    0  0.00000000000E+00  0.00000000000E+00  0.45593999997E+02  0.45594000000E+02  0.51100000000E-03 0.  1.
         11   -1    0    0    0    0 -0.00000000000E+00 -0.00000000000E+00 -0.45593999997E+02  0.45594000000E+02  0.51100000000E-03 0. -1.
    9900012    2    1    2    0    0  0.59874564101E+01  0.42520941106E+02 -0.13610047470E+02  0.46142318088E+02  0.10000002982E+02 0.  0.
         12    1    1    2    0    0 -0.59874564101E+01 -0.42520941106E+02  0.13610047470E+02  0.45045681912E+02  0.00000000000E+00 0. -1.
         11    1    3    3    0    0 -0.39348125670E+00  0.69640500368E+01 -0.51568417353E+00  0.69941940810E+01  0.51100000000E-03 0. -1.
        -11    1    3    3    0    0 -0.16708302929E+01  0.74960763569E+01 -0.32561273044E+01  0.83417743856E+01  0.51100000000E-03 0.  1.
        -12    1    3    3    0    0  0.80517679598E+01  0.28060814712E+02 -0.98382359918E+01  0.30806349622E+02  0.00000000000E+00 0.  1.
</event>
<event>
 7    1  0.5743890E-009  0.4614232E+02  0.7816164E-02  0.1320468E+00
        -11   -1    0    0    0    0  0.00000000000E+00  0.00000000000E+00  0.45593999997E+02  0.45594000000E+02  0.51100000000E-03 0. -1.
         11   -1    0    0    0    0 -0.00000000000E+00 -0.00000000000E+00 -0.45593999997E+02  0.45594000000E+02  0.51100000000E-03 0.  1.
    9900012    2    1    2    0    0 -0.30901667877E+02  0.30057286625E+02 -0.13067515665E+02  0.46142317383E+02  0.99999965483E+01 0.  0.
         12    1    1    2    0    0  0.30901667877E+02 -0.30057286625E+02  0.13067515665E+02  0.45045682617E+02  0.00000000000E+00 0. -1.
         11    1    3    3    0    0  0.45028337747E+00  0.36113442742E+00  0.38393238234E+00  0.69323699412E+00  0.51100000000E-03 0. -1.
        -11    1    3    3    0    0 -0.23619351076E+02  0.24113940051E+02 -0.11877347472E+02  0.35783057908E+02  0.51100000000E-03 0.  1.
        -12    1    3    3    0    0 -0.77326001787E+01  0.55822121464E+01 -0.15741005750E+01  0.96660224804E+01  0.00000000000E+00 0.  1.
</event>
<event>
 7    1  0.5743890E-009  0.4614232E+02  0.7816164E-02  0.1320468E+00
        -11   -1    0    0    0    0  0.00000000000E+00  0.00000000000E+00  0.45593999997E+02  0.45594000000E+02  0.51100000000E-03 0. -1.
         11   -1    0    0    0    0 -0.00000000000E+00 -0.00000000000E+00 -0.45593999997E+02  0.45594000000E+02  0.51100000000E-03 0.  1.
    9900012    2    1    2    0    0 -0.18483106990E+02  0.90849792764E+01 -0.40061845720E+02  0.46142316801E+02  0.99999912406E+01 0.  0.
         12    1    1    2    0    0  0.18483106990E+02 -0.90849792764E+01  0.40061845720E+02  0.45045683199E+02  0.00000000000E+00 0. -1.
         11    1    3    3    0    0 -0.81268210096E+01  0.82098465519E+01 -0.17257736045E+02  0.20767191765E+02  0.51100000000E-03 0. -1.
        -11    1    3    3    0    0 -0.33298550374E+01  0.19175995869E+01 -0.10312046122E+02  0.11004699825E+02  0.51100000000E-03 0.  1.
        -12    1    3    3    0    0 -0.70264309428E+01 -0.10424668625E+01 -0.12492063552E+02  0.14370425211E+02  0.00000000000E+00 0.  1.
</event>
<event>
 7    1  0.5743890E-009  0.4614232E+02  0.7816164E-02  0.1320468E+00
        -11   -1    0    0    0    0  0.00000000000E+00  0.00000000000E+00  0.45593999997E+02  0.45594000000E+02  0.51100000000E-03 0. -1.
         11   -1    0    0    0    0 -0.00000000000E+00 -0.00000000000E+00 -0.45593999997E+02  0.45594000000E+02  0.51100000000E-03 0.  1.
    9900012    2    1    2    0    0 -0.23324368635E+02 -0.22712853674E+02  0.31132196380E+02  0.46142317124E+02  0.99999941933E+01 0.  0.
        -12    1    1    2    0    0  0.23324368635E+02  0.22712853674E+02 -0.31132196380E+02  0.45045682876E+02  0.00000000000E+00 0.  1.
         11    1    3    3    0    0 -0.75835291898E+01 -0.54053753711E+01  0.84363529598E+01  0.12565828640E+02  0.51100000000E-03 0. -1.
        -11    1    3    3    0    0 -0.28782384713E+01 -0.20501840035E+00  0.51506713747E+01  0.59038720442E+01  0.51100000000E-03 0.  1.
         12    1    3    3    0    0 -0.12862600974E+02 -0.17102459903E+02  0.17545172046E+02  0.27672616441E+02  0.00000000000E+00 0. -1.
</event>
<event>
 7    1  0.5743890E-009  0.4614232E+02  0.7816164E-02  0.1320468E+00
        -11   -1    0    0    0    0  0.00000000000E+00  0.00000000000E+00  0.45593999997E+02  0.45594000000E+02  0.51100000000E-03 0. -1.
         11   -1    0    0    0    0 -0.00000000000E+00 -0.00000000000E+00 -0.45593999997E+02  0.45594000000E+02  0.51100000000E-03 0.  1.
    9900012    2    1    2    0    0 -0.68596918762E+01  0.23645452990E+02 -0.37722019421E+02  0.46142316867E+02  0.99999918435E+01 0.  0.
         12    1    1    2    0    0  0.68596918762E+01 -0.23645452990E+02  0.37722019421E+02  0.45045683133E+02  0.00000000000E+00 0. -1.
         11    1    3    3    0    0  0.26026427446E+00 -0.61680773560E+00 -0.22643447276E+00  0.70672633094E+00  0.51100000000E-03 0. -1.
        -11    1    3    3    0    0 -0.46581925040E+01  0.95785921346E+01 -0.17839338320E+02  0.20777155163E+02  0.51100000000E-03 0.  1.
         12    1    3    3    0    0 -0.24617636466E+01  0.14683668591E+02 -0.19656246628E+02  0.24658435373E+02  0.00000000000E+00 0. -1.
</event>
<event>
 7    1  0.5743890E-009  0.4614232E+02  0.7816164E-02  0.1320468E+00
        -11   -1    0    0    0    0  0.00000000000E+00  0.00000000000E+00  0.45593999997E+02  0.45594000000E+02  0.51100000000E-03 0. -1.
         11   -1    0    0    0    0 -0.00000000000E+00 -0.00000000000E+00 -0.45593999997E+02  0.45594000000E+02  0.51100000000E-03 0.  1.
    9900012    2    1    2    0    0 -0.40214511545E+02  0.16457591409E+02  0.11876624807E+02  0.46142317959E+02  0.10000001805E+02 0.  0.
        -12    1    1    2    0    0  0.40214511545E+02 -0.16457591409E+02 -0.11876624807E+02  0.45045682041E+02  0.00000000000E+00 0.  1.
         11    1    3    3    0    0 -0.34844343247E+01  0.89991142094E+00  0.11125897844E+01  0.37668261731E+01  0.51100000000E-03 0. -1.
        -11    1    3    3    0    0 -0.18250853128E+02  0.48643137271E+01  0.90852726684E+01  0.20959421930E+02  0.51100000000E-03 0.  1.
        -12    1    3    3    0    0 -0.18479224092E+02  0.10693366261E+02  0.16787623540E+01  0.21416069856E+02  0.00000000000E+00 0.  1.
</event>
<event>
 7    1  0.5743890E-009  0.4614232E+02  0.7816164E-02  0.1320468E+00
        -11   -1    0    0    0    0  0.00000000000E+00  0.00000000000E+00  0.45593999997E+02  0.45594000000E+02  0.51100000000E-03 0. -1.
         11   -1    0    0    0    0 -0.00000000000E+00 -0.00000000000E+00 -0.45593999997E+02  0.45594000000E+02  0.51100000000E-03 0.  1.
    9900012    2    1    2    0    0  0.38387504509E+02 -0.18527321816E+02  0.14568831920E+02  0.46142322965E+02  0.10000047450E+02 0.  0.
        -12    1    1    2    0    0 -0.38387504509E+02  0.18527321816E+02 -0.14568831920E+02  0.45045677035E+02  0.00000000000E+00 0.  1.
         11    1    3    3    0    0  0.90014774617E+01 -0.65324740164E+01  0.69724391640E+01  0.13126870207E+02  0.51100000000E-03 0. -1.
        -11    1    3    3    0    0  0.51861354927E+01 -0.42141193222E+01  0.21374130436E+01  0.70159345629E+01  0.51100000000E-03 0.  1.
         12    1    3    3    0    0  0.24199891554E+02 -0.77807284776E+01  0.54589797120E+01  0.25999518195E+02  0.00000000000E+00 0. -1.
</event>
<event>
 7    1  0.5743890E-009  0.4614232E+02  0.7816164E-02  0.1320468E+00
        -11   -1    0    0    0    0  0.00000000000E+00  0.00000000000E+00  0.45593999997E+02  0.45594000000E+02  0.51100000000E-03 0. -1.
         11   -1    0    0    0    0 -0.00000000000E+00 -0.00000000000E+00 -0.45593999997E+02  0.45594000000E+02  0.51100000000E-03 0.  1.
    9900012    2    1    2    0    0 -0.19014369794E+01 -0.21148919243E+02 -0.39726832537E+02  0.46142317952E+02  0.10000001742E+02 0.  0.
         12    1    1    2    0    0  0.19014369794E+01  0.21148919243E+02  0.39726832537E+02  0.45045682048E+02  0.00000000000E+00 0. -1.
         11    1    3    3    0    0  0.15078841822E+01 -0.21962308895E+01 -0.52212551611E+01  0.58616252477E+01  0.51100000000E-03 0.  1.
        -11    1    3    3    0    0 -0.25340994729E+01 -0.18062627082E+02 -0.26451114136E+02  0.32130073086E+02  0.51100000000E-03 0. -1.
         12    1    3    3    0    0 -0.87522168870E+00 -0.89006127105E+00 -0.80544632402E+01  0.81506196180E+01  0.00000000000E+00 0. -1.
</event>
<event>
 7    1  0.5743890E-009  0.4614232E+02  0.7816164E-02  0.1320468E+00
        -11   -1    0    0    0    0  0.00000000000E+00  0.00000000000E+00  0.45593999997E+02  0.45594000000E+02  0.51100000000E-03 0. -1.
         11   -1    0    0    0    0 -0.00000000000E+00 -0.00000000000E+00 -0.45593999997E+02  0.45594000000E+02  0.51100000000E-03 0.  1.
    9900012    2    1    2    0    0  0.30581032332E+01 -0.32415906050E+02 -0.31128293097E+02  0.46142316616E+02  0.99999895601E+01 0.  0.
         12    1    1    2    0    0 -0.30581032332E+01  0.32415906050E+02  0.31128293097E+02  0.45045683384E+02  0.00000000000E+00 0. -1.
         11    1    3    3    0    0 -0.88423506050E+00 -0.21616217501E+02 -0.16971752803E+02  0.27496965726E+02  0.51100000000E-03 0. -1.
        -11    1    3    3    0    0  0.32556491865E+01 -0.10953939312E+02 -0.13235200363E+02  0.17485953419E+02  0.51100000000E-03 0.  1.
         12    1    3    3    0    0  0.68668910724E+00  0.15425076263E+00 -0.92133993112E+00  0.11593974713E+01  0.00000000000E+00 0. -1.
</event>
<event>
 7    1  0.5743890E-009  0.4614232E+02  0.7816164E-02  0.1320468E+00
        -11   -1    0    0    0    0  0.00000000000E+00  0.00000000000E+00  0.45593999997E+02  0.45594000000E+02  0.51100000000E-03 0. -1.
         11   -1    0    0    0    0 -0.00000000000E+00 -0.00000000000E+00 -0.45593999997E+02  0.45594000000E+02  0.51100000000E-03 0.  1.
    9900012    2    1    2    0    0 -0.18662180724E+02  0.38088781217E+02  0.15168429027E+02  0.46142317819E+02  0.10000000532E+02 0.  0.
        -12    1    1    2    0    0  0.18662180724E+02 -0.38088781217E+02 -0.15168429027E+02  0.45045682181E+02  0.00000000000E+00 0.  1.
         11    1    3    3    0    0 -0.39437026567E+01  0.59902705044E+01  0.53171142646E+01  0.89279244915E+01  0.51100000000E-03 0. -1.
        -11    1    3    3    0    0 -0.42577636710E+01  0.45138891474E+01  0.31606565544E+01  0.69637272224E+01  0.51100000000E-03 0.  1.
        -12    1    3    3    0    0 -0.10460714396E+02  0.27584621565E+02  0.66906582077E+01  0.30250666106E+02  0.00000000000E+00 0.  1.
</event>
<event>
 7    1  0.5743890E-009  0.4614232E+02  0.7816164E-02  0.1320468E+00
        -11   -1    0    0    0    0  0.00000000000E+00  0.00000000000E+00  0.45593999997E+02  0.45594000000E+02  0.51100000000E-03 0. -1.
         11   -1    0    0    0    0 -0.00000000000E+00 -0.00000000000E+00 -0.45593999997E+02  0.45594000000E+02  0.51100000000E-03 0.  1.
    9900012    2    1    2    0    0 -0.12254084848E+01  0.34262313425E+02 -0.29218243072E+02  0.46142317905E+02  0.10000001315E+02 0.  0.
         12    1    1    2    0    0  0.12254084848E+01 -0.34262313425E+02  0.29218243072E+02  0.45045682095E+02  0.00000000000E+00 0. -1.
         11    1    3    3    0    0  0.15583785907E+00  0.62184439723E+01 -0.16243597659E+01  0.64289871508E+01  0.51100000000E-03 0. -1.
        -11    1    3    3    0    0 -0.38162444894E+00 -0.18611474606E-01 -0.60881308903E-01  0.38689843876E+00  0.51100000000E-03 0.  1.
        -12    1    3    3    0    0 -0.99962189492E+00  0.28062480927E+02 -0.27533001997E+02  0.39326432316E+02  0.00000000000E+00 0.  1.
</event>
<event>
 7    1  0.5743890E-009  0.4614232E+02  0.7816164E-02  0.1320468E+00
        -11   -1    0    0    0    0  0.00000000000E+00  0.00000000000E+00  0.45593999997E+02  0.45594000000E+02  0.51100000000E-03 0.  1.
         11   -1    0    0    0    0 -0.00000000000E+00 -0.00000000000E+00 -0.45593999997E+02  0.45594000000E+02  0.51100000000E-03 0. -1.
    9900012    2    1    2    0    0  0.34786347393E+02 -0.11130748669E+02 -0.26365314331E+02  0.46142319512E+02  0.10000015967E+02 0.  0.
         12    1    1    2    0    0 -0.34786347393E+02  0.11130748669E+02  0.26365314331E+02  0.45045680488E+02  0.00000000000E+00 0. -1.
         11    1    3    3    0    0  0.20536785162E+01 -0.27526355369E+01 -0.41474207807E+01  0.53847652911E+01  0.51100000000E-03 0.  1.
        -11    1    3    3    0    0  0.18144948986E+01 -0.18478646879E-01 -0.26921555870E+01  0.32466036350E+01  0.51100000000E-03 0. -1.
        -12    1    3    3    0    0  0.30918173978E+02 -0.83596344850E+01 -0.19525737963E+02  0.37510950586E+02  0.00000000000E+00 0.  1.
</event>
<event>
 7    1  0.5743890E-009  0.4614232E+02  0.7816164E-02  0.1320468E+00
        -11   -1    0    0    0    0  0.00000000000E+00  0.00000000000E+00  0.45593999997E+02  0.45594000000E+02  0.51100000000E-03 0. -1.
         11   -1    0    0    0    0 -0.00000000000E+00 -0.00000000000E+00 -0.45593999997E+02  0.45594000000E+02  0.51100000000E-03 0.  1.
    9900012    2    1    2    0    0  0.51903674944E+01  0.20104913469E+02  0.39974567957E+02  0.46142317147E+02  0.99999943990E+01 0.  0.
        -12    1    1    2    0    0 -0.51903674944E+01 -0.20104913469E+02 -0.39974567957E+02  0.45045682853E+02  0.00000000000E+00 0.  1.
         11    1    3    3    0    0  0.46226951400E+01  0.77632267188E+01  0.23448916007E+02  0.25129438147E+02  0.51100000000E-03 0.  1.
        -11    1    3    3    0    0  0.48832373383E+00  0.21404908068E+01  0.58419296377E+01  0.62408575625E+01  0.51100000000E-03 0. -1.
        -12    1    3    3    0    0  0.79348620635E-01  0.10201195943E+02  0.10683722313E+02  0.14772021437E+02  0.00000000000E+00 0.  1.
</event>
<event>
 7    1  0.5743890E-009  0.4614232E+02  0.7816164E-02  0.1320468E+00
        -11   -1    0    0    0    0  0.00000000000E+00  0.00000000000E+00  0.45593999997E+02  0.45594000000E+02  0.51100000000E-03 0. -1.
         11   -1    0    0    0    0 -0.00000000000E+00 -0.00000000000E+00 -0.45593999997E+02  0.45594000000E+02  0.51100000000E-03 0.  1.
    9900012    2    1    2    0    0 -0.16229382245E+02  0.13742719777E+02 -0.39709675214E+02  0.46142317626E+02  0.99999987725E+01 0.  0.
         12    1    1    2    0    0  0.16229382245E+02 -0.13742719777E+02  0.39709675214E+02  0.45045682374E+02  0.00000000000E+00 0. -1.
         11    1    3    3    0    0  0.37844138098E+00  0.12679266489E+01 -0.14377086089E+00  0.13309869223E+01  0.51100000000E-03 0. -1.
        -11    1    3    3    0    0 -0.53550783089E+01  0.42707234770E+01 -0.16534507317E+02  0.17897091250E+02  0.51100000000E-03 0.  1.
        -12    1    3    3    0    0 -0.11252745317E+02  0.82040696506E+01 -0.23031397036E+02  0.26914239455E+02  0.00000000000E+00 0.  1.
</event>
<event>
 7    1  0.5743890E-009  0.4614232E+02  0.7816164E-02  0.1320468E+00
        -11   -1    0    0    0    0  0.00000000000E+00  0.00000000000E+00  0.45593999997E+02  0.45594000000E+02  0.51100000000E-03 0. -1.
         11   -1    0    0    0    0 -0.00000000000E+00 -0.00000000000E+00 -0.45593999997E+02  0.45594000000E+02  0.51100000000E-03 0.  1.
    9900012    2    1    2    0    0 -0.96708553610E+01  0.36486168305E+01 -0.43843763931E+02  0.46142317811E+02  0.10000000456E+02 0.  0.
         12    1    1    2    0    0  0.96708553610E+01 -0.36486168305E+01  0.43843763931E+02  0.45045682189E+02  0.00000000000E+00 0. -1.
         11    1    3    3    0    0  0.76101729780E+00 -0.75910351250E+00 -0.19211061222E+01  0.22013710419E+01  0.51100000000E-03 0. -1.
        -11    1    3    3    0    0 -0.33849232951E+01 -0.15176931607E+01 -0.16225945660E+02  0.16644591045E+02  0.51100000000E-03 0.  1.
        -12    1    3    3    0    0 -0.70469493637E+01  0.59254135037E+01 -0.25696712150E+02  0.27296355724E+02  0.00000000000E+00 0.  1.
</event>
<event>
 7    1  0.5743890E-009  0.4614231E+02  0.7816164E-02  0.1320468E+00
        -11   -1    0    0    0    0  0.00000000000E+00  0.00000000000E+00  0.45593999997E+02  0.45594000000E+02  0.51100000000E-03 0. -1.
         11   -1    0    0    0    0 -0.00000000000E+00 -0.00000000000E+00 -0.45593999997E+02  0.45594000000E+02  0.51100000000E-03 0.  1.
    9900012    2    1    2    0    0 -0.26683212258E+02  0.17545379251E+02  0.31769163846E+02  0.46142312959E+02  0.99999562135E+01 0.  0.
        -12    1    1    2    0    0  0.26683212258E+02 -0.17545379251E+02 -0.31769163846E+02  0.45045687041E+02  0.00000000000E+00 0.  1.
         11    1    3    3    0    0 -0.13327833115E+02  0.11517620757E+02  0.11841071794E+02  0.21224931211E+02  0.51100000000E-03 0. -1.
        -11    1    3    3    0    0 -0.66925379996E+00  0.12919526297E+00  0.16117356524E+00  0.70040648483E+00  0.51100000000E-03 0.  1.
        -12    1    3    3    0    0 -0.12686125344E+02  0.58985632309E+01  0.19766918487E+02  0.24216975263E+02  0.00000000000E+00 0.  1.
</event>
<event>
 7    1  0.5743890E-009  0.4614232E+02  0.7816164E-02  0.1320468E+00
        -11   -1    0    0    0    0  0.00000000000E+00  0.00000000000E+00  0.45593999997E+02  0.45594000000E+02  0.51100000000E-03 0. -1.
         11   -1    0    0    0    0 -0.00000000000E+00 -0.00000000000E+00 -0.45593999997E+02  0.45594000000E+02  0.51100000000E-03 0.  1.
    9900012    2    1    2    0    0  0.35112779025E+02  0.82455462941E+01  0.26985497811E+02  0.46142319001E+02  0.10000011303E+02 0.  0.
        -12    1    1    2    0    0 -0.35112779025E+02 -0.82455462941E+01 -0.26985497811E+02  0.45045680999E+02  0.00000000000E+00 0.  1.
         11    1    3    3    0    0  0.59228203529E+01  0.95788135478E+00  0.78328543448E+01  0.98666582524E+01  0.51100000000E-03 0.  1.
        -11    1    3    3    0    0  0.90397357020E+01  0.39388338767E+01  0.94653671443E+01  0.13668372592E+02  0.51100000000E-03 0. -1.
        -12    1    3    3    0    0  0.20150222971E+02  0.33488310627E+01  0.96872763220E+01  0.22607288156E+02  0.00000000000E+00 0.  1.
</event>
<event>
 7    1  0.5743890E-009  0.4614232E+02  0.7816164E-02  0.1320468E+00
        -11   -1    0    0    0    0  0.00000000000E+00  0.00000000000E+00  0.45593999997E+02  0.45594000000E+02  0.51100000000E-03 0. -1.
         11   -1    0    0    0    0 -0.00000000000E+00 -0.00000000000E+00 -0.45593999997E+02  0.45594000000E+02  0.51100000000E-03 0.  1.
    9900012    2    1    2    0    0  0.83514563213E+01 -0.22287695097E+02  0.38244285262E+02  0.46142317292E+02  0.99999957204E+01 0.  0.
        -12    1    1    2    0    0 -0.83514563213E+01  0.22287695097E+02 -0.38244285262E+02  0.45045682708E+02  0.00000000000E+00 0.  1.
         11    1    3    3    0    0  0.62363305412E+01 -0.14344650298E+02  0.16870393742E+02  0.23005890464E+02  0.51100000000E-03 0. -1.
        -11    1    3    3    0    0  0.27923359703E+01 -0.75391447847E+01  0.19945343516E+02  0.21504710472E+02  0.51100000000E-03 0.  1.
        -12    1    3    3    0    0 -0.67721019016E+00 -0.40390001410E+00  0.14285480040E+01  0.16317163549E+01  0.00000000000E+00 0.  1.
</event>
<event>
 7    1  0.5743890E-009  0.4614232E+02  0.7816164E-02  0.1320468E+00
        -11   -1    0    0    0    0  0.00000000000E+00  0.00000000000E+00  0.45593999997E+02  0.45594000000E+02  0.51100000000E-03 0. -1.
         11   -1    0    0    0    0 -0.00000000000E+00 -0.00000000000E+00 -0.45593999997E+02  0.45594000000E+02  0.51100000000E-03 0.  1.
    9900012    2    1    2    0    0  0.17874826396E+01 -0.43377281824E+01  0.44800695358E+02  0.46142320024E+02  0.10000020634E+02 0.  0.
        -12    1    1    2    0    0 -0.17874826396E+01  0.43377281824E+01 -0.44800695358E+02  0.45045679976E+02  0.00000000000E+00 0.  1.
         11    1    3    3    0    0 -0.13622232369E+01  0.24723589751E+00  0.69863076621E+01  0.71221677000E+01  0.51100000000E-03 0. -1.
        -11    1    3    3    0    0 -0.71208825954E+00 -0.55659287712E+01  0.20589734156E+02  0.21340660385E+02  0.51100000000E-03 0.  1.
        -12    1    3    3    0    0  0.38617941360E+01  0.98096469120E+00  0.17224653539E+02  0.17679491939E+02  0.00000000000E+00 0.  1.
</event>
<event>
 7    1  0.5743890E-009  0.4614232E+02  0.7816164E-02  0.1320468E+00
        -11   -1    0    0    0    0  0.00000000000E+00  0.00000000000E+00  0.45593999997E+02  0.45594000000E+02  0.51100000000E-03 0. -1.
         11   -1    0    0    0    0 -0.00000000000E+00 -0.00000000000E+00 -0.45593999997E+02  0.45594000000E+02  0.51100000000E-03 0.  1.
    9900012    2    1    2    0    0 -0.16949214357E+02 -0.35923950513E+02  0.21243999566E+02  0.46142316463E+02  0.99999881631E+01 0.  0.
        -12    1    1    2    0    0  0.16949214357E+02  0.35923950513E+02 -0.21243999566E+02  0.45045683537E+02  0.00000000000E+00 0.  1.
         11    1    3    3    0    0 -0.13782095854E+02 -0.26191589836E+02  0.16483001386E+02  0.33876760164E+02  0.51100000000E-03 0. -1.
        -11    1    3    3    0    0 -0.31162246448E+01 -0.10061188128E+02  0.51742113631E+01  0.11735025610E+02  0.51100000000E-03 0.  1.
        -12    1    3    3    0    0 -0.50893858536E-01  0.32882745087E+00 -0.41321318319E+00  0.53053068907E+00  0.00000000000E+00 0.  1.
</event>
<event>
 7    1  0.5743890E-009  0.4614232E+02  0.7816164E-02  0.1320468E+00
        -11   -1    0    0    0    0  0.00000000000E+00  0.00000000000E+00  0.45593999997E+02  0.45594000000E+02  0.51100000000E-03 0. -1.
         11   -1    0    0    0    0 -0.00000000000E+00 -0.00000000000E+00 -0.45593999997E+02  0.45594000000E+02  0.51100000000E-03 0.  1.
    9900012    2    1    2    0    0  0.35880126226E+02  0.68251778625E+01  0.26365640268E+02  0.46142317658E+02  0.99999990630E+01 0.  0.
        -12    1    1    2    0    0 -0.35880126226E+02 -0.68251778625E+01 -0.26365640268E+02  0.45045682342E+02  0.00000000000E+00 0.  1.
         11    1    3    3    0    0  0.23336111257E+02  0.40522285244E+01  0.17119847257E+02  0.29224712402E+02  0.51100000000E-03 0.  1.
        -11    1    3    3    0    0  0.76357848361E+01  0.46164206575E+01  0.59528095255E+01  0.10726252433E+02  0.51100000000E-03 0. -1.
        -12    1    3    3    0    0  0.49082301329E+01 -0.18434713193E+01  0.32929834862E+01  0.61913528234E+01  0.00000000000E+00 0.  1.
</event>
<event>
 7    1  0.5743890E-009  0.4614232E+02  0.7816164E-02  0.1320468E+00
        -11   -1    0    0    0    0  0.00000000000E+00  0.00000000000E+00  0.45593999997E+02  0.45594000000E+02  0.51100000000E-03 0. -1.
         11   -1    0    0    0    0 -0.00000000000E+00 -0.00000000000E+00 -0.45593999997E+02  0.45594000000E+02  0.51100000000E-03 0.  1.
    9900012    2    1    2    0    0  0.22445429100E+02 -0.17495904128E+02  0.34917181497E+02  0.46142317493E+02  0.99999975588E+01 0.  0.
        -12    1    1    2    0    0 -0.22445429100E+02  0.17495904128E+02 -0.34917181497E+02  0.45045682507E+02  0.00000000000E+00 0.  1.
         11    1    3    3    0    0 -0.19854601699E+00  0.15532253301E+00 -0.16478228536E+00  0.30116286759E+00  0.51100000000E-03 0.  1.
        -11    1    3    3    0    0  0.10774953130E+02 -0.43347691818E+01  0.15210891432E+02  0.19137948093E+02  0.51100000000E-03 0. -1.
         12    1    3    3    0    0  0.11869021987E+02 -0.13316457480E+02  0.19871072351E+02  0.26703206533E+02  0.00000000000E+00 0. -1.
</event>
<event>
 7    1  0.5743890E-009  0.4614232E+02  0.7816164E-02  0.1320468E+00
        -11   -1    0    0    0    0  0.00000000000E+00  0.00000000000E+00  0.45593999997E+02  0.45594000000E+02  0.51100000000E-03 0. -1.
         11   -1    0    0    0    0 -0.00000000000E+00 -0.00000000000E+00 -0.45593999997E+02  0.45594000000E+02  0.51100000000E-03 0.  1.
    9900012    2    1    2    0    0  0.25959680031E+02 -0.51374292572E+01  0.36452919267E+02  0.46142317746E+02  0.99999998582E+01 0.  0.
        -12    1    1    2    0    0 -0.25959680031E+02  0.51374292572E+01 -0.36452919267E+02  0.45045682254E+02  0.00000000000E+00 0.  1.
         11    1    3    3    0    0  0.14852884777E+02  0.93961970769E+00  0.19902433499E+02  0.24851517677E+02  0.51100000000E-03 0. -1.
        -11    1    3    3    0    0  0.17901396761E+01 -0.11065993651E+01  0.60223720530E+01  0.63795084153E+01  0.51100000000E-03 0.  1.
        -12    1    3    3    0    0  0.93166555778E+01 -0.49704495998E+01  0.10528113715E+02  0.14911291653E+02  0.00000000000E+00 0.  1.
</event>
<event>
 7    1  0.5743890E-009  0.4614232E+02  0.7816164E-02  0.1320468E+00
        -11   -1    0    0    0    0  0.00000000000E+00  0.00000000000E+00  0.45593999997E+02  0.45594000000E+02  0.51100000000E-03 0. -1.
         11   -1    0    0    0    0 -0.00000000000E+00 -0.00000000000E+00 -0.45593999997E+02  0.45594000000E+02  0.51100000000E-03 0.  1.
    9900012    2    1    2    0    0  0.11821996657E+02 -0.33902939521E+02 -0.27201921274E+02  0.46142318363E+02  0.10000005492E+02 0.  0.
         12    1    1    2    0    0 -0.11821996657E+02  0.33902939521E+02  0.27201921274E+02  0.45045681637E+02  0.00000000000E+00 0. -1.
         11    1    3    3    0    0 -0.11566359721E+01 -0.20705378011E+01 -0.16834833927E+01  0.29084446277E+01  0.51100000000E-03 0. -1.
        -11    1    3    3    0    0  0.68791818570E+01 -0.23816019699E+02 -0.17233052447E+02  0.30191125090E+02  0.51100000000E-03 0.  1.
         12    1    3    3    0    0  0.60994507724E+01 -0.80163820204E+01 -0.82853854346E+01  0.13042748645E+02  0.00000000000E+00 0. -1.
</event>
<event>
 7    1  0.5743890E-009  0.4614232E+02  0.7816164E-02  0.1320468E+00
        -11   -1    0    0    0    0  0.00000000000E+00  0.00000000000E+00  0.45593999997E+02  0.45594000000E+02  0.51100000000E-03 0. -1.
         11   -1    0    0    0    0 -0.00000000000E+00 -0.00000000000E+00 -0.45593999997E+02  0.45594000000E+02  0.51100000000E-03 0.  1.
    9900012    2    1    2    0    0 -0.24057336763E+02  0.10413867432E+01 -0.38069324678E+02  0.46142318521E+02  0.10000006929E+02 0.  0.
         12    1    1    2    0    0  0.24057336763E+02 -0.10413867432E+01  0.38069324678E+02  0.45045681479E+02  0.00000000000E+00 0. -1.
         11    1    3    3    0    0 -0.12427319312E+02 -0.17309441681E+01 -0.15347791867E+02  0.19823953906E+02  0.51100000000E-03 0. -1.
        -11    1    3    3    0    0 -0.37784283712E+01  0.37346242808E+01 -0.10354843220E+02  0.11638157838E+02  0.51100000000E-03 0.  1.
        -12    1    3    3    0    0 -0.78515890792E+01 -0.96229336956E+00 -0.12366689590E+02  0.14680206777E+02  0.00000000000E+00 0.  1.
</event>
<event>
 7    1  0.5743890E-009  0.4614232E+02  0.7816164E-02  0.1320468E+00
        -11   -1    0    0    0    0  0.00000000000E+00  0.00000000000E+00  0.45593999997E+02  0.45594000000E+02  0.51100000000E-03 0. -1.
         11   -1    0    0    0    0 -0.00000000000E+00 -0.00000000000E+00 -0.45593999997E+02  0.45594000000E+02  0.51100000000E-03 0.  1.
    9900012    2    1    2    0    0 -0.58507892707E+01  0.32905635959E+02 -0.30201008670E+02  0.46142317214E+02  0.99999950149E+01 0.  0.
         12    1    1    2    0    0  0.58507892707E+01 -0.32905635959E+02  0.30201008670E+02  0.45045682786E+02  0.00000000000E+00 0. -1.
         11    1    3    3    0    0 -0.26754912877E+01  0.21597576081E+02 -0.20596668708E+02  0.29963916773E+02  0.51100000000E-03 0. -1.
        -11    1    3    3    0    0  0.76192253872E+00  0.45604637752E+01 -0.13577359115E+01  0.48189005869E+01  0.51100000000E-03 0.  1.
         12    1    3    3    0    0 -0.39372205217E+01  0.67475961027E+01 -0.82466040498E+01  0.11359499855E+02  0.00000000000E+00 0. -1.
</event>
<event>
 7    1  0.5743890E-009  0.4614232E+02  0.7816164E-02  0.1320468E+00
        -11   -1    0    0    0    0  0.00000000000E+00  0.00000000000E+00  0.45593999997E+02  0.45594000000E+02  0.51100000000E-03 0. -1.
         11   -1    0    0    0    0 -0.00000000000E+00 -0.00000000000E+00 -0.45593999997E+02  0.45594000000E+02  0.51100000000E-03 0.  1.
    9900012    2    1    2    0    0 -0.13926154027E+02  0.42785682752E+02 -0.21356558914E+01  0.46142318291E+02  0.10000004836E+02 0.  0.
        -12    1    1    2    0    0  0.13926154027E+02 -0.42785682752E+02  0.21356558914E+01  0.45045681709E+02  0.00000000000E+00 0.  1.
         11    1    3    3    0    0 -0.13953488652E+01  0.10460430551E+02  0.15766698170E+01  0.10670215262E+02  0.51100000000E-03 0. -1.
        -11    1    3    3    0    0 -0.55107786113E+01  0.21388505778E+02 -0.53531240019E+00  0.22093515337E+02  0.51100000000E-03 0.  1.
        -12    1    3    3    0    0 -0.70200265500E+01  0.10936746423E+02 -0.31770133082E+01  0.13378587692E+02  0.00000000000E+00 0.  1.
</event>
<event>
 7    1  0.5743890E-009  0.4614231E+02  0.7816164E-02  0.1320468E+00
        -11   -1    0    0    0    0  0.00000000000E+00  0.00000000000E+00  0.45593999997E+02  0.45594000000E+02  0.51100000000E-03 0.  1.
         11   -1    0    0    0    0 -0.00000000000E+00 -0.00000000000E+00 -0.45593999997E+02  0.45594000000E+02  0.51100000000E-03 0. -1.
    9900012    2    1    2    0    0 -0.30983367396E+02  0.32244911392E+02 -0.54231593330E+01  0.46142311827E+02  0.99999458883E+01 0.  0.
         12    1    1    2    0    0  0.30983367396E+02 -0.32244911392E+02  0.54231593330E+01  0.45045688173E+02  0.00000000000E+00 0. -1.
         11    1    3    3    0    0 -0.39127234210E+01  0.14562561629E+01 -0.73897856669E+00  0.42398320915E+01  0.51100000000E-03 0. -1.
        -11    1    3    3    0    0 -0.64904032723E+00  0.36361473133E+01 -0.10637393643E+01  0.38437432702E+01  0.51100000000E-03 0.  1.
        -12    1    3    3    0    0 -0.26421603647E+02  0.27152507915E+02 -0.36204414020E+01  0.38058736465E+02  0.00000000000E+00 0.  1.
</event>
<event>
 7    1  0.5743890E-009  0.4614231E+02  0.7816164E-02  0.1320468E+00
        -11   -1    0    0    0    0  0.00000000000E+00  0.00000000000E+00  0.45593999997E+02  0.45594000000E+02  0.51100000000E-03 0. -1.
         11   -1    0    0    0    0 -0.00000000000E+00 -0.00000000000E+00 -0.45593999997E+02  0.45594000000E+02  0.51100000000E-03 0.  1.
    9900012    2    1    2    0    0 -0.16107891414E+02  0.41618809705E+02  0.61257113060E+01  0.46142314013E+02  0.99999658175E+01 0.  0.
        -12    1    1    2    0    0  0.16107891414E+02 -0.41618809705E+02 -0.61257113060E+01  0.45045685987E+02  0.00000000000E+00 0.  1.
         11    1    3    3    0    0 -0.46957133895E+01  0.21687410437E+02  0.32197937329E+01  0.22422322976E+02  0.51100000000E-03 0. -1.
        -11    1    3    3    0    0 -0.86037007930E+01  0.18340045522E+02  0.19398118498E+01  0.20350523515E+02  0.51100000000E-03 0.  1.
        -12    1    3    3    0    0 -0.28084772318E+01  0.15913537462E+01  0.96610572328E+00  0.33694675211E+01  0.00000000000E+00 0.  1.
</event>
<event>
 7    1  0.5743890E-009  0.4614232E+02  0.7816164E-02  0.1320468E+00
        -11   -1    0    0    0    0  0.00000000000E+00  0.00000000000E+00  0.45593999997E+02  0.45594000000E+02  0.51100000000E-03 0. -1.
         11   -1    0    0    0    0 -0.00000000000E+00 -0.00000000000E+00 -0.45593999997E+02  0.45594000000E+02  0.51100000000E-03 0.  1.
    9900012    2    1    2    0    0 -0.46574987811E+01  0.43075320281E+02 -0.12326312965E+02  0.46142317593E+02  0.99999984627E+01 0.  0.
         12    1    1    2    0    0  0.46574987811E+01 -0.43075320281E+02  0.12326312965E+02  0.45045682407E+02  0.00000000000E+00 0. -1.
         11    1    3    3    0    0 -0.32845730812E+01  0.48611208756E+01 -0.13075874814E+01  0.60107155794E+01  0.51100000000E-03 0. -1.
        -11    1    3    3    0    0  0.40512801675E+00  0.16365173589E+02 -0.71853321571E+01  0.17877696545E+02  0.51100000000E-03 0.  1.
         12    1    3    3    0    0 -0.17780537166E+01  0.21849025817E+02 -0.38333933267E+01  0.22253905468E+02  0.00000000000E+00 0. -1.
</event>
<event>
 7    1  0.5743890E-009  0.4614232E+02  0.7816164E-02  0.1320468E+00
        -11   -1    0    0    0    0  0.00000000000E+00  0.00000000000E+00  0.45593999997E+02  0.45594000000E+02  0.51100000000E-03 0. -1.
         11   -1    0    0    0    0 -0.00000000000E+00 -0.00000000000E+00 -0.45593999997E+02  0.45594000000E+02  0.51100000000E-03 0.  1.
    9900012    2    1    2    0    0  0.17547032677E+02 -0.90702960006E+00 -0.41477609923E+02  0.46142321146E+02  0.10000030867E+02 0.  0.
         12    1    1    2    0    0 -0.17547032677E+02  0.90702960006E+00  0.41477609923E+02  0.45045678854E+02  0.00000000000E+00 0. -1.
         11    1    3    3    0    0  0.10721581510E+02  0.10177023486E+01 -0.18219157119E+02  0.21164255587E+02  0.51100000000E-03 0.  1.
        -11    1    3    3    0    0  0.44520045283E+01 -0.25928861777E+00 -0.59894051154E+01  0.74672986283E+01  0.51100000000E-03 0. -1.
        -12    1    3    3    0    0  0.23734466388E+01 -0.16654433308E+01 -0.17269047689E+02  0.17510766931E+02  0.00000000000E+00 0.  1.
</event>
<event>
 7    1  0.5743890E-009  0.4614232E+02  0.7816164E-02  0.1320468E+00
        -11   -1    0    0    0    0  0.00000000000E+00  0.00000000000E+00  0.45593999997E+02  0.45594000000E+02  0.51100000000E-03 0. -1.
         11   -1    0    0    0    0 -0.00000000000E+00 -0.00000000000E+00 -0.45593999997E+02  0.45594000000E+02  0.51100000000E-03 0.  1.
    9900012    2    1    2    0    0 -0.18197815616E+02 -0.14145693364E+02 -0.38702096200E+02  0.46142318917E+02  0.10000010538E+02 0.  0.
         12    1    1    2    0    0  0.18197815616E+02  0.14145693364E+02  0.38702096200E+02  0.45045681083E+02  0.00000000000E+00 0. -1.
         11    1    3    3    0    0 -0.12133846291E+01 -0.32884625753E+01 -0.90592655632E+01  0.97137315782E+01  0.51100000000E-03 0. -1.
        -11    1    3    3    0    0 -0.39476901889E+01  0.32774448969E+00 -0.64103998523E+01  0.75355756784E+01  0.51100000000E-03 0.  1.
        -12    1    3    3    0    0 -0.13036740798E+02 -0.11184975278E+02 -0.23232430785E+02  0.28893011660E+02  0.00000000000E+00 0.  1.
</event>
<event>
 7    1  0.5743890E-009  0.4614232E+02  0.7816164E-02  0.1320468E+00
        -11   -1    0    0    0    0  0.00000000000E+00  0.00000000000E+00  0.45593999997E+02  0.45594000000E+02  0.51100000000E-03 0. -1.
         11   -1    0    0    0    0 -0.00000000000E+00 -0.00000000000E+00 -0.45593999997E+02  0.45594000000E+02  0.51100000000E-03 0.  1.
    9900012    2    1    2    0    0 -0.25847891559E+02  0.72409606752E+01 -0.36174140133E+02  0.46142318477E+02  0.10000006530E+02 0.  0.
         12    1    1    2    0    0  0.25847891559E+02 -0.72409606752E+01  0.36174140133E+02  0.45045681523E+02  0.00000000000E+00 0. -1.
         11    1    3    3    0    0 -0.95201270889E+00 -0.49251309293E+00 -0.27438854265E+01  0.29458114060E+01  0.51100000000E-03 0. -1.
        -11    1    3    3    0    0 -0.49572144880E+01  0.59946422436E+00 -0.21833437178E+01  0.54498002612E+01  0.51100000000E-03 0.  1.
        -12    1    3    3    0    0 -0.19938664362E+02  0.71340095438E+01 -0.31246910988E+02  0.37746706810E+02  0.00000000000E+00 0.  1.
</event>
<event>
 7    1  0.5743890E-009  0.4614232E+02  0.7816164E-02  0.1320468E+00
        -11   -1    0    0    0    0  0.00000000000E+00  0.00000000000E+00  0.45593999997E+02  0.45594000000E+02  0.51100000000E-03 0. -1.
         11   -1    0    0    0    0 -0.00000000000E+00 -0.00000000000E+00 -0.45593999997E+02  0.45594000000E+02  0.51100000000E-03 0.  1.
    9900012    2    1    2    0    0 -0.42927664263E+02 -0.53850064890E+01 -0.12543159741E+02  0.46142317518E+02  0.99999977858E+01 0.  0.
         12    1    1    2    0    0  0.42927664263E+02  0.53850064890E+01  0.12543159741E+02  0.45045682482E+02  0.00000000000E+00 0. -1.
         11    1    3    3    0    0 -0.97804361319E+01 -0.62316665588E+00 -0.72125648897E+01  0.12168252141E+02  0.51100000000E-03 0. -1.
        -11    1    3    3    0    0 -0.10952470688E+02 -0.25428261325E+01 -0.20368307720E+01  0.11426778145E+02  0.51100000000E-03 0.  1.
         12    1    3    3    0    0 -0.22194757443E+02 -0.22190137006E+01 -0.32937640797E+01  0.22547287233E+02  0.00000000000E+00 0. -1.
</event>
<event>
 7    1  0.5743890E-009  0.4614232E+02  0.7816164E-02  0.1320468E+00
        -11   -1    0    0    0    0  0.00000000000E+00  0.00000000000E+00  0.45593999997E+02  0.45594000000E+02  0.51100000000E-03 0. -1.
         11   -1    0    0    0    0 -0.00000000000E+00 -0.00000000000E+00 -0.45593999997E+02  0.45594000000E+02  0.51100000000E-03 0.  1.
    9900012    2    1    2    0    0 -0.12565476071E+02  0.46235383785E+01  0.43009826786E+02  0.46142317674E+02  0.99999992080E+01 0.  0.
        -12    1    1    2    0    0  0.12565476071E+02 -0.46235383785E+01 -0.43009826786E+02  0.45045682326E+02  0.00000000000E+00 0.  1.
         11    1    3    3    0    0 -0.48442932885E+01  0.46399708705E+01  0.21576297809E+02  0.22594980295E+02  0.51100000000E-03 0. -1.
        -11    1    3    3    0    0 -0.46953994793E+01 -0.28323278209E+01  0.14107263119E+02  0.15135512218E+02  0.51100000000E-03 0.  1.
        -12    1    3    3    0    0 -0.30257833036E+01  0.28158953290E+01  0.73262658581E+01  0.84118251603E+01  0.00000000000E+00 0.  1.
</event>
<event>
 7    1  0.5743890E-009  0.4614232E+02  0.7816164E-02  0.1320468E+00
        -11   -1    0    0    0    0  0.00000000000E+00  0.00000000000E+00  0.45593999997E+02  0.45594000000E+02  0.51100000000E-03 0. -1.
         11   -1    0    0    0    0 -0.00000000000E+00 -0.00000000000E+00 -0.45593999997E+02  0.45594000000E+02  0.51100000000E-03 0.  1.
    9900012    2    1    2    0    0 -0.35527959926E+01 -0.35785838389E+02 -0.27126828735E+02  0.46142318456E+02  0.10000006334E+02 0.  0.
         12    1    1    2    0    0  0.35527959926E+01  0.35785838389E+02  0.27126828735E+02  0.45045681544E+02  0.00000000000E+00 0. -1.
         11    1    3    3    0    0  0.85156992524E+00 -0.13670504075E+00 -0.19037782650E+01  0.20900314708E+01  0.51100000000E-03 0. -1.
        -11    1    3    3    0    0  0.55562065479E+00 -0.84895524971E+01 -0.59585077519E+01  0.10386771914E+02  0.51100000000E-03 0.  1.
         12    1    3    3    0    0 -0.49599865726E+01 -0.27159580851E+02 -0.19264542718E+02  0.33665515070E+02  0.00000000000E+00 0. -1.
</event>
<event>
 7    1  0.5743890E-009  0.4614232E+02  0.7816164E-02  0.1320468E+00
        -11   -1    0    0    0    0  0.00000000000E+00  0.00000000000E+00  0.45593999997E+02  0.45594000000E+02  0.51100000000E-03 0. -1.
         11   -1    0    0    0    0 -0.00000000000E+00 -0.00000000000E+00 -0.45593999997E+02  0.45594000000E+02  0.51100000000E-03 0.  1.
    9900012    2    1    2    0    0 -0.10719723086E+02 -0.25001270175E+02 -0.35904552281E+02  0.46142324870E+02  0.10000064825E+02 0.  0.
         12    1    1    2    0    0  0.10719723086E+02  0.25001270175E+02  0.35904552281E+02  0.45045675130E+02  0.00000000000E+00 0. -1.
         11    1    3    3    0    0 -0.27079892349E+01 -0.51412776545E+01 -0.99587531164E+01  0.11530078296E+02  0.51100000000E-03 0. -1.
        -11    1    3    3    0    0 -0.56815986849E+01 -0.12429317413E+02 -0.21956984138E+02  0.25862668998E+02  0.51100000000E-03 0.  1.
         12    1    3    3    0    0 -0.23301351664E+01 -0.74306751080E+01 -0.39888150262E+01  0.87495775765E+01  0.00000000000E+00 0. -1.
</event>
<event>
 7    1  0.5743890E-009  0.4614232E+02  0.7816164E-02  0.1320468E+00
        -11   -1    0    0    0    0  0.00000000000E+00  0.00000000000E+00  0.45593999997E+02  0.45594000000E+02  0.51100000000E-03 0. -1.
         11   -1    0    0    0    0 -0.00000000000E+00 -0.00000000000E+00 -0.45593999997E+02  0.45594000000E+02  0.51100000000E-03 0.  1.
    9900012    2    1    2    0    0 -0.15530494836E+02  0.27222133601E+02 -0.32355411757E+02  0.46142317659E+02  0.99999990644E+01 0.  0.
         12    1    1    2    0    0  0.15530494836E+02 -0.27222133601E+02  0.32355411757E+02  0.45045682341E+02  0.00000000000E+00 0. -1.
         11    1    3    3    0    0 -0.24465187038E+01  0.42000026572E-02 -0.20106536637E+01  0.31667333050E+01  0.51100000000E-03 0. -1.
        -11    1    3    3    0    0 -0.74653675636E+01  0.13501362365E+02 -0.17813619182E+02  0.23565727810E+02  0.51100000000E-03 0.  1.
        -12    1    3    3    0    0 -0.56186085688E+01  0.13716571233E+02 -0.12531138911E+02  0.19409856544E+02  0.00000000000E+00 0.  1.
</event>
<event>
 7    1  0.5743890E-009  0.4614232E+02  0.7816164E-02  0.1320468E+00
        -11   -1    0    0    0    0  0.00000000000E+00  0.00000000000E+00  0.45593999997E+02  0.45594000000E+02  0.51100000000E-03 0.  1.
         11   -1    0    0    0    0 -0.00000000000E+00 -0.00000000000E+00 -0.45593999997E+02  0.45594000000E+02  0.51100000000E-03 0. -1.
    9900012    2    1    2    0    0 -0.29292857164E+02  0.29014498734E+02 -0.18143894248E+02  0.46142317454E+02  0.99999971952E+01 0.  0.
         12    1    1    2    0    0  0.29292857164E+02 -0.29014498734E+02  0.18143894248E+02  0.45045682546E+02  0.00000000000E+00 0. -1.
         11    1    3    3    0    0  0.23764412211E+00 -0.32482461025E+00 -0.42234146510E+00  0.58340237441E+00  0.51100000000E-03 0. -1.
        -11    1    3    3    0    0 -0.10650070228E+02  0.14314560630E+02 -0.75556821634E+01  0.19375731602E+02  0.51100000000E-03 0.  1.
         12    1    3    3    0    0 -0.18880431058E+02  0.15024762714E+02 -0.10165870620E+02  0.26183183477E+02  0.00000000000E+00 0. -1.
</event>
<event>
 7    1  0.5743890E-009  0.4614232E+02  0.7816164E-02  0.1320468E+00
        -11   -1    0    0    0    0  0.00000000000E+00  0.00000000000E+00  0.45593999997E+02  0.45594000000E+02  0.51100000000E-03 0. -1.
         11   -1    0    0    0    0 -0.00000000000E+00 -0.00000000000E+00 -0.45593999997E+02  0.45594000000E+02  0.51100000000E-03 0.  1.
    9900012    2    1    2    0    0 -0.85803907166E+00  0.38221974497E+02 -0.23821375164E+02  0.46142317852E+02  0.10000000825E+02 0.  0.
         12    1    1    2    0    0  0.85803907166E+00 -0.38221974497E+02  0.23821375164E+02  0.45045682148E+02  0.00000000000E+00 0. -1.
         11    1    3    3    0    0  0.51108090999E+00  0.20184476558E+02 -0.82226338174E+01  0.21801055130E+02  0.51100000000E-03 0. -1.
        -11    1    3    3    0    0 -0.22263224803E+01  0.81976422378E+01 -0.50143890715E+01  0.98641749816E+01  0.51100000000E-03 0.  1.
        -12    1    3    3    0    0  0.85720249862E+00  0.98398557010E+01 -0.10584352275E+02  0.14477087740E+02  0.00000000000E+00 0.  1.
</event>
<event>
 7    1  0.5743890E-009  0.4614232E+02  0.7816164E-02  0.1320468E+00
        -11   -1    0    0    0    0  0.00000000000E+00  0.00000000000E+00  0.45593999997E+02  0.45594000000E+02  0.51100000000E-03 0. -1.
         11   -1    0    0    0    0 -0.00000000000E+00 -0.00000000000E+00 -0.45593999997E+02  0.45594000000E+02  0.51100000000E-03 0.  1.
    9900012    2    1    2    0    0 -0.12933664267E+01 -0.20418524581E+02 -0.40131341584E+02  0.46142317409E+02  0.99999967888E+01 0.  0.
         12    1    1    2    0    0  0.12933664267E+01  0.20418524581E+02  0.40131341584E+02  0.45045682591E+02  0.00000000000E+00 0. -1.
         11    1    3    3    0    0  0.74770074801E+00 -0.14423141952E+00  0.98675686539E-01  0.76785171953E+00  0.51100000000E-03 0. -1.
        -11    1    3    3    0    0  0.11358021512E+01 -0.19192233100E+01 -0.60498985632E+01  0.64478475111E+01  0.51100000000E-03 0.  1.
        -12    1    3    3    0    0 -0.31768693259E+01 -0.18355069851E+02 -0.34180118707E+02  0.38926618178E+02  0.00000000000E+00 0.  1.
</event>
<event>
 7    1  0.5743890E-009  0.4614232E+02  0.7816164E-02  0.1320468E+00
        -11   -1    0    0    0    0  0.00000000000E+00  0.00000000000E+00  0.45593999997E+02  0.45594000000E+02  0.51100000000E-03 0. -1.
         11   -1    0    0    0    0 -0.00000000000E+00 -0.00000000000E+00 -0.45593999997E+02  0.45594000000E+02  0.51100000000E-03 0.  1.
    9900012    2    1    2    0    0  0.23130298356E+02  0.11633065676E+02  0.36861560693E+02  0.46142316791E+02  0.99999911534E+01 0.  0.
        -12    1    1    2    0    0 -0.23130298356E+02 -0.11633065676E+02 -0.36861560693E+02  0.45045683209E+02  0.00000000000E+00 0.  1.
         11    1    3    3    0    0  0.11390167160E+02  0.15845867288E+01  0.13527815115E+02  0.17755241622E+02  0.51100000000E-03 0. -1.
        -11    1    3    3    0    0  0.27357694344E+00 -0.42460552127E+00  0.24448965702E+00  0.56116810867E+00  0.51100000000E-03 0.  1.
         12    1    3    3    0    0  0.11466554253E+02  0.10473084469E+02  0.23089255921E+02  0.27825907060E+02  0.00000000000E+00 0. -1.
</event>
<event>
 7    1  0.5743890E-009  0.4614231E+02  0.7816164E-02  0.1320468E+00
        -11   -1    0    0    0    0  0.00000000000E+00  0.00000000000E+00  0.45593999997E+02  0.45594000000E+02  0.51100000000E-03 0.  1.
         11   -1    0    0    0    0 -0.00000000000E+00 -0.00000000000E+00 -0.45593999997E+02  0.45594000000E+02  0.51100000000E-03 0. -1.
    9900012    2    1    2    0    0  0.28865892851E+02 -0.29110061256E+02 -0.18667578227E+02  0.46142313044E+02  0.99999569891E+01 0.  0.
         12    1    1    2    0    0 -0.28865892851E+02  0.29110061256E+02  0.18667578227E+02  0.45045686956E+02  0.00000000000E+00 0. -1.
         11    1    3    3    0    0  0.11292675151E+02 -0.12938435500E+02 -0.58528063659E+01  0.18143400119E+02  0.51100000000E-03 0.  1.
        -11    1    3    3    0    0  0.87140890329E+01 -0.89515921267E+01 -0.10542558410E+02  0.16346617001E+02  0.51100000000E-03 0. -1.
         12    1    3    3    0    0  0.88591286668E+01 -0.72200336297E+01 -0.22722134510E+01  0.11652295925E+02  0.00000000000E+00 0. -1.
</event>
<event>
 7    1  0.5743890E-009  0.4614232E+02  0.7816164E-02  0.1320468E+00
        -11   -1    0    0    0    0  0.00000000000E+00  0.00000000000E+00  0.45593999997E+02  0.45594000000E+02  0.51100000000E-03 0. -1.
         11   -1    0    0    0    0 -0.00000000000E+00 -0.00000000000E+00 -0.45593999997E+02  0.45594000000E+02  0.51100000000E-03 0.  1.
    9900012    2    1    2    0    0 -0.25875537557E+02  0.20946707433E+01 -0.36812802325E+02  0.46142317583E+02  0.99999983740E+01 0.  0.
         12    1    1    2    0    0  0.25875537557E+02 -0.20946707433E+01  0.36812802325E+02  0.45045682417E+02  0.00000000000E+00 0. -1.
         11    1    3    3    0    0 -0.46428127941E+01  0.21272931399E+01 -0.10080233514E+02  0.11300097110E+02  0.51100000000E-03 0. -1.
        -11    1    3    3    0    0 -0.68975872496E+01  0.32730578828E+01 -0.91619699943E+01  0.11926076983E+02  0.51100000000E-03 0.  1.
         12    1    3    3    0    0 -0.14335137513E+02 -0.33056802794E+01 -0.17570598817E+02  0.22916143489E+02  0.00000000000E+00 0. -1.
</event>
<event>
 7    1  0.5743890E-009  0.4614232E+02  0.7816164E-02  0.1320468E+00
        -11   -1    0    0    0    0  0.00000000000E+00  0.00000000000E+00  0.45593999997E+02  0.45594000000E+02  0.51100000000E-03 0. -1.
         11   -1    0    0    0    0 -0.00000000000E+00 -0.00000000000E+00 -0.45593999997E+02  0.45594000000E+02  0.51100000000E-03 0.  1.
    9900012    2    1    2    0    0  0.19664753751E+02 -0.13251132779E+02  0.38299066703E+02  0.46142316851E+02  0.99999917043E+01 0.  0.
        -12    1    1    2    0    0 -0.19664753751E+02  0.13251132779E+02 -0.38299066703E+02  0.45045683149E+02  0.00000000000E+00 0.  1.
         11    1    3    3    0    0  0.31332312317E+01 -0.40656603746E+01  0.10355510036E+02  0.11557825081E+02  0.51100000000E-03 0. -1.
        -11    1    3    3    0    0  0.16871842096E+02 -0.75007755251E+01  0.26702593529E+02  0.32464583635E+02  0.51100000000E-03 0.  1.
        -12    1    3    3    0    0 -0.34031957686E+00 -0.16846968797E+01  0.12409631375E+01  0.21199081346E+01  0.00000000000E+00 0.  1.
</event>
<event>
 7    1  0.5743890E-009  0.4614232E+02  0.7816164E-02  0.1320468E+00
        -11   -1    0    0    0    0  0.00000000000E+00  0.00000000000E+00  0.45593999997E+02  0.45594000000E+02  0.51100000000E-03 0. -1.
         11   -1    0    0    0    0 -0.00000000000E+00 -0.00000000000E+00 -0.45593999997E+02  0.45594000000E+02  0.51100000000E-03 0.  1.
    9900012    2    1    2    0    0 -0.11749717539E+02  0.74047510689E+01 -0.42851222835E+02  0.46142317642E+02  0.99999989183E+01 0.  0.
         12    1    1    2    0    0  0.11749717539E+02 -0.74047510689E+01  0.42851222835E+02  0.45045682358E+02  0.00000000000E+00 0. -1.
         11    1    3    3    0    0 -0.35413626218E+00 -0.20823800885E+01 -0.63096700121E+01  0.66538451475E+01  0.51100000000E-03 0. -1.
        -11    1    3    3    0    0 -0.76729694844E+01  0.50970478949E+01 -0.22696809721E+02  0.24494887828E+02  0.51100000000E-03 0.  1.
         12    1    3    3    0    0 -0.37226117919E+01  0.43900832625E+01 -0.13844743102E+02  0.14993584667E+02  0.00000000000E+00 0. -1.
</event>
<event>
 7    1  0.5743890E-009  0.4614232E+02  0.7816164E-02  0.1320468E+00
        -11   -1    0    0    0    0  0.00000000000E+00  0.00000000000E+00  0.45593999997E+02  0.45594000000E+02  0.51100000000E-03 0. -1.
         11   -1    0    0    0    0 -0.00000000000E+00 -0.00000000000E+00 -0.45593999997E+02  0.45594000000E+02  0.51100000000E-03 0.  1.
    9900012    2    1    2    0    0 -0.99039875395E+01  0.29574348509E+01  0.43843790779E+02  0.46142318965E+02  0.10000010976E+02 0.  0.
        -12    1    1    2    0    0  0.99039875395E+01 -0.29574348509E+01 -0.43843790779E+02  0.45045681035E+02  0.00000000000E+00 0.  1.
         11    1    3    3    0    0 -0.72003845319E+01  0.23876078984E+01  0.27495591919E+02  0.28522864234E+02  0.51100000000E-03 0. -1.
        -11    1    3    3    0    0 -0.25812750081E+01 -0.94180651683E-01  0.20297028790E+01  0.32850486603E+01  0.51100000000E-03 0.  1.
         12    1    3    3    0    0 -0.12232799951E+00  0.66400760417E+00  0.14318495980E+02  0.14334406070E+02  0.00000000000E+00 0. -1.
</event>
<event>
 7    1  0.5743890E-009  0.4614232E+02  0.7816164E-02  0.1320468E+00
        -11   -1    0    0    0    0  0.00000000000E+00  0.00000000000E+00  0.45593999997E+02  0.45594000000E+02  0.51100000000E-03 0. -1.
         11   -1    0    0    0    0 -0.00000000000E+00 -0.00000000000E+00 -0.45593999997E+02  0.45594000000E+02  0.51100000000E-03 0.  1.
    9900012    2    1    2    0    0  0.20341233405E+02 -0.22618710256E+02 -0.33222607401E+02  0.46142317936E+02  0.10000001594E+02 0.  0.
         12    1    1    2    0    0 -0.20341233405E+02  0.22618710256E+02  0.33222607401E+02  0.45045682064E+02  0.00000000000E+00 0. -1.
         11    1    3    3    0    0  0.10632580568E+02 -0.13792103426E+02 -0.17024270876E+02  0.24353638035E+02  0.51100000000E-03 0. -1.
        -11    1    3    3    0    0  0.65513615143E+01 -0.17607894139E+01 -0.84661799551E+01  0.10848821150E+02  0.51100000000E-03 0.  1.
        -12    1    3    3    0    0  0.31572913236E+01 -0.70658174165E+01 -0.77321565700E+01  0.10939858751E+02  0.00000000000E+00 0.  1.
</event>
<event>
 7    1  0.5743890E-009  0.4614232E+02  0.7816164E-02  0.1320468E+00
        -11   -1    0    0    0    0  0.00000000000E+00  0.00000000000E+00  0.45593999997E+02  0.45594000000E+02  0.51100000000E-03 0. -1.
         11   -1    0    0    0    0 -0.00000000000E+00 -0.00000000000E+00 -0.45593999997E+02  0.45594000000E+02  0.51100000000E-03 0.  1.
    9900012    2    1    2    0    0 -0.32338943872E+00 -0.24422116755E+02  0.37849293337E+02  0.46142319034E+02  0.10000011609E+02 0.  0.
        -12    1    1    2    0    0  0.32338943872E+00  0.24422116755E+02 -0.37849293337E+02  0.45045680966E+02  0.00000000000E+00 0.  1.
         11    1    3    3    0    0 -0.18443116072E+01 -0.45373985547E+01  0.43241416851E+01  0.65335803755E+01  0.51100000000E-03 0. -1.
        -11    1    3    3    0    0  0.40988049319E+01 -0.13812689960E+02  0.24627151745E+02  0.28532213534E+02  0.51100000000E-03 0.  1.
         12    1    3    3    0    0 -0.25778827634E+01 -0.60720282409E+01  0.88979999069E+01  0.11076525125E+02  0.00000000000E+00 0. -1.
</event>
<event>
 7    1  0.5743890E-009  0.4614232E+02  0.7816164E-02  0.1320468E+00
        -11   -1    0    0    0    0  0.00000000000E+00  0.00000000000E+00  0.45593999997E+02  0.45594000000E+02  0.51100000000E-03 0. -1.
         11   -1    0    0    0    0 -0.00000000000E+00 -0.00000000000E+00 -0.45593999997E+02  0.45594000000E+02  0.51100000000E-03 0.  1.
    9900012    2    1    2    0    0 -0.20204329707E+02 -0.89760539194E+01  0.39247022996E+02  0.46142319887E+02  0.10000019382E+02 0.  0.
        -12    1    1    2    0    0  0.20204329707E+02  0.89760539194E+01 -0.39247022996E+02  0.45045680113E+02  0.00000000000E+00 0.  1.
         11    1    3    3    0    0 -0.26526389598E+01 -0.29741490627E+01  0.10623488548E+02  0.11346389967E+02  0.51100000000E-03 0. -1.
        -11    1    3    3    0    0 -0.23348587416E+01 -0.35440620635E+01  0.46592558919E+01  0.63024286573E+01  0.51100000000E-03 0.  1.
         12    1    3    3    0    0 -0.15216832005E+02 -0.24578427932E+01  0.23964278556E+02  0.28493501262E+02  0.00000000000E+00 0. -1.
</event>
<event>
 7    1  0.5743890E-009  0.4614232E+02  0.7816164E-02  0.1320468E+00
        -11   -1    0    0    0    0  0.00000000000E+00  0.00000000000E+00  0.45593999997E+02  0.45594000000E+02  0.51100000000E-03 0. -1.
         11   -1    0    0    0    0 -0.00000000000E+00 -0.00000000000E+00 -0.45593999997E+02  0.45594000000E+02  0.51100000000E-03 0.  1.
    9900012    2    1    2    0    0  0.78766654573E+01 -0.60936345715E+01 -0.43931073586E+02  0.46142317994E+02  0.10000002119E+02 0.  0.
         12    1    1    2    0    0 -0.78766654573E+01  0.60936345715E+01  0.43931073586E+02  0.45045682006E+02  0.00000000000E+00 0. -1.
         11    1    3    3    0    0  0.26081481113E+01  0.12379386118E+01 -0.16902494113E+02  0.17147280720E+02  0.51100000000E-03 0. -1.
        -11    1    3    3    0    0 -0.54165874820E+00 -0.31347923830E+01 -0.10694451090E+02  0.11157580467E+02  0.51100000000E-03 0.  1.
         12    1    3    3    0    0  0.58101760941E+01 -0.41967808004E+01 -0.16334128382E+02  0.17837456807E+02  0.00000000000E+00 0. -1.
</event>
<event>
 7    1  0.5743890E-009  0.4614232E+02  0.7816164E-02  0.1320468E+00
        -11   -1    0    0    0    0  0.00000000000E+00  0.00000000000E+00  0.45593999997E+02  0.45594000000E+02  0.51100000000E-03 0. -1.
         11   -1    0    0    0    0 -0.00000000000E+00 -0.00000000000E+00 -0.45593999997E+02  0.45594000000E+02  0.51100000000E-03 0.  1.
    9900012    2    1    2    0    0  0.50519660484E+01  0.37099373310E+02  0.25044506613E+02  0.46142321268E+02  0.10000031977E+02 0.  0.
        -12    1    1    2    0    0 -0.50519660484E+01 -0.37099373310E+02 -0.25044506613E+02  0.45045678732E+02  0.00000000000E+00 0.  1.
         11    1    3    3    0    0  0.90849712238E+00  0.23287686866E+02  0.17701087406E+02  0.29265512505E+02  0.51100000000E-03 0. -1.
        -11    1    3    3    0    0  0.44583672853E+01  0.79562108267E+01  0.30779249578E+01  0.96255883911E+01  0.51100000000E-03 0.  1.
        -12    1    3    3    0    0 -0.31489835920E+00  0.58554756177E+01  0.42654942495E+01  0.72512203717E+01  0.00000000000E+00 0.  1.
</event>
<event>
 7    1  0.5743890E-009  0.4614232E+02  0.7816164E-02  0.1320468E+00
        -11   -1    0    0    0    0  0.00000000000E+00  0.00000000000E+00  0.45593999997E+02  0.45594000000E+02  0.51100000000E-03 0. -1.
         11   -1    0    0    0    0 -0.00000000000E+00 -0.00000000000E+00 -0.45593999997E+02  0.45594000000E+02  0.51100000000E-03 0.  1.
    9900012    2    1    2    0    0 -0.99898312616E+01 -0.23565973848E+02 -0.37066989596E+02  0.46142316858E+02  0.99999917662E+01 0.  0.
         12    1    1    2    0    0  0.99898312616E+01  0.23565973848E+02  0.37066989596E+02  0.45045683142E+02  0.00000000000E+00 0. -1.
         11    1    3    3    0    0 -0.68385845667E+00 -0.23405090362E+01 -0.74104570627E+01  0.78013152146E+01  0.51100000000E-03 0. -1.
        -11    1    3    3    0    0 -0.49954969523E+01 -0.59805887636E+01 -0.14255291752E+02  0.16246100300E+02  0.51100000000E-03 0.  1.
        -12    1    3    3    0    0 -0.43104758526E+01 -0.15244876048E+02 -0.15401240781E+02  0.22094901344E+02  0.00000000000E+00 0.  1.
</event>
<event>
 7    1  0.5743890E-009  0.4614232E+02  0.7816164E-02  0.1320468E+00
        -11   -1    0    0    0    0  0.00000000000E+00  0.00000000000E+00  0.45593999997E+02  0.45594000000E+02  0.51100000000E-03 0. -1.
         11   -1    0    0    0    0 -0.00000000000E+00 -0.00000000000E+00 -0.45593999997E+02  0.45594000000E+02  0.51100000000E-03 0.  1.
    9900012    2    1    2    0    0 -0.50744875935E+00  0.24939683908E+02 -0.37508240935E+02  0.46142317902E+02  0.10000001282E+02 0.  0.
         12    1    1    2    0    0  0.50744875935E+00 -0.24939683908E+02  0.37508240935E+02  0.45045682098E+02  0.00000000000E+00 0. -1.
         11    1    3    3    0    0  0.35395758766E+00  0.77868401998E+01 -0.94604591945E+01  0.12258077121E+02  0.51100000000E-03 0.  1.
        -11    1    3    3    0    0  0.62263551028E+00  0.16742635092E+02 -0.27588736020E+02  0.32277575191E+02  0.51100000000E-03 0. -1.
         12    1    3    3    0    0 -0.14840418573E+01  0.41020861660E+00 -0.45904572066E+00  0.16066655896E+01  0.00000000000E+00 0. -1.
</event>
<event>
 7    1  0.5743890E-009  0.4614232E+02  0.7816164E-02  0.1320468E+00
        -11   -1    0    0    0    0  0.00000000000E+00  0.00000000000E+00  0.45593999997E+02  0.45594000000E+02  0.51100000000E-03 0.  1.
         11   -1    0    0    0    0 -0.00000000000E+00 -0.00000000000E+00 -0.45593999997E+02  0.45594000000E+02  0.51100000000E-03 0. -1.
    9900012    2    1    2    0    0 -0.36960529188E+02 -0.19084656002E+02 -0.17286081212E+02  0.46142318562E+02  0.10000007301E+02 0.  0.
         12    1    1    2    0    0  0.36960529188E+02  0.19084656002E+02  0.17286081212E+02  0.45045681438E+02  0.00000000000E+00 0. -1.
         11    1    3    3    0    0 -0.69352221768E+00 -0.83526183108E+00  0.15384287264E+00  0.10964959113E+01  0.51100000000E-03 0. -1.
        -11    1    3    3    0    0 -0.15494173345E+02 -0.96670264414E+01 -0.34910018356E+01  0.18593221936E+02  0.51100000000E-03 0.  1.
         12    1    3    3    0    0 -0.20772833625E+02 -0.85823677291E+01 -0.13948922249E+02  0.26452600715E+02  0.00000000000E+00 0. -1.
</event>
<event>
 7    1  0.5743890E-009  0.4614232E+02  0.7816164E-02  0.1320468E+00
        -11   -1    0    0    0    0  0.00000000000E+00  0.00000000000E+00  0.45593999997E+02  0.45594000000E+02  0.51100000000E-03 0. -1.
         11   -1    0    0    0    0 -0.00000000000E+00 -0.00000000000E+00 -0.45593999997E+02  0.45594000000E+02  0.51100000000E-03 0.  1.
    9900012    2    1    2    0    0  0.11414908780E+02  0.31908177780E+02  0.29676281218E+02  0.46142316315E+02  0.99999868136E+01 0.  0.
        -12    1    1    2    0    0 -0.11414908780E+02 -0.31908177780E+02 -0.29676281218E+02  0.45045683685E+02  0.00000000000E+00 0.  1.
         11    1    3    3    0    0  0.86526142685E+01  0.26561383926E+02  0.28685117420E+02  0.40040115027E+02  0.51100000000E-03 0. -1.
        -11    1    3    3    0    0  0.97834172582E+00  0.18942085251E+01  0.25931728003E+00  0.21476555082E+01  0.51100000000E-03 0.  1.
         12    1    3    3    0    0  0.17839527857E+01  0.34525853293E+01  0.73184651821E+00  0.39545457797E+01  0.00000000000E+00 0. -1.
</event>
<event>
 7    1  0.5743890E-009  0.4614232E+02  0.7816164E-02  0.1320468E+00
        -11   -1    0    0    0    0  0.00000000000E+00  0.00000000000E+00  0.45593999997E+02  0.45594000000E+02  0.51100000000E-03 0. -1.
         11   -1    0    0    0    0 -0.00000000000E+00 -0.00000000000E+00 -0.45593999997E+02  0.45594000000E+02  0.51100000000E-03 0.  1.
    9900012    2    1    2    0    0  0.22338510414E+02 -0.36673193065E+02 -0.13608121933E+02  0.46142321854E+02  0.10000037320E+02 0.  0.
         12    1    1    2    0    0 -0.22338510414E+02  0.36673193065E+02  0.13608121933E+02  0.45045678146E+02  0.00000000000E+00 0. -1.
         11    1    3    3    0    0  0.76179968840E+00 -0.33707063725E+01  0.10064496072E+01  0.35992973325E+01  0.51100000000E-03 0. -1.
        -11    1    3    3    0    0  0.15094986714E+01 -0.52265396033E+01 -0.21893574963E+01  0.58641784566E+01  0.51100000000E-03 0.  1.
        -12    1    3    3    0    0  0.20067212054E+02 -0.28075947090E+02 -0.12425214044E+02  0.36678846065E+02  0.00000000000E+00 0.  1.
</event>
<event>
 7    1  0.5743890E-009  0.4614232E+02  0.7816164E-02  0.1320468E+00
        -11   -1    0    0    0    0  0.00000000000E+00  0.00000000000E+00  0.45593999997E+02  0.45594000000E+02  0.51100000000E-03 0. -1.
         11   -1    0    0    0    0 -0.00000000000E+00 -0.00000000000E+00 -0.45593999997E+02  0.45594000000E+02  0.51100000000E-03 0.  1.
    9900012    2    1    2    0    0  0.19496028644E+02 -0.30104912795E+02 -0.27252752847E+02  0.46142318242E+02  0.10000004387E+02 0.  0.
         12    1    1    2    0    0 -0.19496028644E+02  0.30104912795E+02  0.27252752847E+02  0.45045681758E+02  0.00000000000E+00 0. -1.
         11    1    3    3    0    0  0.40688768644E+01 -0.10064245003E+02 -0.88865327643E+01  0.14029085902E+02  0.51100000000E-03 0. -1.
        -11    1    3    3    0    0  0.13862674451E+02 -0.14662311808E+02 -0.16907091595E+02  0.26325023779E+02  0.51100000000E-03 0.  1.
         12    1    3    3    0    0  0.15644773278E+01 -0.53783559844E+01 -0.14591284877E+01  0.57882085612E+01  0.00000000000E+00 0. -1.
</event>
<event>
 7    1  0.5743890E-009  0.4614232E+02  0.7816164E-02  0.1320468E+00
        -11   -1    0    0    0    0  0.00000000000E+00  0.00000000000E+00  0.45593999997E+02  0.45594000000E+02  0.51100000000E-03 0.  1.
         11   -1    0    0    0    0 -0.00000000000E+00 -0.00000000000E+00 -0.45593999997E+02  0.45594000000E+02  0.51100000000E-03 0. -1.
    9900012    2    1    2    0    0 -0.37761358941E+02  0.23228940599E+02  0.79755579319E+01  0.46142318356E+02  0.10000005428E+02 0.  0.
         12    1    1    2    0    0  0.37761358941E+02 -0.23228940599E+02 -0.79755579319E+01  0.45045681644E+02  0.00000000000E+00 0. -1.
         11    1    3    3    0    0 -0.11333692966E+02  0.61397945126E+01  0.58114617402E+01  0.14139404539E+02  0.51100000000E-03 0. -1.
        -11    1    3    3    0    0 -0.18408995632E+02  0.13323528537E+02  0.36637291522E+01  0.23018046060E+02  0.51100000000E-03 0.  1.
         12    1    3    3    0    0 -0.80186703436E+01  0.37656175486E+01 -0.14996329605E+01  0.89848677574E+01  0.00000000000E+00 0. -1.
</event>
<event>
 7    1  0.5743890E-009  0.4614232E+02  0.7816164E-02  0.1320468E+00
        -11   -1    0    0    0    0  0.00000000000E+00  0.00000000000E+00  0.45593999997E+02  0.45594000000E+02  0.51100000000E-03 0. -1.
         11   -1    0    0    0    0 -0.00000000000E+00 -0.00000000000E+00 -0.45593999997E+02  0.45594000000E+02  0.51100000000E-03 0.  1.
    9900012    2    1    2    0    0 -0.24962683537E+02  0.26271625946E+02  0.26754058284E+02  0.46142317256E+02  0.99999953936E+01 0.  0.
        -12    1    1    2    0    0  0.24962683537E+02 -0.26271625946E+02 -0.26754058284E+02  0.45045682744E+02  0.00000000000E+00 0.  1.
         11    1    3    3    0    0 -0.11036250163E+02  0.11347553070E+02  0.11914322023E+02  0.19812037953E+02  0.51100000000E-03 0. -1.
        -11    1    3    3    0    0 -0.97094308729E+01  0.11683294981E+02  0.66908479954E+01  0.16599393864E+02  0.51100000000E-03 0.  1.
        -12    1    3    3    0    0 -0.42170025011E+01  0.32407778958E+01  0.81488882661E+01  0.97308854395E+01  0.00000000000E+00 0.  1.
</event>
<event>
 7    1  0.5743890E-009  0.4614232E+02  0.7816164E-02  0.1320468E+00
        -11   -1    0    0    0    0  0.00000000000E+00  0.00000000000E+00  0.45593999997E+02  0.45594000000E+02  0.51100000000E-03 0. -1.
         11   -1    0    0    0    0 -0.00000000000E+00 -0.00000000000E+00 -0.45593999997E+02  0.45594000000E+02  0.51100000000E-03 0.  1.
    9900012    2    1    2    0    0 -0.30804676303E+02  0.12786017855E+01  0.32841294288E+02  0.46142317464E+02  0.99999972892E+01 0.  0.
        -12    1    1    2    0    0  0.30804676303E+02 -0.12786017855E+01 -0.32841294288E+02  0.45045682536E+02  0.00000000000E+00 0.  1.
         11    1    3    3    0    0 -0.20460463211E+02  0.90477020119E+00  0.22183984658E+02  0.30192355647E+02  0.51100000000E-03 0. -1.
        -11    1    3    3    0    0 -0.19335455966E+01  0.93459532437E+00  0.58823864003E+01  0.62621511494E+01  0.51100000000E-03 0.  1.
         12    1    3    3    0    0 -0.84106674950E+01 -0.56076374002E+00  0.47749232295E+01  0.96878106676E+01  0.00000000000E+00 0. -1.
</event>
<event>
 7    1  0.5743890E-009  0.4614232E+02  0.7816164E-02  0.1320468E+00
        -11   -1    0    0    0    0  0.00000000000E+00  0.00000000000E+00  0.45593999997E+02  0.45594000000E+02  0.51100000000E-03 0. -1.
         11   -1    0    0    0    0 -0.00000000000E+00 -0.00000000000E+00 -0.45593999997E+02  0.45594000000E+02  0.51100000000E-03 0.  1.
    9900012    2    1    2    0    0  0.13380384817E+02 -0.34792143625E+02 -0.25290023344E+02  0.46142320556E+02  0.10000025484E+02 0.  0.
         12    1    1    2    0    0 -0.13380384817E+02  0.34792143625E+02  0.25290023344E+02  0.45045679444E+02  0.00000000000E+00 0. -1.
         11    1    3    3    0    0  0.53229878060E+01 -0.15700930323E+02 -0.15842763166E+02  0.22931344426E+02  0.51100000000E-03 0. -1.
        -11    1    3    3    0    0  0.74981021575E+01 -0.17701330739E+02 -0.99297942216E+01  0.21636992846E+02  0.51100000000E-03 0.  1.
         12    1    3    3    0    0  0.55929485371E+00 -0.13898825627E+01  0.48253404401E+00  0.15739832830E+01  0.00000000000E+00 0. -1.
</event>
<event>
 7    1  0.5743890E-009  0.4614232E+02  0.7816164E-02  0.1320468E+00
        -11   -1    0    0    0    0  0.00000000000E+00  0.00000000000E+00  0.45593999997E+02  0.45594000000E+02  0.51100000000E-03 0. -1.
         11   -1    0    0    0    0 -0.00000000000E+00 -0.00000000000E+00 -0.45593999997E+02  0.45594000000E+02  0.51100000000E-03 0.  1.
    9900012    2    1    2    0    0 -0.40254473703E+02  0.55051479138E+01  0.19452100534E+02  0.46142317390E+02  0.99999966149E+01 0.  0.
        -12    1    1    2    0    0  0.40254473703E+02 -0.55051479138E+01 -0.19452100534E+02  0.45045682610E+02  0.00000000000E+00 0.  1.
         11    1    3    3    0    0 -0.13586250597E+02  0.33030217041E+01  0.97222149990E+01  0.17029903770E+02  0.51100000000E-03 0. -1.
        -11    1    3    3    0    0 -0.14767833547E+02  0.36809110238E+01  0.35779638134E+01  0.15634571914E+02  0.51100000000E-03 0.  1.
        -12    1    3    3    0    0 -0.11900389559E+02 -0.14787848140E+01  0.61519217213E+01  0.13477841706E+02  0.00000000000E+00 0.  1.
</event>
<event>
 7    1  0.5743890E-009  0.4614232E+02  0.7816164E-02  0.1320468E+00
        -11   -1    0    0    0    0  0.00000000000E+00  0.00000000000E+00  0.45593999997E+02  0.45594000000E+02  0.51100000000E-03 0. -1.
         11   -1    0    0    0    0 -0.00000000000E+00 -0.00000000000E+00 -0.45593999997E+02  0.45594000000E+02  0.51100000000E-03 0.  1.
    9900012    2    1    2    0    0 -0.59441001259E+01 -0.18306175064E+02 -0.40726709984E+02  0.46142320097E+02  0.10000021304E+02 0.  0.
         12    1    1    2    0    0  0.59441001259E+01  0.18306175064E+02  0.40726709984E+02  0.45045679903E+02  0.00000000000E+00 0. -1.
         11    1    3    3    0    0  0.84459880737E+00 -0.10309359170E+02 -0.20488004961E+02  0.22951134638E+02  0.51100000000E-03 0. -1.
        -11    1    3    3    0    0 -0.46809548496E+01 -0.78804840330E+01 -0.15573608648E+02  0.18070712589E+02  0.51100000000E-03 0.  1.
         12    1    3    3    0    0 -0.21077440836E+01 -0.11633186079E+00 -0.46650963755E+01  0.51204728704E+01  0.00000000000E+00 0. -1.
</event>
<event>
 7    1  0.5743890E-009  0.4614232E+02  0.7816164E-02  0.1320468E+00
        -11   -1    0    0    0    0  0.00000000000E+00  0.00000000000E+00  0.45593999997E+02  0.45594000000E+02  0.51100000000E-03 0. -1.
         11   -1    0    0    0    0 -0.00000000000E+00 -0.00000000000E+00 -0.45593999997E+02  0.45594000000E+02  0.51100000000E-03 0.  1.
    9900012    2    1    2    0    0 -0.67861217057E+01  0.13492791146E+01 -0.44511141118E+02  0.46142315572E+02  0.99999800373E+01 0.  0.
         12    1    1    2    0    0  0.67861217057E+01 -0.13492791146E+01  0.44511141118E+02  0.45045684428E+02  0.00000000000E+00 0. -1.
         11    1    3    3    0    0 -0.22902454364E+01  0.41012595183E+01 -0.21757900647E+02  0.22259195732E+02  0.51100000000E-03 0. -1.
        -11    1    3    3    0    0 -0.18476263148E+01  0.71489244319E+00 -0.26314605750E+01  0.32938395868E+01  0.51100000000E-03 0.  1.
         12    1    3    3    0    0 -0.26482499545E+01 -0.34668728470E+01 -0.20121779897E+02  0.20589280254E+02  0.00000000000E+00 0. -1.
</event>
<event>
 7    1  0.5743890E-009  0.4614232E+02  0.7816164E-02  0.1320468E+00
        -11   -1    0    0    0    0  0.00000000000E+00  0.00000000000E+00  0.45593999997E+02  0.45594000000E+02  0.51100000000E-03 0. -1.
         11   -1    0    0    0    0 -0.00000000000E+00 -0.00000000000E+00 -0.45593999997E+02  0.45594000000E+02  0.51100000000E-03 0.  1.
    9900012    2    1    2    0    0  0.16884534079E+01 -0.26390109924E+02 -0.36466755975E+02  0.46142322426E+02  0.10000042540E+02 0.  0.
         12    1    1    2    0    0 -0.16884534079E+01  0.26390109924E+02  0.36466755975E+02  0.45045677574E+02  0.00000000000E+00 0. -1.
         11    1    3    3    0    0  0.40758765789E+01 -0.15046657919E+02 -0.26038883355E+02  0.30348610034E+02  0.51100000000E-03 0.  1.
        -11    1    3    3    0    0 -0.18277876943E+01 -0.42793583662E+01 -0.52619228051E+01  0.70243539026E+01  0.51100000000E-03 0. -1.
        -12    1    3    3    0    0 -0.55963547662E+00 -0.70640936394E+01 -0.51659498157E+01  0.87693584892E+01  0.00000000000E+00 0.  1.
</event>
<event>
 7    1  0.5743890E-009  0.4614232E+02  0.7816164E-02  0.1320468E+00
        -11   -1    0    0    0    0  0.00000000000E+00  0.00000000000E+00  0.45593999997E+02  0.45594000000E+02  0.51100000000E-03 0. -1.
         11   -1    0    0    0    0 -0.00000000000E+00 -0.00000000000E+00 -0.45593999997E+02  0.45594000000E+02  0.51100000000E-03 0.  1.
    9900012    2    1    2    0    0  0.14443858960E+02  0.82812774679E+01  0.41855810514E+02  0.46142317721E+02  0.99999996361E+01 0.  0.
        -12    1    1    2    0    0 -0.14443858960E+02 -0.82812774679E+01 -0.41855810514E+02  0.45045682279E+02  0.00000000000E+00 0.  1.
         11    1    3    3    0    0  0.28282376287E+01 -0.85929575092E+00  0.10985515785E+02  0.11376241672E+02  0.51100000000E-03 0. -1.
        -11    1    3    3    0    0  0.11959791089E+02  0.72929742980E+01  0.28352814826E+02  0.31624455503E+02  0.51100000000E-03 0.  1.
        -12    1    3    3    0    0 -0.34416975717E+00  0.18475989207E+01  0.25174799032E+01  0.31416205463E+01  0.00000000000E+00 0.  1.
</event>
<event>
 7    1  0.5743890E-009  0.4614232E+02  0.7816164E-02  0.1320468E+00
        -11   -1    0    0    0    0  0.00000000000E+00  0.00000000000E+00  0.45593999997E+02  0.45594000000E+02  0.51100000000E-03 0.  1.
         11   -1    0    0    0    0 -0.00000000000E+00 -0.00000000000E+00 -0.45593999997E+02  0.45594000000E+02  0.51100000000E-03 0. -1.
    9900012    2    1    2    0    0 -0.15726626824E+02 -0.35602167564E+02  0.22677573759E+02  0.46142317875E+02  0.10000001036E+02 0.  0.
        -12    1    1    2    0    0  0.15726626824E+02  0.35602167564E+02 -0.22677573759E+02  0.45045682125E+02  0.00000000000E+00 0.  1.
         11    1    3    3    0    0 -0.39875880696E+01 -0.54541758890E+01  0.87768948543E+00  0.68131661021E+01  0.51100000000E-03 0. -1.
        -11    1    3    3    0    0 -0.10457684420E+02 -0.21667441442E+02  0.17383294691E+02  0.29681983031E+02  0.51100000000E-03 0.  1.
         12    1    3    3    0    0 -0.12813543345E+01 -0.84805502333E+01  0.44165895825E+01  0.96471687416E+01  0.00000000000E+00 0. -1.
</event>
<event>
 7    1  0.5743890E-009  0.4614232E+02  0.7816164E-02  0.1320468E+00
        -11   -1    0    0    0    0  0.00000000000E+00  0.00000000000E+00  0.45593999997E+02  0.45594000000E+02  0.51100000000E-03 0. -1.
         11   -1    0    0    0    0 -0.00000000000E+00 -0.00000000000E+00 -0.45593999997E+02  0.45594000000E+02  0.51100000000E-03 0.  1.
    9900012    2    1    2    0    0  0.13077307776E+02  0.68466563531E+00 -0.43100217611E+02  0.46142317589E+02  0.99999984322E+01 0.  0.
         12    1    1    2    0    0 -0.13077307776E+02 -0.68466563531E+00  0.43100217611E+02  0.45045682411E+02  0.00000000000E+00 0. -1.
         11    1    3    3    0    0 -0.79095644469E+00 -0.13528404243E+01 -0.31511905829E+01  0.35193453457E+01  0.51100000000E-03 0. -1.
        -11    1    3    3    0    0  0.45895698962E+01  0.30230356794E+01 -0.16191402605E+02  0.17098667057E+02  0.51100000000E-03 0.  1.
        -12    1    3    3    0    0  0.92786943246E+01 -0.98552961979E+00 -0.23757624424E+02  0.25524305186E+02  0.00000000000E+00 0.  1.
</event>
<event>
 7    1  0.5743890E-009  0.4614232E+02  0.7816164E-02  0.1320468E+00
        -11   -1    0    0    0    0  0.00000000000E+00  0.00000000000E+00  0.45593999997E+02  0.45594000000E+02  0.51100000000E-03 0. -1.
         11   -1    0    0    0    0 -0.00000000000E+00 -0.00000000000E+00 -0.45593999997E+02  0.45594000000E+02  0.51100000000E-03 0.  1.
    9900012    2    1    2    0    0  0.42497788632E+02  0.40500999161E+01 -0.14375260431E+02  0.46142318072E+02  0.10000002831E+02 0.  0.
         12    1    1    2    0    0 -0.42497788632E+02 -0.40500999161E+01  0.14375260431E+02  0.45045681928E+02  0.00000000000E+00 0. -1.
         11    1    3    3    0    0  0.14342497892E+01  0.42999707250E-01  0.10562420184E+01  0.17817319931E+01  0.51100000000E-03 0. -1.
        -11    1    3    3    0    0  0.40873039282E+02  0.35914465958E+01 -0.15566000812E+02  0.43883985807E+02  0.51100000000E-03 0.  1.
        -12    1    3    3    0    0  0.19049956122E+00  0.41565361312E+00  0.13449836345E+00  0.47660027139E+00  0.00000000000E+00 0.  1.
</event>
<event>
 7    1  0.5743890E-009  0.4614232E+02  0.7816164E-02  0.1320468E+00
        -11   -1    0    0    0    0  0.00000000000E+00  0.00000000000E+00  0.45593999997E+02  0.45594000000E+02  0.51100000000E-03 0. -1.
         11   -1    0    0    0    0 -0.00000000000E+00 -0.00000000000E+00 -0.45593999997E+02  0.45594000000E+02  0.51100000000E-03 0.  1.
    9900012    2    1    2    0    0  0.21937379600E+02 -0.15800140058E+02 -0.36030825676E+02  0.46142318204E+02  0.10000004039E+02 0.  0.
         12    1    1    2    0    0 -0.21937379600E+02  0.15800140058E+02  0.36030825676E+02  0.45045681796E+02  0.00000000000E+00 0. -1.
         11    1    3    3    0    0  0.56603662024E+01 -0.57036194154E+01 -0.81003966058E+01  0.11409971315E+02  0.51100000000E-03 0. -1.
        -11    1    3    3    0    0  0.51724147592E+01 -0.71580031326E+01 -0.15251347763E+02  0.17623691218E+02  0.51100000000E-03 0.  1.
         12    1    3    3    0    0  0.11104598639E+02 -0.29385175104E+01 -0.12679081307E+02  0.17108655671E+02  0.00000000000E+00 0. -1.
</event>
<event>
 7    1  0.5743890E-009  0.4614232E+02  0.7816164E-02  0.1320468E+00
        -11   -1    0    0    0    0  0.00000000000E+00  0.00000000000E+00  0.45593999997E+02  0.45594000000E+02  0.51100000000E-03 0. -1.
         11   -1    0    0    0    0 -0.00000000000E+00 -0.00000000000E+00 -0.45593999997E+02  0.45594000000E+02  0.51100000000E-03 0.  1.
    9900012    2    1    2    0    0  0.18285473280E+02  0.29145444970E+02 -0.29074008910E+02  0.46142317746E+02  0.99999998664E+01 0.  0.
         12    1    1    2    0    0 -0.18285473280E+02 -0.29145444970E+02  0.29074008910E+02  0.45045682254E+02  0.00000000000E+00 0. -1.
         11    1    3    3    0    0 -0.14206645666E+00 -0.32708090259E+00 -0.78238634774E+00  0.85982175664E+00  0.51100000000E-03 0. -1.
        -11    1    3    3    0    0  0.33646599392E+01  0.10913234149E+02 -0.82306912412E+01  0.14077069818E+02  0.51100000000E-03 0.  1.
        -12    1    3    3    0    0  0.15062879797E+02  0.18559291724E+02 -0.20060931321E+02  0.31205426171E+02  0.00000000000E+00 0.  1.
</event>
<event>
 7    1  0.5743890E-009  0.4614232E+02  0.7816164E-02  0.1320468E+00
        -11   -1    0    0    0    0  0.00000000000E+00  0.00000000000E+00  0.45593999997E+02  0.45594000000E+02  0.51100000000E-03 0. -1.
         11   -1    0    0    0    0 -0.00000000000E+00 -0.00000000000E+00 -0.45593999997E+02  0.45594000000E+02  0.51100000000E-03 0.  1.
    9900012    2    1    2    0    0  0.15994343101E+02  0.56050744329E+01  0.41735807658E+02  0.46142317505E+02  0.99999976629E+01 0.  0.
        -12    1    1    2    0    0 -0.15994343101E+02 -0.56050744329E+01 -0.41735807658E+02  0.45045682495E+02  0.00000000000E+00 0.  1.
         11    1    3    3    0    0  0.81842582591E+00  0.97011667085E+00  0.64546121514E+01  0.65782190199E+01  0.51100000000E-03 0. -1.
        -11    1    3    3    0    0 -0.10084123972E+01 -0.21896974761E-01  0.13690125757E+01  0.17004619178E+01  0.51100000000E-03 0.  1.
        -12    1    3    3    0    0  0.16184329672E+02  0.46568547368E+01  0.33912182930E+02  0.37863636567E+02  0.00000000000E+00 0.  1.
</event>
<event>
 7    1  0.5743890E-009  0.4614232E+02  0.7816164E-02  0.1320468E+00
        -11   -1    0    0    0    0  0.00000000000E+00  0.00000000000E+00  0.45593999997E+02  0.45594000000E+02  0.51100000000E-03 0. -1.
         11   -1    0    0    0    0 -0.00000000000E+00 -0.00000000000E+00 -0.45593999997E+02  0.45594000000E+02  0.51100000000E-03 0.  1.
    9900012    2    1    2    0    0 -0.16864139265E+02 -0.13249478906E+02 -0.39612694849E+02  0.46142317880E+02  0.10000001088E+02 0.  0.
         12    1    1    2    0    0  0.16864139265E+02  0.13249478906E+02  0.39612694849E+02  0.45045682120E+02  0.00000000000E+00 0. -1.
         11    1    3    3    0    0 -0.57667850774E+01 -0.83423372190E+01 -0.13220478953E+02  0.16662276688E+02  0.51100000000E-03 0. -1.
        -11    1    3    3    0    0 -0.87126713119E+01 -0.56768165122E+01 -0.23182831407E+02  0.25408277380E+02  0.51100000000E-03 0.  1.
        -12    1    3    3    0    0 -0.23846828754E+01  0.76967482476E+00 -0.32093844884E+01  0.40717638127E+01  0.00000000000E+00 0.  1.
</event>
<event>
 7    1  0.5743890E-009  0.4614232E+02  0.7816164E-02  0.1320468E+00
        -11   -1    0    0    0    0  0.00000000000E+00  0.00000000000E+00  0.45593999997E+02  0.45594000000E+02  0.51100000000E-03 0. -1.
         11   -1    0    0    0    0 -0.00000000000E+00 -0.00000000000E+00 -0.45593999997E+02  0.45594000000E+02  0.51100000000E-03 0.  1.
    9900012    2    1    2    0    0 -0.17986999070E+02 -0.66114288412E+01  0.40766044512E+02  0.46142317499E+02  0.99999976059E+01 0.  0.
        -12    1    1    2    0    0  0.17986999070E+02  0.66114288412E+01 -0.40766044512E+02  0.45045682501E+02  0.00000000000E+00 0.  1.
         11    1    3    3    0    0 -0.65407226577E+01 -0.34843242363E+01  0.12063466158E+02  0.14157993653E+02  0.51100000000E-03 0. -1.
        -11    1    3    3    0    0  0.64440186216E+00 -0.52230100011E+00  0.11684772509E+00  0.83767878489E+00  0.51100000000E-03 0.  1.
         12    1    3    3    0    0 -0.12090678274E+02 -0.26048036048E+01  0.28585730629E+02  0.31146645061E+02  0.00000000000E+00 0. -1.
</event>
<event>
 7    1  0.5743890E-009  0.4614232E+02  0.7816164E-02  0.1320468E+00
        -11   -1    0    0    0    0  0.00000000000E+00  0.00000000000E+00  0.45593999997E+02  0.45594000000E+02  0.51100000000E-03 0. -1.
         11   -1    0    0    0    0 -0.00000000000E+00 -0.00000000000E+00 -0.45593999997E+02  0.45594000000E+02  0.51100000000E-03 0.  1.
    9900012    2    1    2    0    0  0.17245925019E+02 -0.14330475178E+02 -0.39068261708E+02  0.46142317394E+02  0.99999966495E+01 0.  0.
         12    1    1    2    0    0 -0.17245925019E+02  0.14330475178E+02  0.39068261708E+02  0.45045682606E+02  0.00000000000E+00 0. -1.
         11    1    3    3    0    0  0.10285481839E+02 -0.76424668159E+01 -0.18270592975E+02  0.22316204955E+02  0.51100000000E-03 0. -1.
        -11    1    3    3    0    0  0.28118145294E+01 -0.69110470172E+01 -0.13809091753E+02  0.15695855730E+02  0.51100000000E-03 0.  1.
        -12    1    3    3    0    0  0.41486286502E+01  0.22303865534E+00 -0.69885769807E+01  0.81302567077E+01  0.00000000000E+00 0.  1.
</event>
<event>
 7    1  0.5743890E-009  0.4614232E+02  0.7816164E-02  0.1320468E+00
        -11   -1    0    0    0    0  0.00000000000E+00  0.00000000000E+00  0.45593999997E+02  0.45594000000E+02  0.51100000000E-03 0. -1.
         11   -1    0    0    0    0 -0.00000000000E+00 -0.00000000000E+00 -0.45593999997E+02  0.45594000000E+02  0.51100000000E-03 0.  1.
    9900012    2    1    2    0    0 -0.30818738710E+01  0.12457498218E+02 -0.43179002943E+02  0.46142317592E+02  0.99999984599E+01 0.  0.
         12    1    1    2    0    0  0.30818738710E+01 -0.12457498218E+02  0.43179002943E+02  0.45045682408E+02  0.00000000000E+00 0. -1.
         11    1    3    3    0    0  0.73450925250E+00 -0.63007908718E-02 -0.73329842118E+00  0.10379163635E+01  0.51100000000E-03 0. -1.
        -11    1    3    3    0    0 -0.54354991801E+01  0.81264158212E+01 -0.20994603318E+02  0.23159375081E+02  0.51100000000E-03 0.  1.
         12    1    3    3    0    0  0.16191160566E+01  0.43373831876E+01 -0.21451101204E+02  0.21945026147E+02  0.00000000000E+00 0. -1.
</event>
<event>
 7    1  0.5743890E-009  0.4614232E+02  0.7816164E-02  0.1320468E+00
        -11   -1    0    0    0    0  0.00000000000E+00  0.00000000000E+00  0.45593999997E+02  0.45594000000E+02  0.51100000000E-03 0. -1.
         11   -1    0    0    0    0 -0.00000000000E+00 -0.00000000000E+00 -0.45593999997E+02  0.45594000000E+02  0.51100000000E-03 0.  1.
    9900012    2    1    2    0    0  0.35752424604E+02  0.23992764184E+02 -0.13237251619E+02  0.46142318423E+02  0.10000006038E+02 0.  0.
         12    1    1    2    0    0 -0.35752424604E+02 -0.23992764184E+02  0.13237251619E+02  0.45045681577E+02  0.00000000000E+00 0. -1.
         11    1    3    3    0    0  0.11962130329E+02  0.10544248362E+02 -0.27458009443E+01  0.16180641477E+02  0.51100000000E-03 0. -1.
        -11    1    3    3    0    0  0.89938892226E+01  0.23623327720E+01 -0.15611899492E+01  0.94291024914E+01  0.51100000000E-03 0.  1.
        -12    1    3    3    0    0  0.14796405053E+02  0.11086183050E+02 -0.89302607257E+01  0.20532574455E+02  0.00000000000E+00 0.  1.
</event>
<event>
 7    1  0.5743890E-009  0.4614232E+02  0.7816164E-02  0.1320468E+00
        -11   -1    0    0    0    0  0.00000000000E+00  0.00000000000E+00  0.45593999997E+02  0.45594000000E+02  0.51100000000E-03 0. -1.
         11   -1    0    0    0    0 -0.00000000000E+00 -0.00000000000E+00 -0.45593999997E+02  0.45594000000E+02  0.51100000000E-03 0.  1.
    9900012    2    1    2    0    0  0.35844460475E+01  0.25904518869E+02 -0.36677255723E+02  0.46142318313E+02  0.10000005033E+02 0.  0.
         12    1    1    2    0    0 -0.35844460475E+01 -0.25904518869E+02  0.36677255723E+02  0.45045681687E+02  0.00000000000E+00 0. -1.
         11    1    3    3    0    0 -0.11153590209E+01  0.50708515633E+01 -0.12598013005E+02  0.13625985955E+02  0.51100000000E-03 0. -1.
        -11    1    3    3    0    0  0.52137135479E+00  0.53733536377E+00 -0.58411890540E-03  0.74870420399E+00  0.51100000000E-03 0.  1.
        -12    1    3    3    0    0  0.41784337136E+01  0.20296331942E+02 -0.24078658599E+02  0.31767628154E+02  0.00000000000E+00 0.  1.
</event>
<event>
 7    1  0.5743890E-009  0.4614232E+02  0.7816164E-02  0.1320468E+00
        -11   -1    0    0    0    0  0.00000000000E+00  0.00000000000E+00  0.45593999997E+02  0.45594000000E+02  0.51100000000E-03 0. -1.
         11   -1    0    0    0    0 -0.00000000000E+00 -0.00000000000E+00 -0.45593999997E+02  0.45594000000E+02  0.51100000000E-03 0.  1.
    9900012    2    1    2    0    0  0.36790993829E-01 -0.23798370697E+01 -0.44982760156E+02  0.46142315531E+02  0.99999796626E+01 0.  0.
         12    1    1    2    0    0 -0.36790993829E-01  0.23798370697E+01  0.44982760156E+02  0.45045684469E+02  0.00000000000E+00 0. -1.
         11    1    3    3    0    0 -0.55993204993E+00 -0.33651526544E+01 -0.12235682213E+02  0.12702350010E+02  0.51100000000E-03 0. -1.
        -11    1    3    3    0    0  0.25697957083E+01 -0.34798683823E+00 -0.28089284448E+02  0.28208737049E+02  0.51100000000E-03 0.  1.
         12    1    3    3    0    0 -0.19730726645E+01  0.13333024229E+01 -0.46577934944E+01  0.52312284721E+01  0.00000000000E+00 0. -1.
</event>
<event>
 7    1  0.5743890E-009  0.4614232E+02  0.7816164E-02  0.1320468E+00
        -11   -1    0    0    0    0  0.00000000000E+00  0.00000000000E+00  0.45593999997E+02  0.45594000000E+02  0.51100000000E-03 0. -1.
         11   -1    0    0    0    0 -0.00000000000E+00 -0.00000000000E+00 -0.45593999997E+02  0.45594000000E+02  0.51100000000E-03 0.  1.
    9900012    2    1    2    0    0  0.20573606649E+01 -0.43565753033E+02  0.11265251769E+02  0.46142317991E+02  0.10000002098E+02 0.  0.
        -12    1    1    2    0    0 -0.20573606649E+01  0.43565753033E+02 -0.11265251769E+02  0.45045682009E+02  0.00000000000E+00 0.  1.
         11    1    3    3    0    0  0.13343372352E+01 -0.50816528016E+01  0.11704169341E+01  0.53827063002E+01  0.51100000000E-03 0. -1.
        -11    1    3    3    0    0  0.16272304837E+01 -0.29780042111E+02  0.11366058068E+02  0.31916861742E+02  0.51100000000E-03 0.  1.
        -12    1    3    3    0    0 -0.90420705397E+00 -0.87040581199E+01 -0.12712232332E+01  0.88427499490E+01  0.00000000000E+00 0.  1.
</event>
<event>
 7    1  0.5743890E-009  0.4614231E+02  0.7816164E-02  0.1320468E+00
        -11   -1    0    0    0    0  0.00000000000E+00  0.00000000000E+00  0.45593999997E+02  0.45594000000E+02  0.51100000000E-03 0. -1.
         11   -1    0    0    0    0 -0.00000000000E+00 -0.00000000000E+00 -0.45593999997E+02  0.45594000000E+02  0.51100000000E-03 0.  1.
    9900012    2    1    2    0    0 -0.24693368705E+02 -0.36887908136E+02 -0.76572542274E+01  0.46142314668E+02  0.99999717973E+01 0.  0.
         12    1    1    2    0    0  0.24693368705E+02  0.36887908136E+02  0.76572542274E+01  0.45045685332E+02  0.00000000000E+00 0. -1.
         11    1    3    3    0    0 -0.99073422460E+01 -0.12339208458E+02 -0.13495617572E+01  0.15881839092E+02  0.51100000000E-03 0. -1.
        -11    1    3    3    0    0 -0.12822019959E+02 -0.22156760624E+02 -0.78857948065E+01  0.26786414414E+02  0.51100000000E-03 0.  1.
         12    1    3    3    0    0 -0.19640065007E+01 -0.23919390545E+01  0.15781023363E+01  0.34740611622E+01  0.00000000000E+00 0. -1.
</event>
<event>
 7    1  0.5743890E-009  0.4614232E+02  0.7816164E-02  0.1320468E+00
        -11   -1    0    0    0    0  0.00000000000E+00  0.00000000000E+00  0.45593999997E+02  0.45594000000E+02  0.51100000000E-03 0. -1.
         11   -1    0    0    0    0 -0.00000000000E+00 -0.00000000000E+00 -0.45593999997E+02  0.45594000000E+02  0.51100000000E-03 0.  1.
    9900012    2    1    2    0    0  0.32781776488E+02  0.24860957443E+02 -0.18341250451E+02  0.46142317157E+02  0.99999944887E+01 0.  0.
         12    1    1    2    0    0 -0.32781776488E+02 -0.24860957443E+02  0.18341250451E+02  0.45045682843E+02  0.00000000000E+00 0. -1.
         11    1    3    3    0    0  0.96823034286E+00  0.28595008128E+01  0.15387546474E+00  0.30228947741E+01  0.51100000000E-03 0. -1.
        -11    1    3    3    0    0  0.39304753906E+01  0.10503497806E+01 -0.17045125724E+01  0.44110355733E+01  0.51100000000E-03 0.  1.
        -12    1    3    3    0    0  0.27883070755E+02  0.20951106850E+02 -0.16790613343E+02  0.38708386809E+02  0.00000000000E+00 0.  1.
</event>
<event>
 7    1  0.5743890E-009  0.4614232E+02  0.7816164E-02  0.1320468E+00
        -11   -1    0    0    0    0  0.00000000000E+00  0.00000000000E+00  0.45593999997E+02  0.45594000000E+02  0.51100000000E-03 0. -1.
         11   -1    0    0    0    0 -0.00000000000E+00 -0.00000000000E+00 -0.45593999997E+02  0.45594000000E+02  0.51100000000E-03 0.  1.
    9900012    2    1    2    0    0  0.15351454872E+02  0.38560105116E+01 -0.42173185069E+02  0.46142317381E+02  0.99999965295E+01 0.  0.
         12    1    1    2    0    0 -0.15351454872E+02 -0.38560105116E+01  0.42173185069E+02  0.45045682619E+02  0.00000000000E+00 0. -1.
         11    1    3    3    0    0  0.63478279649E+01  0.34409567973E+01 -0.11232254638E+02  0.13352851683E+02  0.51100000000E-03 0. -1.
        -11    1    3    3    0    0  0.92238382816E+01 -0.38541077100E+00 -0.30463814204E+02  0.31831929100E+02  0.51100000000E-03 0.  1.
        -12    1    3    3    0    0 -0.22021137460E+00  0.80046448524E+00 -0.47711622806E+00  0.95753659811E+00  0.00000000000E+00 0.  1.
</event>
<event>
 7    1  0.5743890E-009  0.4614232E+02  0.7816164E-02  0.1320468E+00
        -11   -1    0    0    0    0  0.00000000000E+00  0.00000000000E+00  0.45593999997E+02  0.45594000000E+02  0.51100000000E-03 0. -1.
         11   -1    0    0    0    0 -0.00000000000E+00 -0.00000000000E+00 -0.45593999997E+02  0.45594000000E+02  0.51100000000E-03 0.  1.
    9900012    2    1    2    0    0 -0.95753943383E+01 -0.18402172827E+02  0.39984807760E+02  0.46142323259E+02  0.10000050135E+02 0.  0.
        -12    1    1    2    0    0  0.95753943383E+01  0.18402172827E+02 -0.39984807760E+02  0.45045676741E+02  0.00000000000E+00 0.  1.
         11    1    3    3    0    0 -0.61787910114E+01 -0.77770389595E+01  0.27555462054E+02  0.29291010269E+02  0.51100000000E-03 0. -1.
        -11    1    3    3    0    0 -0.35033288426E+01 -0.84537365590E+01  0.93598693810E+01  0.13089924747E+02  0.51100000000E-03 0.  1.
         12    1    3    3    0    0  0.10672551572E+00 -0.21713973081E+01  0.30694763248E+01  0.37613882429E+01  0.00000000000E+00 0. -1.
</event>
<event>
 7    1  0.5743890E-009  0.4614232E+02  0.7816164E-02  0.1320468E+00
        -11   -1    0    0    0    0  0.00000000000E+00  0.00000000000E+00  0.45593999997E+02  0.45594000000E+02  0.51100000000E-03 0. -1.
         11   -1    0    0    0    0 -0.00000000000E+00 -0.00000000000E+00 -0.45593999997E+02  0.45594000000E+02  0.51100000000E-03 0.  1.
    9900012    2    1    2    0    0  0.32658560317E+02  0.15104397556E+02 -0.27099616732E+02  0.46142316361E+02  0.99999872312E+01 0.  0.
         12    1    1    2    0    0 -0.32658560317E+02 -0.15104397556E+02  0.27099616732E+02  0.45045683639E+02  0.00000000000E+00 0. -1.
         11    1    3    3    0    0  0.15014625255E+01  0.22569179428E+00  0.68498042482E+00  0.16656905309E+01  0.51100000000E-03 0. -1.
        -11    1    3    3    0    0  0.13276785819E+02  0.43484952139E+01 -0.11670220869E+02  0.18203749825E+02  0.51100000000E-03 0.  1.
        -12    1    3    3    0    0  0.17880311973E+02  0.10530210548E+02 -0.16114376288E+02  0.26272876005E+02  0.00000000000E+00 0.  1.
</event>
<event>
 7    1  0.5743890E-009  0.4614232E+02  0.7816164E-02  0.1320468E+00
        -11   -1    0    0    0    0  0.00000000000E+00  0.00000000000E+00  0.45593999997E+02  0.45594000000E+02  0.51100000000E-03 0. -1.
         11   -1    0    0    0    0 -0.00000000000E+00 -0.00000000000E+00 -0.45593999997E+02  0.45594000000E+02  0.51100000000E-03 0.  1.
    9900012    2    1    2    0    0  0.11083941657E+02 -0.15466818549E+02 -0.40829366866E+02  0.46142318327E+02  0.10000005161E+02 0.  0.
         12    1    1    2    0    0 -0.11083941657E+02  0.15466818549E+02  0.40829366866E+02  0.45045681673E+02  0.00000000000E+00 0. -1.
         11    1    3    3    0    0  0.33251161105E+01 -0.18204633488E+01 -0.38059052809E+01  0.53717221839E+01  0.51100000000E-03 0. -1.
        -11    1    3    3    0    0  0.69768031014E+01 -0.68947101577E+01 -0.17022544283E+02  0.19646369227E+02  0.51100000000E-03 0.  1.
        -12    1    3    3    0    0  0.78202244558E+00 -0.67516450425E+01 -0.20000917302E+02  0.21124226916E+02  0.00000000000E+00 0.  1.
</event>
<event>
 7    1  0.5743890E-009  0.4614232E+02  0.7816164E-02  0.1320468E+00
        -11   -1    0    0    0    0  0.00000000000E+00  0.00000000000E+00  0.45593999997E+02  0.45594000000E+02  0.51100000000E-03 0. -1.
         11   -1    0    0    0    0 -0.00000000000E+00 -0.00000000000E+00 -0.45593999997E+02  0.45594000000E+02  0.51100000000E-03 0.  1.
    9900012    2    1    2    0    0 -0.39891742148E+01  0.19150818165E+02 -0.40576422796E+02  0.46142318362E+02  0.10000005483E+02 0.  0.
         12    1    1    2    0    0  0.39891742148E+01 -0.19150818165E+02  0.40576422796E+02  0.45045681638E+02  0.00000000000E+00 0. -1.
         11    1    3    3    0    0 -0.26896361135E+01  0.11213929626E+02 -0.14044809355E+02  0.18172590078E+02  0.51100000000E-03 0. -1.
        -11    1    3    3    0    0 -0.16017742746E+01  0.75319221147E+01 -0.20199392450E+02  0.21617376972E+02  0.51100000000E-03 0.  1.
        -12    1    3    3    0    0  0.30223617326E+00  0.40496642474E+00 -0.63322209910E+01  0.63523513118E+01  0.00000000000E+00 0.  1.
</event>
<event>
 7    1  0.5743890E-009  0.4614232E+02  0.7816164E-02  0.1320468E+00
        -11   -1    0    0    0    0  0.00000000000E+00  0.00000000000E+00  0.45593999997E+02  0.45594000000E+02  0.51100000000E-03 0. -1.
         11   -1    0    0    0    0 -0.00000000000E+00 -0.00000000000E+00 -0.45593999997E+02  0.45594000000E+02  0.51100000000E-03 0.  1.
    9900012    2    1    2    0    0  0.16408151786E+02 -0.30420369359E+01 -0.41840555084E+02  0.46142317815E+02  0.10000000493E+02 0.  0.
         12    1    1    2    0    0 -0.16408151786E+02  0.30420369359E+01  0.41840555084E+02  0.45045682185E+02  0.00000000000E+00 0. -1.
         11    1    3    3    0    0  0.27822569587E+01  0.28060077570E+01 -0.86582193118E+01  0.95173208010E+01  0.51100000000E-03 0. -1.
        -11    1    3    3    0    0  0.78534323198E+01 -0.91151250020E+00 -0.17105458033E+02  0.18844202000E+02  0.51100000000E-03 0.  1.
         12    1    3    3    0    0  0.57724625074E+01 -0.49365321927E+01 -0.16076877740E+02  0.17780795014E+02  0.00000000000E+00 0. -1.
</event>
<event>
 7    1  0.5743890E-009  0.4614232E+02  0.7816164E-02  0.1320468E+00
        -11   -1    0    0    0    0  0.00000000000E+00  0.00000000000E+00  0.45593999997E+02  0.45594000000E+02  0.51100000000E-03 0. -1.
         11   -1    0    0    0    0 -0.00000000000E+00 -0.00000000000E+00 -0.45593999997E+02  0.45594000000E+02  0.51100000000E-03 0.  1.
    9900012    2    1    2    0    0 -0.25290381802E+02  0.25710401068E+02  0.26990469357E+02  0.46142316845E+02  0.99999916474E+01 0.  0.
        -12    1    1    2    0    0  0.25290381802E+02 -0.25710401068E+02 -0.26990469357E+02  0.45045683155E+02  0.00000000000E+00 0.  1.
         11    1    3    3    0    0 -0.84902367731E+01  0.11539840885E+02  0.13784186970E+02  0.19881042699E+02  0.51100000000E-03 0. -1.
        -11    1    3    3    0    0 -0.26681610956E+01  0.53431596361E+01  0.43739461334E+01  0.74026916435E+01  0.51100000000E-03 0.  1.
         12    1    3    3    0    0 -0.14131983933E+02  0.88274005465E+01  0.88323362535E+01  0.18858582502E+02  0.00000000000E+00 0. -1.
</event>
<event>
 7    1  0.5743890E-009  0.4614232E+02  0.7816164E-02  0.1320468E+00
        -11   -1    0    0    0    0  0.00000000000E+00  0.00000000000E+00  0.45593999997E+02  0.45594000000E+02  0.51100000000E-03 0. -1.
         11   -1    0    0    0    0 -0.00000000000E+00 -0.00000000000E+00 -0.45593999997E+02  0.45594000000E+02  0.51100000000E-03 0.  1.
    9900012    2    1    2    0    0  0.14265689748E+02  0.20512140112E+02 -0.37481405802E+02  0.46142316779E+02  0.99999910416E+01 0.  0.
         12    1    1    2    0    0 -0.14265689748E+02 -0.20512140112E+02  0.37481405802E+02  0.45045683221E+02  0.00000000000E+00 0. -1.
         11    1    3    3    0    0  0.25850460987E+01  0.12200519658E+01 -0.65705494480E+01  0.71654106959E+01  0.51100000000E-03 0.  1.
        -11    1    3    3    0    0  0.12616605242E+02  0.17236637104E+02 -0.29004401077E+02  0.36021322416E+02  0.51100000000E-03 0. -1.
         12    1    3    3    0    0 -0.93596159231E+00  0.20554510418E+01 -0.19064552770E+01  0.29555836667E+01  0.00000000000E+00 0. -1.
</event>
<event>
 7    1  0.5743890E-009  0.4614232E+02  0.7816164E-02  0.1320468E+00
        -11   -1    0    0    0    0  0.00000000000E+00  0.00000000000E+00  0.45593999997E+02  0.45594000000E+02  0.51100000000E-03 0. -1.
         11   -1    0    0    0    0 -0.00000000000E+00 -0.00000000000E+00 -0.45593999997E+02  0.45594000000E+02  0.51100000000E-03 0.  1.
    9900012    2    1    2    0    0  0.16132119346E+02 -0.39352946014E+01 -0.41873401258E+02  0.46142317065E+02  0.99999936479E+01 0.  0.
         12    1    1    2    0    0 -0.16132119346E+02  0.39352946014E+01  0.41873401258E+02  0.45045682935E+02  0.00000000000E+00 0. -1.
         11    1    3    3    0    0  0.84832870761E+00  0.81778406199E+00 -0.74969523853E+01  0.75889872642E+01  0.51100000000E-03 0. -1.
        -11    1    3    3    0    0  0.94582757951E+01 -0.32552203832E+01 -0.28245862394E+02  0.29964715640E+02  0.51100000000E-03 0.  1.
        -12    1    3    3    0    0  0.58255148432E+01 -0.14978582803E+01 -0.61305864795E+01  0.85886141605E+01  0.00000000000E+00 0.  1.
</event>
<event>
 7    1  0.5743890E-009  0.4614233E+02  0.7816164E-02  0.1320468E+00
        -11   -1    0    0    0    0  0.00000000000E+00  0.00000000000E+00  0.45593999997E+02  0.45594000000E+02  0.51100000000E-03 0.  1.
         11   -1    0    0    0    0 -0.00000000000E+00 -0.00000000000E+00 -0.45593999997E+02  0.45594000000E+02  0.51100000000E-03 0. -1.
    9900012    2    1    2    0    0 -0.16011542434E+02 -0.41591355841E+02 -0.65499926359E+01  0.46142325675E+02  0.10000072169E+02 0.  0.
         12    1    1    2    0    0  0.16011542434E+02  0.41591355841E+02  0.65499926359E+01  0.45045674325E+02  0.00000000000E+00 0. -1.
         11    1    3    3    0    0  0.47579049798E+00 -0.15720989387E+01 -0.83595771497E+00  0.18430130855E+01  0.51100000000E-03 0. -1.
        -11    1    3    3    0    0 -0.99431615133E+01 -0.15244101005E+02 -0.87312111308E+00  0.18221180452E+02  0.51100000000E-03 0.  1.
        -12    1    3    3    0    0 -0.65441714185E+01 -0.24775155898E+02 -0.48409138079E+01  0.26078132138E+02  0.00000000000E+00 0.  1.
</event>
<event>
 7    1  0.5743890E-009  0.4614232E+02  0.7816164E-02  0.1320468E+00
        -11   -1    0    0    0    0  0.00000000000E+00  0.00000000000E+00  0.45593999997E+02  0.45594000000E+02  0.51100000000E-03 0. -1.
         11   -1    0    0    0    0 -0.00000000000E+00 -0.00000000000E+00 -0.45593999997E+02  0.45594000000E+02  0.51100000000E-03 0.  1.
    9900012    2    1    2    0    0  0.32966003805E+02 -0.13832153788E+02 -0.27404882606E+02  0.46142317899E+02  0.10000001256E+02 0.  0.
         12    1    1    2    0    0 -0.32966003805E+02  0.13832153788E+02  0.27404882606E+02  0.45045682101E+02  0.00000000000E+00 0. -1.
         11    1    3    3    0    0  0.51102667799E+01 -0.17701463417E+01 -0.53247376737E+01  0.75895372842E+01  0.51100000000E-03 0. -1.
        -11    1    3    3    0    0  0.21620464008E+02 -0.50435132155E+01 -0.16046396381E+02  0.27392851742E+02  0.51100000000E-03 0.  1.
         12    1    3    3    0    0  0.62352730180E+01 -0.70184942308E+01 -0.60337485507E+01  0.11159928873E+02  0.00000000000E+00 0. -1.
</event>
<event>
 7    1  0.5743890E-009  0.4614232E+02  0.7816164E-02  0.1320468E+00
        -11   -1    0    0    0    0  0.00000000000E+00  0.00000000000E+00  0.45593999997E+02  0.45594000000E+02  0.51100000000E-03 0. -1.
         11   -1    0    0    0    0 -0.00000000000E+00 -0.00000000000E+00 -0.45593999997E+02  0.45594000000E+02  0.51100000000E-03 0.  1.
    9900012    2    1    2    0    0 -0.80026027089E+01  0.32281046934E+02 -0.30381011131E+02  0.46142317869E+02  0.10000000986E+02 0.  0.
         12    1    1    2    0    0  0.80026027089E+01 -0.32281046934E+02  0.30381011131E+02  0.45045682131E+02  0.00000000000E+00 0. -1.
         11    1    3    3    0    0  0.14408060960E+01  0.33044713454E+01 -0.52428975481E+01  0.63626588813E+01  0.51100000000E-03 0. -1.
        -11    1    3    3    0    0  0.37973838579E-01  0.28675728750E+01 -0.11926405767E+01  0.31059311023E+01  0.51100000000E-03 0.  1.
        -12    1    3    3    0    0 -0.94813826435E+01  0.26109002714E+02 -0.23945473006E+02  0.36673727886E+02  0.00000000000E+00 0.  1.
</event>
<event>
 7    1  0.5743890E-009  0.4614232E+02  0.7816164E-02  0.1320468E+00
        -11   -1    0    0    0    0  0.00000000000E+00  0.00000000000E+00  0.45593999997E+02  0.45594000000E+02  0.51100000000E-03 0. -1.
         11   -1    0    0    0    0 -0.00000000000E+00 -0.00000000000E+00 -0.45593999997E+02  0.45594000000E+02  0.51100000000E-03 0.  1.
    9900012    2    1    2    0    0 -0.95816125841E+01  0.19568361935E+02  0.39425693470E+02  0.46142318807E+02  0.10000009540E+02 0.  0.
        -12    1    1    2    0    0  0.95816125841E+01 -0.19568361935E+02 -0.39425693470E+02  0.45045681193E+02  0.00000000000E+00 0.  1.
         11    1    3    3    0    0 -0.74614080028E+00  0.90716672528E+01  0.13601821968E+02  0.16366472863E+02  0.51100000000E-03 0. -1.
        -11    1    3    3    0    0 -0.29446865010E+01  0.14600567502E+01  0.26777305697E+01  0.42394793983E+01  0.51100000000E-03 0.  1.
         12    1    3    3    0    0 -0.58907852828E+01  0.90366379317E+01  0.23146140932E+02  0.25536366547E+02  0.00000000000E+00 0. -1.
</event>
<event>
 7    1  0.5743890E-009  0.4614232E+02  0.7816164E-02  0.1320468E+00
        -11   -1    0    0    0    0  0.00000000000E+00  0.00000000000E+00  0.45593999997E+02  0.45594000000E+02  0.51100000000E-03 0. -1.
         11   -1    0    0    0    0 -0.00000000000E+00 -0.00000000000E+00 -0.45593999997E+02  0.45594000000E+02  0.51100000000E-03 0.  1.
    9900012    2    1    2    0    0 -0.18152941847E+02 -0.67095984011E+01 -0.40676348326E+02  0.46142319613E+02  0.10000016886E+02 0.  0.
         12    1    1    2    0    0  0.18152941847E+02  0.67095984011E+01  0.40676348326E+02  0.45045680387E+02  0.00000000000E+00 0. -1.
         11    1    3    3    0    0 -0.37009586943E+01  0.11145725957E+01 -0.36136128216E+01  0.52912725514E+01  0.51100000000E-03 0. -1.
        -11    1    3    3    0    0 -0.37023352360E+01  0.20694923448E+00 -0.67584515747E+01  0.77088768400E+01  0.51100000000E-03 0.  1.
         12    1    3    3    0    0 -0.10749647916E+02 -0.80311202312E+01 -0.30304283930E+02  0.33142170221E+02  0.00000000000E+00 0. -1.
</event>
<event>
 7    1  0.5743890E-009  0.4614232E+02  0.7816164E-02  0.1320468E+00
        -11   -1    0    0    0    0  0.00000000000E+00  0.00000000000E+00  0.45593999997E+02  0.45594000000E+02  0.51100000000E-03 0. -1.
         11   -1    0    0    0    0 -0.00000000000E+00 -0.00000000000E+00 -0.45593999997E+02  0.45594000000E+02  0.51100000000E-03 0.  1.
    9900012    2    1    2    0    0 -0.27175998374E+02  0.24050352059E+01 -0.35844029096E+02  0.46142317589E+02  0.99999984349E+01 0.  0.
         12    1    1    2    0    0  0.27175998374E+02 -0.24050352059E+01  0.35844029096E+02  0.45045682411E+02  0.00000000000E+00 0. -1.
         11    1    3    3    0    0 -0.18661078527E+01  0.22430367807E-01  0.11058433366E+00  0.18695161929E+01  0.51100000000E-03 0. -1.
        -11    1    3    3    0    0 -0.23510197974E+02  0.33466171058E+01 -0.32354244157E+02  0.40133855659E+02  0.51100000000E-03 0.  1.
        -12    1    3    3    0    0 -0.17996925479E+01 -0.96401226776E+00 -0.36003692725E+01  0.41389457374E+01  0.00000000000E+00 0.  1.
</event>
<event>
 7    1  0.5743890E-009  0.4614232E+02  0.7816164E-02  0.1320468E+00
        -11   -1    0    0    0    0  0.00000000000E+00  0.00000000000E+00  0.45593999997E+02  0.45594000000E+02  0.51100000000E-03 0. -1.
         11   -1    0    0    0    0 -0.00000000000E+00 -0.00000000000E+00 -0.45593999997E+02  0.45594000000E+02  0.51100000000E-03 0.  1.
    9900012    2    1    2    0    0 -0.17518846499E+02 -0.29544508654E+02 -0.29143188515E+02  0.46142318619E+02  0.10000007820E+02 0.  0.
         12    1    1    2    0    0  0.17518846499E+02  0.29544508654E+02  0.29143188515E+02  0.45045681381E+02  0.00000000000E+00 0. -1.
         11    1    3    3    0    0 -0.45399650720E+01 -0.74651546584E+01 -0.10699984632E+02  0.13814104687E+02  0.51100000000E-03 0. -1.
        -11    1    3    3    0    0 -0.13237149400E+02 -0.21216516734E+02 -0.18873498216E+02  0.31330043756E+02  0.51100000000E-03 0.  1.
         12    1    3    3    0    0  0.25826797269E+00 -0.86283726179E+00  0.43029433308E+00  0.99817017544E+00  0.00000000000E+00 0. -1.
</event>
<event>
 7    1  0.5743890E-009  0.4614232E+02  0.7816164E-02  0.1320468E+00
        -11   -1    0    0    0    0  0.00000000000E+00  0.00000000000E+00  0.45593999997E+02  0.45594000000E+02  0.51100000000E-03 0. -1.
         11   -1    0    0    0    0 -0.00000000000E+00 -0.00000000000E+00 -0.45593999997E+02  0.45594000000E+02  0.51100000000E-03 0.  1.
    9900012    2    1    2    0    0  0.12644899259E+02  0.10155505154E+02  0.42024822834E+02  0.46142317671E+02  0.99999991802E+01 0.  0.
        -12    1    1    2    0    0 -0.12644899259E+02 -0.10155505154E+02 -0.42024822834E+02  0.45045682329E+02  0.00000000000E+00 0.  1.
         11    1    3    3    0    0  0.36693236729E+01  0.18189356399E+01  0.40072268548E+01  0.57297757727E+01  0.51100000000E-03 0. -1.
        -11    1    3    3    0    0  0.60239152865E+01  0.51472362265E+01  0.32143930549E+02  0.33106100156E+02  0.51100000000E-03 0.  1.
        -12    1    3    3    0    0  0.29516602994E+01  0.31893332878E+01  0.58736654307E+01  0.73064417425E+01  0.00000000000E+00 0.  1.
</event>
<event>
 7    1  0.5743890E-009  0.4614232E+02  0.7816164E-02  0.1320468E+00
        -11   -1    0    0    0    0  0.00000000000E+00  0.00000000000E+00  0.45593999997E+02  0.45594000000E+02  0.51100000000E-03 0. -1.
         11   -1    0    0    0    0 -0.00000000000E+00 -0.00000000000E+00 -0.45593999997E+02  0.45594000000E+02  0.51100000000E-03 0.  1.
    9900012    2    1    2    0    0  0.20598066784E+02 -0.38529067290E+02  0.10970147489E+02  0.46142317438E+02  0.99999970563E+01 0.  0.
        -12    1    1    2    0    0 -0.20598066784E+02  0.38529067290E+02 -0.10970147489E+02  0.45045682562E+02  0.00000000000E+00 0.  1.
         11    1    3    3    0    0  0.11938820167E+02 -0.23156954010E+02  0.97446456394E+01  0.27816147557E+02  0.51100000000E-03 0. -1.
        -11    1    3    3    0    0  0.69558776168E+01 -0.13599264306E+02  0.26224938978E+01  0.15498441779E+02  0.51100000000E-03 0.  1.
        -12    1    3    3    0    0  0.17033690000E+01 -0.17728489741E+01 -0.13969920480E+01  0.28277281017E+01  0.00000000000E+00 0.  1.
</event>
<event>
 7    1  0.5743890E-009  0.4614232E+02  0.7816164E-02  0.1320468E+00
        -11   -1    0    0    0    0  0.00000000000E+00  0.00000000000E+00  0.45593999997E+02  0.45594000000E+02  0.51100000000E-03 0. -1.
         11   -1    0    0    0    0 -0.00000000000E+00 -0.00000000000E+00 -0.45593999997E+02  0.45594000000E+02  0.51100000000E-03 0.  1.
    9900012    2    1    2    0    0 -0.76873694988E+01  0.25427540312E+02 -0.36379363537E+02  0.46142317105E+02  0.99999940142E+01 0.  0.
         12    1    1    2    0    0  0.76873694988E+01 -0.25427540312E+02  0.36379363537E+02  0.45045682895E+02  0.00000000000E+00 0. -1.
         11    1    3    3    0    0 -0.10280094953E+01 -0.44593966444E-01 -0.30817511154E+01  0.32489971288E+01  0.51100000000E-03 0.  1.
        -11    1    3    3    0    0 -0.26617710451E+01  0.59091077771E+01 -0.12390582525E+02  0.13983172580E+02  0.51100000000E-03 0. -1.
        -12    1    3    3    0    0 -0.39975889584E+01  0.19563026501E+02 -0.20907029896E+02  0.28910147396E+02  0.00000000000E+00 0.  1.
</event>
<event>
 7    1  0.5743890E-009  0.4614232E+02  0.7816164E-02  0.1320468E+00
        -11   -1    0    0    0    0  0.00000000000E+00  0.00000000000E+00  0.45593999997E+02  0.45594000000E+02  0.51100000000E-03 0.  1.
         11   -1    0    0    0    0 -0.00000000000E+00 -0.00000000000E+00 -0.45593999997E+02  0.45594000000E+02  0.51100000000E-03 0. -1.
    9900012    2    1    2    0    0  0.35558266546E+02  0.26983309729E+02  0.60517913731E+01  0.46142317604E+02  0.99999985679E+01 0.  0.
         12    1    1    2    0    0 -0.35558266546E+02 -0.26983309729E+02 -0.60517913731E+01  0.45045682396E+02  0.00000000000E+00 0. -1.
         11    1    3    3    0    0  0.65215960610E+01  0.30213556965E+01  0.95266927088E+00  0.72503368493E+01  0.51100000000E-03 0.  1.
        -11    1    3    3    0    0  0.13810991782E+02  0.15954024502E+02  0.59917613503E+00  0.21110030888E+02  0.51100000000E-03 0. -1.
         12    1    3    3    0    0  0.15225678703E+02  0.80079295306E+01  0.44999459672E+01  0.17781949866E+02  0.00000000000E+00 0. -1.
</event>
<event>
 7    1  0.5743890E-009  0.4614232E+02  0.7816164E-02  0.1320468E+00
        -11   -1    0    0    0    0  0.00000000000E+00  0.00000000000E+00  0.45593999997E+02  0.45594000000E+02  0.51100000000E-03 0.  1.
         11   -1    0    0    0    0 -0.00000000000E+00 -0.00000000000E+00 -0.45593999997E+02  0.45594000000E+02  0.51100000000E-03 0. -1.
    9900012    2    1    2    0    0 -0.19803501617E+02 -0.26318006625E+02 -0.30729421780E+02  0.46142317500E+02  0.99999976163E+01 0.  0.
         12    1    1    2    0    0  0.19803501617E+02  0.26318006625E+02  0.30729421780E+02  0.45045682500E+02  0.00000000000E+00 0. -1.
         11    1    3    3    0    0 -0.15775267442E+02 -0.17261549942E+02 -0.26049844862E+02  0.35005922169E+02  0.51100000000E-03 0. -1.
        -11    1    3    3    0    0 -0.24773492739E+01 -0.70010402949E+01 -0.41510995710E+01  0.85078465280E+01  0.51100000000E-03 0.  1.
         12    1    3    3    0    0 -0.15508849010E+01 -0.20554163878E+01 -0.52847734647E+00  0.26285488028E+01  0.00000000000E+00 0. -1.
</event>
<event>
 7    1  0.5743890E-009  0.4614232E+02  0.7816164E-02  0.1320468E+00
        -11   -1    0    0    0    0  0.00000000000E+00  0.00000000000E+00  0.45593999997E+02  0.45594000000E+02  0.51100000000E-03 0. -1.
         11   -1    0    0    0    0 -0.00000000000E+00 -0.00000000000E+00 -0.45593999997E+02  0.45594000000E+02  0.51100000000E-03 0.  1.
    9900012    2    1    2    0    0 -0.42127247891E+02 -0.12522998120E+01 -0.15900953449E+02  0.46142316630E+02  0.99999896832E+01 0.  0.
         12    1    1    2    0    0  0.42127247891E+02  0.12522998120E+01  0.15900953449E+02  0.45045683370E+02  0.00000000000E+00 0. -1.
         11    1    3    3    0    0 -0.33810451524E+01 -0.12284291541E+01 -0.45295219837E+00  0.36256958593E+01  0.51100000000E-03 0. -1.
        -11    1    3    3    0    0 -0.60665769265E+01  0.26455456952E+01 -0.10293660130E+01  0.66978998410E+01  0.51100000000E-03 0.  1.
        -12    1    3    3    0    0 -0.32679625812E+02 -0.26694163532E+01 -0.14418635238E+02  0.35818720929E+02  0.00000000000E+00 0.  1.
</event>
<event>
 7    1  0.5743890E-009  0.4614231E+02  0.7816164E-02  0.1320468E+00
        -11   -1    0    0    0    0  0.00000000000E+00  0.00000000000E+00  0.45593999997E+02  0.45594000000E+02  0.51100000000E-03 0. -1.
         11   -1    0    0    0    0 -0.00000000000E+00 -0.00000000000E+00 -0.45593999997E+02  0.45594000000E+02  0.51100000000E-03 0.  1.
    9900012    2    1    2    0    0  0.14256946219E+02 -0.30608275430E+02  0.29815881938E+02  0.46142313680E+02  0.99999627816E+01 0.  0.
        -12    1    1    2    0    0 -0.14256946219E+02  0.30608275430E+02 -0.29815881938E+02  0.45045686320E+02  0.00000000000E+00 0.  1.
         11    1    3    3    0    0  0.24600000852E+01 -0.28544797964E+01  0.38884090787E+01  0.54147373668E+01  0.51100000000E-03 0. -1.
        -11    1    3    3    0    0  0.51835867182E+01 -0.34717324769E+01  0.49171586039E+01  0.79436104294E+01  0.51100000000E-03 0.  1.
        -12    1    3    3    0    0  0.66133594161E+01 -0.24282063157E+02  0.21010314256E+02  0.32783965883E+02  0.00000000000E+00 0.  1.
</event>
<event>
 7    1  0.5743890E-009  0.4614232E+02  0.7816164E-02  0.1320468E+00
        -11   -1    0    0    0    0  0.00000000000E+00  0.00000000000E+00  0.45593999997E+02  0.45594000000E+02  0.51100000000E-03 0. -1.
         11   -1    0    0    0    0 -0.00000000000E+00 -0.00000000000E+00 -0.45593999997E+02  0.45594000000E+02  0.51100000000E-03 0.  1.
    9900012    2    1    2    0    0  0.17621637666E+02 -0.33423669264E+02  0.24524472717E+02  0.46142317153E+02  0.99999944518E+01 0.  0.
        -12    1    1    2    0    0 -0.17621637666E+02  0.33423669264E+02 -0.24524472717E+02  0.45045682847E+02  0.00000000000E+00 0.  1.
         11    1    3    3    0    0  0.19957276198E+01 -0.36096600680E+01  0.66429098066E+01  0.78192599073E+01  0.51100000000E-03 0. -1.
        -11    1    3    3    0    0  0.99087856702E+01 -0.22686423410E+02  0.13261864405E+02  0.28084424301E+02  0.51100000000E-03 0.  1.
        -12    1    3    3    0    0  0.57171243765E+01 -0.71275857863E+01  0.46196985062E+01  0.10238632944E+02  0.00000000000E+00 0.  1.
</event>
<event>
 7    1  0.5743890E-009  0.4614232E+02  0.7816164E-02  0.1320468E+00
        -11   -1    0    0    0    0  0.00000000000E+00  0.00000000000E+00  0.45593999997E+02  0.45594000000E+02  0.51100000000E-03 0. -1.
         11   -1    0    0    0    0 -0.00000000000E+00 -0.00000000000E+00 -0.45593999997E+02  0.45594000000E+02  0.51100000000E-03 0.  1.
    9900012    2    1    2    0    0 -0.74842982016E+01 -0.24152061960E+02  0.37279708730E+02  0.46142317638E+02  0.99999988793E+01 0.  0.
        -12    1    1    2    0    0  0.74842982016E+01  0.24152061960E+02 -0.37279708730E+02  0.45045682362E+02  0.00000000000E+00 0.  1.
         11    1    3    3    0    0  0.98685617435E+00 -0.45076006986E+01  0.67806110046E+01  0.82017702371E+01  0.51100000000E-03 0. -1.
        -11    1    3    3    0    0 -0.22619283450E+01 -0.74754289556E+01  0.17127025339E+02  0.18823744451E+02  0.51100000000E-03 0.  1.
         12    1    3    3    0    0 -0.62092260310E+01 -0.12169032305E+02  0.13372072386E+02  0.19116802950E+02  0.00000000000E+00 0. -1.
</event>
<event>
 7    1  0.5743890E-009  0.4614232E+02  0.7816164E-02  0.1320468E+00
        -11   -1    0    0    0    0  0.00000000000E+00  0.00000000000E+00  0.45593999997E+02  0.45594000000E+02  0.51100000000E-03 0. -1.
         11   -1    0    0    0    0 -0.00000000000E+00 -0.00000000000E+00 -0.45593999997E+02  0.45594000000E+02  0.51100000000E-03 0.  1.
    9900012    2    1    2    0    0  0.30028797629E+02  0.22189038301E+02 -0.25199829588E+02  0.46142317421E+02  0.99999968976E+01 0.  0.
         12    1    1    2    0    0 -0.30028797629E+02 -0.22189038301E+02  0.25199829588E+02  0.45045682579E+02  0.00000000000E+00 0. -1.
         11    1    3    3    0    0  0.98808927023E+01  0.50225214773E+01 -0.90099685462E+01  0.14284162420E+02  0.51100000000E-03 0.  1.
        -11    1    3    3    0    0  0.11572168086E+01  0.43039259297E+01 -0.33201595787E+01  0.55575524325E+01  0.51100000000E-03 0. -1.
         12    1    3    3    0    0  0.18990688118E+02  0.12862590894E+02 -0.12869701463E+02  0.26300602568E+02  0.00000000000E+00 0. -1.
</event>
<event>
 7    1  0.5743890E-009  0.4614232E+02  0.7816164E-02  0.1320468E+00
        -11   -1    0    0    0    0  0.00000000000E+00  0.00000000000E+00  0.45593999997E+02  0.45594000000E+02  0.51100000000E-03 0. -1.
         11   -1    0    0    0    0 -0.00000000000E+00 -0.00000000000E+00 -0.45593999997E+02  0.45594000000E+02  0.51100000000E-03 0.  1.
    9900012    2    1    2    0    0 -0.26417812215E+02 -0.27265012888E+02  0.24245242063E+02  0.46142317712E+02  0.99999995565E+01 0.  0.
        -12    1    1    2    0    0  0.26417812215E+02  0.27265012888E+02 -0.24245242063E+02  0.45045682288E+02  0.00000000000E+00 0.  1.
         11    1    3    3    0    0 -0.68596224747E+01 -0.42918313308E+01  0.49158382828E+01  0.94678246156E+01  0.51100000000E-03 0. -1.
        -11    1    3    3    0    0 -0.58643451020E+01 -0.22939356252E+01  0.29656834158E+01  0.69604570619E+01  0.51100000000E-03 0.  1.
         12    1    3    3    0    0 -0.13693844639E+02 -0.20679245932E+02  0.16363720365E+02  0.29714036035E+02  0.00000000000E+00 0. -1.
</event>
<event>
 7    1  0.5743890E-009  0.4614232E+02  0.7816164E-02  0.1320468E+00
        -11   -1    0    0    0    0  0.00000000000E+00  0.00000000000E+00  0.45593999997E+02  0.45594000000E+02  0.51100000000E-03 0. -1.
         11   -1    0    0    0    0 -0.00000000000E+00 -0.00000000000E+00 -0.45593999997E+02  0.45594000000E+02  0.51100000000E-03 0.  1.
    9900012    2    1    2    0    0  0.16726923057E+02  0.31464901004E+02  0.27555099852E+02  0.46142317876E+02  0.10000001050E+02 0.  0.
        -12    1    1    2    0    0 -0.16726923057E+02 -0.31464901004E+02 -0.27555099852E+02  0.45045682124E+02  0.00000000000E+00 0.  1.
         11    1    3    3    0    0  0.12319574698E+02  0.12719751781E+02  0.14078261472E+02  0.22622145178E+02  0.51100000000E-03 0. -1.
        -11    1    3    3    0    0  0.17985731058E+01  0.58671051127E+01  0.42747923739E+01  0.74787457318E+01  0.51100000000E-03 0.  1.
        -12    1    3    3    0    0  0.26087752532E+01  0.12878044110E+02  0.92020460060E+01  0.16041426966E+02  0.00000000000E+00 0.  1.
</event>
<event>
 7    1  0.5743890E-009  0.4614232E+02  0.7816164E-02  0.1320468E+00
        -11   -1    0    0    0    0  0.00000000000E+00  0.00000000000E+00  0.45593999997E+02  0.45594000000E+02  0.51100000000E-03 0.  1.
         11   -1    0    0    0    0 -0.00000000000E+00 -0.00000000000E+00 -0.45593999997E+02  0.45594000000E+02  0.51100000000E-03 0. -1.
    9900012    2    1    2    0    0  0.42312550897E+02  0.10225645074E+01 -0.15418037634E+02  0.46142317787E+02  0.10000000233E+02 0.  0.
        -12    1    1    2    0    0 -0.42312550897E+02 -0.10225645074E+01  0.15418037634E+02  0.45045682213E+02  0.00000000000E+00 0.  1.
         11    1    3    3    0    0  0.45828092121E+01 -0.18964074412E+01 -0.16609272057E+01  0.52304092480E+01  0.51100000000E-03 0. -1.
        -11    1    3    3    0    0  0.12242677122E+02  0.20050973139E+00 -0.80471891817E+01  0.14651982844E+02  0.51100000000E-03 0.  1.
         12    1    3    3    0    0  0.25487064563E+02  0.27184622173E+01 -0.57099212468E+01  0.26259925695E+02  0.00000000000E+00 0. -1.
</event>
<event>
 7    1  0.5743890E-009  0.4614232E+02  0.7816164E-02  0.1320468E+00
        -11   -1    0    0    0    0  0.00000000000E+00  0.00000000000E+00  0.45593999997E+02  0.45594000000E+02  0.51100000000E-03 0. -1.
         11   -1    0    0    0    0 -0.00000000000E+00 -0.00000000000E+00 -0.45593999997E+02  0.45594000000E+02  0.51100000000E-03 0.  1.
    9900012    2    1    2    0    0 -0.17450759089E+02  0.51957058881E+01 -0.41201809256E+02  0.46142318315E+02  0.10000005053E+02 0.  0.
         12    1    1    2    0    0  0.17450759089E+02 -0.51957058881E+01  0.41201809256E+02  0.45045681685E+02  0.00000000000E+00 0. -1.
         11    1    3    3    0    0 -0.64122383305E+01  0.54836651470E+00 -0.67188751162E+01  0.93038050996E+01  0.51100000000E-03 0. -1.
        -11    1    3    3    0    0 -0.21138659085E+01 -0.90824926562E-01 -0.12058032991E+02  0.12242256251E+02  0.51100000000E-03 0.  1.
        -12    1    3    3    0    0 -0.89246548498E+01  0.47381642999E+01 -0.22424901149E+02  0.24596256965E+02  0.00000000000E+00 0.  1.
</event>
<event>
 7    1  0.6591283E-009  0.4614232E+02  0.7816164E-02  0.1320468E+00
        -11   -1    0    0    0    0  0.00000000000E+00  0.00000000000E+00  0.45593999997E+02  0.45594000000E+02  0.51100000000E-03 0. -1.
         11   -1    0    0    0    0 -0.00000000000E+00 -0.00000000000E+00 -0.45593999997E+02  0.45594000000E+02  0.51100000000E-03 0.  1.
    9900012    2    1    2    0    0  0.71911443566E+01 -0.28227749354E+02  0.34359789457E+02  0.46142317385E+02  0.99999965678E+01 0.  0.
        -12    1    1    2    0    0 -0.71911443566E+01  0.28227749354E+02 -0.34359789457E+02  0.45045682615E+02  0.00000000000E+00 0.  1.
         11    1    3    3    0    0 -0.92973890209E+00 -0.37786113169E+01  0.43955471843E+01  0.58705326182E+01  0.51100000000E-03 0.  1.
        -11    1    3    3    0    0 -0.13174505602E+01 -0.26255291071E+01  0.49792626008E+01  0.57811880595E+01  0.51100000000E-03 0. -1.
         12    1    3    3    0    0  0.94383338189E+01 -0.21823608930E+02  0.24984979672E+02  0.34490596707E+02  0.00000000000E+00 0. -1.
</event>
<event>
 7    1  0.5743890E-009  0.4614232E+02  0.7816164E-02  0.1320468E+00
        -11   -1    0    0    0    0  0.00000000000E+00  0.00000000000E+00  0.45593999997E+02  0.45594000000E+02  0.51100000000E-03 0. -1.
         11   -1    0    0    0    0 -0.00000000000E+00 -0.00000000000E+00 -0.45593999997E+02  0.45594000000E+02  0.51100000000E-03 0.  1.
    9900012    2    1    2    0    0 -0.22148166080E+02 -0.13816957767E+02 -0.36710542510E+02  0.46142317476E+02  0.99999974015E+01 0.  0.
         12    1    1    2    0    0  0.22148166080E+02  0.13816957767E+02  0.36710542510E+02  0.45045682524E+02  0.00000000000E+00 0. -1.
         11    1    3    3    0    0 -0.99965896435E+01 -0.55861148371E+01 -0.15356134378E+02  0.19155869773E+02  0.51100000000E-03 0. -1.
        -11    1    3    3    0    0 -0.82633836432E+01 -0.68978916258E+01 -0.19903199309E+02  0.22627455913E+02  0.51100000000E-03 0.  1.
         12    1    3    3    0    0 -0.38881927930E+01 -0.13329513039E+01 -0.14512088241E+01  0.43589917900E+01  0.00000000000E+00 0. -1.
</event>
<event>
 7    1  0.5743890E-009  0.4614232E+02  0.7816164E-02  0.1320468E+00
        -11   -1    0    0    0    0  0.00000000000E+00  0.00000000000E+00  0.45593999997E+02  0.45594000000E+02  0.51100000000E-03 0. -1.
         11   -1    0    0    0    0 -0.00000000000E+00 -0.00000000000E+00 -0.45593999997E+02  0.45594000000E+02  0.51100000000E-03 0.  1.
    9900012    2    1    2    0    0 -0.24110058083E+02  0.60444588698E+01 -0.37567044690E+02  0.46142320623E+02  0.10000026097E+02 0.  0.
         12    1    1    2    0    0  0.24110058083E+02 -0.60444588698E+01  0.37567044690E+02  0.45045679377E+02  0.00000000000E+00 0. -1.
         11    1    3    3    0    0 -0.89802546779E+01  0.48151271480E+01 -0.18317446423E+02  0.20960898532E+02  0.51100000000E-03 0.  1.
        -11    1    3    3    0    0 -0.92155284115E+01  0.30727447959E+01 -0.14117477444E+02  0.17136828590E+02  0.51100000000E-03 0. -1.
         12    1    3    3    0    0 -0.59142749933E+01 -0.18434130741E+01 -0.51321208235E+01  0.80445935016E+01  0.00000000000E+00 0. -1.
</event>
<event>
 7    1  0.5743890E-009  0.4614232E+02  0.7816164E-02  0.1320468E+00
        -11   -1    0    0    0    0  0.00000000000E+00  0.00000000000E+00  0.45593999997E+02  0.45594000000E+02  0.51100000000E-03 0. -1.
         11   -1    0    0    0    0 -0.00000000000E+00 -0.00000000000E+00 -0.45593999997E+02  0.45594000000E+02  0.51100000000E-03 0.  1.
    9900012    2    1    2    0    0 -0.20340131370E+02 -0.45907466039E+01  0.39928906365E+02  0.46142318053E+02  0.10000002664E+02 0.  0.
        -12    1    1    2    0    0  0.20340131370E+02  0.45907466039E+01 -0.39928906365E+02  0.45045681947E+02  0.00000000000E+00 0.  1.
         11    1    3    3    0    0 -0.21160419632E+01  0.15272528721E+01  0.29385556078E+01  0.39300437970E+01  0.51100000000E-03 0.  1.
        -11    1    3    3    0    0 -0.63939591759E+01 -0.39080203338E+01  0.20272522955E+02  0.21613202541E+02  0.51100000000E-03 0. -1.
         12    1    3    3    0    0 -0.11830130231E+02 -0.22099791422E+01  0.16717827803E+02  0.20599071715E+02  0.00000000000E+00 0. -1.
</event>
<event>
 7    1  0.5743890E-009  0.4614232E+02  0.7816164E-02  0.1320468E+00
        -11   -1    0    0    0    0  0.00000000000E+00  0.00000000000E+00  0.45593999997E+02  0.45594000000E+02  0.51100000000E-03 0. -1.
         11   -1    0    0    0    0 -0.00000000000E+00 -0.00000000000E+00 -0.45593999997E+02  0.45594000000E+02  0.51100000000E-03 0.  1.
    9900012    2    1    2    0    0 -0.10367243779E+02  0.40440281354E+02  0.16917960268E+02  0.46142317863E+02  0.10000000931E+02 0.  0.
        -12    1    1    2    0    0  0.10367243779E+02 -0.40440281354E+02 -0.16917960268E+02  0.45045682137E+02  0.00000000000E+00 0.  1.
         11    1    3    3    0    0 -0.55129926026E+00  0.12712729468E+02  0.55211749519E+01  0.13870861347E+02  0.51100000000E-03 0. -1.
        -11    1    3    3    0    0 -0.10831153948E+02  0.24114349739E+02  0.10148115700E+02  0.28316073380E+02  0.51100000000E-03 0.  1.
        -12    1    3    3    0    0  0.10152094289E+01  0.36132021471E+01  0.12486696156E+01  0.39553831356E+01  0.00000000000E+00 0.  1.
</event>
<event>
 7    1  0.5743890E-009  0.4614232E+02  0.7816164E-02  0.1320468E+00
        -11   -1    0    0    0    0  0.00000000000E+00  0.00000000000E+00  0.45593999997E+02  0.45594000000E+02  0.51100000000E-03 0. -1.
         11   -1    0    0    0    0 -0.00000000000E+00 -0.00000000000E+00 -0.45593999997E+02  0.45594000000E+02  0.51100000000E-03 0.  1.
    9900012    2    1    2    0    0 -0.24662406911E+02  0.18980051500E+01 -0.37646736262E+02  0.46142317750E+02  0.99999998967E+01 0.  0.
         12    1    1    2    0    0  0.24662406911E+02 -0.18980051500E+01  0.37646736262E+02  0.45045682250E+02  0.00000000000E+00 0. -1.
         11    1    3    3    0    0 -0.86799938415E-01 -0.64431928531E+00  0.10260602523E+00  0.65818677308E+00  0.51100000000E-03 0. -1.
        -11    1    3    3    0    0 -0.19543801083E+02  0.45138743167E+00 -0.25969306987E+02  0.32504904507E+02  0.51100000000E-03 0.  1.
         12    1    3    3    0    0 -0.50318058896E+01  0.20909370036E+01 -0.11780035300E+02  0.12979226469E+02  0.00000000000E+00 0. -1.
</event>
<event>
 7    1  0.5743890E-009  0.4614232E+02  0.7816164E-02  0.1320468E+00
        -11   -1    0    0    0    0  0.00000000000E+00  0.00000000000E+00  0.45593999997E+02  0.45594000000E+02  0.51100000000E-03 0.  1.
         11   -1    0    0    0    0 -0.00000000000E+00 -0.00000000000E+00 -0.45593999997E+02  0.45594000000E+02  0.51100000000E-03 0. -1.
    9900012    2    1    2    0    0  0.10331193740E+02  0.43786575468E+02 -0.22618033659E+01  0.46142317523E+02  0.99999978308E+01 0.  0.
        -12    1    1    2    0    0 -0.10331193740E+02 -0.43786575468E+02  0.22618033659E+01  0.45045682477E+02  0.00000000000E+00 0.  1.
         11    1    3    3    0    0  0.39755887726E+01  0.13145649712E+02 -0.21519731083E+01  0.13901237389E+02  0.51100000000E-03 0. -1.
        -11    1    3    3    0    0  0.94165482343E+00  0.22061775864E+02 -0.52340544522E+00  0.22088065140E+02  0.51100000000E-03 0.  1.
        -12    1    3    3    0    0  0.54139501444E+01  0.85791498918E+01  0.41357518760E+00  0.10153014994E+02  0.00000000000E+00 0.  1.
</event>
<event>
 7    1  0.5743890E-009  0.4614232E+02  0.7816164E-02  0.1320468E+00
        -11   -1    0    0    0    0  0.00000000000E+00  0.00000000000E+00  0.45593999997E+02  0.45594000000E+02  0.51100000000E-03 0. -1.
         11   -1    0    0    0    0 -0.00000000000E+00 -0.00000000000E+00 -0.45593999997E+02  0.45594000000E+02  0.51100000000E-03 0.  1.
    9900012    2    1    2    0    0 -0.19283629414E+02 -0.62058675172E+01  0.40233597689E+02  0.46142317210E+02  0.99999949758E+01 0.  0.
        -12    1    1    2    0    0  0.19283629414E+02  0.62058675172E+01 -0.40233597689E+02  0.45045682790E+02  0.00000000000E+00 0.  1.
         11    1    3    3    0    0 -0.13800254558E+02 -0.14085650399E+01  0.30155716913E+02  0.33193347890E+02  0.51100000000E-03 0. -1.
        -11    1    3    3    0    0 -0.22536274623E+01 -0.46974507134E+00  0.13017522036E+01  0.26446278058E+01  0.51100000000E-03 0.  1.
         12    1    3    3    0    0 -0.32297473935E+01 -0.43275574060E+01  0.87761285724E+01  0.10304341514E+02  0.00000000000E+00 0. -1.
</event>
<event>
 7    1  0.5743890E-009  0.4614232E+02  0.7816164E-02  0.1320468E+00
        -11   -1    0    0    0    0  0.00000000000E+00  0.00000000000E+00  0.45593999997E+02  0.45594000000E+02  0.51100000000E-03 0. -1.
         11   -1    0    0    0    0 -0.00000000000E+00 -0.00000000000E+00 -0.45593999997E+02  0.45594000000E+02  0.51100000000E-03 0.  1.
    9900012    2    1    2    0    0  0.17598404936E+02  0.34755936876E+02  0.22614909877E+02  0.46142321482E+02  0.10000033927E+02 0.  0.
        -12    1    1    2    0    0 -0.17598404936E+02 -0.34755936876E+02 -0.22614909877E+02  0.45045678518E+02  0.00000000000E+00 0.  1.
         11    1    3    3    0    0  0.71257108688E+00  0.17942425512E+00  0.14786500289E+01  0.16511683095E+01  0.51100000000E-03 0.  1.
        -11    1    3    3    0    0  0.14655918075E+02  0.22579963780E+02  0.13750078382E+02  0.30227724934E+02  0.51100000000E-03 0. -1.
        -12    1    3    3    0    0  0.22299157749E+01  0.11996548840E+02  0.73861814667E+01  0.14263428238E+02  0.00000000000E+00 0.  1.
</event>
<event>
 7    1  0.5743890E-009  0.4614232E+02  0.7816164E-02  0.1320468E+00
        -11   -1    0    0    0    0  0.00000000000E+00  0.00000000000E+00  0.45593999997E+02  0.45594000000E+02  0.51100000000E-03 0. -1.
         11   -1    0    0    0    0 -0.00000000000E+00 -0.00000000000E+00 -0.45593999997E+02  0.45594000000E+02  0.51100000000E-03 0.  1.
    9900012    2    1    2    0    0 -0.97861527796E+01  0.38149223484E+02  0.21862785899E+02  0.46142318233E+02  0.10000004299E+02 0.  0.
        -12    1    1    2    0    0  0.97861527796E+01 -0.38149223484E+02 -0.21862785899E+02  0.45045681767E+02  0.00000000000E+00 0.  1.
         11    1    3    3    0    0 -0.14699997912E+01  0.40338515238E+01  0.49571462910E+01  0.65579079830E+01  0.51100000000E-03 0. -1.
        -11    1    3    3    0    0 -0.58131586636E+01  0.11611757992E+02  0.43559076668E+01  0.13696702858E+02  0.51100000000E-03 0.  1.
         12    1    3    3    0    0 -0.25029943247E+01  0.22503613968E+02  0.12549731941E+02  0.25887707392E+02  0.00000000000E+00 0. -1.
</event>
<event>
 7    1  0.7900083E-009  0.4614232E+02  0.7816164E-02  0.1320468E+00
        -11   -1    0    0    0    0  0.00000000000E+00  0.00000000000E+00  0.45593999997E+02  0.45594000000E+02  0.51100000000E-03 0. -1.
         11   -1    0    0    0    0 -0.00000000000E+00 -0.00000000000E+00 -0.45593999997E+02  0.45594000000E+02  0.51100000000E-03 0.  1.
    9900012    2    1    2    0    0 -0.86012621407E+01 -0.49097418305E+01  0.43943442933E+02  0.46142318164E+02  0.10000003676E+02 0.  0.
        -12    1    1    2    0    0  0.86012621407E+01  0.49097418305E+01 -0.43943442933E+02  0.45045681836E+02  0.00000000000E+00 0.  1.
         11    1    3    3    0    0 -0.36581504345E+01 -0.22550836043E+01  0.13857499956E+02  0.14508541344E+02  0.51100000000E-03 0. -1.
        -11    1    3    3    0    0 -0.62473315187E+01 -0.43619603950E+01  0.22993258612E+02  0.24222836156E+02  0.51100000000E-03 0.  1.
        -12    1    3    3    0    0  0.13042198125E+01  0.17073021687E+01  0.70926843656E+01  0.74109406639E+01  0.00000000000E+00 0.  1.
</event>
<event>
 7    1  0.7755180E-009  0.4614232E+02  0.7816164E-02  0.1320468E+00
        -11   -1    0    0    0    0  0.00000000000E+00  0.00000000000E+00  0.45593999997E+02  0.45594000000E+02  0.51100000000E-03 0. -1.
         11   -1    0    0    0    0 -0.00000000000E+00 -0.00000000000E+00 -0.45593999997E+02  0.45594000000E+02  0.51100000000E-03 0.  1.
    9900012    2    1    2    0    0  0.44161973559E+01 -0.13914251962E+02  0.42614603319E+02  0.46142316269E+02  0.99999863964E+01 0.  0.
        -12    1    1    2    0    0 -0.44161973559E+01  0.13914251962E+02 -0.42614603319E+02  0.45045683731E+02  0.00000000000E+00 0.  1.
         11    1    3    3    0    0  0.42866128166E+01 -0.56492535545E+01  0.18628981276E+02  0.19933089545E+02  0.51100000000E-03 0. -1.
        -11    1    3    3    0    0  0.20842635573E+01 -0.22973716921E+01  0.14536486362E+02  0.14863764910E+02  0.51100000000E-03 0.  1.
        -12    1    3    3    0    0 -0.19546790180E+01 -0.59676267159E+01  0.94491356806E+01  0.11345461815E+02  0.00000000000E+00 0.  1.
</event>
<event>
 7    1  0.5743890E-009  0.4614232E+02  0.7816164E-02  0.1320468E+00
        -11   -1    0    0    0    0  0.00000000000E+00  0.00000000000E+00  0.45593999997E+02  0.45594000000E+02  0.51100000000E-03 0. -1.
         11   -1    0    0    0    0 -0.00000000000E+00 -0.00000000000E+00 -0.45593999997E+02  0.45594000000E+02  0.51100000000E-03 0.  1.
    9900012    2    1    2    0    0 -0.32782629882E+02  0.19174625876E+02 -0.24222849052E+02  0.46142317458E+02  0.99999972353E+01 0.  0.
         12    1    1    2    0    0  0.32782629882E+02 -0.19174625876E+02  0.24222849052E+02  0.45045682542E+02  0.00000000000E+00 0. -1.
         11    1    3    3    0    0 -0.10705098261E+02  0.83312703697E+01 -0.55473995007E+01  0.14655471205E+02  0.51100000000E-03 0. -1.
        -11    1    3    3    0    0 -0.19631815676E+01 -0.78784863765E+00 -0.15509697379E+01  0.26230315919E+01  0.51100000000E-03 0.  1.
        -12    1    3    3    0    0 -0.20114350054E+02  0.11631204144E+02 -0.17124479813E+02  0.28863814661E+02  0.00000000000E+00 0.  1.
</event>
<event>
 7    1  0.5743890E-009  0.4614232E+02  0.7816164E-02  0.1320468E+00
        -11   -1    0    0    0    0  0.00000000000E+00  0.00000000000E+00  0.45593999997E+02  0.45594000000E+02  0.51100000000E-03 0. -1.
         11   -1    0    0    0    0 -0.00000000000E+00 -0.00000000000E+00 -0.45593999997E+02  0.45594000000E+02  0.51100000000E-03 0.  1.
    9900012    2    1    2    0    0 -0.43806034453E+01  0.31728552981E+02 -0.31673691780E+02  0.46142317501E+02  0.99999976280E+01 0.  0.
         12    1    1    2    0    0  0.43806034453E+01 -0.31728552981E+02  0.31673691780E+02  0.45045682499E+02  0.00000000000E+00 0. -1.
         11    1    3    3    0    0 -0.79705702403E+00  0.18189985560E+02 -0.18117837917E+02  0.25685928553E+02  0.51100000000E-03 0. -1.
        -11    1    3    3    0    0 -0.35087656927E+01  0.14183670773E+02 -0.12560740369E+02  0.19268112314E+02  0.51100000000E-03 0.  1.
         12    1    3    3    0    0 -0.74780728572E-01 -0.64510335202E+00 -0.99511349354E+00  0.11882766333E+01  0.00000000000E+00 0. -1.
</event>
<event>
 7    1  0.6075232E-009  0.4614232E+02  0.7816164E-02  0.1320468E+00
        -11   -1    0    0    0    0  0.00000000000E+00  0.00000000000E+00  0.45593999997E+02  0.45594000000E+02  0.51100000000E-03 0. -1.
         11   -1    0    0    0    0 -0.00000000000E+00 -0.00000000000E+00 -0.45593999997E+02  0.45594000000E+02  0.51100000000E-03 0.  1.
    9900012    2    1    2    0    0  0.52593872382E+01 -0.60523330012E+01  0.44326308610E+02  0.46142317367E+02  0.99999964062E+01 0.  0.
        -12    1    1    2    0    0 -0.52593872382E+01  0.60523330012E+01 -0.44326308610E+02  0.45045682633E+02  0.00000000000E+00 0.  1.
         11    1    3    3    0    0  0.20082621702E+01 -0.62405930686E+01  0.32141377229E+02  0.32803143893E+02  0.51100000000E-03 0. -1.
        -11    1    3    3    0    0  0.33694357947E+01 -0.15334873418E+01  0.83209833428E+01  0.91073291943E+01  0.51100000000E-03 0.  1.
        -12    1    3    3    0    0 -0.11831072674E+00  0.17217474092E+01  0.38639480380E+01  0.42318442799E+01  0.00000000000E+00 0.  1.
</event>
<event>
 7    1  0.5743890E-009  0.4614232E+02  0.7816164E-02  0.1320468E+00
        -11   -1    0    0    0    0  0.00000000000E+00  0.00000000000E+00  0.45593999997E+02  0.45594000000E+02  0.51100000000E-03 0.  1.
         11   -1    0    0    0    0 -0.00000000000E+00 -0.00000000000E+00 -0.45593999997E+02  0.45594000000E+02  0.51100000000E-03 0. -1.
    9900012    2    1    2    0    0  0.12725576851E+02  0.42581834550E+02 -0.73457848878E+01  0.46142317682E+02  0.99999992788E+01 0.  0.
         12    1    1    2    0    0 -0.12725576851E+02 -0.42581834550E+02  0.73457848878E+01  0.45045682318E+02  0.00000000000E+00 0. -1.
         11    1    3    3    0    0 -0.43894098079E+00  0.79731834967E+01  0.73698652520E+00  0.80191940777E+01  0.51100000000E-03 0. -1.
        -11    1    3    3    0    0  0.10830816053E+02  0.26776779823E+02 -0.46366845698E+01  0.29254082760E+02  0.51100000000E-03 0.  1.
         12    1    3    3    0    0  0.23337017789E+01  0.78318712304E+01 -0.34460868431E+01  0.88690408440E+01  0.00000000000E+00 0. -1.
</event>
<event>
 7    1  0.5743890E-009  0.4614232E+02  0.7816164E-02  0.1320468E+00
        -11   -1    0    0    0    0  0.00000000000E+00  0.00000000000E+00  0.45593999997E+02  0.45594000000E+02  0.51100000000E-03 0. -1.
         11   -1    0    0    0    0 -0.00000000000E+00 -0.00000000000E+00 -0.45593999997E+02  0.45594000000E+02  0.51100000000E-03 0.  1.
    9900012    2    1    2    0    0 -0.11057160159E+01  0.47686447178E+01 -0.44778910902E+02  0.46142318277E+02  0.10000004705E+02 0.  0.
         12    1    1    2    0    0  0.11057160159E+01 -0.47686447178E+01  0.44778910902E+02  0.45045681723E+02  0.00000000000E+00 0. -1.
         11    1    3    3    0    0 -0.20910435247E+01 -0.60232444129E+00 -0.66947980990E+01  0.70395724020E+01  0.51100000000E-03 0. -1.
        -11    1    3    3    0    0 -0.18840752200E+01  0.56640108815E+01 -0.24641703892E+02  0.25354374961E+02  0.51100000000E-03 0.  1.
         12    1    3    3    0    0  0.28694027288E+01 -0.29304172235E+00 -0.13442408910E+02  0.13748370914E+02  0.00000000000E+00 0. -1.
</event>
<event>
 7    1  0.5743890E-009  0.4614232E+02  0.7816164E-02  0.1320468E+00
        -11   -1    0    0    0    0  0.00000000000E+00  0.00000000000E+00  0.45593999997E+02  0.45594000000E+02  0.51100000000E-03 0. -1.
         11   -1    0    0    0    0 -0.00000000000E+00 -0.00000000000E+00 -0.45593999997E+02  0.45594000000E+02  0.51100000000E-03 0.  1.
    9900012    2    1    2    0    0 -0.72736358302E+00 -0.18556984493E+02 -0.41039282341E+02  0.46142318450E+02  0.10000006278E+02 0.  0.
         12    1    1    2    0    0  0.72736358302E+00  0.18556984493E+02  0.41039282341E+02  0.45045681550E+02  0.00000000000E+00 0. -1.
         11    1    3    3    0    0 -0.19454260625E+01 -0.13634673434E+02 -0.22626167214E+02  0.26488345461E+02  0.51100000000E-03 0. -1.
        -11    1    3    3    0    0  0.12474782785E+01 -0.58307575645E+01 -0.16099619685E+02  0.17168333935E+02  0.51100000000E-03 0.  1.
         12    1    3    3    0    0 -0.29415799021E-01  0.90844650578E+00 -0.23134954431E+01  0.24856390543E+01  0.00000000000E+00 0. -1.
</event>
<event>
 7    1  0.5743890E-009  0.4614232E+02  0.7816164E-02  0.1320468E+00
        -11   -1    0    0    0    0  0.00000000000E+00  0.00000000000E+00  0.45593999997E+02  0.45594000000E+02  0.51100000000E-03 0. -1.
         11   -1    0    0    0    0 -0.00000000000E+00 -0.00000000000E+00 -0.45593999997E+02  0.45594000000E+02  0.51100000000E-03 0.  1.
    9900012    2    1    2    0    0 -0.17555718322E+02  0.19118761735E+01 -0.41439775130E+02  0.46142317863E+02  0.10000000934E+02 0.  0.
         12    1    1    2    0    0  0.17555718322E+02 -0.19118761735E+01  0.41439775130E+02  0.45045682137E+02  0.00000000000E+00 0. -1.
         11    1    3    3    0    0 -0.56051299609E+01  0.99691170114E+00 -0.20486631717E+02  0.21262958265E+02  0.51100000000E-03 0. -1.
        -11    1    3    3    0    0 -0.41996262831E+01 -0.23039460561E+01 -0.54944683680E+01  0.72893217281E+01  0.51100000000E-03 0.  1.
        -12    1    3    3    0    0 -0.77509620778E+01  0.32189105285E+01 -0.15458675045E+02  0.17590037870E+02  0.00000000000E+00 0.  1.
</event>
<event>
 7    1  0.5743890E-009  0.4614232E+02  0.7816164E-02  0.1320468E+00
        -11   -1    0    0    0    0  0.00000000000E+00  0.00000000000E+00  0.45593999997E+02  0.45594000000E+02  0.51100000000E-03 0. -1.
         11   -1    0    0    0    0 -0.00000000000E+00 -0.00000000000E+00 -0.45593999997E+02  0.45594000000E+02  0.51100000000E-03 0.  1.
    9900012    2    1    2    0    0 -0.29473795428E+02 -0.14520685728E+02 -0.30814907503E+02  0.46142318128E+02  0.10000003345E+02 0.  0.
         12    1    1    2    0    0  0.29473795428E+02  0.14520685728E+02  0.30814907503E+02  0.45045681872E+02  0.00000000000E+00 0. -1.
         11    1    3    3    0    0 -0.11872256193E+02 -0.43262223621E+01 -0.93315731633E+01  0.15708116533E+02  0.51100000000E-03 0. -1.
        -11    1    3    3    0    0 -0.52179104165E+01 -0.51547792923E+01 -0.11920932888E+02  0.13996677458E+02  0.51100000000E-03 0.  1.
        -12    1    3    3    0    0 -0.12383628818E+02 -0.50396840731E+01 -0.95624014513E+01  0.16437524138E+02  0.00000000000E+00 0.  1.
</event>
<event>
 7    1  0.5743890E-009  0.4614232E+02  0.7816164E-02  0.1320468E+00
        -11   -1    0    0    0    0  0.00000000000E+00  0.00000000000E+00  0.45593999997E+02  0.45594000000E+02  0.51100000000E-03 0. -1.
         11   -1    0    0    0    0 -0.00000000000E+00 -0.00000000000E+00 -0.45593999997E+02  0.45594000000E+02  0.51100000000E-03 0.  1.
    9900012    2    1    2    0    0 -0.95177844067E+01 -0.10771749604E+02 -0.42690687591E+02  0.46142316338E+02  0.99999870262E+01 0.  0.
         12    1    1    2    0    0  0.95177844067E+01  0.10771749604E+02  0.42690687591E+02  0.45045683662E+02  0.00000000000E+00 0. -1.
         11    1    3    3    0    0 -0.54736972137E+01 -0.18703814165E+01 -0.14397439605E+02  0.15515990309E+02  0.51100000000E-03 0. -1.
        -11    1    3    3    0    0 -0.33523325631E+01 -0.23451421901E+01 -0.17558318244E+02  0.18028654008E+02  0.51100000000E-03 0.  1.
         12    1    3    3    0    0 -0.69175462982E+00 -0.65562259975E+01 -0.10734929742E+02  0.12597672021E+02  0.00000000000E+00 0. -1.
</event>
<event>
 7    1  0.5743890E-009  0.4614232E+02  0.7816164E-02  0.1320468E+00
        -11   -1    0    0    0    0  0.00000000000E+00  0.00000000000E+00  0.45593999997E+02  0.45594000000E+02  0.51100000000E-03 0. -1.
         11   -1    0    0    0    0 -0.00000000000E+00 -0.00000000000E+00 -0.45593999997E+02  0.45594000000E+02  0.51100000000E-03 0.  1.
    9900012    2    1    2    0    0 -0.23874381731E+02 -0.21827102755E+02  0.31348123733E+02  0.46142318972E+02  0.10000011039E+02 0.  0.
        -12    1    1    2    0    0  0.23874381731E+02  0.21827102755E+02 -0.31348123733E+02  0.45045681028E+02  0.00000000000E+00 0.  1.
         11    1    3    3    0    0 -0.13615758192E+02 -0.11986776989E+02  0.17534336641E+02  0.25229440252E+02  0.51100000000E-03 0. -1.
        -11    1    3    3    0    0 -0.94170331938E+01 -0.50013826241E+01  0.10650729246E+02  0.15070911587E+02  0.51100000000E-03 0.  1.
        -12    1    3    3    0    0 -0.84159034500E+00 -0.48389431427E+01  0.31630578459E+01  0.58419671330E+01  0.00000000000E+00 0.  1.
</event>
<event>
 7    1  0.5743890E-009  0.4614232E+02  0.7816164E-02  0.1320468E+00
        -11   -1    0    0    0    0  0.00000000000E+00  0.00000000000E+00  0.45593999997E+02  0.45594000000E+02  0.51100000000E-03 0. -1.
         11   -1    0    0    0    0 -0.00000000000E+00 -0.00000000000E+00 -0.45593999997E+02  0.45594000000E+02  0.51100000000E-03 0.  1.
    9900012    2    1    2    0    0  0.40708199967E+01  0.10259598251E+02 -0.43672443902E+02  0.46142319985E+02  0.10000020276E+02 0.  0.
         12    1    1    2    0    0 -0.40708199967E+01 -0.10259598251E+02  0.43672443902E+02  0.45045680015E+02  0.00000000000E+00 0. -1.
         11    1    3    3    0    0 -0.46868937765E+00  0.82816248469E-01 -0.64370429429E+01  0.64546146573E+01  0.51100000000E-03 0. -1.
        -11    1    3    3    0    0  0.65142787930E+01  0.90426128601E+01 -0.33578820104E+02  0.35379963756E+02  0.51100000000E-03 0.  1.
        -12    1    3    3    0    0 -0.19747694187E+01  0.11341691423E+01 -0.36565808544E+01  0.43077415713E+01  0.00000000000E+00 0.  1.
</event>
<event>
 7    1  0.5743890E-009  0.4614232E+02  0.7816164E-02  0.1320468E+00
        -11   -1    0    0    0    0  0.00000000000E+00  0.00000000000E+00  0.45593999997E+02  0.45594000000E+02  0.51100000000E-03 0. -1.
         11   -1    0    0    0    0 -0.00000000000E+00 -0.00000000000E+00 -0.45593999997E+02  0.45594000000E+02  0.51100000000E-03 0.  1.
    9900012    2    1    2    0    0 -0.21776578157E+01 -0.13956686767E+02 -0.42773614913E+02  0.46142318389E+02  0.10000005728E+02 0.  0.
         12    1    1    2    0    0  0.21776578157E+01  0.13956686767E+02  0.42773614913E+02  0.45045681611E+02  0.00000000000E+00 0. -1.
         11    1    3    3    0    0  0.36495971152E+00 -0.48693365915E+01 -0.12489898752E+02  0.13410488639E+02  0.51100000000E-03 0. -1.
        -11    1    3    3    0    0 -0.26878062638E+01 -0.99103115276E+01 -0.20651753167E+02  0.23063683275E+02  0.51100000000E-03 0.  1.
         12    1    3    3    0    0  0.14518873656E+00  0.82296135227E+00 -0.96319629940E+01  0.96681464757E+01  0.00000000000E+00 0. -1.
</event>
<event>
 7    1  0.5743890E-009  0.4614232E+02  0.7816164E-02  0.1320468E+00
        -11   -1    0    0    0    0  0.00000000000E+00  0.00000000000E+00  0.45593999997E+02  0.45594000000E+02  0.51100000000E-03 0. -1.
         11   -1    0    0    0    0 -0.00000000000E+00 -0.00000000000E+00 -0.45593999997E+02  0.45594000000E+02  0.51100000000E-03 0.  1.
    9900012    2    1    2    0    0  0.41266386644E+02 -0.31712547306E+00 -0.18058189602E+02  0.46142318221E+02  0.10000004191E+02 0.  0.
         12    1    1    2    0    0 -0.41266386644E+02  0.31712547306E+00  0.18058189602E+02  0.45045681779E+02  0.00000000000E+00 0. -1.
         11    1    3    3    0    0  0.16693881868E+02  0.34843079027E+00 -0.47870328921E+01  0.17370169257E+02  0.51100000000E-03 0. -1.
        -11    1    3    3    0    0  0.22947275387E+02  0.12690119843E+01 -0.11610486560E+02  0.25748616225E+02  0.51100000000E-03 0.  1.
         12    1    3    3    0    0  0.16252293894E+01 -0.19345682477E+01 -0.16606701503E+01  0.30235327386E+01  0.00000000000E+00 0. -1.
</event>
<event>
 7    1  0.5743890E-009  0.4614232E+02  0.7816164E-02  0.1320468E+00
        -11   -1    0    0    0    0  0.00000000000E+00  0.00000000000E+00  0.45593999997E+02  0.45594000000E+02  0.51100000000E-03 0. -1.
         11   -1    0    0    0    0 -0.00000000000E+00 -0.00000000000E+00 -0.45593999997E+02  0.45594000000E+02  0.51100000000E-03 0.  1.
    9900012    2    1    2    0    0 -0.32245813435E+02 -0.22103278993E+01  0.31375716441E+02  0.46142316348E+02  0.99999871153E+01 0.  0.
        -12    1    1    2    0    0  0.32245813435E+02  0.22103278993E+01 -0.31375716441E+02  0.45045683652E+02  0.00000000000E+00 0.  1.
         11    1    3    3    0    0 -0.76168540688E+01  0.33288316719E+01  0.85884712800E+01  0.11952381578E+02  0.51100000000E-03 0. -1.
        -11    1    3    3    0    0 -0.11168718382E+02 -0.36929092946E+01  0.12364098874E+02  0.17066012732E+02  0.51100000000E-03 0.  1.
        -12    1    3    3    0    0 -0.13460240984E+02 -0.18462502765E+01  0.10423146287E+02  0.17123922038E+02  0.00000000000E+00 0.  1.
</event>
<event>
 7    1  0.5743890E-009  0.4614232E+02  0.7816164E-02  0.1320468E+00
        -11   -1    0    0    0    0  0.00000000000E+00  0.00000000000E+00  0.45593999997E+02  0.45594000000E+02  0.51100000000E-03 0. -1.
         11   -1    0    0    0    0 -0.00000000000E+00 -0.00000000000E+00 -0.45593999997E+02  0.45594000000E+02  0.51100000000E-03 0.  1.
    9900012    2    1    2    0    0  0.28479748114E+02 -0.40323493566E+01 -0.34666376500E+02  0.46142317037E+02  0.99999933930E+01 0.  0.
         12    1    1    2    0    0 -0.28479748114E+02  0.40323493566E+01  0.34666376500E+02  0.45045682963E+02  0.00000000000E+00 0. -1.
         11    1    3    3    0    0  0.13535272180E+02 -0.22559279050E+01 -0.12627754638E+02  0.18648136399E+02  0.51100000000E-03 0. -1.
        -11    1    3    3    0    0  0.13855507686E+02 -0.33705907255E+01 -0.17583979827E+02  0.22639176705E+02  0.51100000000E-03 0.  1.
        -12    1    3    3    0    0  0.10889682481E+01  0.15941692739E+01 -0.44546420352E+01  0.48550039321E+01  0.00000000000E+00 0.  1.
</event>
<event>
 7    1  0.5743890E-009  0.4614232E+02  0.7816164E-02  0.1320468E+00
        -11   -1    0    0    0    0  0.00000000000E+00  0.00000000000E+00  0.45593999997E+02  0.45594000000E+02  0.51100000000E-03 0. -1.
         11   -1    0    0    0    0 -0.00000000000E+00 -0.00000000000E+00 -0.45593999997E+02  0.45594000000E+02  0.51100000000E-03 0.  1.
    9900012    2    1    2    0    0  0.91216325489E+01  0.29978841717E+02  0.32360134798E+02  0.46142318129E+02  0.10000003353E+02 0.  0.
        -12    1    1    2    0    0 -0.91216325489E+01 -0.29978841717E+02 -0.32360134798E+02  0.45045681871E+02  0.00000000000E+00 0.  1.
         11    1    3    3    0    0 -0.91677397660E+00  0.36005704430E+01  0.74034344410E+01  0.82834427518E+01  0.51100000000E-03 0. -1.
        -11    1    3    3    0    0  0.36221197537E+01  0.53457116929E+01  0.50550376060E+01  0.82005969583E+01  0.51100000000E-03 0.  1.
         12    1    3    3    0    0  0.64162867718E+01  0.21032559582E+02  0.19901662751E+02  0.29658278419E+02  0.00000000000E+00 0. -1.
</event>
<event>
 7    1  0.5743890E-009  0.4614232E+02  0.7816164E-02  0.1320468E+00
        -11   -1    0    0    0    0  0.00000000000E+00  0.00000000000E+00  0.45593999997E+02  0.45594000000E+02  0.51100000000E-03 0. -1.
         11   -1    0    0    0    0 -0.00000000000E+00 -0.00000000000E+00 -0.45593999997E+02  0.45594000000E+02  0.51100000000E-03 0.  1.
    9900012    2    1    2    0    0  0.43378627831E+02 -0.82217641090E+01 -0.89336887755E+01  0.46142317047E+02  0.99999934858E+01 0.  0.
        -12    1    1    2    0    0 -0.43378627831E+02  0.82217641090E+01  0.89336887755E+01  0.45045682953E+02  0.00000000000E+00 0.  1.
         11    1    3    3    0    0  0.34257832178E+02 -0.57278278794E+01 -0.70452973926E+01  0.35440701085E+02  0.51100000000E-03 0. -1.
        -11    1    3    3    0    0  0.10472471638E+01 -0.18564072404E+01  0.62624280621E+00  0.22215208254E+01  0.51100000000E-03 0.  1.
        -12    1    3    3    0    0  0.80735484894E+01 -0.63752898921E+00 -0.25146341891E+01  0.84800951367E+01  0.00000000000E+00 0.  1.
</event>
<event>
 7    1  0.5743890E-009  0.4614232E+02  0.7816164E-02  0.1320468E+00
        -11   -1    0    0    0    0  0.00000000000E+00  0.00000000000E+00  0.45593999997E+02  0.45594000000E+02  0.51100000000E-03 0. -1.
         11   -1    0    0    0    0 -0.00000000000E+00 -0.00000000000E+00 -0.45593999997E+02  0.45594000000E+02  0.51100000000E-03 0.  1.
    9900012    2    1    2    0    0  0.17367434353E+02 -0.24132057032E+00 -0.41562331649E+02  0.46142318478E+02  0.10000006541E+02 0.  0.
         12    1    1    2    0    0 -0.17367434353E+02  0.24132057032E+00  0.41562331649E+02  0.45045681522E+02  0.00000000000E+00 0. -1.
         11    1    3    3    0    0  0.70199743966E+01  0.25583234294E+01 -0.19395013045E+02  0.20784407391E+02  0.51100000000E-03 0.  1.
        -11    1    3    3    0    0  0.67296954991E+01 -0.28130810845E+01 -0.19623708669E+02  0.20935428558E+02  0.51100000000E-03 0. -1.
         12    1    3    3    0    0  0.36177644578E+01  0.13437084733E-01 -0.25436099341E+01  0.44224825295E+01  0.00000000000E+00 0. -1.
</event>
<event>
 7    1  0.5743890E-009  0.4614232E+02  0.7816164E-02  0.1320468E+00
        -11   -1    0    0    0    0  0.00000000000E+00  0.00000000000E+00  0.45593999997E+02  0.45594000000E+02  0.51100000000E-03 0. -1.
         11   -1    0    0    0    0 -0.00000000000E+00 -0.00000000000E+00 -0.45593999997E+02  0.45594000000E+02  0.51100000000E-03 0.  1.
    9900012    2    1    2    0    0  0.93102279862E+01 -0.39173546825E+02 -0.20195701810E+02  0.46142317770E+02  0.10000000078E+02 0.  0.
         12    1    1    2    0    0 -0.93102279862E+01  0.39173546825E+02  0.20195701810E+02  0.45045682230E+02  0.00000000000E+00 0. -1.
         11    1    3    3    0    0  0.26916303777E+00 -0.20867666215E+01 -0.16718225528E-01  0.21041205844E+01  0.51100000000E-03 0. -1.
        -11    1    3    3    0    0  0.70486552183E+01 -0.24151664723E+02 -0.86736868856E+01  0.26612389853E+02  0.51100000000E-03 0.  1.
        -12    1    3    3    0    0  0.19924097302E+01 -0.12935115481E+02 -0.11505296699E+02  0.17425807332E+02  0.00000000000E+00 0.  1.
</event>
<event>
 7    1  0.5743890E-009  0.4614232E+02  0.7816164E-02  0.1320468E+00
        -11   -1    0    0    0    0  0.00000000000E+00  0.00000000000E+00  0.45593999997E+02  0.45594000000E+02  0.51100000000E-03 0.  1.
         11   -1    0    0    0    0 -0.00000000000E+00 -0.00000000000E+00 -0.45593999997E+02  0.45594000000E+02  0.51100000000E-03 0. -1.
    9900012    2    1    2    0    0 -0.43271131500E+01 -0.44832914436E+02 -0.63194804588E+00  0.46142317816E+02  0.10000000505E+02 0.  0.
        -12    1    1    2    0    0  0.43271131500E+01  0.44832914436E+02  0.63194804588E+00  0.45045682184E+02  0.00000000000E+00 0.  1.
         11    1    3    3    0    0 -0.25395137177E+01 -0.48876246158E+01 -0.21316298538E+01  0.59060858783E+01  0.51100000000E-03 0. -1.
        -11    1    3    3    0    0 -0.16901672555E+01 -0.33107206094E+02 -0.34837617604E+00  0.33152151166E+02  0.51100000000E-03 0.  1.
        -12    1    3    3    0    0 -0.97432176790E-01 -0.68380837258E+01  0.18480579840E+01  0.70840807718E+01  0.00000000000E+00 0.  1.
</event>
<event>
 7    1  0.5743890E-009  0.4614232E+02  0.7816164E-02  0.1320468E+00
        -11   -1    0    0    0    0  0.00000000000E+00  0.00000000000E+00  0.45593999997E+02  0.45594000000E+02  0.51100000000E-03 0.  1.
         11   -1    0    0    0    0 -0.00000000000E+00 -0.00000000000E+00 -0.45593999997E+02  0.45594000000E+02  0.51100000000E-03 0. -1.
    9900012    2    1    2    0    0  0.22344056155E+02  0.38075940729E+02  0.89487070487E+01  0.46142318013E+02  0.10000002293E+02 0.  0.
         12    1    1    2    0    0 -0.22344056155E+02 -0.38075940729E+02 -0.89487070487E+01  0.45045681987E+02  0.00000000000E+00 0. -1.
         11    1    3    3    0    0  0.56739510130E+01  0.55846891188E+01  0.29201334239E+01  0.84799559035E+01  0.51100000000E-03 0. -1.
        -11    1    3    3    0    0  0.84706349856E+01  0.11051777031E+02 -0.21219361084E-01  0.13924578382E+02  0.51100000000E-03 0.  1.
        -12    1    3    3    0    0  0.81994701560E+01  0.21439474580E+02  0.60497929858E+01  0.23737783727E+02  0.00000000000E+00 0.  1.
</event>
<event>
 7    1  0.5743890E-009  0.4614232E+02  0.7816164E-02  0.1320468E+00
        -11   -1    0    0    0    0  0.00000000000E+00  0.00000000000E+00  0.45593999997E+02  0.45594000000E+02  0.51100000000E-03 0. -1.
         11   -1    0    0    0    0 -0.00000000000E+00 -0.00000000000E+00 -0.45593999997E+02  0.45594000000E+02  0.51100000000E-03 0.  1.
    9900012    2    1    2    0    0  0.57100632063E+01 -0.20833088697E+02 -0.39528357617E+02  0.46142318050E+02  0.10000002631E+02 0.  0.
         12    1    1    2    0    0 -0.57100632063E+01  0.20833088697E+02  0.39528357617E+02  0.45045681950E+02  0.00000000000E+00 0. -1.
         11    1    3    3    0    0  0.99147858062E+00 -0.68612086226E+01 -0.10158402299E+02  0.12298469460E+02  0.51100000000E-03 0.  1.
        -11    1    3    3    0    0  0.10262214993E+01 -0.30917985540E+01 -0.15473640049E+02  0.15812839260E+02  0.51100000000E-03 0. -1.
         12    1    3    3    0    0  0.36923631264E+01 -0.10880081521E+02 -0.13896315269E+02  0.18031009329E+02  0.00000000000E+00 0. -1.
</event>
<event>
 7    1  0.5743890E-009  0.4614232E+02  0.7816164E-02  0.1320468E+00
        -11   -1    0    0    0    0  0.00000000000E+00  0.00000000000E+00  0.45593999997E+02  0.45594000000E+02  0.51100000000E-03 0. -1.
         11   -1    0    0    0    0 -0.00000000000E+00 -0.00000000000E+00 -0.45593999997E+02  0.45594000000E+02  0.51100000000E-03 0.  1.
    9900012    2    1    2    0    0  0.75019575546E+01 -0.63207108689E+01 -0.43964562411E+02  0.46142317621E+02  0.99999987189E+01 0.  0.
         12    1    1    2    0    0 -0.75019575546E+01  0.63207108689E+01  0.43964562411E+02  0.45045682379E+02  0.00000000000E+00 0. -1.
         11    1    3    3    0    0  0.14832529832E+01  0.56403114823E+00 -0.25336047921E+01  0.29895357586E+01  0.51100000000E-03 0. -1.
        -11    1    3    3    0    0  0.42285381095E+01 -0.70787141644E+01 -0.19817357756E+02  0.21464305194E+02  0.51100000000E-03 0.  1.
         12    1    3    3    0    0  0.17901664619E+01  0.19397214722E+00 -0.21613599863E+02  0.21688476668E+02  0.00000000000E+00 0. -1.
</event>
<event>
 7    1  0.5743890E-009  0.4614232E+02  0.7816164E-02  0.1320468E+00
        -11   -1    0    0    0    0  0.00000000000E+00  0.00000000000E+00  0.45593999997E+02  0.45594000000E+02  0.51100000000E-03 0.  1.
         11   -1    0    0    0    0 -0.00000000000E+00 -0.00000000000E+00 -0.45593999997E+02  0.45594000000E+02  0.51100000000E-03 0. -1.
    9900012    2    1    2    0    0  0.35084705474E+01  0.43618151768E+02 -0.10689293386E+02  0.46142317384E+02  0.99999965599E+01 0.  0.
        -12    1    1    2    0    0 -0.35084705474E+01 -0.43618151768E+02  0.10689293386E+02  0.45045682616E+02  0.00000000000E+00 0.  1.
         11    1    3    3    0    0 -0.10876509882E+01  0.17621818170E+02 -0.26774441894E+01  0.17857216131E+02  0.51100000000E-03 0. -1.
        -11    1    3    3    0    0  0.44805547751E+01  0.25369023280E+02 -0.63899943188E+01  0.26542319811E+02  0.51100000000E-03 0.  1.
        -12    1    3    3    0    0  0.11556676058E+00  0.62731031790E+00 -0.16218548776E+01  0.17427814422E+01  0.00000000000E+00 0.  1.
</event>
<event>
 7    1  0.5743890E-009  0.4614232E+02  0.7816164E-02  0.1320468E+00
        -11   -1    0    0    0    0  0.00000000000E+00  0.00000000000E+00  0.45593999997E+02  0.45594000000E+02  0.51100000000E-03 0. -1.
         11   -1    0    0    0    0 -0.00000000000E+00 -0.00000000000E+00 -0.45593999997E+02  0.45594000000E+02  0.51100000000E-03 0.  1.
    9900012    2    1    2    0    0  0.65751752659E+01 -0.14094226260E+02  0.42275681250E+02  0.46142319088E+02  0.10000012098E+02 0.  0.
        -12    1    1    2    0    0 -0.65751752659E+01  0.14094226260E+02 -0.42275681250E+02  0.45045680912E+02  0.00000000000E+00 0.  1.
         11    1    3    3    0    0 -0.55524238340E+00 -0.11658896738E+01  0.89982916623E+01  0.90904810619E+01  0.51100000000E-03 0. -1.
        -11    1    3    3    0    0  0.13202344680E+01 -0.36908986778E+00  0.47634901192E+00  0.14512598056E+01  0.51100000000E-03 0.  1.
         12    1    3    3    0    0  0.58101831812E+01 -0.12559246719E+02  0.32801040576E+02  0.35600578220E+02  0.00000000000E+00 0. -1.
</event>
<event>
 7    1  0.8240363E-009  0.4614232E+02  0.7816164E-02  0.1320468E+00
        -11   -1    0    0    0    0  0.00000000000E+00  0.00000000000E+00  0.45593999997E+02  0.45594000000E+02  0.51100000000E-03 0. -1.
         11   -1    0    0    0    0 -0.00000000000E+00 -0.00000000000E+00 -0.45593999997E+02  0.45594000000E+02  0.51100000000E-03 0.  1.
    9900012    2    1    2    0    0 -0.72424777981E+01 -0.15082606195E+01  0.44434054435E+02  0.46142317318E+02  0.99999959597E+01 0.  0.
        -12    1    1    2    0    0  0.72424777981E+01  0.15082606195E+01 -0.44434054435E+02  0.45045682682E+02  0.00000000000E+00 0.  1.
         11    1    3    3    0    0 -0.20117405302E+01  0.83859902836E+00  0.40213047734E+01  0.45739742711E+01  0.51100000000E-03 0. -1.
        -11    1    3    3    0    0  0.11201613144E+00  0.13726360640E+01  0.12238507055E+01  0.18424136855E+01  0.51100000000E-03 0.  1.
         12    1    3    3    0    0 -0.53427533993E+01 -0.37194957120E+01  0.39188898956E+02  0.39725929361E+02  0.00000000000E+00 0. -1.
</event>
<event>
 7    1  0.7251185E-009  0.4614232E+02  0.7816164E-02  0.1320468E+00
        -11   -1    0    0    0    0  0.00000000000E+00  0.00000000000E+00  0.45593999997E+02  0.45594000000E+02  0.51100000000E-03 0. -1.
         11   -1    0    0    0    0 -0.00000000000E+00 -0.00000000000E+00 -0.45593999997E+02  0.45594000000E+02  0.51100000000E-03 0.  1.
    9900012    2    1    2    0    0 -0.28826797093E+02  0.24052706469E+02  0.24891693830E+02  0.46142319399E+02  0.10000014932E+02 0.  0.
        -12    1    1    2    0    0  0.28826797093E+02 -0.24052706469E+02 -0.24891693830E+02  0.45045680601E+02  0.00000000000E+00 0.  1.
         11    1    3    3    0    0 -0.20196621426E+02  0.16425330682E+02  0.14645791291E+02  0.29869620149E+02  0.51100000000E-03 0. -1.
        -11    1    3    3    0    0 -0.73584664589E+01  0.73140641112E+01  0.63536549884E+01  0.12165997469E+02  0.51100000000E-03 0.  1.
        -12    1    3    3    0    0 -0.12717092081E+01  0.31331167521E+00  0.38922475507E+01  0.41067017802E+01  0.00000000000E+00 0.  1.
</event>
<event>
 7    1  0.5743890E-009  0.4614232E+02  0.7816164E-02  0.1320468E+00
        -11   -1    0    0    0    0  0.00000000000E+00  0.00000000000E+00  0.45593999997E+02  0.45594000000E+02  0.51100000000E-03 0.  1.
         11   -1    0    0    0    0 -0.00000000000E+00 -0.00000000000E+00 -0.45593999997E+02  0.45594000000E+02  0.51100000000E-03 0. -1.
    9900012    2    1    2    0    0  0.14832248886E+02  0.40470040551E+02  0.13087921887E+02  0.46142317759E+02  0.99999999842E+01 0.  0.
        -12    1    1    2    0    0 -0.14832248886E+02 -0.40470040551E+02 -0.13087921887E+02  0.45045682241E+02  0.00000000000E+00 0.  1.
         11    1    3    3    0    0  0.18845711575E+01  0.79635233035E+01  0.38090704802E+01  0.90265347746E+01  0.51100000000E-03 0. -1.
        -11    1    3    3    0    0  0.27050006114E+01  0.92608405814E+01  0.63390564257E+01  0.11543995548E+02  0.51100000000E-03 0.  1.
        -12    1    3    3    0    0  0.10242677117E+02  0.23245676666E+02  0.29397949812E+01  0.25571787437E+02  0.00000000000E+00 0.  1.
</event>
<event>
 7    1  0.5743890E-009  0.4614232E+02  0.7816164E-02  0.1320468E+00
        -11   -1    0    0    0    0  0.00000000000E+00  0.00000000000E+00  0.45593999997E+02  0.45594000000E+02  0.51100000000E-03 0. -1.
         11   -1    0    0    0    0 -0.00000000000E+00 -0.00000000000E+00 -0.45593999997E+02  0.45594000000E+02  0.51100000000E-03 0.  1.
    9900012    2    1    2    0    0 -0.10827134084E+02  0.12200182308E+02 -0.41988596696E+02  0.46142317262E+02  0.99999954529E+01 0.  0.
         12    1    1    2    0    0  0.10827134084E+02 -0.12200182308E+02  0.41988596696E+02  0.45045682738E+02  0.00000000000E+00 0. -1.
         11    1    3    3    0    0 -0.59048374512E+01  0.90872280298E+01 -0.17761229818E+02  0.20806395736E+02  0.51100000000E-03 0. -1.
        -11    1    3    3    0    0 -0.41965586428E+01  0.11656613513E+01 -0.93566001548E+01  0.10320651023E+02  0.51100000000E-03 0.  1.
         12    1    3    3    0    0 -0.72573798979E+00  0.19472929270E+01 -0.14870766723E+02  0.15015270503E+02  0.00000000000E+00 0. -1.
</event>
<event>
 7    1  0.5743890E-009  0.4614232E+02  0.7816164E-02  0.1320468E+00
        -11   -1    0    0    0    0  0.00000000000E+00  0.00000000000E+00  0.45593999997E+02  0.45594000000E+02  0.51100000000E-03 0. -1.
         11   -1    0    0    0    0 -0.00000000000E+00 -0.00000000000E+00 -0.45593999997E+02  0.45594000000E+02  0.51100000000E-03 0.  1.
    9900012    2    1    2    0    0  0.15133968103E+01 -0.10844598109E+02  0.43694597256E+02  0.46142317549E+02  0.99999980685E+01 0.  0.
        -12    1    1    2    0    0 -0.15133968103E+01  0.10844598109E+02 -0.43694597256E+02  0.45045682451E+02  0.00000000000E+00 0.  1.
         11    1    3    3    0    0 -0.16648877448E+01 -0.10544840733E+02  0.37416379704E+02  0.38909523098E+02  0.51100000000E-03 0. -1.
        -11    1    3    3    0    0  0.18016274994E+01 -0.71175446453E+00  0.23234001711E+01  0.30250032529E+01  0.51100000000E-03 0.  1.
        -12    1    3    3    0    0  0.13766570557E+01  0.41199708873E+00  0.39548173813E+01  0.42077911984E+01  0.00000000000E+00 0.  1.
</event>
<event>
 7    1  0.5743890E-009  0.4614232E+02  0.7816164E-02  0.1320468E+00
        -11   -1    0    0    0    0  0.00000000000E+00  0.00000000000E+00  0.45593999997E+02  0.45594000000E+02  0.51100000000E-03 0. -1.
         11   -1    0    0    0    0 -0.00000000000E+00 -0.00000000000E+00 -0.45593999997E+02  0.45594000000E+02  0.51100000000E-03 0.  1.
    9900012    2    1    2    0    0 -0.25065585904E+02 -0.32661474982E+02  0.18277251937E+02  0.46142317820E+02  0.10000000533E+02 0.  0.
        -12    1    1    2    0    0  0.25065585904E+02  0.32661474982E+02 -0.18277251937E+02  0.45045682180E+02  0.00000000000E+00 0.  1.
         11    1    3    3    0    0 -0.16487293167E+02 -0.17123261856E+02  0.78764913347E+01  0.25041486549E+02  0.51100000000E-03 0. -1.
        -11    1    3    3    0    0 -0.43695950084E+01 -0.35831328823E+01  0.26189467871E+01  0.62282488972E+01  0.51100000000E-03 0.  1.
        -12    1    3    3    0    0 -0.42086977287E+01 -0.11955080244E+02  0.77818138148E+01  0.14872582373E+02  0.00000000000E+00 0.  1.
</event>
<event>
 7    1  0.5743890E-009  0.4614232E+02  0.7816164E-02  0.1320468E+00
        -11   -1    0    0    0    0  0.00000000000E+00  0.00000000000E+00  0.45593999997E+02  0.45594000000E+02  0.51100000000E-03 0. -1.
         11   -1    0    0    0    0 -0.00000000000E+00 -0.00000000000E+00 -0.45593999997E+02  0.45594000000E+02  0.51100000000E-03 0.  1.
    9900012    2    1    2    0    0 -0.33470301732E+02 -0.50625699987E+01  0.29719060063E+02  0.46142320473E+02  0.10000024731E+02 0.  0.
        -12    1    1    2    0    0  0.33470301732E+02  0.50625699987E+01 -0.29719060063E+02  0.45045679527E+02  0.00000000000E+00 0.  1.
         11    1    3    3    0    0 -0.20497293472E+01 -0.54480531064E-01  0.23513501953E+01  0.31198087325E+01  0.51100000000E-03 0. -1.
        -11    1    3    3    0    0 -0.83127817217E+01  0.28430190777E+01  0.75732630345E+01  0.11599112495E+02  0.51100000000E-03 0.  1.
         12    1    3    3    0    0 -0.23107790663E+02 -0.78511085453E+01  0.19794446833E+02  0.31423399245E+02  0.00000000000E+00 0. -1.
</event>
<event>
 7    1  0.5743890E-009  0.4614232E+02  0.7816164E-02  0.1320468E+00
        -11   -1    0    0    0    0  0.00000000000E+00  0.00000000000E+00  0.45593999997E+02  0.45594000000E+02  0.51100000000E-03 0. -1.
         11   -1    0    0    0    0 -0.00000000000E+00 -0.00000000000E+00 -0.45593999997E+02  0.45594000000E+02  0.51100000000E-03 0.  1.
    9900012    2    1    2    0    0 -0.40954894187E+02  0.94076983541E+01  0.16226675690E+02  0.46142321515E+02  0.10000034232E+02 0.  0.
        -12    1    1    2    0    0  0.40954894187E+02 -0.94076983541E+01 -0.16226675690E+02  0.45045678485E+02  0.00000000000E+00 0.  1.
         11    1    3    3    0    0 -0.47110370848E+00  0.76132099907E+00  0.86946282373E+00  0.12480040989E+01  0.51100000000E-03 0. -1.
        -11    1    3    3    0    0 -0.32533807711E+01  0.26230427879E+01  0.16328855521E-01  0.41791275168E+01  0.51100000000E-03 0.  1.
         12    1    3    3    0    0 -0.37230409708E+02  0.60233345672E+01  0.15340884011E+02  0.40715189899E+02  0.00000000000E+00 0. -1.
</event>
<event>
 7    1  0.5743890E-009  0.4614232E+02  0.7816164E-02  0.1320468E+00
        -11   -1    0    0    0    0  0.00000000000E+00  0.00000000000E+00  0.45593999997E+02  0.45594000000E+02  0.51100000000E-03 0. -1.
         11   -1    0    0    0    0 -0.00000000000E+00 -0.00000000000E+00 -0.45593999997E+02  0.45594000000E+02  0.51100000000E-03 0.  1.
    9900012    2    1    2    0    0 -0.69611889369E+01  0.15624782030E+02 -0.41671592731E+02  0.46142316459E+02  0.99999881284E+01 0.  0.
         12    1    1    2    0    0  0.69611889369E+01 -0.15624782030E+02  0.41671592731E+02  0.45045683541E+02  0.00000000000E+00 0. -1.
         11    1    3    3    0    0  0.16069266029E+00  0.63529917704E+01 -0.10956168467E+02  0.12665857820E+02  0.51100000000E-03 0. -1.
        -11    1    3    3    0    0 -0.66114175317E+01  0.94956075305E+01 -0.23052750126E+02  0.25793539749E+02  0.51100000000E-03 0.  1.
        -12    1    3    3    0    0 -0.51046406546E+00 -0.22381727086E+00 -0.76626741380E+01  0.76829188905E+01  0.00000000000E+00 0.  1.
</event>
<event>
 7    1  0.5743890E-009  0.4614232E+02  0.7816164E-02  0.1320468E+00
        -11   -1    0    0    0    0  0.00000000000E+00  0.00000000000E+00  0.45593999997E+02  0.45594000000E+02  0.51100000000E-03 0. -1.
         11   -1    0    0    0    0 -0.00000000000E+00 -0.00000000000E+00 -0.45593999997E+02  0.45594000000E+02  0.51100000000E-03 0.  1.
    9900012    2    1    2    0    0 -0.26364964661E+02  0.16261238616E+02  0.32704346355E+02  0.46142317483E+02  0.99999974625E+01 0.  0.
        -12    1    1    2    0    0  0.26364964661E+02 -0.16261238616E+02 -0.32704346355E+02  0.45045682517E+02  0.00000000000E+00 0.  1.
         11    1    3    3    0    0 -0.53768053357E+01  0.27412876325E+01  0.77972001370E+01  0.98600721974E+01  0.51100000000E-03 0. -1.
        -11    1    3    3    0    0 -0.18851907184E+01  0.12939149025E+01 -0.37576761053E+00  0.23171882483E+01  0.51100000000E-03 0.  1.
         12    1    3    3    0    0 -0.19102968607E+02  0.12226036081E+02  0.25282913829E+02  0.33965057037E+02  0.00000000000E+00 0. -1.
</event>
<event>
 7    1  0.5743890E-009  0.4614232E+02  0.7816164E-02  0.1320468E+00
        -11   -1    0    0    0    0  0.00000000000E+00  0.00000000000E+00  0.45593999997E+02  0.45594000000E+02  0.51100000000E-03 0. -1.
         11   -1    0    0    0    0 -0.00000000000E+00 -0.00000000000E+00 -0.45593999997E+02  0.45594000000E+02  0.51100000000E-03 0.  1.
    9900012    2    1    2    0    0 -0.25069213406E+02  0.29288390346E+02 -0.23298880549E+02  0.46142322020E+02  0.10000038833E+02 0.  0.
         12    1    1    2    0    0  0.25069213406E+02 -0.29288390346E+02  0.23298880549E+02  0.45045677980E+02  0.00000000000E+00 0. -1.
         11    1    3    3    0    0 -0.82638615193E+01  0.13324596629E+02 -0.13487046541E+02  0.20681796518E+02  0.51100000000E-03 0. -1.
        -11    1    3    3    0    0 -0.13305366454E+02  0.13991712404E+02 -0.92316845394E+01  0.21401513782E+02  0.51100000000E-03 0.  1.
         12    1    3    3    0    0 -0.34999854327E+01  0.19720813129E+01 -0.58014946856E+00  0.40590117195E+01  0.00000000000E+00 0. -1.
</event>
<event>
 7    1  0.5743890E-009  0.4614232E+02  0.7816164E-02  0.1320468E+00
        -11   -1    0    0    0    0  0.00000000000E+00  0.00000000000E+00  0.45593999997E+02  0.45594000000E+02  0.51100000000E-03 0. -1.
         11   -1    0    0    0    0 -0.00000000000E+00 -0.00000000000E+00 -0.45593999997E+02  0.45594000000E+02  0.51100000000E-03 0.  1.
    9900012    2    1    2    0    0  0.24973174630E+02 -0.36970019497E+02 -0.62186564987E+01  0.46142317839E+02  0.10000000708E+02 0.  0.
         12    1    1    2    0    0 -0.24973174630E+02  0.36970019497E+02  0.62186564987E+01  0.45045682161E+02  0.00000000000E+00 0. -1.
         11    1    3    3    0    0  0.15981477593E+01 -0.19313237293E+01  0.39688187467E+00  0.25380313418E+01  0.51100000000E-03 0. -1.
        -11    1    3    3    0    0  0.24087631912E+02 -0.34653909796E+02 -0.68628121858E+01  0.42757521755E+02  0.51100000000E-03 0.  1.
        -12    1    3    3    0    0 -0.71260504161E+00 -0.38478597164E+00  0.24727381242E+00  0.84676474160E+00  0.00000000000E+00 0.  1.
</event>
<event>
 7    1  0.5743890E-009  0.4614232E+02  0.7816164E-02  0.1320468E+00
        -11   -1    0    0    0    0  0.00000000000E+00  0.00000000000E+00  0.45593999997E+02  0.45594000000E+02  0.51100000000E-03 0. -1.
         11   -1    0    0    0    0 -0.00000000000E+00 -0.00000000000E+00 -0.45593999997E+02  0.45594000000E+02  0.51100000000E-03 0.  1.
    9900012    2    1    2    0    0  0.35717037293E+02 -0.68140104777E+01 -0.26589018865E+02  0.46142318564E+02  0.10000007325E+02 0.  0.
         12    1    1    2    0    0 -0.35717037293E+02  0.68140104777E+01  0.26589018865E+02  0.45045681436E+02  0.00000000000E+00 0. -1.
         11    1    3    3    0    0  0.10700265582E+02 -0.39527786347E+01 -0.11483934365E+02  0.16186441586E+02  0.51100000000E-03 0. -1.
        -11    1    3    3    0    0  0.13969419498E+01  0.62407532306E+00 -0.25669382244E+01  0.29883254389E+01  0.51100000000E-03 0.  1.
         12    1    3    3    0    0  0.23619829761E+02 -0.34853071661E+01 -0.12538146275E+02  0.26967551539E+02  0.00000000000E+00 0. -1.
</event>
<event>
 7    1  0.6127282E-009  0.4614232E+02  0.7816164E-02  0.1320468E+00
        -11   -1    0    0    0    0  0.00000000000E+00  0.00000000000E+00  0.45593999997E+02  0.45594000000E+02  0.51100000000E-03 0. -1.
         11   -1    0    0    0    0 -0.00000000000E+00 -0.00000000000E+00 -0.45593999997E+02  0.45594000000E+02  0.51100000000E-03 0.  1.
    9900012    2    1    2    0    0  0.29748203337E+02 -0.48943503752E+01  0.33469437784E+02  0.46142317266E+02  0.99999954887E+01 0.  0.
        -12    1    1    2    0    0 -0.29748203337E+02  0.48943503752E+01 -0.33469437784E+02  0.45045682734E+02  0.00000000000E+00 0.  1.
         11    1    3    3    0    0  0.18528599454E+02 -0.40545329799E+01  0.19722215355E+02  0.27362639020E+02  0.51100000000E-03 0. -1.
        -11    1    3    3    0    0  0.35721798457E+01 -0.20966098296E+01  0.17490307809E+01  0.44961484140E+01  0.51100000000E-03 0.  1.
         12    1    3    3    0    0  0.76474240376E+01  0.12567924343E+01  0.11998191648E+02  0.14283529832E+02  0.00000000000E+00 0. -1.
</event>
<event>
 7    1  0.5743890E-009  0.4614232E+02  0.7816164E-02  0.1320468E+00
        -11   -1    0    0    0    0  0.00000000000E+00  0.00000000000E+00  0.45593999997E+02  0.45594000000E+02  0.51100000000E-03 0. -1.
         11   -1    0    0    0    0 -0.00000000000E+00 -0.00000000000E+00 -0.45593999997E+02  0.45594000000E+02  0.51100000000E-03 0.  1.
    9900012    2    1    2    0    0  0.16811828137E+02 -0.11731412204E+02  0.40110469772E+02  0.46142318931E+02  0.10000010668E+02 0.  0.
        -12    1    1    2    0    0 -0.16811828137E+02  0.11731412204E+02 -0.40110469772E+02  0.45045681069E+02  0.00000000000E+00 0.  1.
         11    1    3    3    0    0 -0.11066064317E+00 -0.15612529462E+01  0.78960806777E+01  0.80497109805E+01  0.51100000000E-03 0.  1.
        -11    1    3    3    0    0  0.90817022094E+01 -0.41581245752E+01  0.20221746997E+02  0.22554076503E+02  0.51100000000E-03 0. -1.
        -12    1    3    3    0    0  0.78407865712E+01 -0.60120346829E+01  0.11992642097E+02  0.15538531448E+02  0.00000000000E+00 0.  1.
</event>
<event>
 7    1  0.5743890E-009  0.4614232E+02  0.7816164E-02  0.1320468E+00
        -11   -1    0    0    0    0  0.00000000000E+00  0.00000000000E+00  0.45593999997E+02  0.45594000000E+02  0.51100000000E-03 0. -1.
         11   -1    0    0    0    0 -0.00000000000E+00 -0.00000000000E+00 -0.45593999997E+02  0.45594000000E+02  0.51100000000E-03 0.  1.
    9900012    2    1    2    0    0 -0.14884847189E+02 -0.20850832162E+02  0.37051283614E+02  0.46142317686E+02  0.99999993154E+01 0.  0.
        -12    1    1    2    0    0  0.14884847189E+02  0.20850832162E+02 -0.37051283614E+02  0.45045682314E+02  0.00000000000E+00 0.  1.
         11    1    3    3    0    0 -0.76362626359E+01 -0.15858342724E+02  0.29967491991E+02  0.34754138135E+02  0.51100000000E-03 0.  1.
        -11    1    3    3    0    0 -0.21917791093E+01 -0.23011126877E+01  0.22646150883E+01  0.39022425635E+01  0.51100000000E-03 0. -1.
        -12    1    3    3    0    0 -0.50568054442E+01 -0.26913767498E+01  0.48191765344E+01  0.74859369874E+01  0.00000000000E+00 0.  1.
</event>
<event>
 7    1  0.5743890E-009  0.4614232E+02  0.7816164E-02  0.1320468E+00
        -11   -1    0    0    0    0  0.00000000000E+00  0.00000000000E+00  0.45593999997E+02  0.45594000000E+02  0.51100000000E-03 0. -1.
         11   -1    0    0    0    0 -0.00000000000E+00 -0.00000000000E+00 -0.45593999997E+02  0.45594000000E+02  0.51100000000E-03 0.  1.
    9900012    2    1    2    0    0  0.60467493305E+01 -0.20023017286E+02  0.39895225986E+02  0.46142318130E+02  0.10000003363E+02 0.  0.
        -12    1    1    2    0    0 -0.60467493305E+01  0.20023017286E+02 -0.39895225986E+02  0.45045681870E+02  0.00000000000E+00 0.  1.
         11    1    3    3    0    0  0.64855558624E+00 -0.63079952249E+01  0.16109237136E+02  0.17312392945E+02  0.51100000000E-03 0. -1.
        -11    1    3    3    0    0  0.16231788092E+01 -0.11975124730E+02  0.16681957755E+02  0.20599175627E+02  0.51100000000E-03 0.  1.
         12    1    3    3    0    0  0.37750149351E+01 -0.17398973308E+01  0.71040310950E+01  0.82307495576E+01  0.00000000000E+00 0. -1.
</event>
<event>
 7    1  0.5743890E-009  0.4614232E+02  0.7816164E-02  0.1320468E+00
        -11   -1    0    0    0    0  0.00000000000E+00  0.00000000000E+00  0.45593999997E+02  0.45594000000E+02  0.51100000000E-03 0. -1.
         11   -1    0    0    0    0 -0.00000000000E+00 -0.00000000000E+00 -0.45593999997E+02  0.45594000000E+02  0.51100000000E-03 0.  1.
    9900012    2    1    2    0    0 -0.13574183686E+02  0.78713202270E+01 -0.42224369322E+02  0.46142317527E+02  0.99999978612E+01 0.  0.
         12    1    1    2    0    0  0.13574183686E+02 -0.78713202270E+01  0.42224369322E+02  0.45045682473E+02  0.00000000000E+00 0. -1.
         11    1    3    3    0    0 -0.18428813557E+01  0.58794237834E+01 -0.12806286675E+02  0.14211432524E+02  0.51100000000E-03 0. -1.
        -11    1    3    3    0    0 -0.17335258982E+01  0.54173970626E+00 -0.19541062045E+01  0.26677940828E+01  0.51100000000E-03 0.  1.
        -12    1    3    3    0    0 -0.99977764321E+01  0.14501567373E+01 -0.27463976442E+02  0.29263090920E+02  0.00000000000E+00 0.  1.
</event>
<event>
 7    1  0.5743890E-009  0.4614232E+02  0.7816164E-02  0.1320468E+00
        -11   -1    0    0    0    0  0.00000000000E+00  0.00000000000E+00  0.45593999997E+02  0.45594000000E+02  0.51100000000E-03 0. -1.
         11   -1    0    0    0    0 -0.00000000000E+00 -0.00000000000E+00 -0.45593999997E+02  0.45594000000E+02  0.51100000000E-03 0.  1.
    9900012    2    1    2    0    0  0.19540130876E+02  0.11068605778E+02 -0.39048466042E+02  0.46142318200E+02  0.10000004006E+02 0.  0.
         12    1    1    2    0    0 -0.19540130876E+02 -0.11068605778E+02  0.39048466042E+02  0.45045681800E+02  0.00000000000E+00 0. -1.
         11    1    3    3    0    0  0.38705884530E+01  0.38479487009E+01 -0.77980811460E+01  0.95183104592E+01  0.51100000000E-03 0. -1.
        -11    1    3    3    0    0  0.15368704802E+02  0.65407467661E+01 -0.31644867998E+02  0.35782343780E+02  0.51100000000E-03 0.  1.
         12    1    3    3    0    0  0.30083762135E+00  0.67991031132E+00  0.39448310151E+00  0.84166396099E+00  0.00000000000E+00 0. -1.
</event>
<event>
 7    1  0.5743890E-009  0.4614232E+02  0.7816164E-02  0.1320468E+00
        -11   -1    0    0    0    0  0.00000000000E+00  0.00000000000E+00  0.45593999997E+02  0.45594000000E+02  0.51100000000E-03 0. -1.
         11   -1    0    0    0    0 -0.00000000000E+00 -0.00000000000E+00 -0.45593999997E+02  0.45594000000E+02  0.51100000000E-03 0.  1.
    9900012    2    1    2    0    0  0.62226987352E+00 -0.37285449413E+02 -0.25268986822E+02  0.46142315937E+02  0.99999833632E+01 0.  0.
         12    1    1    2    0    0 -0.62226987352E+00  0.37285449413E+02  0.25268986822E+02  0.45045684063E+02  0.00000000000E+00 0. -1.
         11    1    3    3    0    0 -0.13856097739E+00 -0.21680023143E+02 -0.10535256497E+02  0.24104651674E+02  0.51100000000E-03 0. -1.
        -11    1    3    3    0    0  0.26666008748E+01 -0.11875003614E+02 -0.11516127747E+02  0.16755526540E+02  0.51100000000E-03 0.  1.
         12    1    3    3    0    0 -0.19057700239E+01 -0.37304226562E+01 -0.32176025778E+01  0.52821377231E+01  0.00000000000E+00 0. -1.
</event>
<event>
 7    1  0.5743890E-009  0.4614232E+02  0.7816164E-02  0.1320468E+00
        -11   -1    0    0    0    0  0.00000000000E+00  0.00000000000E+00  0.45593999997E+02  0.45594000000E+02  0.51100000000E-03 0. -1.
         11   -1    0    0    0    0 -0.00000000000E+00 -0.00000000000E+00 -0.45593999997E+02  0.45594000000E+02  0.51100000000E-03 0.  1.
    9900012    2    1    2    0    0  0.13309444748E+02 -0.18757363230E+02 -0.38731555348E+02  0.46142319025E+02  0.10000011523E+02 0.  0.
         12    1    1    2    0    0 -0.13309444748E+02  0.18757363230E+02  0.38731555348E+02  0.45045680975E+02  0.00000000000E+00 0. -1.
         11    1    3    3    0    0 -0.79235236517E+00 -0.20075229539E+01 -0.86556673477E+00  0.23253336781E+01  0.51100000000E-03 0. -1.
        -11    1    3    3    0    0  0.55373558463E+01 -0.48204352010E+01 -0.11739783638E+02  0.13846350617E+02  0.51100000000E-03 0.  1.
        -12    1    3    3    0    0  0.85644412669E+01 -0.11929405075E+02 -0.26126204976E+02  0.29970634730E+02  0.00000000000E+00 0.  1.
</event>
<event>
 7    1  0.5743890E-009  0.4614232E+02  0.7816164E-02  0.1320468E+00
        -11   -1    0    0    0    0  0.00000000000E+00  0.00000000000E+00  0.45593999997E+02  0.45594000000E+02  0.51100000000E-03 0. -1.
         11   -1    0    0    0    0 -0.00000000000E+00 -0.00000000000E+00 -0.45593999997E+02  0.45594000000E+02  0.51100000000E-03 0.  1.
    9900012    2    1    2    0    0  0.77192051443E+00  0.25719291394E+02 -0.36973446767E+02  0.46142316778E+02  0.99999910354E+01 0.  0.
         12    1    1    2    0    0 -0.77192051443E+00 -0.25719291394E+02  0.36973446767E+02  0.45045683222E+02  0.00000000000E+00 0. -1.
         11    1    3    3    0    0 -0.14314332180E+01  0.14474952098E+02 -0.21105918268E+02  0.25632655451E+02  0.51100000000E-03 0.  1.
        -11    1    3    3    0    0  0.51832832533E+00  0.10758870753E+02 -0.15208093641E+02  0.18636203385E+02  0.51100000000E-03 0. -1.
         12    1    3    3    0    0  0.16850254071E+01  0.48546854262E+00 -0.65943485845E+00  0.18734579421E+01  0.00000000000E+00 0. -1.
</event>
<event>
 7    1  0.5743890E-009  0.4614232E+02  0.7816164E-02  0.1320468E+00
        -11   -1    0    0    0    0  0.00000000000E+00  0.00000000000E+00  0.45593999997E+02  0.45594000000E+02  0.51100000000E-03 0. -1.
         11   -1    0    0    0    0 -0.00000000000E+00 -0.00000000000E+00 -0.45593999997E+02  0.45594000000E+02  0.51100000000E-03 0.  1.
    9900012    2    1    2    0    0 -0.27171114715E+02  0.23800336161E+02  0.26914458682E+02  0.46142316939E+02  0.99999925042E+01 0.  0.
        -12    1    1    2    0    0  0.27171114715E+02 -0.23800336161E+02 -0.26914458682E+02  0.45045683061E+02  0.00000000000E+00 0.  1.
         11    1    3    3    0    0 -0.14465123015E+02  0.16302539908E+02  0.17247359820E+02  0.27793596606E+02  0.51100000000E-03 0. -1.
        -11    1    3    3    0    0 -0.50894552187E+01  0.58695608848E+01  0.41859737676E+01  0.88247762605E+01  0.51100000000E-03 0.  1.
        -12    1    3    3    0    0 -0.76165364818E+01  0.16282353689E+01  0.54811250949E+01  0.95239440727E+01  0.00000000000E+00 0.  1.
</event>
<event>
 7    1  0.5743890E-009  0.4614232E+02  0.7816164E-02  0.1320468E+00
        -11   -1    0    0    0    0  0.00000000000E+00  0.00000000000E+00  0.45593999997E+02  0.45594000000E+02  0.51100000000E-03 0. -1.
         11   -1    0    0    0    0 -0.00000000000E+00 -0.00000000000E+00 -0.45593999997E+02  0.45594000000E+02  0.51100000000E-03 0.  1.
    9900012    2    1    2    0    0 -0.16902406171E+02 -0.39647567879E+02  0.13095509551E+02  0.46142319369E+02  0.10000014662E+02 0.  0.
        -12    1    1    2    0    0  0.16902406171E+02  0.39647567879E+02 -0.13095509551E+02  0.45045680631E+02  0.00000000000E+00 0.  1.
         11    1    3    3    0    0 -0.13241683046E+02 -0.23517691641E+02  0.83332100731E+01  0.28246528643E+02  0.51100000000E-03 0. -1.
        -11    1    3    3    0    0 -0.39081401753E+01 -0.16264935705E+02  0.41699387588E+01  0.17239781977E+02  0.51100000000E-03 0.  1.
        -12    1    3    3    0    0  0.24741705070E+00  0.13505946652E+00  0.59236071900E+00  0.65600874833E+00  0.00000000000E+00 0.  1.
</event>
<event>
 7    1  0.5743890E-009  0.4614230E+02  0.7816164E-02  0.1320468E+00
        -11   -1    0    0    0    0  0.00000000000E+00  0.00000000000E+00  0.45593999997E+02  0.45594000000E+02  0.51100000000E-03 0. -1.
         11   -1    0    0    0    0 -0.00000000000E+00 -0.00000000000E+00 -0.45593999997E+02  0.45594000000E+02  0.51100000000E-03 0.  1.
    9900012    2    1    2    0    0  0.35660848176E+02  0.16484838347E+01  0.27471826572E+02  0.46142302683E+02  0.99998625033E+01 0.  0.
        -12    1    1    2    0    0 -0.35660848176E+02 -0.16484838347E+01 -0.27471826572E+02  0.45045697317E+02  0.00000000000E+00 0.  1.
         11    1    3    3    0    0  0.16589580716E+02  0.23876367269E+01  0.82960324112E+01  0.18701314165E+02  0.51100000000E-03 0. -1.
        -11    1    3    3    0    0  0.16480717915E+02 -0.19832851364E+01  0.15006921110E+02  0.22377559393E+02  0.51100000000E-03 0.  1.
        -12    1    3    3    0    0  0.25905495453E+01  0.12441322443E+01  0.41688730516E+01  0.50634291255E+01  0.00000000000E+00 0.  1.
</event>
<event>
 7    1  0.5743890E-009  0.4614232E+02  0.7816164E-02  0.1320468E+00
        -11   -1    0    0    0    0  0.00000000000E+00  0.00000000000E+00  0.45593999997E+02  0.45594000000E+02  0.51100000000E-03 0. -1.
         11   -1    0    0    0    0 -0.00000000000E+00 -0.00000000000E+00 -0.45593999997E+02  0.45594000000E+02  0.51100000000E-03 0.  1.
    9900012    2    1    2    0    0  0.29660178813E+02  0.81977003192E+01  0.32896580523E+02  0.46142317545E+02  0.99999980314E+01 0.  0.
        -12    1    1    2    0    0 -0.29660178813E+02 -0.81977003192E+01 -0.32896580523E+02  0.45045682455E+02  0.00000000000E+00 0.  1.
         11    1    3    3    0    0  0.22402405264E+02  0.86774232640E+01  0.25233088705E+02  0.34840697496E+02  0.51100000000E-03 0. -1.
        -11    1    3    3    0    0  0.28387795207E+01  0.23636466728E+00  0.55682798373E+00  0.29025153036E+01  0.51100000000E-03 0.  1.
        -12    1    3    3    0    0  0.44189940281E+01 -0.71608761202E+00  0.71066638339E+01  0.83991047461E+01  0.00000000000E+00 0.  1.
</event>
<event>
 7    1  0.5743890E-009  0.4614232E+02  0.7816164E-02  0.1320468E+00
        -11   -1    0    0    0    0  0.00000000000E+00  0.00000000000E+00  0.45593999997E+02  0.45594000000E+02  0.51100000000E-03 0. -1.
         11   -1    0    0    0    0 -0.00000000000E+00 -0.00000000000E+00 -0.45593999997E+02  0.45594000000E+02  0.51100000000E-03 0.  1.
    9900012    2    1    2    0    0  0.17296229366E+02  0.27125801897E+02 -0.31530061477E+02  0.46142318125E+02  0.10000003320E+02 0.  0.
         12    1    1    2    0    0 -0.17296229366E+02 -0.27125801897E+02  0.31530061477E+02  0.45045681875E+02  0.00000000000E+00 0. -1.
         11    1    3    3    0    0  0.10293872891E+01  0.94210221682E+01 -0.69861581018E+01  0.11773771790E+02  0.51100000000E-03 0. -1.
        -11    1    3    3    0    0  0.10435086856E+02  0.10896543228E+02 -0.15777914521E+02  0.21830443855E+02  0.51100000000E-03 0.  1.
         12    1    3    3    0    0  0.58317552207E+01  0.68082365013E+01 -0.87659888540E+01  0.12538102480E+02  0.00000000000E+00 0. -1.
</event>
<event>
 7    1  0.5743890E-009  0.4614232E+02  0.7816164E-02  0.1320468E+00
        -11   -1    0    0    0    0  0.00000000000E+00  0.00000000000E+00  0.45593999997E+02  0.45594000000E+02  0.51100000000E-03 0. -1.
         11   -1    0    0    0    0 -0.00000000000E+00 -0.00000000000E+00 -0.45593999997E+02  0.45594000000E+02  0.51100000000E-03 0.  1.
    9900012    2    1    2    0    0 -0.59280923305E+01 -0.18716013882E+02  0.40542348327E+02  0.46142318051E+02  0.10000002647E+02 0.  0.
        -12    1    1    2    0    0  0.59280923305E+01  0.18716013882E+02 -0.40542348327E+02  0.45045681949E+02  0.00000000000E+00 0.  1.
         11    1    3    3    0    0 -0.21443982921E+01 -0.39032177612E+00  0.78817575179E+01  0.81775850320E+01  0.51100000000E-03 0. -1.
        -11    1    3    3    0    0 -0.28811964071E+01 -0.55411975096E+01  0.13964991057E+02  0.15297945550E+02  0.51100000000E-03 0.  1.
         12    1    3    3    0    0 -0.90249763122E+00 -0.12784494596E+02  0.18695599752E+02  0.22666787469E+02  0.00000000000E+00 0. -1.
</event>
<event>
 7    1  0.5743890E-009  0.4614232E+02  0.7816164E-02  0.1320468E+00
        -11   -1    0    0    0    0  0.00000000000E+00  0.00000000000E+00  0.45593999997E+02  0.45594000000E+02  0.51100000000E-03 0. -1.
         11   -1    0    0    0    0 -0.00000000000E+00 -0.00000000000E+00 -0.45593999997E+02  0.45594000000E+02  0.51100000000E-03 0.  1.
    9900012    2    1    2    0    0  0.36162025415E+02 -0.11779621635E+02 -0.24138390419E+02  0.46142318076E+02  0.10000002868E+02 0.  0.
         12    1    1    2    0    0 -0.36162025415E+02  0.11779621635E+02  0.24138390419E+02  0.45045681924E+02  0.00000000000E+00 0. -1.
         11    1    3    3    0    0  0.49540192983E+01  0.13926957678E+01 -0.22289476505E+01  0.56080403528E+01  0.51100000000E-03 0. -1.
        -11    1    3    3    0    0  0.12748628714E+02 -0.47677716026E+01 -0.11023001757E+02  0.17514729462E+02  0.51100000000E-03 0.  1.
         12    1    3    3    0    0  0.18459377403E+02 -0.84045458003E+01 -0.10886441012E+02  0.23019548261E+02  0.00000000000E+00 0. -1.
</event>
<event>
 7    1  0.5743890E-009  0.4614232E+02  0.7816164E-02  0.1320468E+00
        -11   -1    0    0    0    0  0.00000000000E+00  0.00000000000E+00  0.45593999997E+02  0.45594000000E+02  0.51100000000E-03 0.  1.
         11   -1    0    0    0    0 -0.00000000000E+00 -0.00000000000E+00 -0.45593999997E+02  0.45594000000E+02  0.51100000000E-03 0. -1.
    9900012    2    1    2    0    0 -0.19951638896E+02 -0.22716664023E+02 -0.33391597138E+02  0.46142317872E+02  0.10000001009E+02 0.  0.
         12    1    1    2    0    0  0.19951638896E+02  0.22716664023E+02  0.33391597138E+02  0.45045682128E+02  0.00000000000E+00 0. -1.
         11    1    3    3    0    0 -0.12126523194E+02 -0.10890434495E+02 -0.18431296932E+02  0.24604203606E+02  0.51100000000E-03 0. -1.
        -11    1    3    3    0    0 -0.76656905933E+01 -0.11559912060E+02 -0.15570997147E+02  0.20853065279E+02  0.51100000000E-03 0.  1.
        -12    1    3    3    0    0 -0.15942510907E+00 -0.26631746812E+00  0.61069694139E+00  0.68504898617E+00  0.00000000000E+00 0.  1.
</event>
<event>
 7    1  0.5743890E-009  0.4614232E+02  0.7816164E-02  0.1320468E+00
        -11   -1    0    0    0    0  0.00000000000E+00  0.00000000000E+00  0.45593999997E+02  0.45594000000E+02  0.51100000000E-03 0. -1.
         11   -1    0    0    0    0 -0.00000000000E+00 -0.00000000000E+00 -0.45593999997E+02  0.45594000000E+02  0.51100000000E-03 0.  1.
    9900012    2    1    2    0    0  0.15748769226E+02  0.36618172487E+02 -0.20980924427E+02  0.46142317873E+02  0.10000001022E+02 0.  0.
         12    1    1    2    0    0 -0.15748769226E+02 -0.36618172487E+02  0.20980924427E+02  0.45045682127E+02  0.00000000000E+00 0. -1.
         11    1    3    3    0    0  0.31726916060E+01  0.16474263348E+02 -0.68710954894E+01  0.18129514014E+02  0.51100000000E-03 0. -1.
        -11    1    3    3    0    0  0.11596162821E+02  0.19845298780E+02 -0.14143448806E+02  0.26987849493E+02  0.51100000000E-03 0.  1.
        -12    1    3    3    0    0  0.97991479834E+00  0.29861035904E+00  0.33619867742E-01  0.10249543668E+01  0.00000000000E+00 0.  1.
</event>
<event>
 7    1  0.5743890E-009  0.4614232E+02  0.7816164E-02  0.1320468E+00
        -11   -1    0    0    0    0  0.00000000000E+00  0.00000000000E+00  0.45593999997E+02  0.45594000000E+02  0.51100000000E-03 0. -1.
         11   -1    0    0    0    0 -0.00000000000E+00 -0.00000000000E+00 -0.45593999997E+02  0.45594000000E+02  0.51100000000E-03 0.  1.
    9900012    2    1    2    0    0 -0.74073101204E+01 -0.49624352077E+01 -0.44154496099E+02  0.46142317275E+02  0.99999955656E+01 0.  0.
         12    1    1    2    0    0  0.74073101204E+01  0.49624352077E+01  0.44154496099E+02  0.45045682725E+02  0.00000000000E+00 0. -1.
         11    1    3    3    0    0  0.14637169531E+01  0.46169328527E+00 -0.15959456690E+01  0.22141975630E+01  0.51100000000E-03 0. -1.
        -11    1    3    3    0    0 -0.15601648998E+01  0.23247574702E+00 -0.80426510413E+01  0.81958767390E+01  0.51100000000E-03 0.  1.
         12    1    3    3    0    0 -0.73108621737E+01 -0.56566042400E+01 -0.34515899389E+02  0.35732242973E+02  0.00000000000E+00 0. -1.
</event>
<event>
 7    1  0.5743890E-009  0.4614232E+02  0.7816164E-02  0.1320468E+00
        -11   -1    0    0    0    0  0.00000000000E+00  0.00000000000E+00  0.45593999997E+02  0.45594000000E+02  0.51100000000E-03 0. -1.
         11   -1    0    0    0    0 -0.00000000000E+00 -0.00000000000E+00 -0.45593999997E+02  0.45594000000E+02  0.51100000000E-03 0.  1.
    9900012    2    1    2    0    0 -0.14195259241E+02 -0.14069450931E+00 -0.42750302275E+02  0.46142317360E+02  0.99999963462E+01 0.  0.
         12    1    1    2    0    0  0.14195259241E+02  0.14069450931E+00  0.42750302275E+02  0.45045682640E+02  0.00000000000E+00 0. -1.
         11    1    3    3    0    0  0.26521339903E+00 -0.19599011026E+01 -0.49620763927E+01  0.53416994363E+01  0.51100000000E-03 0. -1.
        -11    1    3    3    0    0 -0.88740618374E+01  0.27742983415E+01 -0.18622552080E+02  0.20814541816E+02  0.51100000000E-03 0.  1.
         12    1    3    3    0    0 -0.55864108031E+01 -0.95509174821E+00 -0.19165673802E+02  0.19986076108E+02  0.00000000000E+00 0. -1.
</event>
<event>
 7    1  0.5743890E-009  0.4614232E+02  0.7816164E-02  0.1320468E+00
        -11   -1    0    0    0    0  0.00000000000E+00  0.00000000000E+00  0.45593999997E+02  0.45594000000E+02  0.51100000000E-03 0. -1.
         11   -1    0    0    0    0 -0.00000000000E+00 -0.00000000000E+00 -0.45593999997E+02  0.45594000000E+02  0.51100000000E-03 0.  1.
    9900012    2    1    2    0    0  0.14017417071E+02  0.11182407385E+02  0.41322867474E+02  0.46142316604E+02  0.99999894526E+01 0.  0.
        -12    1    1    2    0    0 -0.14017417071E+02 -0.11182407385E+02 -0.41322867474E+02  0.45045683396E+02  0.00000000000E+00 0.  1.
         11    1    3    3    0    0  0.63525108410E+00  0.21875968000E+01  0.51192115882E+01  0.56031643956E+01  0.51100000000E-03 0. -1.
        -11    1    3    3    0    0  0.89964217077E+00 -0.11645621494E+01  0.73920746623E+01  0.75371300313E+01  0.51100000000E-03 0.  1.
        -12    1    3    3    0    0  0.12482523816E+02  0.10159372735E+02  0.28811581224E+02  0.33002022177E+02  0.00000000000E+00 0.  1.
</event>
<event>
 7    1  0.5743890E-009  0.4614232E+02  0.7816164E-02  0.1320468E+00
        -11   -1    0    0    0    0  0.00000000000E+00  0.00000000000E+00  0.45593999997E+02  0.45594000000E+02  0.51100000000E-03 0. -1.
         11   -1    0    0    0    0 -0.00000000000E+00 -0.00000000000E+00 -0.45593999997E+02  0.45594000000E+02  0.51100000000E-03 0.  1.
    9900012    2    1    2    0    0  0.13323673164E+02 -0.24805455225E+02  0.35160810577E+02  0.46142317899E+02  0.10000001254E+02 0.  0.
        -12    1    1    2    0    0 -0.13323673164E+02  0.24805455225E+02 -0.35160810577E+02  0.45045682101E+02  0.00000000000E+00 0.  1.
         11    1    3    3    0    0  0.13417060603E+02 -0.16184700331E+02  0.24158414275E+02  0.32024850048E+02  0.51100000000E-03 0. -1.
        -11    1    3    3    0    0 -0.62910113750E+00 -0.24773834878E+01  0.22152338285E+01  0.33823746633E+01  0.51100000000E-03 0.  1.
         12    1    3    3    0    0  0.53571369845E+00 -0.61433714063E+01  0.87871624737E+01  0.10735093187E+02  0.00000000000E+00 0. -1.
</event>
<event>
 7    1  0.7000032E-009  0.4614232E+02  0.7816164E-02  0.1320468E+00
        -11   -1    0    0    0    0  0.00000000000E+00  0.00000000000E+00  0.45593999997E+02  0.45594000000E+02  0.51100000000E-03 0. -1.
         11   -1    0    0    0    0 -0.00000000000E+00 -0.00000000000E+00 -0.45593999997E+02  0.45594000000E+02  0.51100000000E-03 0.  1.
    9900012    2    1    2    0    0  0.13573142048E+01 -0.14239458301E+02  0.42714271336E+02  0.46142318183E+02  0.10000003851E+02 0.  0.
        -12    1    1    2    0    0 -0.13573142048E+01  0.14239458301E+02 -0.42714271336E+02  0.45045681817E+02  0.00000000000E+00 0.  1.
         11    1    3    3    0    0  0.29002247885E+00 -0.28431813684E+01  0.20050969398E+02  0.20253621094E+02  0.51100000000E-03 0. -1.
        -11    1    3    3    0    0  0.75392189712E+00  0.53799331401E-01  0.33496038198E+01  0.34338227394E+01  0.51100000000E-03 0.  1.
        -12    1    3    3    0    0  0.31336982878E+00 -0.11450076264E+02  0.19313698118E+02  0.22454874350E+02  0.00000000000E+00 0.  1.
</event>
<event>
 7    1  0.5743890E-009  0.4614232E+02  0.7816164E-02  0.1320468E+00
        -11   -1    0    0    0    0  0.00000000000E+00  0.00000000000E+00  0.45593999997E+02  0.45594000000E+02  0.51100000000E-03 0. -1.
         11   -1    0    0    0    0 -0.00000000000E+00 -0.00000000000E+00 -0.45593999997E+02  0.45594000000E+02  0.51100000000E-03 0.  1.
    9900012    2    1    2    0    0 -0.35474218926E+02 -0.70953033346E+01  0.26839338918E+02  0.46142315951E+02  0.99999834973E+01 0.  0.
        -12    1    1    2    0    0  0.35474218926E+02  0.70953033346E+01 -0.26839338918E+02  0.45045684049E+02  0.00000000000E+00 0.  1.
         11    1    3    3    0    0 -0.14547588671E+02 -0.35718121358E+01  0.15035089950E+02  0.21223668583E+02  0.51100000000E-03 0. -1.
        -11    1    3    3    0    0 -0.20710405116E+02 -0.37776068105E+01  0.12253871387E+02  0.24358747043E+02  0.51100000000E-03 0.  1.
        -12    1    3    3    0    0 -0.21622513942E+00  0.25411561158E+00 -0.44962241834E+00  0.55990032509E+00  0.00000000000E+00 0.  1.
</event>
<event>
 7    1  0.5743890E-009  0.4614232E+02  0.7816164E-02  0.1320468E+00
        -11   -1    0    0    0    0  0.00000000000E+00  0.00000000000E+00  0.45593999997E+02  0.45594000000E+02  0.51100000000E-03 0. -1.
         11   -1    0    0    0    0 -0.00000000000E+00 -0.00000000000E+00 -0.45593999997E+02  0.45594000000E+02  0.51100000000E-03 0.  1.
    9900012    2    1    2    0    0  0.27854727888E+01  0.35008291008E+02 -0.28209470210E+02  0.46142317549E+02  0.99999980700E+01 0.  0.
         12    1    1    2    0    0 -0.27854727888E+01 -0.35008291008E+02  0.28209470210E+02  0.45045682451E+02  0.00000000000E+00 0. -1.
         11    1    3    3    0    0  0.36268137897E+01  0.10942782629E+02 -0.83895458771E+01  0.14257725983E+02  0.51100000000E-03 0. -1.
        -11    1    3    3    0    0  0.10213506777E+01  0.22197422990E+02 -0.16687108983E+02  0.27788996942E+02  0.51100000000E-03 0.  1.
         12    1    3    3    0    0 -0.18626916786E+01  0.18680853894E+01 -0.31328153493E+01  0.40955946240E+01  0.00000000000E+00 0. -1.
</event>
<event>
 7    1  0.5743890E-009  0.4614232E+02  0.7816164E-02  0.1320468E+00
        -11   -1    0    0    0    0  0.00000000000E+00  0.00000000000E+00  0.45593999997E+02  0.45594000000E+02  0.51100000000E-03 0.  1.
         11   -1    0    0    0    0 -0.00000000000E+00 -0.00000000000E+00 -0.45593999997E+02  0.45594000000E+02  0.51100000000E-03 0. -1.
    9900012    2    1    2    0    0  0.27920934844E+02 -0.20966245677E+02  0.28459645963E+02  0.46142317535E+02  0.99999979401E+01 0.  0.
        -12    1    1    2    0    0 -0.27920934844E+02  0.20966245677E+02 -0.28459645963E+02  0.45045682465E+02  0.00000000000E+00 0.  1.
         11    1    3    3    0    0  0.16287185922E+02 -0.99863176990E+01  0.19583096386E+02  0.27358666465E+02  0.51100000000E-03 0.  1.
        -11    1    3    3    0    0  0.81456163728E+01 -0.48046336114E+01  0.52898677147E+01  0.10835971158E+02  0.51100000000E-03 0. -1.
         12    1    3    3    0    0  0.34881325495E+01 -0.61752943671E+01  0.35866818623E+01  0.79476799121E+01  0.00000000000E+00 0. -1.
</event>
<event>
 7    1  0.5743890E-009  0.4614232E+02  0.7816164E-02  0.1320468E+00
        -11   -1    0    0    0    0  0.00000000000E+00  0.00000000000E+00  0.45593999997E+02  0.45594000000E+02  0.51100000000E-03 0. -1.
         11   -1    0    0    0    0 -0.00000000000E+00 -0.00000000000E+00 -0.45593999997E+02  0.45594000000E+02  0.51100000000E-03 0.  1.
    9900012    2    1    2    0    0 -0.32671980100E+01  0.35981377797E+02 -0.26903147647E+02  0.46142317806E+02  0.10000000411E+02 0.  0.
         12    1    1    2    0    0  0.32671980100E+01 -0.35981377797E+02  0.26903147647E+02  0.45045682194E+02  0.00000000000E+00 0. -1.
         11    1    3    3    0    0 -0.82176409843E-01  0.81812154146E+00  0.29085178829E+00  0.87216445858E+00  0.51100000000E-03 0. -1.
        -11    1    3    3    0    0 -0.40559101086E+01  0.22526361263E+02 -0.13314607321E+02  0.26479541668E+02  0.51100000000E-03 0.  1.
        -12    1    3    3    0    0  0.87088850849E+00  0.12636894992E+02 -0.13879392114E+02  0.18790611680E+02  0.00000000000E+00 0.  1.
</event>
<event>
 7    1  0.5743890E-009  0.4614232E+02  0.7816164E-02  0.1320468E+00
        -11   -1    0    0    0    0  0.00000000000E+00  0.00000000000E+00  0.45593999997E+02  0.45594000000E+02  0.51100000000E-03 0. -1.
         11   -1    0    0    0    0 -0.00000000000E+00 -0.00000000000E+00 -0.45593999997E+02  0.45594000000E+02  0.51100000000E-03 0.  1.
    9900012    2    1    2    0    0 -0.90970598604E+01  0.27662475209E+02 -0.34367781884E+02  0.46142318027E+02  0.10000002427E+02 0.  0.
         12    1    1    2    0    0  0.90970598604E+01 -0.27662475209E+02  0.34367781884E+02  0.45045681973E+02  0.00000000000E+00 0. -1.
         11    1    3    3    0    0  0.17463189496E+01  0.17935114270E+01 -0.37918996943E+01  0.45436567504E+01  0.51100000000E-03 0. -1.
        -11    1    3    3    0    0 -0.78658048760E+01  0.15016687920E+02 -0.18274783810E+02  0.24926683013E+02  0.51100000000E-03 0.  1.
        -12    1    3    3    0    0 -0.29775739339E+01  0.10852275861E+02 -0.12301098379E+02  0.16671978264E+02  0.00000000000E+00 0.  1.
</event>
<event>
 7    1  0.5743890E-009  0.4614232E+02  0.7816164E-02  0.1320468E+00
        -11   -1    0    0    0    0  0.00000000000E+00  0.00000000000E+00  0.45593999997E+02  0.45594000000E+02  0.51100000000E-03 0. -1.
         11   -1    0    0    0    0 -0.00000000000E+00 -0.00000000000E+00 -0.45593999997E+02  0.45594000000E+02  0.51100000000E-03 0.  1.
    9900012    2    1    2    0    0 -0.91338157669E+01 -0.24471528983E+02 -0.36699197942E+02  0.46142318177E+02  0.10000003796E+02 0.  0.
         12    1    1    2    0    0  0.91338157669E+01  0.24471528983E+02  0.36699197942E+02  0.45045681823E+02  0.00000000000E+00 0. -1.
         11    1    3    3    0    0  0.16898933929E+01 -0.40086798432E+01 -0.44283320782E+01  0.62076870910E+01  0.51100000000E-03 0. -1.
        -11    1    3    3    0    0 -0.99424735962E+00 -0.48054310657E+01 -0.85798281832E+01  0.98840349784E+01  0.51100000000E-03 0.  1.
         12    1    3    3    0    0 -0.98294618002E+01 -0.15657418075E+02 -0.23691037681E+02  0.30050596108E+02  0.00000000000E+00 0. -1.
</event>
<event>
 7    1  0.5743890E-009  0.4614230E+02  0.7816164E-02  0.1320468E+00
        -11   -1    0    0    0    0  0.00000000000E+00  0.00000000000E+00  0.45593999997E+02  0.45594000000E+02  0.51100000000E-03 0. -1.
         11   -1    0    0    0    0 -0.00000000000E+00 -0.00000000000E+00 -0.45593999997E+02  0.45594000000E+02  0.51100000000E-03 0.  1.
    9900012    2    1    2    0    0  0.27754797375E+02 -0.26973132517E+02 -0.23048558992E+02  0.46142304016E+02  0.99998746577E+01 0.  0.
         12    1    1    2    0    0 -0.27754797375E+02  0.26973132517E+02  0.23048558992E+02  0.45045695984E+02  0.00000000000E+00 0. -1.
         11    1    3    3    0    0  0.15935692404E+01 -0.84880454150E+00 -0.26465900147E+01  0.32038057121E+01  0.51100000000E-03 0. -1.
        -11    1    3    3    0    0  0.18171524880E+01 -0.15190760169E+01 -0.39708671619E+01  0.46235723622E+01  0.51100000000E-03 0.  1.
        -12    1    3    3    0    0  0.24344075646E+02 -0.24605251959E+02 -0.16431101815E+02  0.38314925941E+02  0.00000000000E+00 0.  1.
</event>
<event>
 7    1  0.5743890E-009  0.4614232E+02  0.7816164E-02  0.1320468E+00
        -11   -1    0    0    0    0  0.00000000000E+00  0.00000000000E+00  0.45593999997E+02  0.45594000000E+02  0.51100000000E-03 0.  1.
         11   -1    0    0    0    0 -0.00000000000E+00 -0.00000000000E+00 -0.45593999997E+02  0.45594000000E+02  0.51100000000E-03 0. -1.
    9900012    2    1    2    0    0  0.42203944410E+02 -0.41252939478E+01 -0.15196135302E+02  0.46142317610E+02  0.99999986210E+01 0.  0.
         12    1    1    2    0    0 -0.42203944410E+02  0.41252939478E+01  0.15196135302E+02  0.45045682390E+02  0.00000000000E+00 0. -1.
         11    1    3    3    0    0  0.24181380474E+01  0.26805867944E-01  0.70878189630E+00  0.25200163112E+01  0.51100000000E-03 0. -1.
        -11    1    3    3    0    0  0.17269308256E+02  0.10430728728E+00 -0.10009937970E+02  0.19960930491E+02  0.51100000000E-03 0.  1.
         12    1    3    3    0    0  0.22516498107E+02 -0.42564071030E+01 -0.58949792282E+01  0.23661370808E+02  0.00000000000E+00 0. -1.
</event>
<event>
 7    1  0.5743890E-009  0.4614231E+02  0.7816164E-02  0.1320468E+00
        -11   -1    0    0    0    0  0.00000000000E+00  0.00000000000E+00  0.45593999997E+02  0.45594000000E+02  0.51100000000E-03 0. -1.
         11   -1    0    0    0    0 -0.00000000000E+00 -0.00000000000E+00 -0.45593999997E+02  0.45594000000E+02  0.51100000000E-03 0.  1.
    9900012    2    1    2    0    0  0.22630849671E+02  0.14584280097E+02  0.36114504209E+02  0.46142312115E+02  0.99999485134E+01 0.  0.
        -12    1    1    2    0    0 -0.22630849671E+02 -0.14584280097E+02 -0.36114504209E+02  0.45045687885E+02  0.00000000000E+00 0.  1.
         11    1    3    3    0    0  0.11094806494E+02  0.69749919732E+01  0.21755974064E+02  0.25398182059E+02  0.51100000000E-03 0. -1.
        -11    1    3    3    0    0  0.82573304394E+00  0.30136825032E+01  0.17797063193E+01  0.35960356136E+01  0.51100000000E-03 0.  1.
        -12    1    3    3    0    0  0.10710310133E+02  0.45956056202E+01  0.12578823825E+02  0.17148094442E+02  0.00000000000E+00 0.  1.
</event>
<event>
 7    1  0.6407204E-009  0.4614232E+02  0.7816164E-02  0.1320468E+00
        -11   -1    0    0    0    0  0.00000000000E+00  0.00000000000E+00  0.45593999997E+02  0.45594000000E+02  0.51100000000E-03 0. -1.
         11   -1    0    0    0    0 -0.00000000000E+00 -0.00000000000E+00 -0.45593999997E+02  0.45594000000E+02  0.51100000000E-03 0.  1.
    9900012    2    1    2    0    0 -0.91604604933E+01 -0.62271958297E+01  0.43662585925E+02  0.46142318587E+02  0.10000007530E+02 0.  0.
        -12    1    1    2    0    0  0.91604604933E+01  0.62271958297E+01 -0.43662585925E+02  0.45045681413E+02  0.00000000000E+00 0.  1.
         11    1    3    3    0    0 -0.13942208882E+01 -0.13546504717E+01  0.11957750836E+02  0.12114732152E+02  0.51100000000E-03 0. -1.
        -11    1    3    3    0    0 -0.58549903372E+01 -0.45501455444E+01  0.31137141698E+02  0.32007910424E+02  0.51100000000E-03 0.  1.
        -12    1    3    3    0    0 -0.19112492679E+01 -0.32239981366E+00  0.56769338999E+00  0.20196760109E+01  0.00000000000E+00 0.  1.
</event>
<event>
 7    1  0.5743890E-009  0.4614232E+02  0.7816164E-02  0.1320468E+00
        -11   -1    0    0    0    0  0.00000000000E+00  0.00000000000E+00  0.45593999997E+02  0.45594000000E+02  0.51100000000E-03 0. -1.
         11   -1    0    0    0    0 -0.00000000000E+00 -0.00000000000E+00 -0.45593999997E+02  0.45594000000E+02  0.51100000000E-03 0.  1.
    9900012    2    1    2    0    0 -0.20181914679E+02  0.40111504995E+02  0.35875729688E+01  0.46142321041E+02  0.10000029906E+02 0.  0.
        -12    1    1    2    0    0  0.20181914679E+02 -0.40111504995E+02 -0.35875729688E+01  0.45045678959E+02  0.00000000000E+00 0.  1.
         11    1    3    3    0    0 -0.91605963703E+01  0.13839857824E+02 -0.70771969791E+00  0.16612015467E+02  0.51100000000E-03 0. -1.
        -11    1    3    3    0    0 -0.35217144595E+01  0.10760896387E+02 -0.13444012449E+01  0.11402051515E+02  0.51100000000E-03 0.  1.
         12    1    3    3    0    0 -0.74996038494E+01  0.15510750784E+02  0.56396939116E+01  0.18128254058E+02  0.00000000000E+00 0. -1.
</event>
<event>
 7    1  0.5743890E-009  0.4614232E+02  0.7816164E-02  0.1320468E+00
        -11   -1    0    0    0    0  0.00000000000E+00  0.00000000000E+00  0.45593999997E+02  0.45594000000E+02  0.51100000000E-03 0.  1.
         11   -1    0    0    0    0 -0.00000000000E+00 -0.00000000000E+00 -0.45593999997E+02  0.45594000000E+02  0.51100000000E-03 0. -1.
    9900012    2    1    2    0    0 -0.48205127596E+01  0.43782690378E+02  0.94314461681E+01  0.46142317668E+02  0.99999991482E+01 0.  0.
        -12    1    1    2    0    0  0.48205127596E+01 -0.43782690378E+02 -0.94314461681E+01  0.45045682332E+02  0.00000000000E+00 0.  1.
         11    1    3    3    0    0 -0.19841332967E+01  0.19772545259E+02  0.75598188127E+00  0.19886222362E+02  0.51100000000E-03 0. -1.
        -11    1    3    3    0    0 -0.27224420546E+01  0.93432667655E+01  0.12361628180E+01  0.98100164814E+01  0.51100000000E-03 0.  1.
         12    1    3    3    0    0 -0.11393740832E+00  0.14666878353E+02  0.74393014689E+01  0.16446078825E+02  0.00000000000E+00 0. -1.
</event>
<event>
 7    1  0.5743890E-009  0.4614232E+02  0.7816164E-02  0.1320468E+00
        -11   -1    0    0    0    0  0.00000000000E+00  0.00000000000E+00  0.45593999997E+02  0.45594000000E+02  0.51100000000E-03 0. -1.
         11   -1    0    0    0    0 -0.00000000000E+00 -0.00000000000E+00 -0.45593999997E+02  0.45594000000E+02  0.51100000000E-03 0.  1.
    9900012    2    1    2    0    0 -0.13852150634E+02 -0.21037088685E+02  0.37345308185E+02  0.46142320729E+02  0.10000027062E+02 0.  0.
        -12    1    1    2    0    0  0.13852150634E+02  0.21037088685E+02 -0.37345308185E+02  0.45045679271E+02  0.00000000000E+00 0.  1.
         11    1    3    3    0    0 -0.43128084345E+01 -0.62403412033E+00  0.45128284571E+01  0.62733847419E+01  0.51100000000E-03 0.  1.
        -11    1    3    3    0    0 -0.37900428943E+01 -0.69280534928E+01  0.10122136715E+02  0.12838224265E+02  0.51100000000E-03 0. -1.
         12    1    3    3    0    0 -0.57492993049E+01 -0.13485001072E+02  0.22710343013E+02  0.27030711722E+02  0.00000000000E+00 0. -1.
</event>
<event>
 7    1  0.5743890E-009  0.4614232E+02  0.7816164E-02  0.1320468E+00
        -11   -1    0    0    0    0  0.00000000000E+00  0.00000000000E+00  0.45593999997E+02  0.45594000000E+02  0.51100000000E-03 0. -1.
         11   -1    0    0    0    0 -0.00000000000E+00 -0.00000000000E+00 -0.45593999997E+02  0.45594000000E+02  0.51100000000E-03 0.  1.
    9900012    2    1    2    0    0  0.31213417803E+02 -0.25393054060E+02  0.20249170956E+02  0.46142316856E+02  0.99999917491E+01 0.  0.
        -12    1    1    2    0    0 -0.31213417803E+02  0.25393054060E+02 -0.20249170956E+02  0.45045683144E+02  0.00000000000E+00 0.  1.
         11    1    3    3    0    0  0.95453239977E+01 -0.62485701406E+01  0.62267641239E+01  0.12997323984E+02  0.51100000000E-03 0. -1.
        -11    1    3    3    0    0  0.64895040890E+01 -0.43615196571E+01  0.78422999713E+01  0.11074212665E+02  0.51100000000E-03 0.  1.
        -12    1    3    3    0    0  0.15178589716E+02 -0.14782964263E+02  0.61801068612E+01  0.22070780208E+02  0.00000000000E+00 0.  1.
</event>
<event>
 7    1  0.5743890E-009  0.4614232E+02  0.7816164E-02  0.1320468E+00
        -11   -1    0    0    0    0  0.00000000000E+00  0.00000000000E+00  0.45593999997E+02  0.45594000000E+02  0.51100000000E-03 0. -1.
         11   -1    0    0    0    0 -0.00000000000E+00 -0.00000000000E+00 -0.45593999997E+02  0.45594000000E+02  0.51100000000E-03 0.  1.
    9900012    2    1    2    0    0  0.26614652988E+02 -0.34464180420E+02  0.11532300430E+02  0.46142318310E+02  0.10000005001E+02 0.  0.
         12    1    1    2    0    0 -0.26614652988E+02  0.34464180420E+02 -0.11532300430E+02  0.45045681690E+02  0.00000000000E+00 0. -1.
         11    1    3    3    0    0  0.10703546793E+02 -0.83073546365E+01  0.62324590005E+01  0.14913805700E+02  0.51100000000E-03 0.  1.
        -11    1    3    3    0    0  0.75566997769E+01 -0.11532197506E+02  0.87998938515E+00  0.13815559070E+02  0.51100000000E-03 0. -1.
        -12    1    3    3    0    0  0.83544064185E+01 -0.14624628278E+02  0.44198520445E+01  0.17412953539E+02  0.00000000000E+00 0.  1.
</event>
<event>
 7    1  0.5743890E-009  0.4614232E+02  0.7816164E-02  0.1320468E+00
        -11   -1    0    0    0    0  0.00000000000E+00  0.00000000000E+00  0.45593999997E+02  0.45594000000E+02  0.51100000000E-03 0. -1.
         11   -1    0    0    0    0 -0.00000000000E+00 -0.00000000000E+00 -0.45593999997E+02  0.45594000000E+02  0.51100000000E-03 0.  1.
    9900012    2    1    2    0    0  0.15240125908E+02 -0.19339762870E+02 -0.37720360160E+02  0.46142318341E+02  0.10000005285E+02 0.  0.
         12    1    1    2    0    0 -0.15240125908E+02  0.19339762870E+02  0.37720360160E+02  0.45045681659E+02  0.00000000000E+00 0. -1.
         11    1    3    3    0    0 -0.27940725686E+00 -0.12284572125E+01 -0.34039173833E+00  0.13050066416E+01  0.51100000000E-03 0. -1.
        -11    1    3    3    0    0  0.88980879526E+01 -0.57025812386E+01 -0.18317125546E+02  0.21147399143E+02  0.51100000000E-03 0.  1.
        -12    1    3    3    0    0  0.66214452127E+01 -0.12408724419E+02 -0.19062842876E+02  0.23689912556E+02  0.00000000000E+00 0.  1.
</event>
<event>
 7    1  0.5743890E-009  0.4614232E+02  0.7816164E-02  0.1320468E+00
        -11   -1    0    0    0    0  0.00000000000E+00  0.00000000000E+00  0.45593999997E+02  0.45594000000E+02  0.51100000000E-03 0. -1.
         11   -1    0    0    0    0 -0.00000000000E+00 -0.00000000000E+00 -0.45593999997E+02  0.45594000000E+02  0.51100000000E-03 0.  1.
    9900012    2    1    2    0    0  0.14354058848E+02  0.64030617665E+01 -0.42214636027E+02  0.46142315409E+02  0.99999785510E+01 0.  0.
         12    1    1    2    0    0 -0.14354058848E+02 -0.64030617665E+01  0.42214636027E+02  0.45045684591E+02  0.00000000000E+00 0. -1.
         11    1    3    3    0    0  0.72670580090E+01  0.62609249832E+01 -0.18538806920E+02  0.20873348462E+02  0.51100000000E-03 0. -1.
        -11    1    3    3    0    0  0.23633910389E+01 -0.10352323494E+01 -0.26959023718E+01  0.37316501818E+01  0.51100000000E-03 0.  1.
         12    1    3    3    0    0  0.47236098003E+01  0.11773691327E+01 -0.20979926735E+02  0.21537316765E+02  0.00000000000E+00 0. -1.
</event>
<event>
 7    1  0.5743890E-009  0.4614232E+02  0.7816164E-02  0.1320468E+00
        -11   -1    0    0    0    0  0.00000000000E+00  0.00000000000E+00  0.45593999997E+02  0.45594000000E+02  0.51100000000E-03 0. -1.
         11   -1    0    0    0    0 -0.00000000000E+00 -0.00000000000E+00 -0.45593999997E+02  0.45594000000E+02  0.51100000000E-03 0.  1.
    9900012    2    1    2    0    0 -0.28605945940E+01 -0.26967046453E+02  0.35968164943E+02  0.46142317796E+02  0.10000000318E+02 0.  0.
        -12    1    1    2    0    0  0.28605945940E+01  0.26967046453E+02 -0.35968164943E+02  0.45045682204E+02  0.00000000000E+00 0.  1.
         11    1    3    3    0    0 -0.28590697440E+01 -0.91413025348E+01  0.67872973363E+01  0.11739041580E+02  0.51100000000E-03 0.  1.
        -11    1    3    3    0    0  0.51136276936E+00 -0.10327815683E+02  0.13415020569E+02  0.16937769800E+02  0.51100000000E-03 0. -1.
        -12    1    3    3    0    0 -0.51288761940E+00 -0.74979282351E+01  0.15765847038E+02  0.17465506415E+02  0.00000000000E+00 0.  1.
</event>
<event>
 7    1  0.5935564E-009  0.4614232E+02  0.7816164E-02  0.1320468E+00
        -11   -1    0    0    0    0  0.00000000000E+00  0.00000000000E+00  0.45593999997E+02  0.45594000000E+02  0.51100000000E-03 0. -1.
         11   -1    0    0    0    0 -0.00000000000E+00 -0.00000000000E+00 -0.45593999997E+02  0.45594000000E+02  0.51100000000E-03 0.  1.
    9900012    2    1    2    0    0 -0.11710474829E+02 -0.81295207507E+01  0.42730423842E+02  0.46142318187E+02  0.10000003879E+02 0.  0.
        -12    1    1    2    0    0  0.11710474829E+02  0.81295207507E+01 -0.42730423842E+02  0.45045681813E+02  0.00000000000E+00 0.  1.
         11    1    3    3    0    0 -0.52252681622E+01 -0.35501323383E+01  0.12999633231E+02  0.14453280991E+02  0.51100000000E-03 0.  1.
        -11    1    3    3    0    0 -0.43201154215E+01 -0.66678639841E+01  0.20840704545E+02  0.22303783839E+02  0.51100000000E-03 0. -1.
        -12    1    3    3    0    0 -0.21650912458E+01  0.20884755717E+01  0.88900860651E+01  0.93852533563E+01  0.00000000000E+00 0.  1.
</event>
<event>
 7    1  0.5743890E-009  0.4614232E+02  0.7816164E-02  0.1320468E+00
        -11   -1    0    0    0    0  0.00000000000E+00  0.00000000000E+00  0.45593999997E+02  0.45594000000E+02  0.51100000000E-03 0. -1.
         11   -1    0    0    0    0 -0.00000000000E+00 -0.00000000000E+00 -0.45593999997E+02  0.45594000000E+02  0.51100000000E-03 0.  1.
    9900012    2    1    2    0    0  0.15796863106E+01 -0.12299311299E+02 -0.43305253294E+02  0.46142318408E+02  0.10000005896E+02 0.  0.
         12    1    1    2    0    0 -0.15796863106E+01  0.12299311299E+02  0.43305253294E+02  0.45045681592E+02  0.00000000000E+00 0. -1.
         11    1    3    3    0    0 -0.99896590160E+00 -0.26588806286E+01 -0.32155491509E+01  0.42903771014E+01  0.51100000000E-03 0. -1.
        -11    1    3    3    0    0 -0.20710334515E+00 -0.78892157597E-01 -0.12797842470E+02  0.12799761244E+02  0.51100000000E-03 0.  1.
         12    1    3    3    0    0  0.27857555574E+01 -0.95615385129E+01 -0.27291861673E+02  0.29052180062E+02  0.00000000000E+00 0. -1.
</event>
<event>
 7    1  0.5743890E-009  0.4614232E+02  0.7816164E-02  0.1320468E+00
        -11   -1    0    0    0    0  0.00000000000E+00  0.00000000000E+00  0.45593999997E+02  0.45594000000E+02  0.51100000000E-03 0. -1.
         11   -1    0    0    0    0 -0.00000000000E+00 -0.00000000000E+00 -0.45593999997E+02  0.45594000000E+02  0.51100000000E-03 0.  1.
    9900012    2    1    2    0    0  0.28511506331E+02 -0.57957121910E+01 -0.34389202228E+02  0.46142317599E+02  0.99999985256E+01 0.  0.
         12    1    1    2    0    0 -0.28511506331E+02  0.57957121910E+01  0.34389202228E+02  0.45045682401E+02  0.00000000000E+00 0. -1.
         11    1    3    3    0    0  0.58436371957E+00  0.36525241840E+00  0.23293714822E+00  0.72742715239E+00  0.51100000000E-03 0. -1.
        -11    1    3    3    0    0  0.47748720976E+01 -0.19731024168E+01 -0.29157088715E+01  0.59324442838E+01  0.51100000000E-03 0.  1.
        -12    1    3    3    0    0  0.23152270514E+02 -0.41878621926E+01 -0.31706430505E+02  0.39482446163E+02  0.00000000000E+00 0.  1.
</event>
<event>
 7    1  0.5743890E-009  0.4614232E+02  0.7816164E-02  0.1320468E+00
        -11   -1    0    0    0    0  0.00000000000E+00  0.00000000000E+00  0.45593999997E+02  0.45594000000E+02  0.51100000000E-03 0. -1.
         11   -1    0    0    0    0 -0.00000000000E+00 -0.00000000000E+00 -0.45593999997E+02  0.45594000000E+02  0.51100000000E-03 0.  1.
    9900012    2    1    2    0    0 -0.53259690828E+01 -0.13925437647E+02 -0.42506820460E+02  0.46142317122E+02  0.99999941717E+01 0.  0.
         12    1    1    2    0    0  0.53259690828E+01  0.13925437647E+02  0.42506820460E+02  0.45045682878E+02  0.00000000000E+00 0. -1.
         11    1    3    3    0    0 -0.64587653236E+01 -0.76044667073E+01 -0.32396231786E+02  0.33897778653E+02  0.51100000000E-03 0. -1.
        -11    1    3    3    0    0  0.47933811897E+00 -0.53934767138E+01 -0.95518359081E+01  0.10979841783E+02  0.51100000000E-03 0.  1.
         12    1    3    3    0    0  0.65345812181E+00 -0.92749422547E+00 -0.55875276606E+00  0.12646966865E+01  0.00000000000E+00 0. -1.
</event>
<event>
 7    1  0.5743890E-009  0.4614232E+02  0.7816164E-02  0.1320468E+00
        -11   -1    0    0    0    0  0.00000000000E+00  0.00000000000E+00  0.45593999997E+02  0.45594000000E+02  0.51100000000E-03 0. -1.
         11   -1    0    0    0    0 -0.00000000000E+00 -0.00000000000E+00 -0.45593999997E+02  0.45594000000E+02  0.51100000000E-03 0.  1.
    9900012    2    1    2    0    0 -0.41625738784E+02 -0.11997211881E+02  0.12348207463E+02  0.46142318189E+02  0.10000003902E+02 0.  0.
        -12    1    1    2    0    0  0.41625738784E+02  0.11997211881E+02 -0.12348207463E+02  0.45045681811E+02  0.00000000000E+00 0.  1.
         11    1    3    3    0    0 -0.13994597136E+02 -0.78271945120E+01  0.75716570984E+01  0.17732560853E+02  0.51100000000E-03 0. -1.
        -11    1    3    3    0    0 -0.17955758163E+02 -0.35498750225E+01  0.34199907491E+01  0.18620075211E+02  0.51100000000E-03 0.  1.
         12    1    3    3    0    0 -0.96753834846E+01 -0.62014234652E+00  0.13565596160E+01  0.97896821244E+01  0.00000000000E+00 0. -1.
</event>
<event>
 7    1  0.5743890E-009  0.4614232E+02  0.7816164E-02  0.1320468E+00
        -11   -1    0    0    0    0  0.00000000000E+00  0.00000000000E+00  0.45593999997E+02  0.45594000000E+02  0.51100000000E-03 0. -1.
         11   -1    0    0    0    0 -0.00000000000E+00 -0.00000000000E+00 -0.45593999997E+02  0.45594000000E+02  0.51100000000E-03 0.  1.
    9900012    2    1    2    0    0 -0.64242501497E+01 -0.43346558001E+02 -0.10436401738E+02  0.46142316947E+02  0.99999925722E+01 0.  0.
         12    1    1    2    0    0  0.64242501497E+01  0.43346558001E+02  0.10436401738E+02  0.45045683053E+02  0.00000000000E+00 0. -1.
         11    1    3    3    0    0 -0.22772826194E+01 -0.29674175241E+02 -0.42706669400E+01  0.30066281592E+02  0.51100000000E-03 0. -1.
        -11    1    3    3    0    0  0.23533777147E+00 -0.45911118854E+00 -0.11821957946E+01  0.12898659264E+01  0.51100000000E-03 0.  1.
         12    1    3    3    0    0 -0.43823053017E+01 -0.13213271571E+02 -0.49835390032E+01  0.14786169428E+02  0.00000000000E+00 0. -1.
</event>
<event>
 7    1  0.5743890E-009  0.4614232E+02  0.7816164E-02  0.1320468E+00
        -11   -1    0    0    0    0  0.00000000000E+00  0.00000000000E+00  0.45593999997E+02  0.45594000000E+02  0.51100000000E-03 0. -1.
         11   -1    0    0    0    0 -0.00000000000E+00 -0.00000000000E+00 -0.45593999997E+02  0.45594000000E+02  0.51100000000E-03 0.  1.
    9900012    2    1    2    0    0 -0.10774590900E+02 -0.16528766210E+02 -0.40494710729E+02  0.46142317427E+02  0.99999969520E+01 0.  0.
         12    1    1    2    0    0  0.10774590900E+02  0.16528766210E+02  0.40494710729E+02  0.45045682573E+02  0.00000000000E+00 0. -1.
         11    1    3    3    0    0 -0.49703244250E+01 -0.50268493967E+01 -0.20745971362E+02  0.21917314338E+02  0.51100000000E-03 0.  1.
        -11    1    3    3    0    0 -0.23113466919E+01 -0.42267328017E+00 -0.25178547599E+01  0.34439176943E+01  0.51100000000E-03 0. -1.
        -12    1    3    3    0    0 -0.34929197829E+01 -0.11079243533E+02 -0.17230884607E+02  0.20781085395E+02  0.00000000000E+00 0.  1.
</event>
<event>
 7    1  0.5743890E-009  0.4614232E+02  0.7816164E-02  0.1320468E+00
        -11   -1    0    0    0    0  0.00000000000E+00  0.00000000000E+00  0.45593999997E+02  0.45594000000E+02  0.51100000000E-03 0. -1.
         11   -1    0    0    0    0 -0.00000000000E+00 -0.00000000000E+00 -0.45593999997E+02  0.45594000000E+02  0.51100000000E-03 0.  1.
    9900012    2    1    2    0    0 -0.18617760716E+02 -0.29529049824E+02 -0.28469766027E+02  0.46142319018E+02  0.10000011458E+02 0.  0.
         12    1    1    2    0    0  0.18617760716E+02  0.29529049824E+02  0.28469766027E+02  0.45045680982E+02  0.00000000000E+00 0. -1.
         11    1    3    3    0    0  0.31205219871E+00  0.12175304117E+00 -0.21265423156E+01  0.21527616818E+01  0.51100000000E-03 0. -1.
        -11    1    3    3    0    0 -0.90931278616E+01 -0.15899223631E+02 -0.14105092146E+02  0.23117610410E+02  0.51100000000E-03 0.  1.
         12    1    3    3    0    0 -0.98366850530E+01 -0.13751579234E+02 -0.12238131565E+02  0.20871946925E+02  0.00000000000E+00 0. -1.
</event>
<event>
 7    1  0.5743890E-009  0.4614232E+02  0.7816164E-02  0.1320468E+00
        -11   -1    0    0    0    0  0.00000000000E+00  0.00000000000E+00  0.45593999997E+02  0.45594000000E+02  0.51100000000E-03 0.  1.
         11   -1    0    0    0    0 -0.00000000000E+00 -0.00000000000E+00 -0.45593999997E+02  0.45594000000E+02  0.51100000000E-03 0. -1.
    9900012    2    1    2    0    0  0.43665287899E+02  0.62185760182E+01  0.91534378900E+01  0.46142317852E+02  0.10000000829E+02 0.  0.
         12    1    1    2    0    0 -0.43665287899E+02 -0.62185760182E+01 -0.91534378900E+01  0.45045682148E+02  0.00000000000E+00 0. -1.
         11    1    3    3    0    0  0.22854743732E+02  0.36681639304E+01  0.20523705828E+01  0.23238049896E+02  0.51100000000E-03 0. -1.
        -11    1    3    3    0    0  0.16312375198E+02  0.36736883026E+01  0.36244125104E+01  0.17109235419E+02  0.51100000000E-03 0.  1.
         12    1    3    3    0    0  0.44981689690E+01 -0.11232762147E+01  0.34766547968E+01  0.57950325370E+01  0.00000000000E+00 0. -1.
</event>
<event>
 7    1  0.5743890E-009  0.4614232E+02  0.7816164E-02  0.1320468E+00
        -11   -1    0    0    0    0  0.00000000000E+00  0.00000000000E+00  0.45593999997E+02  0.45594000000E+02  0.51100000000E-03 0. -1.
         11   -1    0    0    0    0 -0.00000000000E+00 -0.00000000000E+00 -0.45593999997E+02  0.45594000000E+02  0.51100000000E-03 0.  1.
    9900012    2    1    2    0    0  0.28792570527E+02  0.41649780221E+00 -0.34639974726E+02  0.46142318332E+02  0.10000005202E+02 0.  0.
         12    1    1    2    0    0 -0.28792570527E+02 -0.41649780221E+00  0.34639974726E+02  0.45045681668E+02  0.00000000000E+00 0. -1.
         11    1    3    3    0    0  0.27941543433E+01 -0.22042366449E+01 -0.20190812527E+01  0.40917779812E+01  0.51100000000E-03 0. -1.
        -11    1    3    3    0    0  0.83167103239E+01  0.28513053772E+01 -0.12191759854E+02  0.15031188295E+02  0.51100000000E-03 0.  1.
        -12    1    3    3    0    0  0.17681705860E+02 -0.23057093008E+00 -0.20429133619E+02  0.27019352055E+02  0.00000000000E+00 0.  1.
</event>
<event>
 7    1  0.5743890E-009  0.4614232E+02  0.7816164E-02  0.1320468E+00
        -11   -1    0    0    0    0  0.00000000000E+00  0.00000000000E+00  0.45593999997E+02  0.45594000000E+02  0.51100000000E-03 0. -1.
         11   -1    0    0    0    0 -0.00000000000E+00 -0.00000000000E+00 -0.45593999997E+02  0.45594000000E+02  0.51100000000E-03 0.  1.
    9900012    2    1    2    0    0 -0.30459742902E+02 -0.19365512128E+02 -0.26949849747E+02  0.46142318753E+02  0.10000009045E+02 0.  0.
         12    1    1    2    0    0  0.30459742902E+02  0.19365512128E+02  0.26949849747E+02  0.45045681247E+02  0.00000000000E+00 0. -1.
         11    1    3    3    0    0 -0.11423453132E+02 -0.12038949719E+02 -0.99337411616E+01  0.19341944203E+02  0.51100000000E-03 0. -1.
        -11    1    3    3    0    0 -0.10528980797E+02 -0.45667765475E+01 -0.73358931122E+01  0.13620947569E+02  0.51100000000E-03 0.  1.
        -12    1    3    3    0    0 -0.85073089724E+01 -0.27597858611E+01 -0.96802154735E+01  0.13179426982E+02  0.00000000000E+00 0.  1.
</event>
<event>
 7    1  0.5743890E-009  0.4614232E+02  0.7816164E-02  0.1320468E+00
        -11   -1    0    0    0    0  0.00000000000E+00  0.00000000000E+00  0.45593999997E+02  0.45594000000E+02  0.51100000000E-03 0. -1.
         11   -1    0    0    0    0 -0.00000000000E+00 -0.00000000000E+00 -0.45593999997E+02  0.45594000000E+02  0.51100000000E-03 0.  1.
    9900012    2    1    2    0    0 -0.38121722252E+02 -0.13993075819E+02  0.19494656185E+02  0.46142317653E+02  0.99999990145E+01 0.  0.
        -12    1    1    2    0    0  0.38121722252E+02  0.13993075819E+02 -0.19494656185E+02  0.45045682347E+02  0.00000000000E+00 0.  1.
         11    1    3    3    0    0 -0.20042592423E+02 -0.90115703444E+01  0.79725472238E+01  0.23376813739E+02  0.51100000000E-03 0. -1.
        -11    1    3    3    0    0 -0.32063532792E+01  0.11511836112E+01  0.10305853348E+01  0.35592178145E+01  0.51100000000E-03 0.  1.
        -12    1    3    3    0    0 -0.14872776550E+02 -0.61326890862E+01  0.10491523626E+02  0.19206286099E+02  0.00000000000E+00 0.  1.
</event>
<event>
 7    1  0.5743890E-009  0.4614232E+02  0.7816164E-02  0.1320468E+00
        -11   -1    0    0    0    0  0.00000000000E+00  0.00000000000E+00  0.45593999997E+02  0.45594000000E+02  0.51100000000E-03 0. -1.
         11   -1    0    0    0    0 -0.00000000000E+00 -0.00000000000E+00 -0.45593999997E+02  0.45594000000E+02  0.51100000000E-03 0.  1.
    9900012    2    1    2    0    0 -0.26277210429E+02  0.20088648782E+02 -0.30578879840E+02  0.46142317742E+02  0.99999998233E+01 0.  0.
         12    1    1    2    0    0  0.26277210429E+02 -0.20088648782E+02  0.30578879840E+02  0.45045682258E+02  0.00000000000E+00 0. -1.
         11    1    3    3    0    0 -0.42101126739E+01  0.28476018823E+01 -0.18592280183E+01  0.54120804034E+01  0.51100000000E-03 0. -1.
        -11    1    3    3    0    0 -0.88704504233E+01  0.55866078866E+01 -0.63248471473E+01  0.12243315323E+02  0.51100000000E-03 0.  1.
        -12    1    3    3    0    0 -0.13196647332E+02  0.11654439013E+02 -0.22394804675E+02  0.28486922016E+02  0.00000000000E+00 0.  1.
</event>
<event>
 7    1  0.7616520E-009  0.4614232E+02  0.7816164E-02  0.1320468E+00
        -11   -1    0    0    0    0  0.00000000000E+00  0.00000000000E+00  0.45593999997E+02  0.45594000000E+02  0.51100000000E-03 0. -1.
         11   -1    0    0    0    0 -0.00000000000E+00 -0.00000000000E+00 -0.45593999997E+02  0.45594000000E+02  0.51100000000E-03 0.  1.
    9900012    2    1    2    0    0 -0.91601210318E+01  0.61387373815E+01  0.43675183153E+02  0.46142317217E+02  0.99999950352E+01 0.  0.
        -12    1    1    2    0    0  0.91601210318E+01 -0.61387373815E+01 -0.43675183153E+02  0.45045682783E+02  0.00000000000E+00 0.  1.
         11    1    3    3    0    0 -0.51143391561E+01  0.41306111518E+01  0.26724356341E+02  0.27521076207E+02  0.51100000000E-03 0. -1.
        -11    1    3    3    0    0 -0.27051002194E+01  0.39895134946E+01  0.78545310150E+01  0.92156086531E+01  0.51100000000E-03 0.  1.
        -12    1    3    3    0    0 -0.13406816563E+01 -0.19813872649E+01  0.90962957976E+01  0.94056323570E+01  0.00000000000E+00 0.  1.
</event>
<event>
 7    1  0.5743890E-009  0.4614232E+02  0.7816164E-02  0.1320468E+00
        -11   -1    0    0    0    0  0.00000000000E+00  0.00000000000E+00  0.45593999997E+02  0.45594000000E+02  0.51100000000E-03 0. -1.
         11   -1    0    0    0    0 -0.00000000000E+00 -0.00000000000E+00 -0.45593999997E+02  0.45594000000E+02  0.51100000000E-03 0.  1.
    9900012    2    1    2    0    0  0.30359539123E+02 -0.95684006799E+01  0.31872515827E+02  0.46142321268E+02  0.10000031975E+02 0.  0.
        -12    1    1    2    0    0 -0.30359539123E+02  0.95684006799E+01 -0.31872515827E+02  0.45045678732E+02  0.00000000000E+00 0.  1.
         11    1    3    3    0    0  0.63249194665E+01 -0.25421643260E+01  0.53292811934E+01  0.86526553160E+01  0.51100000000E-03 0. -1.
        -11    1    3    3    0    0  0.13078730638E+02 -0.17795839642E+01  0.19186526096E+02  0.23288256656E+02  0.51100000000E-03 0.  1.
        -12    1    3    3    0    0  0.10955889018E+02 -0.52466523896E+01  0.73567085382E+01  0.14201409296E+02  0.00000000000E+00 0.  1.
</event>
<event>
 7    1  0.5743890E-009  0.4614232E+02  0.7816164E-02  0.1320468E+00
        -11   -1    0    0    0    0  0.00000000000E+00  0.00000000000E+00  0.45593999997E+02  0.45594000000E+02  0.51100000000E-03 0.  1.
         11   -1    0    0    0    0 -0.00000000000E+00 -0.00000000000E+00 -0.45593999997E+02  0.45594000000E+02  0.51100000000E-03 0. -1.
    9900012    2    1    2    0    0 -0.44092987298E+02  0.77168961533E+01 -0.50369976672E+01  0.46142319180E+02  0.10000012934E+02 0.  0.
        -12    1    1    2    0    0  0.44092987298E+02 -0.77168961533E+01  0.50369976672E+01  0.45045680820E+02  0.00000000000E+00 0.  1.
         11    1    3    3    0    0 -0.24372519248E+02  0.29715051593E+01 -0.51722730882E+01  0.25091870129E+02  0.51100000000E-03 0. -1.
        -11    1    3    3    0    0 -0.78885870113E+01  0.30713152110E+01 -0.24733399119E+01  0.88193079514E+01  0.51100000000E-03 0.  1.
        -12    1    3    3    0    0 -0.11831881038E+02  0.16740757830E+01  0.26086153329E+01  0.12231141099E+02  0.00000000000E+00 0.  1.
</event>
<event>
 7    1  0.5743890E-009  0.4614232E+02  0.7816164E-02  0.1320468E+00
        -11   -1    0    0    0    0  0.00000000000E+00  0.00000000000E+00  0.45593999997E+02  0.45594000000E+02  0.51100000000E-03 0. -1.
         11   -1    0    0    0    0 -0.00000000000E+00 -0.00000000000E+00 -0.45593999997E+02  0.45594000000E+02  0.51100000000E-03 0.  1.
    9900012    2    1    2    0    0  0.24968647534E+02  0.28079205366E+02 -0.24844282973E+02  0.46142317298E+02  0.99999957764E+01 0.  0.
         12    1    1    2    0    0 -0.24968647534E+02 -0.28079205366E+02  0.24844282973E+02  0.45045682702E+02  0.00000000000E+00 0. -1.
         11    1    3    3    0    0  0.53902359852E+01  0.10573187818E+02 -0.98479735068E+01  0.15421722571E+02  0.51100000000E-03 0. -1.
        -11    1    3    3    0    0  0.11789444105E+02  0.86313272050E+01 -0.10874555290E+02  0.18213916510E+02  0.51100000000E-03 0.  1.
        -12    1    3    3    0    0  0.77889674430E+01  0.88746903436E+01 -0.41217541761E+01  0.12506678217E+02  0.00000000000E+00 0.  1.
</event>
<event>
 7    1  0.5743890E-009  0.4614233E+02  0.7816164E-02  0.1320468E+00
        -11   -1    0    0    0    0  0.00000000000E+00  0.00000000000E+00  0.45593999997E+02  0.45594000000E+02  0.51100000000E-03 0. -1.
         11   -1    0    0    0    0 -0.00000000000E+00 -0.00000000000E+00 -0.45593999997E+02  0.45594000000E+02  0.51100000000E-03 0.  1.
    9900012    2    1    2    0    0 -0.24791042932E+02  0.59313641425E+01 -0.37139409856E+02  0.46142327015E+02  0.10000084385E+02 0.  0.
         12    1    1    2    0    0  0.24791042932E+02 -0.59313641425E+01  0.37139409856E+02  0.45045672985E+02  0.00000000000E+00 0. -1.
         11    1    3    3    0    0 -0.81122973364E+01  0.61633119221E+01 -0.11564630935E+02  0.15412218233E+02  0.51100000000E-03 0. -1.
        -11    1    3    3    0    0 -0.14329975513E+02 -0.43507871502E+00 -0.19415200168E+02  0.24134777594E+02  0.51100000000E-03 0.  1.
        -12    1    3    3    0    0 -0.23487700826E+01  0.20313093540E+00 -0.61595787527E+01  0.65953311887E+01  0.00000000000E+00 0.  1.
</event>
<event>
 7    1  0.5743890E-009  0.4614232E+02  0.7816164E-02  0.1320468E+00
        -11   -1    0    0    0    0  0.00000000000E+00  0.00000000000E+00  0.45593999997E+02  0.45594000000E+02  0.51100000000E-03 0. -1.
         11   -1    0    0    0    0 -0.00000000000E+00 -0.00000000000E+00 -0.45593999997E+02  0.45594000000E+02  0.51100000000E-03 0.  1.
    9900012    2    1    2    0    0  0.29797176955E+02 -0.26909655698E+02  0.20423324359E+02  0.46142317608E+02  0.99999986012E+01 0.  0.
        -12    1    1    2    0    0 -0.29797176955E+02  0.26909655698E+02 -0.20423324359E+02  0.45045682392E+02  0.00000000000E+00 0.  1.
         11    1    3    3    0    0  0.27134231362E+02 -0.24669136851E+02  0.17213951139E+02  0.40511145857E+02  0.51100000000E-03 0.  1.
        -11    1    3    3    0    0  0.12333687393E+01 -0.26563189015E+01  0.28776171220E+01  0.41058384181E+01  0.51100000000E-03 0. -1.
        -12    1    3    3    0    0  0.14295768544E+01  0.41580005414E+00  0.33175609841E+00  0.15253333330E+01  0.00000000000E+00 0.  1.
</event>
<event>
 7    1  0.6164152E-009  0.4614232E+02  0.7816164E-02  0.1320468E+00
        -11   -1    0    0    0    0  0.00000000000E+00  0.00000000000E+00  0.45593999997E+02  0.45594000000E+02  0.51100000000E-03 0. -1.
         11   -1    0    0    0    0 -0.00000000000E+00 -0.00000000000E+00 -0.45593999997E+02  0.45594000000E+02  0.51100000000E-03 0.  1.
    9900012    2    1    2    0    0  0.11245208257E+02  0.12836262437E+02  0.41687997370E+02  0.46142318001E+02  0.10000002183E+02 0.  0.
        -12    1    1    2    0    0 -0.11245208257E+02 -0.12836262437E+02 -0.41687997370E+02  0.45045681999E+02  0.00000000000E+00 0.  1.
         11    1    3    3    0    0  0.54897338816E+01  0.79153364995E+01  0.28120986226E+02  0.29725066805E+02  0.51100000000E-03 0. -1.
        -11    1    3    3    0    0  0.56964328926E+01  0.23916921274E+01  0.11837219540E+02  0.13352501849E+02  0.51100000000E-03 0.  1.
        -12    1    3    3    0    0  0.59041482459E-01  0.25292338102E+01  0.17297916044E+01  0.30647493466E+01  0.00000000000E+00 0.  1.
</event>
<event>
 7    1  0.5743890E-009  0.4614232E+02  0.7816164E-02  0.1320468E+00
        -11   -1    0    0    0    0  0.00000000000E+00  0.00000000000E+00  0.45593999997E+02  0.45594000000E+02  0.51100000000E-03 0. -1.
         11   -1    0    0    0    0 -0.00000000000E+00 -0.00000000000E+00 -0.45593999997E+02  0.45594000000E+02  0.51100000000E-03 0.  1.
    9900012    2    1    2    0    0  0.97833726253E+01 -0.11386118876E+02 -0.42470644604E+02  0.46142315012E+02  0.99999749281E+01 0.  0.
         12    1    1    2    0    0 -0.97833726253E+01  0.11386118876E+02  0.42470644604E+02  0.45045684988E+02  0.00000000000E+00 0. -1.
         11    1    3    3    0    0  0.84345483269E+01 -0.60568052645E+01 -0.18384001003E+02  0.21113928782E+02  0.51100000000E-03 0. -1.
        -11    1    3    3    0    0 -0.25721853770E+00 -0.51990198237E+00 -0.10667199220E+02  0.10682958341E+02  0.51100000000E-03 0.  1.
         12    1    3    3    0    0  0.16060428361E+01 -0.48094116286E+01 -0.13419444381E+02  0.14345427889E+02  0.00000000000E+00 0. -1.
</event>
<event>
 7    1  0.5743890E-009  0.4614232E+02  0.7816164E-02  0.1320468E+00
        -11   -1    0    0    0    0  0.00000000000E+00  0.00000000000E+00  0.45593999997E+02  0.45594000000E+02  0.51100000000E-03 0. -1.
         11   -1    0    0    0    0 -0.00000000000E+00 -0.00000000000E+00 -0.45593999997E+02  0.45594000000E+02  0.51100000000E-03 0.  1.
    9900012    2    1    2    0    0  0.58463834060E+01  0.17945691340E+02  0.40900922426E+02  0.46142317722E+02  0.99999996420E+01 0.  0.
        -12    1    1    2    0    0 -0.58463834060E+01 -0.17945691340E+02 -0.40900922426E+02  0.45045682278E+02  0.00000000000E+00 0.  1.
         11    1    3    3    0    0 -0.22596329804E+00 -0.56151613714E+00  0.62946348157E+00  0.87326074004E+00  0.51100000000E-03 0. -1.
        -11    1    3    3    0    0  0.72584390264E+01  0.11831557986E+02  0.27860903733E+02  0.31127169138E+02  0.51100000000E-03 0.  1.
         12    1    3    3    0    0 -0.11860923223E+01  0.66756494907E+01  0.12410555212E+02  0.14141887844E+02  0.00000000000E+00 0. -1.
</event>
<event>
 7    1  0.5743890E-009  0.4614232E+02  0.7816164E-02  0.1320468E+00
        -11   -1    0    0    0    0  0.00000000000E+00  0.00000000000E+00  0.45593999997E+02  0.45594000000E+02  0.51100000000E-03 0. -1.
         11   -1    0    0    0    0 -0.00000000000E+00 -0.00000000000E+00 -0.45593999997E+02  0.45594000000E+02  0.51100000000E-03 0.  1.
    9900012    2    1    2    0    0 -0.17682990005E+02 -0.15224753780E+02 -0.38530926363E+02  0.46142317082E+02  0.99999938060E+01 0.  0.
         12    1    1    2    0    0  0.17682990005E+02  0.15224753780E+02  0.38530926363E+02  0.45045682918E+02  0.00000000000E+00 0. -1.
         11    1    3    3    0    0 -0.80995040100E+01 -0.49576663298E+01 -0.22027619109E+02  0.23987422215E+02  0.51100000000E-03 0. -1.
        -11    1    3    3    0    0 -0.34237745755E-01  0.32797107300E+00  0.15685013476E-01  0.33012653442E+00  0.51100000000E-03 0.  1.
        -12    1    3    3    0    0 -0.95492482497E+01 -0.10595058523E+02 -0.16518992267E+02  0.21824768333E+02  0.00000000000E+00 0.  1.
</event>
<event>
 7    1  0.5743890E-009  0.4614232E+02  0.7816164E-02  0.1320468E+00
        -11   -1    0    0    0    0  0.00000000000E+00  0.00000000000E+00  0.45593999997E+02  0.45594000000E+02  0.51100000000E-03 0.  1.
         11   -1    0    0    0    0 -0.00000000000E+00 -0.00000000000E+00 -0.45593999997E+02  0.45594000000E+02  0.51100000000E-03 0. -1.
    9900012    2    1    2    0    0 -0.44494578435E+02  0.18521038715E+01 -0.67761153000E+01  0.46142317216E+02  0.99999950318E+01 0.  0.
         12    1    1    2    0    0  0.44494578435E+02 -0.18521038715E+01  0.67761153000E+01  0.45045682784E+02  0.00000000000E+00 0. -1.
         11    1    3    3    0    0 -0.17247538549E+02  0.13857581788E+01 -0.61417085656E+01  0.18360786914E+02  0.51100000000E-03 0. -1.
        -11    1    3    3    0    0 -0.20159605095E+02  0.25401437295E+01 -0.13409345993E+01  0.20363204896E+02  0.51100000000E-03 0.  1.
        -12    1    3    3    0    0 -0.70874347907E+01 -0.20737980369E+01  0.70652786495E+00  0.74183254063E+01  0.00000000000E+00 0.  1.
</event>
<event>
 7    1  0.5743890E-009  0.4614232E+02  0.7816164E-02  0.1320468E+00
        -11   -1    0    0    0    0  0.00000000000E+00  0.00000000000E+00  0.45593999997E+02  0.45594000000E+02  0.51100000000E-03 0. -1.
         11   -1    0    0    0    0 -0.00000000000E+00 -0.00000000000E+00 -0.45593999997E+02  0.45594000000E+02  0.51100000000E-03 0.  1.
    9900012    2    1    2    0    0 -0.21338606446E+02 -0.19349819376E+01 -0.39623644617E+02  0.46142317711E+02  0.99999995447E+01 0.  0.
         12    1    1    2    0    0  0.21338606446E+02  0.19349819376E+01  0.39623644617E+02  0.45045682289E+02  0.00000000000E+00 0. -1.
         11    1    3    3    0    0 -0.74818478527E+01  0.24319157740E+01 -0.11530369539E+02  0.13958570256E+02  0.51100000000E-03 0. -1.
        -11    1    3    3    0    0 -0.12786184243E+02 -0.41282525245E+01 -0.20494340781E+02  0.24506060081E+02  0.51100000000E-03 0.  1.
         12    1    3    3    0    0 -0.10705743501E+01 -0.23864518703E+00 -0.75989342967E+01  0.76776873738E+01  0.00000000000E+00 0. -1.
</event>
<event>
 7    1  0.5743890E-009  0.4614232E+02  0.7816164E-02  0.1320468E+00
        -11   -1    0    0    0    0  0.00000000000E+00  0.00000000000E+00  0.45593999997E+02  0.45594000000E+02  0.51100000000E-03 0. -1.
         11   -1    0    0    0    0 -0.00000000000E+00 -0.00000000000E+00 -0.45593999997E+02  0.45594000000E+02  0.51100000000E-03 0.  1.
    9900012    2    1    2    0    0 -0.14623873261E+02 -0.33405955130E+01  0.42474653789E+02  0.46142318053E+02  0.10000002665E+02 0.  0.
        -12    1    1    2    0    0  0.14623873261E+02  0.33405955130E+01 -0.42474653789E+02  0.45045681947E+02  0.00000000000E+00 0.  1.
         11    1    3    3    0    0 -0.15284723244E+02 -0.30322100692E+01  0.35228623136E+02  0.38521071518E+02  0.51100000000E-03 0. -1.
        -11    1    3    3    0    0  0.12658684200E+00 -0.56528378487E+00  0.30448316463E+00  0.65443123754E+00  0.51100000000E-03 0.  1.
         12    1    3    3    0    0  0.53426314145E+00  0.25689834107E+00  0.69415474882E+01  0.69668152978E+01  0.00000000000E+00 0. -1.
</event>
<event>
 7    1  0.5743890E-009  0.4614232E+02  0.7816164E-02  0.1320468E+00
        -11   -1    0    0    0    0  0.00000000000E+00  0.00000000000E+00  0.45593999997E+02  0.45594000000E+02  0.51100000000E-03 0.  1.
         11   -1    0    0    0    0 -0.00000000000E+00 -0.00000000000E+00 -0.45593999997E+02  0.45594000000E+02  0.51100000000E-03 0. -1.
    9900012    2    1    2    0    0 -0.75729465512E+01 -0.43588100174E+02  0.84759426139E+01  0.46142316529E+02  0.99999887614E+01 0.  0.
        -12    1    1    2    0    0  0.75729465512E+01  0.43588100174E+02 -0.84759426139E+01  0.45045683471E+02  0.00000000000E+00 0.  1.
         11    1    3    3    0    0 -0.88967799014E+01 -0.27825274019E+02  0.32582948180E+01  0.29394132956E+02  0.51100000000E-03 0. -1.
        -11    1    3    3    0    0  0.14406221700E+01 -0.91397720227E+01  0.36091414158E+01  0.99316024329E+01  0.51100000000E-03 0.  1.
         12    1    3    3    0    0 -0.11678881984E+00 -0.66230541320E+01  0.16085063801E+01  0.68165811400E+01  0.00000000000E+00 0. -1.
</event>
<event>
 7    1  0.5743890E-009  0.4614232E+02  0.7816164E-02  0.1320468E+00
        -11   -1    0    0    0    0  0.00000000000E+00  0.00000000000E+00  0.45593999997E+02  0.45594000000E+02  0.51100000000E-03 0. -1.
         11   -1    0    0    0    0 -0.00000000000E+00 -0.00000000000E+00 -0.45593999997E+02  0.45594000000E+02  0.51100000000E-03 0.  1.
    9900012    2    1    2    0    0  0.17624819665E+02  0.35027587284E+02  0.22170865502E+02  0.46142318561E+02  0.10000007295E+02 0.  0.
        -12    1    1    2    0    0 -0.17624819665E+02 -0.35027587284E+02 -0.22170865502E+02  0.45045681439E+02  0.00000000000E+00 0.  1.
         11    1    3    3    0    0  0.24578076912E+01  0.14931766292E+01  0.25031226800E+01  0.38126130810E+01  0.51100000000E-03 0. -1.
        -11    1    3    3    0    0  0.28407268746E+01  0.14138349168E+02  0.89451429388E+01  0.16969921297E+02  0.51100000000E-03 0.  1.
         12    1    3    3    0    0  0.12326285099E+02  0.19396061487E+02  0.10722599883E+02  0.25359784183E+02  0.00000000000E+00 0. -1.
</event>
<event>
 7    1  0.5743890E-009  0.4614232E+02  0.7816164E-02  0.1320468E+00
        -11   -1    0    0    0    0  0.00000000000E+00  0.00000000000E+00  0.45593999997E+02  0.45594000000E+02  0.51100000000E-03 0. -1.
         11   -1    0    0    0    0 -0.00000000000E+00 -0.00000000000E+00 -0.45593999997E+02  0.45594000000E+02  0.51100000000E-03 0.  1.
    9900012    2    1    2    0    0  0.20583384034E+02 -0.71773449919E+01 -0.39419836280E+02  0.46142317945E+02  0.10000001679E+02 0.  0.
         12    1    1    2    0    0 -0.20583384034E+02  0.71773449919E+01  0.39419836280E+02  0.45045682055E+02  0.00000000000E+00 0. -1.
         11    1    3    3    0    0  0.46539607514E+01 -0.35978055066E+01 -0.44845308679E+01  0.73969299378E+01  0.51100000000E-03 0. -1.
        -11    1    3    3    0    0  0.10059515830E+02 -0.39316881470E+01 -0.24312543868E+02  0.26603605395E+02  0.51100000000E-03 0.  1.
        -12    1    3    3    0    0  0.58699074535E+01  0.35214866167E+00 -0.10622761544E+02  0.12141782613E+02  0.00000000000E+00 0.  1.
</event>
<event>
 7    1  0.5743890E-009  0.4614232E+02  0.7816164E-02  0.1320468E+00
        -11   -1    0    0    0    0  0.00000000000E+00  0.00000000000E+00  0.45593999997E+02  0.45594000000E+02  0.51100000000E-03 0. -1.
         11   -1    0    0    0    0 -0.00000000000E+00 -0.00000000000E+00 -0.45593999997E+02  0.45594000000E+02  0.51100000000E-03 0.  1.
    9900012    2    1    2    0    0 -0.46646226315E+01 -0.14945861579E+02  0.42237139625E+02  0.46142318228E+02  0.10000004253E+02 0.  0.
        -12    1    1    2    0    0  0.46646226315E+01  0.14945861579E+02 -0.42237139625E+02  0.45045681772E+02  0.00000000000E+00 0.  1.
         11    1    3    3    0    0  0.58614040036E+00 -0.64728893262E+01  0.18908306891E+02  0.19994147307E+02  0.51100000000E-03 0. -1.
        -11    1    3    3    0    0  0.98940796590E+00 -0.18833430569E+01  0.18075595386E+01  0.27916269342E+01  0.51100000000E-03 0.  1.
        -12    1    3    3    0    0 -0.62401709978E+01 -0.65896291960E+01  0.21521273196E+02  0.23356543986E+02  0.00000000000E+00 0.  1.
</event>
<event>
 7    1  0.6628239E-009  0.4614232E+02  0.7816164E-02  0.1320468E+00
        -11   -1    0    0    0    0  0.00000000000E+00  0.00000000000E+00  0.45593999997E+02  0.45594000000E+02  0.51100000000E-03 0. -1.
         11   -1    0    0    0    0 -0.00000000000E+00 -0.00000000000E+00 -0.45593999997E+02  0.45594000000E+02  0.51100000000E-03 0.  1.
    9900012    2    1    2    0    0 -0.17375700860E+02 -0.39924723419E+01  0.41367361783E+02  0.46142318335E+02  0.10000005231E+02 0.  0.
        -12    1    1    2    0    0  0.17375700860E+02  0.39924723419E+01 -0.41367361783E+02  0.45045681665E+02  0.00000000000E+00 0.  1.
         11    1    3    3    0    0 -0.15007876745E+02 -0.19149576066E+01  0.34041278909E+02  0.37252007960E+02  0.51100000000E-03 0. -1.
        -11    1    3    3    0    0 -0.27574416421E+01  0.65434830599E-01  0.32002676704E+01  0.42248644416E+01  0.51100000000E-03 0.  1.
        -12    1    3    3    0    0  0.38961752712E+00 -0.21429495659E+01  0.41258152038E+01  0.46654459332E+01  0.00000000000E+00 0.  1.
</event>
<event>
 7    1  0.5743890E-009  0.4614232E+02  0.7816164E-02  0.1320468E+00
        -11   -1    0    0    0    0  0.00000000000E+00  0.00000000000E+00  0.45593999997E+02  0.45594000000E+02  0.51100000000E-03 0.  1.
         11   -1    0    0    0    0 -0.00000000000E+00 -0.00000000000E+00 -0.45593999997E+02  0.45594000000E+02  0.51100000000E-03 0. -1.
    9900012    2    1    2    0    0  0.36060555696E+02  0.26900271994E+02  0.22637836214E+01  0.46142322885E+02  0.10000046724E+02 0.  0.
        -12    1    1    2    0    0 -0.36060555696E+02 -0.26900271994E+02 -0.22637836214E+01  0.45045677115E+02  0.00000000000E+00 0.  1.
         11    1    3    3    0    0  0.16546033956E+02  0.12175711273E+02  0.13526526965E+01  0.20587589812E+02  0.51100000000E-03 0. -1.
        -11    1    3    3    0    0  0.11888926068E+02  0.12910245914E+02 -0.64899081100E+00  0.17562522653E+02  0.51100000000E-03 0.  1.
         12    1    3    3    0    0  0.76255956718E+01  0.18143148075E+01  0.15601217359E+01  0.79922104203E+01  0.00000000000E+00 0. -1.
</event>
<event>
 7    1  0.5743890E-009  0.4614232E+02  0.7816164E-02  0.1320468E+00
        -11   -1    0    0    0    0  0.00000000000E+00  0.00000000000E+00  0.45593999997E+02  0.45594000000E+02  0.51100000000E-03 0. -1.
         11   -1    0    0    0    0 -0.00000000000E+00 -0.00000000000E+00 -0.45593999997E+02  0.45594000000E+02  0.51100000000E-03 0.  1.
    9900012    2    1    2    0    0  0.32987299012E+02 -0.18110050147E+02  0.24758387709E+02  0.46142316806E+02  0.99999912935E+01 0.  0.
        -12    1    1    2    0    0 -0.32987299012E+02  0.18110050147E+02 -0.24758387709E+02  0.45045683194E+02  0.00000000000E+00 0.  1.
         11    1    3    3    0    0  0.72127116037E+01 -0.48613745377E+01  0.27288335962E+01  0.91160684580E+01  0.51100000000E-03 0. -1.
        -11    1    3    3    0    0  0.43551863735E+01  0.13763053462E+00  0.20212595942E+01  0.48033406209E+01  0.51100000000E-03 0.  1.
         12    1    3    3    0    0  0.21419401035E+02 -0.13386306144E+02  0.20008294518E+02  0.32222907727E+02  0.00000000000E+00 0. -1.
</event>
<event>
 7    1  0.5743890E-009  0.4614232E+02  0.7816164E-02  0.1320468E+00
        -11   -1    0    0    0    0  0.00000000000E+00  0.00000000000E+00  0.45593999997E+02  0.45594000000E+02  0.51100000000E-03 0.  1.
         11   -1    0    0    0    0 -0.00000000000E+00 -0.00000000000E+00 -0.45593999997E+02  0.45594000000E+02  0.51100000000E-03 0. -1.
    9900012    2    1    2    0    0 -0.11001553767E+02  0.43283641442E+02  0.58826536651E+01  0.46142318566E+02  0.10000007337E+02 0.  0.
         12    1    1    2    0    0  0.11001553767E+02 -0.43283641442E+02 -0.58826536651E+01  0.45045681434E+02  0.00000000000E+00 0. -1.
         11    1    3    3    0    0 -0.32718467668E+01  0.37056717334E+01 -0.16163511274E+00  0.49460196554E+01  0.51100000000E-03 0. -1.
        -11    1    3    3    0    0 -0.63298461422E+01  0.35693538127E+02  0.70892453486E+01  0.36937149539E+02  0.51100000000E-03 0.  1.
        -12    1    3    3    0    0 -0.13998608580E+01  0.38844315815E+01 -0.10449565707E+01  0.42591493714E+01  0.00000000000E+00 0.  1.
</event>
<event>
 7    1  0.5743890E-009  0.4614232E+02  0.7816164E-02  0.1320468E+00
        -11   -1    0    0    0    0  0.00000000000E+00  0.00000000000E+00  0.45593999997E+02  0.45594000000E+02  0.51100000000E-03 0. -1.
         11   -1    0    0    0    0 -0.00000000000E+00 -0.00000000000E+00 -0.45593999997E+02  0.45594000000E+02  0.51100000000E-03 0.  1.
    9900012    2    1    2    0    0 -0.15807698407E+02  0.16005835217E+02 -0.39026189190E+02  0.46142317270E+02  0.99999955250E+01 0.  0.
         12    1    1    2    0    0  0.15807698407E+02 -0.16005835217E+02  0.39026189190E+02  0.45045682730E+02  0.00000000000E+00 0. -1.
         11    1    3    3    0    0 -0.24798825850E+01  0.50527851214E+01 -0.87687317658E+01  0.10419746262E+02  0.51100000000E-03 0. -1.
        -11    1    3    3    0    0 -0.93498457571E+01  0.10471931885E+02 -0.18002475882E+02  0.22829150471E+02  0.51100000000E-03 0.  1.
         12    1    3    3    0    0 -0.39779700645E+01  0.48111821072E+00 -0.12254981542E+02  0.12893420537E+02  0.00000000000E+00 0. -1.
</event>
<event>
 7    1  0.5743890E-009  0.4614231E+02  0.7816164E-02  0.1320468E+00
        -11   -1    0    0    0    0  0.00000000000E+00  0.00000000000E+00  0.45593999997E+02  0.45594000000E+02  0.51100000000E-03 0. -1.
         11   -1    0    0    0    0 -0.00000000000E+00 -0.00000000000E+00 -0.45593999997E+02  0.45594000000E+02  0.51100000000E-03 0.  1.
    9900012    2    1    2    0    0 -0.21011230367E+02 -0.77457161635E+01 -0.39085110538E+02  0.46142314455E+02  0.99999698540E+01 0.  0.
         12    1    1    2    0    0  0.21011230367E+02  0.77457161635E+01  0.39085110538E+02  0.45045685545E+02  0.00000000000E+00 0. -1.
         11    1    3    3    0    0 -0.13302894383E+02 -0.33473226735E+01 -0.29420441800E+02  0.32461268675E+02  0.51100000000E-03 0. -1.
        -11    1    3    3    0    0 -0.71688751651E+01 -0.40253262586E+01 -0.99987886204E+01  0.12944952559E+02  0.51100000000E-03 0.  1.
         12    1    3    3    0    0 -0.53946081956E+00 -0.37306723136E+00  0.33411988192E+00  0.73609322130E+00  0.00000000000E+00 0. -1.
</event>
<event>
 7    1  0.5743890E-009  0.4614232E+02  0.7816164E-02  0.1320468E+00
        -11   -1    0    0    0    0  0.00000000000E+00  0.00000000000E+00  0.45593999997E+02  0.45594000000E+02  0.51100000000E-03 0. -1.
         11   -1    0    0    0    0 -0.00000000000E+00 -0.00000000000E+00 -0.45593999997E+02  0.45594000000E+02  0.51100000000E-03 0.  1.
    9900012    2    1    2    0    0 -0.51981991777E+00  0.16619336561E+02  0.41864555586E+02  0.46142316801E+02  0.99999912441E+01 0.  0.
        -12    1    1    2    0    0  0.51981991777E+00 -0.16619336561E+02 -0.41864555586E+02  0.45045683199E+02  0.00000000000E+00 0.  1.
         11    1    3    3    0    0 -0.23789129184E+00  0.12006997531E+02  0.24952294461E+02  0.27691904613E+02  0.51100000000E-03 0. -1.
        -11    1    3    3    0    0 -0.10945445269E+01  0.40586777978E+01  0.51531105259E+01  0.66502211649E+01  0.51100000000E-03 0.  1.
         12    1    3    3    0    0  0.81261590093E+00  0.55366123152E+00  0.11759150599E+02  0.11800191023E+02  0.00000000000E+00 0. -1.
</event>
<event>
 7    1  0.5743890E-009  0.4614232E+02  0.7816164E-02  0.1320468E+00
        -11   -1    0    0    0    0  0.00000000000E+00  0.00000000000E+00  0.45593999997E+02  0.45594000000E+02  0.51100000000E-03 0. -1.
         11   -1    0    0    0    0 -0.00000000000E+00 -0.00000000000E+00 -0.45593999997E+02  0.45594000000E+02  0.51100000000E-03 0.  1.
    9900012    2    1    2    0    0 -0.29719350356E+01  0.40880685316E+02 -0.18682899342E+02  0.46142316992E+02  0.99999929912E+01 0.  0.
         12    1    1    2    0    0  0.29719350356E+01 -0.40880685316E+02  0.18682899342E+02  0.45045683008E+02  0.00000000000E+00 0. -1.
         11    1    3    3    0    0 -0.13430113396E+01  0.83715999739E+01 -0.11126557897E+01  0.85513372492E+01  0.51100000000E-03 0.  1.
        -11    1    3    3    0    0 -0.37776359328E+01  0.12166439463E+02 -0.58872889527E+01  0.14033992800E+02  0.51100000000E-03 0. -1.
         12    1    3    3    0    0  0.21487122368E+01  0.20342645879E+02 -0.11682954600E+02  0.23556986943E+02  0.00000000000E+00 0. -1.
</event>
<event>
 7    1  0.5743890E-009  0.4614232E+02  0.7816164E-02  0.1320468E+00
        -11   -1    0    0    0    0  0.00000000000E+00  0.00000000000E+00  0.45593999997E+02  0.45594000000E+02  0.51100000000E-03 0.  1.
         11   -1    0    0    0    0 -0.00000000000E+00 -0.00000000000E+00 -0.45593999997E+02  0.45594000000E+02  0.51100000000E-03 0. -1.
    9900012    2    1    2    0    0 -0.22360281929E+02  0.33447938799E+02  0.20257514531E+02  0.46142315270E+02  0.99999772797E+01 0.  0.
        -12    1    1    2    0    0  0.22360281929E+02 -0.33447938799E+02 -0.20257514531E+02  0.45045684730E+02  0.00000000000E+00 0.  1.
         11    1    3    3    0    0 -0.34554176726E+01  0.33330378346E+01  0.42860676871E+01  0.64357928011E+01  0.51100000000E-03 0. -1.
        -11    1    3    3    0    0 -0.13192592472E+02  0.26089961493E+02  0.11533615550E+02  0.31428567813E+02  0.51100000000E-03 0.  1.
         12    1    3    3    0    0 -0.57122717845E+01  0.40249394716E+01  0.44378312939E+01  0.82779546558E+01  0.00000000000E+00 0. -1.
</event>
<event>
 7    1  0.5743890E-009  0.4614232E+02  0.7816164E-02  0.1320468E+00
        -11   -1    0    0    0    0  0.00000000000E+00  0.00000000000E+00  0.45593999997E+02  0.45594000000E+02  0.51100000000E-03 0. -1.
         11   -1    0    0    0    0 -0.00000000000E+00 -0.00000000000E+00 -0.45593999997E+02  0.45594000000E+02  0.51100000000E-03 0.  1.
    9900012    2    1    2    0    0  0.17426941442E+02 -0.86576795164E+01  0.40625851359E+02  0.46142317617E+02  0.99999986899E+01 0.  0.
        -12    1    1    2    0    0 -0.17426941442E+02  0.86576795164E+01 -0.40625851359E+02  0.45045682383E+02  0.00000000000E+00 0.  1.
         11    1    3    3    0    0  0.10093035600E+02 -0.78213671179E+01  0.28538100035E+02  0.31264457537E+02  0.51100000000E-03 0. -1.
        -11    1    3    3    0    0 -0.11623983856E+00 -0.51939576709E+00 -0.14485034209E+00  0.55160270636E+00  0.51100000000E-03 0.  1.
         12    1    3    3    0    0  0.74501456811E+01 -0.31691663146E+00  0.12232601666E+02  0.14326257374E+02  0.00000000000E+00 0. -1.
</event>
<event>
 7    1  0.5743890E-009  0.4614232E+02  0.7816164E-02  0.1320468E+00
        -11   -1    0    0    0    0  0.00000000000E+00  0.00000000000E+00  0.45593999997E+02  0.45594000000E+02  0.51100000000E-03 0. -1.
         11   -1    0    0    0    0 -0.00000000000E+00 -0.00000000000E+00 -0.45593999997E+02  0.45594000000E+02  0.51100000000E-03 0.  1.
    9900012    2    1    2    0    0 -0.14000993696E+02 -0.41784868789E+02 -0.93332900651E+01  0.46142318879E+02  0.10000010193E+02 0.  0.
         12    1    1    2    0    0  0.14000993696E+02  0.41784868789E+02  0.93332900651E+01  0.45045681121E+02  0.00000000000E+00 0. -1.
         11    1    3    3    0    0 -0.63910020861E+00 -0.29196632622E+01  0.29771774608E+00  0.30035843186E+01  0.51100000000E-03 0. -1.
        -11    1    3    3    0    0 -0.11636563209E+02 -0.36014583087E+02 -0.61933822039E+01  0.38351242244E+02  0.51100000000E-03 0.  1.
         12    1    3    3    0    0 -0.17253302786E+01 -0.28506224401E+01 -0.34376256073E+01  0.47874923167E+01  0.00000000000E+00 0. -1.
</event>
<event>
 7    1  0.5743890E-009  0.4614232E+02  0.7816164E-02  0.1320468E+00
        -11   -1    0    0    0    0  0.00000000000E+00  0.00000000000E+00  0.45593999997E+02  0.45594000000E+02  0.51100000000E-03 0. -1.
         11   -1    0    0    0    0 -0.00000000000E+00 -0.00000000000E+00 -0.45593999997E+02  0.45594000000E+02  0.51100000000E-03 0.  1.
    9900012    2    1    2    0    0  0.40295971041E+02 -0.11032183110E+02 -0.16841588787E+02  0.46142318085E+02  0.10000002955E+02 0.  0.
         12    1    1    2    0    0 -0.40295971041E+02  0.11032183110E+02  0.16841588787E+02  0.45045681915E+02  0.00000000000E+00 0. -1.
         11    1    3    3    0    0  0.25002658662E+02 -0.10639383078E+02 -0.10346619587E+02  0.29075452698E+02  0.51100000000E-03 0.  1.
        -11    1    3    3    0    0  0.52654694495E+01 -0.39479237061E+00 -0.31925253057E+00  0.52898914902E+01  0.51100000000E-03 0. -1.
         12    1    3    3    0    0  0.10027842930E+02  0.19923390235E-02 -0.61757166697E+01  0.11776973897E+02  0.00000000000E+00 0. -1.
</event>
<event>
 7    1  0.5743890E-009  0.4614232E+02  0.7816164E-02  0.1320468E+00
        -11   -1    0    0    0    0  0.00000000000E+00  0.00000000000E+00  0.45593999997E+02  0.45594000000E+02  0.51100000000E-03 0. -1.
         11   -1    0    0    0    0 -0.00000000000E+00 -0.00000000000E+00 -0.45593999997E+02  0.45594000000E+02  0.51100000000E-03 0.  1.
    9900012    2    1    2    0    0  0.17041212343E+02 -0.12002416306E+02 -0.39933101158E+02  0.46142317816E+02  0.10000000502E+02 0.  0.
         12    1    1    2    0    0 -0.17041212343E+02  0.12002416306E+02  0.39933101158E+02  0.45045682184E+02  0.00000000000E+00 0. -1.
         11    1    3    3    0    0  0.18775812340E+01 -0.24245265260E+01 -0.11995915559E+02  0.12381665095E+02  0.51100000000E-03 0. -1.
        -11    1    3    3    0    0  0.51488950818E+01 -0.50693868803E+01 -0.15906949861E+02  0.17471143582E+02  0.51100000000E-03 0.  1.
         12    1    3    3    0    0  0.10014736027E+02 -0.45085029000E+01 -0.12030235738E+02  0.16289509139E+02  0.00000000000E+00 0. -1.
</event>
<event>
 7    1  0.5743890E-009  0.4614232E+02  0.7816164E-02  0.1320468E+00
        -11   -1    0    0    0    0  0.00000000000E+00  0.00000000000E+00  0.45593999997E+02  0.45594000000E+02  0.51100000000E-03 0. -1.
         11   -1    0    0    0    0 -0.00000000000E+00 -0.00000000000E+00 -0.45593999997E+02  0.45594000000E+02  0.51100000000E-03 0.  1.
    9900012    2    1    2    0    0 -0.12237088398E+01 -0.12736519951E+02  0.43190242751E+02  0.46142317935E+02  0.10000001585E+02 0.  0.
        -12    1    1    2    0    0  0.12237088398E+01  0.12736519951E+02 -0.43190242751E+02  0.45045682065E+02  0.00000000000E+00 0.  1.
         11    1    3    3    0    0 -0.11970842593E+01 -0.26743938665E+01  0.41663767857E+01  0.50935340441E+01  0.51100000000E-03 0. -1.
        -11    1    3    3    0    0  0.29539550388E+01 -0.72128753239E+01  0.17855486988E+02  0.19482552109E+02  0.51100000000E-03 0.  1.
         12    1    3    3    0    0 -0.29805796193E+01 -0.28492507606E+01  0.21168378977E+02  0.21566231782E+02  0.00000000000E+00 0. -1.
</event>
<event>
 7    1  0.5743890E-009  0.4614232E+02  0.7816164E-02  0.1320468E+00
        -11   -1    0    0    0    0  0.00000000000E+00  0.00000000000E+00  0.45593999997E+02  0.45594000000E+02  0.51100000000E-03 0.  1.
         11   -1    0    0    0    0 -0.00000000000E+00 -0.00000000000E+00 -0.45593999997E+02  0.45594000000E+02  0.51100000000E-03 0. -1.
    9900012    2    1    2    0    0  0.38537069290E+02  0.13821264681E+02 -0.18787774039E+02  0.46142317408E+02  0.99999967802E+01 0.  0.
         12    1    1    2    0    0 -0.38537069290E+02 -0.13821264681E+02  0.18787774039E+02  0.45045682592E+02  0.00000000000E+00 0. -1.
         11    1    3    3    0    0  0.17485047679E+02  0.67869379707E+01 -0.11874274724E+02  0.22198824740E+02  0.51100000000E-03 0. -1.
        -11    1    3    3    0    0  0.50624153660E+01  0.43877638416E+01 -0.24462372414E+01  0.71319420756E+01  0.51100000000E-03 0.  1.
        -12    1    3    3    0    0  0.15989606245E+02  0.26465628691E+01 -0.44672620732E+01  0.16811550592E+02  0.00000000000E+00 0.  1.
</event>
<event>
 7    1  0.5743890E-009  0.4614232E+02  0.7816164E-02  0.1320468E+00
        -11   -1    0    0    0    0  0.00000000000E+00  0.00000000000E+00  0.45593999997E+02  0.45594000000E+02  0.51100000000E-03 0. -1.
         11   -1    0    0    0    0 -0.00000000000E+00 -0.00000000000E+00 -0.45593999997E+02  0.45594000000E+02  0.51100000000E-03 0.  1.
    9900012    2    1    2    0    0 -0.22328342124E+02  0.70297877630E+00  0.39116036666E+02  0.46142319124E+02  0.10000012427E+02 0.  0.
        -12    1    1    2    0    0  0.22328342124E+02 -0.70297877630E+00 -0.39116036666E+02  0.45045680876E+02  0.00000000000E+00 0.  1.
         11    1    3    3    0    0 -0.42556004202E+01  0.14976971992E+00  0.10728178704E+02  0.11542373434E+02  0.51100000000E-03 0. -1.
        -11    1    3    3    0    0 -0.20007719672E+01  0.44394601560E+00  0.98673177621E+01  0.10077903384E+02  0.51100000000E-03 0.  1.
        -12    1    3    3    0    0 -0.16071969736E+02  0.10926304078E+00  0.18520540199E+02  0.24522042307E+02  0.00000000000E+00 0.  1.
</event>
<event>
 7    1  0.5743890E-009  0.4614232E+02  0.7816164E-02  0.1320468E+00
        -11   -1    0    0    0    0  0.00000000000E+00  0.00000000000E+00  0.45593999997E+02  0.45594000000E+02  0.51100000000E-03 0. -1.
         11   -1    0    0    0    0 -0.00000000000E+00 -0.00000000000E+00 -0.45593999997E+02  0.45594000000E+02  0.51100000000E-03 0.  1.
    9900012    2    1    2    0    0 -0.99364816529E+01  0.11412530530E+02 -0.42427984018E+02  0.46142319313E+02  0.10000014152E+02 0.  0.
         12    1    1    2    0    0  0.99364816529E+01 -0.11412530530E+02  0.42427984018E+02  0.45045680687E+02  0.00000000000E+00 0. -1.
         11    1    3    3    0    0 -0.43474205849E+00 -0.31737442202E+00 -0.12071499213E+02  0.12083493728E+02  0.51100000000E-03 0.  1.
        -11    1    3    3    0    0 -0.24953019624E+01  0.13268887135E+01 -0.43765482333E+01  0.52097351412E+01  0.51100000000E-03 0. -1.
        -12    1    3    3    0    0 -0.70064376320E+01  0.10403016238E+02 -0.25979936572E+02  0.28849090444E+02  0.00000000000E+00 0.  1.
</event>
<event>
 7    1  0.5743890E-009  0.4614232E+02  0.7816164E-02  0.1320468E+00
        -11   -1    0    0    0    0  0.00000000000E+00  0.00000000000E+00  0.45593999997E+02  0.45594000000E+02  0.51100000000E-03 0. -1.
         11   -1    0    0    0    0 -0.00000000000E+00 -0.00000000000E+00 -0.45593999997E+02  0.45594000000E+02  0.51100000000E-03 0.  1.
    9900012    2    1    2    0    0  0.34921498396E+02 -0.94870719844E+01  0.26825322130E+02  0.46142317715E+02  0.99999995840E+01 0.  0.
        -12    1    1    2    0    0 -0.34921498396E+02  0.94870719844E+01 -0.26825322130E+02  0.45045682285E+02  0.00000000000E+00 0.  1.
         11    1    3    3    0    0  0.93897060125E+01 -0.43970291585E+01  0.10990004254E+02  0.15108958871E+02  0.51100000000E-03 0. -1.
        -11    1    3    3    0    0  0.21567756396E+02 -0.24613915973E+01  0.14457098370E+02  0.26081300928E+02  0.51100000000E-03 0.  1.
         12    1    3    3    0    0  0.39640359876E+01 -0.26286512286E+01  0.13782195061E+01  0.49520579157E+01  0.00000000000E+00 0. -1.
</event>
<event>
 7    1  0.5743890E-009  0.4614232E+02  0.7816164E-02  0.1320468E+00
        -11   -1    0    0    0    0  0.00000000000E+00  0.00000000000E+00  0.45593999997E+02  0.45594000000E+02  0.51100000000E-03 0. -1.
         11   -1    0    0    0    0 -0.00000000000E+00 -0.00000000000E+00 -0.45593999997E+02  0.45594000000E+02  0.51100000000E-03 0.  1.
    9900012    2    1    2    0    0 -0.37465111453E+02 -0.37960982171E+01  0.24719800513E+02  0.46142317907E+02  0.10000001330E+02 0.  0.
        -12    1    1    2    0    0  0.37465111453E+02  0.37960982171E+01 -0.24719800513E+02  0.45045682093E+02  0.00000000000E+00 0.  1.
         11    1    3    3    0    0 -0.14250411662E+02  0.20965140232E+00  0.58826971108E+01  0.15418310926E+02  0.51100000000E-03 0.  1.
        -11    1    3    3    0    0 -0.57116403676E+01  0.13174691582E+01  0.33302836923E+01  0.67416133383E+01  0.51100000000E-03 0. -1.
         12    1    3    3    0    0 -0.17503059423E+02 -0.53232187776E+01  0.15506819710E+02  0.23982393643E+02  0.00000000000E+00 0. -1.
</event>
<event>
 7    1  0.5743890E-009  0.4614232E+02  0.7816164E-02  0.1320468E+00
        -11   -1    0    0    0    0  0.00000000000E+00  0.00000000000E+00  0.45593999997E+02  0.45594000000E+02  0.51100000000E-03 0. -1.
         11   -1    0    0    0    0 -0.00000000000E+00 -0.00000000000E+00 -0.45593999997E+02  0.45594000000E+02  0.51100000000E-03 0.  1.
    9900012    2    1    2    0    0  0.25071777944E+02 -0.97779615568E+01  0.36123549468E+02  0.46142318657E+02  0.10000008170E+02 0.  0.
        -12    1    1    2    0    0 -0.25071777944E+02  0.97779615568E+01 -0.36123549468E+02  0.45045681343E+02  0.00000000000E+00 0.  1.
         11    1    3    3    0    0  0.99005920109E-01 -0.26074711125E+00  0.14034003334E+01  0.14308472962E+01  0.51100000000E-03 0.  1.
        -11    1    3    3    0    0  0.87718767898E+01 -0.50489439327E+01  0.19806199482E+02  0.22242373871E+02  0.51100000000E-03 0. -1.
         12    1    3    3    0    0  0.16200895234E+02 -0.44682705129E+01  0.14913949653E+02  0.22469097490E+02  0.00000000000E+00 0. -1.
</event>
<event>
 7    1  0.5743890E-009  0.4614232E+02  0.7816164E-02  0.1320468E+00
        -11   -1    0    0    0    0  0.00000000000E+00  0.00000000000E+00  0.45593999997E+02  0.45594000000E+02  0.51100000000E-03 0. -1.
         11   -1    0    0    0    0 -0.00000000000E+00 -0.00000000000E+00 -0.45593999997E+02  0.45594000000E+02  0.51100000000E-03 0.  1.
    9900012    2    1    2    0    0  0.99544884442E+01  0.13363462987E+02 -0.41850202927E+02  0.46142317985E+02  0.10000002040E+02 0.  0.
         12    1    1    2    0    0 -0.99544884442E+01 -0.13363462987E+02  0.41850202927E+02  0.45045682015E+02  0.00000000000E+00 0. -1.
         11    1    3    3    0    0 -0.44080707433E-01 -0.10492941281E+01 -0.36526607248E+01  0.38006436175E+01  0.51100000000E-03 0. -1.
        -11    1    3    3    0    0  0.57868663783E+01  0.76483660864E+01 -0.14907675460E+02  0.17726367766E+02  0.51100000000E-03 0.  1.
        -12    1    3    3    0    0  0.42117027733E+01  0.67643910285E+01 -0.23289866742E+02  0.24615306602E+02  0.00000000000E+00 0.  1.
</event>
<event>
 7    1  0.5743890E-009  0.4614232E+02  0.7816164E-02  0.1320468E+00
        -11   -1    0    0    0    0  0.00000000000E+00  0.00000000000E+00  0.45593999997E+02  0.45594000000E+02  0.51100000000E-03 0. -1.
         11   -1    0    0    0    0 -0.00000000000E+00 -0.00000000000E+00 -0.45593999997E+02  0.45594000000E+02  0.51100000000E-03 0.  1.
    9900012    2    1    2    0    0 -0.29397307077E+01 -0.12945063867E+02 -0.43045285242E+02  0.46142320110E+02  0.10000021421E+02 0.  0.
         12    1    1    2    0    0  0.29397307077E+01  0.12945063867E+02  0.43045285242E+02  0.45045679890E+02  0.00000000000E+00 0. -1.
         11    1    3    3    0    0 -0.17614475611E+01 -0.46999551883E+00 -0.42934997483E+01  0.46645185869E+01  0.51100000000E-03 0. -1.
        -11    1    3    3    0    0  0.16663758405E+01 -0.75257074602E+01 -0.30396386462E+02  0.31358466025E+02  0.51100000000E-03 0.  1.
        -12    1    3    3    0    0 -0.28446589872E+01 -0.49493608875E+01 -0.83553990317E+01  0.10119335498E+02  0.00000000000E+00 0.  1.
</event>
<event>
 7    1  0.5743890E-009  0.4614232E+02  0.7816164E-02  0.1320468E+00
        -11   -1    0    0    0    0  0.00000000000E+00  0.00000000000E+00  0.45593999997E+02  0.45594000000E+02  0.51100000000E-03 0. -1.
         11   -1    0    0    0    0 -0.00000000000E+00 -0.00000000000E+00 -0.45593999997E+02  0.45594000000E+02  0.51100000000E-03 0.  1.
    9900012    2    1    2    0    0 -0.21950368720E+02  0.77398203782E+01 -0.38566695010E+02  0.46142317960E+02  0.10000001816E+02 0.  0.
         12    1    1    2    0    0  0.21950368720E+02 -0.77398203782E+01  0.38566695010E+02  0.45045682040E+02  0.00000000000E+00 0. -1.
         11    1    3    3    0    0 -0.10347764139E+02 -0.21067537056E-01 -0.18080453294E+02  0.20832173629E+02  0.51100000000E-03 0. -1.
        -11    1    3    3    0    0 -0.94210943549E+01  0.67668713576E+01 -0.19558780443E+02  0.22739689081E+02  0.51100000000E-03 0.  1.
         12    1    3    3    0    0 -0.21815102257E+01  0.99401655766E+00 -0.92746127282E+00  0.25704552504E+01  0.00000000000E+00 0. -1.
</event>
<event>
 7    1  0.5743890E-009  0.4614232E+02  0.7816164E-02  0.1320468E+00
        -11   -1    0    0    0    0  0.00000000000E+00  0.00000000000E+00  0.45593999997E+02  0.45594000000E+02  0.51100000000E-03 0. -1.
         11   -1    0    0    0    0 -0.00000000000E+00 -0.00000000000E+00 -0.45593999997E+02  0.45594000000E+02  0.51100000000E-03 0.  1.
    9900012    2    1    2    0    0 -0.12296101550E+02  0.31678473906E+01 -0.43219023437E+02  0.46142319216E+02  0.10000013267E+02 0.  0.
         12    1    1    2    0    0  0.12296101550E+02 -0.31678473906E+01  0.43219023437E+02  0.45045680784E+02  0.00000000000E+00 0. -1.
         11    1    3    3    0    0 -0.29313784036E+01  0.27170070471E+01 -0.10943446161E+02  0.11650498735E+02  0.51100000000E-03 0. -1.
        -11    1    3    3    0    0 -0.48907346068E+00  0.20431528379E+01 -0.13507207940E+02  0.13669613490E+02  0.51100000000E-03 0.  1.
         12    1    3    3    0    0 -0.88756496859E+01 -0.15923124943E+01 -0.18768369337E+02  0.20822206991E+02  0.00000000000E+00 0. -1.
</event>
<event>
 7    1  0.5743890E-009  0.4614232E+02  0.7816164E-02  0.1320468E+00
        -11   -1    0    0    0    0  0.00000000000E+00  0.00000000000E+00  0.45593999997E+02  0.45594000000E+02  0.51100000000E-03 0.  1.
         11   -1    0    0    0    0 -0.00000000000E+00 -0.00000000000E+00 -0.45593999997E+02  0.45594000000E+02  0.51100000000E-03 0. -1.
    9900012    2    1    2    0    0 -0.43343564556E+02  0.55109123297E+01 -0.10958048386E+02  0.46142316882E+02  0.99999919835E+01 0.  0.
        -12    1    1    2    0    0  0.43343564556E+02 -0.55109123297E+01  0.10958048386E+02  0.45045683118E+02  0.00000000000E+00 0.  1.
         11    1    3    3    0    0 -0.33146205054E+02  0.58047495322E+01 -0.55253107559E+01  0.34101247570E+02  0.51100000000E-03 0. -1.
        -11    1    3    3    0    0 -0.73057279673E+01 -0.15797691977E+01 -0.30202427372E+01  0.80617118718E+01  0.51100000000E-03 0.  1.
         12    1    3    3    0    0 -0.28916315351E+01  0.12859319952E+01 -0.24124948932E+01  0.39793574406E+01  0.00000000000E+00 0. -1.
</event>
<event>
 7    1  0.5743890E-009  0.4614232E+02  0.7816164E-02  0.1320468E+00
        -11   -1    0    0    0    0  0.00000000000E+00  0.00000000000E+00  0.45593999997E+02  0.45594000000E+02  0.51100000000E-03 0. -1.
         11   -1    0    0    0    0 -0.00000000000E+00 -0.00000000000E+00 -0.45593999997E+02  0.45594000000E+02  0.51100000000E-03 0.  1.
    9900012    2    1    2    0    0  0.52291476091E+01 -0.27892944177E+02 -0.34982181401E+02  0.46142319462E+02  0.10000015508E+02 0.  0.
         12    1    1    2    0    0 -0.52291476091E+01  0.27892944177E+02  0.34982181401E+02  0.45045680538E+02  0.00000000000E+00 0. -1.
         11    1    3    3    0    0  0.85455724570E+00 -0.10858209126E+02 -0.13020688637E+02  0.16975550252E+02  0.51100000000E-03 0.  1.
        -11    1    3    3    0    0  0.12798880024E+01 -0.15777136272E+02 -0.18671718604E+02  0.24478341817E+02  0.51100000000E-03 0. -1.
         12    1    3    3    0    0  0.30947023609E+01 -0.12575987795E+01 -0.32897741597E+01  0.46884273925E+01  0.00000000000E+00 0. -1.
</event>
<event>
 7    1  0.5743890E-009  0.4614232E+02  0.7816164E-02  0.1320468E+00
        -11   -1    0    0    0    0  0.00000000000E+00  0.00000000000E+00  0.45593999997E+02  0.45594000000E+02  0.51100000000E-03 0. -1.
         11   -1    0    0    0    0 -0.00000000000E+00 -0.00000000000E+00 -0.45593999997E+02  0.45594000000E+02  0.51100000000E-03 0.  1.
    9900012    2    1    2    0    0 -0.26928831706E+02 -0.84969205583E+01 -0.35096353496E+02  0.46142315803E+02  0.99999821478E+01 0.  0.
         12    1    1    2    0    0  0.26928831706E+02  0.84969205583E+01  0.35096353496E+02  0.45045684197E+02  0.00000000000E+00 0. -1.
         11    1    3    3    0    0 -0.10120057597E+02 -0.26828688480E+01 -0.13010996365E+02  0.16700280767E+02  0.51100000000E-03 0. -1.
        -11    1    3    3    0    0 -0.11568800017E+02  0.95079552023E-01 -0.13367479327E+02  0.17678678620E+02  0.51100000000E-03 0.  1.
         12    1    3    3    0    0 -0.52399740922E+01 -0.59091312624E+01 -0.87178778044E+01  0.11763356416E+02  0.00000000000E+00 0. -1.
</event>
<event>
 7    1  0.5743890E-009  0.4614232E+02  0.7816164E-02  0.1320468E+00
        -11   -1    0    0    0    0  0.00000000000E+00  0.00000000000E+00  0.45593999997E+02  0.45594000000E+02  0.51100000000E-03 0. -1.
         11   -1    0    0    0    0 -0.00000000000E+00 -0.00000000000E+00 -0.45593999997E+02  0.45594000000E+02  0.51100000000E-03 0.  1.
    9900012    2    1    2    0    0  0.38409294884E+02  0.20039558272E+01  0.23448318957E+02  0.46142318361E+02  0.10000005468E+02 0.  0.
        -12    1    1    2    0    0 -0.38409294884E+02 -0.20039558272E+01 -0.23448318957E+02  0.45045681639E+02  0.00000000000E+00 0.  1.
         11    1    3    3    0    0  0.75704478258E+01 -0.32599886899E+01  0.41048118318E+01  0.92080772682E+01  0.51100000000E-03 0.  1.
        -11    1    3    3    0    0  0.17980971563E+02  0.16641690379E+01  0.12181518063E+02  0.21782428228E+02  0.51100000000E-03 0. -1.
        -12    1    3    3    0    0  0.12857875495E+02  0.35997754792E+01  0.71619890622E+01  0.15151812864E+02  0.00000000000E+00 0.  1.
</event>
<event>
 7    1  0.5743890E-009  0.4614232E+02  0.7816164E-02  0.1320468E+00
        -11   -1    0    0    0    0  0.00000000000E+00  0.00000000000E+00  0.45593999997E+02  0.45594000000E+02  0.51100000000E-03 0. -1.
         11   -1    0    0    0    0 -0.00000000000E+00 -0.00000000000E+00 -0.45593999997E+02  0.45594000000E+02  0.51100000000E-03 0.  1.
    9900012    2    1    2    0    0 -0.38722325340E+01  0.83259379408E+01  0.44099865295E+02  0.46142317117E+02  0.99999941227E+01 0.  0.
        -12    1    1    2    0    0  0.38722325340E+01 -0.83259379408E+01 -0.44099865295E+02  0.45045682883E+02  0.00000000000E+00 0.  1.
         11    1    3    3    0    0  0.11346157504E+01  0.82820353564E+01  0.24870394335E+02  0.26237682389E+02  0.51100000000E-03 0. -1.
        -11    1    3    3    0    0 -0.23146904155E+01 -0.40528338945E+00  0.10437248809E+02  0.10698514351E+02  0.51100000000E-03 0.  1.
         12    1    3    3    0    0 -0.26921578689E+01  0.44918597387E+00  0.87922221514E+01  0.92061203767E+01  0.00000000000E+00 0. -1.
</event>
<event>
 7    1  0.5743890E-009  0.4614232E+02  0.7816164E-02  0.1320468E+00
        -11   -1    0    0    0    0  0.00000000000E+00  0.00000000000E+00  0.45593999997E+02  0.45594000000E+02  0.51100000000E-03 0. -1.
         11   -1    0    0    0    0 -0.00000000000E+00 -0.00000000000E+00 -0.45593999997E+02  0.45594000000E+02  0.51100000000E-03 0.  1.
    9900012    2    1    2    0    0  0.36335247403E+02  0.16172061028E+02 -0.21150122141E+02  0.46142318428E+02  0.10000006083E+02 0.  0.
         12    1    1    2    0    0 -0.36335247403E+02 -0.16172061028E+02  0.21150122141E+02  0.45045681572E+02  0.00000000000E+00 0. -1.
         11    1    3    3    0    0  0.67533063823E+01  0.22755394711E+01 -0.13344784420E+01  0.72502455097E+01  0.51100000000E-03 0. -1.
        -11    1    3    3    0    0  0.14275170709E+02  0.28431586984E+01 -0.94357443160E+01  0.17346392167E+02  0.51100000000E-03 0.  1.
        -12    1    3    3    0    0  0.15306770312E+02  0.11053362859E+02 -0.10379899383E+02  0.21545680752E+02  0.00000000000E+00 0.  1.
</event>
<event>
 7    1  0.5743890E-009  0.4614232E+02  0.7816164E-02  0.1320468E+00
        -11   -1    0    0    0    0  0.00000000000E+00  0.00000000000E+00  0.45593999997E+02  0.45594000000E+02  0.51100000000E-03 0. -1.
         11   -1    0    0    0    0 -0.00000000000E+00 -0.00000000000E+00 -0.45593999997E+02  0.45594000000E+02  0.51100000000E-03 0.  1.
    9900012    2    1    2    0    0 -0.33367694632E+02  0.28888845430E+02 -0.90080497692E+01  0.46142318786E+02  0.10000009349E+02 0.  0.
        -12    1    1    2    0    0  0.33367694632E+02 -0.28888845430E+02  0.90080497692E+01  0.45045681214E+02  0.00000000000E+00 0.  1.
         11    1    3    3    0    0 -0.56950441383E+00 -0.20856721210E+00 -0.48984567267E-01  0.60846964451E+00  0.51100000000E-03 0. -1.
        -11    1    3    3    0    0 -0.35353588439E+01  0.74304465820E+01 -0.18887068198E+01  0.84426010373E+01  0.51100000000E-03 0.  1.
         12    1    3    3    0    0 -0.29262831374E+02  0.21666966060E+02 -0.70703583822E+01  0.37091248105E+02  0.00000000000E+00 0. -1.
</event>
<event>
 7    1  0.5743890E-009  0.4614232E+02  0.7816164E-02  0.1320468E+00
        -11   -1    0    0    0    0  0.00000000000E+00  0.00000000000E+00  0.45593999997E+02  0.45594000000E+02  0.51100000000E-03 0. -1.
         11   -1    0    0    0    0 -0.00000000000E+00 -0.00000000000E+00 -0.45593999997E+02  0.45594000000E+02  0.51100000000E-03 0.  1.
    9900012    2    1    2    0    0  0.38890075972E+01 -0.19134128968E+02  0.40594016893E+02  0.46142317865E+02  0.10000000949E+02 0.  0.
        -12    1    1    2    0    0 -0.38890075972E+01  0.19134128968E+02 -0.40594016893E+02  0.45045682135E+02  0.00000000000E+00 0.  1.
         11    1    3    3    0    0  0.55576006915E+01 -0.11058864639E+02  0.21963698772E+02  0.25210899955E+02  0.51100000000E-03 0. -1.
        -11    1    3    3    0    0 -0.12783145196E+00 -0.33379827585E+01  0.28748609637E+01  0.44071868122E+01  0.51100000000E-03 0.  1.
         12    1    3    3    0    0 -0.15407616423E+01 -0.47372815705E+01  0.15755457158E+02  0.16524231098E+02  0.00000000000E+00 0. -1.
</event>
<event>
 7    1  0.5743890E-009  0.4614232E+02  0.7816164E-02  0.1320468E+00
        -11   -1    0    0    0    0  0.00000000000E+00  0.00000000000E+00  0.45593999997E+02  0.45594000000E+02  0.51100000000E-03 0. -1.
         11   -1    0    0    0    0 -0.00000000000E+00 -0.00000000000E+00 -0.45593999997E+02  0.45594000000E+02  0.51100000000E-03 0.  1.
    9900012    2    1    2    0    0 -0.57178003126E+01  0.15477282107E+02 -0.41915081961E+02  0.46142316548E+02  0.99999889414E+01 0.  0.
         12    1    1    2    0    0  0.57178003126E+01 -0.15477282107E+02  0.41915081961E+02  0.45045683452E+02  0.00000000000E+00 0. -1.
         11    1    3    3    0    0 -0.46618801538E+01  0.12109759265E+02 -0.21118240661E+02  0.24786276140E+02  0.51100000000E-03 0. -1.
        -11    1    3    3    0    0 -0.13314117627E+01  0.68347446999E+00 -0.29657621198E+01  0.33219783030E+01  0.51100000000E-03 0.  1.
         12    1    3    3    0    0  0.27549160394E+00  0.26840483724E+01 -0.17831079180E+02  0.18034062105E+02  0.00000000000E+00 0. -1.
</event>
<event>
 7    1  0.5743890E-009  0.4614232E+02  0.7816164E-02  0.1320468E+00
        -11   -1    0    0    0    0  0.00000000000E+00  0.00000000000E+00  0.45593999997E+02  0.45594000000E+02  0.51100000000E-03 0. -1.
         11   -1    0    0    0    0 -0.00000000000E+00 -0.00000000000E+00 -0.45593999997E+02  0.45594000000E+02  0.51100000000E-03 0.  1.
    9900012    2    1    2    0    0  0.20751657685E+02 -0.35296578881E+02  0.18778543908E+02  0.46142317757E+02  0.99999999667E+01 0.  0.
        -12    1    1    2    0    0 -0.20751657685E+02  0.35296578881E+02 -0.18778543908E+02  0.45045682243E+02  0.00000000000E+00 0.  1.
         11    1    3    3    0    0  0.60308314605E+01 -0.52865165626E+01  0.42135205742E+01  0.90593565644E+01  0.51100000000E-03 0. -1.
        -11    1    3    3    0    0  0.24704394374E+01 -0.47939324655E+01 -0.20267056580E+00  0.53968449225E+01  0.51100000000E-03 0.  1.
        -12    1    3    3    0    0  0.12250386787E+02 -0.25216129853E+02  0.14767693900E+02  0.31686116271E+02  0.00000000000E+00 0.  1.
</event>
<event>
 7    1  0.5743890E-009  0.4614232E+02  0.7816164E-02  0.1320468E+00
        -11   -1    0    0    0    0  0.00000000000E+00  0.00000000000E+00  0.45593999997E+02  0.45594000000E+02  0.51100000000E-03 0. -1.
         11   -1    0    0    0    0 -0.00000000000E+00 -0.00000000000E+00 -0.45593999997E+02  0.45594000000E+02  0.51100000000E-03 0.  1.
    9900012    2    1    2    0    0 -0.10417775422E+02 -0.15981548077E+02 -0.40806539327E+02  0.46142316793E+02  0.99999911740E+01 0.  0.
         12    1    1    2    0    0  0.10417775422E+02  0.15981548077E+02  0.40806539327E+02  0.45045683207E+02  0.00000000000E+00 0. -1.
         11    1    3    3    0    0 -0.13524106190E+01 -0.41047238078E+01 -0.26236261148E+01  0.50558071831E+01  0.51100000000E-03 0. -1.
        -11    1    3    3    0    0  0.45261724911E-01 -0.84444042620E+00 -0.26270046711E+01  0.27597612325E+01  0.51100000000E-03 0.  1.
        -12    1    3    3    0    0 -0.91106265277E+01 -0.11032383843E+02 -0.35555908542E+02  0.38326748378E+02  0.00000000000E+00 0.  1.
</event>
<event>
 7    1  0.5743890E-009  0.4614232E+02  0.7816164E-02  0.1320468E+00
        -11   -1    0    0    0    0  0.00000000000E+00  0.00000000000E+00  0.45593999997E+02  0.45594000000E+02  0.51100000000E-03 0. -1.
         11   -1    0    0    0    0 -0.00000000000E+00 -0.00000000000E+00 -0.45593999997E+02  0.45594000000E+02  0.51100000000E-03 0.  1.
    9900012    2    1    2    0    0  0.40184062334E+02 -0.12144442611E+02  0.16336067574E+02  0.46142318122E+02  0.10000003294E+02 0.  0.
        -12    1    1    2    0    0 -0.40184062334E+02  0.12144442611E+02 -0.16336067574E+02  0.45045681878E+02  0.00000000000E+00 0.  1.
         11    1    3    3    0    0  0.10263261552E+01 -0.10320952675E+01 -0.66357204437E+00  0.15996543806E+01  0.51100000000E-03 0. -1.
        -11    1    3    3    0    0  0.12574317194E+01 -0.34817447665E+00 -0.54451829854E+00  0.14138106074E+01  0.51100000000E-03 0.  1.
         12    1    3    3    0    0  0.37900304460E+02 -0.10764172867E+02  0.17544157917E+02  0.43128853134E+02  0.00000000000E+00 0. -1.
</event>
<event>
 7    1  0.5743890E-009  0.4614232E+02  0.7816164E-02  0.1320468E+00
        -11   -1    0    0    0    0  0.00000000000E+00  0.00000000000E+00  0.45593999997E+02  0.45594000000E+02  0.51100000000E-03 0. -1.
         11   -1    0    0    0    0 -0.00000000000E+00 -0.00000000000E+00 -0.45593999997E+02  0.45594000000E+02  0.51100000000E-03 0.  1.
    9900012    2    1    2    0    0  0.39431323116E+02  0.14118495175E+02 -0.16581686662E+02  0.46142317840E+02  0.10000000717E+02 0.  0.
         12    1    1    2    0    0 -0.39431323116E+02 -0.14118495175E+02  0.16581686662E+02  0.45045682160E+02  0.00000000000E+00 0. -1.
         11    1    3    3    0    0  0.16799922418E+02  0.76198039995E+01 -0.87576193616E+01  0.20420448168E+02  0.51100000000E-03 0. -1.
        -11    1    3    3    0    0  0.10076109168E+02  0.27941349784E-01 -0.52596895814E+01  0.11366313890E+02  0.51100000000E-03 0.  1.
         12    1    3    3    0    0  0.12555291531E+02  0.64707498260E+01 -0.25643777190E+01  0.14355555782E+02  0.00000000000E+00 0. -1.
</event>
<event>
 7    1  0.5743890E-009  0.4614232E+02  0.7816164E-02  0.1320468E+00
        -11   -1    0    0    0    0  0.00000000000E+00  0.00000000000E+00  0.45593999997E+02  0.45594000000E+02  0.51100000000E-03 0. -1.
         11   -1    0    0    0    0 -0.00000000000E+00 -0.00000000000E+00 -0.45593999997E+02  0.45594000000E+02  0.51100000000E-03 0.  1.
    9900012    2    1    2    0    0  0.34628397871E+02 -0.18548835067E+02  0.22043780746E+02  0.46142317732E+02  0.99999997320E+01 0.  0.
        -12    1    1    2    0    0 -0.34628397871E+02  0.18548835067E+02 -0.22043780746E+02  0.45045682268E+02  0.00000000000E+00 0.  1.
         11    1    3    3    0    0  0.62059905146E+01 -0.15114029356E+01  0.62880651343E+01  0.89631702257E+01  0.51100000000E-03 0. -1.
        -11    1    3    3    0    0  0.46169917946E+01 -0.53231085737E+01  0.44865206393E+01  0.83535002141E+01  0.51100000000E-03 0.  1.
         12    1    3    3    0    0  0.23805415562E+02 -0.11714323557E+02  0.11269194973E+02  0.28825647292E+02  0.00000000000E+00 0. -1.
</event>
<event>
 7    1  0.5743890E-009  0.4614232E+02  0.7816164E-02  0.1320468E+00
        -11   -1    0    0    0    0  0.00000000000E+00  0.00000000000E+00  0.45593999997E+02  0.45594000000E+02  0.51100000000E-03 0. -1.
         11   -1    0    0    0    0 -0.00000000000E+00 -0.00000000000E+00 -0.45593999997E+02  0.45594000000E+02  0.51100000000E-03 0.  1.
    9900012    2    1    2    0    0 -0.64525576611E+01  0.13787333164E+02  0.42395606794E+02  0.46142317281E+02  0.99999956259E+01 0.  0.
        -12    1    1    2    0    0  0.64525576611E+01 -0.13787333164E+02 -0.42395606794E+02  0.45045682719E+02  0.00000000000E+00 0.  1.
         11    1    3    3    0    0  0.13502699685E+01  0.37784196475E-01  0.40710522444E+01  0.42893033550E+01  0.51100000000E-03 0.  1.
        -11    1    3    3    0    0 -0.69681307238E+01  0.66128235658E+01  0.20724005822E+02  0.22842256869E+02  0.51100000000E-03 0. -1.
         12    1    3    3    0    0 -0.83469690573E+00  0.71367254016E+01  0.17600548728E+02  0.19010757057E+02  0.00000000000E+00 0. -1.
</event>
<event>
 7    1  0.5743890E-009  0.4614231E+02  0.7816164E-02  0.1320468E+00
        -11   -1    0    0    0    0  0.00000000000E+00  0.00000000000E+00  0.45593999997E+02  0.45594000000E+02  0.51100000000E-03 0. -1.
         11   -1    0    0    0    0 -0.00000000000E+00 -0.00000000000E+00 -0.45593999997E+02  0.45594000000E+02  0.51100000000E-03 0.  1.
    9900012    2    1    2    0    0  0.23909841385E+02  0.71166851616E+00 -0.38169710644E+02  0.46142314327E+02  0.99999686810E+01 0.  0.
         12    1    1    2    0    0 -0.23909841385E+02 -0.71166851616E+00  0.38169710644E+02  0.45045685673E+02  0.00000000000E+00 0. -1.
         11    1    3    3    0    0  0.40792146118E+01 -0.73572784123E+00 -0.25863601373E+01  0.48857493106E+01  0.51100000000E-03 0. -1.
        -11    1    3    3    0    0  0.11216357162E+02  0.38198002322E+01 -0.18317231658E+02  0.21815556781E+02  0.51100000000E-03 0.  1.
         12    1    3    3    0    0  0.86142696112E+01 -0.23724038748E+01 -0.17266118850E+02  0.19441008235E+02  0.00000000000E+00 0. -1.
</event>
<event>
 7    1  0.5743890E-009  0.4614233E+02  0.7816164E-02  0.1320468E+00
        -11   -1    0    0    0    0  0.00000000000E+00  0.00000000000E+00  0.45593999997E+02  0.45594000000E+02  0.51100000000E-03 0. -1.
         11   -1    0    0    0    0 -0.00000000000E+00 -0.00000000000E+00 -0.45593999997E+02  0.45594000000E+02  0.51100000000E-03 0.  1.
    9900012    2    1    2    0    0 -0.68260541715E+01  0.16052409482E+02 -0.41531163549E+02  0.46142329714E+02  0.10000108998E+02 0.  0.
         12    1    1    2    0    0  0.68260541715E+01 -0.16052409482E+02  0.41531163549E+02  0.45045670286E+02  0.00000000000E+00 0. -1.
         11    1    3    3    0    0 -0.99638938098E+00  0.94340690675E+00 -0.63150044047E+01  0.64623594208E+01  0.51100000000E-03 0.  1.
        -11    1    3    3    0    0  0.68223648450E-01  0.19255105474E+00  0.49303428769E+00  0.53367915909E+00  0.51100000000E-03 0. -1.
        -12    1    3    3    0    0 -0.58978884390E+01  0.14916451521E+02 -0.35709193432E+02  0.39146291134E+02  0.00000000000E+00 0.  1.
</event>
<event>
 7    1  0.5743890E-009  0.4614231E+02  0.7816164E-02  0.1320468E+00
        -11   -1    0    0    0    0  0.00000000000E+00  0.00000000000E+00  0.45593999997E+02  0.45594000000E+02  0.51100000000E-03 0.  1.
         11   -1    0    0    0    0 -0.00000000000E+00 -0.00000000000E+00 -0.45593999997E+02  0.45594000000E+02  0.51100000000E-03 0. -1.
    9900012    2    1    2    0    0 -0.36714744571E+02  0.25987220456E+02  0.24095281606E+01  0.46142312949E+02  0.99999561217E+01 0.  0.
        -12    1    1    2    0    0  0.36714744571E+02 -0.25987220456E+02 -0.24095281606E+01  0.45045687051E+02  0.00000000000E+00 0.  1.
         11    1    3    3    0    0 -0.40033615562E+01  0.44547538088E+01 -0.23556661771E+01  0.64359069793E+01  0.51100000000E-03 0. -1.
        -11    1    3    3    0    0 -0.17097340515E+01  0.31514107521E+00 -0.40567142695E+00  0.17852377970E+01  0.51100000000E-03 0.  1.
         12    1    3    3    0    0 -0.31001648963E+02  0.21217325572E+02  0.51708657646E+01  0.37921168173E+02  0.00000000000E+00 0. -1.
</event>
<event>
 7    1  0.5743890E-009  0.4614232E+02  0.7816164E-02  0.1320468E+00
        -11   -1    0    0    0    0  0.00000000000E+00  0.00000000000E+00  0.45593999997E+02  0.45594000000E+02  0.51100000000E-03 0.  1.
         11   -1    0    0    0    0 -0.00000000000E+00 -0.00000000000E+00 -0.45593999997E+02  0.45594000000E+02  0.51100000000E-03 0. -1.
    9900012    2    1    2    0    0  0.35246843658E+02  0.27088597686E+02 -0.72788278413E+01  0.46142318218E+02  0.10000004168E+02 0.  0.
         12    1    1    2    0    0 -0.35246843658E+02 -0.27088597686E+02  0.72788278413E+01  0.45045681782E+02  0.00000000000E+00 0. -1.
         11    1    3    3    0    0  0.11613117099E+02  0.84165231518E+01 -0.56007133104E+01  0.15397088704E+02  0.51100000000E-03 0.  1.
        -11    1    3    3    0    0  0.60238147438E+01  0.17483656884E+01 -0.16370207555E+00  0.62745458225E+01  0.51100000000E-03 0. -1.
         12    1    3    3    0    0  0.17609911815E+02  0.16923708846E+02 -0.15144124554E+01  0.24470683691E+02  0.00000000000E+00 0. -1.
</event>
<event>
 7    1  0.5743890E-009  0.4614232E+02  0.7816164E-02  0.1320468E+00
        -11   -1    0    0    0    0  0.00000000000E+00  0.00000000000E+00  0.45593999997E+02  0.45594000000E+02  0.51100000000E-03 0. -1.
         11   -1    0    0    0    0 -0.00000000000E+00 -0.00000000000E+00 -0.45593999997E+02  0.45594000000E+02  0.51100000000E-03 0.  1.
    9900012    2    1    2    0    0  0.24707324846E+02  0.24147157503E+02 -0.28906337495E+02  0.46142318033E+02  0.10000002476E+02 0.  0.
         12    1    1    2    0    0 -0.24707324846E+02 -0.24147157503E+02  0.28906337495E+02  0.45045681967E+02  0.00000000000E+00 0. -1.
         11    1    3    3    0    0  0.92726175960E+00 -0.29601823125E+00  0.46893782029E+00  0.10804369970E+01  0.51100000000E-03 0.  1.
        -11    1    3    3    0    0  0.77507164598E+01  0.72978150404E+01 -0.10357896588E+02  0.14853206118E+02  0.51100000000E-03 0. -1.
        -12    1    3    3    0    0  0.16029346627E+02  0.17145360694E+02 -0.19017378727E+02  0.30208674918E+02  0.00000000000E+00 0.  1.
</event>
<event>
 7    1  0.5743890E-009  0.4614232E+02  0.7816164E-02  0.1320468E+00
        -11   -1    0    0    0    0  0.00000000000E+00  0.00000000000E+00  0.45593999997E+02  0.45594000000E+02  0.51100000000E-03 0. -1.
         11   -1    0    0    0    0 -0.00000000000E+00 -0.00000000000E+00 -0.45593999997E+02  0.45594000000E+02  0.51100000000E-03 0.  1.
    9900012    2    1    2    0    0 -0.47894101274E+01 -0.75398486906E+00  0.44783998412E+02  0.46142318117E+02  0.10000003243E+02 0.  0.
        -12    1    1    2    0    0  0.47894101274E+01  0.75398486906E+00 -0.44783998412E+02  0.45045681883E+02  0.00000000000E+00 0.  1.
         11    1    3    3    0    0  0.52927159017E+00 -0.13486451052E+01  0.96707747468E+01  0.97786940079E+01  0.51100000000E-03 0. -1.
        -11    1    3    3    0    0 -0.45878927001E+00  0.15149075844E+01  0.95393794732E+00  0.18480883236E+01  0.51100000000E-03 0.  1.
        -12    1    3    3    0    0 -0.48598924475E+01 -0.92024734826E+00  0.34159285718E+02  0.34515535785E+02  0.00000000000E+00 0.  1.
</event>
<event>
 7    1  0.5743890E-009  0.4614232E+02  0.7816164E-02  0.1320468E+00
        -11   -1    0    0    0    0  0.00000000000E+00  0.00000000000E+00  0.45593999997E+02  0.45594000000E+02  0.51100000000E-03 0. -1.
         11   -1    0    0    0    0 -0.00000000000E+00 -0.00000000000E+00 -0.45593999997E+02  0.45594000000E+02  0.51100000000E-03 0.  1.
    9900012    2    1    2    0    0  0.19267482629E+02 -0.27658981210E+02 -0.29880735736E+02  0.46142317670E+02  0.99999991730E+01 0.  0.
         12    1    1    2    0    0 -0.19267482629E+02  0.27658981210E+02  0.29880735736E+02  0.45045682330E+02  0.00000000000E+00 0. -1.
         11    1    3    3    0    0  0.10859942576E-01  0.97796495964E-01 -0.26057176520E+01  0.26075748956E+01  0.51100000000E-03 0. -1.
        -11    1    3    3    0    0  0.86411841011E+01 -0.14961712456E+02 -0.14789360540E+02  0.22743088791E+02  0.51100000000E-03 0.  1.
        -12    1    3    3    0    0  0.10615438585E+02 -0.12795065250E+02 -0.12485657543E+02  0.20791653984E+02  0.00000000000E+00 0.  1.
</event>
<event>
 7    1  0.5743890E-009  0.4614232E+02  0.7816164E-02  0.1320468E+00
        -11   -1    0    0    0    0  0.00000000000E+00  0.00000000000E+00  0.45593999997E+02  0.45594000000E+02  0.51100000000E-03 0. -1.
         11   -1    0    0    0    0 -0.00000000000E+00 -0.00000000000E+00 -0.45593999997E+02  0.45594000000E+02  0.51100000000E-03 0.  1.
    9900012    2    1    2    0    0 -0.31679068731E+02 -0.13923008153E+01 -0.31993929842E+02  0.46142318254E+02  0.10000004496E+02 0.  0.
         12    1    1    2    0    0  0.31679068731E+02  0.13923008153E+01  0.31993929842E+02  0.45045681746E+02  0.00000000000E+00 0. -1.
         11    1    3    3    0    0 -0.40968072275E+01  0.20817851088E+01 -0.34849292801E+01  0.57673556372E+01  0.51100000000E-03 0. -1.
        -11    1    3    3    0    0 -0.11825891365E+02 -0.27488444928E+01 -0.81592849942E+01  0.14628116232E+02  0.51100000000E-03 0.  1.
        -12    1    3    3    0    0 -0.15756370138E+02 -0.72524143124E+00 -0.20349715568E+02  0.25746846385E+02  0.00000000000E+00 0.  1.
</event>
<event>
 7    1  0.5743890E-009  0.4614232E+02  0.7816164E-02  0.1320468E+00
        -11   -1    0    0    0    0  0.00000000000E+00  0.00000000000E+00  0.45593999997E+02  0.45594000000E+02  0.51100000000E-03 0. -1.
         11   -1    0    0    0    0 -0.00000000000E+00 -0.00000000000E+00 -0.45593999997E+02  0.45594000000E+02  0.51100000000E-03 0.  1.
    9900012    2    1    2    0    0 -0.19390432452E+02 -0.39477012696E+02  0.97308730680E+01  0.46142319932E+02  0.10000019797E+02 0.  0.
        -12    1    1    2    0    0  0.19390432452E+02  0.39477012696E+02 -0.97308730680E+01  0.45045680068E+02  0.00000000000E+00 0.  1.
         11    1    3    3    0    0 -0.69756570246E+01 -0.23153912348E+02  0.39664257585E+01  0.24505019517E+02  0.51100000000E-03 0. -1.
        -11    1    3    3    0    0 -0.11915403392E+02 -0.16077059358E+02  0.61787135958E+01  0.20943380280E+02  0.51100000000E-03 0.  1.
         12    1    3    3    0    0 -0.49937203515E+00 -0.24604099072E+00 -0.41426628632E+00  0.69392013560E+00  0.00000000000E+00 0. -1.
</event>
<event>
 7    1  0.5743890E-009  0.4614232E+02  0.7816164E-02  0.1320468E+00
        -11   -1    0    0    0    0  0.00000000000E+00  0.00000000000E+00  0.45593999997E+02  0.45594000000E+02  0.51100000000E-03 0. -1.
         11   -1    0    0    0    0 -0.00000000000E+00 -0.00000000000E+00 -0.45593999997E+02  0.45594000000E+02  0.51100000000E-03 0.  1.
    9900012    2    1    2    0    0 -0.42127452177E+01  0.30771817972E+02 -0.32626085456E+02  0.46142318124E+02  0.10000003306E+02 0.  0.
         12    1    1    2    0    0  0.42127452177E+01 -0.30771817972E+02  0.32626085456E+02  0.45045681876E+02  0.00000000000E+00 0. -1.
         11    1    3    3    0    0 -0.67816208165E+01  0.21784263960E+02 -0.23848584606E+02  0.33004537948E+02  0.51100000000E-03 0. -1.
        -11    1    3    3    0    0 -0.14047369801E+00  0.46487480756E+01 -0.38959994218E+01  0.60670753486E+01  0.51100000000E-03 0.  1.
         12    1    3    3    0    0  0.27093492968E+01  0.43388059361E+01 -0.48815014279E+01  0.70707048272E+01  0.00000000000E+00 0. -1.
</event>
<event>
 7    1  0.5743890E-009  0.4614232E+02  0.7816164E-02  0.1320468E+00
        -11   -1    0    0    0    0  0.00000000000E+00  0.00000000000E+00  0.45593999997E+02  0.45594000000E+02  0.51100000000E-03 0. -1.
         11   -1    0    0    0    0 -0.00000000000E+00 -0.00000000000E+00 -0.45593999997E+02  0.45594000000E+02  0.51100000000E-03 0.  1.
    9900012    2    1    2    0    0 -0.20910899237E+02  0.22711816600E+02 -0.32802760319E+02  0.46142318690E+02  0.10000008468E+02 0.  0.
         12    1    1    2    0    0  0.20910899237E+02 -0.22711816600E+02  0.32802760319E+02  0.45045681310E+02  0.00000000000E+00 0. -1.
         11    1    3    3    0    0 -0.67047137138E+01  0.18408450766E+01 -0.59711010904E+01  0.91649301728E+01  0.51100000000E-03 0. -1.
        -11    1    3    3    0    0 -0.52328938715E+01  0.72742993625E+01 -0.74085920553E+01  0.11626944826E+02  0.51100000000E-03 0.  1.
        -12    1    3    3    0    0 -0.89732916521E+01  0.13596672161E+02 -0.19423067173E+02  0.25350443691E+02  0.00000000000E+00 0.  1.
</event>
<event>
 7    1  0.5743890E-009  0.4614232E+02  0.7816164E-02  0.1320468E+00
        -11   -1    0    0    0    0  0.00000000000E+00  0.00000000000E+00  0.45593999997E+02  0.45594000000E+02  0.51100000000E-03 0.  1.
         11   -1    0    0    0    0 -0.00000000000E+00 -0.00000000000E+00 -0.45593999997E+02  0.45594000000E+02  0.51100000000E-03 0. -1.
    9900012    2    1    2    0    0 -0.40879543133E+02  0.16986768675E+02  0.83322265571E+01  0.46142319229E+02  0.10000013383E+02 0.  0.
        -12    1    1    2    0    0  0.40879543133E+02 -0.16986768675E+02 -0.83322265571E+01  0.45045680771E+02  0.00000000000E+00 0.  1.
         11    1    3    3    0    0 -0.13533387488E+02  0.44240269141E+01  0.67526527133E+01  0.15758264814E+02  0.51100000000E-03 0. -1.
        -11    1    3    3    0    0 -0.81889325468E+01  0.54845291914E+01  0.14400594463E+01  0.99605445723E+01  0.51100000000E-03 0.  1.
         12    1    3    3    0    0 -0.19157223098E+02  0.70782125696E+01  0.13951439757E+00  0.20423509842E+02  0.00000000000E+00 0. -1.
</event>
<event>
 7    1  0.8344613E-009  0.4614232E+02  0.7816164E-02  0.1320468E+00
        -11   -1    0    0    0    0  0.00000000000E+00  0.00000000000E+00  0.45593999997E+02  0.45594000000E+02  0.51100000000E-03 0. -1.
         11   -1    0    0    0    0 -0.00000000000E+00 -0.00000000000E+00 -0.45593999997E+02  0.45594000000E+02  0.51100000000E-03 0.  1.
    9900012    2    1    2    0    0 -0.51840525360E+01  0.24598867885E+02  0.37378265423E+02  0.46142318431E+02  0.10000006112E+02 0.  0.
        -12    1    1    2    0    0  0.51840525360E+01 -0.24598867885E+02 -0.37378265423E+02  0.45045681569E+02  0.00000000000E+00 0.  1.
         11    1    3    3    0    0 -0.21225259091E+01  0.12128239065E+02  0.22540940529E+02  0.25684495308E+02  0.51100000000E-03 0. -1.
        -11    1    3    3    0    0 -0.25146952656E+01  0.51747909199E+01  0.10443730277E+02  0.11923659493E+02  0.51100000000E-03 0.  1.
        -12    1    3    3    0    0 -0.54683136124E+00  0.72958379003E+01  0.43935946175E+01  0.85341636303E+01  0.00000000000E+00 0.  1.
</event>
<event>
 7    1  0.5743890E-009  0.4614232E+02  0.7816164E-02  0.1320468E+00
        -11   -1    0    0    0    0  0.00000000000E+00  0.00000000000E+00  0.45593999997E+02  0.45594000000E+02  0.51100000000E-03 0. -1.
         11   -1    0    0    0    0 -0.00000000000E+00 -0.00000000000E+00 -0.45593999997E+02  0.45594000000E+02  0.51100000000E-03 0.  1.
    9900012    2    1    2    0    0 -0.48645229092E+01 -0.26984291211E+02  0.35739305241E+02  0.46142317694E+02  0.99999993876E+01 0.  0.
        -12    1    1    2    0    0  0.48645229092E+01  0.26984291211E+02 -0.35739305241E+02  0.45045682306E+02  0.00000000000E+00 0.  1.
         11    1    3    3    0    0  0.10509402193E+01 -0.65118288710E+00  0.22307758787E+01  0.25504657965E+01  0.51100000000E-03 0. -1.
        -11    1    3    3    0    0  0.15140916173E+01 -0.66913546165E+01  0.90100688861E+01  0.11324665188E+02  0.51100000000E-03 0.  1.
        -12    1    3    3    0    0 -0.74295547457E+01 -0.19641753708E+02  0.24498460476E+02  0.32267186709E+02  0.00000000000E+00 0.  1.
</event>
<event>
 7    1  0.5743890E-009  0.4614232E+02  0.7816164E-02  0.1320468E+00
        -11   -1    0    0    0    0  0.00000000000E+00  0.00000000000E+00  0.45593999997E+02  0.45594000000E+02  0.51100000000E-03 0.  1.
         11   -1    0    0    0    0 -0.00000000000E+00 -0.00000000000E+00 -0.45593999997E+02  0.45594000000E+02  0.51100000000E-03 0. -1.
    9900012    2    1    2    0    0  0.35113347744E+02 -0.14223018085E+02 -0.24369485317E+02  0.46142320431E+02  0.10000024346E+02 0.  0.
        -12    1    1    2    0    0 -0.35113347744E+02  0.14223018085E+02  0.24369485317E+02  0.45045679569E+02  0.00000000000E+00 0.  1.
         11    1    3    3    0    0  0.71986637273E+01 -0.11109761063E+01 -0.57565983347E+01  0.92840428702E+01  0.51100000000E-03 0. -1.
        -11    1    3    3    0    0  0.15959923591E+02 -0.33682873491E+01 -0.10865810534E+02  0.19599243851E+02  0.51100000000E-03 0.  1.
         12    1    3    3    0    0  0.11954760425E+02 -0.97437546295E+01 -0.77470764483E+01  0.17259033710E+02  0.00000000000E+00 0. -1.
</event>
<event>
 7    1  0.5743890E-009  0.4614232E+02  0.7816164E-02  0.1320468E+00
        -11   -1    0    0    0    0  0.00000000000E+00  0.00000000000E+00  0.45593999997E+02  0.45594000000E+02  0.51100000000E-03 0.  1.
         11   -1    0    0    0    0 -0.00000000000E+00 -0.00000000000E+00 -0.45593999997E+02  0.45594000000E+02  0.51100000000E-03 0. -1.
    9900012    2    1    2    0    0  0.18572076196E+02  0.29804836932E+02 -0.28211046564E+02  0.46142317999E+02  0.10000002168E+02 0.  0.
         12    1    1    2    0    0 -0.18572076196E+02 -0.29804836932E+02  0.28211046564E+02  0.45045682001E+02  0.00000000000E+00 0. -1.
         11    1    3    3    0    0  0.39214131141E+01  0.40398796708E+01 -0.85540502930E+01  0.10240599848E+02  0.51100000000E-03 0. -1.
        -11    1    3    3    0    0  0.11737003050E+02  0.16890346538E+02 -0.15053764791E+02  0.25488367570E+02  0.51100000000E-03 0.  1.
        -12    1    3    3    0    0  0.29136600320E+01  0.88746107229E+01 -0.46032314800E+01  0.10413350581E+02  0.00000000000E+00 0.  1.
</event>
<event>
 7    1  0.5743890E-009  0.4614232E+02  0.7816164E-02  0.1320468E+00
        -11   -1    0    0    0    0  0.00000000000E+00  0.00000000000E+00  0.45593999997E+02  0.45594000000E+02  0.51100000000E-03 0. -1.
         11   -1    0    0    0    0 -0.00000000000E+00 -0.00000000000E+00 -0.45593999997E+02  0.45594000000E+02  0.51100000000E-03 0.  1.
    9900012    2    1    2    0    0  0.34248364576E+02  0.47558626333E+01  0.28871176078E+02  0.46142317480E+02  0.99999974407E+01 0.  0.
        -12    1    1    2    0    0 -0.34248364576E+02 -0.47558626333E+01 -0.28871176078E+02  0.45045682520E+02  0.00000000000E+00 0.  1.
         11    1    3    3    0    0  0.25510710028E+02  0.76103240621E+01  0.23102057053E+02  0.35247955953E+02  0.51100000000E-03 0. -1.
        -11    1    3    3    0    0  0.61927171030E+01 -0.15609785600E+01  0.40231217707E+01  0.75479737828E+01  0.51100000000E-03 0.  1.
         12    1    3    3    0    0  0.25449374446E+01 -0.12934828688E+01  0.17459972542E+01  0.33463877451E+01  0.00000000000E+00 0. -1.
</event>
<event>
 7    1  0.5743890E-009  0.4614232E+02  0.7816164E-02  0.1320468E+00
        -11   -1    0    0    0    0  0.00000000000E+00  0.00000000000E+00  0.45593999997E+02  0.45594000000E+02  0.51100000000E-03 0. -1.
         11   -1    0    0    0    0 -0.00000000000E+00 -0.00000000000E+00 -0.45593999997E+02  0.45594000000E+02  0.51100000000E-03 0.  1.
    9900012    2    1    2    0    0 -0.12801417127E+02  0.40099685230E+02  0.16039090669E+02  0.46142318015E+02  0.10000002318E+02 0.  0.
        -12    1    1    2    0    0  0.12801417127E+02 -0.40099685230E+02 -0.16039090669E+02  0.45045681985E+02  0.00000000000E+00 0.  1.
         11    1    3    3    0    0 -0.95271249433E+01  0.19430897541E+02  0.57457565047E+01  0.22390614261E+02  0.51100000000E-03 0. -1.
        -11    1    3    3    0    0 -0.78483160560E+00  0.13066306421E+02  0.43782257152E+01  0.13802651369E+02  0.51100000000E-03 0.  1.
         12    1    3    3    0    0 -0.24894605780E+01  0.76024812678E+01  0.59151084491E+01  0.99490523850E+01  0.00000000000E+00 0. -1.
</event>
<event>
 7    1  0.5743890E-009  0.4614232E+02  0.7816164E-02  0.1320468E+00
        -11   -1    0    0    0    0  0.00000000000E+00  0.00000000000E+00  0.45593999997E+02  0.45594000000E+02  0.51100000000E-03 0. -1.
         11   -1    0    0    0    0 -0.00000000000E+00 -0.00000000000E+00 -0.45593999997E+02  0.45594000000E+02  0.51100000000E-03 0.  1.
    9900012    2    1    2    0    0 -0.30864986708E+02  0.24450478359E+02  0.21877848443E+02  0.46142317089E+02  0.99999938701E+01 0.  0.
        -12    1    1    2    0    0  0.30864986708E+02 -0.24450478359E+02 -0.21877848443E+02  0.45045682911E+02  0.00000000000E+00 0.  1.
         11    1    3    3    0    0 -0.38278081369E+01  0.17791496935E+01  0.41769667750E+01  0.59383954453E+01  0.51100000000E-03 0. -1.
        -11    1    3    3    0    0 -0.27474753290E+02  0.22313093702E+02  0.16895478976E+02  0.39219809140E+02  0.51100000000E-03 0.  1.
        -12    1    3    3    0    0  0.43757471917E+00  0.35823496337E+00  0.80540269122E+00  0.98411250315E+00  0.00000000000E+00 0.  1.
</event>
<event>
 7    1  0.5743890E-009  0.4614232E+02  0.7816164E-02  0.1320468E+00
        -11   -1    0    0    0    0  0.00000000000E+00  0.00000000000E+00  0.45593999997E+02  0.45594000000E+02  0.51100000000E-03 0. -1.
         11   -1    0    0    0    0 -0.00000000000E+00 -0.00000000000E+00 -0.45593999997E+02  0.45594000000E+02  0.51100000000E-03 0.  1.
    9900012    2    1    2    0    0 -0.28544410171E+02  0.60245666164E+01 -0.34322512001E+02  0.46142316688E+02  0.99999902155E+01 0.  0.
         12    1    1    2    0    0  0.28544410171E+02 -0.60245666164E+01  0.34322512001E+02  0.45045683312E+02  0.00000000000E+00 0. -1.
         11    1    3    3    0    0 -0.16500927890E+02  0.68108329341E+01 -0.17805773403E+02  0.25213362197E+02  0.51100000000E-03 0. -1.
        -11    1    3    3    0    0 -0.22013383399E+01 -0.18134790880E+01 -0.48922471585E+01  0.56629214555E+01  0.51100000000E-03 0.  1.
         12    1    3    3    0    0 -0.98421439410E+01  0.10272127704E+01 -0.11624491439E+02  0.15266033036E+02  0.00000000000E+00 0. -1.
</event>
<event>
 7    1  0.5743890E-009  0.4614232E+02  0.7816164E-02  0.1320468E+00
        -11   -1    0    0    0    0  0.00000000000E+00  0.00000000000E+00  0.45593999997E+02  0.45594000000E+02  0.51100000000E-03 0. -1.
         11   -1    0    0    0    0 -0.00000000000E+00 -0.00000000000E+00 -0.45593999997E+02  0.45594000000E+02  0.51100000000E-03 0.  1.
    9900012    2    1    2    0    0  0.26737142506E+02  0.89032615924E+01 -0.35142148878E+02  0.46142317808E+02  0.10000000425E+02 0.  0.
         12    1    1    2    0    0 -0.26737142506E+02 -0.89032615924E+01  0.35142148878E+02  0.45045682192E+02  0.00000000000E+00 0. -1.
         11    1    3    3    0    0  0.44185820166E+00 -0.72111419231E-01 -0.31107033608E-01  0.44878350662E+00  0.51100000000E-03 0. -1.
        -11    1    3    3    0    0  0.18824556969E+02  0.23573447299E+01 -0.19844212483E+02  0.27453848339E+02  0.51100000000E-03 0.  1.
        -12    1    3    3    0    0  0.74707273355E+01  0.66180282817E+01 -0.15266829361E+02  0.18239685963E+02  0.00000000000E+00 0.  1.
</event>
<event>
 7    1  0.5743890E-009  0.4614232E+02  0.7816164E-02  0.1320468E+00
        -11   -1    0    0    0    0  0.00000000000E+00  0.00000000000E+00  0.45593999997E+02  0.45594000000E+02  0.51100000000E-03 0. -1.
         11   -1    0    0    0    0 -0.00000000000E+00 -0.00000000000E+00 -0.45593999997E+02  0.45594000000E+02  0.51100000000E-03 0.  1.
    9900012    2    1    2    0    0  0.78610040968E+01  0.24022348034E+02 -0.37285987538E+02  0.46142318107E+02  0.10000003158E+02 0.  0.
         12    1    1    2    0    0 -0.78610040968E+01 -0.24022348034E+02  0.37285987538E+02  0.45045681893E+02  0.00000000000E+00 0. -1.
         11    1    3    3    0    0  0.10105187787E+01  0.76394248656E+01 -0.11630690435E+02  0.13951878753E+02  0.51100000000E-03 0. -1.
        -11    1    3    3    0    0  0.79436504187E+01  0.13402221026E+02 -0.23991180801E+02  0.28605906154E+02  0.51100000000E-03 0.  1.
         12    1    3    3    0    0 -0.10931651006E+01  0.29807021424E+01 -0.16641163020E+01  0.35845332005E+01  0.00000000000E+00 0. -1.
</event>
<event>
 7    1  0.5743890E-009  0.4614232E+02  0.7816164E-02  0.1320468E+00
        -11   -1    0    0    0    0  0.00000000000E+00  0.00000000000E+00  0.45593999997E+02  0.45594000000E+02  0.51100000000E-03 0.  1.
         11   -1    0    0    0    0 -0.00000000000E+00 -0.00000000000E+00 -0.45593999997E+02  0.45594000000E+02  0.51100000000E-03 0. -1.
    9900012    2    1    2    0    0 -0.29403292692E+01  0.35290317624E+02 -0.27839924154E+02  0.46142318397E+02  0.10000005797E+02 0.  0.
         12    1    1    2    0    0  0.29403292692E+01 -0.35290317624E+02  0.27839924154E+02  0.45045681603E+02  0.00000000000E+00 0. -1.
         11    1    3    3    0    0 -0.40098525588E+01  0.15430234187E+02 -0.79774923601E+01  0.17827266454E+02  0.51100000000E-03 0.  1.
        -11    1    3    3    0    0  0.15605520160E+01  0.90914527145E+01 -0.73142949999E+01  0.11772372177E+02  0.51100000000E-03 0. -1.
        -12    1    3    3    0    0 -0.49102872641E+00  0.10768630722E+02 -0.12548136794E+02  0.16542679766E+02  0.00000000000E+00 0.  1.
</event>
<event>
 7    1  0.6285086E-009  0.4614233E+02  0.7816164E-02  0.1320468E+00
        -11   -1    0    0    0    0  0.00000000000E+00  0.00000000000E+00  0.45593999997E+02  0.45594000000E+02  0.51100000000E-03 0. -1.
         11   -1    0    0    0    0 -0.00000000000E+00 -0.00000000000E+00 -0.45593999997E+02  0.45594000000E+02  0.51100000000E-03 0.  1.
    9900012    2    1    2    0    0  0.44886231928E+01 -0.21707965319E+02  0.39213885503E+02  0.46142330811E+02  0.10000118996E+02 0.  0.
        -12    1    1    2    0    0 -0.44886231928E+01  0.21707965319E+02 -0.39213885503E+02  0.45045669189E+02  0.00000000000E+00 0.  1.
         11    1    3    3    0    0  0.14057262651E+00 -0.90862220489E+01  0.18091045391E+02  0.20245125719E+02  0.51100000000E-03 0. -1.
        -11    1    3    3    0    0  0.22019190809E+01 -0.12601751955E+02  0.18742586020E+02  0.22692226223E+02  0.51100000000E-03 0.  1.
        -12    1    3    3    0    0  0.21461314853E+01 -0.19991315228E-01  0.23802540917E+01  0.32049788683E+01  0.00000000000E+00 0.  1.
</event>
<event>
 7    1  0.5743890E-009  0.4614232E+02  0.7816164E-02  0.1320468E+00
        -11   -1    0    0    0    0  0.00000000000E+00  0.00000000000E+00  0.45593999997E+02  0.45594000000E+02  0.51100000000E-03 0. -1.
         11   -1    0    0    0    0 -0.00000000000E+00 -0.00000000000E+00 -0.45593999997E+02  0.45594000000E+02  0.51100000000E-03 0.  1.
    9900012    2    1    2    0    0  0.53553827577E+01 -0.27052723246E+02 -0.35617180408E+02  0.46142317635E+02  0.99999988490E+01 0.  0.
         12    1    1    2    0    0 -0.53553827577E+01  0.27052723246E+02  0.35617180408E+02  0.45045682365E+02  0.00000000000E+00 0. -1.
         11    1    3    3    0    0 -0.22690822136E+00 -0.74152669851E+01 -0.53375894863E+01  0.91393398879E+01  0.51100000000E-03 0. -1.
        -11    1    3    3    0    0  0.45087991715E+01 -0.18489852271E+02 -0.29802190994E+02  0.35360634826E+02  0.51100000000E-03 0.  1.
        -12    1    3    3    0    0  0.10734918076E+01 -0.11476039902E+01 -0.47739992717E+00  0.16423429209E+01  0.00000000000E+00 0.  1.
</event>
<event>
 7    1  0.5743890E-009  0.4614232E+02  0.7816164E-02  0.1320468E+00
        -11   -1    0    0    0    0  0.00000000000E+00  0.00000000000E+00  0.45593999997E+02  0.45594000000E+02  0.51100000000E-03 0. -1.
         11   -1    0    0    0    0 -0.00000000000E+00 -0.00000000000E+00 -0.45593999997E+02  0.45594000000E+02  0.51100000000E-03 0.  1.
    9900012    2    1    2    0    0 -0.14214400686E+02 -0.10809138967E+02 -0.41354888071E+02  0.46142318304E+02  0.10000004949E+02 0.  0.
         12    1    1    2    0    0  0.14214400686E+02  0.10809138967E+02  0.41354888071E+02  0.45045681696E+02  0.00000000000E+00 0. -1.
         11    1    3    3    0    0 -0.11111427875E+02 -0.96067698619E+01 -0.29488603571E+02  0.32944371255E+02  0.51100000000E-03 0. -1.
        -11    1    3    3    0    0 -0.19119532505E+01 -0.11437563243E+01 -0.13306985376E+01  0.25950920254E+01  0.51100000000E-03 0.  1.
        -12    1    3    3    0    0 -0.11910195604E+01 -0.58612780816E-01 -0.10535585963E+02  0.10602855023E+02  0.00000000000E+00 0.  1.
</event>
<event>
 7    1  0.5743890E-009  0.4614232E+02  0.7816164E-02  0.1320468E+00
        -11   -1    0    0    0    0  0.00000000000E+00  0.00000000000E+00  0.45593999997E+02  0.45594000000E+02  0.51100000000E-03 0.  1.
         11   -1    0    0    0    0 -0.00000000000E+00 -0.00000000000E+00 -0.45593999997E+02  0.45594000000E+02  0.51100000000E-03 0. -1.
    9900012    2    1    2    0    0  0.38077867855E+02  0.11941751034E+01  0.24036705579E+02  0.46142319967E+02  0.10000020115E+02 0.  0.
        -12    1    1    2    0    0 -0.38077867855E+02 -0.11941751034E+01 -0.24036705579E+02  0.45045680033E+02  0.00000000000E+00 0.  1.
         11    1    3    3    0    0  0.18189347081E+02  0.64716946508E+00  0.11715924957E+02  0.21645647909E+02  0.51100000000E-03 0. -1.
        -11    1    3    3    0    0  0.16203876977E+02 -0.24109021111E+01  0.10345187763E+02  0.19375267435E+02  0.51100000000E-03 0.  1.
        -12    1    3    3    0    0  0.36846437973E+01  0.29579077494E+01  0.19755928586E+01  0.51214046228E+01  0.00000000000E+00 0.  1.
</event>
<event>
 7    1  0.5743890E-009  0.4614232E+02  0.7816164E-02  0.1320468E+00
        -11   -1    0    0    0    0  0.00000000000E+00  0.00000000000E+00  0.45593999997E+02  0.45594000000E+02  0.51100000000E-03 0. -1.
         11   -1    0    0    0    0 -0.00000000000E+00 -0.00000000000E+00 -0.45593999997E+02  0.45594000000E+02  0.51100000000E-03 0.  1.
    9900012    2    1    2    0    0  0.31952112059E+02 -0.20177287100E+02  0.24516389379E+02  0.46142315102E+02  0.99999757522E+01 0.  0.
        -12    1    1    2    0    0 -0.31952112059E+02  0.20177287100E+02 -0.24516389379E+02  0.45045684898E+02  0.00000000000E+00 0.  1.
         11    1    3    3    0    0  0.81267503878E+01 -0.83246400999E+01  0.58960370982E+01  0.13042505832E+02  0.51100000000E-03 0.  1.
        -11    1    3    3    0    0  0.21662586075E+02 -0.10635228316E+02  0.14118196408E+02  0.27958883863E+02  0.51100000000E-03 0. -1.
         12    1    3    3    0    0  0.21627755955E+01 -0.12174186843E+01  0.45021558732E+01  0.51409254065E+01  0.00000000000E+00 0. -1.
</event>
<event>
 7    1  0.5743890E-009  0.4614231E+02  0.7816164E-02  0.1320468E+00
        -11   -1    0    0    0    0  0.00000000000E+00  0.00000000000E+00  0.45593999997E+02  0.45594000000E+02  0.51100000000E-03 0. -1.
         11   -1    0    0    0    0 -0.00000000000E+00 -0.00000000000E+00 -0.45593999997E+02  0.45594000000E+02  0.51100000000E-03 0.  1.
    9900012    2    1    2    0    0  0.74063968107E+01 -0.30608576898E+02  0.32208292516E+02  0.46142314299E+02  0.99999684325E+01 0.  0.
        -12    1    1    2    0    0 -0.74063968107E+01  0.30608576898E+02 -0.32208292516E+02  0.45045685701E+02  0.00000000000E+00 0.  1.
         11    1    3    3    0    0  0.17739970913E+01 -0.61876505674E+01  0.11697913088E+02  0.13351975738E+02  0.51100000000E-03 0. -1.
        -11    1    3    3    0    0  0.50559667897E+00  0.11062216494E+00  0.50724629835E+00  0.72468222931E+00  0.51100000000E-03 0.  1.
         12    1    3    3    0    0  0.51268030405E+01 -0.24531548496E+02  0.20003133129E+02  0.32065656332E+02  0.00000000000E+00 0. -1.
</event>
<event>
 7    1  0.5743890E-009  0.4614232E+02  0.7816164E-02  0.1320468E+00
        -11   -1    0    0    0    0  0.00000000000E+00  0.00000000000E+00  0.45593999997E+02  0.45594000000E+02  0.51100000000E-03 0. -1.
         11   -1    0    0    0    0 -0.00000000000E+00 -0.00000000000E+00 -0.45593999997E+02  0.45594000000E+02  0.51100000000E-03 0.  1.
    9900012    2    1    2    0    0  0.25193123031E+02  0.85610285363E+01 -0.36347335557E+02  0.46142318078E+02  0.10000002892E+02 0.  0.
         12    1    1    2    0    0 -0.25193123031E+02 -0.85610285363E+01  0.36347335557E+02  0.45045681922E+02  0.00000000000E+00 0. -1.
         11    1    3    3    0    0  0.14510683821E+02  0.57689320717E+01 -0.15305148995E+02  0.21865226005E+02  0.51100000000E-03 0. -1.
        -11    1    3    3    0    0  0.41134675240E+01  0.85641591950E+00 -0.35798037416E+01  0.55198784758E+01  0.51100000000E-03 0.  1.
         12    1    3    3    0    0  0.65689716863E+01  0.19356805450E+01 -0.17462382820E+02  0.18757213598E+02  0.00000000000E+00 0. -1.
</event>
<event>
 7    1  0.6018025E-009  0.4614232E+02  0.7816164E-02  0.1320468E+00
        -11   -1    0    0    0    0  0.00000000000E+00  0.00000000000E+00  0.45593999997E+02  0.45594000000E+02  0.51100000000E-03 0. -1.
         11   -1    0    0    0    0 -0.00000000000E+00 -0.00000000000E+00 -0.45593999997E+02  0.45594000000E+02  0.51100000000E-03 0.  1.
    9900012    2    1    2    0    0  0.25033965811E+01  0.11787299137E+02  0.43403986116E+02  0.46142318452E+02  0.10000006302E+02 0.  0.
        -12    1    1    2    0    0 -0.25033965811E+01 -0.11787299137E+02 -0.43403986116E+02  0.45045681548E+02  0.00000000000E+00 0.  1.
         11    1    3    3    0    0 -0.14030359476E-01  0.63490753075E+01  0.28930733134E+02  0.29619221361E+02  0.51100000000E-03 0. -1.
        -11    1    3    3    0    0 -0.15927000042E+01  0.83950526051E+00  0.30873516481E+01  0.35739617857E+01  0.51100000000E-03 0.  1.
         12    1    3    3    0    0  0.41101269448E+01  0.45987185692E+01  0.11385901334E+02  0.12949135306E+02  0.00000000000E+00 0. -1.
</event>
<event>
 7    1  0.5743890E-009  0.4614232E+02  0.7816164E-02  0.1320468E+00
        -11   -1    0    0    0    0  0.00000000000E+00  0.00000000000E+00  0.45593999997E+02  0.45594000000E+02  0.51100000000E-03 0. -1.
         11   -1    0    0    0    0 -0.00000000000E+00 -0.00000000000E+00 -0.45593999997E+02  0.45594000000E+02  0.51100000000E-03 0.  1.
    9900012    2    1    2    0    0 -0.25372311730E+01 -0.44828849705E+02 -0.36124901021E+01  0.46142318823E+02  0.10000009686E+02 0.  0.
         12    1    1    2    0    0  0.25372311730E+01  0.44828849705E+02  0.36124901021E+01  0.45045681177E+02  0.00000000000E+00 0. -1.
         11    1    3    3    0    0 -0.66571990176E+00 -0.19462303427E+02  0.14893567326E+01  0.19530556096E+02  0.51100000000E-03 0. -1.
        -11    1    3    3    0    0  0.70809753046E+00 -0.53798789713E+01 -0.33641944198E+01  0.63845363351E+01  0.51100000000E-03 0.  1.
        -12    1    3    3    0    0 -0.25796088017E+01 -0.19986667307E+02 -0.17376524149E+01  0.20227226393E+02  0.00000000000E+00 0.  1.
</event>
<event>
 7    1  0.5743890E-009  0.4614232E+02  0.7816164E-02  0.1320468E+00
        -11   -1    0    0    0    0  0.00000000000E+00  0.00000000000E+00  0.45593999997E+02  0.45594000000E+02  0.51100000000E-03 0. -1.
         11   -1    0    0    0    0 -0.00000000000E+00 -0.00000000000E+00 -0.45593999997E+02  0.45594000000E+02  0.51100000000E-03 0.  1.
    9900012    2    1    2    0    0 -0.32261234797E+02  0.10797733759E+01 -0.31419107643E+02  0.46142317563E+02  0.99999981917E+01 0.  0.
         12    1    1    2    0    0  0.32261234797E+02 -0.10797733759E+01  0.31419107643E+02  0.45045682437E+02  0.00000000000E+00 0. -1.
         11    1    3    3    0    0 -0.86564864054E+01  0.14500025036E+01 -0.46114632688E+01  0.99147797700E+01  0.51100000000E-03 0. -1.
        -11    1    3    3    0    0 -0.94816807517E+01  0.51342433671E+00 -0.66245856432E+01  0.11578039974E+02  0.51100000000E-03 0.  1.
        -12    1    3    3    0    0 -0.14123067640E+02 -0.88365346445E+00 -0.20183058731E+02  0.24649497819E+02  0.00000000000E+00 0.  1.
</event>
<event>
 7    1  0.5743890E-009  0.4614232E+02  0.7816164E-02  0.1320468E+00
        -11   -1    0    0    0    0  0.00000000000E+00  0.00000000000E+00  0.45593999997E+02  0.45594000000E+02  0.51100000000E-03 0. -1.
         11   -1    0    0    0    0 -0.00000000000E+00 -0.00000000000E+00 -0.45593999997E+02  0.45594000000E+02  0.51100000000E-03 0.  1.
    9900012    2    1    2    0    0  0.21808434906E+02 -0.14788736547E+02  0.36534900510E+02  0.46142317444E+02  0.99999971064E+01 0.  0.
        -12    1    1    2    0    0 -0.21808434906E+02  0.14788736547E+02 -0.36534900510E+02  0.45045682556E+02  0.00000000000E+00 0.  1.
         11    1    3    3    0    0  0.72630154438E+01 -0.28686990343E+01  0.57751757733E+01  0.97125425589E+01  0.51100000000E-03 0. -1.
        -11    1    3    3    0    0  0.56691147676E+01 -0.15694528990E+01  0.91319893932E+01  0.10862563012E+02  0.51100000000E-03 0.  1.
         12    1    3    3    0    0  0.88763046946E+01 -0.10350584614E+02  0.21627735343E+02  0.25567211873E+02  0.00000000000E+00 0. -1.
</event>
<event>
 7    1  0.5743890E-009  0.4614232E+02  0.7816164E-02  0.1320468E+00
        -11   -1    0    0    0    0  0.00000000000E+00  0.00000000000E+00  0.45593999997E+02  0.45594000000E+02  0.51100000000E-03 0. -1.
         11   -1    0    0    0    0 -0.00000000000E+00 -0.00000000000E+00 -0.45593999997E+02  0.45594000000E+02  0.51100000000E-03 0.  1.
    9900012    2    1    2    0    0  0.30734026900E+02  0.71944648548E+01 -0.32136780479E+02  0.46142318814E+02  0.10000009598E+02 0.  0.
         12    1    1    2    0    0 -0.30734026900E+02 -0.71944648548E+01  0.32136780479E+02  0.45045681186E+02  0.00000000000E+00 0. -1.
         11    1    3    3    0    0  0.16879528370E+02  0.64539849409E+01 -0.13153460347E+02  0.22351418724E+02  0.51100000000E-03 0. -1.
        -11    1    3    3    0    0  0.57925160310E+01 -0.38191025554E+00 -0.52520871160E+01  0.78283789349E+01  0.51100000000E-03 0.  1.
        -12    1    3    3    0    0  0.80619824990E+01  0.11223901694E+01 -0.13731233015E+02  0.15962521155E+02  0.00000000000E+00 0.  1.
</event>
<event>
 7    1  0.5743890E-009  0.4614232E+02  0.7816164E-02  0.1320468E+00
        -11   -1    0    0    0    0  0.00000000000E+00  0.00000000000E+00  0.45593999997E+02  0.45594000000E+02  0.51100000000E-03 0. -1.
         11   -1    0    0    0    0 -0.00000000000E+00 -0.00000000000E+00 -0.45593999997E+02  0.45594000000E+02  0.51100000000E-03 0.  1.
    9900012    2    1    2    0    0  0.13472952402E+01 -0.93322504581E+01 -0.44047783731E+02  0.46142319245E+02  0.10000013531E+02 0.  0.
         12    1    1    2    0    0 -0.13472952402E+01  0.93322504581E+01  0.44047783731E+02  0.45045680755E+02  0.00000000000E+00 0. -1.
         11    1    3    3    0    0  0.14384143874E+01 -0.12992662570E+01 -0.25831257740E+01  0.32294996179E+01  0.51100000000E-03 0. -1.
        -11    1    3    3    0    0 -0.30757081632E+01 -0.25814897772E+01 -0.89501557853E+01  0.98096564169E+01  0.51100000000E-03 0.  1.
         12    1    3    3    0    0  0.29845890160E+01 -0.54514944239E+01 -0.32514502172E+02  0.33103163210E+02  0.00000000000E+00 0. -1.
</event>
<event>
 7    1  0.5743890E-009  0.4614232E+02  0.7816164E-02  0.1320468E+00
        -11   -1    0    0    0    0  0.00000000000E+00  0.00000000000E+00  0.45593999997E+02  0.45594000000E+02  0.51100000000E-03 0. -1.
         11   -1    0    0    0    0 -0.00000000000E+00 -0.00000000000E+00 -0.45593999997E+02  0.45594000000E+02  0.51100000000E-03 0.  1.
    9900012    2    1    2    0    0 -0.14022382070E+02  0.14463252525E+02  0.40290205304E+02  0.46142317455E+02  0.99999972042E+01 0.  0.
        -12    1    1    2    0    0  0.14022382070E+02 -0.14463252525E+02 -0.40290205304E+02  0.45045682545E+02  0.00000000000E+00 0.  1.
         11    1    3    3    0    0 -0.21520644237E+01  0.37291059018E+01  0.34165598227E+01  0.54964073169E+01  0.51100000000E-03 0.  1.
        -11    1    3    3    0    0 -0.60967571702E+01  0.19115573428E+01  0.16751555612E+02  0.17928723187E+02  0.51100000000E-03 0. -1.
        -12    1    3    3    0    0 -0.57735604764E+01  0.88225892803E+01  0.20122089870E+02  0.22717186950E+02  0.00000000000E+00 0.  1.
</event>
<event>
 7    1  0.5743890E-009  0.4614232E+02  0.7816164E-02  0.1320468E+00
        -11   -1    0    0    0    0  0.00000000000E+00  0.00000000000E+00  0.45593999997E+02  0.45594000000E+02  0.51100000000E-03 0. -1.
         11   -1    0    0    0    0 -0.00000000000E+00 -0.00000000000E+00 -0.45593999997E+02  0.45594000000E+02  0.51100000000E-03 0.  1.
    9900012    2    1    2    0    0  0.16734446252E+02 -0.10312037011E+02  0.40530650985E+02  0.46142317988E+02  0.10000002065E+02 0.  0.
        -12    1    1    2    0    0 -0.16734446252E+02  0.10312037011E+02 -0.40530650985E+02  0.45045682012E+02  0.00000000000E+00 0.  1.
         11    1    3    3    0    0  0.49742009886E+00  0.69099477671E+00  0.30291010855E+01  0.31464828275E+01  0.51100000000E-03 0. -1.
        -11    1    3    3    0    0  0.52193169027E+01 -0.49710709320E+00  0.14441666769E+02  0.15363922798E+02  0.51100000000E-03 0.  1.
         12    1    3    3    0    0  0.11017709251E+02 -0.10505924695E+02  0.23059883130E+02  0.27631912362E+02  0.00000000000E+00 0. -1.
</event>
<event>
 7    1  0.5743890E-009  0.4614232E+02  0.7816164E-02  0.1320468E+00
        -11   -1    0    0    0    0  0.00000000000E+00  0.00000000000E+00  0.45593999997E+02  0.45594000000E+02  0.51100000000E-03 0.  1.
         11   -1    0    0    0    0 -0.00000000000E+00 -0.00000000000E+00 -0.45593999997E+02  0.45594000000E+02  0.51100000000E-03 0. -1.
    9900012    2    1    2    0    0  0.30757659757E+02  0.31901087304E+02 -0.80870553786E+01  0.46142317970E+02  0.10000001903E+02 0.  0.
        -12    1    1    2    0    0 -0.30757659757E+02 -0.31901087304E+02  0.80870553786E+01  0.45045682030E+02  0.00000000000E+00 0.  1.
         11    1    3    3    0    0  0.89387995345E+01  0.11888836486E+02 -0.43985186319E+01  0.15511077864E+02  0.51100000000E-03 0. -1.
        -11    1    3    3    0    0  0.18628559646E+02  0.18809645032E+02 -0.50670151984E+01  0.26953675519E+02  0.51100000000E-03 0.  1.
        -12    1    3    3    0    0  0.31903005765E+01  0.12026057861E+01  0.13784784517E+01  0.36775645863E+01  0.00000000000E+00 0.  1.
</event>
<event>
 7    1  0.5743890E-009  0.4614231E+02  0.7816164E-02  0.1320468E+00
        -11   -1    0    0    0    0  0.00000000000E+00  0.00000000000E+00  0.45593999997E+02  0.45594000000E+02  0.51100000000E-03 0. -1.
         11   -1    0    0    0    0 -0.00000000000E+00 -0.00000000000E+00 -0.45593999997E+02  0.45594000000E+02  0.51100000000E-03 0.  1.
    9900012    2    1    2    0    0  0.40896762935E+02  0.16482245626E+02 -0.92143459528E+01  0.46142314183E+02  0.99999673690E+01 0.  0.
         12    1    1    2    0    0 -0.40896762935E+02 -0.16482245626E+02  0.92143459528E+01  0.45045685817E+02  0.00000000000E+00 0. -1.
         11    1    3    3    0    0  0.14544420253E+01  0.21091215775E+00 -0.52647850435E+00  0.15611103164E+01  0.51100000000E-03 0. -1.
        -11    1    3    3    0    0  0.17078000083E+02  0.73521472399E+01 -0.86427766461E+01  0.20503895832E+02  0.51100000000E-03 0.  1.
         12    1    3    3    0    0  0.22364320826E+02  0.89191862288E+01 -0.45090802414E-01  0.24077308034E+02  0.00000000000E+00 0. -1.
</event>
<event>
 7    1  0.5743890E-009  0.4614232E+02  0.7816164E-02  0.1320468E+00
        -11   -1    0    0    0    0  0.00000000000E+00  0.00000000000E+00  0.45593999997E+02  0.45594000000E+02  0.51100000000E-03 0. -1.
         11   -1    0    0    0    0 -0.00000000000E+00 -0.00000000000E+00 -0.45593999997E+02  0.45594000000E+02  0.51100000000E-03 0.  1.
    9900012    2    1    2    0    0 -0.48103917695E+01 -0.30252875472E+02  0.33026310171E+02  0.46142317556E+02  0.99999981302E+01 0.  0.
        -12    1    1    2    0    0  0.48103917695E+01  0.30252875472E+02 -0.33026310171E+02  0.45045682444E+02  0.00000000000E+00 0.  1.
         11    1    3    3    0    0 -0.24420990050E+01 -0.11755393546E+02  0.69307160349E+01  0.13863186863E+02  0.51100000000E-03 0. -1.
        -11    1    3    3    0    0  0.26137570826E+00 -0.74419500276E-01  0.10003072428E+01  0.10365666231E+01  0.51100000000E-03 0.  1.
         12    1    3    3    0    0 -0.26296684728E+01 -0.18423062426E+02  0.25095286893E+02  0.31242564070E+02  0.00000000000E+00 0. -1.
</event>
<event>
 7    1  0.5743890E-009  0.4614232E+02  0.7816164E-02  0.1320468E+00
        -11   -1    0    0    0    0  0.00000000000E+00  0.00000000000E+00  0.45593999997E+02  0.45594000000E+02  0.51100000000E-03 0. -1.
         11   -1    0    0    0    0 -0.00000000000E+00 -0.00000000000E+00 -0.45593999997E+02  0.45594000000E+02  0.51100000000E-03 0.  1.
    9900012    2    1    2    0    0 -0.23884014685E+02  0.28649338195E+02  0.25256341462E+02  0.46142317405E+02  0.99999967482E+01 0.  0.
        -12    1    1    2    0    0  0.23884014685E+02 -0.28649338195E+02 -0.25256341462E+02  0.45045682595E+02  0.00000000000E+00 0.  1.
         11    1    3    3    0    0 -0.16449489186E+02  0.17822122607E+02  0.19215160543E+02  0.30942465054E+02  0.51100000000E-03 0. -1.
        -11    1    3    3    0    0 -0.67862522829E+01  0.91474688979E+01  0.67783788963E+01  0.13254275839E+02  0.51100000000E-03 0.  1.
        -12    1    3    3    0    0 -0.64827321630E+00  0.16797466897E+01 -0.73719797724E+00  0.19455765115E+01  0.00000000000E+00 0.  1.
</event>
<event>
 7    1  0.5743890E-009  0.4614232E+02  0.7816164E-02  0.1320468E+00
        -11   -1    0    0    0    0  0.00000000000E+00  0.00000000000E+00  0.45593999997E+02  0.45594000000E+02  0.51100000000E-03 0. -1.
         11   -1    0    0    0    0 -0.00000000000E+00 -0.00000000000E+00 -0.45593999997E+02  0.45594000000E+02  0.51100000000E-03 0.  1.
    9900012    2    1    2    0    0  0.53830365363E+01  0.13419705561E+02  0.42662019193E+02  0.46142318061E+02  0.10000002738E+02 0.  0.
        -12    1    1    2    0    0 -0.53830365363E+01 -0.13419705561E+02 -0.42662019193E+02  0.45045681939E+02  0.00000000000E+00 0.  1.
         11    1    3    3    0    0  0.40936887638E+01  0.47003971617E+01  0.17677161383E+02  0.18743907170E+02  0.51100000000E-03 0. -1.
        -11    1    3    3    0    0  0.22336665851E+01  0.23179898228E+01  0.27262978723E+01  0.42184171891E+01  0.51100000000E-03 0.  1.
        -12    1    3    3    0    0 -0.94431881260E+00  0.64013185768E+01  0.22258559938E+02  0.23179993702E+02  0.00000000000E+00 0.  1.
</event>
<event>
 7    1  0.5743890E-009  0.4614232E+02  0.7816164E-02  0.1320468E+00
        -11   -1    0    0    0    0  0.00000000000E+00  0.00000000000E+00  0.45593999997E+02  0.45594000000E+02  0.51100000000E-03 0. -1.
         11   -1    0    0    0    0 -0.00000000000E+00 -0.00000000000E+00 -0.45593999997E+02  0.45594000000E+02  0.51100000000E-03 0.  1.
    9900012    2    1    2    0    0  0.29557509717E+02 -0.33142802530E+01  0.33830203182E+02  0.46142317837E+02  0.10000000690E+02 0.  0.
        -12    1    1    2    0    0 -0.29557509717E+02  0.33142802530E+01 -0.33830203182E+02  0.45045682163E+02  0.00000000000E+00 0.  1.
         11    1    3    3    0    0  0.11847052621E+02 -0.23870225184E+01  0.78402730836E+01  0.14405568874E+02  0.51100000000E-03 0. -1.
        -11    1    3    3    0    0  0.35838814516E+01 -0.73663571329E+00  0.84966908290E+01  0.92509779881E+01  0.51100000000E-03 0.  1.
        -12    1    3    3    0    0  0.14126575644E+02 -0.19062202125E+00  0.17493239269E+02  0.22485770974E+02  0.00000000000E+00 0.  1.
</event>
<event>
 7    1  0.5743890E-009  0.4614232E+02  0.7816164E-02  0.1320468E+00
        -11   -1    0    0    0    0  0.00000000000E+00  0.00000000000E+00  0.45593999997E+02  0.45594000000E+02  0.51100000000E-03 0. -1.
         11   -1    0    0    0    0 -0.00000000000E+00 -0.00000000000E+00 -0.45593999997E+02  0.45594000000E+02  0.51100000000E-03 0.  1.
    9900012    2    1    2    0    0 -0.19086650619E+02  0.73843561596E+01 -0.40128350729E+02  0.46142317854E+02  0.10000000850E+02 0.  0.
         12    1    1    2    0    0  0.19086650619E+02 -0.73843561596E+01  0.40128350729E+02  0.45045682146E+02  0.00000000000E+00 0. -1.
         11    1    3    3    0    0 -0.76272256764E+01  0.74852717116E+00 -0.17123681837E+02  0.18760472924E+02  0.51100000000E-03 0.  1.
        -11    1    3    3    0    0 -0.17895349341E+01 -0.89453264947E+00 -0.11041614015E+01  0.22851250738E+01  0.51100000000E-03 0. -1.
        -12    1    3    3    0    0 -0.96698900089E+01  0.75303616379E+01 -0.21900507491E+02  0.25096719856E+02  0.00000000000E+00 0.  1.
</event>
<event>
 7    1  0.5743890E-009  0.4614232E+02  0.7816164E-02  0.1320468E+00
        -11   -1    0    0    0    0  0.00000000000E+00  0.00000000000E+00  0.45593999997E+02  0.45594000000E+02  0.51100000000E-03 0. -1.
         11   -1    0    0    0    0 -0.00000000000E+00 -0.00000000000E+00 -0.45593999997E+02  0.45594000000E+02  0.51100000000E-03 0.  1.
    9900012    2    1    2    0    0  0.16313485352E+02  0.10440250334E+02 -0.40669212784E+02  0.46142317634E+02  0.99999988403E+01 0.  0.
         12    1    1    2    0    0 -0.16313485352E+02 -0.10440250334E+02  0.40669212784E+02  0.45045682366E+02  0.00000000000E+00 0. -1.
         11    1    3    3    0    0  0.16667373269E+01  0.23679176318E+01 -0.11990484288E+02  0.12335183863E+02  0.51100000000E-03 0. -1.
        -11    1    3    3    0    0  0.13873666177E+02  0.64359625797E+01 -0.27940941402E+02  0.31852730404E+02  0.51100000000E-03 0.  1.
        -12    1    3    3    0    0  0.77308184899E+00  0.16363701227E+01 -0.73778709429E+00  0.19544033668E+01  0.00000000000E+00 0.  1.
</event>
<event>
 7    1  0.5743890E-009  0.4614232E+02  0.7816164E-02  0.1320468E+00
        -11   -1    0    0    0    0  0.00000000000E+00  0.00000000000E+00  0.45593999997E+02  0.45594000000E+02  0.51100000000E-03 0. -1.
         11   -1    0    0    0    0 -0.00000000000E+00 -0.00000000000E+00 -0.45593999997E+02  0.45594000000E+02  0.51100000000E-03 0.  1.
    9900012    2    1    2    0    0 -0.16977107146E+02  0.19570020438E+02  0.36849770792E+02  0.46142317916E+02  0.10000001416E+02 0.  0.
        -12    1    1    2    0    0  0.16977107146E+02 -0.19570020438E+02 -0.36849770792E+02  0.45045682084E+02  0.00000000000E+00 0.  1.
         11    1    3    3    0    0 -0.92410381894E+01  0.98296305424E+01  0.15379475973E+02  0.20458414037E+02  0.51100000000E-03 0. -1.
        -11    1    3    3    0    0 -0.74563906088E+01  0.44773534655E+01  0.14995475700E+02  0.17335188107E+02  0.51100000000E-03 0.  1.
        -12    1    3    3    0    0 -0.27967834750E+00  0.52630364301E+01  0.64748191183E+01  0.83487157729E+01  0.00000000000E+00 0.  1.
</event>
<event>
 7    1  0.5743890E-009  0.4614231E+02  0.7816164E-02  0.1320468E+00
        -11   -1    0    0    0    0  0.00000000000E+00  0.00000000000E+00  0.45593999997E+02  0.45594000000E+02  0.51100000000E-03 0. -1.
         11   -1    0    0    0    0 -0.00000000000E+00 -0.00000000000E+00 -0.45593999997E+02  0.45594000000E+02  0.51100000000E-03 0.  1.
    9900012    2    1    2    0    0 -0.35855253428E+02 -0.76314925355E+01  0.26177758952E+02  0.46142312743E+02  0.99999542395E+01 0.  0.
        -12    1    1    2    0    0  0.35855253428E+02  0.76314925355E+01 -0.26177758952E+02  0.45045687257E+02  0.00000000000E+00 0.  1.
         11    1    3    3    0    0 -0.25030415666E+02 -0.12366979405E+01  0.17161841227E+02  0.30374000803E+02  0.51100000000E-03 0. -1.
        -11    1    3    3    0    0 -0.42044478840E+01 -0.12858112265E+01  0.19066171263E+01  0.47922731190E+01  0.51100000000E-03 0.  1.
         12    1    3    3    0    0 -0.66203898780E+01 -0.51089833684E+01  0.71093005984E+01  0.10976038821E+02  0.00000000000E+00 0. -1.
</event>
<event>
 7    1  0.5743890E-009  0.4614232E+02  0.7816164E-02  0.1320468E+00
        -11   -1    0    0    0    0  0.00000000000E+00  0.00000000000E+00  0.45593999997E+02  0.45594000000E+02  0.51100000000E-03 0. -1.
         11   -1    0    0    0    0 -0.00000000000E+00 -0.00000000000E+00 -0.45593999997E+02  0.45594000000E+02  0.51100000000E-03 0.  1.
    9900012    2    1    2    0    0  0.20132860722E+02  0.95479726447E+01  0.39148657003E+02  0.46142320878E+02  0.10000028422E+02 0.  0.
        -12    1    1    2    0    0 -0.20132860722E+02 -0.95479726447E+01 -0.39148657003E+02  0.45045679122E+02  0.00000000000E+00 0.  1.
         11    1    3    3    0    0  0.67851365679E+01  0.11108103832E+01  0.92435910871E+01  0.11520241074E+02  0.51100000000E-03 0. -1.
        -11    1    3    3    0    0  0.84700045039E+01  0.56072405611E+01  0.11362704292E+02  0.15241167019E+02  0.51100000000E-03 0.  1.
        -12    1    3    3    0    0  0.48777196497E+01  0.28299217004E+01  0.18542361624E+02  0.19380912786E+02  0.00000000000E+00 0.  1.
</event>
<event>
 7    1  0.5743890E-009  0.4614232E+02  0.7816164E-02  0.1320468E+00
        -11   -1    0    0    0    0  0.00000000000E+00  0.00000000000E+00  0.45593999997E+02  0.45594000000E+02  0.51100000000E-03 0. -1.
         11   -1    0    0    0    0 -0.00000000000E+00 -0.00000000000E+00 -0.45593999997E+02  0.45594000000E+02  0.51100000000E-03 0.  1.
    9900012    2    1    2    0    0  0.38671073597E+02 -0.33889696309E+01  0.22851181903E+02  0.46142316936E+02  0.99999924762E+01 0.  0.
        -12    1    1    2    0    0 -0.38671073597E+02  0.33889696309E+01 -0.22851181903E+02  0.45045683064E+02  0.00000000000E+00 0.  1.
         11    1    3    3    0    0  0.14301052105E+02 -0.27837232465E+01  0.13011380784E+02  0.19533694904E+02  0.51100000000E-03 0.  1.
        -11    1    3    3    0    0  0.10491663666E+02  0.10944785947E+01  0.58796984888E+01  0.12076578342E+02  0.51100000000E-03 0. -1.
        -12    1    3    3    0    0  0.13878357827E+02 -0.16997249791E+01  0.39601026299E+01  0.14532043690E+02  0.00000000000E+00 0.  1.
</event>
<event>
 7    1  0.5743890E-009  0.4614232E+02  0.7816164E-02  0.1320468E+00
        -11   -1    0    0    0    0  0.00000000000E+00  0.00000000000E+00  0.45593999997E+02  0.45594000000E+02  0.51100000000E-03 0.  1.
         11   -1    0    0    0    0 -0.00000000000E+00 -0.00000000000E+00 -0.45593999997E+02  0.45594000000E+02  0.51100000000E-03 0. -1.
    9900012    2    1    2    0    0  0.30247481464E+02  0.33287266111E+02  0.24821816872E+01  0.46142318232E+02  0.10000004292E+02 0.  0.
         12    1    1    2    0    0 -0.30247481464E+02 -0.33287266111E+02 -0.24821816872E+01  0.45045681768E+02  0.00000000000E+00 0. -1.
         11    1    3    3    0    0  0.54806703299E+01  0.27596322005E+01  0.78060996974E+00  0.61856826085E+01  0.51100000000E-03 0. -1.
        -11    1    3    3    0    0  0.19863679381E+02  0.19526687830E+02  0.57825822802E+00  0.27860216780E+02  0.51100000000E-03 0.  1.
        -12    1    3    3    0    0  0.49031317528E+01  0.11000946080E+02  0.11233134895E+01  0.12096418844E+02  0.00000000000E+00 0.  1.
</event>
<event>
 7    1  0.5743890E-009  0.4614232E+02  0.7816164E-02  0.1320468E+00
        -11   -1    0    0    0    0  0.00000000000E+00  0.00000000000E+00  0.45593999997E+02  0.45594000000E+02  0.51100000000E-03 0. -1.
         11   -1    0    0    0    0 -0.00000000000E+00 -0.00000000000E+00 -0.45593999997E+02  0.45594000000E+02  0.51100000000E-03 0.  1.
    9900012    2    1    2    0    0  0.13184971622E+02  0.43035182668E+02 -0.18008213090E+01  0.46142318949E+02  0.10000010831E+02 0.  0.
         12    1    1    2    0    0 -0.13184971622E+02 -0.43035182668E+02  0.18008213090E+01  0.45045681051E+02  0.00000000000E+00 0. -1.
         11    1    3    3    0    0  0.52091721146E+01  0.87303077655E+01  0.19112963446E+01  0.10344409204E+02  0.51100000000E-03 0. -1.
        -11    1    3    3    0    0  0.82704301912E+01  0.26924862271E+02 -0.37274192513E+01  0.28412002365E+02  0.51100000000E-03 0.  1.
         12    1    3    3    0    0 -0.29463068337E+00  0.73800126322E+01  0.15301597787E-01  0.73859073802E+01  0.00000000000E+00 0. -1.
</event>
<event>
 7    1  0.5743890E-009  0.4614232E+02  0.7816164E-02  0.1320468E+00
        -11   -1    0    0    0    0  0.00000000000E+00  0.00000000000E+00  0.45593999997E+02  0.45594000000E+02  0.51100000000E-03 0.  1.
         11   -1    0    0    0    0 -0.00000000000E+00 -0.00000000000E+00 -0.45593999997E+02  0.45594000000E+02  0.51100000000E-03 0. -1.
    9900012    2    1    2    0    0  0.16938182109E+02  0.36948031261E+02 -0.19417890374E+02  0.46142317701E+02  0.99999994499E+01 0.  0.
         12    1    1    2    0    0 -0.16938182109E+02 -0.36948031261E+02  0.19417890374E+02  0.45045682299E+02  0.00000000000E+00 0. -1.
         11    1    3    3    0    0  0.22828709245E-01  0.18381657588E+01 -0.11816468137E+01  0.21853292567E+01  0.51100000000E-03 0. -1.
        -11    1    3    3    0    0  0.27171723155E+01  0.13965076396E+02 -0.91500202982E+01  0.16915355623E+02  0.51100000000E-03 0.  1.
        -12    1    3    3    0    0  0.14198181085E+02  0.21144789106E+02 -0.90862232622E+01  0.27041632821E+02  0.00000000000E+00 0.  1.
</event>
<event>
 7    1  0.5743890E-009  0.4614232E+02  0.7816164E-02  0.1320468E+00
        -11   -1    0    0    0    0  0.00000000000E+00  0.00000000000E+00  0.45593999997E+02  0.45594000000E+02  0.51100000000E-03 0. -1.
         11   -1    0    0    0    0 -0.00000000000E+00 -0.00000000000E+00 -0.45593999997E+02  0.45594000000E+02  0.51100000000E-03 0.  1.
    9900012    2    1    2    0    0  0.18818118992E+02  0.40058442104E+02 -0.83852934313E+01  0.46142317276E+02  0.99999955741E+01 0.  0.
         12    1    1    2    0    0 -0.18818118992E+02 -0.40058442104E+02  0.83852934313E+01  0.45045682724E+02  0.00000000000E+00 0. -1.
         11    1    3    3    0    0  0.10313626131E+02  0.13769071164E+02 -0.48056660884E+01  0.17862044438E+02  0.51100000000E-03 0. -1.
        -11    1    3    3    0    0  0.57155456313E+01  0.99346933808E+01 -0.13751676133E+01  0.11543685749E+02  0.51100000000E-03 0.  1.
         12    1    3    3    0    0  0.27889472301E+01  0.16354677559E+02 -0.22044597295E+01  0.16736587090E+02  0.00000000000E+00 0. -1.
</event>
<event>
 7    1  0.5743890E-009  0.4614232E+02  0.7816164E-02  0.1320468E+00
        -11   -1    0    0    0    0  0.00000000000E+00  0.00000000000E+00  0.45593999997E+02  0.45594000000E+02  0.51100000000E-03 0. -1.
         11   -1    0    0    0    0 -0.00000000000E+00 -0.00000000000E+00 -0.45593999997E+02  0.45594000000E+02  0.51100000000E-03 0.  1.
    9900012    2    1    2    0    0  0.12770772934E+02  0.47232411391E+01 -0.42938464457E+02  0.46142318984E+02  0.10000011154E+02 0.  0.
         12    1    1    2    0    0 -0.12770772934E+02 -0.47232411391E+01  0.42938464457E+02  0.45045681016E+02  0.00000000000E+00 0. -1.
         11    1    3    3    0    0  0.19006039448E+01 -0.17974029725E+01 -0.44545447504E+01  0.51658418477E+01  0.51100000000E-03 0. -1.
        -11    1    3    3    0    0  0.95187046138E+01  0.30722078758E+01 -0.23469882277E+02  0.25512341585E+02  0.51100000000E-03 0.  1.
         12    1    3    3    0    0  0.13514643758E+01  0.34484362359E+01 -0.15014037430E+02  0.15464135552E+02  0.00000000000E+00 0. -1.
</event>
<event>
 7    1  0.5743890E-009  0.4614231E+02  0.7816164E-02  0.1320468E+00
        -11   -1    0    0    0    0  0.00000000000E+00  0.00000000000E+00  0.45593999997E+02  0.45594000000E+02  0.51100000000E-03 0.  1.
         11   -1    0    0    0    0 -0.00000000000E+00 -0.00000000000E+00 -0.45593999997E+02  0.45594000000E+02  0.51100000000E-03 0. -1.
    9900012    2    1    2    0    0  0.99237404139E+01 -0.37702919213E+02  0.22563756677E+02  0.46142313676E+02  0.99999627492E+01 0.  0.
        -12    1    1    2    0    0 -0.99237404139E+01  0.37702919213E+02 -0.22563756677E+02  0.45045686324E+02  0.00000000000E+00 0.  1.
         11    1    3    3    0    0  0.30439410675E+01 -0.52433812338E+01  0.72139606716E+01  0.94233673821E+01  0.51100000000E-03 0.  1.
        -11    1    3    3    0    0  0.38405045825E+01 -0.10490125484E+02  0.54962296483E+01  0.12449929668E+02  0.51100000000E-03 0. -1.
        -12    1    3    3    0    0  0.30392947638E+01 -0.21969412495E+02  0.98535663576E+01  0.24269016626E+02  0.00000000000E+00 0.  1.
</event>
<event>
 7    1  0.5743890E-009  0.4614232E+02  0.7816164E-02  0.1320468E+00
        -11   -1    0    0    0    0  0.00000000000E+00  0.00000000000E+00  0.45593999997E+02  0.45594000000E+02  0.51100000000E-03 0. -1.
         11   -1    0    0    0    0 -0.00000000000E+00 -0.00000000000E+00 -0.45593999997E+02  0.45594000000E+02  0.51100000000E-03 0.  1.
    9900012    2    1    2    0    0 -0.17724218909E+02 -0.39349589915E+02 -0.12906408297E+02  0.46142317216E+02  0.99999950260E+01 0.  0.
         12    1    1    2    0    0  0.17724218909E+02  0.39349589915E+02  0.12906408297E+02  0.45045682784E+02  0.00000000000E+00 0. -1.
         11    1    3    3    0    0 -0.23411948959E+01 -0.35157517134E+01 -0.24846703703E+01  0.49005398438E+01  0.51100000000E-03 0. -1.
        -11    1    3    3    0    0 -0.81053781806E+00 -0.45665136342E+01 -0.40594948671E+01  0.61635636739E+01  0.51100000000E-03 0.  1.
        -12    1    3    3    0    0 -0.14572486195E+02 -0.31267324567E+02 -0.63622430596E+01  0.35078213698E+02  0.00000000000E+00 0.  1.
</event>
<event>
 7    1  0.5743890E-009  0.4614232E+02  0.7816164E-02  0.1320468E+00
        -11   -1    0    0    0    0  0.00000000000E+00  0.00000000000E+00  0.45593999997E+02  0.45594000000E+02  0.51100000000E-03 0. -1.
         11   -1    0    0    0    0 -0.00000000000E+00 -0.00000000000E+00 -0.45593999997E+02  0.45594000000E+02  0.51100000000E-03 0.  1.
    9900012    2    1    2    0    0  0.60036439644E+00 -0.18481004932E+02 -0.41075607576E+02  0.46142317427E+02  0.99999969506E+01 0.  0.
         12    1    1    2    0    0 -0.60036439644E+00  0.18481004932E+02  0.41075607576E+02  0.45045682573E+02  0.00000000000E+00 0. -1.
         11    1    3    3    0    0 -0.19229697940E+00  0.10564631135E+01 -0.31730399176E+01  0.33498171619E+01  0.51100000000E-03 0. -1.
        -11    1    3    3    0    0 -0.13948278691E+01 -0.81971205930E+01 -0.15827500003E+02  0.17878704858E+02  0.51100000000E-03 0.  1.
         12    1    3    3    0    0  0.21874892449E+01 -0.11340347453E+02 -0.22075067656E+02  0.24913795406E+02  0.00000000000E+00 0. -1.
</event>
<event>
 7    1  0.5743890E-009  0.4614232E+02  0.7816164E-02  0.1320468E+00
        -11   -1    0    0    0    0  0.00000000000E+00  0.00000000000E+00  0.45593999997E+02  0.45594000000E+02  0.51100000000E-03 0. -1.
         11   -1    0    0    0    0 -0.00000000000E+00 -0.00000000000E+00 -0.45593999997E+02  0.45594000000E+02  0.51100000000E-03 0.  1.
    9900012    2    1    2    0    0  0.31579109258E+02 -0.14979019541E+02 -0.28416585619E+02  0.46142317563E+02  0.99999981954E+01 0.  0.
         12    1    1    2    0    0 -0.31579109258E+02  0.14979019541E+02  0.28416585619E+02  0.45045682437E+02  0.00000000000E+00 0. -1.
         11    1    3    3    0    0  0.30208789130E+01 -0.23156947018E+01 -0.75284552659E+01  0.84359818818E+01  0.51100000000E-03 0. -1.
        -11    1    3    3    0    0  0.14379308719E+02 -0.49239571267E+01 -0.91841793020E+01  0.17758350789E+02  0.51100000000E-03 0.  1.
        -12    1    3    3    0    0  0.14178921626E+02 -0.77393677126E+01 -0.11703951051E+02  0.19947984893E+02  0.00000000000E+00 0.  1.
</event>
<event>
 7    1  0.5743890E-009  0.4614232E+02  0.7816164E-02  0.1320468E+00
        -11   -1    0    0    0    0  0.00000000000E+00  0.00000000000E+00  0.45593999997E+02  0.45594000000E+02  0.51100000000E-03 0. -1.
         11   -1    0    0    0    0 -0.00000000000E+00 -0.00000000000E+00 -0.45593999997E+02  0.45594000000E+02  0.51100000000E-03 0.  1.
    9900012    2    1    2    0    0 -0.12610816019E+02 -0.33864940012E+02 -0.26893244818E+02  0.46142318081E+02  0.10000002921E+02 0.  0.
         12    1    1    2    0    0  0.12610816019E+02  0.33864940012E+02  0.26893244818E+02  0.45045681919E+02  0.00000000000E+00 0. -1.
         11    1    3    3    0    0 -0.11026660456E+02 -0.29177444026E+02 -0.22878472113E+02  0.38682489155E+02  0.51100000000E-03 0. -1.
        -11    1    3    3    0    0 -0.64938420954E+00 -0.28596940212E+01 -0.44803590581E+01  0.53547331677E+01  0.51100000000E-03 0.  1.
         12    1    3    3    0    0 -0.93477135337E+00 -0.18278019641E+01  0.46558635275E+00  0.21050957591E+01  0.00000000000E+00 0. -1.
</event>
<event>
 7    1  0.5743890E-009  0.4614232E+02  0.7816164E-02  0.1320468E+00
        -11   -1    0    0    0    0  0.00000000000E+00  0.00000000000E+00  0.45593999997E+02  0.45594000000E+02  0.51100000000E-03 0. -1.
         11   -1    0    0    0    0 -0.00000000000E+00 -0.00000000000E+00 -0.45593999997E+02  0.45594000000E+02  0.51100000000E-03 0.  1.
    9900012    2    1    2    0    0  0.38369267519E+02 -0.16133876865E+02  0.17222395547E+02  0.46142316733E+02  0.99999906250E+01 0.  0.
        -12    1    1    2    0    0 -0.38369267519E+02  0.16133876865E+02 -0.17222395547E+02  0.45045683267E+02  0.00000000000E+00 0.  1.
         11    1    3    3    0    0  0.18821236306E+02 -0.52794733389E+01  0.61940843380E+01  0.20505571337E+02  0.51100000000E-03 0. -1.
        -11    1    3    3    0    0  0.25014477173E+01 -0.20754451321E+01 -0.46220824818E+00  0.32830397355E+01  0.51100000000E-03 0.  1.
        -12    1    3    3    0    0  0.17046583495E+02 -0.87789583943E+01  0.11490519457E+02  0.22353705660E+02  0.00000000000E+00 0.  1.
</event>
<event>
 7    1  0.5743890E-009  0.4614232E+02  0.7816164E-02  0.1320468E+00
        -11   -1    0    0    0    0  0.00000000000E+00  0.00000000000E+00  0.45593999997E+02  0.45594000000E+02  0.51100000000E-03 0. -1.
         11   -1    0    0    0    0 -0.00000000000E+00 -0.00000000000E+00 -0.45593999997E+02  0.45594000000E+02  0.51100000000E-03 0.  1.
    9900012    2    1    2    0    0 -0.92046167396E+01 -0.25495740021E+02 -0.35977158304E+02  0.46142315988E+02  0.99999838270E+01 0.  0.
         12    1    1    2    0    0  0.92046167396E+01  0.25495740021E+02  0.35977158304E+02  0.45045684012E+02  0.00000000000E+00 0. -1.
         11    1    3    3    0    0 -0.16367323689E+01 -0.23002666239E+01 -0.14808778581E+01  0.31879646925E+01  0.51100000000E-03 0. -1.
        -11    1    3    3    0    0 -0.15986277564E+01 -0.23678234957E+01 -0.93303665071E+00  0.30054544520E+01  0.51100000000E-03 0.  1.
        -12    1    3    3    0    0 -0.59692566143E+01 -0.20827649901E+02 -0.33563243795E+02  0.39948896843E+02  0.00000000000E+00 0.  1.
</event>
<event>
 7    1  0.5743890E-009  0.4614232E+02  0.7816164E-02  0.1320468E+00
        -11   -1    0    0    0    0  0.00000000000E+00  0.00000000000E+00  0.45593999997E+02  0.45594000000E+02  0.51100000000E-03 0. -1.
         11   -1    0    0    0    0 -0.00000000000E+00 -0.00000000000E+00 -0.45593999997E+02  0.45594000000E+02  0.51100000000E-03 0.  1.
    9900012    2    1    2    0    0 -0.17562665363E+02 -0.16908926448E+02  0.37878152746E+02  0.46142318035E+02  0.10000002494E+02 0.  0.
        -12    1    1    2    0    0  0.17562665363E+02  0.16908926448E+02 -0.37878152746E+02  0.45045681965E+02  0.00000000000E+00 0.  1.
         11    1    3    3    0    0 -0.15038573488E+02 -0.96209002595E+01  0.28102096207E+02  0.33293366093E+02  0.51100000000E-03 0. -1.
        -11    1    3    3    0    0 -0.32598366337E+01 -0.62656505734E+01  0.85658254877E+01  0.11102174496E+02  0.51100000000E-03 0.  1.
        -12    1    3    3    0    0  0.73574475794E+00 -0.10223756148E+01  0.12102310516E+01  0.17467774457E+01  0.00000000000E+00 0.  1.
</event>
<event>
 7    1  0.5743890E-009  0.4614232E+02  0.7816164E-02  0.1320468E+00
        -11   -1    0    0    0    0  0.00000000000E+00  0.00000000000E+00  0.45593999997E+02  0.45594000000E+02  0.51100000000E-03 0. -1.
         11   -1    0    0    0    0 -0.00000000000E+00 -0.00000000000E+00 -0.45593999997E+02  0.45594000000E+02  0.51100000000E-03 0.  1.
    9900012    2    1    2    0    0 -0.28524527606E+02 -0.32610242595E+01  0.34710667983E+02  0.46142318451E+02  0.10000006293E+02 0.  0.
        -12    1    1    2    0    0  0.28524527606E+02  0.32610242595E+01 -0.34710667983E+02  0.45045681549E+02  0.00000000000E+00 0.  1.
         11    1    3    3    0    0 -0.35840591073E+01 -0.13176812087E+01  0.29353761117E+01  0.48164506258E+01  0.51100000000E-03 0. -1.
        -11    1    3    3    0    0 -0.11715455175E+02  0.23496630175E+01  0.18992607127E+02  0.22438625894E+02  0.51100000000E-03 0.  1.
        -12    1    3    3    0    0 -0.13225013324E+02 -0.42930060683E+01  0.12782684744E+02  0.18887241932E+02  0.00000000000E+00 0.  1.
</event>
<event>
 7    1  0.5743890E-009  0.4614232E+02  0.7816164E-02  0.1320468E+00
        -11   -1    0    0    0    0  0.00000000000E+00  0.00000000000E+00  0.45593999997E+02  0.45594000000E+02  0.51100000000E-03 0. -1.
         11   -1    0    0    0    0 -0.00000000000E+00 -0.00000000000E+00 -0.45593999997E+02  0.45594000000E+02  0.51100000000E-03 0.  1.
    9900012    2    1    2    0    0  0.17131996603E+02 -0.40951541867E+01 -0.41458870219E+02  0.46142317463E+02  0.99999972804E+01 0.  0.
         12    1    1    2    0    0 -0.17131996603E+02  0.40951541867E+01  0.41458870219E+02  0.45045682537E+02  0.00000000000E+00 0. -1.
         11    1    3    3    0    0  0.10646783717E+02 -0.42760660987E+01 -0.27961528118E+02  0.30223927603E+02  0.51100000000E-03 0. -1.
        -11    1    3    3    0    0  0.37513914901E+01 -0.24192558212E+01 -0.90144384353E+01  0.10059117129E+02  0.51100000000E-03 0.  1.
         12    1    3    3    0    0  0.27338213964E+01  0.26001677332E+01 -0.44829036653E+01  0.58592727313E+01  0.00000000000E+00 0. -1.
</event>
<event>
 7    1  0.5743890E-009  0.4614232E+02  0.7816164E-02  0.1320468E+00
        -11   -1    0    0    0    0  0.00000000000E+00  0.00000000000E+00  0.45593999997E+02  0.45594000000E+02  0.51100000000E-03 0.  1.
         11   -1    0    0    0    0 -0.00000000000E+00 -0.00000000000E+00 -0.45593999997E+02  0.45594000000E+02  0.51100000000E-03 0. -1.
    9900012    2    1    2    0    0  0.42644603114E+02 -0.14508066157E+02  0.25941321331E+00  0.46142318147E+02  0.10000003518E+02 0.  0.
        -12    1    1    2    0    0 -0.42644603114E+02  0.14508066157E+02 -0.25941321331E+00  0.45045681853E+02  0.00000000000E+00 0.  1.
         11    1    3    3    0    0  0.19148162624E+02 -0.76516907394E+01  0.21465863741E-01  0.20620401647E+02  0.51100000000E-03 0. -1.
        -11    1    3    3    0    0  0.51459200010E+01  0.10064727613E+01 -0.15770873929E+01  0.54754620793E+01  0.51100000000E-03 0.  1.
        -12    1    3    3    0    0  0.18350520490E+02 -0.78628481787E+01  0.18150347425E+01  0.20046454420E+02  0.00000000000E+00 0.  1.
</event>
<event>
 7    1  0.5743890E-009  0.4614232E+02  0.7816164E-02  0.1320468E+00
        -11   -1    0    0    0    0  0.00000000000E+00  0.00000000000E+00  0.45593999997E+02  0.45594000000E+02  0.51100000000E-03 0. -1.
         11   -1    0    0    0    0 -0.00000000000E+00 -0.00000000000E+00 -0.45593999997E+02  0.45594000000E+02  0.51100000000E-03 0.  1.
    9900012    2    1    2    0    0 -0.74212143487E+01 -0.12525385852E+02 -0.42628085131E+02  0.46142319240E+02  0.10000013489E+02 0.  0.
         12    1    1    2    0    0  0.74212143487E+01  0.12525385852E+02  0.42628085131E+02  0.45045680760E+02  0.00000000000E+00 0. -1.
         11    1    3    3    0    0  0.25025832585E+00 -0.20606495515E+01 -0.64936248600E+01  0.68173359817E+01  0.51100000000E-03 0. -1.
        -11    1    3    3    0    0 -0.33847505714E+01 -0.18674057988E+01 -0.21324659171E+02  0.21672213312E+02  0.51100000000E-03 0.  1.
        -12    1    3    3    0    0 -0.42867221031E+01 -0.85973305017E+01 -0.14809801100E+02  0.17652769946E+02  0.00000000000E+00 0.  1.
</event>
<event>
 7    1  0.5743890E-009  0.4614232E+02  0.7816164E-02  0.1320468E+00
        -11   -1    0    0    0    0  0.00000000000E+00  0.00000000000E+00  0.45593999997E+02  0.45594000000E+02  0.51100000000E-03 0.  1.
         11   -1    0    0    0    0 -0.00000000000E+00 -0.00000000000E+00 -0.45593999997E+02  0.45594000000E+02  0.51100000000E-03 0. -1.
    9900012    2    1    2    0    0 -0.22575319014E+02 -0.35443022653E+02  0.16225307055E+02  0.46142317939E+02  0.10000001618E+02 0.  0.
        -12    1    1    2    0    0  0.22575319014E+02  0.35443022653E+02 -0.16225307055E+02  0.45045682061E+02  0.00000000000E+00 0.  1.
         11    1    3    3    0    0 -0.65378349846E+01 -0.10049351226E+02  0.13708508788E+01  0.12066978857E+02  0.51100000000E-03 0. -1.
        -11    1    3    3    0    0 -0.12266793937E+02 -0.13756037186E+02  0.91559561749E+01  0.20579949619E+02  0.51100000000E-03 0.  1.
        -12    1    3    3    0    0 -0.37706900925E+01 -0.11637634241E+02  0.56985000011E+01  0.13495389463E+02  0.00000000000E+00 0.  1.
</event>
<event>
 7    1  0.5743890E-009  0.4614232E+02  0.7816164E-02  0.1320468E+00
        -11   -1    0    0    0    0  0.00000000000E+00  0.00000000000E+00  0.45593999997E+02  0.45594000000E+02  0.51100000000E-03 0. -1.
         11   -1    0    0    0    0 -0.00000000000E+00 -0.00000000000E+00 -0.45593999997E+02  0.45594000000E+02  0.51100000000E-03 0.  1.
    9900012    2    1    2    0    0  0.35442800420E+02  0.12560313357E+02 -0.24802416612E+02  0.46142318264E+02  0.10000004589E+02 0.  0.
         12    1    1    2    0    0 -0.35442800420E+02 -0.12560313357E+02  0.24802416612E+02  0.45045681736E+02  0.00000000000E+00 0. -1.
         11    1    3    3    0    0  0.62753179631E+01  0.43581883571E+01 -0.73720024821E+01  0.10616960118E+02  0.51100000000E-03 0. -1.
        -11    1    3    3    0    0  0.20121260894E+02  0.50988681420E+01 -0.15137566390E+02  0.25690650299E+02  0.51100000000E-03 0.  1.
        -12    1    3    3    0    0  0.90462215627E+01  0.31032568581E+01 -0.22928477401E+01  0.98347078476E+01  0.00000000000E+00 0.  1.
</event>
<event>
 7    1  0.5743890E-009  0.4614232E+02  0.7816164E-02  0.1320468E+00
        -11   -1    0    0    0    0  0.00000000000E+00  0.00000000000E+00  0.45593999997E+02  0.45594000000E+02  0.51100000000E-03 0. -1.
         11   -1    0    0    0    0 -0.00000000000E+00 -0.00000000000E+00 -0.45593999997E+02  0.45594000000E+02  0.51100000000E-03 0.  1.
    9900012    2    1    2    0    0  0.67403285022E+01  0.31318180316E+02  0.31667856616E+02  0.46142316641E+02  0.99999897843E+01 0.  0.
        -12    1    1    2    0    0 -0.67403285022E+01 -0.31318180316E+02 -0.31667856616E+02  0.45045683359E+02  0.00000000000E+00 0.  1.
         11    1    3    3    0    0  0.53666448533E+01  0.13157306551E+02  0.12707770259E+02  0.19063132425E+02  0.51100000000E-03 0. -1.
        -11    1    3    3    0    0  0.21962611957E+01  0.16455960288E+01  0.34433321180E+01  0.44031904190E+01  0.51100000000E-03 0.  1.
        -12    1    3    3    0    0 -0.82257754676E+00  0.16515277737E+02  0.15516754239E+02  0.22675993797E+02  0.00000000000E+00 0.  1.
</event>
<event>
 7    1  0.5743890E-009  0.4614232E+02  0.7816164E-02  0.1320468E+00
        -11   -1    0    0    0    0  0.00000000000E+00  0.00000000000E+00  0.45593999997E+02  0.45594000000E+02  0.51100000000E-03 0. -1.
         11   -1    0    0    0    0 -0.00000000000E+00 -0.00000000000E+00 -0.45593999997E+02  0.45594000000E+02  0.51100000000E-03 0.  1.
    9900012    2    1    2    0    0  0.20120971253E+02 -0.21146336166E+01  0.40246593707E+02  0.46142318026E+02  0.10000002413E+02 0.  0.
        -12    1    1    2    0    0 -0.20120971253E+02  0.21146336166E+01 -0.40246593707E+02  0.45045681974E+02  0.00000000000E+00 0.  1.
         11    1    3    3    0    0  0.11701565674E+02 -0.33269879755E+01  0.24051550111E+02  0.26953154754E+02  0.51100000000E-03 0. -1.
        -11    1    3    3    0    0  0.63078756185E+00 -0.89888241290E+00  0.64214132239E+01  0.65146320382E+01  0.51100000000E-03 0.  1.
         12    1    3    3    0    0  0.77886180173E+01  0.21112367718E+01  0.97736303724E+01  0.12674531233E+02  0.00000000000E+00 0. -1.
</event>
<event>
 7    1  0.5743890E-009  0.4614232E+02  0.7816164E-02  0.1320468E+00
        -11   -1    0    0    0    0  0.00000000000E+00  0.00000000000E+00  0.45593999997E+02  0.45594000000E+02  0.51100000000E-03 0. -1.
         11   -1    0    0    0    0 -0.00000000000E+00 -0.00000000000E+00 -0.45593999997E+02  0.45594000000E+02  0.51100000000E-03 0.  1.
    9900012    2    1    2    0    0 -0.16039810708E+02 -0.16035706539E+01  0.42062649313E+02  0.46142318369E+02  0.10000005544E+02 0.  0.
        -12    1    1    2    0    0  0.16039810708E+02  0.16035706539E+01 -0.42062649313E+02  0.45045681631E+02  0.00000000000E+00 0.  1.
         11    1    3    3    0    0  0.90186825521E-01  0.22861527547E+00  0.17479081417E+01  0.17651010568E+01  0.51100000000E-03 0. -1.
        -11    1    3    3    0    0 -0.74711478675E+01  0.13303432614E+01  0.92015210240E+01  0.11927105813E+02  0.51100000000E-03 0.  1.
         12    1    3    3    0    0 -0.86588496658E+01 -0.31625291907E+01  0.31113220147E+02  0.32450111500E+02  0.00000000000E+00 0. -1.
</event>
<event>
 7    1  0.5743890E-009  0.4614232E+02  0.7816164E-02  0.1320468E+00
        -11   -1    0    0    0    0  0.00000000000E+00  0.00000000000E+00  0.45593999997E+02  0.45594000000E+02  0.51100000000E-03 0. -1.
         11   -1    0    0    0    0 -0.00000000000E+00 -0.00000000000E+00 -0.45593999997E+02  0.45594000000E+02  0.51100000000E-03 0.  1.
    9900012    2    1    2    0    0  0.13975598009E+02 -0.11580265971E+00 -0.42822689127E+02  0.46142318142E+02  0.10000003472E+02 0.  0.
         12    1    1    2    0    0 -0.13975598009E+02  0.11580265971E+00  0.42822689127E+02  0.45045681858E+02  0.00000000000E+00 0. -1.
         11    1    3    3    0    0  0.24880675001E+01 -0.10162336415E+01 -0.28429716614E+01  0.39122498422E+01  0.51100000000E-03 0. -1.
        -11    1    3    3    0    0  0.11405491468E+02  0.25127159393E+01 -0.31440492811E+02  0.33539582071E+02  0.51100000000E-03 0.  1.
        -12    1    3    3    0    0  0.82039041000E-01 -0.16122849576E+01 -0.85392246551E+01  0.86904862291E+01  0.00000000000E+00 0.  1.
</event>
<event>
 7    1  0.5743890E-009  0.4614232E+02  0.7816164E-02  0.1320468E+00
        -11   -1    0    0    0    0  0.00000000000E+00  0.00000000000E+00  0.45593999997E+02  0.45594000000E+02  0.51100000000E-03 0. -1.
         11   -1    0    0    0    0 -0.00000000000E+00 -0.00000000000E+00 -0.45593999997E+02  0.45594000000E+02  0.51100000000E-03 0.  1.
    9900012    2    1    2    0    0 -0.19241820988E+02  0.13493416272E+02 -0.38429071300E+02  0.46142317869E+02  0.10000000983E+02 0.  0.
         12    1    1    2    0    0  0.19241820988E+02 -0.13493416272E+02  0.38429071300E+02  0.45045682131E+02  0.00000000000E+00 0. -1.
         11    1    3    3    0    0 -0.30665614379E+01  0.17860924319E+01 -0.27622841324E+01  0.44971256506E+01  0.51100000000E-03 0. -1.
        -11    1    3    3    0    0 -0.13501218697E+02  0.12062431875E+02 -0.26533125851E+02  0.32121518282E+02  0.51100000000E-03 0.  1.
         12    1    3    3    0    0 -0.26740408535E+01 -0.35510803405E+00 -0.91336613167E+01  0.95236739365E+01  0.00000000000E+00 0. -1.
</event>
<event>
 7    1  0.5743890E-009  0.4614232E+02  0.7816164E-02  0.1320468E+00
        -11   -1    0    0    0    0  0.00000000000E+00  0.00000000000E+00  0.45593999997E+02  0.45594000000E+02  0.51100000000E-03 0. -1.
         11   -1    0    0    0    0 -0.00000000000E+00 -0.00000000000E+00 -0.45593999997E+02  0.45594000000E+02  0.51100000000E-03 0.  1.
    9900012    2    1    2    0    0 -0.29045214760E+01  0.28781202379E+02 -0.34529982106E+02  0.46142317414E+02  0.99999968371E+01 0.  0.
         12    1    1    2    0    0  0.29045214760E+01 -0.28781202379E+02  0.34529982106E+02  0.45045682586E+02  0.00000000000E+00 0. -1.
         11    1    3    3    0    0  0.25453007739E+01  0.10576178595E+02 -0.92709073774E+01  0.14292789566E+02  0.51100000000E-03 0.  1.
        -11    1    3    3    0    0 -0.13042109856E+01  0.64166367694E+01 -0.59363987385E+01  0.88382704173E+01  0.51100000000E-03 0. -1.
        -12    1    3    3    0    0 -0.41456112643E+01  0.11788387014E+02 -0.19322675990E+02  0.23011257431E+02  0.00000000000E+00 0.  1.
</event>
<event>
 7    1  0.5743890E-009  0.4614232E+02  0.7816164E-02  0.1320468E+00
        -11   -1    0    0    0    0  0.00000000000E+00  0.00000000000E+00  0.45593999997E+02  0.45594000000E+02  0.51100000000E-03 0. -1.
         11   -1    0    0    0    0 -0.00000000000E+00 -0.00000000000E+00 -0.45593999997E+02  0.45594000000E+02  0.51100000000E-03 0.  1.
    9900012    2    1    2    0    0  0.54736684672E+00  0.24579200270E+02 -0.37744892673E+02  0.46142316308E+02  0.99999867534E+01 0.  0.
         12    1    1    2    0    0 -0.54736684672E+00 -0.24579200270E+02  0.37744892673E+02  0.45045683692E+02  0.00000000000E+00 0. -1.
         11    1    3    3    0    0 -0.32192713923E+01  0.57343373241E+01 -0.94972918880E+01  0.11551834760E+02  0.51100000000E-03 0. -1.
        -11    1    3    3    0    0 -0.27852272702E+00  0.10150442039E+02 -0.17082438537E+02  0.19872562872E+02  0.51100000000E-03 0.  1.
         12    1    3    3    0    0  0.40451609661E+01  0.86944209072E+01 -0.11165162248E+02  0.14717918677E+02  0.00000000000E+00 0. -1.
</event>
<event>
 7    1  0.5743890E-009  0.4614231E+02  0.7816164E-02  0.1320468E+00
        -11   -1    0    0    0    0  0.00000000000E+00  0.00000000000E+00  0.45593999997E+02  0.45594000000E+02  0.51100000000E-03 0. -1.
         11   -1    0    0    0    0 -0.00000000000E+00 -0.00000000000E+00 -0.45593999997E+02  0.45594000000E+02  0.51100000000E-03 0.  1.
    9900012    2    1    2    0    0 -0.13334550175E+02  0.29769742044E+02 -0.31065515855E+02  0.46142311582E+02  0.99999436509E+01 0.  0.
         12    1    1    2    0    0  0.13334550175E+02 -0.29769742044E+02  0.31065515855E+02  0.45045688418E+02  0.00000000000E+00 0. -1.
         11    1    3    3    0    0 -0.15254001511E+00  0.15498834929E+01 -0.12247387281E+00  0.15621803380E+01  0.51100000000E-03 0. -1.
        -11    1    3    3    0    0 -0.19805161155E-02  0.11499512226E+01 -0.40504660389E+01  0.42105423796E+01  0.51100000000E-03 0.  1.
        -12    1    3    3    0    0 -0.13180029644E+02  0.27069907329E+02 -0.26892575943E+02  0.40369588864E+02  0.00000000000E+00 0.  1.
</event>
<event>
 7    1  0.5743890E-009  0.4614232E+02  0.7816164E-02  0.1320468E+00
        -11   -1    0    0    0    0  0.00000000000E+00  0.00000000000E+00  0.45593999997E+02  0.45594000000E+02  0.51100000000E-03 0.  1.
         11   -1    0    0    0    0 -0.00000000000E+00 -0.00000000000E+00 -0.45593999997E+02  0.45594000000E+02  0.51100000000E-03 0. -1.
    9900012    2    1    2    0    0  0.20911703414E+02  0.39532493215E+02  0.53848063661E+01  0.46142317643E+02  0.99999989202E+01 0.  0.
         12    1    1    2    0    0 -0.20911703414E+02 -0.39532493215E+02 -0.53848063661E+01  0.45045682357E+02  0.00000000000E+00 0. -1.
         11    1    3    3    0    0 -0.27371055657E-01  0.99621442479E+00  0.11392375610E+01  0.15136230826E+01  0.51100000000E-03 0. -1.
        -11    1    3    3    0    0  0.94905472577E+01  0.14329597094E+02 -0.14627276611E+01  0.17249562679E+02  0.51100000000E-03 0.  1.
        -12    1    3    3    0    0  0.11448527212E+02  0.24206681696E+02  0.57082964662E+01  0.27379131882E+02  0.00000000000E+00 0.  1.
</event>
<event>
 7    1  0.5743890E-009  0.4614232E+02  0.7816164E-02  0.1320468E+00
        -11   -1    0    0    0    0  0.00000000000E+00  0.00000000000E+00  0.45593999997E+02  0.45594000000E+02  0.51100000000E-03 0. -1.
         11   -1    0    0    0    0 -0.00000000000E+00 -0.00000000000E+00 -0.45593999997E+02  0.45594000000E+02  0.51100000000E-03 0.  1.
    9900012    2    1    2    0    0  0.17722642680E+02  0.12184744575E+02  0.39579709893E+02  0.46142317642E+02  0.99999989130E+01 0.  0.
        -12    1    1    2    0    0 -0.17722642680E+02 -0.12184744575E+02 -0.39579709893E+02  0.45045682358E+02  0.00000000000E+00 0.  1.
         11    1    3    3    0    0  0.24958026424E+01  0.48237539681E+01  0.15245984929E+02  0.16184489176E+02  0.51100000000E-03 0. -1.
        -11    1    3    3    0    0  0.20155470177E+01 -0.39420689075E+00  0.19370309352E+01  0.28231043123E+01  0.51100000000E-03 0.  1.
         12    1    3    3    0    0  0.13211293020E+02  0.77551974973E+01  0.22396694029E+02  0.27134724154E+02  0.00000000000E+00 0. -1.
</event>
<event>
 7    1  0.5743890E-009  0.4614232E+02  0.7816164E-02  0.1320468E+00
        -11   -1    0    0    0    0  0.00000000000E+00  0.00000000000E+00  0.45593999997E+02  0.45594000000E+02  0.51100000000E-03 0. -1.
         11   -1    0    0    0    0 -0.00000000000E+00 -0.00000000000E+00 -0.45593999997E+02  0.45594000000E+02  0.51100000000E-03 0.  1.
    9900012    2    1    2    0    0  0.90322137790E-01 -0.63050204409E+01 -0.44602148888E+02  0.46142321780E+02  0.10000036648E+02 0.  0.
         12    1    1    2    0    0 -0.90322137790E-01  0.63050204409E+01  0.44602148888E+02  0.45045678220E+02  0.00000000000E+00 0. -1.
         11    1    3    3    0    0 -0.15493093555E+01  0.69690628822E+00 -0.10666595433E+02  0.10801032184E+02  0.51100000000E-03 0. -1.
        -11    1    3    3    0    0  0.13167793247E+00 -0.47006675604E+01 -0.30853686598E+02  0.31209991854E+02  0.51100000000E-03 0.  1.
         12    1    3    3    0    0  0.15079535608E+01 -0.23012591687E+01 -0.30818668571E+01  0.41312977414E+01  0.00000000000E+00 0. -1.
</event>
<event>
 7    1  0.5743890E-009  0.4614232E+02  0.7816164E-02  0.1320468E+00
        -11   -1    0    0    0    0  0.00000000000E+00  0.00000000000E+00  0.45593999997E+02  0.45594000000E+02  0.51100000000E-03 0. -1.
         11   -1    0    0    0    0 -0.00000000000E+00 -0.00000000000E+00 -0.45593999997E+02  0.45594000000E+02  0.51100000000E-03 0.  1.
    9900012    2    1    2    0    0 -0.13825715028E+02  0.33162644334E+02 -0.27169869328E+02  0.46142321245E+02  0.10000031765E+02 0.  0.
         12    1    1    2    0    0  0.13825715028E+02 -0.33162644334E+02  0.27169869328E+02  0.45045678755E+02  0.00000000000E+00 0. -1.
         11    1    3    3    0    0 -0.28650147769E+01  0.11119624747E+02 -0.76494377355E+01  0.13797400557E+02  0.51100000000E-03 0.  1.
        -11    1    3    3    0    0 -0.35619880433E+01  0.14197183597E+02 -0.85018997302E+01  0.16927199420E+02  0.51100000000E-03 0. -1.
        -12    1    3    3    0    0 -0.73987122074E+01  0.78458359891E+01 -0.11018531862E+02  0.15417721268E+02  0.00000000000E+00 0.  1.
</event>
<event>
 7    1  0.5842512E-009  0.4614232E+02  0.7816164E-02  0.1320468E+00
        -11   -1    0    0    0    0  0.00000000000E+00  0.00000000000E+00  0.45593999997E+02  0.45594000000E+02  0.51100000000E-03 0. -1.
         11   -1    0    0    0    0 -0.00000000000E+00 -0.00000000000E+00 -0.45593999997E+02  0.45594000000E+02  0.51100000000E-03 0.  1.
    9900012    2    1    2    0    0  0.14228005456E+02 -0.85709554733E+01  0.41871422913E+02  0.46142317924E+02  0.10000001482E+02 0.  0.
        -12    1    1    2    0    0 -0.14228005456E+02  0.85709554733E+01 -0.41871422913E+02  0.45045682076E+02  0.00000000000E+00 0.  1.
         11    1    3    3    0    0  0.68300683315E+01 -0.24112207414E+01  0.15549065642E+02  0.17153345489E+02  0.51100000000E-03 0. -1.
        -11    1    3    3    0    0  0.16771147635E+01  0.13354288489E+01  0.91549992196E+01  0.94026642561E+01  0.51100000000E-03 0.  1.
        -12    1    3    3    0    0  0.57208223609E+01 -0.74951635808E+01  0.17167358052E+02  0.19586308178E+02  0.00000000000E+00 0.  1.
</event>
<event>
 7    1  0.5743890E-009  0.4614231E+02  0.7816164E-02  0.1320468E+00
        -11   -1    0    0    0    0  0.00000000000E+00  0.00000000000E+00  0.45593999997E+02  0.45594000000E+02  0.51100000000E-03 0. -1.
         11   -1    0    0    0    0 -0.00000000000E+00 -0.00000000000E+00 -0.45593999997E+02  0.45594000000E+02  0.51100000000E-03 0.  1.
    9900012    2    1    2    0    0 -0.32809359580E+02  0.55739678186E+01 -0.30357712017E+02  0.46142313500E+02  0.99999611463E+01 0.  0.
         12    1    1    2    0    0  0.32809359580E+02 -0.55739678186E+01  0.30357712017E+02  0.45045686500E+02  0.00000000000E+00 0. -1.
         11    1    3    3    0    0 -0.25128666353E+00  0.27893222235E+00 -0.15976153986E+01  0.16411347888E+01  0.51100000000E-03 0. -1.
        -11    1    3    3    0    0 -0.55251867667E+01  0.41245793122E+01 -0.55111559923E+01  0.88268161838E+01  0.51100000000E-03 0.  1.
        -12    1    3    3    0    0 -0.27032886150E+02  0.11704562840E+01 -0.23248940626E+02  0.35674362528E+02  0.00000000000E+00 0.  1.
</event>
<event>
 7    1  0.5743890E-009  0.4614232E+02  0.7816164E-02  0.1320468E+00
        -11   -1    0    0    0    0  0.00000000000E+00  0.00000000000E+00  0.45593999997E+02  0.45594000000E+02  0.51100000000E-03 0.  1.
         11   -1    0    0    0    0 -0.00000000000E+00 -0.00000000000E+00 -0.45593999997E+02  0.45594000000E+02  0.51100000000E-03 0. -1.
    9900012    2    1    2    0    0 -0.40181701933E+02 -0.11234712801E+02 -0.16980154828E+02  0.46142316523E+02  0.99999887111E+01 0.  0.
        -12    1    1    2    0    0  0.40181701933E+02  0.11234712801E+02  0.16980154828E+02  0.45045683477E+02  0.00000000000E+00 0.  1.
         11    1    3    3    0    0 -0.16382974728E+02 -0.46157399885E+01 -0.42659692452E+01  0.17547233698E+02  0.51100000000E-03 0. -1.
        -11    1    3    3    0    0 -0.22026756662E+02 -0.69173117394E+01 -0.96084689079E+01  0.25006996736E+02  0.51100000000E-03 0.  1.
        -12    1    3    3    0    0 -0.17719705427E+01  0.29833892709E+00 -0.31057166750E+01  0.35880860894E+01  0.00000000000E+00 0.  1.
</event>
<event>
 7    1  0.5743890E-009  0.4614232E+02  0.7816164E-02  0.1320468E+00
        -11   -1    0    0    0    0  0.00000000000E+00  0.00000000000E+00  0.45593999997E+02  0.45594000000E+02  0.51100000000E-03 0.  1.
         11   -1    0    0    0    0 -0.00000000000E+00 -0.00000000000E+00 -0.45593999997E+02  0.45594000000E+02  0.51100000000E-03 0. -1.
    9900012    2    1    2    0    0 -0.43865957784E+02 -0.98872190229E+01  0.26709717352E+01  0.46142318272E+02  0.10000004661E+02 0.  0.
        -12    1    1    2    0    0  0.43865957784E+02  0.98872190229E+01 -0.26709717352E+01  0.45045681728E+02  0.00000000000E+00 0.  1.
         11    1    3    3    0    0 -0.96582282959E+01 -0.49695302527E+01  0.14269624219E+01  0.10955082234E+02  0.51100000000E-03 0. -1.
        -11    1    3    3    0    0 -0.72534633285E+00 -0.64764555656E+00  0.10527500282E+01  0.14331276819E+01  0.51100000000E-03 0.  1.
         12    1    3    3    0    0 -0.33482383155E+02 -0.42700432137E+01  0.19125928496E+00  0.33754108356E+02  0.00000000000E+00 0. -1.
</event>
<event>
 7    1  0.5743890E-009  0.4614232E+02  0.7816164E-02  0.1320468E+00
        -11   -1    0    0    0    0  0.00000000000E+00  0.00000000000E+00  0.45593999997E+02  0.45594000000E+02  0.51100000000E-03 0.  1.
         11   -1    0    0    0    0 -0.00000000000E+00 -0.00000000000E+00 -0.45593999997E+02  0.45594000000E+02  0.51100000000E-03 0. -1.
    9900012    2    1    2    0    0 -0.20041863512E+02  0.32483614014E+02 -0.23921789175E+02  0.46142317968E+02  0.10000001883E+02 0.  0.
         12    1    1    2    0    0  0.20041863512E+02 -0.32483614014E+02  0.23921789175E+02  0.45045682032E+02  0.00000000000E+00 0. -1.
         11    1    3    3    0    0 -0.85894006499E+01  0.72242301817E+01 -0.41738935611E+01  0.11974501783E+02  0.51100000000E-03 0. -1.
        -11    1    3    3    0    0 -0.24067327017E+01  0.32311814670E+01 -0.22272008878E+01  0.46036203173E+01  0.51100000000E-03 0.  1.
        -12    1    3    3    0    0 -0.90457301607E+01  0.22028202365E+02 -0.17520694726E+02  0.29564195867E+02  0.00000000000E+00 0.  1.
</event>
<event>
 7    1  0.5743890E-009  0.4614232E+02  0.7816164E-02  0.1320468E+00
        -11   -1    0    0    0    0  0.00000000000E+00  0.00000000000E+00  0.45593999997E+02  0.45594000000E+02  0.51100000000E-03 0. -1.
         11   -1    0    0    0    0 -0.00000000000E+00 -0.00000000000E+00 -0.45593999997E+02  0.45594000000E+02  0.51100000000E-03 0.  1.
    9900012    2    1    2    0    0  0.61847146939E+01  0.93010974690E+01  0.43638885833E+02  0.46142318001E+02  0.10000002192E+02 0.  0.
        -12    1    1    2    0    0 -0.61847146939E+01 -0.93010974690E+01 -0.43638885833E+02  0.45045681999E+02  0.00000000000E+00 0.  1.
         11    1    3    3    0    0  0.34099287515E+01  0.22505610314E+01  0.12037924636E+02  0.12712366769E+02  0.51100000000E-03 0. -1.
        -11    1    3    3    0    0  0.89669312056E+00  0.19545848617E+01  0.10373998078E+01  0.23876053184E+01  0.51100000000E-03 0.  1.
        -12    1    3    3    0    0  0.18780928218E+01  0.50959515759E+01  0.30563561389E+02  0.31042345915E+02  0.00000000000E+00 0.  1.
</event>
<event>
 7    1  0.5743890E-009  0.4614232E+02  0.7816164E-02  0.1320468E+00
        -11   -1    0    0    0    0  0.00000000000E+00  0.00000000000E+00  0.45593999997E+02  0.45594000000E+02  0.51100000000E-03 0. -1.
         11   -1    0    0    0    0 -0.00000000000E+00 -0.00000000000E+00 -0.45593999997E+02  0.45594000000E+02  0.51100000000E-03 0.  1.
    9900012    2    1    2    0    0  0.12329416183E+02  0.90565827619E+01 -0.42368353177E+02  0.46142317125E+02  0.99999941962E+01 0.  0.
         12    1    1    2    0    0 -0.12329416183E+02 -0.90565827619E+01  0.42368353177E+02  0.45045682875E+02  0.00000000000E+00 0. -1.
         11    1    3    3    0    0  0.77062733179E+00  0.86389896894E+00 -0.86280318215E+01  0.87053501530E+01  0.51100000000E-03 0.  1.
        -11    1    3    3    0    0  0.13073298557E+01 -0.13797151403E+01 -0.68466340168E+01  0.71055698463E+01  0.51100000000E-03 0. -1.
        -12    1    3    3    0    0  0.10251458995E+02  0.95723989333E+01 -0.26893687339E+02  0.30331397125E+02  0.00000000000E+00 0.  1.
</event>
<event>
 7    1  0.5743890E-009  0.4614232E+02  0.7816164E-02  0.1320468E+00
        -11   -1    0    0    0    0  0.00000000000E+00  0.00000000000E+00  0.45593999997E+02  0.45594000000E+02  0.51100000000E-03 0.  1.
         11   -1    0    0    0    0 -0.00000000000E+00 -0.00000000000E+00 -0.45593999997E+02  0.45594000000E+02  0.51100000000E-03 0. -1.
    9900012    2    1    2    0    0  0.38582807455E+02 -0.17006052292E+02  0.15851648366E+02  0.46142316505E+02  0.99999885435E+01 0.  0.
        -12    1    1    2    0    0 -0.38582807455E+02  0.17006052292E+02 -0.15851648366E+02  0.45045683495E+02  0.00000000000E+00 0.  1.
         11    1    3    3    0    0  0.16356733908E+02 -0.72117622716E+01  0.19820985253E+01  0.17985576833E+02  0.51100000000E-03 0. -1.
        -11    1    3    3    0    0  0.69566528615E+01 -0.44760010248E+01  0.37541768337E+01  0.90842417499E+01  0.51100000000E-03 0.  1.
        -12    1    3    3    0    0  0.15269420685E+02 -0.53182889952E+01  0.10115373007E+02  0.19072497922E+02  0.00000000000E+00 0.  1.
</event>
<event>
 7    1  0.5743890E-009  0.4614232E+02  0.7816164E-02  0.1320468E+00
        -11   -1    0    0    0    0  0.00000000000E+00  0.00000000000E+00  0.45593999997E+02  0.45594000000E+02  0.51100000000E-03 0.  1.
         11   -1    0    0    0    0 -0.00000000000E+00 -0.00000000000E+00 -0.45593999997E+02  0.45594000000E+02  0.51100000000E-03 0. -1.
    9900012    2    1    2    0    0  0.98642281742E+01  0.43890382084E+02 -0.23334211485E+01  0.46142317729E+02  0.99999997082E+01 0.  0.
         12    1    1    2    0    0 -0.98642281742E+01 -0.43890382084E+02  0.23334211485E+01  0.45045682271E+02  0.00000000000E+00 0. -1.
         11    1    3    3    0    0  0.10004979303E+01  0.44888869337E+01 -0.15862544894E+01  0.48649055056E+01  0.51100000000E-03 0. -1.
        -11    1    3    3    0    0  0.71717113814E+01  0.29604296106E+02 -0.42083623370E+01  0.30749928551E+02  0.51100000000E-03 0.  1.
        -12    1    3    3    0    0  0.16920188625E+01  0.97971990444E+01  0.34611956780E+01  0.10527483672E+02  0.00000000000E+00 0.  1.
</event>
<event>
 7    1  0.5743890E-009  0.4614232E+02  0.7816164E-02  0.1320468E+00
        -11   -1    0    0    0    0  0.00000000000E+00  0.00000000000E+00  0.45593999997E+02  0.45594000000E+02  0.51100000000E-03 0. -1.
         11   -1    0    0    0    0 -0.00000000000E+00 -0.00000000000E+00 -0.45593999997E+02  0.45594000000E+02  0.51100000000E-03 0.  1.
    9900012    2    1    2    0    0  0.73125341797E+01  0.86099816139E+01 -0.43606290470E+02  0.46142317542E+02  0.99999980028E+01 0.  0.
         12    1    1    2    0    0 -0.73125341797E+01 -0.86099816139E+01  0.43606290470E+02  0.45045682458E+02  0.00000000000E+00 0. -1.
         11    1    3    3    0    0  0.30847826170E+01  0.33722946608E+01 -0.13769573882E+02  0.14508253521E+02  0.51100000000E-03 0. -1.
        -11    1    3    3    0    0  0.18471194862E+01  0.71396390515E+01 -0.19132875479E+02  0.20504955999E+02  0.51100000000E-03 0.  1.
         12    1    3    3    0    0  0.23806320765E+01 -0.19019520983E+01 -0.10703841109E+02  0.11129108022E+02  0.00000000000E+00 0. -1.
</event>
<event>
 7    1  0.5743890E-009  0.4614231E+02  0.7816164E-02  0.1320468E+00
        -11   -1    0    0    0    0  0.00000000000E+00  0.00000000000E+00  0.45593999997E+02  0.45594000000E+02  0.51100000000E-03 0. -1.
         11   -1    0    0    0    0 -0.00000000000E+00 -0.00000000000E+00 -0.45593999997E+02  0.45594000000E+02  0.51100000000E-03 0.  1.
    9900012    2    1    2    0    0  0.23765005804E+02  0.26491783747E+02 -0.27613835485E+02  0.46142311891E+02  0.99999464753E+01 0.  0.
         12    1    1    2    0    0 -0.23765005804E+02 -0.26491783747E+02  0.27613835485E+02  0.45045688109E+02  0.00000000000E+00 0. -1.
         11    1    3    3    0    0  0.73548249508E+01  0.90853286691E+01 -0.11379853871E+02  0.16313728006E+02  0.51100000000E-03 0. -1.
        -11    1    3    3    0    0  0.15459512376E+02  0.14833966707E+02 -0.16543014728E+02  0.27068698301E+02  0.51100000000E-03 0.  1.
         12    1    3    3    0    0  0.95066847713E+00  0.25724883711E+01  0.30903311308E+00  0.27598855842E+01  0.00000000000E+00 0. -1.
</event>
<event>
 7    1  0.5743890E-009  0.4614232E+02  0.7816164E-02  0.1320468E+00
        -11   -1    0    0    0    0  0.00000000000E+00  0.00000000000E+00  0.45593999997E+02  0.45594000000E+02  0.51100000000E-03 0. -1.
         11   -1    0    0    0    0 -0.00000000000E+00 -0.00000000000E+00 -0.45593999997E+02  0.45594000000E+02  0.51100000000E-03 0.  1.
    9900012    2    1    2    0    0  0.13224577790E+02 -0.20901033412E+01  0.43009946174E+02  0.46142318081E+02  0.10000002915E+02 0.  0.
        -12    1    1    2    0    0 -0.13224577790E+02  0.20901033412E+01 -0.43009946174E+02  0.45045681919E+02  0.00000000000E+00 0.  1.
         11    1    3    3    0    0 -0.11435047521E+01 -0.43681542255E+00  0.10874607568E+01  0.16373704499E+01  0.51100000000E-03 0.  1.
        -11    1    3    3    0    0  0.12085501863E+02 -0.17020824614E+01  0.30400128910E+02  0.32758575641E+02  0.51100000000E-03 0. -1.
         12    1    3    3    0    0  0.22825806791E+01  0.48794542746E-01  0.11522356506E+02  0.11746371990E+02  0.00000000000E+00 0. -1.
</event>
<event>
 7    1  0.5743890E-009  0.4614232E+02  0.7816164E-02  0.1320468E+00
        -11   -1    0    0    0    0  0.00000000000E+00  0.00000000000E+00  0.45593999997E+02  0.45594000000E+02  0.51100000000E-03 0. -1.
         11   -1    0    0    0    0 -0.00000000000E+00 -0.00000000000E+00 -0.45593999997E+02  0.45594000000E+02  0.51100000000E-03 0.  1.
    9900012    2    1    2    0    0 -0.37595162856E+01  0.27718642838E+02 -0.35308023528E+02  0.46142315979E+02  0.99999837477E+01 0.  0.
         12    1    1    2    0    0  0.37595162856E+01 -0.27718642838E+02  0.35308023528E+02  0.45045684021E+02  0.00000000000E+00 0. -1.
         11    1    3    3    0    0 -0.42933514704E+01  0.15996386282E+02 -0.21675853246E+02  0.27279293523E+02  0.51100000000E-03 0. -1.
        -11    1    3    3    0    0 -0.19466403270E+01  0.73794713844E+01 -0.10431581206E+02  0.12925319849E+02  0.51100000000E-03 0.  1.
         12    1    3    3    0    0  0.24804755117E+01  0.43427851722E+01 -0.32005890761E+01  0.59377026071E+01  0.00000000000E+00 0. -1.
</event>
<event>
 7    1  0.5743890E-009  0.4614232E+02  0.7816164E-02  0.1320468E+00
        -11   -1    0    0    0    0  0.00000000000E+00  0.00000000000E+00  0.45593999997E+02  0.45594000000E+02  0.51100000000E-03 0. -1.
         11   -1    0    0    0    0 -0.00000000000E+00 -0.00000000000E+00 -0.45593999997E+02  0.45594000000E+02  0.51100000000E-03 0.  1.
    9900012    2    1    2    0    0  0.13533364686E+02  0.94849873118E+01 -0.41904612182E+02  0.46142318007E+02  0.10000002246E+02 0.  0.
         12    1    1    2    0    0 -0.13533364686E+02 -0.94849873118E+01  0.41904612182E+02  0.45045681993E+02  0.00000000000E+00 0. -1.
         11    1    3    3    0    0  0.62182478210E+01  0.14337253327E+01 -0.15942428008E+02  0.17172163095E+02  0.51100000000E-03 0. -1.
        -11    1    3    3    0    0  0.30307674818E+01  0.29642417847E+01 -0.33590067955E+01  0.54088083531E+01  0.51100000000E-03 0.  1.
        -12    1    3    3    0    0  0.42843493828E+01  0.50870201945E+01 -0.22603177378E+02  0.23561346560E+02  0.00000000000E+00 0.  1.
</event>
<event>
 7    1  0.5743890E-009  0.4614232E+02  0.7816164E-02  0.1320468E+00
        -11   -1    0    0    0    0  0.00000000000E+00  0.00000000000E+00  0.45593999997E+02  0.45594000000E+02  0.51100000000E-03 0. -1.
         11   -1    0    0    0    0 -0.00000000000E+00 -0.00000000000E+00 -0.45593999997E+02  0.45594000000E+02  0.51100000000E-03 0.  1.
    9900012    2    1    2    0    0 -0.17739526290E+02 -0.41452831925E+01  0.41197564297E+02  0.46142317968E+02  0.10000001884E+02 0.  0.
        -12    1    1    2    0    0  0.17739526290E+02  0.41452831925E+01 -0.41197564297E+02  0.45045682032E+02  0.00000000000E+00 0.  1.
         11    1    3    3    0    0 -0.41875390447E+01  0.12989478699E+01  0.15249090837E+02  0.15866868640E+02  0.51100000000E-03 0. -1.
        -11    1    3    3    0    0 -0.62286127885E+01 -0.26514095835E+01  0.17436994979E+02  0.18704929409E+02  0.51100000000E-03 0.  1.
        -12    1    3    3    0    0 -0.73233744569E+01 -0.27928214789E+01  0.85114784810E+01  0.11570519918E+02  0.00000000000E+00 0.  1.
</event>
<event>
 7    1  0.5743890E-009  0.4614232E+02  0.7816164E-02  0.1320468E+00
        -11   -1    0    0    0    0  0.00000000000E+00  0.00000000000E+00  0.45593999997E+02  0.45594000000E+02  0.51100000000E-03 0.  1.
         11   -1    0    0    0    0 -0.00000000000E+00 -0.00000000000E+00 -0.45593999997E+02  0.45594000000E+02  0.51100000000E-03 0. -1.
    9900012    2    1    2    0    0 -0.34600786876E+02 -0.26838952290E+02 -0.10562654879E+02  0.46142317737E+02  0.99999997846E+01 0.  0.
        -12    1    1    2    0    0  0.34600786876E+02  0.26838952290E+02  0.10562654879E+02  0.45045682263E+02  0.00000000000E+00 0.  1.
         11    1    3    3    0    0 -0.73560793761E+00 -0.23355650690E+01 -0.29477802672E+00  0.24663490377E+01  0.51100000000E-03 0. -1.
        -11    1    3    3    0    0 -0.28810223883E+01 -0.27848606653E+01 -0.33237693009E+01  0.52060716048E+01  0.51100000000E-03 0.  1.
         12    1    3    3    0    0 -0.30984156550E+02 -0.21718526555E+02 -0.69441075509E+01  0.38469897095E+02  0.00000000000E+00 0. -1.
</event>
<event>
 7    1  0.6663489E-009  0.4614232E+02  0.7816164E-02  0.1320468E+00
        -11   -1    0    0    0    0  0.00000000000E+00  0.00000000000E+00  0.45593999997E+02  0.45594000000E+02  0.51100000000E-03 0. -1.
         11   -1    0    0    0    0 -0.00000000000E+00 -0.00000000000E+00 -0.45593999997E+02  0.45594000000E+02  0.51100000000E-03 0.  1.
    9900012    2    1    2    0    0  0.87681594320E+01  0.16416247792E+02  0.41021207685E+02  0.46142319948E+02  0.10000019946E+02 0.  0.
        -12    1    1    2    0    0 -0.87681594320E+01 -0.16416247792E+02 -0.41021207685E+02  0.45045680052E+02  0.00000000000E+00 0.  1.
         11    1    3    3    0    0  0.24642987862E+01  0.80804205069E+01  0.21060781062E+02  0.22691903033E+02  0.51100000000E-03 0. -1.
        -11    1    3    3    0    0  0.55598666244E+00  0.24503473449E+01  0.11012416145E+02  0.11295425308E+02  0.51100000000E-03 0.  1.
        -12    1    3    3    0    0  0.57478739833E+01  0.58854799406E+01  0.89480104778E+01  0.12154991607E+02  0.00000000000E+00 0.  1.
</event>
<event>
 7    1  0.5743890E-009  0.4614232E+02  0.7816164E-02  0.1320468E+00
        -11   -1    0    0    0    0  0.00000000000E+00  0.00000000000E+00  0.45593999997E+02  0.45594000000E+02  0.51100000000E-03 0. -1.
         11   -1    0    0    0    0 -0.00000000000E+00 -0.00000000000E+00 -0.45593999997E+02  0.45594000000E+02  0.51100000000E-03 0.  1.
    9900012    2    1    2    0    0 -0.57682293291E+01 -0.32999922779E+02 -0.30113884546E+02  0.46142318570E+02  0.10000007379E+02 0.  0.
         12    1    1    2    0    0  0.57682293291E+01  0.32999922779E+02  0.30113884546E+02  0.45045681430E+02  0.00000000000E+00 0. -1.
         11    1    3    3    0    0 -0.25532233899E+01 -0.18535786529E+02 -0.19591534798E+02  0.27091005296E+02  0.51100000000E-03 0. -1.
        -11    1    3    3    0    0 -0.42917145324E+01 -0.87933628024E+01 -0.84181588348E+01  0.12907650500E+02  0.51100000000E-03 0.  1.
         12    1    3    3    0    0  0.10767085932E+01 -0.56707734474E+01 -0.21041909134E+01  0.61436627745E+01  0.00000000000E+00 0. -1.
</event>
<event>
 7    1  0.5743890E-009  0.4614232E+02  0.7816164E-02  0.1320468E+00
        -11   -1    0    0    0    0  0.00000000000E+00  0.00000000000E+00  0.45593999997E+02  0.45594000000E+02  0.51100000000E-03 0. -1.
         11   -1    0    0    0    0 -0.00000000000E+00 -0.00000000000E+00 -0.45593999997E+02  0.45594000000E+02  0.51100000000E-03 0.  1.
    9900012    2    1    2    0    0 -0.70424570223E+01  0.18365380911E+02 -0.40524437310E+02  0.46142318340E+02  0.10000005283E+02 0.  0.
         12    1    1    2    0    0  0.70424570223E+01 -0.18365380911E+02  0.40524437310E+02  0.45045681660E+02  0.00000000000E+00 0. -1.
         11    1    3    3    0    0  0.89570908332E+00  0.11259785557E+02 -0.19890955227E+02  0.22874334212E+02  0.51100000000E-03 0. -1.
        -11    1    3    3    0    0 -0.11258372078E+01  0.17129267673E+01 -0.44609585236E+01  0.49093562448E+01  0.51100000000E-03 0.  1.
        -12    1    3    3    0    0 -0.68123288978E+01  0.53926685870E+01 -0.16172523559E+02  0.18358627883E+02  0.00000000000E+00 0.  1.
</event>
<event>
 7    1  0.5743890E-009  0.4614232E+02  0.7816164E-02  0.1320468E+00
        -11   -1    0    0    0    0  0.00000000000E+00  0.00000000000E+00  0.45593999997E+02  0.45594000000E+02  0.51100000000E-03 0. -1.
         11   -1    0    0    0    0 -0.00000000000E+00 -0.00000000000E+00 -0.45593999997E+02  0.45594000000E+02  0.51100000000E-03 0.  1.
    9900012    2    1    2    0    0  0.32837419164E+01 -0.16798457427E+02 -0.41667041596E+02  0.46142317763E+02  0.10000000016E+02 0.  0.
         12    1    1    2    0    0 -0.32837419164E+01  0.16798457427E+02  0.41667041596E+02  0.45045682237E+02  0.00000000000E+00 0. -1.
         11    1    3    3    0    0  0.21176093425E+01 -0.22959375678E+00 -0.20516963726E+01  0.29574382305E+01  0.51100000000E-03 0. -1.
        -11    1    3    3    0    0  0.89089417225E+00 -0.13864157113E+02 -0.28019599212E+02  0.31274694006E+02  0.51100000000E-03 0.  1.
         12    1    3    3    0    0  0.27523840161E+00 -0.27047065572E+01 -0.11595746011E+02  0.11910185527E+02  0.00000000000E+00 0. -1.
</event>
<event>
 7    1  0.5743890E-009  0.4614232E+02  0.7816164E-02  0.1320468E+00
        -11   -1    0    0    0    0  0.00000000000E+00  0.00000000000E+00  0.45593999997E+02  0.45594000000E+02  0.51100000000E-03 0. -1.
         11   -1    0    0    0    0 -0.00000000000E+00 -0.00000000000E+00 -0.45593999997E+02  0.45594000000E+02  0.51100000000E-03 0.  1.
    9900012    2    1    2    0    0 -0.12301221878E+02  0.36602648679E+02 -0.23195677004E+02  0.46142318945E+02  0.10000010798E+02 0.  0.
         12    1    1    2    0    0  0.12301221878E+02 -0.36602648679E+02  0.23195677004E+02  0.45045681055E+02  0.00000000000E+00 0. -1.
         11    1    3    3    0    0 -0.13602540471E+00  0.68855511757E+01 -0.29430958890E+01  0.74894012830E+01  0.51100000000E-03 0. -1.
        -11    1    3    3    0    0 -0.34869749023E+01  0.11059968608E+02 -0.34833868520E+01  0.12108504606E+02  0.51100000000E-03 0.  1.
        -12    1    3    3    0    0 -0.86782215713E+01  0.18657128895E+02 -0.16769194263E+02  0.26544413056E+02  0.00000000000E+00 0.  1.
</event>
<event>
 7    1  0.5743890E-009  0.4614232E+02  0.7816164E-02  0.1320468E+00
        -11   -1    0    0    0    0  0.00000000000E+00  0.00000000000E+00  0.45593999997E+02  0.45594000000E+02  0.51100000000E-03 0. -1.
         11   -1    0    0    0    0 -0.00000000000E+00 -0.00000000000E+00 -0.45593999997E+02  0.45594000000E+02  0.51100000000E-03 0.  1.
    9900012    2    1    2    0    0  0.31497958483E+02  0.32192918869E+02  0.77981737324E+00  0.46142317309E+02  0.99999958815E+01 0.  0.
         12    1    1    2    0    0 -0.31497958483E+02 -0.32192918869E+02 -0.77981737324E+00  0.45045682691E+02  0.00000000000E+00 0. -1.
         11    1    3    3    0    0  0.18766119546E+01  0.54749383454E+01  0.15765210098E+01  0.59985032357E+01  0.51100000000E-03 0. -1.
        -11    1    3    3    0    0  0.22589055970E+02  0.20091950255E+02 -0.24915329844E+01  0.30334133440E+02  0.51100000000E-03 0.  1.
        -12    1    3    3    0    0  0.70322905590E+01  0.66260302687E+01  0.16948293478E+01  0.98096806342E+01  0.00000000000E+00 0.  1.
</event>
<event>
 7    1  0.5743890E-009  0.4614232E+02  0.7816164E-02  0.1320468E+00
        -11   -1    0    0    0    0  0.00000000000E+00  0.00000000000E+00  0.45593999997E+02  0.45594000000E+02  0.51100000000E-03 0. -1.
         11   -1    0    0    0    0 -0.00000000000E+00 -0.00000000000E+00 -0.45593999997E+02  0.45594000000E+02  0.51100000000E-03 0.  1.
    9900012    2    1    2    0    0  0.13894531343E+02 -0.94298227361E+01 -0.41798734108E+02  0.46142315067E+02  0.99999754345E+01 0.  0.
         12    1    1    2    0    0 -0.13894531343E+02  0.94298227361E+01  0.41798734108E+02  0.45045684933E+02  0.00000000000E+00 0. -1.
         11    1    3    3    0    0  0.21943626043E+01  0.34812467914E+00 -0.47666870898E+01  0.52590611429E+01  0.51100000000E-03 0.  1.
        -11    1    3    3    0    0  0.12579394798E+01 -0.32637496946E+01 -0.17127347659E+02  0.17480861303E+02  0.51100000000E-03 0. -1.
        -12    1    3    3    0    0  0.10442229258E+02 -0.65141977207E+01 -0.19904699359E+02  0.23402392621E+02  0.00000000000E+00 0.  1.
</event>
<event>
 7    1  0.5743890E-009  0.4614232E+02  0.7816164E-02  0.1320468E+00
        -11   -1    0    0    0    0  0.00000000000E+00  0.00000000000E+00  0.45593999997E+02  0.45594000000E+02  0.51100000000E-03 0. -1.
         11   -1    0    0    0    0 -0.00000000000E+00 -0.00000000000E+00 -0.45593999997E+02  0.45594000000E+02  0.51100000000E-03 0.  1.
    9900012    2    1    2    0    0 -0.49421386462E+01 -0.11553400036E+01  0.44758841901E+02  0.46142317929E+02  0.10000001535E+02 0.  0.
        -12    1    1    2    0    0  0.49421386462E+01  0.11553400036E+01 -0.44758841901E+02  0.45045682071E+02  0.00000000000E+00 0.  1.
         11    1    3    3    0    0 -0.12586286031E+01  0.81538813130E+00  0.31928404785E+02  0.31963604868E+02  0.51100000000E-03 0. -1.
        -11    1    3    3    0    0 -0.37558161320E+01 -0.63252602349E+00  0.52804907606E+01  0.65107470325E+01  0.51100000000E-03 0.  1.
         12    1    3    3    0    0  0.72306088874E-01 -0.13382021114E+01  0.75499463552E+01  0.76679660294E+01  0.00000000000E+00 0. -1.
</event>
<event>
 7    1  0.5743890E-009  0.4614232E+02  0.7816164E-02  0.1320468E+00
        -11   -1    0    0    0    0  0.00000000000E+00  0.00000000000E+00  0.45593999997E+02  0.45594000000E+02  0.51100000000E-03 0. -1.
         11   -1    0    0    0    0 -0.00000000000E+00 -0.00000000000E+00 -0.45593999997E+02  0.45594000000E+02  0.51100000000E-03 0.  1.
    9900012    2    1    2    0    0  0.18207351733E+02  0.23787104876E+02  0.33641930372E+02  0.46142317691E+02  0.99999993645E+01 0.  0.
        -12    1    1    2    0    0 -0.18207351733E+02 -0.23787104876E+02 -0.33641930372E+02  0.45045682309E+02  0.00000000000E+00 0.  1.
         11    1    3    3    0    0  0.13843947381E+02  0.18996498592E+02  0.28057174779E+02  0.36602279911E+02  0.51100000000E-03 0. -1.
        -11    1    3    3    0    0  0.47311053276E+01  0.48893209404E+01  0.39618219269E+01  0.78730457969E+01  0.51100000000E-03 0.  1.
        -12    1    3    3    0    0 -0.36770097543E+00 -0.98714655910E-01  0.16229336655E+01  0.16669919836E+01  0.00000000000E+00 0.  1.
</event>
<event>
 7    1  0.5743890E-009  0.4614232E+02  0.7816164E-02  0.1320468E+00
        -11   -1    0    0    0    0  0.00000000000E+00  0.00000000000E+00  0.45593999997E+02  0.45594000000E+02  0.51100000000E-03 0. -1.
         11   -1    0    0    0    0 -0.00000000000E+00 -0.00000000000E+00 -0.45593999997E+02  0.45594000000E+02  0.51100000000E-03 0.  1.
    9900012    2    1    2    0    0  0.29024966496E+01 -0.12471399377E+02 -0.43187420309E+02  0.46142316943E+02  0.99999925353E+01 0.  0.
         12    1    1    2    0    0 -0.29024966496E+01  0.12471399377E+02  0.43187420309E+02  0.45045683057E+02  0.00000000000E+00 0. -1.
         11    1    3    3    0    0  0.38548824290E+01 -0.17462474875E+01 -0.12330032980E+02  0.13036073504E+02  0.51100000000E-03 0.  1.
        -11    1    3    3    0    0 -0.97182606585E+00 -0.94998218904E+01 -0.19814643183E+02  0.21995707458E+02  0.51100000000E-03 0. -1.
        -12    1    3    3    0    0  0.19440286475E-01 -0.12253299988E+01 -0.11042744145E+02  0.11110535981E+02  0.00000000000E+00 0.  1.
</event>
<event>
 7    1  0.5743890E-009  0.4614232E+02  0.7816164E-02  0.1320468E+00
        -11   -1    0    0    0    0  0.00000000000E+00  0.00000000000E+00  0.45593999997E+02  0.45594000000E+02  0.51100000000E-03 0. -1.
         11   -1    0    0    0    0 -0.00000000000E+00 -0.00000000000E+00 -0.45593999997E+02  0.45594000000E+02  0.51100000000E-03 0.  1.
    9900012    2    1    2    0    0 -0.27135644060E+02 -0.13667467075E+02 -0.33256139446E+02  0.46142316015E+02  0.99999840761E+01 0.  0.
         12    1    1    2    0    0  0.27135644060E+02  0.13667467075E+02  0.33256139446E+02  0.45045683985E+02  0.00000000000E+00 0. -1.
         11    1    3    3    0    0 -0.93508148120E+01 -0.48439344910E+01 -0.70487790132E+01  0.12672281753E+02  0.51100000000E-03 0. -1.
        -11    1    3    3    0    0 -0.44629482120E+01 -0.44814498473E+01 -0.11705962001E+02  0.13305293913E+02  0.51100000000E-03 0.  1.
         12    1    3    3    0    0 -0.13321881036E+02 -0.43420827370E+01 -0.14501398432E+02  0.20164740349E+02  0.00000000000E+00 0. -1.
</event>
<event>
 7    1  0.5743890E-009  0.4614232E+02  0.7816164E-02  0.1320468E+00
        -11   -1    0    0    0    0  0.00000000000E+00  0.00000000000E+00  0.45593999997E+02  0.45594000000E+02  0.51100000000E-03 0.  1.
         11   -1    0    0    0    0 -0.00000000000E+00 -0.00000000000E+00 -0.45593999997E+02  0.45594000000E+02  0.51100000000E-03 0. -1.
    9900012    2    1    2    0    0 -0.34310084266E+02  0.22955583204E+02 -0.18027005501E+02  0.46142316412E+02  0.99999876989E+01 0.  0.
         12    1    1    2    0    0  0.34310084266E+02 -0.22955583204E+02  0.18027005501E+02  0.45045683588E+02  0.00000000000E+00 0. -1.
         11    1    3    3    0    0 -0.21908469151E+01  0.26503829503E+01 -0.11814677153E+01  0.36359601500E+01  0.51100000000E-03 0. -1.
        -11    1    3    3    0    0 -0.18052626171E+01  0.41851904864E+01 -0.31577629150E+01  0.55449309655E+01  0.51100000000E-03 0.  1.
        -12    1    3    3    0    0 -0.30313974734E+02  0.16120009767E+02 -0.13687774871E+02  0.36961425297E+02  0.00000000000E+00 0.  1.
</event>
<event>
 7    1  0.5743890E-009  0.4614232E+02  0.7816164E-02  0.1320468E+00
        -11   -1    0    0    0    0  0.00000000000E+00  0.00000000000E+00  0.45593999997E+02  0.45594000000E+02  0.51100000000E-03 0. -1.
         11   -1    0    0    0    0 -0.00000000000E+00 -0.00000000000E+00 -0.45593999997E+02  0.45594000000E+02  0.51100000000E-03 0.  1.
    9900012    2    1    2    0    0  0.17284461669E+02  0.44659138925E+01 -0.41357181624E+02  0.46142317921E+02  0.10000001459E+02 0.  0.
         12    1    1    2    0    0 -0.17284461669E+02 -0.44659138925E+01  0.41357181624E+02  0.45045682079E+02  0.00000000000E+00 0. -1.
         11    1    3    3    0    0  0.32061134930E+00  0.88289026389E+00 -0.52394916009E+01  0.53230216374E+01  0.51100000000E-03 0. -1.
        -11    1    3    3    0    0  0.11439684668E+02  0.47282070201E+01 -0.30224441813E+02  0.32660973808E+02  0.51100000000E-03 0.  1.
         12    1    3    3    0    0  0.55241656524E+01 -0.11451833915E+01 -0.58932482103E+01  0.81583224760E+01  0.00000000000E+00 0. -1.
</event>
<event>
 7    1  0.5743890E-009  0.4614232E+02  0.7816164E-02  0.1320468E+00
        -11   -1    0    0    0    0  0.00000000000E+00  0.00000000000E+00  0.45593999997E+02  0.45594000000E+02  0.51100000000E-03 0. -1.
         11   -1    0    0    0    0 -0.00000000000E+00 -0.00000000000E+00 -0.45593999997E+02  0.45594000000E+02  0.51100000000E-03 0.  1.
    9900012    2    1    2    0    0  0.19760359193E+02  0.21851251920E+02  0.34075863867E+02  0.46142317586E+02  0.99999983995E+01 0.  0.
        -12    1    1    2    0    0 -0.19760359193E+02 -0.21851251920E+02 -0.34075863867E+02  0.45045682414E+02  0.00000000000E+00 0.  1.
         11    1    3    3    0    0  0.11364038014E+02  0.15298565859E+02  0.18386582784E+02  0.26481199068E+02  0.51100000000E-03 0. -1.
        -11    1    3    3    0    0  0.49676524261E+01  0.12610787241E+01  0.96685226562E+01  0.10942953020E+02  0.51100000000E-03 0.  1.
        -12    1    3    3    0    0  0.34286687535E+01  0.52916073369E+01  0.60207584262E+01  0.87181654983E+01  0.00000000000E+00 0.  1.
</event>
<event>
 7    1  0.5743890E-009  0.4614232E+02  0.7816164E-02  0.1320468E+00
        -11   -1    0    0    0    0  0.00000000000E+00  0.00000000000E+00  0.45593999997E+02  0.45594000000E+02  0.51100000000E-03 0. -1.
         11   -1    0    0    0    0 -0.00000000000E+00 -0.00000000000E+00 -0.45593999997E+02  0.45594000000E+02  0.51100000000E-03 0.  1.
    9900012    2    1    2    0    0 -0.11917659138E+02  0.20284757977E+02 -0.38413688426E+02  0.46142318032E+02  0.10000002467E+02 0.  0.
         12    1    1    2    0    0  0.11917659138E+02 -0.20284757977E+02  0.38413688426E+02  0.45045681968E+02  0.00000000000E+00 0. -1.
         11    1    3    3    0    0  0.90688383403E+00  0.28045674037E+01 -0.64545129833E+01  0.70956870508E+01  0.51100000000E-03 0. -1.
        -11    1    3    3    0    0 -0.12093783716E+02  0.16641185513E+02 -0.31867089668E+02  0.37930199894E+02  0.51100000000E-03 0.  1.
        -12    1    3    3    0    0 -0.73075925614E+00  0.83900505984E+00 -0.92085774550E-01  0.11164310864E+01  0.00000000000E+00 0.  1.
</event>
<event>
 7    1  0.5743890E-009  0.4614232E+02  0.7816164E-02  0.1320468E+00
        -11   -1    0    0    0    0  0.00000000000E+00  0.00000000000E+00  0.45593999997E+02  0.45594000000E+02  0.51100000000E-03 0. -1.
         11   -1    0    0    0    0 -0.00000000000E+00 -0.00000000000E+00 -0.45593999997E+02  0.45594000000E+02  0.51100000000E-03 0.  1.
    9900012    2    1    2    0    0  0.35314870390E+02  0.15147628884E+02 -0.23505798720E+02  0.46142319797E+02  0.10000018565E+02 0.  0.
         12    1    1    2    0    0 -0.35314870390E+02 -0.15147628884E+02  0.23505798720E+02  0.45045680203E+02  0.00000000000E+00 0. -1.
         11    1    3    3    0    0  0.22605858513E+01  0.31308879461E+01 -0.20312800074E+01  0.43633480782E+01  0.51100000000E-03 0. -1.
        -11    1    3    3    0    0  0.96161142981E+01  0.49042805856E+01 -0.10062927940E+02  0.14757511350E+02  0.51100000000E-03 0.  1.
        -12    1    3    3    0    0  0.23438170241E+02  0.71124603525E+01 -0.11411590773E+02  0.27021460369E+02  0.00000000000E+00 0.  1.
</event>
<event>
 7    1  0.5743890E-009  0.4614232E+02  0.7816164E-02  0.1320468E+00
        -11   -1    0    0    0    0  0.00000000000E+00  0.00000000000E+00  0.45593999997E+02  0.45594000000E+02  0.51100000000E-03 0. -1.
         11   -1    0    0    0    0 -0.00000000000E+00 -0.00000000000E+00 -0.45593999997E+02  0.45594000000E+02  0.51100000000E-03 0.  1.
    9900012    2    1    2    0    0  0.82846106835E+01  0.11439106694E+02 -0.42774124156E+02  0.46142316151E+02  0.99999853167E+01 0.  0.
         12    1    1    2    0    0 -0.82846106835E+01 -0.11439106694E+02  0.42774124156E+02  0.45045683849E+02  0.00000000000E+00 0. -1.
         11    1    3    3    0    0  0.34451558339E+00 -0.56494395431E-01 -0.18040232194E+01  0.18374935758E+01  0.51100000000E-03 0. -1.
        -11    1    3    3    0    0  0.83147112057E+01  0.50256770890E+01 -0.18205476146E+02  0.20635678196E+02  0.51100000000E-03 0.  1.
         12    1    3    3    0    0 -0.37461610554E+00  0.64699240001E+01 -0.22764624791E+02  0.23669144379E+02  0.00000000000E+00 0. -1.
</event>
<event>
 7    1  0.5743890E-009  0.4614232E+02  0.7816164E-02  0.1320468E+00
        -11   -1    0    0    0    0  0.00000000000E+00  0.00000000000E+00  0.45593999997E+02  0.45594000000E+02  0.51100000000E-03 0. -1.
         11   -1    0    0    0    0 -0.00000000000E+00 -0.00000000000E+00 -0.45593999997E+02  0.45594000000E+02  0.51100000000E-03 0.  1.
    9900012    2    1    2    0    0  0.73925033050E+01  0.16319424890E+02 -0.41329659727E+02  0.46142317554E+02  0.99999981110E+01 0.  0.
         12    1    1    2    0    0 -0.73925033050E+01 -0.16319424890E+02  0.41329659727E+02  0.45045682446E+02  0.00000000000E+00 0. -1.
         11    1    3    3    0    0  0.20557802303E-01  0.68644327564E+01 -0.98007225915E+01  0.11965576596E+02  0.51100000000E-03 0. -1.
        -11    1    3    3    0    0  0.81816524028E+01  0.76124127375E+01 -0.26499673544E+02  0.28759710742E+02  0.51100000000E-03 0.  1.
        -12    1    3    3    0    0 -0.80970690010E+00  0.18425793956E+01 -0.50292635917E+01  0.54170302166E+01  0.00000000000E+00 0.  1.
</event>
<event>
 7    1  0.5743890E-009  0.4614232E+02  0.7816164E-02  0.1320468E+00
        -11   -1    0    0    0    0  0.00000000000E+00  0.00000000000E+00  0.45593999997E+02  0.45594000000E+02  0.51100000000E-03 0. -1.
         11   -1    0    0    0    0 -0.00000000000E+00 -0.00000000000E+00 -0.45593999997E+02  0.45594000000E+02  0.51100000000E-03 0.  1.
    9900012    2    1    2    0    0 -0.44607097619E+02 -0.32252346747E+01 -0.53775709774E+01  0.46142316896E+02  0.99999921142E+01 0.  0.
         12    1    1    2    0    0  0.44607097619E+02  0.32252346747E+01  0.53775709774E+01  0.45045683104E+02  0.00000000000E+00 0. -1.
         11    1    3    3    0    0 -0.54112601594E+01 -0.24960513229E+01 -0.23040708965E+01  0.63891119631E+01  0.51100000000E-03 0. -1.
        -11    1    3    3    0    0 -0.16253988343E+02  0.23107353109E+01 -0.24763165631E+01  0.16603125571E+02  0.51100000000E-03 0.  1.
         12    1    3    3    0    0 -0.22941849116E+02 -0.30399186627E+01 -0.59718351780E+00  0.23150079362E+02  0.00000000000E+00 0. -1.
</event>
<event>
 7    1  0.5743890E-009  0.4614232E+02  0.7816164E-02  0.1320468E+00
        -11   -1    0    0    0    0  0.00000000000E+00  0.00000000000E+00  0.45593999997E+02  0.45594000000E+02  0.51100000000E-03 0. -1.
         11   -1    0    0    0    0 -0.00000000000E+00 -0.00000000000E+00 -0.45593999997E+02  0.45594000000E+02  0.51100000000E-03 0.  1.
    9900012    2    1    2    0    0  0.30757992161E+02 -0.30877536473E+02 -0.11385826557E+02  0.46142318889E+02  0.10000010281E+02 0.  0.
         12    1    1    2    0    0 -0.30757992161E+02  0.30877536473E+02  0.11385826557E+02  0.45045681111E+02  0.00000000000E+00 0. -1.
         11    1    3    3    0    0  0.64759944628E+01 -0.54393636510E+01 -0.26807125613E+01  0.88719446181E+01  0.51100000000E-03 0. -1.
        -11    1    3    3    0    0  0.70467177347E+01 -0.28538884317E+01 -0.35751157069E+01  0.84013310012E+01  0.51100000000E-03 0.  1.
         12    1    3    3    0    0  0.17235279964E+02 -0.22584284390E+02 -0.51299982886E+01  0.28869043269E+02  0.00000000000E+00 0. -1.
</event>
<event>
 7    1  0.5743890E-009  0.4614232E+02  0.7816164E-02  0.1320468E+00
        -11   -1    0    0    0    0  0.00000000000E+00  0.00000000000E+00  0.45593999997E+02  0.45594000000E+02  0.51100000000E-03 0. -1.
         11   -1    0    0    0    0 -0.00000000000E+00 -0.00000000000E+00 -0.45593999997E+02  0.45594000000E+02  0.51100000000E-03 0.  1.
    9900012    2    1    2    0    0  0.25063748334E+02  0.24879363949E+01 -0.37346113783E+02  0.46142317380E+02  0.99999965211E+01 0.  0.
         12    1    1    2    0    0 -0.25063748334E+02 -0.24879363949E+01  0.37346113783E+02  0.45045682620E+02  0.00000000000E+00 0. -1.
         11    1    3    3    0    0  0.48130768610E+00 -0.38348848515E+00  0.14158210751E+00  0.63147942265E+00  0.51100000000E-03 0. -1.
        -11    1    3    3    0    0  0.14335624231E+02  0.51770418289E+01 -0.23707725774E+02  0.28184537353E+02  0.51100000000E-03 0.  1.
         12    1    3    3    0    0  0.10246816417E+02 -0.23056169489E+01 -0.13779970117E+02  0.17326300604E+02  0.00000000000E+00 0. -1.
</event>
<event>
 7    1  0.5743890E-009  0.4614232E+02  0.7816164E-02  0.1320468E+00
        -11   -1    0    0    0    0  0.00000000000E+00  0.00000000000E+00  0.45593999997E+02  0.45594000000E+02  0.51100000000E-03 0. -1.
         11   -1    0    0    0    0 -0.00000000000E+00 -0.00000000000E+00 -0.45593999997E+02  0.45594000000E+02  0.51100000000E-03 0.  1.
    9900012    2    1    2    0    0  0.16546365768E+01  0.24060233625E+01 -0.44950937263E+02  0.46142317282E+02  0.99999956356E+01 0.  0.
         12    1    1    2    0    0 -0.16546365768E+01 -0.24060233625E+01  0.44950937263E+02  0.45045682718E+02  0.00000000000E+00 0. -1.
         11    1    3    3    0    0 -0.74821693749E+00  0.32599515775E+00 -0.13810086548E+02  0.13834182020E+02  0.51100000000E-03 0.  1.
        -11    1    3    3    0    0  0.15327445195E+00 -0.17671089990E+01 -0.14678525595E+01  0.23023376533E+01  0.51100000000E-03 0. -1.
         12    1    3    3    0    0  0.22495790624E+01  0.38471372038E+01 -0.29672998156E+02  0.30005797610E+02  0.00000000000E+00 0. -1.
</event>
<event>
 7    1  0.5743890E-009  0.4614232E+02  0.7816164E-02  0.1320468E+00
        -11   -1    0    0    0    0  0.00000000000E+00  0.00000000000E+00  0.45593999997E+02  0.45594000000E+02  0.51100000000E-03 0. -1.
         11   -1    0    0    0    0 -0.00000000000E+00 -0.00000000000E+00 -0.45593999997E+02  0.45594000000E+02  0.51100000000E-03 0.  1.
    9900012    2    1    2    0    0 -0.34214481390E+02  0.36924490631E+01  0.29066278415E+02  0.46142318101E+02  0.10000003097E+02 0.  0.
        -12    1    1    2    0    0  0.34214481390E+02 -0.36924490631E+01 -0.29066278415E+02  0.45045681899E+02  0.00000000000E+00 0.  1.
         11    1    3    3    0    0 -0.19533909659E+01 -0.29389842642E-01  0.46456178704E+01  0.50396791254E+01  0.51100000000E-03 0. -1.
        -11    1    3    3    0    0 -0.14852831432E+01  0.36492602769E+00 -0.20687432657E+00  0.15433840317E+01  0.51100000000E-03 0.  1.
         12    1    3    3    0    0 -0.30775807281E+02  0.33569128781E+01  0.24627534871E+02  0.39559254944E+02  0.00000000000E+00 0. -1.
</event>
<event>
 7    1  0.5743890E-009  0.4614232E+02  0.7816164E-02  0.1320468E+00
        -11   -1    0    0    0    0  0.00000000000E+00  0.00000000000E+00  0.45593999997E+02  0.45594000000E+02  0.51100000000E-03 0. -1.
         11   -1    0    0    0    0 -0.00000000000E+00 -0.00000000000E+00 -0.45593999997E+02  0.45594000000E+02  0.51100000000E-03 0.  1.
    9900012    2    1    2    0    0  0.13829114061E+02 -0.41639938220E+02  0.10197280195E+02  0.46142319030E+02  0.10000011570E+02 0.  0.
        -12    1    1    2    0    0 -0.13829114061E+02  0.41639938220E+02 -0.10197280195E+02  0.45045680970E+02  0.00000000000E+00 0.  1.
         11    1    3    3    0    0  0.46070064677E+01 -0.18819349409E+02  0.20251316165E+01  0.19480594937E+02  0.51100000000E-03 0. -1.
        -11    1    3    3    0    0  0.85744575276E+01 -0.16187483686E+02  0.38503877068E+01  0.18718478457E+02  0.51100000000E-03 0.  1.
        -12    1    3    3    0    0  0.64765006535E+00 -0.66331051249E+01  0.43217608716E+01  0.79432456361E+01  0.00000000000E+00 0.  1.
</event>
<event>
 7    1  0.5743890E-009  0.4614232E+02  0.7816164E-02  0.1320468E+00
        -11   -1    0    0    0    0  0.00000000000E+00  0.00000000000E+00  0.45593999997E+02  0.45594000000E+02  0.51100000000E-03 0. -1.
         11   -1    0    0    0    0 -0.00000000000E+00 -0.00000000000E+00 -0.45593999997E+02  0.45594000000E+02  0.51100000000E-03 0.  1.
    9900012    2    1    2    0    0 -0.33394038434E+02 -0.18065602710E+02 -0.24240169279E+02  0.46142316401E+02  0.99999876008E+01 0.  0.
         12    1    1    2    0    0  0.33394038434E+02  0.18065602710E+02  0.24240169279E+02  0.45045683599E+02  0.00000000000E+00 0. -1.
         11    1    3    3    0    0 -0.55481362222E+01  0.66602733152E-01 -0.31134775951E+01  0.63623890530E+01  0.51100000000E-03 0. -1.
        -11    1    3    3    0    0 -0.12595435250E+02 -0.59749370497E+01 -0.11275661169E+02  0.17930013858E+02  0.51100000000E-03 0.  1.
        -12    1    3    3    0    0 -0.15250466961E+02 -0.12157268394E+02 -0.98510305146E+01  0.21849913490E+02  0.00000000000E+00 0.  1.
</event>
<event>
 7    1  0.5743890E-009  0.4614232E+02  0.7816164E-02  0.1320468E+00
        -11   -1    0    0    0    0  0.00000000000E+00  0.00000000000E+00  0.45593999997E+02  0.45594000000E+02  0.51100000000E-03 0. -1.
         11   -1    0    0    0    0 -0.00000000000E+00 -0.00000000000E+00 -0.45593999997E+02  0.45594000000E+02  0.51100000000E-03 0.  1.
    9900012    2    1    2    0    0  0.48961257003E+01  0.23913852485E+02 -0.37858539171E+02  0.46142319012E+02  0.10000011405E+02 0.  0.
         12    1    1    2    0    0 -0.48961257003E+01 -0.23913852485E+02  0.37858539171E+02  0.45045680988E+02  0.00000000000E+00 0. -1.
         11    1    3    3    0    0 -0.27772739077E+01  0.42231735256E+01 -0.62057773223E+01  0.80037564569E+01  0.51100000000E-03 0. -1.
        -11    1    3    3    0    0  0.50119968565E+01  0.11610852241E+02 -0.16884857178E+02  0.21095743752E+02  0.51100000000E-03 0.  1.
        -12    1    3    3    0    0  0.26614027515E+01  0.80798267182E+01 -0.14767904671E+02  0.17042818803E+02  0.00000000000E+00 0.  1.
</event>
<event>
 7    1  0.5743890E-009  0.4614232E+02  0.7816164E-02  0.1320468E+00
        -11   -1    0    0    0    0  0.00000000000E+00  0.00000000000E+00  0.45593999997E+02  0.45594000000E+02  0.51100000000E-03 0. -1.
         11   -1    0    0    0    0 -0.00000000000E+00 -0.00000000000E+00 -0.45593999997E+02  0.45594000000E+02  0.51100000000E-03 0.  1.
    9900012    2    1    2    0    0 -0.16528349705E+02  0.24790712914E+02 -0.33783837907E+02  0.46142317693E+02  0.99999993825E+01 0.  0.
         12    1    1    2    0    0  0.16528349705E+02 -0.24790712914E+02  0.33783837907E+02  0.45045682307E+02  0.00000000000E+00 0. -1.
         11    1    3    3    0    0 -0.27103321742E+01  0.67582674253E+01 -0.12650548045E+02  0.14596453172E+02  0.51100000000E-03 0. -1.
        -11    1    3    3    0    0 -0.99110218790E+01  0.85135045455E+01 -0.10644698093E+02  0.16852825048E+02  0.51100000000E-03 0.  1.
         12    1    3    3    0    0 -0.39069956523E+01  0.95189409430E+01 -0.10488591768E+02  0.14693039474E+02  0.00000000000E+00 0. -1.
</event>
<event>
 7    1  0.5743890E-009  0.4614232E+02  0.7816164E-02  0.1320468E+00
        -11   -1    0    0    0    0  0.00000000000E+00  0.00000000000E+00  0.45593999997E+02  0.45594000000E+02  0.51100000000E-03 0.  1.
         11   -1    0    0    0    0 -0.00000000000E+00 -0.00000000000E+00 -0.45593999997E+02  0.45594000000E+02  0.51100000000E-03 0. -1.
    9900012    2    1    2    0    0 -0.27123156755E+02 -0.29798717329E+02 -0.20136640648E+02  0.46142317816E+02  0.10000000501E+02 0.  0.
        -12    1    1    2    0    0  0.27123156755E+02  0.29798717329E+02  0.20136640648E+02  0.45045682184E+02  0.00000000000E+00 0.  1.
         11    1    3    3    0    0 -0.69874848756E+01 -0.57680909576E+01 -0.13075423199E+01  0.91545335960E+01  0.51100000000E-03 0.  1.
        -11    1    3    3    0    0 -0.11784573809E+02 -0.14016640631E+02 -0.77790150408E+01  0.19896116951E+02  0.51100000000E-03 0. -1.
        -12    1    3    3    0    0 -0.83510980706E+01 -0.10013985741E+02 -0.11050083287E+02  0.17091667269E+02  0.00000000000E+00 0.  1.
</event>
<event>
 7    1  0.5743890E-009  0.4614232E+02  0.7816164E-02  0.1320468E+00
        -11   -1    0    0    0    0  0.00000000000E+00  0.00000000000E+00  0.45593999997E+02  0.45594000000E+02  0.51100000000E-03 0.  1.
         11   -1    0    0    0    0 -0.00000000000E+00 -0.00000000000E+00 -0.45593999997E+02  0.45594000000E+02  0.51100000000E-03 0. -1.
    9900012    2    1    2    0    0  0.17534615185E+02  0.40064295004E+02  0.10793658891E+02  0.46142317231E+02  0.99999951673E+01 0.  0.
        -12    1    1    2    0    0 -0.17534615185E+02 -0.40064295004E+02 -0.10793658891E+02  0.45045682769E+02  0.00000000000E+00 0.  1.
         11    1    3    3    0    0  0.15752220954E+01  0.11028106487E+02  0.44848071167E+01  0.12008911377E+02  0.51100000000E-03 0. -1.
        -11    1    3    3    0    0  0.53273384295E+01  0.10187642461E+02  0.47429145376E+01  0.12436391448E+02  0.51100000000E-03 0.  1.
         12    1    3    3    0    0  0.10632054660E+02  0.18848546056E+02  0.15659372366E+01  0.21697014406E+02  0.00000000000E+00 0. -1.
</event>
<event>
 7    1  0.5743890E-009  0.4614232E+02  0.7816164E-02  0.1320468E+00
        -11   -1    0    0    0    0  0.00000000000E+00  0.00000000000E+00  0.45593999997E+02  0.45594000000E+02  0.51100000000E-03 0. -1.
         11   -1    0    0    0    0 -0.00000000000E+00 -0.00000000000E+00 -0.45593999997E+02  0.45594000000E+02  0.51100000000E-03 0.  1.
    9900012    2    1    2    0    0 -0.18628618985E+02  0.39002258509E+02 -0.12685102200E+02  0.46142318387E+02  0.10000005711E+02 0.  0.
         12    1    1    2    0    0  0.18628618985E+02 -0.39002258509E+02  0.12685102200E+02  0.45045681613E+02  0.00000000000E+00 0. -1.
         11    1    3    3    0    0 -0.14524903827E+01  0.10933929085E+02 -0.44686744543E+01  0.11900822878E+02  0.51100000000E-03 0. -1.
        -11    1    3    3    0    0 -0.35087119988E+01  0.67093618869E+01  0.46789185966E-01  0.75715775310E+01  0.51100000000E-03 0.  1.
        -12    1    3    3    0    0 -0.13667416604E+02  0.21358967538E+02 -0.82632169319E+01  0.26669917978E+02  0.00000000000E+00 0.  1.
</event>
<event>
 7    1  0.5743890E-009  0.4614232E+02  0.7816164E-02  0.1320468E+00
        -11   -1    0    0    0    0  0.00000000000E+00  0.00000000000E+00  0.45593999997E+02  0.45594000000E+02  0.51100000000E-03 0. -1.
         11   -1    0    0    0    0 -0.00000000000E+00 -0.00000000000E+00 -0.45593999997E+02  0.45594000000E+02  0.51100000000E-03 0.  1.
    9900012    2    1    2    0    0  0.28442893142E+02 -0.23367053669E+02  0.25963363930E+02  0.46142316144E+02  0.99999852533E+01 0.  0.
        -12    1    1    2    0    0 -0.28442893142E+02  0.23367053669E+02 -0.25963363930E+02  0.45045683856E+02  0.00000000000E+00 0.  1.
         11    1    3    3    0    0  0.79289113287E+01 -0.64477324226E+01  0.59956068505E+01  0.11848552233E+02  0.51100000000E-03 0. -1.
        -11    1    3    3    0    0  0.60824729999E+01 -0.62641641083E+00  0.45055082183E+01  0.75952932715E+01  0.51100000000E-03 0.  1.
        -12    1    3    3    0    0  0.14431508814E+02 -0.16292904836E+02  0.15462248861E+02  0.26698470639E+02  0.00000000000E+00 0.  1.
</event>
<event>
 7    1  0.5743890E-009  0.4614232E+02  0.7816164E-02  0.1320468E+00
        -11   -1    0    0    0    0  0.00000000000E+00  0.00000000000E+00  0.45593999997E+02  0.45594000000E+02  0.51100000000E-03 0. -1.
         11   -1    0    0    0    0 -0.00000000000E+00 -0.00000000000E+00 -0.45593999997E+02  0.45594000000E+02  0.51100000000E-03 0.  1.
    9900012    2    1    2    0    0  0.29818520244E+02  0.25537755678E+02  0.22086021880E+02  0.46142317886E+02  0.10000001142E+02 0.  0.
        -12    1    1    2    0    0 -0.29818520244E+02 -0.25537755678E+02 -0.22086021880E+02  0.45045682114E+02  0.00000000000E+00 0.  1.
         11    1    3    3    0    0  0.13214381242E+02  0.66267529533E+01  0.96489301230E+01  0.17653203083E+02  0.51100000000E-03 0. -1.
        -11    1    3    3    0    0  0.21030961178E+01  0.38402165724E+01  0.49713735336E+00  0.44065204428E+01  0.51100000000E-03 0.  1.
         12    1    3    3    0    0  0.14501042884E+02  0.15070786152E+02  0.11939954404E+02  0.24082594361E+02  0.00000000000E+00 0. -1.
</event>
<event>
 7    1  0.5743890E-009  0.4614232E+02  0.7816164E-02  0.1320468E+00
        -11   -1    0    0    0    0  0.00000000000E+00  0.00000000000E+00  0.45593999997E+02  0.45594000000E+02  0.51100000000E-03 0. -1.
         11   -1    0    0    0    0 -0.00000000000E+00 -0.00000000000E+00 -0.45593999997E+02  0.45594000000E+02  0.51100000000E-03 0.  1.
    9900012    2    1    2    0    0 -0.14255900228E+02  0.42544642235E+02  0.39794939604E+01  0.46142316007E+02  0.99999840051E+01 0.  0.
        -12    1    1    2    0    0  0.14255900228E+02 -0.42544642235E+02 -0.39794939604E+01  0.45045683993E+02  0.00000000000E+00 0.  1.
         11    1    3    3    0    0 -0.18060959439E+01  0.58017248776E+00 -0.26203777666E+00  0.19150056740E+01  0.51100000000E-03 0.  1.
        -11    1    3    3    0    0 -0.94896727390E+00  0.96945456343E+01  0.15527010933E+01  0.98638549710E+01  0.51100000000E-03 0. -1.
        -12    1    3    3    0    0 -0.11500837010E+02  0.32269924113E+02  0.26888306438E+01  0.34363455362E+02  0.00000000000E+00 0.  1.
</event>
<event>
 7    1  0.5743890E-009  0.4614232E+02  0.7816164E-02  0.1320468E+00
        -11   -1    0    0    0    0  0.00000000000E+00  0.00000000000E+00  0.45593999997E+02  0.45594000000E+02  0.51100000000E-03 0. -1.
         11   -1    0    0    0    0 -0.00000000000E+00 -0.00000000000E+00 -0.45593999997E+02  0.45594000000E+02  0.51100000000E-03 0.  1.
    9900012    2    1    2    0    0  0.63471010588E+01 -0.22831889170E+02  0.38308388874E+02  0.46142317487E+02  0.99999974997E+01 0.  0.
        -12    1    1    2    0    0 -0.63471010588E+01  0.22831889170E+02 -0.38308388874E+02  0.45045682513E+02  0.00000000000E+00 0.  1.
         11    1    3    3    0    0  0.14104006343E+01 -0.63721213345E+01  0.15648534842E+02  0.16954934480E+02  0.51100000000E-03 0. -1.
        -11    1    3    3    0    0  0.11313349743E+00  0.30365943310E+00  0.25319279483E+01  0.25525805837E+01  0.51100000000E-03 0.  1.
         12    1    3    3    0    0  0.48235669270E+01 -0.16763427269E+02  0.20127926084E+02  0.26634802423E+02  0.00000000000E+00 0. -1.
</event>
<event>
 7    1  0.5743890E-009  0.4614232E+02  0.7816164E-02  0.1320468E+00
        -11   -1    0    0    0    0  0.00000000000E+00  0.00000000000E+00  0.45593999997E+02  0.45594000000E+02  0.51100000000E-03 0. -1.
         11   -1    0    0    0    0 -0.00000000000E+00 -0.00000000000E+00 -0.45593999997E+02  0.45594000000E+02  0.51100000000E-03 0.  1.
    9900012    2    1    2    0    0 -0.34739800112E+02  0.25661435075E+02  0.12796504454E+02  0.46142317763E+02  0.10000000017E+02 0.  0.
        -12    1    1    2    0    0  0.34739800112E+02 -0.25661435075E+02 -0.12796504454E+02  0.45045682237E+02  0.00000000000E+00 0.  1.
         11    1    3    3    0    0 -0.10554382257E+02  0.10995657947E+02  0.30459123242E+01  0.15542749457E+02  0.51100000000E-03 0. -1.
        -11    1    3    3    0    0 -0.45468541044E+01  0.54064182282E+01  0.77897687137E+00  0.71070419678E+01  0.51100000000E-03 0.  1.
        -12    1    3    3    0    0 -0.19638563751E+02  0.92593588998E+01  0.89716152582E+01  0.23492526339E+02  0.00000000000E+00 0.  1.
</event>
<event>
 7    1  0.5743890E-009  0.4614232E+02  0.7816164E-02  0.1320468E+00
        -11   -1    0    0    0    0  0.00000000000E+00  0.00000000000E+00  0.45593999997E+02  0.45594000000E+02  0.51100000000E-03 0. -1.
         11   -1    0    0    0    0 -0.00000000000E+00 -0.00000000000E+00 -0.45593999997E+02  0.45594000000E+02  0.51100000000E-03 0.  1.
    9900012    2    1    2    0    0 -0.49499018944E+01 -0.22000838033E+02 -0.38994552253E+02  0.46142317540E+02  0.99999979810E+01 0.  0.
         12    1    1    2    0    0  0.49499018944E+01  0.22000838033E+02  0.38994552253E+02  0.45045682460E+02  0.00000000000E+00 0. -1.
         11    1    3    3    0    0  0.22468469478E+00 -0.14538730269E+02 -0.18447971525E+02  0.23489419208E+02  0.51100000000E-03 0. -1.
        -11    1    3    3    0    0 -0.20437704499E+01 -0.34263810955E+01 -0.57420114694E+01  0.69919797654E+01  0.51100000000E-03 0.  1.
         12    1    3    3    0    0 -0.31308161393E+01 -0.40357266685E+01 -0.14804569258E+02  0.15660918567E+02  0.00000000000E+00 0. -1.
</event>
<event>
 7    1  0.5743890E-009  0.4614232E+02  0.7816164E-02  0.1320468E+00
        -11   -1    0    0    0    0  0.00000000000E+00  0.00000000000E+00  0.45593999997E+02  0.45594000000E+02  0.51100000000E-03 0. -1.
         11   -1    0    0    0    0 -0.00000000000E+00 -0.00000000000E+00 -0.45593999997E+02  0.45594000000E+02  0.51100000000E-03 0.  1.
    9900012    2    1    2    0    0 -0.15348212759E+02  0.22631930166E+02  0.35795832511E+02  0.46142317376E+02  0.99999964880E+01 0.  0.
        -12    1    1    2    0    0  0.15348212759E+02 -0.22631930166E+02 -0.35795832511E+02  0.45045682624E+02  0.00000000000E+00 0.  1.
         11    1    3    3    0    0 -0.28119998098E+01  0.15535792236E+01  0.34011936863E+01  0.46785756472E+01  0.51100000000E-03 0. -1.
        -11    1    3    3    0    0 -0.69020114746E+01  0.58839012137E+01  0.75487821199E+01  0.11800091849E+02  0.51100000000E-03 0.  1.
         12    1    3    3    0    0 -0.56342014747E+01  0.15194449729E+02  0.24845856705E+02  0.29663649880E+02  0.00000000000E+00 0. -1.
</event>
<event>
 7    1  0.5743890E-009  0.4614232E+02  0.7816164E-02  0.1320468E+00
        -11   -1    0    0    0    0  0.00000000000E+00  0.00000000000E+00  0.45593999997E+02  0.45594000000E+02  0.51100000000E-03 0. -1.
         11   -1    0    0    0    0 -0.00000000000E+00 -0.00000000000E+00 -0.45593999997E+02  0.45594000000E+02  0.51100000000E-03 0.  1.
    9900012    2    1    2    0    0  0.24314002729E+02  0.22902765407E+02  0.30222608743E+02  0.46142317952E+02  0.10000001736E+02 0.  0.
        -12    1    1    2    0    0 -0.24314002729E+02 -0.22902765407E+02 -0.30222608743E+02  0.45045682048E+02  0.00000000000E+00 0.  1.
         11    1    3    3    0    0  0.96116293407E+01  0.84458997976E+01  0.16385457930E+02  0.20789417351E+02  0.51100000000E-03 0. -1.
        -11    1    3    3    0    0 -0.22034168552E+00 -0.21411820736E+00  0.11299595153E+00  0.32736128557E+00  0.51100000000E-03 0.  1.
        -12    1    3    3    0    0  0.14922715074E+02  0.14670983817E+02  0.13724154861E+02  0.25025539315E+02  0.00000000000E+00 0.  1.
</event>
<event>
 7    1  0.5743890E-009  0.4614232E+02  0.7816164E-02  0.1320468E+00
        -11   -1    0    0    0    0  0.00000000000E+00  0.00000000000E+00  0.45593999997E+02  0.45594000000E+02  0.51100000000E-03 0. -1.
         11   -1    0    0    0    0 -0.00000000000E+00 -0.00000000000E+00 -0.45593999997E+02  0.45594000000E+02  0.51100000000E-03 0.  1.
    9900012    2    1    2    0    0 -0.24632849695E+01 -0.43447961774E+02  0.11632734362E+02  0.46142315813E+02  0.99999822366E+01 0.  0.
        -12    1    1    2    0    0  0.24632849695E+01  0.43447961774E+02 -0.11632734362E+02  0.45045684187E+02  0.00000000000E+00 0.  1.
         11    1    3    3    0    0 -0.11934202825E+01 -0.73362795811E+01  0.47865346483E+01  0.88405975060E+01  0.51100000000E-03 0. -1.
        -11    1    3    3    0    0  0.19663465981E+01 -0.25454808676E+02  0.47825900364E+01  0.25974737177E+02  0.51100000000E-03 0.  1.
        -12    1    3    3    0    0 -0.32362112850E+01 -0.10656873517E+02  0.20636096769E+01  0.11326981130E+02  0.00000000000E+00 0.  1.
</event>
<event>
 7    1  0.5743890E-009  0.4614232E+02  0.7816164E-02  0.1320468E+00
        -11   -1    0    0    0    0  0.00000000000E+00  0.00000000000E+00  0.45593999997E+02  0.45594000000E+02  0.51100000000E-03 0.  1.
         11   -1    0    0    0    0 -0.00000000000E+00 -0.00000000000E+00 -0.45593999997E+02  0.45594000000E+02  0.51100000000E-03 0. -1.
    9900012    2    1    2    0    0  0.28874647909E+02  0.14373863759E+02  0.31444561036E+02  0.46142315745E+02  0.99999816195E+01 0.  0.
         12    1    1    2    0    0 -0.28874647909E+02 -0.14373863759E+02 -0.31444561036E+02  0.45045684255E+02  0.00000000000E+00 0. -1.
         11    1    3    3    0    0  0.65827391034E+01  0.55502949413E+01  0.94085255418E+01  0.12753767333E+02  0.51100000000E-03 0. -1.
        -11    1    3    3    0    0  0.12990061756E+02  0.82866363621E+01  0.10926628302E+02  0.18889183490E+02  0.51100000000E-03 0.  1.
         12    1    3    3    0    0  0.93018470493E+01  0.53693245521E+00  0.11109407193E+02  0.14499364923E+02  0.00000000000E+00 0. -1.
</event>
<event>
 7    1  0.5743890E-009  0.4614232E+02  0.7816164E-02  0.1320468E+00
        -11   -1    0    0    0    0  0.00000000000E+00  0.00000000000E+00  0.45593999997E+02  0.45594000000E+02  0.51100000000E-03 0. -1.
         11   -1    0    0    0    0 -0.00000000000E+00 -0.00000000000E+00 -0.45593999997E+02  0.45594000000E+02  0.51100000000E-03 0.  1.
    9900012    2    1    2    0    0 -0.18616409314E+02 -0.11090853374E+02  0.39490958174E+02  0.46142317612E+02  0.99999986414E+01 0.  0.
        -12    1    1    2    0    0  0.18616409314E+02  0.11090853374E+02 -0.39490958174E+02  0.45045682388E+02  0.00000000000E+00 0.  1.
         11    1    3    3    0    0 -0.50053745090E+01 -0.22150123409E+01  0.53409664900E+01  0.76476125003E+01  0.51100000000E-03 0. -1.
        -11    1    3    3    0    0 -0.61672364332E+01 -0.29398232948E+01  0.72611203312E+01  0.99700167980E+01  0.51100000000E-03 0.  1.
         12    1    3    3    0    0 -0.74437983721E+01 -0.59360177380E+01  0.26888871353E+02  0.28524688314E+02  0.00000000000E+00 0. -1.
</event>
<event>
 7    1  0.5743890E-009  0.4614232E+02  0.7816164E-02  0.1320468E+00
        -11   -1    0    0    0    0  0.00000000000E+00  0.00000000000E+00  0.45593999997E+02  0.45594000000E+02  0.51100000000E-03 0. -1.
         11   -1    0    0    0    0 -0.00000000000E+00 -0.00000000000E+00 -0.45593999997E+02  0.45594000000E+02  0.51100000000E-03 0.  1.
    9900012    2    1    2    0    0 -0.72053543004E+01 -0.17677655011E+02  0.40800697756E+02  0.46142317026E+02  0.99999932922E+01 0.  0.
        -12    1    1    2    0    0  0.72053543004E+01  0.17677655011E+02 -0.40800697756E+02  0.45045682974E+02  0.00000000000E+00 0.  1.
         11    1    3    3    0    0 -0.36414155108E-01  0.69764777684E+00  0.53278987001E+01  0.53735038132E+01  0.51100000000E-03 0. -1.
        -11    1    3    3    0    0 -0.13973045403E+01 -0.86962002632E+00  0.33749425875E+01  0.37548550835E+01  0.51100000000E-03 0.  1.
         12    1    3    3    0    0 -0.57716356050E+01 -0.17505682762E+02  0.32097856468E+02  0.37013958129E+02  0.00000000000E+00 0. -1.
</event>
<event>
 7    1  0.5743890E-009  0.4614232E+02  0.7816164E-02  0.1320468E+00
        -11   -1    0    0    0    0  0.00000000000E+00  0.00000000000E+00  0.45593999997E+02  0.45594000000E+02  0.51100000000E-03 0.  1.
         11   -1    0    0    0    0 -0.00000000000E+00 -0.00000000000E+00 -0.45593999997E+02  0.45594000000E+02  0.51100000000E-03 0. -1.
    9900012    2    1    2    0    0 -0.32043978871E+02 -0.31493665997E+02  0.32320072245E+01  0.46142318182E+02  0.10000003835E+02 0.  0.
         12    1    1    2    0    0  0.32043978871E+02  0.31493665997E+02 -0.32320072245E+01  0.45045681818E+02  0.00000000000E+00 0. -1.
         11    1    3    3    0    0 -0.18300150938E+01  0.14831425344E+00  0.12947882007E+01  0.22466484164E+01  0.51100000000E-03 0. -1.
        -11    1    3    3    0    0 -0.19804830518E+02 -0.19945888540E+02 -0.85673616586E-01  0.28108310545E+02  0.51100000000E-03 0.  1.
        -12    1    3    3    0    0 -0.10409133259E+02 -0.11696091710E+02  0.20228926404E+01  0.15787359220E+02  0.00000000000E+00 0.  1.
</event>
<event>
 7    1  0.5743890E-009  0.4614232E+02  0.7816164E-02  0.1320468E+00
        -11   -1    0    0    0    0  0.00000000000E+00  0.00000000000E+00  0.45593999997E+02  0.45594000000E+02  0.51100000000E-03 0. -1.
         11   -1    0    0    0    0 -0.00000000000E+00 -0.00000000000E+00 -0.45593999997E+02  0.45594000000E+02  0.51100000000E-03 0.  1.
    9900012    2    1    2    0    0 -0.13466896447E+02  0.25348244298E+01  0.42910731385E+02  0.46142317601E+02  0.99999985359E+01 0.  0.
        -12    1    1    2    0    0  0.13466896447E+02 -0.25348244298E+01 -0.42910731385E+02  0.45045682399E+02  0.00000000000E+00 0.  1.
         11    1    3    3    0    0 -0.11849598668E+02  0.53533787528E+01  0.30624483609E+02  0.33270567312E+02  0.51100000000E-03 0. -1.
        -11    1    3    3    0    0  0.41168252487E+00 -0.22771847142E+00  0.25876685169E+01  0.26300887472E+01  0.51100000000E-03 0.  1.
         12    1    3    3    0    0 -0.20289803040E+01 -0.25908358515E+01  0.96985792591E+01  0.10241661541E+02  0.00000000000E+00 0. -1.
</event>
<event>
 7    1  0.5743890E-009  0.4614232E+02  0.7816164E-02  0.1320468E+00
        -11   -1    0    0    0    0  0.00000000000E+00  0.00000000000E+00  0.45593999997E+02  0.45594000000E+02  0.51100000000E-03 0. -1.
         11   -1    0    0    0    0 -0.00000000000E+00 -0.00000000000E+00 -0.45593999997E+02  0.45594000000E+02  0.51100000000E-03 0.  1.
    9900012    2    1    2    0    0 -0.29788205914E+02  0.18555173431E+00 -0.33789673904E+02  0.46142315372E+02  0.99999782179E+01 0.  0.
         12    1    1    2    0    0  0.29788205914E+02 -0.18555173431E+00  0.33789673904E+02  0.45045684628E+02  0.00000000000E+00 0. -1.
         11    1    3    3    0    0 -0.16078805651E+01  0.43392978948E+00 -0.52075358956E+00  0.17449239342E+01  0.51100000000E-03 0. -1.
        -11    1    3    3    0    0 -0.15093868951E+02  0.22167655021E+01 -0.12484921780E+02  0.19713249385E+02  0.51100000000E-03 0.  1.
         12    1    3    3    0    0 -0.13086456397E+02 -0.24651435573E+01 -0.20783998535E+02  0.24684142053E+02  0.00000000000E+00 0. -1.
</event>
<event>
 7    1  0.5743890E-009  0.4614232E+02  0.7816164E-02  0.1320468E+00
        -11   -1    0    0    0    0  0.00000000000E+00  0.00000000000E+00  0.45593999997E+02  0.45594000000E+02  0.51100000000E-03 0. -1.
         11   -1    0    0    0    0 -0.00000000000E+00 -0.00000000000E+00 -0.45593999997E+02  0.45594000000E+02  0.51100000000E-03 0.  1.
    9900012    2    1    2    0    0 -0.22765711527E+01 -0.26572214575E+02  0.36302177994E+02  0.46142317735E+02  0.99999997591E+01 0.  0.
        -12    1    1    2    0    0  0.22765711527E+01  0.26572214575E+02 -0.36302177994E+02  0.45045682265E+02  0.00000000000E+00 0.  1.
         11    1    3    3    0    0 -0.85557890636E+00 -0.30382710884E+01  0.82932765735E+01  0.88736431671E+01  0.51100000000E-03 0. -1.
        -11    1    3    3    0    0 -0.12365864150E+01 -0.20138145702E+02  0.19305635338E+02  0.27924570084E+02  0.51100000000E-03 0.  1.
        -12    1    3    3    0    0 -0.18440583135E+00 -0.33957977840E+01  0.87032660827E+01  0.93441044840E+01  0.00000000000E+00 0.  1.
</event>
<event>
 7    1  0.5743890E-009  0.4614232E+02  0.7816164E-02  0.1320468E+00
        -11   -1    0    0    0    0  0.00000000000E+00  0.00000000000E+00  0.45593999997E+02  0.45594000000E+02  0.51100000000E-03 0. -1.
         11   -1    0    0    0    0 -0.00000000000E+00 -0.00000000000E+00 -0.45593999997E+02  0.45594000000E+02  0.51100000000E-03 0.  1.
    9900012    2    1    2    0    0 -0.60647113851E+01 -0.14165646801E+02 -0.42328090601E+02  0.46142317328E+02  0.99999960475E+01 0.  0.
         12    1    1    2    0    0  0.60647113851E+01  0.14165646801E+02  0.42328090601E+02  0.45045682672E+02  0.00000000000E+00 0. -1.
         11    1    3    3    0    0 -0.34176269048E+01 -0.38645763604E+01 -0.13815603771E+02  0.14747407634E+02  0.51100000000E-03 0. -1.
        -11    1    3    3    0    0 -0.43255931194E+01 -0.51754162790E+01 -0.21591461112E+02  0.22620496959E+02  0.51100000000E-03 0.  1.
        -12    1    3    3    0    0  0.16785086391E+01 -0.51256541612E+01 -0.69210257189E+01  0.87744127344E+01  0.00000000000E+00 0.  1.
</event>
<event>
 7    1  0.5743890E-009  0.4614232E+02  0.7816164E-02  0.1320468E+00
        -11   -1    0    0    0    0  0.00000000000E+00  0.00000000000E+00  0.45593999997E+02  0.45594000000E+02  0.51100000000E-03 0.  1.
         11   -1    0    0    0    0 -0.00000000000E+00 -0.00000000000E+00 -0.45593999997E+02  0.45594000000E+02  0.51100000000E-03 0. -1.
    9900012    2    1    2    0    0  0.18735733461E+02 -0.39490357816E+02  0.10890242342E+02  0.46142318220E+02  0.10000004181E+02 0.  0.
        -12    1    1    2    0    0 -0.18735733461E+02  0.39490357816E+02 -0.10890242342E+02  0.45045681780E+02  0.00000000000E+00 0.  1.
         11    1    3    3    0    0  0.28855904241E+01 -0.80372466842E+01  0.46376533018E+01  0.97176023157E+01  0.51100000000E-03 0. -1.
        -11    1    3    3    0    0 -0.43106806573E+00 -0.35114241579E+01  0.83505148586E+00  0.36350007619E+01  0.51100000000E-03 0.  1.
         12    1    3    3    0    0  0.16281211103E+02 -0.27941686974E+02  0.54175375545E+01  0.32789715142E+02  0.00000000000E+00 0. -1.
</event>
<event>
 7    1  0.5743890E-009  0.4614232E+02  0.7816164E-02  0.1320468E+00
        -11   -1    0    0    0    0  0.00000000000E+00  0.00000000000E+00  0.45593999997E+02  0.45594000000E+02  0.51100000000E-03 0. -1.
         11   -1    0    0    0    0 -0.00000000000E+00 -0.00000000000E+00 -0.45593999997E+02  0.45594000000E+02  0.51100000000E-03 0.  1.
    9900012    2    1    2    0    0 -0.23031655829E+02  0.30604427604E+02  0.23707072983E+02  0.46142317980E+02  0.10000001998E+02 0.  0.
        -12    1    1    2    0    0  0.23031655829E+02 -0.30604427604E+02 -0.23707072983E+02  0.45045682020E+02  0.00000000000E+00 0.  1.
         11    1    3    3    0    0 -0.13076339555E+02  0.16871951336E+02  0.89636426469E+01  0.23151680021E+02  0.51100000000E-03 0. -1.
        -11    1    3    3    0    0 -0.19420189941E+01  0.35166896690E+01  0.11185373712E+01  0.41700923387E+01  0.51100000000E-03 0.  1.
         12    1    3    3    0    0 -0.80132972801E+01  0.10215786599E+02  0.13624892965E+02  0.18820545620E+02  0.00000000000E+00 0. -1.
</event>
<event>
 7    1  0.5743890E-009  0.4614232E+02  0.7816164E-02  0.1320468E+00
        -11   -1    0    0    0    0  0.00000000000E+00  0.00000000000E+00  0.45593999997E+02  0.45594000000E+02  0.51100000000E-03 0. -1.
         11   -1    0    0    0    0 -0.00000000000E+00 -0.00000000000E+00 -0.45593999997E+02  0.45594000000E+02  0.51100000000E-03 0.  1.
    9900012    2    1    2    0    0 -0.20706542691E+02  0.39138909890E+01 -0.39812486512E+02  0.46142317241E+02  0.99999952608E+01 0.  0.
         12    1    1    2    0    0  0.20706542691E+02 -0.39138909890E+01  0.39812486512E+02  0.45045682759E+02  0.00000000000E+00 0. -1.
         11    1    3    3    0    0 -0.85322005712E+00  0.93924346730E+00 -0.20276999799E+01  0.23920138433E+01  0.51100000000E-03 0. -1.
        -11    1    3    3    0    0 -0.19549110452E+02  0.11193340938E+01 -0.30641538726E+02  0.36363780387E+02  0.51100000000E-03 0.  1.
        -12    1    3    3    0    0 -0.30421218188E+00  0.18553134279E+01 -0.71432478066E+01  0.73865230111E+01  0.00000000000E+00 0.  1.
</event>
<event>
 7    1  0.5743890E-009  0.4614232E+02  0.7816164E-02  0.1320468E+00
        -11   -1    0    0    0    0  0.00000000000E+00  0.00000000000E+00  0.45593999997E+02  0.45594000000E+02  0.51100000000E-03 0. -1.
         11   -1    0    0    0    0 -0.00000000000E+00 -0.00000000000E+00 -0.45593999997E+02  0.45594000000E+02  0.51100000000E-03 0.  1.
    9900012    2    1    2    0    0 -0.34800999092E+02  0.15455362604E+01 -0.28558977704E+02  0.46142318435E+02  0.10000006148E+02 0.  0.
         12    1    1    2    0    0  0.34800999092E+02 -0.15455362604E+01  0.28558977704E+02  0.45045681565E+02  0.00000000000E+00 0. -1.
         11    1    3    3    0    0 -0.15139468623E+02  0.22169795017E+01 -0.73961555424E+01  0.16994752878E+02  0.51100000000E-03 0. -1.
        -11    1    3    3    0    0 -0.16813099878E+01  0.74856695124E-01 -0.37325543180E+01  0.40944314376E+01  0.51100000000E-03 0.  1.
        -12    1    3    3    0    0 -0.17980220481E+02 -0.74629993643E+00 -0.17430267843E+02  0.25053134120E+02  0.00000000000E+00 0.  1.
</event>
<event>
 7    1  0.5743890E-009  0.4614231E+02  0.7816164E-02  0.1320468E+00
        -11   -1    0    0    0    0  0.00000000000E+00  0.00000000000E+00  0.45593999997E+02  0.45594000000E+02  0.51100000000E-03 0. -1.
         11   -1    0    0    0    0 -0.00000000000E+00 -0.00000000000E+00 -0.45593999997E+02  0.45594000000E+02  0.51100000000E-03 0.  1.
    9900012    2    1    2    0    0  0.28170580032E+01  0.19337079271E+02 -0.40586393467E+02  0.46142314466E+02  0.99999699537E+01 0.  0.
         12    1    1    2    0    0 -0.28170580032E+01 -0.19337079271E+02  0.40586393467E+02  0.45045685534E+02  0.00000000000E+00 0. -1.
         11    1    3    3    0    0  0.80962466081E+00 -0.11130775727E+00  0.13792441251E+00  0.82879726888E+00  0.51100000000E-03 0. -1.
        -11    1    3    3    0    0  0.27691689778E+01  0.15401689049E+02 -0.30228315587E+02  0.34038674855E+02  0.51100000000E-03 0.  1.
         12    1    3    3    0    0 -0.76173563533E+00  0.40466979800E+01 -0.10496002293E+02  0.11274842342E+02  0.00000000000E+00 0. -1.
</event>
<event>
 7    1  0.5743890E-009  0.4614232E+02  0.7816164E-02  0.1320468E+00
        -11   -1    0    0    0    0  0.00000000000E+00  0.00000000000E+00  0.45593999997E+02  0.45594000000E+02  0.51100000000E-03 0. -1.
         11   -1    0    0    0    0 -0.00000000000E+00 -0.00000000000E+00 -0.45593999997E+02  0.45594000000E+02  0.51100000000E-03 0.  1.
    9900012    2    1    2    0    0  0.93832891711E+01  0.41522162495E+02  0.14730153747E+02  0.46142317373E+02  0.99999964613E+01 0.  0.
        -12    1    1    2    0    0 -0.93832891711E+01 -0.41522162495E+02 -0.14730153747E+02  0.45045682627E+02  0.00000000000E+00 0.  1.
         11    1    3    3    0    0  0.64088796203E+01  0.15752413424E+02  0.53426549363E+01  0.17825718181E+02  0.51100000000E-03 0. -1.
        -11    1    3    3    0    0  0.25561666851E+01  0.42991684203E+01  0.33804652266E+00  0.50130941485E+01  0.51100000000E-03 0.  1.
        -12    1    3    3    0    0  0.41824286566E+00  0.21470580651E+02  0.90494522876E+01  0.23303505043E+02  0.00000000000E+00 0.  1.
</event>
<event>
 7    1  0.5743890E-009  0.4614232E+02  0.7816164E-02  0.1320468E+00
        -11   -1    0    0    0    0  0.00000000000E+00  0.00000000000E+00  0.45593999997E+02  0.45594000000E+02  0.51100000000E-03 0. -1.
         11   -1    0    0    0    0 -0.00000000000E+00 -0.00000000000E+00 -0.45593999997E+02  0.45594000000E+02  0.51100000000E-03 0.  1.
    9900012    2    1    2    0    0  0.93651379093E+01  0.70169689468E+01 -0.43499078112E+02  0.46142318100E+02  0.10000003089E+02 0.  0.
         12    1    1    2    0    0 -0.93651379093E+01 -0.70169689468E+01  0.43499078112E+02  0.45045681900E+02  0.00000000000E+00 0. -1.
         11    1    3    3    0    0 -0.34970226489E+00 -0.74008970891E+00 -0.33115580087E+00  0.88299993028E+00  0.51100000000E-03 0. -1.
        -11    1    3    3    0    0  0.48778116967E+00  0.32644624444E+01 -0.11972423145E+02  0.12419080552E+02  0.51100000000E-03 0.  1.
         12    1    3    3    0    0  0.92270590045E+01  0.44925962113E+01 -0.31195499166E+02  0.32840237618E+02  0.00000000000E+00 0. -1.
</event>
<event>
 7    1  0.5743890E-009  0.4614232E+02  0.7816164E-02  0.1320468E+00
        -11   -1    0    0    0    0  0.00000000000E+00  0.00000000000E+00  0.45593999997E+02  0.45594000000E+02  0.51100000000E-03 0. -1.
         11   -1    0    0    0    0 -0.00000000000E+00 -0.00000000000E+00 -0.45593999997E+02  0.45594000000E+02  0.51100000000E-03 0.  1.
    9900012    2    1    2    0    0 -0.96385273734E+01 -0.24608263530E+02 -0.36478017503E+02  0.46142316468E+02  0.99999882124E+01 0.  0.
         12    1    1    2    0    0  0.96385273734E+01  0.24608263530E+02  0.36478017503E+02  0.45045683532E+02  0.00000000000E+00 0. -1.
         11    1    3    3    0    0 -0.85577377135E-01 -0.34332766341E+00  0.16374532453E+00  0.38988480910E+00  0.51100000000E-03 0. -1.
        -11    1    3    3    0    0 -0.10641227333E+02 -0.17031572452E+02 -0.27025238117E+02  0.33670070907E+02  0.51100000000E-03 0.  1.
         12    1    3    3    0    0  0.10882773364E+01 -0.72333634143E+01 -0.96165247104E+01  0.12082360752E+02  0.00000000000E+00 0. -1.
</event>
<event>
 7    1  0.6300636E-009  0.4614232E+02  0.7816164E-02  0.1320468E+00
        -11   -1    0    0    0    0  0.00000000000E+00  0.00000000000E+00  0.45593999997E+02  0.45594000000E+02  0.51100000000E-03 0. -1.
         11   -1    0    0    0    0 -0.00000000000E+00 -0.00000000000E+00 -0.45593999997E+02  0.45594000000E+02  0.51100000000E-03 0.  1.
    9900012    2    1    2    0    0  0.55700650142E+01 -0.11333904510E+02  0.43239223856E+02  0.46142317683E+02  0.99999992913E+01 0.  0.
        -12    1    1    2    0    0 -0.55700650142E+01  0.11333904510E+02 -0.43239223856E+02  0.45045682317E+02  0.00000000000E+00 0.  1.
         11    1    3    3    0    0  0.34927542726E+01 -0.22035334205E+01  0.13742436515E+02  0.14349545413E+02  0.51100000000E-03 0. -1.
        -11    1    3    3    0    0  0.19291264852E+01  0.68347385138E+00  0.49385185185E+01  0.53458049834E+01  0.51100000000E-03 0.  1.
        -12    1    3    3    0    0  0.14818425637E+00 -0.98138449411E+01  0.24558268822E+02  0.26446967287E+02  0.00000000000E+00 0.  1.
</event>
<event>
 7    1  0.5743890E-009  0.4614232E+02  0.7816164E-02  0.1320468E+00
        -11   -1    0    0    0    0  0.00000000000E+00  0.00000000000E+00  0.45593999997E+02  0.45594000000E+02  0.51100000000E-03 0. -1.
         11   -1    0    0    0    0 -0.00000000000E+00 -0.00000000000E+00 -0.45593999997E+02  0.45594000000E+02  0.51100000000E-03 0.  1.
    9900012    2    1    2    0    0  0.24513636547E+02 -0.28774737561E+02 -0.24499176166E+02  0.46142317284E+02  0.99999956518E+01 0.  0.
         12    1    1    2    0    0 -0.24513636547E+02  0.28774737561E+02  0.24499176166E+02  0.45045682716E+02  0.00000000000E+00 0. -1.
         11    1    3    3    0    0  0.66416862934E+01 -0.81819866814E+01 -0.11441592416E+02  0.15555286566E+02  0.51100000000E-03 0. -1.
        -11    1    3    3    0    0  0.28939754590E+00 -0.10555321678E+01  0.25520144604E+00  0.11238448007E+01  0.51100000000E-03 0.  1.
        -12    1    3    3    0    0  0.17582552708E+02 -0.19537218712E+02 -0.13312785197E+02  0.29463185918E+02  0.00000000000E+00 0.  1.
</event>
<event>
 7    1  0.5743890E-009  0.4614232E+02  0.7816164E-02  0.1320468E+00
        -11   -1    0    0    0    0  0.00000000000E+00  0.00000000000E+00  0.45593999997E+02  0.45594000000E+02  0.51100000000E-03 0. -1.
         11   -1    0    0    0    0 -0.00000000000E+00 -0.00000000000E+00 -0.45593999997E+02  0.45594000000E+02  0.51100000000E-03 0.  1.
    9900012    2    1    2    0    0 -0.11926647133E+02  0.20309533920E+02 -0.38397804748E+02  0.46142317750E+02  0.99999998999E+01 0.  0.
         12    1    1    2    0    0  0.11926647133E+02 -0.20309533920E+02  0.38397804748E+02  0.45045682250E+02  0.00000000000E+00 0. -1.
         11    1    3    3    0    0 -0.51284605625E+00  0.71287661820E+00 -0.27308371463E+01  0.28685668775E+01  0.51100000000E-03 0. -1.
        -11    1    3    3    0    0 -0.69500000973E+01  0.15209428048E+02 -0.18182871441E+02  0.24703158037E+02  0.51100000000E-03 0.  1.
        -12    1    3    3    0    0 -0.44638009794E+01  0.43872292538E+01 -0.17484096161E+02  0.18570592836E+02  0.00000000000E+00 0.  1.
</event>
<event>
 7    1  0.5743890E-009  0.4614232E+02  0.7816164E-02  0.1320468E+00
        -11   -1    0    0    0    0  0.00000000000E+00  0.00000000000E+00  0.45593999997E+02  0.45594000000E+02  0.51100000000E-03 0. -1.
         11   -1    0    0    0    0 -0.00000000000E+00 -0.00000000000E+00 -0.45593999997E+02  0.45594000000E+02  0.51100000000E-03 0.  1.
    9900012    2    1    2    0    0  0.13021007423E+02 -0.36122089760E+02 -0.23553380344E+02  0.46142315094E+02  0.99999756830E+01 0.  0.
         12    1    1    2    0    0 -0.13021007423E+02  0.36122089760E+02  0.23553380344E+02  0.45045684906E+02  0.00000000000E+00 0. -1.
         11    1    3    3    0    0  0.57475879618E+01 -0.16798857708E+02 -0.11883751106E+02  0.21364922848E+02  0.51100000000E-03 0. -1.
        -11    1    3    3    0    0  0.20487613397E+01 -0.74932171834E+01 -0.83932341501E+01  0.11436437668E+02  0.51100000000E-03 0.  1.
         12    1    3    3    0    0  0.52246581218E+01 -0.11830014869E+02 -0.32763950881E+01  0.13340954578E+02  0.00000000000E+00 0. -1.
</event>
<event>
 7    1  0.5743890E-009  0.4614232E+02  0.7816164E-02  0.1320468E+00
        -11   -1    0    0    0    0  0.00000000000E+00  0.00000000000E+00  0.45593999997E+02  0.45594000000E+02  0.51100000000E-03 0. -1.
         11   -1    0    0    0    0 -0.00000000000E+00 -0.00000000000E+00 -0.45593999997E+02  0.45594000000E+02  0.51100000000E-03 0.  1.
    9900012    2    1    2    0    0 -0.23160897304E+01 -0.18235976300E+02  0.41124183117E+02  0.46142317185E+02  0.99999947467E+01 0.  0.
        -12    1    1    2    0    0  0.23160897304E+01  0.18235976300E+02 -0.41124183117E+02  0.45045682815E+02  0.00000000000E+00 0.  1.
         11    1    3    3    0    0 -0.44098550421E+01 -0.72988672154E+01  0.24827338957E+02  0.26251038914E+02  0.51100000000E-03 0. -1.
        -11    1    3    3    0    0  0.57271160866E+00 -0.32247458146E+01  0.29834781298E+01  0.44303641123E+01  0.51100000000E-03 0.  1.
         12    1    3    3    0    0  0.15210537030E+01 -0.77123632701E+01  0.13313366030E+02  0.15460914159E+02  0.00000000000E+00 0. -1.
</event>
<event>
 7    1  0.5743890E-009  0.4614232E+02  0.7816164E-02  0.1320468E+00
        -11   -1    0    0    0    0  0.00000000000E+00  0.00000000000E+00  0.45593999997E+02  0.45594000000E+02  0.51100000000E-03 0. -1.
         11   -1    0    0    0    0 -0.00000000000E+00 -0.00000000000E+00 -0.45593999997E+02  0.45594000000E+02  0.51100000000E-03 0.  1.
    9900012    2    1    2    0    0  0.40960740979E+01  0.24555532111E+02  0.37541465408E+02  0.46142316464E+02  0.99999881678E+01 0.  0.
        -12    1    1    2    0    0 -0.40960740979E+01 -0.24555532111E+02 -0.37541465408E+02  0.45045683536E+02  0.00000000000E+00 0.  1.
         11    1    3    3    0    0  0.25963466214E+01  0.60608926651E+01  0.79814902408E+01  0.10352759169E+02  0.51100000000E-03 0.  1.
        -11    1    3    3    0    0 -0.24021008793E+01  0.35758882572E+01  0.36892162154E+01  0.56716295725E+01  0.51100000000E-03 0. -1.
         12    1    3    3    0    0  0.39018283557E+01  0.14918751189E+02  0.25870758952E+02  0.30117927722E+02  0.00000000000E+00 0. -1.
</event>
<event>
 7    1  0.5743890E-009  0.4614232E+02  0.7816164E-02  0.1320468E+00
        -11   -1    0    0    0    0  0.00000000000E+00  0.00000000000E+00  0.45593999997E+02  0.45594000000E+02  0.51100000000E-03 0. -1.
         11   -1    0    0    0    0 -0.00000000000E+00 -0.00000000000E+00 -0.45593999997E+02  0.45594000000E+02  0.51100000000E-03 0.  1.
    9900012    2    1    2    0    0  0.20554123223E+02  0.17319063659E+02 -0.36148187496E+02  0.46142318667E+02  0.10000008260E+02 0.  0.
         12    1    1    2    0    0 -0.20554123223E+02 -0.17319063659E+02  0.36148187496E+02  0.45045681333E+02  0.00000000000E+00 0. -1.
         11    1    3    3    0    0  0.15789649431E+02  0.11777612578E+02 -0.25984776486E+02  0.32607266008E+02  0.51100000000E-03 0. -1.
        -11    1    3    3    0    0  0.49091394657E+01  0.44788794659E+01 -0.10486753627E+02  0.12414991481E+02  0.51100000000E-03 0.  1.
         12    1    3    3    0    0 -0.14466567372E+00  0.10625716156E+01  0.32334261749E+00  0.11200611786E+01  0.00000000000E+00 0. -1.
</event>
<event>
 7    1  0.9229954E-009  0.4614232E+02  0.7816164E-02  0.1320468E+00
        -11   -1    0    0    0    0  0.00000000000E+00  0.00000000000E+00  0.45593999997E+02  0.45594000000E+02  0.51100000000E-03 0. -1.
         11   -1    0    0    0    0 -0.00000000000E+00 -0.00000000000E+00 -0.45593999997E+02  0.45594000000E+02  0.51100000000E-03 0.  1.
    9900012    2    1    2    0    0  0.91071180095E+01  0.11212648580E+01  0.44101208779E+02  0.46142318197E+02  0.10000003975E+02 0.  0.
        -12    1    1    2    0    0 -0.91071180095E+01 -0.11212648580E+01 -0.44101208779E+02  0.45045681803E+02  0.00000000000E+00 0.  1.
         11    1    3    3    0    0  0.35896955557E+01  0.29426414141E+01  0.19168928629E+02  0.19722902365E+02  0.51100000000E-03 0. -1.
        -11    1    3    3    0    0 -0.93313233023E+00  0.12295401631E+01  0.57269017910E+01  0.59312654083E+01  0.51100000000E-03 0.  1.
        -12    1    3    3    0    0  0.64505547840E+01 -0.30509167192E+01  0.19205378359E+02  0.20488150424E+02  0.00000000000E+00 0.  1.
</event>
<event>
 7    1  0.5743890E-009  0.4614232E+02  0.7816164E-02  0.1320468E+00
        -11   -1    0    0    0    0  0.00000000000E+00  0.00000000000E+00  0.45593999997E+02  0.45594000000E+02  0.51100000000E-03 0.  1.
         11   -1    0    0    0    0 -0.00000000000E+00 -0.00000000000E+00 -0.45593999997E+02  0.45594000000E+02  0.51100000000E-03 0. -1.
    9900012    2    1    2    0    0 -0.41337638931E+02  0.48409648307E+01  0.17230151640E+02  0.46142318094E+02  0.10000003036E+02 0.  0.
         12    1    1    2    0    0  0.41337638931E+02 -0.48409648307E+01 -0.17230151640E+02  0.45045681906E+02  0.00000000000E+00 0. -1.
         11    1    3    3    0    0 -0.23170432562E+02  0.26831290115E+01  0.50471939007E+01  0.23865085228E+02  0.51100000000E-03 0. -1.
        -11    1    3    3    0    0 -0.84466399749E+01  0.13900563244E+01  0.35979406687E+01  0.92856427224E+01  0.51100000000E-03 0.  1.
        -12    1    3    3    0    0 -0.97205663938E+01  0.76777949477E+00  0.85850170704E+01  0.12991590144E+02  0.00000000000E+00 0.  1.
</event>
<event>
 7    1  0.5743890E-009  0.4614232E+02  0.7816164E-02  0.1320468E+00
        -11   -1    0    0    0    0  0.00000000000E+00  0.00000000000E+00  0.45593999997E+02  0.45594000000E+02  0.51100000000E-03 0. -1.
         11   -1    0    0    0    0 -0.00000000000E+00 -0.00000000000E+00 -0.45593999997E+02  0.45594000000E+02  0.51100000000E-03 0.  1.
    9900012    2    1    2    0    0  0.12439615900E+02  0.40584147712E+01  0.43103349368E+02  0.46142317622E+02  0.99999987304E+01 0.  0.
        -12    1    1    2    0    0 -0.12439615900E+02 -0.40584147712E+01 -0.43103349368E+02  0.45045682378E+02  0.00000000000E+00 0.  1.
         11    1    3    3    0    0  0.17204600701E+01 -0.78133956941E+00  0.25275969015E+01  0.31558233051E+01  0.51100000000E-03 0. -1.
        -11    1    3    3    0    0  0.11209690830E+01  0.24546836735E+01  0.19728826960E+02  0.19912525132E+02  0.51100000000E-03 0.  1.
         12    1    3    3    0    0  0.95981867464E+01  0.23850706671E+01  0.20846925506E+02  0.23073969185E+02  0.00000000000E+00 0. -1.
</event>
<event>
 7    1  0.5743890E-009  0.4614232E+02  0.7816164E-02  0.1320468E+00
        -11   -1    0    0    0    0  0.00000000000E+00  0.00000000000E+00  0.45593999997E+02  0.45594000000E+02  0.51100000000E-03 0. -1.
         11   -1    0    0    0    0 -0.00000000000E+00 -0.00000000000E+00 -0.45593999997E+02  0.45594000000E+02  0.51100000000E-03 0.  1.
    9900012    2    1    2    0    0 -0.36726298270E+02  0.22433648519E+02  0.13305033691E+02  0.46142317720E+02  0.99999996283E+01 0.  0.
        -12    1    1    2    0    0  0.36726298270E+02 -0.22433648519E+02 -0.13305033691E+02  0.45045682280E+02  0.00000000000E+00 0.  1.
         11    1    3    3    0    0 -0.29678959541E+01  0.88195685054E+00  0.20007545503E+01  0.36863631553E+01  0.51100000000E-03 0. -1.
        -11    1    3    3    0    0 -0.13706394012E+02  0.13385820263E+02  0.37286663728E+01  0.19517898814E+02  0.51100000000E-03 0.  1.
        -12    1    3    3    0    0 -0.20052008304E+02  0.81658714057E+01  0.75756127676E+01  0.22938055751E+02  0.00000000000E+00 0.  1.
</event>
<event>
 7    1  0.5743890E-009  0.4614232E+02  0.7816164E-02  0.1320468E+00
        -11   -1    0    0    0    0  0.00000000000E+00  0.00000000000E+00  0.45593999997E+02  0.45594000000E+02  0.51100000000E-03 0.  1.
         11   -1    0    0    0    0 -0.00000000000E+00 -0.00000000000E+00 -0.45593999997E+02  0.45594000000E+02  0.51100000000E-03 0. -1.
    9900012    2    1    2    0    0  0.40616153664E+02 -0.19223780996E+02  0.31444931556E+01  0.46142317283E+02  0.99999956399E+01 0.  0.
        -12    1    1    2    0    0 -0.40616153664E+02  0.19223780996E+02 -0.31444931556E+01  0.45045682717E+02  0.00000000000E+00 0.  1.
         11    1    3    3    0    0  0.31175640160E+02 -0.13352278414E+02  0.23061215192E+01  0.33992970965E+02  0.51100000000E-03 0. -1.
        -11    1    3    3    0    0  0.73481820676E+01 -0.32774305694E+01 -0.13555131043E+01  0.81593349529E+01  0.51100000000E-03 0.  1.
        -12    1    3    3    0    0  0.20923314359E+01 -0.25940720123E+01  0.21938847406E+01  0.39900113656E+01  0.00000000000E+00 0.  1.
</event>
<event>
 7    1  0.5743890E-009  0.4614232E+02  0.7816164E-02  0.1320468E+00
        -11   -1    0    0    0    0  0.00000000000E+00  0.00000000000E+00  0.45593999997E+02  0.45594000000E+02  0.51100000000E-03 0. -1.
         11   -1    0    0    0    0 -0.00000000000E+00 -0.00000000000E+00 -0.45593999997E+02  0.45594000000E+02  0.51100000000E-03 0.  1.
    9900012    2    1    2    0    0  0.14517964958E+02 -0.38799390572E+02 -0.17690370722E+02  0.46142320611E+02  0.10000025991E+02 0.  0.
         12    1    1    2    0    0 -0.14517964958E+02  0.38799390572E+02  0.17690370722E+02  0.45045679389E+02  0.00000000000E+00 0. -1.
         11    1    3    3    0    0  0.86225376839E+00 -0.84238881829E+01 -0.16421846532E+01  0.86256677640E+01  0.51100000000E-03 0. -1.
        -11    1    3    3    0    0  0.39047784200E+01 -0.16325926540E+02 -0.72618499114E+01  0.18289823299E+02  0.51100000000E-03 0.  1.
         12    1    3    3    0    0  0.97509327698E+01 -0.14049575849E+02 -0.87863361573E+01  0.19226829548E+02  0.00000000000E+00 0. -1.
</event>
<event>
 7    1  0.5743890E-009  0.4614232E+02  0.7816164E-02  0.1320468E+00
        -11   -1    0    0    0    0  0.00000000000E+00  0.00000000000E+00  0.45593999997E+02  0.45594000000E+02  0.51100000000E-03 0.  1.
         11   -1    0    0    0    0 -0.00000000000E+00 -0.00000000000E+00 -0.45593999997E+02  0.45594000000E+02  0.51100000000E-03 0. -1.
    9900012    2    1    2    0    0  0.31518769502E+02  0.30926945490E+02 -0.88997094226E+01  0.46142316344E+02  0.99999870786E+01 0.  0.
         12    1    1    2    0    0 -0.31518769502E+02 -0.30926945490E+02  0.88997094226E+01  0.45045683656E+02  0.00000000000E+00 0. -1.
         11    1    3    3    0    0  0.70308976851E+01  0.51735517078E+01 -0.38655611174E+01  0.95468174040E+01  0.51100000000E-03 0. -1.
        -11    1    3    3    0    0  0.17965512107E+02  0.17053009590E+02 -0.65372953562E+01  0.25618372161E+02  0.51100000000E-03 0.  1.
        -12    1    3    3    0    0  0.65223597094E+01  0.87003841919E+01  0.15031470510E+01  0.10977126779E+02  0.00000000000E+00 0.  1.
</event>
<event>
 7    1  0.5743890E-009  0.4614232E+02  0.7816164E-02  0.1320468E+00
        -11   -1    0    0    0    0  0.00000000000E+00  0.00000000000E+00  0.45593999997E+02  0.45594000000E+02  0.51100000000E-03 0. -1.
         11   -1    0    0    0    0 -0.00000000000E+00 -0.00000000000E+00 -0.45593999997E+02  0.45594000000E+02  0.51100000000E-03 0.  1.
    9900012    2    1    2    0    0  0.16843361432E+02  0.13647351799E+02  0.39486256417E+02  0.46142317840E+02  0.10000000718E+02 0.  0.
        -12    1    1    2    0    0 -0.16843361432E+02 -0.13647351799E+02 -0.39486256417E+02  0.45045682160E+02  0.00000000000E+00 0.  1.
         11    1    3    3    0    0  0.59865214825E+01  0.95945080875E+01  0.17772604511E+02  0.21065576096E+02  0.51100000000E-03 0. -1.
        -11    1    3    3    0    0  0.62989423099E+01  0.27662149323E+01  0.17239690655E+02  0.18561668929E+02  0.51100000000E-03 0.  1.
        -12    1    3    3    0    0  0.45578976398E+01  0.12866287794E+01  0.44739612507E+01  0.65150728149E+01  0.00000000000E+00 0.  1.
</event>
<event>
 7    1  0.5743890E-009  0.4614232E+02  0.7816164E-02  0.1320468E+00
        -11   -1    0    0    0    0  0.00000000000E+00  0.00000000000E+00  0.45593999997E+02  0.45594000000E+02  0.51100000000E-03 0. -1.
         11   -1    0    0    0    0 -0.00000000000E+00 -0.00000000000E+00 -0.45593999997E+02  0.45594000000E+02  0.51100000000E-03 0.  1.
    9900012    2    1    2    0    0 -0.14674040010E+02  0.19761361834E+02  0.37726312097E+02  0.46142317674E+02  0.99999992099E+01 0.  0.
        -12    1    1    2    0    0  0.14674040010E+02 -0.19761361834E+02 -0.37726312097E+02  0.45045682326E+02  0.00000000000E+00 0.  1.
         11    1    3    3    0    0 -0.15598701867E+01  0.38727076662E+01  0.20429863008E+01  0.46481020808E+01  0.51100000000E-03 0. -1.
        -11    1    3    3    0    0 -0.33078178293E+01  0.69307958449E+01  0.10322347750E+02  0.12865786146E+02  0.51100000000E-03 0.  1.
         12    1    3    3    0    0 -0.98063519936E+01  0.89578583233E+01  0.25360978046E+02  0.28628429447E+02  0.00000000000E+00 0. -1.
</event>
<event>
 7    1  0.5743890E-009  0.4614232E+02  0.7816164E-02  0.1320468E+00
        -11   -1    0    0    0    0  0.00000000000E+00  0.00000000000E+00  0.45593999997E+02  0.45594000000E+02  0.51100000000E-03 0.  1.
         11   -1    0    0    0    0 -0.00000000000E+00 -0.00000000000E+00 -0.45593999997E+02  0.45594000000E+02  0.51100000000E-03 0. -1.
    9900012    2    1    2    0    0 -0.29775435313E+02 -0.31465536803E+02  0.12347345095E+02  0.46142317795E+02  0.10000000314E+02 0.  0.
        -12    1    1    2    0    0  0.29775435313E+02  0.31465536803E+02 -0.12347345095E+02  0.45045682205E+02  0.00000000000E+00 0.  1.
         11    1    3    3    0    0 -0.22044308641E+02 -0.21878448281E+02  0.10311142897E+02  0.32725184655E+02  0.51100000000E-03 0.  1.
        -11    1    3    3    0    0 -0.76421206536E+00 -0.30026540431E+01  0.22492200474E+01  0.38286998402E+01  0.51100000000E-03 0. -1.
         12    1    3    3    0    0 -0.69669146065E+01 -0.65844344792E+01 -0.21301784870E+00  0.95884333001E+01  0.00000000000E+00 0. -1.
</event>
<event>
 7    1  0.5743890E-009  0.4614232E+02  0.7816164E-02  0.1320468E+00
        -11   -1    0    0    0    0  0.00000000000E+00  0.00000000000E+00  0.45593999997E+02  0.45594000000E+02  0.51100000000E-03 0. -1.
         11   -1    0    0    0    0 -0.00000000000E+00 -0.00000000000E+00 -0.45593999997E+02  0.45594000000E+02  0.51100000000E-03 0.  1.
    9900012    2    1    2    0    0 -0.21813593531E+02  0.33346505048E+02 -0.21006932892E+02  0.46142317729E+02  0.99999997108E+01 0.  0.
         12    1    1    2    0    0  0.21813593531E+02 -0.33346505048E+02  0.21006932892E+02  0.45045682271E+02  0.00000000000E+00 0. -1.
         11    1    3    3    0    0 -0.16755036647E+02  0.22867207935E+02 -0.14903588225E+02  0.32027447510E+02  0.51100000000E-03 0. -1.
        -11    1    3    3    0    0 -0.57385942045E+01  0.10476948923E+02 -0.53176615367E+01  0.13075757977E+02  0.51100000000E-03 0.  1.
         12    1    3    3    0    0  0.68003732032E+00  0.23481902171E-02 -0.78568313019E+00  0.10391122423E+01  0.00000000000E+00 0. -1.
</event>
<event>
 7    1  0.5743890E-009  0.4614232E+02  0.7816164E-02  0.1320468E+00
        -11   -1    0    0    0    0  0.00000000000E+00  0.00000000000E+00  0.45593999997E+02  0.45594000000E+02  0.51100000000E-03 0. -1.
         11   -1    0    0    0    0 -0.00000000000E+00 -0.00000000000E+00 -0.45593999997E+02  0.45594000000E+02  0.51100000000E-03 0.  1.
    9900012    2    1    2    0    0 -0.14660313536E+02  0.17995430810E+02 -0.38605093781E+02  0.46142316646E+02  0.99999898305E+01 0.  0.
         12    1    1    2    0    0  0.14660313536E+02 -0.17995430810E+02  0.38605093781E+02  0.45045683354E+02  0.00000000000E+00 0. -1.
         11    1    3    3    0    0 -0.11606301284E+02  0.11886375477E+02 -0.31046297439E+02  0.35211713057E+02  0.51100000000E-03 0.  1.
        -11    1    3    3    0    0 -0.19040435059E+01  0.52020889489E+01 -0.76705756764E+01  0.94617568439E+01  0.51100000000E-03 0. -1.
         12    1    3    3    0    0 -0.11499687464E+01  0.90696638427E+00  0.11177933500E+00  0.14688467448E+01  0.00000000000E+00 0. -1.
</event>
<event>
 7    1  0.5743890E-009  0.4614232E+02  0.7816164E-02  0.1320468E+00
        -11   -1    0    0    0    0  0.00000000000E+00  0.00000000000E+00  0.45593999997E+02  0.45594000000E+02  0.51100000000E-03 0. -1.
         11   -1    0    0    0    0 -0.00000000000E+00 -0.00000000000E+00 -0.45593999997E+02  0.45594000000E+02  0.51100000000E-03 0.  1.
    9900012    2    1    2    0    0  0.10294258524E+02  0.20654696239E+02  0.38684948075E+02  0.46142318266E+02  0.10000004603E+02 0.  0.
        -12    1    1    2    0    0 -0.10294258524E+02 -0.20654696239E+02 -0.38684948075E+02  0.45045681734E+02  0.00000000000E+00 0.  1.
         11    1    3    3    0    0  0.18768393090E+01 -0.35259957134E-01  0.66823246461E+01  0.69409820626E+01  0.51100000000E-03 0. -1.
        -11    1    3    3    0    0 -0.29767379591E-01  0.31796793223E+01  0.50768638434E+01  0.59904752262E+01  0.51100000000E-03 0.  1.
         12    1    3    3    0    0  0.84471865950E+01  0.17510276874E+02  0.26925759586E+02  0.33210860977E+02  0.00000000000E+00 0. -1.
</event>
<event>
 7    1  0.5743890E-009  0.4614232E+02  0.7816164E-02  0.1320468E+00
        -11   -1    0    0    0    0  0.00000000000E+00  0.00000000000E+00  0.45593999997E+02  0.45594000000E+02  0.51100000000E-03 0.  1.
         11   -1    0    0    0    0 -0.00000000000E+00 -0.00000000000E+00 -0.45593999997E+02  0.45594000000E+02  0.51100000000E-03 0. -1.
    9900012    2    1    2    0    0  0.33251551670E+02 -0.19402717462E+02 -0.23387653709E+02  0.46142317861E+02  0.10000000911E+02 0.  0.
         12    1    1    2    0    0 -0.33251551670E+02  0.19402717462E+02  0.23387653709E+02  0.45045682139E+02  0.00000000000E+00 0. -1.
         11    1    3    3    0    0  0.26011198028E+02 -0.13885913058E+02 -0.18453634205E+02  0.34784157599E+02  0.51100000000E-03 0. -1.
        -11    1    3    3    0    0  0.67248656519E+01 -0.50251836730E+01 -0.58246003460E+01  0.10217742335E+02  0.51100000000E-03 0.  1.
         12    1    3    3    0    0  0.51548799037E+00 -0.49162073080E+00  0.89058084149E+00  0.11404179262E+01  0.00000000000E+00 0. -1.
</event>
<event>
 7    1  0.5743890E-009  0.4614232E+02  0.7816164E-02  0.1320468E+00
        -11   -1    0    0    0    0  0.00000000000E+00  0.00000000000E+00  0.45593999997E+02  0.45594000000E+02  0.51100000000E-03 0. -1.
         11   -1    0    0    0    0 -0.00000000000E+00 -0.00000000000E+00 -0.45593999997E+02  0.45594000000E+02  0.51100000000E-03 0.  1.
    9900012    2    1    2    0    0  0.37462837211E+00 -0.55767919063E+00 -0.45040672337E+02  0.46142317443E+02  0.99999970990E+01 0.  0.
         12    1    1    2    0    0 -0.37462837211E+00  0.55767919063E+00  0.45040672337E+02  0.45045682557E+02  0.00000000000E+00 0. -1.
         11    1    3    3    0    0 -0.21781311491E+01 -0.19181712234E+01 -0.39174654090E+01  0.48754662994E+01  0.51100000000E-03 0. -1.
        -11    1    3    3    0    0  0.22063953520E+01  0.13428064023E+01 -0.23724052767E+02  0.23864240810E+02  0.51100000000E-03 0.  1.
         12    1    3    3    0    0  0.34636416923E+00  0.17685630502E-01 -0.17399154161E+02  0.17402610334E+02  0.00000000000E+00 0. -1.
</event>
<event>
 7    1  0.5743890E-009  0.4614232E+02  0.7816164E-02  0.1320468E+00
        -11   -1    0    0    0    0  0.00000000000E+00  0.00000000000E+00  0.45593999997E+02  0.45594000000E+02  0.51100000000E-03 0.  1.
         11   -1    0    0    0    0 -0.00000000000E+00 -0.00000000000E+00 -0.45593999997E+02  0.45594000000E+02  0.51100000000E-03 0. -1.
    9900012    2    1    2    0    0  0.39988192027E+02  0.19350462395E+02  0.74577219986E+01  0.46142317477E+02  0.99999974122E+01 0.  0.
        -12    1    1    2    0    0 -0.39988192027E+02 -0.19350462395E+02 -0.74577219986E+01  0.45045682523E+02  0.00000000000E+00 0.  1.
         11    1    3    3    0    0  0.12961640449E+02  0.61371239243E+01  0.55254227567E+01  0.15368757598E+02  0.51100000000E-03 0. -1.
        -11    1    3    3    0    0  0.13420990875E+02  0.53692738305E+01  0.38314920091E+01  0.14954344813E+02  0.51100000000E-03 0.  1.
        -12    1    3    3    0    0  0.13605560704E+02  0.78440646406E+01 -0.18991927672E+01  0.15819215066E+02  0.00000000000E+00 0.  1.
</event>
<event>
 7    1  0.5743890E-009  0.4614231E+02  0.7816164E-02  0.1320468E+00
        -11   -1    0    0    0    0  0.00000000000E+00  0.00000000000E+00  0.45593999997E+02  0.45594000000E+02  0.51100000000E-03 0. -1.
         11   -1    0    0    0    0 -0.00000000000E+00 -0.00000000000E+00 -0.45593999997E+02  0.45594000000E+02  0.51100000000E-03 0.  1.
    9900012    2    1    2    0    0 -0.12584566495E+02  0.36944281969E+02  0.22491392359E+02  0.46142311923E+02  0.99999467638E+01 0.  0.
        -12    1    1    2    0    0  0.12584566495E+02 -0.36944281969E+02 -0.22491392359E+02  0.45045688077E+02  0.00000000000E+00 0.  1.
         11    1    3    3    0    0 -0.88561624997E+01  0.31221414876E+02  0.22089399655E+02  0.39257482580E+02  0.51100000000E-03 0. -1.
        -11    1    3    3    0    0 -0.94155063617E+00  0.12636064440E+01 -0.21443875720E+00  0.15903468450E+01  0.51100000000E-03 0.  1.
         12    1    3    3    0    0 -0.27868533593E+01  0.44592606487E+01  0.61643146095E+00  0.52944824984E+01  0.00000000000E+00 0. -1.
</event>
<event>
 7    1  0.5743890E-009  0.4614232E+02  0.7816164E-02  0.1320468E+00
        -11   -1    0    0    0    0  0.00000000000E+00  0.00000000000E+00  0.45593999997E+02  0.45594000000E+02  0.51100000000E-03 0. -1.
         11   -1    0    0    0    0 -0.00000000000E+00 -0.00000000000E+00 -0.45593999997E+02  0.45594000000E+02  0.51100000000E-03 0.  1.
    9900012    2    1    2    0    0  0.11336603215E+02 -0.34627760628E+02 -0.26486090221E+02  0.46142319255E+02  0.10000013625E+02 0.  0.
         12    1    1    2    0    0 -0.11336603215E+02  0.34627760628E+02  0.26486090221E+02  0.45045680745E+02  0.00000000000E+00 0. -1.
         11    1    3    3    0    0  0.67975735853E+01 -0.79384819588E+01 -0.63620710406E+01  0.12235295282E+02  0.51100000000E-03 0. -1.
        -11    1    3    3    0    0  0.25945709489E+01 -0.99076227265E+01 -0.93658263280E+01  0.13878454149E+02  0.51100000000E-03 0.  1.
        -12    1    3    3    0    0  0.19444586804E+01 -0.16781655943E+02 -0.10758192853E+02  0.20028569824E+02  0.00000000000E+00 0.  1.
</event>
<event>
 7    1  0.5743890E-009  0.4614232E+02  0.7816164E-02  0.1320468E+00
        -11   -1    0    0    0    0  0.00000000000E+00  0.00000000000E+00  0.45593999997E+02  0.45594000000E+02  0.51100000000E-03 0. -1.
         11   -1    0    0    0    0 -0.00000000000E+00 -0.00000000000E+00 -0.45593999997E+02  0.45594000000E+02  0.51100000000E-03 0.  1.
    9900012    2    1    2    0    0  0.22274835622E+01 -0.29398795489E+01 -0.44894419680E+02  0.46142317708E+02  0.99999995144E+01 0.  0.
         12    1    1    2    0    0 -0.22274835622E+01  0.29398795489E+01  0.44894419680E+02  0.45045682292E+02  0.00000000000E+00 0. -1.
         11    1    3    3    0    0 -0.88718321045E+00  0.57211485752E-01 -0.13138081407E+01  0.15863351773E+01  0.51100000000E-03 0. -1.
        -11    1    3    3    0    0  0.13300899983E+01 -0.56274906325E+01 -0.22217069551E+02  0.22957263990E+02  0.51100000000E-03 0.  1.
        -12    1    3    3    0    0  0.17845767743E+01  0.26303995978E+01 -0.21363541989E+02  0.21598718541E+02  0.00000000000E+00 0.  1.
</event>
<event>
 7    1  0.5743890E-009  0.4614232E+02  0.7816164E-02  0.1320468E+00
        -11   -1    0    0    0    0  0.00000000000E+00  0.00000000000E+00  0.45593999997E+02  0.45594000000E+02  0.51100000000E-03 0. -1.
         11   -1    0    0    0    0 -0.00000000000E+00 -0.00000000000E+00 -0.45593999997E+02  0.45594000000E+02  0.51100000000E-03 0.  1.
    9900012    2    1    2    0    0 -0.39960563238E+02 -0.51844328820E+01 -0.20134263185E+02  0.46142317492E+02  0.99999975470E+01 0.  0.
         12    1    1    2    0    0  0.39960563238E+02  0.51844328820E+01  0.20134263185E+02  0.45045682508E+02  0.00000000000E+00 0. -1.
         11    1    3    3    0    0 -0.12329994100E+02 -0.13460723130E+01 -0.50147665629E+01  0.13378660214E+02  0.51100000000E-03 0. -1.
        -11    1    3    3    0    0 -0.33989964664E+01  0.18878527767E+01 -0.58191527649E+00  0.39313853456E+01  0.51100000000E-03 0.  1.
        -12    1    3    3    0    0 -0.24231572671E+02 -0.57262133457E+01 -0.14537581346E+02  0.28832271932E+02  0.00000000000E+00 0.  1.
</event>
<event>
 7    1  0.5743890E-009  0.4614232E+02  0.7816164E-02  0.1320468E+00
        -11   -1    0    0    0    0  0.00000000000E+00  0.00000000000E+00  0.45593999997E+02  0.45594000000E+02  0.51100000000E-03 0. -1.
         11   -1    0    0    0    0 -0.00000000000E+00 -0.00000000000E+00 -0.45593999997E+02  0.45594000000E+02  0.51100000000E-03 0.  1.
    9900012    2    1    2    0    0 -0.38494437110E+01 -0.18591949602E+02 -0.40848925684E+02  0.46142317227E+02  0.99999951317E+01 0.  0.
         12    1    1    2    0    0  0.38494437110E+01  0.18591949602E+02  0.40848925684E+02  0.45045682773E+02  0.00000000000E+00 0. -1.
         11    1    3    3    0    0 -0.39734260704E+01 -0.95098363672E+01 -0.15114241397E+02  0.18293862242E+02  0.51100000000E-03 0. -1.
        -11    1    3    3    0    0  0.16100493272E+01 -0.20343664880E+00 -0.33856240160E+01  0.37544767338E+01  0.51100000000E-03 0.  1.
        -12    1    3    3    0    0 -0.14860669678E+01 -0.88786765862E+01 -0.22349060272E+02  0.24093978251E+02  0.00000000000E+00 0.  1.
</event>
<event>
 7    1  0.5743890E-009  0.4614232E+02  0.7816164E-02  0.1320468E+00
        -11   -1    0    0    0    0  0.00000000000E+00  0.00000000000E+00  0.45593999997E+02  0.45594000000E+02  0.51100000000E-03 0. -1.
         11   -1    0    0    0    0 -0.00000000000E+00 -0.00000000000E+00 -0.45593999997E+02  0.45594000000E+02  0.51100000000E-03 0.  1.
    9900012    2    1    2    0    0  0.19822739381E+02  0.20310223674E+02 -0.34980955096E+02  0.46142318724E+02  0.10000008778E+02 0.  0.
         12    1    1    2    0    0 -0.19822739381E+02 -0.20310223674E+02  0.34980955096E+02  0.45045681276E+02  0.00000000000E+00 0. -1.
         11    1    3    3    0    0  0.24759865277E+01  0.26079869400E+01 -0.10340775681E+02  0.10948230318E+02  0.51100000000E-03 0. -1.
        -11    1    3    3    0    0  0.98024175632E+01  0.12696534978E+02 -0.14846341572E+02  0.21856423515E+02  0.51100000000E-03 0.  1.
         12    1    3    3    0    0  0.75443352902E+01  0.50057017558E+01 -0.97938378434E+01  0.13337664891E+02  0.00000000000E+00 0. -1.
</event>
<event>
 7    1  0.5743890E-009  0.4614232E+02  0.7816164E-02  0.1320468E+00
        -11   -1    0    0    0    0  0.00000000000E+00  0.00000000000E+00  0.45593999997E+02  0.45594000000E+02  0.51100000000E-03 0. -1.
         11   -1    0    0    0    0 -0.00000000000E+00 -0.00000000000E+00 -0.45593999997E+02  0.45594000000E+02  0.51100000000E-03 0.  1.
    9900012    2    1    2    0    0  0.28095480715E+01  0.25032451815E+02 -0.37344293780E+02  0.46142317830E+02  0.10000000630E+02 0.  0.
         12    1    1    2    0    0 -0.28095480715E+01 -0.25032451815E+02  0.37344293780E+02  0.45045682170E+02  0.00000000000E+00 0. -1.
         11    1    3    3    0    0  0.64362075761E-01  0.16776187870E+01 -0.13483539373E+01  0.21532779366E+01  0.51100000000E-03 0. -1.
        -11    1    3    3    0    0  0.26316329272E+01  0.18167943611E+02 -0.19883993435E+02  0.27062388330E+02  0.51100000000E-03 0.  1.
         12    1    3    3    0    0  0.11355306855E+00  0.51868894165E+01 -0.16111946408E+02  0.16926651564E+02  0.00000000000E+00 0. -1.
</event>
<event>
 7    1  0.5743890E-009  0.4614232E+02  0.7816164E-02  0.1320468E+00
        -11   -1    0    0    0    0  0.00000000000E+00  0.00000000000E+00  0.45593999997E+02  0.45594000000E+02  0.51100000000E-03 0. -1.
         11   -1    0    0    0    0 -0.00000000000E+00 -0.00000000000E+00 -0.45593999997E+02  0.45594000000E+02  0.51100000000E-03 0.  1.
    9900012    2    1    2    0    0 -0.88978722147E+01  0.23264305205E+02 -0.37532831805E+02  0.46142317743E+02  0.99999998392E+01 0.  0.
         12    1    1    2    0    0  0.88978722147E+01 -0.23264305205E+02  0.37532831805E+02  0.45045682257E+02  0.00000000000E+00 0. -1.
         11    1    3    3    0    0 -0.77970064027E+00  0.32021331957E+01 -0.63548866684E+00  0.33564022701E+01  0.51100000000E-03 0. -1.
        -11    1    3    3    0    0 -0.33947286599E+01  0.95546601335E+01 -0.17509690216E+02  0.20233758046E+02  0.51100000000E-03 0.  1.
         12    1    3    3    0    0 -0.47234429145E+01  0.10507511876E+02 -0.19387652922E+02  0.22552157427E+02  0.00000000000E+00 0. -1.
</event>
<event>
 7    1  0.5743890E-009  0.4614232E+02  0.7816164E-02  0.1320468E+00
        -11   -1    0    0    0    0  0.00000000000E+00  0.00000000000E+00  0.45593999997E+02  0.45594000000E+02  0.51100000000E-03 0. -1.
         11   -1    0    0    0    0 -0.00000000000E+00 -0.00000000000E+00 -0.45593999997E+02  0.45594000000E+02  0.51100000000E-03 0.  1.
    9900012    2    1    2    0    0  0.33594943083E+02 -0.85549843233E+01  0.28762920014E+02  0.46142317351E+02  0.99999962636E+01 0.  0.
        -12    1    1    2    0    0 -0.33594943083E+02  0.85549843233E+01 -0.28762920014E+02  0.45045682649E+02  0.00000000000E+00 0.  1.
         11    1    3    3    0    0  0.18228930337E+02 -0.14375647801E+01  0.15012713414E+02  0.23658868486E+02  0.51100000000E-03 0. -1.
        -11    1    3    3    0    0  0.53356969999E+01 -0.39057047007E+00  0.64154992019E+01  0.83534925652E+01  0.51100000000E-03 0.  1.
         12    1    3    3    0    0  0.10030315746E+02 -0.67268490731E+01  0.73347073986E+01  0.14129956300E+02  0.00000000000E+00 0. -1.
</event>
<event>
 7    1  0.5743890E-009  0.4614232E+02  0.7816164E-02  0.1320468E+00
        -11   -1    0    0    0    0  0.00000000000E+00  0.00000000000E+00  0.45593999997E+02  0.45594000000E+02  0.51100000000E-03 0. -1.
         11   -1    0    0    0    0 -0.00000000000E+00 -0.00000000000E+00 -0.45593999997E+02  0.45594000000E+02  0.51100000000E-03 0.  1.
    9900012    2    1    2    0    0 -0.51415179572E+01  0.49226234681E+01 -0.44479726299E+02  0.46142317850E+02  0.10000000809E+02 0.  0.
         12    1    1    2    0    0  0.51415179572E+01 -0.49226234681E+01  0.44479726299E+02  0.45045682150E+02  0.00000000000E+00 0. -1.
         11    1    3    3    0    0  0.62887388813E-01  0.52476405352E+01 -0.17827738301E+02  0.18584131381E+02  0.51100000000E-03 0. -1.
        -11    1    3    3    0    0 -0.14870806955E+01  0.19389486574E+01 -0.65638128924E+01  0.70038968324E+01  0.51100000000E-03 0.  1.
        -12    1    3    3    0    0 -0.37173246505E+01 -0.22639657246E+01 -0.20088175106E+02  0.20554289637E+02  0.00000000000E+00 0.  1.
</event>
<event>
 7    1  0.5743890E-009  0.4614232E+02  0.7816164E-02  0.1320468E+00
        -11   -1    0    0    0    0  0.00000000000E+00  0.00000000000E+00  0.45593999997E+02  0.45594000000E+02  0.51100000000E-03 0. -1.
         11   -1    0    0    0    0 -0.00000000000E+00 -0.00000000000E+00 -0.45593999997E+02  0.45594000000E+02  0.51100000000E-03 0.  1.
    9900012    2    1    2    0    0  0.21098162749E+02 -0.14031830349E+02 -0.37243640465E+02  0.46142317750E+02  0.99999998965E+01 0.  0.
         12    1    1    2    0    0 -0.21098162749E+02  0.14031830349E+02  0.37243640465E+02  0.45045682250E+02  0.00000000000E+00 0. -1.
         11    1    3    3    0    0  0.47197597033E+00 -0.13884748979E+01 -0.21923567256E+01  0.26376224392E+01  0.51100000000E-03 0. -1.
        -11    1    3    3    0    0  0.18390965028E+02 -0.10480968667E+02 -0.23892739652E+02  0.31920860064E+02  0.51100000000E-03 0.  1.
        -12    1    3    3    0    0  0.22352217500E+01 -0.21623867838E+01 -0.11158544087E+02  0.11583835247E+02  0.00000000000E+00 0.  1.
</event>
<event>
 7    1  0.5743890E-009  0.4614232E+02  0.7816164E-02  0.1320468E+00
        -11   -1    0    0    0    0  0.00000000000E+00  0.00000000000E+00  0.45593999997E+02  0.45594000000E+02  0.51100000000E-03 0. -1.
         11   -1    0    0    0    0 -0.00000000000E+00 -0.00000000000E+00 -0.45593999997E+02  0.45594000000E+02  0.51100000000E-03 0.  1.
    9900012    2    1    2    0    0 -0.19727355941E+02 -0.23683281298E+02 -0.32848852913E+02  0.46142317375E+02  0.99999964783E+01 0.  0.
         12    1    1    2    0    0  0.19727355941E+02  0.23683281298E+02  0.32848852913E+02  0.45045682625E+02  0.00000000000E+00 0. -1.
         11    1    3    3    0    0 -0.10292072647E+02 -0.17712961411E+02 -0.20650050094E+02  0.29087803810E+02  0.51100000000E-03 0. -1.
        -11    1    3    3    0    0 -0.82584410478E+01 -0.59581377870E+01 -0.88039821111E+01  0.13461476728E+02  0.51100000000E-03 0.  1.
         12    1    3    3    0    0 -0.11768422470E+01 -0.12182099986E-01 -0.33948207073E+01  0.35930368371E+01  0.00000000000E+00 0. -1.
</event>
<event>
 7    1  0.5743890E-009  0.4614232E+02  0.7816164E-02  0.1320468E+00
        -11   -1    0    0    0    0  0.00000000000E+00  0.00000000000E+00  0.45593999997E+02  0.45594000000E+02  0.51100000000E-03 0. -1.
         11   -1    0    0    0    0 -0.00000000000E+00 -0.00000000000E+00 -0.45593999997E+02  0.45594000000E+02  0.51100000000E-03 0.  1.
    9900012    2    1    2    0    0 -0.21672882613E+02  0.73286104777E+01 -0.38803236149E+02  0.46142317544E+02  0.99999980161E+01 0.  0.
         12    1    1    2    0    0  0.21672882613E+02 -0.73286104777E+01  0.38803236149E+02  0.45045682456E+02  0.00000000000E+00 0. -1.
         11    1    3    3    0    0 -0.46918734868E+01 -0.12393303199E+00 -0.72945417538E+01  0.86740634003E+01  0.51100000000E-03 0. -1.
        -11    1    3    3    0    0 -0.12854421569E+02  0.88637355942E+01 -0.21700238206E+02  0.26733916679E+02  0.51100000000E-03 0.  1.
        -12    1    3    3    0    0 -0.41265875579E+01 -0.14111920845E+01 -0.98084561895E+01  0.10734337464E+02  0.00000000000E+00 0.  1.
</event>
<event>
 7    1  0.5743890E-009  0.4614232E+02  0.7816164E-02  0.1320468E+00
        -11   -1    0    0    0    0  0.00000000000E+00  0.00000000000E+00  0.45593999997E+02  0.45594000000E+02  0.51100000000E-03 0. -1.
         11   -1    0    0    0    0 -0.00000000000E+00 -0.00000000000E+00 -0.45593999997E+02  0.45594000000E+02  0.51100000000E-03 0.  1.
    9900012    2    1    2    0    0 -0.26078055498E+02  0.35250795975E+02  0.10316482491E+02  0.46142318671E+02  0.10000008295E+02 0.  0.
        -12    1    1    2    0    0  0.26078055498E+02 -0.35250795975E+02 -0.10316482491E+02  0.45045681329E+02  0.00000000000E+00 0.  1.
         11    1    3    3    0    0 -0.24664645380E+01  0.36502727316E+01 -0.31114370909E+00  0.44164181189E+01  0.51100000000E-03 0. -1.
        -11    1    3    3    0    0 -0.43751097981E+01  0.11227543765E+02  0.97105175027E+00  0.12088931570E+02  0.51100000000E-03 0.  1.
         12    1    3    3    0    0 -0.19236481162E+02  0.20372979478E+02  0.96565744498E+01  0.29636968982E+02  0.00000000000E+00 0. -1.
</event>
<event>
 7    1  0.5743890E-009  0.4614233E+02  0.7816164E-02  0.1320468E+00
        -11   -1    0    0    0    0  0.00000000000E+00  0.00000000000E+00  0.45593999997E+02  0.45594000000E+02  0.51100000000E-03 0. -1.
         11   -1    0    0    0    0 -0.00000000000E+00 -0.00000000000E+00 -0.45593999997E+02  0.45594000000E+02  0.51100000000E-03 0.  1.
    9900012    2    1    2    0    0 -0.29571381264E+02  0.22606414968E+02  0.25369191667E+02  0.46142329027E+02  0.10000102732E+02 0.  0.
        -12    1    1    2    0    0  0.29571381264E+02 -0.22606414968E+02 -0.25369191667E+02  0.45045670973E+02  0.00000000000E+00 0.  1.
         11    1    3    3    0    0  0.95790514489E-01 -0.33315819581E+00  0.12369336657E+00  0.36806319587E+00  0.51100000000E-03 0. -1.
        -11    1    3    3    0    0 -0.64288239706E+01  0.86635136857E+01  0.88370826283E+01  0.13945618547E+02  0.51100000000E-03 0.  1.
         12    1    3    3    0    0 -0.23238347807E+02  0.14276059478E+02  0.16408415673E+02  0.31828647284E+02  0.00000000000E+00 0. -1.
</event>
<event>
 7    1  0.5743890E-009  0.4614232E+02  0.7816164E-02  0.1320468E+00
        -11   -1    0    0    0    0  0.00000000000E+00  0.00000000000E+00  0.45593999997E+02  0.45594000000E+02  0.51100000000E-03 0. -1.
         11   -1    0    0    0    0 -0.00000000000E+00 -0.00000000000E+00 -0.45593999997E+02  0.45594000000E+02  0.51100000000E-03 0.  1.
    9900012    2    1    2    0    0 -0.44539596185E+02  0.61862598989E+01  0.26585642813E+01  0.46142318698E+02  0.10000008548E+02 0.  0.
        -12    1    1    2    0    0  0.44539596185E+02 -0.61862598989E+01 -0.26585642813E+01  0.45045681302E+02  0.00000000000E+00 0.  1.
         11    1    3    3    0    0 -0.30877952941E+01  0.12423986848E+01 -0.15729678517E+01  0.36813397553E+01  0.51100000000E-03 0. -1.
        -11    1    3    3    0    0 -0.62144331260E+01 -0.51625965593E+00 -0.13186270044E+01  0.63737336426E+01  0.51100000000E-03 0.  1.
         12    1    3    3    0    0 -0.35237367765E+02  0.54601208700E+01  0.55501591374E+01  0.36087245301E+02  0.00000000000E+00 0. -1.
</event>
<event>
 7    1  0.5743890E-009  0.4614232E+02  0.7816164E-02  0.1320468E+00
        -11   -1    0    0    0    0  0.00000000000E+00  0.00000000000E+00  0.45593999997E+02  0.45594000000E+02  0.51100000000E-03 0. -1.
         11   -1    0    0    0    0 -0.00000000000E+00 -0.00000000000E+00 -0.45593999997E+02  0.45594000000E+02  0.51100000000E-03 0.  1.
    9900012    2    1    2    0    0  0.45920757808E+01 -0.16605728264E+02  0.41620621890E+02  0.46142317214E+02  0.99999950068E+01 0.  0.
        -12    1    1    2    0    0 -0.45920757808E+01  0.16605728264E+02 -0.41620621890E+02  0.45045682786E+02  0.00000000000E+00 0.  1.
         11    1    3    3    0    0  0.31536809973E+00 -0.51909021677E+00  0.43774544662E-01  0.60895661862E+00  0.51100000000E-03 0. -1.
        -11    1    3    3    0    0 -0.33243375869E+00  0.90233182314E+00  0.21866957803E+01  0.23887975259E+01  0.51100000000E-03 0.  1.
         12    1    3    3    0    0  0.46091414398E+01 -0.16988969871E+02  0.39390151565E+02  0.43144563069E+02  0.00000000000E+00 0. -1.
</event>
<event>
 7    1  0.5743890E-009  0.4614232E+02  0.7816164E-02  0.1320468E+00
        -11   -1    0    0    0    0  0.00000000000E+00  0.00000000000E+00  0.45593999997E+02  0.45594000000E+02  0.51100000000E-03 0. -1.
         11   -1    0    0    0    0 -0.00000000000E+00 -0.00000000000E+00 -0.45593999997E+02  0.45594000000E+02  0.51100000000E-03 0.  1.
    9900012    2    1    2    0    0 -0.24484941636E+01  0.34969649756E+02  0.28288549122E+02  0.46142317197E+02  0.99999948584E+01 0.  0.
        -12    1    1    2    0    0  0.24484941636E+01 -0.34969649756E+02 -0.28288549122E+02  0.45045682803E+02  0.00000000000E+00 0.  1.
         11    1    3    3    0    0 -0.36745081967E+01  0.25419236298E+02  0.20450012611E+02  0.32830513254E+02  0.51100000000E-03 0. -1.
        -11    1    3    3    0    0  0.21259985063E+01  0.91230054462E+01  0.79797765523E+01  0.12305524455E+02  0.51100000000E-03 0.  1.
        -12    1    3    3    0    0 -0.89998447309E+00  0.42740801154E+00 -0.14124004084E+00  0.10062794886E+01  0.00000000000E+00 0.  1.
</event>
<event>
 7    1  0.5743890E-009  0.4614232E+02  0.7816164E-02  0.1320468E+00
        -11   -1    0    0    0    0  0.00000000000E+00  0.00000000000E+00  0.45593999997E+02  0.45594000000E+02  0.51100000000E-03 0. -1.
         11   -1    0    0    0    0 -0.00000000000E+00 -0.00000000000E+00 -0.45593999997E+02  0.45594000000E+02  0.51100000000E-03 0.  1.
    9900012    2    1    2    0    0  0.92120973521E+01 -0.81664398940E+01 -0.43330820262E+02  0.46142318046E+02  0.10000002597E+02 0.  0.
         12    1    1    2    0    0 -0.92120973521E+01  0.81664398940E+01  0.43330820262E+02  0.45045681954E+02  0.00000000000E+00 0. -1.
         11    1    3    3    0    0  0.29545161993E+01 -0.16553092158E+00 -0.17974393868E+02  0.18216349844E+02  0.51100000000E-03 0. -1.
        -11    1    3    3    0    0  0.22545073385E+01 -0.70400496189E+01 -0.18586816388E+02  0.20002870936E+02  0.51100000000E-03 0.  1.
         12    1    3    3    0    0  0.40030738143E+01 -0.96085935353E+00 -0.67696100056E+01  0.79230972661E+01  0.00000000000E+00 0. -1.
</event>
<event>
 7    1  0.5743890E-009  0.4614232E+02  0.7816164E-02  0.1320468E+00
        -11   -1    0    0    0    0  0.00000000000E+00  0.00000000000E+00  0.45593999997E+02  0.45594000000E+02  0.51100000000E-03 0. -1.
         11   -1    0    0    0    0 -0.00000000000E+00 -0.00000000000E+00 -0.45593999997E+02  0.45594000000E+02  0.51100000000E-03 0.  1.
    9900012    2    1    2    0    0 -0.26630641026E+01  0.59096457583E+01  0.44576874812E+02  0.46142316617E+02  0.99999895708E+01 0.  0.
        -12    1    1    2    0    0  0.26630641026E+01 -0.59096457583E+01 -0.44576874812E+02  0.45045683383E+02  0.00000000000E+00 0.  1.
         11    1    3    3    0    0  0.20259727023E+01  0.43739815975E+01  0.22059469535E+02  0.22580001701E+02  0.51100000000E-03 0. -1.
        -11    1    3    3    0    0 -0.28371403147E+01 -0.15479042113E+01  0.12763303641E+02  0.13166141907E+02  0.51100000000E-03 0.  1.
         12    1    3    3    0    0 -0.18518964903E+01  0.30835683721E+01  0.97541016356E+01  0.10396173009E+02  0.00000000000E+00 0. -1.
</event>
<event>
 7    1  0.5743890E-009  0.4614232E+02  0.7816164E-02  0.1320468E+00
        -11   -1    0    0    0    0  0.00000000000E+00  0.00000000000E+00  0.45593999997E+02  0.45594000000E+02  0.51100000000E-03 0. -1.
         11   -1    0    0    0    0 -0.00000000000E+00 -0.00000000000E+00 -0.45593999997E+02  0.45594000000E+02  0.51100000000E-03 0.  1.
    9900012    2    1    2    0    0  0.41026471790E+02  0.18506321232E+02 -0.18596382354E+01  0.46142316884E+02  0.99999919974E+01 0.  0.
         12    1    1    2    0    0 -0.41026471790E+02 -0.18506321232E+02  0.18596382354E+01  0.45045683116E+02  0.00000000000E+00 0. -1.
         11    1    3    3    0    0  0.21687560324E+01 -0.11027994641E+01 -0.24013667855E+00  0.24448589471E+01  0.51100000000E-03 0. -1.
        -11    1    3    3    0    0  0.53599461794E+01  0.28445858683E+01 -0.14481669481E+01  0.62384196379E+01  0.51100000000E-03 0.  1.
        -12    1    3    3    0    0  0.33497769578E+02  0.16764534828E+02 -0.17133460878E+00  0.37459038298E+02  0.00000000000E+00 0.  1.
</event>
<event>
 7    1  0.5743890E-009  0.4614231E+02  0.7816164E-02  0.1320468E+00
        -11   -1    0    0    0    0  0.00000000000E+00  0.00000000000E+00  0.45593999997E+02  0.45594000000E+02  0.51100000000E-03 0. -1.
         11   -1    0    0    0    0 -0.00000000000E+00 -0.00000000000E+00 -0.45593999997E+02  0.45594000000E+02  0.51100000000E-03 0.  1.
    9900012    2    1    2    0    0 -0.18954247088E+02  0.26502941232E+02  0.31103774923E+02  0.46142309961E+02  0.99999288759E+01 0.  0.
        -12    1    1    2    0    0  0.18954247088E+02 -0.26502941232E+02 -0.31103774923E+02  0.45045690039E+02  0.00000000000E+00 0.  1.
         11    1    3    3    0    0 -0.25281317025E+01  0.40829337580E+01  0.28502319380E+01  0.55844086830E+01  0.51100000000E-03 0. -1.
        -11    1    3    3    0    0 -0.14375016946E+02  0.12911823956E+02  0.17673268965E+02  0.26185888303E+02  0.51100000000E-03 0.  1.
         12    1    3    3    0    0 -0.20510984390E+01  0.95081835174E+01  0.10580274021E+02  0.14372012975E+02  0.00000000000E+00 0. -1.
</event>
<event>
 7    1  0.5743890E-009  0.4614232E+02  0.7816164E-02  0.1320468E+00
        -11   -1    0    0    0    0  0.00000000000E+00  0.00000000000E+00  0.45593999997E+02  0.45594000000E+02  0.51100000000E-03 0. -1.
         11   -1    0    0    0    0 -0.00000000000E+00 -0.00000000000E+00 -0.45593999997E+02  0.45594000000E+02  0.51100000000E-03 0.  1.
    9900012    2    1    2    0    0  0.35872770034E+02  0.11813253726E+02  0.24550044344E+02  0.46142320176E+02  0.10000022017E+02 0.  0.
        -12    1    1    2    0    0 -0.35872770034E+02 -0.11813253726E+02 -0.24550044344E+02  0.45045679824E+02  0.00000000000E+00 0.  1.
         11    1    3    3    0    0  0.23886991418E+02  0.70877998969E+01  0.12972902566E+02  0.28091305908E+02  0.51100000000E-03 0. -1.
        -11    1    3    3    0    0  0.36113786407E+01  0.31872977868E+01  0.19436994413E+01  0.51941207771E+01  0.51100000000E-03 0.  1.
        -12    1    3    3    0    0  0.83743999760E+01  0.15381560420E+01  0.96334423366E+01  0.12856893490E+02  0.00000000000E+00 0.  1.
</event>
<event>
 7    1  0.5743890E-009  0.4614232E+02  0.7816164E-02  0.1320468E+00
        -11   -1    0    0    0    0  0.00000000000E+00  0.00000000000E+00  0.45593999997E+02  0.45594000000E+02  0.51100000000E-03 0. -1.
         11   -1    0    0    0    0 -0.00000000000E+00 -0.00000000000E+00 -0.45593999997E+02  0.45594000000E+02  0.51100000000E-03 0.  1.
    9900012    2    1    2    0    0 -0.16441997395E+02  0.13690520795E+02 -0.39640175062E+02  0.46142321884E+02  0.10000037600E+02 0.  0.
         12    1    1    2    0    0  0.16441997395E+02 -0.13690520795E+02  0.39640175062E+02  0.45045678116E+02  0.00000000000E+00 0. -1.
         11    1    3    3    0    0 -0.77314266842E+01  0.58968139864E+01 -0.10398808290E+02  0.14236663509E+02  0.51100000000E-03 0. -1.
        -11    1    3    3    0    0 -0.30291012901E+01  0.30886014356E+01 -0.52334704662E+01  0.67900019761E+01  0.51100000000E-03 0.  1.
        -12    1    3    3    0    0 -0.56814694206E+01  0.47051053732E+01 -0.24007896305E+02  0.25115656399E+02  0.00000000000E+00 0.  1.
</event>
<event>
 7    1  0.5743890E-009  0.4614232E+02  0.7816164E-02  0.1320468E+00
        -11   -1    0    0    0    0  0.00000000000E+00  0.00000000000E+00  0.45593999997E+02  0.45594000000E+02  0.51100000000E-03 0. -1.
         11   -1    0    0    0    0 -0.00000000000E+00 -0.00000000000E+00 -0.45593999997E+02  0.45594000000E+02  0.51100000000E-03 0.  1.
    9900012    2    1    2    0    0  0.56118127016E+01  0.99062648077E+01  0.43583105104E+02  0.46142316802E+02  0.99999912564E+01 0.  0.
        -12    1    1    2    0    0 -0.56118127016E+01 -0.99062648077E+01 -0.43583105104E+02  0.45045683198E+02  0.00000000000E+00 0.  1.
         11    1    3    3    0    0  0.20642342582E+01  0.24449628176E+01  0.10299352957E+02  0.10784969997E+02  0.51100000000E-03 0. -1.
        -11    1    3    3    0    0 -0.61586784839E+00  0.22058567835E+01  0.22788275731E+02  0.22903069847E+02  0.51100000000E-03 0.  1.
        -12    1    3    3    0    0  0.41634462917E+01  0.52554452066E+01  0.10495476416E+02  0.12454276958E+02  0.00000000000E+00 0.  1.
</event>
<event>
 7    1  0.5743890E-009  0.4614232E+02  0.7816164E-02  0.1320468E+00
        -11   -1    0    0    0    0  0.00000000000E+00  0.00000000000E+00  0.45593999997E+02  0.45594000000E+02  0.51100000000E-03 0. -1.
         11   -1    0    0    0    0 -0.00000000000E+00 -0.00000000000E+00 -0.45593999997E+02  0.45594000000E+02  0.51100000000E-03 0.  1.
    9900012    2    1    2    0    0 -0.22422508128E+02 -0.16237914290E+02 -0.35534135168E+02  0.46142317706E+02  0.99999994952E+01 0.  0.
         12    1    1    2    0    0  0.22422508128E+02  0.16237914290E+02  0.35534135168E+02  0.45045682294E+02  0.00000000000E+00 0. -1.
         11    1    3    3    0    0 -0.94007673263E+00 -0.16289161003E+01 -0.10167066236E+01  0.21379439994E+01  0.51100000000E-03 0. -1.
        -11    1    3    3    0    0 -0.30244635111E+01 -0.37327157613E+01 -0.11987591094E+02  0.12914444897E+02  0.51100000000E-03 0.  1.
        -12    1    3    3    0    0 -0.18457967884E+02 -0.10876282429E+02 -0.22529837450E+02  0.31089928810E+02  0.00000000000E+00 0.  1.
</event>
<event>
 7    1  0.5743890E-009  0.4614232E+02  0.7816164E-02  0.1320468E+00
        -11   -1    0    0    0    0  0.00000000000E+00  0.00000000000E+00  0.45593999997E+02  0.45594000000E+02  0.51100000000E-03 0. -1.
         11   -1    0    0    0    0 -0.00000000000E+00 -0.00000000000E+00 -0.45593999997E+02  0.45594000000E+02  0.51100000000E-03 0.  1.
    9900012    2    1    2    0    0 -0.56482403915E+00 -0.22605727032E+02 -0.38958639132E+02  0.46142317811E+02  0.10000000458E+02 0.  0.
         12    1    1    2    0    0  0.56482403915E+00  0.22605727032E+02  0.38958639132E+02  0.45045682189E+02  0.00000000000E+00 0. -1.
         11    1    3    3    0    0 -0.31215245167E+01 -0.18198133799E+02 -0.26137593749E+02  0.32001403037E+02  0.51100000000E-03 0. -1.
        -11    1    3    3    0    0 -0.32846928819E+00 -0.16336747266E+01 -0.19988735988E+01  0.26023606803E+01  0.51100000000E-03 0.  1.
         12    1    3    3    0    0  0.28851697658E+01 -0.27739185057E+01 -0.10822171785E+02  0.11538554094E+02  0.00000000000E+00 0. -1.
</event>
<event>
 7    1  0.5743890E-009  0.4614232E+02  0.7816164E-02  0.1320468E+00
        -11   -1    0    0    0    0  0.00000000000E+00  0.00000000000E+00  0.45593999997E+02  0.45594000000E+02  0.51100000000E-03 0. -1.
         11   -1    0    0    0    0 -0.00000000000E+00 -0.00000000000E+00 -0.45593999997E+02  0.45594000000E+02  0.51100000000E-03 0.  1.
    9900012    2    1    2    0    0  0.19214238734E+02 -0.37652213160E+02 -0.15563976213E+02  0.46142317837E+02  0.10000000691E+02 0.  0.
         12    1    1    2    0    0 -0.19214238734E+02  0.37652213160E+02  0.15563976213E+02  0.45045682163E+02  0.00000000000E+00 0. -1.
         11    1    3    3    0    0 -0.36314308050E+00 -0.71664513057E+00 -0.53013092387E+00  0.96254464709E+00  0.51100000000E-03 0. -1.
        -11    1    3    3    0    0  0.28371006064E+01 -0.12081156649E+02 -0.23048440560E+01  0.12622035978E+02  0.51100000000E-03 0.  1.
         12    1    3    3    0    0  0.16740281208E+02 -0.24854411380E+02 -0.12729001233E+02  0.32557737212E+02  0.00000000000E+00 0. -1.
</event>
<event>
 7    1  0.5743890E-009  0.4614232E+02  0.7816164E-02  0.1320468E+00
        -11   -1    0    0    0    0  0.00000000000E+00  0.00000000000E+00  0.45593999997E+02  0.45594000000E+02  0.51100000000E-03 0. -1.
         11   -1    0    0    0    0 -0.00000000000E+00 -0.00000000000E+00 -0.45593999997E+02  0.45594000000E+02  0.51100000000E-03 0.  1.
    9900012    2    1    2    0    0  0.20094186884E+02 -0.17342154910E+02  0.36394875210E+02  0.46142316244E+02  0.99999861680E+01 0.  0.
        -12    1    1    2    0    0 -0.20094186884E+02  0.17342154910E+02 -0.36394875210E+02  0.45045683756E+02  0.00000000000E+00 0.  1.
         11    1    3    3    0    0  0.26430654303E+01 -0.94398235182E+00  0.79685712158E+00  0.29175124820E+01  0.51100000000E-03 0. -1.
        -11    1    3    3    0    0  0.28221578167E+01 -0.36857151124E+01  0.10771927134E+02  0.11729598675E+02  0.51100000000E-03 0.  1.
         12    1    3    3    0    0  0.14628963637E+02 -0.12712457446E+02  0.24826090954E+02  0.31495205087E+02  0.00000000000E+00 0. -1.
</event>
<event>
 7    1  0.5743890E-009  0.4614232E+02  0.7816164E-02  0.1320468E+00
        -11   -1    0    0    0    0  0.00000000000E+00  0.00000000000E+00  0.45593999997E+02  0.45594000000E+02  0.51100000000E-03 0. -1.
         11   -1    0    0    0    0 -0.00000000000E+00 -0.00000000000E+00 -0.45593999997E+02  0.45594000000E+02  0.51100000000E-03 0.  1.
    9900012    2    1    2    0    0 -0.25853826957E+01 -0.31896491618E+02 -0.31702414540E+02  0.46142317977E+02  0.10000001973E+02 0.  0.
         12    1    1    2    0    0  0.25853826957E+01  0.31896491618E+02  0.31702414540E+02  0.45045682023E+02  0.00000000000E+00 0. -1.
         11    1    3    3    0    0 -0.56827216197E+01 -0.16954309232E+02 -0.18822202802E+02  0.25961842098E+02  0.51100000000E-03 0.  1.
        -11    1    3    3    0    0 -0.54610668311E+00 -0.16317818203E+01 -0.17135059601E+01  0.24283836919E+01  0.51100000000E-03 0. -1.
         12    1    3    3    0    0  0.36434456071E+01 -0.13310400566E+02 -0.11166705778E+02  0.17752092188E+02  0.00000000000E+00 0. -1.
</event>
<event>
 7    1  0.5743890E-009  0.4614232E+02  0.7816164E-02  0.1320468E+00
        -11   -1    0    0    0    0  0.00000000000E+00  0.00000000000E+00  0.45593999997E+02  0.45594000000E+02  0.51100000000E-03 0. -1.
         11   -1    0    0    0    0 -0.00000000000E+00 -0.00000000000E+00 -0.45593999997E+02  0.45594000000E+02  0.51100000000E-03 0.  1.
    9900012    2    1    2    0    0  0.53824355259E+01 -0.11863302766E+02  0.43120818358E+02  0.46142317181E+02  0.99999947113E+01 0.  0.
        -12    1    1    2    0    0 -0.53824355259E+01  0.11863302766E+02 -0.43120818358E+02  0.45045682819E+02  0.00000000000E+00 0.  1.
         11    1    3    3    0    0  0.31769592117E+01 -0.12239886131E+02  0.28713233396E+02  0.31374474572E+02  0.51100000000E-03 0. -1.
        -11    1    3    3    0    0  0.36505624847E+00  0.84573442673E+00  0.87844972869E+01  0.88326624316E+01  0.51100000000E-03 0.  1.
         12    1    3    3    0    0  0.18404200657E+01 -0.46915106199E+00  0.56230876756E+01  0.59351801780E+01  0.00000000000E+00 0. -1.
</event>
<event>
 7    1  0.5743890E-009  0.4614232E+02  0.7816164E-02  0.1320468E+00
        -11   -1    0    0    0    0  0.00000000000E+00  0.00000000000E+00  0.45593999997E+02  0.45594000000E+02  0.51100000000E-03 0. -1.
         11   -1    0    0    0    0 -0.00000000000E+00 -0.00000000000E+00 -0.45593999997E+02  0.45594000000E+02  0.51100000000E-03 0.  1.
    9900012    2    1    2    0    0 -0.32042728258E+02 -0.20264405162E+02 -0.24325515764E+02  0.46142320207E+02  0.10000022308E+02 0.  0.
         12    1    1    2    0    0  0.32042728258E+02  0.20264405162E+02  0.24325515764E+02  0.45045679793E+02  0.00000000000E+00 0. -1.
         11    1    3    3    0    0 -0.95341538869E+01 -0.75005557594E+01 -0.37498362861E+01  0.12697231961E+02  0.51100000000E-03 0. -1.
        -11    1    3    3    0    0 -0.10665537805E+02 -0.33161045422E+01 -0.77410926004E+01  0.13589509223E+02  0.51100000000E-03 0.  1.
        -12    1    3    3    0    0 -0.11843036566E+02 -0.94477448607E+01 -0.12834586877E+02  0.19855579024E+02  0.00000000000E+00 0.  1.
</event>
<event>
 7    1  0.5743890E-009  0.4614232E+02  0.7816164E-02  0.1320468E+00
        -11   -1    0    0    0    0  0.00000000000E+00  0.00000000000E+00  0.45593999997E+02  0.45594000000E+02  0.51100000000E-03 0. -1.
         11   -1    0    0    0    0 -0.00000000000E+00 -0.00000000000E+00 -0.45593999997E+02  0.45594000000E+02  0.51100000000E-03 0.  1.
    9900012    2    1    2    0    0 -0.66799540883E+01 -0.29615448768E+02  0.33277872540E+02  0.46142318818E+02  0.10000009640E+02 0.  0.
        -12    1    1    2    0    0  0.66799540883E+01  0.29615448768E+02 -0.33277872540E+02  0.45045681182E+02  0.00000000000E+00 0.  1.
         11    1    3    3    0    0 -0.35243827089E+01 -0.21120523258E+02  0.24054115986E+02  0.32204010190E+02  0.51100000000E-03 0. -1.
        -11    1    3    3    0    0 -0.89715110292E+00 -0.71668903764E+01  0.44238587662E+01  0.84699306026E+01  0.51100000000E-03 0.  1.
        -12    1    3    3    0    0 -0.22584202765E+01 -0.13280351331E+01  0.47998977878E+01  0.54683780258E+01  0.00000000000E+00 0.  1.
</event>
<event>
 7    1  0.5743890E-009  0.4614232E+02  0.7816164E-02  0.1320468E+00
        -11   -1    0    0    0    0  0.00000000000E+00  0.00000000000E+00  0.45593999997E+02  0.45594000000E+02  0.51100000000E-03 0. -1.
         11   -1    0    0    0    0 -0.00000000000E+00 -0.00000000000E+00 -0.45593999997E+02  0.45594000000E+02  0.51100000000E-03 0.  1.
    9900012    2    1    2    0    0  0.18015638383E+02  0.29548084490E+02  0.28835062944E+02  0.46142318983E+02  0.10000011138E+02 0.  0.
        -12    1    1    2    0    0 -0.18015638383E+02 -0.29548084490E+02 -0.28835062944E+02  0.45045681017E+02  0.00000000000E+00 0.  1.
         11    1    3    3    0    0  0.19916203071E+01  0.31578633217E+01  0.22612050297E+01  0.43648253864E+01  0.51100000000E-03 0. -1.
        -11    1    3    3    0    0 -0.12591150093E+00  0.51200916415E+01  0.69644133312E+01  0.86448970747E+01  0.51100000000E-03 0.  1.
        -12    1    3    3    0    0  0.16149929577E+02  0.21270129526E+02  0.19609444583E+02  0.33132596521E+02  0.00000000000E+00 0.  1.
</event>
<event>
 7    1  0.5743890E-009  0.4614232E+02  0.7816164E-02  0.1320468E+00
        -11   -1    0    0    0    0  0.00000000000E+00  0.00000000000E+00  0.45593999997E+02  0.45594000000E+02  0.51100000000E-03 0. -1.
         11   -1    0    0    0    0 -0.00000000000E+00 -0.00000000000E+00 -0.45593999997E+02  0.45594000000E+02  0.51100000000E-03 0.  1.
    9900012    2    1    2    0    0  0.39815263673E+02  0.12074762618E+02  0.17264360932E+02  0.46142320163E+02  0.10000021898E+02 0.  0.
        -12    1    1    2    0    0 -0.39815263673E+02 -0.12074762618E+02 -0.17264360932E+02  0.45045679837E+02  0.00000000000E+00 0.  1.
         11    1    3    3    0    0  0.23750310954E+02  0.90610469084E+01  0.11386370715E+02  0.27853712137E+02  0.51100000000E-03 0. -1.
        -11    1    3    3    0    0  0.11941504211E+02  0.99516497939E+00  0.17411499087E+01  0.12108735666E+02  0.51100000000E-03 0.  1.
         12    1    3    3    0    0  0.41234485083E+01  0.20185507298E+01  0.41368403083E+01  0.61798723600E+01  0.00000000000E+00 0. -1.
</event>
<event>
 7    1  0.5743890E-009  0.4614231E+02  0.7816164E-02  0.1320468E+00
        -11   -1    0    0    0    0  0.00000000000E+00  0.00000000000E+00  0.45593999997E+02  0.45594000000E+02  0.51100000000E-03 0. -1.
         11   -1    0    0    0    0 -0.00000000000E+00 -0.00000000000E+00 -0.45593999997E+02  0.45594000000E+02  0.51100000000E-03 0.  1.
    9900012    2    1    2    0    0  0.13720875845E+01  0.17051843719E+02  0.41670928288E+02  0.46142309164E+02  0.99999216030E+01 0.  0.
        -12    1    1    2    0    0 -0.13720875845E+01 -0.17051843719E+02 -0.41670928288E+02  0.45045690836E+02  0.00000000000E+00 0.  1.
         11    1    3    3    0    0  0.21191497184E+01  0.16805049467E+02  0.38590543264E+02  0.42144163449E+02  0.51100000000E-03 0. -1.
        -11    1    3    3    0    0 -0.12647340810E+00  0.13074100492E+01  0.14491314447E+01  0.19558371008E+01  0.51100000000E-03 0.  1.
        -12    1    3    3    0    0 -0.62058872585E+00 -0.10606157977E+01  0.16312535791E+01  0.20423086144E+01  0.00000000000E+00 0.  1.
</event>
<event>
 7    1  0.5743890E-009  0.4614232E+02  0.7816164E-02  0.1320468E+00
        -11   -1    0    0    0    0  0.00000000000E+00  0.00000000000E+00  0.45593999997E+02  0.45594000000E+02  0.51100000000E-03 0. -1.
         11   -1    0    0    0    0 -0.00000000000E+00 -0.00000000000E+00 -0.45593999997E+02  0.45594000000E+02  0.51100000000E-03 0.  1.
    9900012    2    1    2    0    0 -0.27833650960E+02  0.35319579696E+02 -0.26322310764E+01  0.46142317897E+02  0.10000001240E+02 0.  0.
         12    1    1    2    0    0  0.27833650960E+02 -0.35319579696E+02  0.26322310764E+01  0.45045682103E+02  0.00000000000E+00 0. -1.
         11    1    3    3    0    0 -0.59128907016E+00  0.16180630431E+00 -0.11427431287E+01  0.12967907171E+01  0.51100000000E-03 0. -1.
        -11    1    3    3    0    0 -0.17080411330E+02  0.25888912345E+02 -0.20169459630E+01  0.31081253271E+02  0.51100000000E-03 0.  1.
         12    1    3    3    0    0 -0.10161950560E+02  0.92688610467E+01  0.52745801532E+00  0.13764273909E+02  0.00000000000E+00 0. -1.
</event>
<event>
 7    1  0.5743890E-009  0.4614232E+02  0.7816164E-02  0.1320468E+00
        -11   -1    0    0    0    0  0.00000000000E+00  0.00000000000E+00  0.45593999997E+02  0.45594000000E+02  0.51100000000E-03 0. -1.
         11   -1    0    0    0    0 -0.00000000000E+00 -0.00000000000E+00 -0.45593999997E+02  0.45594000000E+02  0.51100000000E-03 0.  1.
    9900012    2    1    2    0    0 -0.10719889834E+02 -0.20791363695E+02  0.38495670309E+02  0.46142317911E+02  0.10000001368E+02 0.  0.
        -12    1    1    2    0    0  0.10719889834E+02  0.20791363695E+02 -0.38495670309E+02  0.45045682089E+02  0.00000000000E+00 0.  1.
         11    1    3    3    0    0 -0.53877589506E+01 -0.17706582703E+02  0.27122555298E+02  0.32835712627E+02  0.51100000000E-03 0. -1.
        -11    1    3    3    0    0 -0.20834971745E+01 -0.89647571952E+00  0.15941494617E+01  0.27723531447E+01  0.51100000000E-03 0.  1.
         12    1    3    3    0    0 -0.32486337090E+01 -0.21883052718E+01  0.97789655490E+01  0.10534252140E+02  0.00000000000E+00 0. -1.
</event>
<event>
 7    1  0.5743890E-009  0.4614232E+02  0.7816164E-02  0.1320468E+00
        -11   -1    0    0    0    0  0.00000000000E+00  0.00000000000E+00  0.45593999997E+02  0.45594000000E+02  0.51100000000E-03 0. -1.
         11   -1    0    0    0    0 -0.00000000000E+00 -0.00000000000E+00 -0.45593999997E+02  0.45594000000E+02  0.51100000000E-03 0.  1.
    9900012    2    1    2    0    0  0.11672910994E+02  0.20740467020E+02  0.38245125688E+02  0.46142318052E+02  0.10000002651E+02 0.  0.
        -12    1    1    2    0    0 -0.11672910994E+02 -0.20740467020E+02 -0.38245125688E+02  0.45045681948E+02  0.00000000000E+00 0.  1.
         11    1    3    3    0    0 -0.81801935162E-01  0.39832181939E+01  0.99297970674E+01  0.10699233094E+02  0.51100000000E-03 0. -1.
        -11    1    3    3    0    0  0.58847203326E+00 -0.19110415476E+00  0.26561562386E+01  0.27272671958E+01  0.51100000000E-03 0.  1.
         12    1    3    3    0    0  0.11166240896E+02  0.16948352981E+02  0.25659172382E+02  0.32715817762E+02  0.00000000000E+00 0. -1.
</event>
<event>
 7    1  0.5743890E-009  0.4614232E+02  0.7816164E-02  0.1320468E+00
        -11   -1    0    0    0    0  0.00000000000E+00  0.00000000000E+00  0.45593999997E+02  0.45594000000E+02  0.51100000000E-03 0. -1.
         11   -1    0    0    0    0 -0.00000000000E+00 -0.00000000000E+00 -0.45593999997E+02  0.45594000000E+02  0.51100000000E-03 0.  1.
    9900012    2    1    2    0    0 -0.13525704768E+02 -0.42300209282E+01  0.42758339277E+02  0.46142319360E+02  0.10000014584E+02 0.  0.
        -12    1    1    2    0    0  0.13525704768E+02  0.42300209282E+01 -0.42758339277E+02  0.45045680640E+02  0.00000000000E+00 0.  1.
         11    1    3    3    0    0 -0.72690053736E+01 -0.28022221945E+01  0.26188561779E+02  0.27322731501E+02  0.51100000000E-03 0. -1.
        -11    1    3    3    0    0 -0.12650346140E+01 -0.33440722450E+01  0.67610497420E+01  0.76481975412E+01  0.51100000000E-03 0.  1.
         12    1    3    3    0    0 -0.49916647807E+01  0.19162735112E+01  0.98087277563E+01  0.11171390319E+02  0.00000000000E+00 0. -1.
</event>
<event>
 7    1  0.5743890E-009  0.4614231E+02  0.7816164E-02  0.1320468E+00
        -11   -1    0    0    0    0  0.00000000000E+00  0.00000000000E+00  0.45593999997E+02  0.45594000000E+02  0.51100000000E-03 0. -1.
         11   -1    0    0    0    0 -0.00000000000E+00 -0.00000000000E+00 -0.45593999997E+02  0.45594000000E+02  0.51100000000E-03 0.  1.
    9900012    2    1    2    0    0 -0.24822004038E+01 -0.31797900967E+01 -0.44864701351E+02  0.46142314178E+02  0.99999673242E+01 0.  0.
         12    1    1    2    0    0  0.24822004038E+01  0.31797900967E+01  0.44864701351E+02  0.45045685822E+02  0.00000000000E+00 0. -1.
         11    1    3    3    0    0  0.12066853045E+01 -0.38553910892E+01 -0.19416291342E+02  0.19832107795E+02  0.51100000000E-03 0.  1.
        -11    1    3    3    0    0 -0.17257816785E+00  0.23606956580E+01 -0.55551122116E+01  0.60383722275E+01  0.51100000000E-03 0. -1.
         12    1    3    3    0    0 -0.35163075405E+01 -0.16850946655E+01 -0.19893297798E+02  0.20271834155E+02  0.00000000000E+00 0. -1.
</event>
<event>
 7    1  0.5743890E-009  0.4614232E+02  0.7816164E-02  0.1320468E+00
        -11   -1    0    0    0    0  0.00000000000E+00  0.00000000000E+00  0.45593999997E+02  0.45594000000E+02  0.51100000000E-03 0. -1.
         11   -1    0    0    0    0 -0.00000000000E+00 -0.00000000000E+00 -0.45593999997E+02  0.45594000000E+02  0.51100000000E-03 0.  1.
    9900012    2    1    2    0    0 -0.18150274943E+02  0.25378360047E+02 -0.32490304517E+02  0.46142317335E+02  0.99999961131E+01 0.  0.
         12    1    1    2    0    0  0.18150274943E+02 -0.25378360047E+02  0.32490304517E+02  0.45045682665E+02  0.00000000000E+00 0. -1.
         11    1    3    3    0    0 -0.10110175414E+01  0.61772911377E+01 -0.71394745800E+01  0.94949028330E+01  0.51100000000E-03 0. -1.
        -11    1    3    3    0    0 -0.37894253175E+01  0.69297571166E+01 -0.10899155698E+02  0.13460047293E+02  0.51100000000E-03 0.  1.
         12    1    3    3    0    0 -0.13349832084E+02  0.12271311792E+02 -0.14451674239E+02  0.23187367209E+02  0.00000000000E+00 0. -1.
</event>
<event>
 7    1  0.5743890E-009  0.4614232E+02  0.7816164E-02  0.1320468E+00
        -11   -1    0    0    0    0  0.00000000000E+00  0.00000000000E+00  0.45593999997E+02  0.45594000000E+02  0.51100000000E-03 0.  1.
         11   -1    0    0    0    0 -0.00000000000E+00 -0.00000000000E+00 -0.45593999997E+02  0.45594000000E+02  0.51100000000E-03 0. -1.
    9900012    2    1    2    0    0 -0.32770612327E+02  0.30098765570E+02  0.70188802039E+01  0.46142318737E+02  0.10000008903E+02 0.  0.
         12    1    1    2    0    0  0.32770612327E+02 -0.30098765570E+02 -0.70188802039E+01  0.45045681263E+02  0.00000000000E+00 0. -1.
         11    1    3    3    0    0 -0.88731826005E+00 -0.13789384779E-02 -0.70090551294E+00  0.11307539057E+01  0.51100000000E-03 0. -1.
        -11    1    3    3    0    0 -0.27135669455E+02  0.24634796062E+02  0.39863120528E+01  0.36866087639E+02  0.51100000000E-03 0.  1.
         12    1    3    3    0    0 -0.47476246114E+01  0.54653484464E+01  0.37334736640E+01  0.81454771924E+01  0.00000000000E+00 0. -1.
</event>
<event>
 7    1  0.5743890E-009  0.4614232E+02  0.7816164E-02  0.1320468E+00
        -11   -1    0    0    0    0  0.00000000000E+00  0.00000000000E+00  0.45593999997E+02  0.45594000000E+02  0.51100000000E-03 0. -1.
         11   -1    0    0    0    0 -0.00000000000E+00 -0.00000000000E+00 -0.45593999997E+02  0.45594000000E+02  0.51100000000E-03 0.  1.
    9900012    2    1    2    0    0 -0.23228051673E+02 -0.25159956313E+02 -0.29266834496E+02  0.46142318880E+02  0.10000010199E+02 0.  0.
         12    1    1    2    0    0  0.23228051673E+02  0.25159956313E+02  0.29266834496E+02  0.45045681120E+02  0.00000000000E+00 0. -1.
         11    1    3    3    0    0 -0.11775921977E+02 -0.12574309495E+02 -0.13529061003E+02  0.21904818866E+02  0.51100000000E-03 0.  1.
        -11    1    3    3    0    0 -0.77953368924E+01 -0.84299765224E+01 -0.58036506781E+01  0.12865229997E+02  0.51100000000E-03 0. -1.
        -12    1    3    3    0    0 -0.36567928038E+01 -0.41556702960E+01 -0.99341228143E+01  0.11372270016E+02  0.00000000000E+00 0.  1.
</event>
<event>
 7    1  0.5743890E-009  0.4614232E+02  0.7816164E-02  0.1320468E+00
        -11   -1    0    0    0    0  0.00000000000E+00  0.00000000000E+00  0.45593999997E+02  0.45594000000E+02  0.51100000000E-03 0.  1.
         11   -1    0    0    0    0 -0.00000000000E+00 -0.00000000000E+00 -0.45593999997E+02  0.45594000000E+02  0.51100000000E-03 0. -1.
    9900012    2    1    2    0    0 -0.46020227421E+01  0.44758733009E+02  0.21426443040E+01  0.46142315206E+02  0.99999767047E+01 0.  0.
         12    1    1    2    0    0  0.46020227421E+01 -0.44758733009E+02 -0.21426443040E+01  0.45045684794E+02  0.00000000000E+00 0. -1.
         11    1    3    3    0    0 -0.27882271339E+01  0.97236042447E+01 -0.86412209467E+00  0.10152309950E+02  0.51100000000E-03 0. -1.
        -11    1    3    3    0    0  0.13832156495E+01  0.28008187532E+02  0.12362678940E+01  0.28069560255E+02  0.51100000000E-03 0.  1.
        -12    1    3    3    0    0 -0.31970112577E+01  0.70269412324E+01  0.17704985047E+01  0.79204450014E+01  0.00000000000E+00 0.  1.
</event>
<event>
 7    1  0.5743890E-009  0.4614232E+02  0.7816164E-02  0.1320468E+00
        -11   -1    0    0    0    0  0.00000000000E+00  0.00000000000E+00  0.45593999997E+02  0.45594000000E+02  0.51100000000E-03 0. -1.
         11   -1    0    0    0    0 -0.00000000000E+00 -0.00000000000E+00 -0.45593999997E+02  0.45594000000E+02  0.51100000000E-03 0.  1.
    9900012    2    1    2    0    0 -0.20831126854E+02 -0.18282615435E+02 -0.35509485925E+02  0.46142318034E+02  0.10000002491E+02 0.  0.
         12    1    1    2    0    0  0.20831126854E+02  0.18282615435E+02  0.35509485925E+02  0.45045681966E+02  0.00000000000E+00 0. -1.
         11    1    3    3    0    0 -0.34897763247E+01 -0.23940418339E+01 -0.19607669824E+01  0.46641807983E+01  0.51100000000E-03 0. -1.
        -11    1    3    3    0    0 -0.14410440575E+02 -0.12969094776E+02 -0.31166660284E+02  0.36704481067E+02  0.51100000000E-03 0.  1.
         12    1    3    3    0    0 -0.29309099541E+01 -0.29194788250E+01 -0.23820586577E+01  0.47736561687E+01  0.00000000000E+00 0. -1.
</event>
<event>
 7    1  0.5743890E-009  0.4614232E+02  0.7816164E-02  0.1320468E+00
        -11   -1    0    0    0    0  0.00000000000E+00  0.00000000000E+00  0.45593999997E+02  0.45594000000E+02  0.51100000000E-03 0. -1.
         11   -1    0    0    0    0 -0.00000000000E+00 -0.00000000000E+00 -0.45593999997E+02  0.45594000000E+02  0.51100000000E-03 0.  1.
    9900012    2    1    2    0    0 -0.77512179019E+01 -0.42477640429E+01  0.44169996781E+02  0.46142317699E+02  0.99999994347E+01 0.  0.
        -12    1    1    2    0    0  0.77512179019E+01  0.42477640429E+01 -0.44169996781E+02  0.45045682301E+02  0.00000000000E+00 0.  1.
         11    1    3    3    0    0 -0.18757692505E+01  0.48999928686E+00  0.17385763518E+02  0.17493524028E+02  0.51100000000E-03 0. -1.
        -11    1    3    3    0    0 -0.46168138336E+01 -0.62337365353E+01  0.24170527925E+02  0.25384815572E+02  0.51100000000E-03 0.  1.
        -12    1    3    3    0    0 -0.12586348178E+01  0.14959732055E+01  0.26137053381E+01  0.32639780990E+01  0.00000000000E+00 0.  1.
</event>
<event>
 7    1  0.5743890E-009  0.4614232E+02  0.7816164E-02  0.1320468E+00
        -11   -1    0    0    0    0  0.00000000000E+00  0.00000000000E+00  0.45593999997E+02  0.45594000000E+02  0.51100000000E-03 0. -1.
         11   -1    0    0    0    0 -0.00000000000E+00 -0.00000000000E+00 -0.45593999997E+02  0.45594000000E+02  0.51100000000E-03 0.  1.
    9900012    2    1    2    0    0  0.31758621323E+01  0.68589900597E+01 -0.44407001145E+02  0.46142316571E+02  0.99999891482E+01 0.  0.
         12    1    1    2    0    0 -0.31758621323E+01 -0.68589900597E+01  0.44407001145E+02  0.45045683429E+02  0.00000000000E+00 0. -1.
         11    1    3    3    0    0  0.46891939327E+01  0.19262621497E+01 -0.12635911893E+02  0.13614892407E+02  0.51100000000E-03 0. -1.
        -11    1    3    3    0    0  0.16585893527E+01  0.23846230242E+01 -0.13368928047E+02  0.13680847305E+02  0.51100000000E-03 0.  1.
        -12    1    3    3    0    0 -0.31719211531E+01  0.25481048858E+01 -0.18402161205E+02  0.18846576859E+02  0.00000000000E+00 0.  1.
</event>
<event>
 7    1  0.5743890E-009  0.4614232E+02  0.7816164E-02  0.1320468E+00
        -11   -1    0    0    0    0  0.00000000000E+00  0.00000000000E+00  0.45593999997E+02  0.45594000000E+02  0.51100000000E-03 0.  1.
         11   -1    0    0    0    0 -0.00000000000E+00 -0.00000000000E+00 -0.45593999997E+02  0.45594000000E+02  0.51100000000E-03 0. -1.
    9900012    2    1    2    0    0 -0.10833297210E+02 -0.43552557961E+02 -0.38636529766E+01  0.46142318213E+02  0.10000004118E+02 0.  0.
         12    1    1    2    0    0  0.10833297210E+02  0.43552557961E+02  0.38636529766E+01  0.45045681787E+02  0.00000000000E+00 0. -1.
         11    1    3    3    0    0 -0.91080366435E+01 -0.33447379828E+02 -0.34663110177E+01  0.34838181083E+02  0.51100000000E-03 0. -1.
        -11    1    3    3    0    0 -0.33208641438E+01 -0.66826547192E+01  0.28056890590E+00  0.74675787194E+01  0.51100000000E-03 0.  1.
         12    1    3    3    0    0  0.15956035776E+01 -0.34225234137E+01 -0.67791086477E+00  0.38365584102E+01  0.00000000000E+00 0. -1.
</event>
<event>
 7    1  0.5743890E-009  0.4614231E+02  0.7816164E-02  0.1320468E+00
        -11   -1    0    0    0    0  0.00000000000E+00  0.00000000000E+00  0.45593999997E+02  0.45594000000E+02  0.51100000000E-03 0. -1.
         11   -1    0    0    0    0 -0.00000000000E+00 -0.00000000000E+00 -0.45593999997E+02  0.45594000000E+02  0.51100000000E-03 0.  1.
    9900012    2    1    2    0    0 -0.24977382756E+02 -0.19133962178E+01  0.37437722308E+02  0.46142314457E+02  0.99999698675E+01 0.  0.
        -12    1    1    2    0    0  0.24977382756E+02  0.19133962178E+01 -0.37437722308E+02  0.45045685543E+02  0.00000000000E+00 0.  1.
         11    1    3    3    0    0 -0.97858343856E+01 -0.76044982806E+00  0.91421061409E+01  0.13413386728E+02  0.51100000000E-03 0. -1.
        -11    1    3    3    0    0 -0.77737475253E+01 -0.28388829391E+01  0.18953079762E+02  0.20681142127E+02  0.51100000000E-03 0.  1.
         12    1    3    3    0    0 -0.74178008456E+01  0.16859365493E+01  0.93425364051E+01  0.12047785602E+02  0.00000000000E+00 0. -1.
</event>
<event>
 7    1  0.5743890E-009  0.4614232E+02  0.7816164E-02  0.1320468E+00
        -11   -1    0    0    0    0  0.00000000000E+00  0.00000000000E+00  0.45593999997E+02  0.45594000000E+02  0.51100000000E-03 0. -1.
         11   -1    0    0    0    0 -0.00000000000E+00 -0.00000000000E+00 -0.45593999997E+02  0.45594000000E+02  0.51100000000E-03 0.  1.
    9900012    2    1    2    0    0 -0.84387286684E+01  0.16157328894E+02  0.41192744385E+02  0.46142316428E+02  0.99999878401E+01 0.  0.
        -12    1    1    2    0    0  0.84387286684E+01 -0.16157328894E+02 -0.41192744385E+02  0.45045683572E+02  0.00000000000E+00 0.  1.
         11    1    3    3    0    0 -0.72356686358E+00  0.39428136609E+01  0.17704397092E+02  0.18152548174E+02  0.51100000000E-03 0. -1.
        -11    1    3    3    0    0 -0.24322702450E+01  0.77169479422E+00  0.50107175162E+01  0.56230544803E+01  0.51100000000E-03 0.  1.
        -12    1    3    3    0    0 -0.52828915598E+01  0.11442820439E+02  0.18477629777E+02  0.22366713773E+02  0.00000000000E+00 0.  1.
</event>
<event>
 7    1  0.5743890E-009  0.4614232E+02  0.7816164E-02  0.1320468E+00
        -11   -1    0    0    0    0  0.00000000000E+00  0.00000000000E+00  0.45593999997E+02  0.45594000000E+02  0.51100000000E-03 0. -1.
         11   -1    0    0    0    0 -0.00000000000E+00 -0.00000000000E+00 -0.45593999997E+02  0.45594000000E+02  0.51100000000E-03 0.  1.
    9900012    2    1    2    0    0 -0.14101839157E+02  0.20475144098E+02 -0.37563546829E+02  0.46142318255E+02  0.10000004507E+02 0.  0.
         12    1    1    2    0    0  0.14101839157E+02 -0.20475144098E+02  0.37563546829E+02  0.45045681745E+02  0.00000000000E+00 0. -1.
         11    1    3    3    0    0 -0.11610785975E+02  0.14978244084E+02 -0.25672406267E+02  0.31909725643E+02  0.51100000000E-03 0. -1.
        -11    1    3    3    0    0 -0.10297549284E+01  0.60381056844E+01 -0.10434480664E+02  0.12099483561E+02  0.51100000000E-03 0.  1.
         12    1    3    3    0    0 -0.14612982536E+01 -0.54120567079E+00 -0.14566598989E+01  0.21331090514E+01  0.00000000000E+00 0. -1.
</event>
<event>
 7    1  0.5743890E-009  0.4614232E+02  0.7816164E-02  0.1320468E+00
        -11   -1    0    0    0    0  0.00000000000E+00  0.00000000000E+00  0.45593999997E+02  0.45594000000E+02  0.51100000000E-03 0. -1.
         11   -1    0    0    0    0 -0.00000000000E+00 -0.00000000000E+00 -0.45593999997E+02  0.45594000000E+02  0.51100000000E-03 0.  1.
    9900012    2    1    2    0    0 -0.21064014943E+02  0.28924408086E+01 -0.39712145492E+02  0.46142318310E+02  0.10000005003E+02 0.  0.
         12    1    1    2    0    0  0.21064014943E+02 -0.28924408086E+01  0.39712145492E+02  0.45045681690E+02  0.00000000000E+00 0. -1.
         11    1    3    3    0    0 -0.14303964455E+01  0.72246163004E+00 -0.12520733503E+01  0.20336353493E+01  0.51100000000E-03 0. -1.
        -11    1    3    3    0    0 -0.82296643765E+01  0.27110228041E+01 -0.89033750536E+01  0.12423651154E+02  0.51100000000E-03 0.  1.
         12    1    3    3    0    0 -0.11403954121E+02 -0.54104362560E+00 -0.29556697088E+02  0.31685031806E+02  0.00000000000E+00 0. -1.
</event>
<event>
 7    1  0.5743890E-009  0.4614232E+02  0.7816164E-02  0.1320468E+00
        -11   -1    0    0    0    0  0.00000000000E+00  0.00000000000E+00  0.45593999997E+02  0.45594000000E+02  0.51100000000E-03 0. -1.
         11   -1    0    0    0    0 -0.00000000000E+00 -0.00000000000E+00 -0.45593999997E+02  0.45594000000E+02  0.51100000000E-03 0.  1.
    9900012    2    1    2    0    0  0.30153654640E+02 -0.66400593091E+01 -0.32799088854E+02  0.46142317572E+02  0.99999982733E+01 0.  0.
         12    1    1    2    0    0 -0.30153654640E+02  0.66400593091E+01  0.32799088854E+02  0.45045682428E+02  0.00000000000E+00 0. -1.
         11    1    3    3    0    0  0.75818643135E+01 -0.43415934368E+01 -0.78298954130E+01  0.11732065567E+02  0.51100000000E-03 0. -1.
        -11    1    3    3    0    0  0.89723767865E+01 -0.14862590502E+01 -0.14950278693E+02  0.17499238395E+02  0.51100000000E-03 0.  1.
        -12    1    3    3    0    0  0.13599413540E+02 -0.81220682200E+00 -0.10018914748E+02  0.16911013609E+02  0.00000000000E+00 0.  1.
</event>
<event>
 7    1  0.5743890E-009  0.4614232E+02  0.7816164E-02  0.1320468E+00
        -11   -1    0    0    0    0  0.00000000000E+00  0.00000000000E+00  0.45593999997E+02  0.45594000000E+02  0.51100000000E-03 0. -1.
         11   -1    0    0    0    0 -0.00000000000E+00 -0.00000000000E+00 -0.45593999997E+02  0.45594000000E+02  0.51100000000E-03 0.  1.
    9900012    2    1    2    0    0 -0.41358038586E+02  0.12968837995E+02  0.12265210910E+02  0.46142317485E+02  0.99999974781E+01 0.  0.
        -12    1    1    2    0    0  0.41358038586E+02 -0.12968837995E+02 -0.12265210910E+02  0.45045682515E+02  0.00000000000E+00 0.  1.
         11    1    3    3    0    0 -0.35754190966E+02  0.11159049679E+02  0.79029772751E+01  0.38279806836E+02  0.51100000000E-03 0. -1.
        -11    1    3    3    0    0 -0.41463730247E+01  0.46049575414E-01  0.21125146818E+01  0.46537348835E+01  0.51100000000E-03 0.  1.
        -12    1    3    3    0    0 -0.14574745955E+01  0.17637387403E+01  0.22497189530E+01  0.32087757647E+01  0.00000000000E+00 0.  1.
</event>
<event>
 7    1  0.5743890E-009  0.4614232E+02  0.7816164E-02  0.1320468E+00
        -11   -1    0    0    0    0  0.00000000000E+00  0.00000000000E+00  0.45593999997E+02  0.45594000000E+02  0.51100000000E-03 0.  1.
         11   -1    0    0    0    0 -0.00000000000E+00 -0.00000000000E+00 -0.45593999997E+02  0.45594000000E+02  0.51100000000E-03 0. -1.
    9900012    2    1    2    0    0  0.43208626840E+02  0.11720440721E+02 -0.49758811753E+01  0.46142316993E+02  0.99999929984E+01 0.  0.
        -12    1    1    2    0    0 -0.43208626840E+02 -0.11720440721E+02  0.49758811753E+01  0.45045683007E+02  0.00000000000E+00 0.  1.
         11    1    3    3    0    0  0.10053158789E+02  0.13776590735E+01 -0.13922080807E+01  0.10242177003E+02  0.51100000000E-03 0. -1.
        -11    1    3    3    0    0  0.17565530661E+02  0.42973105964E+01  0.21780266089E+01  0.18214240196E+02  0.51100000000E-03 0.  1.
         12    1    3    3    0    0  0.15589937390E+02  0.60454710509E+01 -0.57616997035E+01  0.17685899794E+02  0.00000000000E+00 0. -1.
</event>
<event>
 7    1  0.5743890E-009  0.4614232E+02  0.7816164E-02  0.1320468E+00
        -11   -1    0    0    0    0  0.00000000000E+00  0.00000000000E+00  0.45593999997E+02  0.45594000000E+02  0.51100000000E-03 0. -1.
         11   -1    0    0    0    0 -0.00000000000E+00 -0.00000000000E+00 -0.45593999997E+02  0.45594000000E+02  0.51100000000E-03 0.  1.
    9900012    2    1    2    0    0  0.16099704161E+02  0.28822046501E+01  0.41971486302E+02  0.46142320516E+02  0.10000025123E+02 0.  0.
        -12    1    1    2    0    0 -0.16099704161E+02 -0.28822046501E+01 -0.41971486302E+02  0.45045679484E+02  0.00000000000E+00 0.  1.
         11    1    3    3    0    0  0.66210045218E+01  0.18984786911E+01  0.18407624431E+02  0.19654072344E+02  0.51100000000E-03 0. -1.
        -11    1    3    3    0    0 -0.31210986615E+00 -0.18612819493E+01  0.32160086559E+01  0.37288731541E+01  0.51100000000E-03 0.  1.
         12    1    3    3    0    0  0.97908095054E+01  0.28450079082E+01  0.20347853215E+02  0.22759375019E+02  0.00000000000E+00 0. -1.
</event>
<event>
 7    1  0.5743890E-009  0.4614232E+02  0.7816164E-02  0.1320468E+00
        -11   -1    0    0    0    0  0.00000000000E+00  0.00000000000E+00  0.45593999997E+02  0.45594000000E+02  0.51100000000E-03 0. -1.
         11   -1    0    0    0    0 -0.00000000000E+00 -0.00000000000E+00 -0.45593999997E+02  0.45594000000E+02  0.51100000000E-03 0.  1.
    9900012    2    1    2    0    0 -0.20378720442E+01 -0.12202086850E+02 -0.43313620015E+02  0.46142317357E+02  0.99999963117E+01 0.  0.
         12    1    1    2    0    0  0.20378720442E+01  0.12202086850E+02  0.43313620015E+02  0.45045682643E+02  0.00000000000E+00 0. -1.
         11    1    3    3    0    0  0.21405629816E+01 -0.28485228479E+01 -0.17542617751E+02  0.17900824845E+02  0.51100000000E-03 0. -1.
        -11    1    3    3    0    0 -0.24740766401E+01 -0.34182106740E+01 -0.16992534255E+02  0.17508610456E+02  0.51100000000E-03 0.  1.
         12    1    3    3    0    0 -0.17043583857E+01 -0.59353533281E+01 -0.87784680089E+01  0.10732882056E+02  0.00000000000E+00 0. -1.
</event>
<event>
 7    1  0.5776722E-009  0.4614232E+02  0.7816164E-02  0.1320468E+00
        -11   -1    0    0    0    0  0.00000000000E+00  0.00000000000E+00  0.45593999997E+02  0.45594000000E+02  0.51100000000E-03 0. -1.
         11   -1    0    0    0    0 -0.00000000000E+00 -0.00000000000E+00 -0.45593999997E+02  0.45594000000E+02  0.51100000000E-03 0.  1.
    9900012    2    1    2    0    0 -0.16733200396E+02  0.38495733198E+02  0.16346009624E+02  0.46142317625E+02  0.99999987621E+01 0.  0.
        -12    1    1    2    0    0  0.16733200396E+02 -0.38495733198E+02 -0.16346009624E+02  0.45045682375E+02  0.00000000000E+00 0.  1.
         11    1    3    3    0    0 -0.65428530325E+01  0.18475808274E+02  0.90656885538E+01  0.21595164421E+02  0.51100000000E-03 0. -1.
        -11    1    3    3    0    0 -0.77885811420E+01  0.14560462571E+02  0.83240134810E+01  0.18492113648E+02  0.51100000000E-03 0.  1.
        -12    1    3    3    0    0 -0.24017662217E+01  0.54594623540E+01 -0.10436924106E+01  0.60550395562E+01  0.00000000000E+00 0.  1.
</event>
<event>
 7    1  0.5743890E-009  0.4614232E+02  0.7816164E-02  0.1320468E+00
        -11   -1    0    0    0    0  0.00000000000E+00  0.00000000000E+00  0.45593999997E+02  0.45594000000E+02  0.51100000000E-03 0. -1.
         11   -1    0    0    0    0 -0.00000000000E+00 -0.00000000000E+00 -0.45593999997E+02  0.45594000000E+02  0.51100000000E-03 0.  1.
    9900012    2    1    2    0    0  0.62586518264E+00 -0.38068812271E+02  0.24072540691E+02  0.46142318850E+02  0.10000009933E+02 0.  0.
        -12    1    1    2    0    0 -0.62586518264E+00  0.38068812271E+02 -0.24072540691E+02  0.45045681150E+02  0.00000000000E+00 0.  1.
         11    1    3    3    0    0 -0.35312967766E+01 -0.18204187473E+02  0.11410630542E+02  0.21773033507E+02  0.51100000000E-03 0.  1.
        -11    1    3    3    0    0  0.17198835014E+01 -0.14198014325E+02  0.10813772170E+02  0.17929843246E+02  0.51100000000E-03 0. -1.
        -12    1    3    3    0    0  0.24372784578E+01 -0.56666104730E+01  0.18481379784E+01  0.64394420970E+01  0.00000000000E+00 0.  1.
</event>
<event>
 7    1  0.5743890E-009  0.4614232E+02  0.7816164E-02  0.1320468E+00
        -11   -1    0    0    0    0  0.00000000000E+00  0.00000000000E+00  0.45593999997E+02  0.45594000000E+02  0.51100000000E-03 0. -1.
         11   -1    0    0    0    0 -0.00000000000E+00 -0.00000000000E+00 -0.45593999997E+02  0.45594000000E+02  0.51100000000E-03 0.  1.
    9900012    2    1    2    0    0 -0.30755505560E+02  0.27387458275E+02 -0.18252105569E+02  0.46142319289E+02  0.10000013930E+02 0.  0.
         12    1    1    2    0    0  0.30755505560E+02 -0.27387458275E+02  0.18252105569E+02  0.45045680711E+02  0.00000000000E+00 0. -1.
         11    1    3    3    0    0 -0.32232034091E+01  0.11944542371E+01 -0.19435136642E+00  0.34428961436E+01  0.51100000000E-03 0. -1.
        -11    1    3    3    0    0 -0.25597051968E+02  0.25562950281E+02 -0.18477563028E+02  0.40621347002E+02  0.51100000000E-03 0.  1.
        -12    1    3    3    0    0 -0.19352501832E+01  0.63005375724E+00  0.41980882525E+00  0.20780761436E+01  0.00000000000E+00 0.  1.
</event>
<event>
 7    1  0.5743890E-009  0.4614232E+02  0.7816164E-02  0.1320468E+00
        -11   -1    0    0    0    0  0.00000000000E+00  0.00000000000E+00  0.45593999997E+02  0.45594000000E+02  0.51100000000E-03 0. -1.
         11   -1    0    0    0    0 -0.00000000000E+00 -0.00000000000E+00 -0.45593999997E+02  0.45594000000E+02  0.51100000000E-03 0.  1.
    9900012    2    1    2    0    0  0.38411837811E+02 -0.10969345916E+02  0.20816280218E+02  0.46142319231E+02  0.10000013404E+02 0.  0.
        -12    1    1    2    0    0 -0.38411837811E+02  0.10969345916E+02 -0.20816280218E+02  0.45045680769E+02  0.00000000000E+00 0.  1.
         11    1    3    3    0    0  0.14443488878E+02 -0.66924708199E+01  0.39463295937E+01  0.16400519936E+02  0.51100000000E-03 0. -1.
        -11    1    3    3    0    0  0.11170817685E+02 -0.25354899008E+01  0.94267309476E+01  0.14835064321E+02  0.51100000000E-03 0.  1.
         12    1    3    3    0    0  0.12797531248E+02 -0.17413851956E+01  0.74432196765E+01  0.14906734974E+02  0.00000000000E+00 0. -1.
</event>
<event>
 7    1  0.5743890E-009  0.4614232E+02  0.7816164E-02  0.1320468E+00
        -11   -1    0    0    0    0  0.00000000000E+00  0.00000000000E+00  0.45593999997E+02  0.45594000000E+02  0.51100000000E-03 0. -1.
         11   -1    0    0    0    0 -0.00000000000E+00 -0.00000000000E+00 -0.45593999997E+02  0.45594000000E+02  0.51100000000E-03 0.  1.
    9900012    2    1    2    0    0 -0.30667538079E+02 -0.57578954275E+01  0.32487879475E+02  0.46142316918E+02  0.99999923106E+01 0.  0.
        -12    1    1    2    0    0  0.30667538079E+02  0.57578954275E+01 -0.32487879475E+02  0.45045683082E+02  0.00000000000E+00 0.  1.
         11    1    3    3    0    0 -0.33368664796E+01 -0.16841550886E+01  0.41579192375E+01  0.55910060733E+01  0.51100000000E-03 0.  1.
        -11    1    3    3    0    0 -0.87118209381E+01  0.19723368351E+01  0.12566428829E+02  0.15417557214E+02  0.51100000000E-03 0. -1.
         12    1    3    3    0    0 -0.18618850661E+02 -0.60460771740E+01  0.15763531408E+02  0.25133753631E+02  0.00000000000E+00 0. -1.
</event>
<event>
 7    1  0.5743890E-009  0.4614232E+02  0.7816164E-02  0.1320468E+00
        -11   -1    0    0    0    0  0.00000000000E+00  0.00000000000E+00  0.45593999997E+02  0.45594000000E+02  0.51100000000E-03 0. -1.
         11   -1    0    0    0    0 -0.00000000000E+00 -0.00000000000E+00 -0.45593999997E+02  0.45594000000E+02  0.51100000000E-03 0.  1.
    9900012    2    1    2    0    0 -0.10489357626E+02 -0.51911263602E+00  0.43804308087E+02  0.46142317539E+02  0.99999979784E+01 0.  0.
        -12    1    1    2    0    0  0.10489357626E+02  0.51911263602E+00 -0.43804308087E+02  0.45045682461E+02  0.00000000000E+00 0.  1.
         11    1    3    3    0    0 -0.89066802925E+01 -0.80587618996E+00  0.36368754754E+02  0.37452165664E+02  0.51100000000E-03 0. -1.
        -11    1    3    3    0    0 -0.35756962720E+00 -0.19311465744E+01  0.32847521092E+01  0.38271111573E+01  0.51100000000E-03 0.  1.
         12    1    3    3    0    0 -0.12251077066E+01  0.22179101283E+01  0.41508012236E+01  0.48630407183E+01  0.00000000000E+00 0. -1.
</event>
<event>
 7    1  0.5743890E-009  0.4614232E+02  0.7816164E-02  0.1320468E+00
        -11   -1    0    0    0    0  0.00000000000E+00  0.00000000000E+00  0.45593999997E+02  0.45594000000E+02  0.51100000000E-03 0. -1.
         11   -1    0    0    0    0 -0.00000000000E+00 -0.00000000000E+00 -0.45593999997E+02  0.45594000000E+02  0.51100000000E-03 0.  1.
    9900012    2    1    2    0    0 -0.30787142197E+02  0.17955523404E+02 -0.27547496424E+02  0.46142317581E+02  0.99999983561E+01 0.  0.
         12    1    1    2    0    0  0.30787142197E+02 -0.17955523404E+02  0.27547496424E+02  0.45045682419E+02  0.00000000000E+00 0. -1.
         11    1    3    3    0    0 -0.17694762700E+01  0.33640880983E+00  0.34501653471E+00  0.18339176175E+01  0.51100000000E-03 0. -1.
        -11    1    3    3    0    0 -0.21499465851E+02  0.10974168376E+02 -0.17161704801E+02  0.29617284065E+02  0.51100000000E-03 0.  1.
         12    1    3    3    0    0 -0.75182000754E+01  0.66449462184E+01 -0.10730808158E+02  0.14691115899E+02  0.00000000000E+00 0. -1.
</event>
<event>
 7    1  0.5743890E-009  0.4614232E+02  0.7816164E-02  0.1320468E+00
        -11   -1    0    0    0    0  0.00000000000E+00  0.00000000000E+00  0.45593999997E+02  0.45594000000E+02  0.51100000000E-03 0. -1.
         11   -1    0    0    0    0 -0.00000000000E+00 -0.00000000000E+00 -0.45593999997E+02  0.45594000000E+02  0.51100000000E-03 0.  1.
    9900012    2    1    2    0    0  0.86767439516E+01 -0.15888584256E+01  0.44173556595E+02  0.46142318088E+02  0.10000002977E+02 0.  0.
        -12    1    1    2    0    0 -0.86767439516E+01  0.15888584256E+01 -0.44173556595E+02  0.45045681912E+02  0.00000000000E+00 0.  1.
         11    1    3    3    0    0  0.42581739381E+01 -0.12730985088E+01  0.84452328046E+01  0.95433108765E+01  0.51100000000E-03 0. -1.
        -11    1    3    3    0    0  0.46821948427E+01  0.21065622253E+01  0.28815358151E+02  0.29269188895E+02  0.51100000000E-03 0.  1.
        -12    1    3    3    0    0 -0.26362482926E+00 -0.24223221421E+01  0.69129656399E+01  0.73298183163E+01  0.00000000000E+00 0.  1.
</event>
<event>
 7    1  0.5743890E-009  0.4614232E+02  0.7816164E-02  0.1320468E+00
        -11   -1    0    0    0    0  0.00000000000E+00  0.00000000000E+00  0.45593999997E+02  0.45594000000E+02  0.51100000000E-03 0. -1.
         11   -1    0    0    0    0 -0.00000000000E+00 -0.00000000000E+00 -0.45593999997E+02  0.45594000000E+02  0.51100000000E-03 0.  1.
    9900012    2    1    2    0    0 -0.25798378784E+02 -0.23307364602E+02  0.28641296522E+02  0.46142318086E+02  0.10000002967E+02 0.  0.
        -12    1    1    2    0    0  0.25798378784E+02  0.23307364602E+02 -0.28641296522E+02  0.45045681914E+02  0.00000000000E+00 0.  1.
         11    1    3    3    0    0 -0.85686863261E+01 -0.83092607664E+01  0.85793670569E+01  0.14699378871E+02  0.51100000000E-03 0. -1.
        -11    1    3    3    0    0 -0.21059931996E+00 -0.28046829128E+01  0.63826400131E+00  0.28840907599E+01  0.51100000000E-03 0.  1.
         12    1    3    3    0    0 -0.17019093138E+02 -0.12193420923E+02  0.19423665464E+02  0.28558848455E+02  0.00000000000E+00 0. -1.
</event>
<event>
 7    1  0.5743890E-009  0.4614232E+02  0.7816164E-02  0.1320468E+00
        -11   -1    0    0    0    0  0.00000000000E+00  0.00000000000E+00  0.45593999997E+02  0.45594000000E+02  0.51100000000E-03 0. -1.
         11   -1    0    0    0    0 -0.00000000000E+00 -0.00000000000E+00 -0.45593999997E+02  0.45594000000E+02  0.51100000000E-03 0.  1.
    9900012    2    1    2    0    0  0.17039500095E+02  0.41433504791E+02  0.46939969522E+01  0.46142317742E+02  0.99999998234E+01 0.  0.
        -12    1    1    2    0    0 -0.17039500095E+02 -0.41433504791E+02 -0.46939969522E+01  0.45045682258E+02  0.00000000000E+00 0.  1.
         11    1    3    3    0    0  0.60621328067E+01  0.18960072334E+02  0.50529851192E+01  0.20536953424E+02  0.51100000000E-03 0. -1.
        -11    1    3    3    0    0  0.83161974585E+01  0.19462139336E+02 -0.20122774041E+01  0.21259898126E+02  0.51100000000E-03 0.  1.
         12    1    3    3    0    0  0.26611698301E+01  0.30112931206E+01  0.16532892370E+01  0.43454661918E+01  0.00000000000E+00 0. -1.
</event>
<event>
 7    1  0.5743890E-009  0.4614232E+02  0.7816164E-02  0.1320468E+00
        -11   -1    0    0    0    0  0.00000000000E+00  0.00000000000E+00  0.45593999997E+02  0.45594000000E+02  0.51100000000E-03 0. -1.
         11   -1    0    0    0    0 -0.00000000000E+00 -0.00000000000E+00 -0.45593999997E+02  0.45594000000E+02  0.51100000000E-03 0.  1.
    9900012    2    1    2    0    0 -0.17656772248E+02  0.17140953674E+02  0.37729824330E+02  0.46142317154E+02  0.99999944625E+01 0.  0.
        -12    1    1    2    0    0  0.17656772248E+02 -0.17140953674E+02 -0.37729824330E+02  0.45045682846E+02  0.00000000000E+00 0.  1.
         11    1    3    3    0    0 -0.13982081661E+02  0.71529715881E+01  0.23581150037E+02  0.28332565140E+02  0.51100000000E-03 0. -1.
        -11    1    3    3    0    0 -0.49362352398E-01  0.19022470516E+01  0.18740260909E+01  0.26707591688E+01  0.51100000000E-03 0.  1.
         12    1    3    3    0    0 -0.36253282352E+01  0.80857350346E+01  0.12274648202E+02  0.15138992845E+02  0.00000000000E+00 0. -1.
</event>
<event>
 7    1  0.5743890E-009  0.4614232E+02  0.7816164E-02  0.1320468E+00
        -11   -1    0    0    0    0  0.00000000000E+00  0.00000000000E+00  0.45593999997E+02  0.45594000000E+02  0.51100000000E-03 0. -1.
         11   -1    0    0    0    0 -0.00000000000E+00 -0.00000000000E+00 -0.45593999997E+02  0.45594000000E+02  0.51100000000E-03 0.  1.
    9900012    2    1    2    0    0 -0.32384776123E+02  0.98708508012E+01 -0.29713735059E+02  0.46142317951E+02  0.10000001733E+02 0.  0.
         12    1    1    2    0    0  0.32384776123E+02 -0.98708508012E+01  0.29713735059E+02  0.45045682049E+02  0.00000000000E+00 0. -1.
         11    1    3    3    0    0 -0.17036644734E+01  0.21773801472E+01 -0.59790078296E+01  0.65872598120E+01  0.51100000000E-03 0. -1.
        -11    1    3    3    0    0 -0.55886354851E+01  0.17282199842E+01 -0.42529993517E+01  0.72323989551E+01  0.51100000000E-03 0.  1.
         12    1    3    3    0    0 -0.25092476164E+02  0.59652506698E+01 -0.19481727878E+02  0.32322659184E+02  0.00000000000E+00 0. -1.
</event>
<event>
 7    1  0.5743890E-009  0.4614232E+02  0.7816164E-02  0.1320468E+00
        -11   -1    0    0    0    0  0.00000000000E+00  0.00000000000E+00  0.45593999997E+02  0.45594000000E+02  0.51100000000E-03 0. -1.
         11   -1    0    0    0    0 -0.00000000000E+00 -0.00000000000E+00 -0.45593999997E+02  0.45594000000E+02  0.51100000000E-03 0.  1.
    9900012    2    1    2    0    0  0.39253793165E+02 -0.72702832014E+01 -0.20866147362E+02  0.46142318727E+02  0.10000008804E+02 0.  0.
         12    1    1    2    0    0 -0.39253793165E+02  0.72702832014E+01  0.20866147362E+02  0.45045681273E+02  0.00000000000E+00 0. -1.
         11    1    3    3    0    0  0.19141291883E+02 -0.52693175014E+01 -0.10922592491E+02  0.22659606988E+02  0.51100000000E-03 0. -1.
        -11    1    3    3    0    0  0.11776098948E+02 -0.44328799429E+01 -0.61756624809E+01  0.14016623643E+02  0.51100000000E-03 0.  1.
         12    1    3    3    0    0  0.83364023340E+01  0.24319142429E+01 -0.37678923908E+01  0.94660880952E+01  0.00000000000E+00 0. -1.
</event>
<event>
 7    1  0.5743890E-009  0.4614232E+02  0.7816164E-02  0.1320468E+00
        -11   -1    0    0    0    0  0.00000000000E+00  0.00000000000E+00  0.45593999997E+02  0.45594000000E+02  0.51100000000E-03 0. -1.
         11   -1    0    0    0    0 -0.00000000000E+00 -0.00000000000E+00 -0.45593999997E+02  0.45594000000E+02  0.51100000000E-03 0.  1.
    9900012    2    1    2    0    0 -0.39621668210E+02 -0.14704904667E+02  0.15588543796E+02  0.46142317514E+02  0.99999977436E+01 0.  0.
        -12    1    1    2    0    0  0.39621668210E+02  0.14704904667E+02 -0.15588543796E+02  0.45045682486E+02  0.00000000000E+00 0.  1.
         11    1    3    3    0    0 -0.21319914773E+02 -0.10338695040E+02  0.57025867333E+01  0.24371025353E+02  0.51100000000E-03 0. -1.
        -11    1    3    3    0    0 -0.14361768553E+02 -0.33389150432E+01  0.97890593584E+01  0.17698430242E+02  0.51100000000E-03 0.  1.
         12    1    3    3    0    0 -0.39399848832E+01 -0.10272945841E+01  0.96897704352E-01  0.40728619185E+01  0.00000000000E+00 0. -1.
</event>
<event>
 7    1  0.5743890E-009  0.4614232E+02  0.7816164E-02  0.1320468E+00
        -11   -1    0    0    0    0  0.00000000000E+00  0.00000000000E+00  0.45593999997E+02  0.45594000000E+02  0.51100000000E-03 0. -1.
         11   -1    0    0    0    0 -0.00000000000E+00 -0.00000000000E+00 -0.45593999997E+02  0.45594000000E+02  0.51100000000E-03 0.  1.
    9900012    2    1    2    0    0 -0.38670370343E+02 -0.11693353546E+02  0.19924394912E+02  0.46142316830E+02  0.99999915091E+01 0.  0.
        -12    1    1    2    0    0  0.38670370343E+02  0.11693353546E+02 -0.19924394912E+02  0.45045683170E+02  0.00000000000E+00 0.  1.
         11    1    3    3    0    0 -0.54587385928E+01  0.61451369993E+00  0.98950304307E+00  0.55816279565E+01  0.51100000000E-03 0. -1.
        -11    1    3    3    0    0 -0.11360309943E+02 -0.17045498525E+01  0.47256140385E+01  0.12421495905E+02  0.51100000000E-03 0.  1.
         12    1    3    3    0    0 -0.21851321807E+02 -0.10603317393E+02  0.14209277831E+02  0.28139192969E+02  0.00000000000E+00 0. -1.
</event>
<event>
 7    1  0.5743890E-009  0.4614232E+02  0.7816164E-02  0.1320468E+00
        -11   -1    0    0    0    0  0.00000000000E+00  0.00000000000E+00  0.45593999997E+02  0.45594000000E+02  0.51100000000E-03 0. -1.
         11   -1    0    0    0    0 -0.00000000000E+00 -0.00000000000E+00 -0.45593999997E+02  0.45594000000E+02  0.51100000000E-03 0.  1.
    9900012    2    1    2    0    0  0.16592081152E+01  0.25510017128E+02  0.37089075082E+02  0.46142318344E+02  0.10000005313E+02 0.  0.
        -12    1    1    2    0    0 -0.16592081152E+01 -0.25510017128E+02 -0.37089075082E+02  0.45045681656E+02  0.00000000000E+00 0.  1.
         11    1    3    3    0    0 -0.85483351608E+00  0.78299934460E+00  0.13644362738E+01  0.17903951855E+01  0.51100000000E-03 0. -1.
        -11    1    3    3    0    0  0.53673195419E+01  0.10712949621E+02  0.16260284224E+02  0.20198322999E+02  0.51100000000E-03 0.  1.
         12    1    3    3    0    0 -0.28532779107E+01  0.14014068162E+02  0.19464354584E+02  0.24153600159E+02  0.00000000000E+00 0. -1.
</event>
<event>
 7    1  0.5743890E-009  0.4614232E+02  0.7816164E-02  0.1320468E+00
        -11   -1    0    0    0    0  0.00000000000E+00  0.00000000000E+00  0.45593999997E+02  0.45594000000E+02  0.51100000000E-03 0. -1.
         11   -1    0    0    0    0 -0.00000000000E+00 -0.00000000000E+00 -0.45593999997E+02  0.45594000000E+02  0.51100000000E-03 0.  1.
    9900012    2    1    2    0    0 -0.95948338353E+01 -0.36783517218E+01  0.43857980389E+02  0.46142317060E+02  0.99999936113E+01 0.  0.
        -12    1    1    2    0    0  0.95948338353E+01  0.36783517218E+01 -0.43857980389E+02  0.45045682940E+02  0.00000000000E+00 0.  1.
         11    1    3    3    0    0 -0.12457496478E+01  0.16654209419E+01  0.17924785611E+02  0.18045039722E+02  0.51100000000E-03 0. -1.
        -11    1    3    3    0    0 -0.22105336768E+01 -0.38002659636E+01  0.89152011164E+01  0.99402863006E+01  0.51100000000E-03 0.  1.
         12    1    3    3    0    0 -0.61385505108E+01 -0.15435067001E+01  0.17017993661E+02  0.18156991038E+02  0.00000000000E+00 0. -1.
</event>
<event>
 7    1  0.5743890E-009  0.4614232E+02  0.7816164E-02  0.1320468E+00
        -11   -1    0    0    0    0  0.00000000000E+00  0.00000000000E+00  0.45593999997E+02  0.45594000000E+02  0.51100000000E-03 0. -1.
         11   -1    0    0    0    0 -0.00000000000E+00 -0.00000000000E+00 -0.45593999997E+02  0.45594000000E+02  0.51100000000E-03 0.  1.
    9900012    2    1    2    0    0  0.64650527708E+01 -0.16658124573E+02 -0.41350011726E+02  0.46142317728E+02  0.99999996951E+01 0.  0.
         12    1    1    2    0    0 -0.64650527708E+01  0.16658124573E+02  0.41350011726E+02  0.45045682272E+02  0.00000000000E+00 0. -1.
         11    1    3    3    0    0  0.49743295186E-01 -0.23575721780E+01 -0.52971348381E+01  0.57982979162E+01  0.51100000000E-03 0. -1.
        -11    1    3    3    0    0  0.36271865884E+01 -0.12818156577E+02 -0.20320168927E+02  0.24297548972E+02  0.51100000000E-03 0.  1.
        -12    1    3    3    0    0  0.27881228872E+01 -0.14823958174E+01 -0.15732707962E+02  0.16046470839E+02  0.00000000000E+00 0.  1.
</event>
<event>
 7    1  0.5743890E-009  0.4614232E+02  0.7816164E-02  0.1320468E+00
        -11   -1    0    0    0    0  0.00000000000E+00  0.00000000000E+00  0.45593999997E+02  0.45594000000E+02  0.51100000000E-03 0. -1.
         11   -1    0    0    0    0 -0.00000000000E+00 -0.00000000000E+00 -0.45593999997E+02  0.45594000000E+02  0.51100000000E-03 0.  1.
    9900012    2    1    2    0    0  0.37609302236E+02 -0.23021922415E+02  0.92002759268E+01  0.46142316483E+02  0.99999883487E+01 0.  0.
        -12    1    1    2    0    0 -0.37609302236E+02  0.23021922415E+02 -0.92002759268E+01  0.45045683517E+02  0.00000000000E+00 0.  1.
         11    1    3    3    0    0  0.47374324478E+01 -0.23691086338E+01 -0.65992727309E+00  0.53377379276E+01  0.51100000000E-03 0.  1.
        -11    1    3    3    0    0  0.12715203490E+02 -0.36788063506E+01  0.36596863124E+01  0.13733292399E+02  0.51100000000E-03 0. -1.
         12    1    3    3    0    0  0.20156666298E+02 -0.16974007430E+02  0.62005168875E+01  0.27071286157E+02  0.00000000000E+00 0. -1.
</event>
<event>
 7    1  0.5743890E-009  0.4614232E+02  0.7816164E-02  0.1320468E+00
        -11   -1    0    0    0    0  0.00000000000E+00  0.00000000000E+00  0.45593999997E+02  0.45594000000E+02  0.51100000000E-03 0. -1.
         11   -1    0    0    0    0 -0.00000000000E+00 -0.00000000000E+00 -0.45593999997E+02  0.45594000000E+02  0.51100000000E-03 0.  1.
    9900012    2    1    2    0    0 -0.29702671831E+01 -0.51150770364E+01  0.44655648896E+02  0.46142317870E+02  0.10000000993E+02 0.  0.
        -12    1    1    2    0    0  0.29702671831E+01  0.51150770364E+01 -0.44655648896E+02  0.45045682130E+02  0.00000000000E+00 0.  1.
         11    1    3    3    0    0  0.20599479368E+01  0.53421221073E+00  0.79257422275E+01  0.82064705146E+01  0.51100000000E-03 0. -1.
        -11    1    3    3    0    0  0.97359297241E+00 -0.32255259201E+00  0.92826514691E+01  0.93391403249E+01  0.51100000000E-03 0.  1.
        -12    1    3    3    0    0 -0.60038080923E+01 -0.53267366551E+01  0.27447255200E+02  0.28596707031E+02  0.00000000000E+00 0.  1.
</event>
<event>
 7    1  0.5743890E-009  0.4614232E+02  0.7816164E-02  0.1320468E+00
        -11   -1    0    0    0    0  0.00000000000E+00  0.00000000000E+00  0.45593999997E+02  0.45594000000E+02  0.51100000000E-03 0. -1.
         11   -1    0    0    0    0 -0.00000000000E+00 -0.00000000000E+00 -0.45593999997E+02  0.45594000000E+02  0.51100000000E-03 0.  1.
    9900012    2    1    2    0    0 -0.30241308888E+02 -0.26878167201E+01 -0.33276904579E+02  0.46142317628E+02  0.99999987843E+01 0.  0.
         12    1    1    2    0    0  0.30241308888E+02  0.26878167201E+01  0.33276904579E+02  0.45045682372E+02  0.00000000000E+00 0. -1.
         11    1    3    3    0    0 -0.30294393582E+01 -0.33500751145E+01 -0.39005490600E+01  0.59678127759E+01  0.51100000000E-03 0.  1.
        -11    1    3    3    0    0 -0.14120776654E+02 -0.20655552353E+00 -0.13038938991E+02  0.19221158361E+02  0.51100000000E-03 0. -1.
        -12    1    3    3    0    0 -0.13091092876E+02  0.86881391791E+00 -0.16337416529E+02  0.20953346491E+02  0.00000000000E+00 0.  1.
</event>
<event>
 7    1  0.5905213E-009  0.4614232E+02  0.7816164E-02  0.1320468E+00
        -11   -1    0    0    0    0  0.00000000000E+00  0.00000000000E+00  0.45593999997E+02  0.45594000000E+02  0.51100000000E-03 0. -1.
         11   -1    0    0    0    0 -0.00000000000E+00 -0.00000000000E+00 -0.45593999997E+02  0.45594000000E+02  0.51100000000E-03 0.  1.
    9900012    2    1    2    0    0  0.35578877507E+01 -0.23338521575E+02  0.38363631157E+02  0.46142319296E+02  0.10000013993E+02 0.  0.
        -12    1    1    2    0    0 -0.35578877507E+01  0.23338521575E+02 -0.38363631157E+02  0.45045680704E+02  0.00000000000E+00 0.  1.
         11    1    3    3    0    0 -0.35913715101E+00 -0.44497778335E+01  0.11715492486E+02  0.12537235210E+02  0.51100000000E-03 0. -1.
        -11    1    3    3    0    0  0.43523902137E+00  0.34551434823E+00  0.23791855755E+01  0.24432227557E+01  0.51100000000E-03 0.  1.
        -12    1    3    3    0    0  0.34817858803E+01 -0.19234258090E+02  0.24268953096E+02  0.31161861330E+02  0.00000000000E+00 0.  1.
</event>
<event>
 7    1  0.5743890E-009  0.4614232E+02  0.7816164E-02  0.1320468E+00
        -11   -1    0    0    0    0  0.00000000000E+00  0.00000000000E+00  0.45593999997E+02  0.45594000000E+02  0.51100000000E-03 0. -1.
         11   -1    0    0    0    0 -0.00000000000E+00 -0.00000000000E+00 -0.45593999997E+02  0.45594000000E+02  0.51100000000E-03 0.  1.
    9900012    2    1    2    0    0  0.26711081964E+02  0.36000126540E+02  0.44297297211E+01  0.46142317455E+02  0.99999972074E+01 0.  0.
         12    1    1    2    0    0 -0.26711081964E+02 -0.36000126540E+02 -0.44297297211E+01  0.45045682545E+02  0.00000000000E+00 0. -1.
         11    1    3    3    0    0  0.23656057261E+00  0.80538985645E+00  0.93116131974E+00  0.12536647837E+01  0.51100000000E-03 0. -1.
        -11    1    3    3    0    0  0.14082001479E+02  0.13438415160E+02 -0.81187708621E+00  0.19482117757E+02  0.51100000000E-03 0.  1.
        -12    1    3    3    0    0  0.12392519912E+02  0.21756321524E+02  0.43104454875E+01  0.25406534914E+02  0.00000000000E+00 0.  1.
</event>
<event>
 7    1  0.5743890E-009  0.4614232E+02  0.7816164E-02  0.1320468E+00
        -11   -1    0    0    0    0  0.00000000000E+00  0.00000000000E+00  0.45593999997E+02  0.45594000000E+02  0.51100000000E-03 0. -1.
         11   -1    0    0    0    0 -0.00000000000E+00 -0.00000000000E+00 -0.45593999997E+02  0.45594000000E+02  0.51100000000E-03 0.  1.
    9900012    2    1    2    0    0 -0.35930433027E+02  0.21069923177E+02  0.17151552054E+02  0.46142318541E+02  0.10000007114E+02 0.  0.
        -12    1    1    2    0    0  0.35930433027E+02 -0.21069923177E+02 -0.17151552054E+02  0.45045681459E+02  0.00000000000E+00 0.  1.
         11    1    3    3    0    0 -0.30035842951E+01  0.23110094779E+01  0.46234620253E+01  0.59781840709E+01  0.51100000000E-03 0.  1.
        -11    1    3    3    0    0 -0.15533678399E+02  0.70013543993E+01  0.39867602825E+01  0.17498810984E+02  0.51100000000E-03 0. -1.
         12    1    3    3    0    0 -0.17393170333E+02  0.11757559300E+02  0.85413297467E+01  0.22665323487E+02  0.00000000000E+00 0. -1.
</event>
<event>
 7    1  0.5743890E-009  0.4614232E+02  0.7816164E-02  0.1320468E+00
        -11   -1    0    0    0    0  0.00000000000E+00  0.00000000000E+00  0.45593999997E+02  0.45594000000E+02  0.51100000000E-03 0. -1.
         11   -1    0    0    0    0 -0.00000000000E+00 -0.00000000000E+00 -0.45593999997E+02  0.45594000000E+02  0.51100000000E-03 0.  1.
    9900012    2    1    2    0    0  0.14426098346E+02  0.41387103639E+01  0.42472017473E+02  0.46142317574E+02  0.99999982961E+01 0.  0.
        -12    1    1    2    0    0 -0.14426098346E+02 -0.41387103639E+01 -0.42472017473E+02  0.45045682426E+02  0.00000000000E+00 0.  1.
         11    1    3    3    0    0  0.22513970508E+01  0.98894916395E+00  0.10122935612E+01  0.26592381699E+01  0.51100000000E-03 0.  1.
        -11    1    3    3    0    0  0.72294077392E+01  0.34767039415E+00  0.26795925051E+02  0.27756203101E+02  0.51100000000E-03 0. -1.
        -12    1    3    3    0    0  0.49452935564E+01  0.28020908058E+01  0.14663798860E+02  0.15726876303E+02  0.00000000000E+00 0.  1.
</event>
<event>
 7    1  0.5743890E-009  0.4614232E+02  0.7816164E-02  0.1320468E+00
        -11   -1    0    0    0    0  0.00000000000E+00  0.00000000000E+00  0.45593999997E+02  0.45594000000E+02  0.51100000000E-03 0. -1.
         11   -1    0    0    0    0 -0.00000000000E+00 -0.00000000000E+00 -0.45593999997E+02  0.45594000000E+02  0.51100000000E-03 0.  1.
    9900012    2    1    2    0    0  0.27602870052E+01  0.39845032934E+02 -0.20829490105E+02  0.46142317721E+02  0.99999996386E+01 0.  0.
         12    1    1    2    0    0 -0.27602870052E+01 -0.39845032934E+02  0.20829490105E+02  0.45045682279E+02  0.00000000000E+00 0. -1.
         11    1    3    3    0    0  0.35960820515E+01  0.18302381418E+02 -0.67854430216E+01  0.19848204175E+02  0.51100000000E-03 0. -1.
        -11    1    3    3    0    0 -0.61310482118E+00  0.15803577866E+02 -0.72508654944E+01  0.17398391350E+02  0.51100000000E-03 0.  1.
        -12    1    3    3    0    0 -0.22269022515E+00  0.57390736500E+01 -0.67931815891E+01  0.88957221966E+01  0.00000000000E+00 0.  1.
</event>
<event>
 7    1  0.5743890E-009  0.4614232E+02  0.7816164E-02  0.1320468E+00
        -11   -1    0    0    0    0  0.00000000000E+00  0.00000000000E+00  0.45593999997E+02  0.45594000000E+02  0.51100000000E-03 0. -1.
         11   -1    0    0    0    0 -0.00000000000E+00 -0.00000000000E+00 -0.45593999997E+02  0.45594000000E+02  0.51100000000E-03 0.  1.
    9900012    2    1    2    0    0  0.65686103127E+01  0.27387347027E+02  0.35155371135E+02  0.46142317207E+02  0.99999949497E+01 0.  0.
        -12    1    1    2    0    0 -0.65686103127E+01 -0.27387347027E+02 -0.35155371135E+02  0.45045682793E+02  0.00000000000E+00 0.  1.
         11    1    3    3    0    0  0.22811822638E+01  0.13305909531E+02  0.20759779543E+02  0.24763268522E+02  0.51100000000E-03 0. -1.
        -11    1    3    3    0    0 -0.12429447796E+01  0.16120465275E+01  0.10286567954E+01  0.22807325130E+01  0.51100000000E-03 0.  1.
         12    1    3    3    0    0  0.55303728286E+01  0.12469390968E+02  0.13366934796E+02  0.19098316172E+02  0.00000000000E+00 0. -1.
</event>
<event>
 7    1  0.5743890E-009  0.4614232E+02  0.7816164E-02  0.1320468E+00
        -11   -1    0    0    0    0  0.00000000000E+00  0.00000000000E+00  0.45593999997E+02  0.45594000000E+02  0.51100000000E-03 0. -1.
         11   -1    0    0    0    0 -0.00000000000E+00 -0.00000000000E+00 -0.45593999997E+02  0.45594000000E+02  0.51100000000E-03 0.  1.
    9900012    2    1    2    0    0  0.25170889468E+02  0.30366928556E+02  0.21757515608E+02  0.46142317499E+02  0.99999976082E+01 0.  0.
        -12    1    1    2    0    0 -0.25170889468E+02 -0.30366928556E+02 -0.21757515608E+02  0.45045682501E+02  0.00000000000E+00 0.  1.
         11    1    3    3    0    0  0.19468263463E+02  0.21300101461E+02  0.17499182530E+02  0.33748022076E+02  0.51100000000E-03 0. -1.
        -11    1    3    3    0    0  0.46262925644E+01  0.36460842689E+01  0.98813877929E+00  0.59726821358E+01  0.51100000000E-03 0.  1.
        -12    1    3    3    0    0  0.10763334407E+01  0.54207428261E+01  0.32701942982E+01  0.64216132872E+01  0.00000000000E+00 0.  1.
</event>
<event>
 7    1  0.5743890E-009  0.4614232E+02  0.7816164E-02  0.1320468E+00
        -11   -1    0    0    0    0  0.00000000000E+00  0.00000000000E+00  0.45593999997E+02  0.45594000000E+02  0.51100000000E-03 0. -1.
         11   -1    0    0    0    0 -0.00000000000E+00 -0.00000000000E+00 -0.45593999997E+02  0.45594000000E+02  0.51100000000E-03 0.  1.
    9900012    2    1    2    0    0  0.43671263155E+01 -0.26408363768E+02  0.36230371486E+02  0.46142319995E+02  0.10000020367E+02 0.  0.
        -12    1    1    2    0    0 -0.43671263155E+01  0.26408363768E+02 -0.36230371486E+02  0.45045680005E+02  0.00000000000E+00 0.  1.
         11    1    3    3    0    0  0.28580028661E+01 -0.15730138410E+02  0.22015903994E+02  0.27208554973E+02  0.51100000000E-03 0.  1.
        -11    1    3    3    0    0 -0.15882306142E+01 -0.22472831553E+01  0.66284249771E+01  0.71769614742E+01  0.51100000000E-03 0. -1.
        -12    1    3    3    0    0  0.30973540636E+01 -0.84309422025E+01  0.75860425142E+01  0.11756803547E+02  0.00000000000E+00 0.  1.
</event>
<event>
 7    1  0.5743890E-009  0.4614232E+02  0.7816164E-02  0.1320468E+00
        -11   -1    0    0    0    0  0.00000000000E+00  0.00000000000E+00  0.45593999997E+02  0.45594000000E+02  0.51100000000E-03 0. -1.
         11   -1    0    0    0    0 -0.00000000000E+00 -0.00000000000E+00 -0.45593999997E+02  0.45594000000E+02  0.51100000000E-03 0.  1.
    9900012    2    1    2    0    0  0.58757694031E+01  0.40373378565E+02 -0.19093956469E+02  0.46142317227E+02  0.99999951314E+01 0.  0.
         12    1    1    2    0    0 -0.58757694031E+01 -0.40373378565E+02  0.19093956469E+02  0.45045682773E+02  0.00000000000E+00 0. -1.
         11    1    3    3    0    0  0.25827161472E+01  0.16733962046E+02 -0.12139114324E+02  0.20833962784E+02  0.51100000000E-03 0.  1.
        -11    1    3    3    0    0 -0.82024732685E+00  0.88813271374E+01 -0.36397810285E+01  0.96332125273E+01  0.51100000000E-03 0. -1.
        -12    1    3    3    0    0  0.41133005828E+01  0.14758089381E+02 -0.33150611164E+01  0.15675141916E+02  0.00000000000E+00 0.  1.
</event>
<event>
 7    1  0.5743890E-009  0.4614232E+02  0.7816164E-02  0.1320468E+00
        -11   -1    0    0    0    0  0.00000000000E+00  0.00000000000E+00  0.45593999997E+02  0.45594000000E+02  0.51100000000E-03 0. -1.
         11   -1    0    0    0    0 -0.00000000000E+00 -0.00000000000E+00 -0.45593999997E+02  0.45594000000E+02  0.51100000000E-03 0.  1.
    9900012    2    1    2    0    0  0.25886378129E+02  0.21168947535E+02 -0.30180862352E+02  0.46142319134E+02  0.10000012522E+02 0.  0.
         12    1    1    2    0    0 -0.25886378129E+02 -0.21168947535E+02  0.30180862352E+02  0.45045680866E+02  0.00000000000E+00 0. -1.
         11    1    3    3    0    0  0.18012811723E+01  0.25293485578E+01 -0.66254748129E+00  0.31750885680E+01  0.51100000000E-03 0. -1.
        -11    1    3    3    0    0  0.12278901480E+01 -0.58028796002E+00 -0.13368582174E+01  0.19056858311E+01  0.51100000000E-03 0.  1.
        -12    1    3    3    0    0  0.22857206808E+02  0.19219886937E+02 -0.28181456653E+02  0.41061544735E+02  0.00000000000E+00 0.  1.
</event>
<event>
 7    1  0.5743890E-009  0.4614232E+02  0.7816164E-02  0.1320468E+00
        -11   -1    0    0    0    0  0.00000000000E+00  0.00000000000E+00  0.45593999997E+02  0.45594000000E+02  0.51100000000E-03 0. -1.
         11   -1    0    0    0    0 -0.00000000000E+00 -0.00000000000E+00 -0.45593999997E+02  0.45594000000E+02  0.51100000000E-03 0.  1.
    9900012    2    1    2    0    0 -0.43198799445E+02  0.15105962495E+01  0.12676561928E+02  0.46142318777E+02  0.10000009267E+02 0.  0.
        -12    1    1    2    0    0  0.43198799445E+02 -0.15105962495E+01 -0.12676561928E+02  0.45045681223E+02  0.00000000000E+00 0.  1.
         11    1    3    3    0    0 -0.13371452624E+01  0.18625429833E+01  0.88397785014E+00  0.24573239343E+01  0.51100000000E-03 0. -1.
        -11    1    3    3    0    0 -0.14789494851E+02 -0.15921548331E+00  0.21479313983E+01  0.14945504912E+02  0.51100000000E-03 0.  1.
         12    1    3    3    0    0 -0.27072159331E+02 -0.19273125051E+00  0.96446526796E+01  0.28739489931E+02  0.00000000000E+00 0. -1.
</event>
<event>
 7    1  0.5743890E-009  0.4614232E+02  0.7816164E-02  0.1320468E+00
        -11   -1    0    0    0    0  0.00000000000E+00  0.00000000000E+00  0.45593999997E+02  0.45594000000E+02  0.51100000000E-03 0. -1.
         11   -1    0    0    0    0 -0.00000000000E+00 -0.00000000000E+00 -0.45593999997E+02  0.45594000000E+02  0.51100000000E-03 0.  1.
    9900012    2    1    2    0    0  0.17379637123E+02 -0.57014344900E+01 -0.41164976880E+02  0.46142318039E+02  0.10000002537E+02 0.  0.
         12    1    1    2    0    0 -0.17379637123E+02  0.57014344900E+01  0.41164976880E+02  0.45045681961E+02  0.00000000000E+00 0. -1.
         11    1    3    3    0    0  0.10485812624E+02 -0.63392698419E+01 -0.23556037146E+02  0.26552316185E+02  0.51100000000E-03 0. -1.
        -11    1    3    3    0    0  0.60464548456E+01  0.22960626610E+01 -0.11389876548E+02  0.13098122308E+02  0.51100000000E-03 0.  1.
         12    1    3    3    0    0  0.84736965406E+00 -0.16582273091E+01 -0.62190631850E+01  0.64918795459E+01  0.00000000000E+00 0. -1.
</event>
<event>
 7    1  0.5743890E-009  0.4614232E+02  0.7816164E-02  0.1320468E+00
        -11   -1    0    0    0    0  0.00000000000E+00  0.00000000000E+00  0.45593999997E+02  0.45594000000E+02  0.51100000000E-03 0. -1.
         11   -1    0    0    0    0 -0.00000000000E+00 -0.00000000000E+00 -0.45593999997E+02  0.45594000000E+02  0.51100000000E-03 0.  1.
    9900012    2    1    2    0    0 -0.71653850240E+01 -0.31876106763E+02 -0.31011040328E+02  0.46142317109E+02  0.99999940494E+01 0.  0.
         12    1    1    2    0    0  0.71653850240E+01  0.31876106763E+02  0.31011040328E+02  0.45045682891E+02  0.00000000000E+00 0. -1.
         11    1    3    3    0    0 -0.38309227903E+01 -0.66255438578E+01 -0.43107333558E+01  0.87838615178E+01  0.51100000000E-03 0. -1.
        -11    1    3    3    0    0 -0.90692857247E+00 -0.20555005701E+02 -0.18915470315E+02  0.27948627807E+02  0.51100000000E-03 0.  1.
        -12    1    3    3    0    0 -0.24275336612E+01 -0.46955572042E+01 -0.77848366570E+01  0.94098277833E+01  0.00000000000E+00 0.  1.
</event>
<event>
 7    1  0.5743890E-009  0.4614232E+02  0.7816164E-02  0.1320468E+00
        -11   -1    0    0    0    0  0.00000000000E+00  0.00000000000E+00  0.45593999997E+02  0.45594000000E+02  0.51100000000E-03 0. -1.
         11   -1    0    0    0    0 -0.00000000000E+00 -0.00000000000E+00 -0.45593999997E+02  0.45594000000E+02  0.51100000000E-03 0.  1.
    9900012    2    1    2    0    0 -0.12761018038E+02 -0.38464121568E+02 -0.19666754803E+02  0.46142317922E+02  0.10000001466E+02 0.  0.
         12    1    1    2    0    0  0.12761018038E+02  0.38464121568E+02  0.19666754803E+02  0.45045682078E+02  0.00000000000E+00 0. -1.
         11    1    3    3    0    0 -0.34661258886E+01 -0.26500822370E+01 -0.92660147998E+00  0.44604433751E+01  0.51100000000E-03 0. -1.
        -11    1    3    3    0    0 -0.31894038515E+01 -0.19708320485E+02 -0.90645500655E+01  0.21926154734E+02  0.51100000000E-03 0.  1.
         12    1    3    3    0    0 -0.61054882983E+01 -0.16105718846E+02 -0.96756032578E+01  0.19755719812E+02  0.00000000000E+00 0. -1.
</event>
<event>
 7    1  0.5743890E-009  0.4614232E+02  0.7816164E-02  0.1320468E+00
        -11   -1    0    0    0    0  0.00000000000E+00  0.00000000000E+00  0.45593999997E+02  0.45594000000E+02  0.51100000000E-03 0. -1.
         11   -1    0    0    0    0 -0.00000000000E+00 -0.00000000000E+00 -0.45593999997E+02  0.45594000000E+02  0.51100000000E-03 0.  1.
    9900012    2    1    2    0    0 -0.24924687645E+02 -0.21991063796E+02 -0.30401752002E+02  0.46142318011E+02  0.10000002277E+02 0.  0.
         12    1    1    2    0    0  0.24924687645E+02  0.21991063796E+02  0.30401752002E+02  0.45045681989E+02  0.00000000000E+00 0. -1.
         11    1    3    3    0    0 -0.19053826326E+01 -0.53248219519E+01 -0.51801553850E+01  0.76693038713E+01  0.51100000000E-03 0. -1.
        -11    1    3    3    0    0 -0.67265865281E+01 -0.53672785518E+01 -0.11488919714E+02  0.14354439099E+02  0.51100000000E-03 0.  1.
        -12    1    3    3    0    0 -0.16292718484E+02 -0.11298963293E+02 -0.13732676902E+02  0.24118575041E+02  0.00000000000E+00 0.  1.
</event>
<event>
 7    1  0.5743890E-009  0.4614232E+02  0.7816164E-02  0.1320468E+00
        -11   -1    0    0    0    0  0.00000000000E+00  0.00000000000E+00  0.45593999997E+02  0.45594000000E+02  0.51100000000E-03 0. -1.
         11   -1    0    0    0    0 -0.00000000000E+00 -0.00000000000E+00 -0.45593999997E+02  0.45594000000E+02  0.51100000000E-03 0.  1.
    9900012    2    1    2    0    0  0.21580364115E+02 -0.23126222556E+01 -0.39472181581E+02  0.46142318123E+02  0.10000003299E+02 0.  0.
         12    1    1    2    0    0 -0.21580364115E+02  0.23126222556E+01  0.39472181581E+02  0.45045681877E+02  0.00000000000E+00 0. -1.
         11    1    3    3    0    0  0.15484084633E+02 -0.13838673771E+01 -0.22196304731E+02  0.27098854400E+02  0.51100000000E-03 0. -1.
        -11    1    3    3    0    0  0.65924950421E+01  0.12473649036E+00 -0.12555608847E+02  0.14181673521E+02  0.51100000000E-03 0.  1.
        -12    1    3    3    0    0 -0.49621556014E+00 -0.10534913688E+01 -0.47202680038E+01  0.48617902026E+01  0.00000000000E+00 0.  1.
</event>
<event>
 7    1  0.5743890E-009  0.4614232E+02  0.7816164E-02  0.1320468E+00
        -11   -1    0    0    0    0  0.00000000000E+00  0.00000000000E+00  0.45593999997E+02  0.45594000000E+02  0.51100000000E-03 0. -1.
         11   -1    0    0    0    0 -0.00000000000E+00 -0.00000000000E+00 -0.45593999997E+02  0.45594000000E+02  0.51100000000E-03 0.  1.
    9900012    2    1    2    0    0 -0.38304538260E+02  0.21042768708E+02 -0.10912273151E+02  0.46142317948E+02  0.10000001705E+02 0.  0.
         12    1    1    2    0    0  0.38304538260E+02 -0.21042768708E+02  0.10912273151E+02  0.45045682052E+02  0.00000000000E+00 0. -1.
         11    1    3    3    0    0 -0.19526570139E+02  0.60509394709E+01 -0.59447099809E+01  0.21289443086E+02  0.51100000000E-03 0. -1.
        -11    1    3    3    0    0 -0.77345923572E+00 -0.68793332543E-01 -0.58971244961E+00  0.97505525293E+00  0.51100000000E-03 0.  1.
         12    1    3    3    0    0 -0.18004508885E+02  0.15060622569E+02 -0.43778507203E+01  0.23877819610E+02  0.00000000000E+00 0. -1.
</event>
<event>
 7    1  0.5743890E-009  0.4614232E+02  0.7816164E-02  0.1320468E+00
        -11   -1    0    0    0    0  0.00000000000E+00  0.00000000000E+00  0.45593999997E+02  0.45594000000E+02  0.51100000000E-03 0. -1.
         11   -1    0    0    0    0 -0.00000000000E+00 -0.00000000000E+00 -0.45593999997E+02  0.45594000000E+02  0.51100000000E-03 0.  1.
    9900012    2    1    2    0    0 -0.61617859436E+01  0.43742010063E+02  0.88194412359E+01  0.46142316588E+02  0.99999893010E+01 0.  0.
        -12    1    1    2    0    0  0.61617859436E+01 -0.43742010063E+02 -0.88194412359E+01  0.45045683412E+02  0.00000000000E+00 0.  1.
         11    1    3    3    0    0 -0.31957670894E+01  0.19014494907E+02  0.50859488328E+01  0.19940682527E+02  0.51100000000E-03 0. -1.
        -11    1    3    3    0    0 -0.90220918977E+00  0.23434549014E+02  0.29149255852E+01  0.23632368911E+02  0.51100000000E-03 0.  1.
        -12    1    3    3    0    0 -0.20638096644E+01  0.12929661422E+01  0.81856681800E+00  0.25692651501E+01  0.00000000000E+00 0.  1.
</event>
<event>
 7    1  0.5743890E-009  0.4614232E+02  0.7816164E-02  0.1320468E+00
        -11   -1    0    0    0    0  0.00000000000E+00  0.00000000000E+00  0.45593999997E+02  0.45594000000E+02  0.51100000000E-03 0. -1.
         11   -1    0    0    0    0 -0.00000000000E+00 -0.00000000000E+00 -0.45593999997E+02  0.45594000000E+02  0.51100000000E-03 0.  1.
    9900012    2    1    2    0    0  0.43457888135E+02  0.78886125458E+01 -0.88484590913E+01  0.46142317884E+02  0.10000001119E+02 0.  0.
        -12    1    1    2    0    0 -0.43457888135E+02 -0.78886125458E+01  0.88484590913E+01  0.45045682116E+02  0.00000000000E+00 0.  1.
         11    1    3    3    0    0  0.31207646203E+01 -0.95400876652E+00  0.21117626653E+00  0.32701529351E+01  0.51100000000E-03 0.  1.
        -11    1    3    3    0    0  0.37353974936E+02  0.60954802711E+01 -0.82505521126E+01  0.38736880794E+02  0.51100000000E-03 0. -1.
        -12    1    3    3    0    0  0.29831485786E+01  0.27471410412E+01 -0.80908324522E+00  0.41352841547E+01  0.00000000000E+00 0.  1.
</event>
<event>
 7    1  0.5743890E-009  0.4614231E+02  0.7816164E-02  0.1320468E+00
        -11   -1    0    0    0    0  0.00000000000E+00  0.00000000000E+00  0.45593999997E+02  0.45594000000E+02  0.51100000000E-03 0. -1.
         11   -1    0    0    0    0 -0.00000000000E+00 -0.00000000000E+00 -0.45593999997E+02  0.45594000000E+02  0.51100000000E-03 0.  1.
    9900012    2    1    2    0    0  0.36146652077E+02 -0.25924835322E+02 -0.71018478625E+01  0.46142314458E+02  0.99999698832E+01 0.  0.
         12    1    1    2    0    0 -0.36146652077E+02  0.25924835322E+02  0.71018478625E+01  0.45045685542E+02  0.00000000000E+00 0. -1.
         11    1    3    3    0    0  0.13455098613E+02 -0.10432468724E+02 -0.45521549277E+01  0.17623796331E+02  0.51100000000E-03 0. -1.
        -11    1    3    3    0    0  0.15469074223E+02 -0.72201370185E+01  0.64009737424E+00  0.17083101615E+02  0.51100000000E-03 0.  1.
         12    1    3    3    0    0  0.72224792415E+01 -0.82722295790E+01 -0.31897903091E+01  0.11435416513E+02  0.00000000000E+00 0. -1.
</event>
<event>
 7    1  0.5743890E-009  0.4614232E+02  0.7816164E-02  0.1320468E+00
        -11   -1    0    0    0    0  0.00000000000E+00  0.00000000000E+00  0.45593999997E+02  0.45594000000E+02  0.51100000000E-03 0. -1.
         11   -1    0    0    0    0 -0.00000000000E+00 -0.00000000000E+00 -0.45593999997E+02  0.45594000000E+02  0.51100000000E-03 0.  1.
    9900012    2    1    2    0    0 -0.32571407684E+02 -0.13709598134E+02 -0.27933202744E+02  0.46142317687E+02  0.99999993215E+01 0.  0.
         12    1    1    2    0    0  0.32571407684E+02  0.13709598134E+02  0.27933202744E+02  0.45045682313E+02  0.00000000000E+00 0. -1.
         11    1    3    3    0    0 -0.20311332840E+02 -0.68856085601E+01 -0.12729624220E+02  0.24940031677E+02  0.51100000000E-03 0. -1.
        -11    1    3    3    0    0 -0.58862774362E+01 -0.12413807735E+01 -0.84207235504E+01  0.10348810253E+02  0.51100000000E-03 0.  1.
         12    1    3    3    0    0 -0.63737974080E+01 -0.55826088004E+01 -0.67828549733E+01  0.10853475757E+02  0.00000000000E+00 0. -1.
</event>
<event>
 7    1  0.5743890E-009  0.4614232E+02  0.7816164E-02  0.1320468E+00
        -11   -1    0    0    0    0  0.00000000000E+00  0.00000000000E+00  0.45593999997E+02  0.45594000000E+02  0.51100000000E-03 0. -1.
         11   -1    0    0    0    0 -0.00000000000E+00 -0.00000000000E+00 -0.45593999997E+02  0.45594000000E+02  0.51100000000E-03 0.  1.
    9900012    2    1    2    0    0 -0.14082406341E+02  0.40961013123E+02  0.12369106241E+02  0.46142317037E+02  0.99999933977E+01 0.  0.
        -12    1    1    2    0    0  0.14082406341E+02 -0.40961013123E+02 -0.12369106241E+02  0.45045682963E+02  0.00000000000E+00 0.  1.
         11    1    3    3    0    0 -0.30311824362E+01  0.23926814559E+02  0.68953403637E+01  0.25084382410E+02  0.51100000000E-03 0. -1.
        -11    1    3    3    0    0 -0.37744379211E+01  0.49141268750E+01  0.15745632076E+01  0.63932991577E+01  0.51100000000E-03 0.  1.
         12    1    3    3    0    0 -0.72767859832E+01  0.12120071689E+02  0.38992026696E+01  0.14664635470E+02  0.00000000000E+00 0. -1.
</event>
<event>
 7    1  0.5743890E-009  0.4614232E+02  0.7816164E-02  0.1320468E+00
        -11   -1    0    0    0    0  0.00000000000E+00  0.00000000000E+00  0.45593999997E+02  0.45594000000E+02  0.51100000000E-03 0.  1.
         11   -1    0    0    0    0 -0.00000000000E+00 -0.00000000000E+00 -0.45593999997E+02  0.45594000000E+02  0.51100000000E-03 0. -1.
    9900012    2    1    2    0    0  0.31046801420E+02  0.30291176435E+02  0.12151305913E+02  0.46142317814E+02  0.10000000480E+02 0.  0.
         12    1    1    2    0    0 -0.31046801420E+02 -0.30291176435E+02 -0.12151305913E+02  0.45045682186E+02  0.00000000000E+00 0. -1.
         11    1    3    3    0    0  0.11988673208E+02  0.84829268899E+01  0.30007773275E+01  0.14989763131E+02  0.51100000000E-03 0. -1.
        -11    1    3    3    0    0  0.13198021579E+02  0.17216531752E+02  0.38962620578E+01  0.22040362916E+02  0.51100000000E-03 0.  1.
        -12    1    3    3    0    0  0.58601066330E+01  0.45917177928E+01  0.52542665281E+01  0.91121917664E+01  0.00000000000E+00 0.  1.
</event>
<event>
 7    1  0.5743890E-009  0.4614232E+02  0.7816164E-02  0.1320468E+00
        -11   -1    0    0    0    0  0.00000000000E+00  0.00000000000E+00  0.45593999997E+02  0.45594000000E+02  0.51100000000E-03 0. -1.
         11   -1    0    0    0    0 -0.00000000000E+00 -0.00000000000E+00 -0.45593999997E+02  0.45594000000E+02  0.51100000000E-03 0.  1.
    9900012    2    1    2    0    0 -0.33348144806E+01 -0.26991250698E+02  0.35909120159E+02  0.46142317494E+02  0.99999975611E+01 0.  0.
        -12    1    1    2    0    0  0.33348144806E+01  0.26991250698E+02 -0.35909120159E+02  0.45045682506E+02  0.00000000000E+00 0.  1.
         11    1    3    3    0    0  0.12569669577E+01 -0.47523262465E+01  0.89472309515E+01  0.10208697892E+02  0.51100000000E-03 0. -1.
        -11    1    3    3    0    0  0.10459166051E+01 -0.26485866172E+01  0.62721247721E+01  0.68882873076E+01  0.51100000000E-03 0.  1.
         12    1    3    3    0    0 -0.56376980434E+01 -0.19590337834E+02  0.20689764436E+02  0.29045332294E+02  0.00000000000E+00 0. -1.
</event>
<event>
 7    1  0.5743890E-009  0.4614232E+02  0.7816164E-02  0.1320468E+00
        -11   -1    0    0    0    0  0.00000000000E+00  0.00000000000E+00  0.45593999997E+02  0.45594000000E+02  0.51100000000E-03 0.  1.
         11   -1    0    0    0    0 -0.00000000000E+00 -0.00000000000E+00 -0.45593999997E+02  0.45594000000E+02  0.51100000000E-03 0. -1.
    9900012    2    1    2    0    0  0.22365226979E+02 -0.20827004362E+02  0.33092989944E+02  0.46142317943E+02  0.10000001661E+02 0.  0.
        -12    1    1    2    0    0 -0.22365226979E+02  0.20827004362E+02 -0.33092989944E+02  0.45045682057E+02  0.00000000000E+00 0.  1.
         11    1    3    3    0    0  0.19866069603E+02 -0.19679102392E+02  0.27731143123E+02  0.39382027520E+02  0.51100000000E-03 0. -1.
        -11    1    3    3    0    0  0.22945395681E+01 -0.21031605177E+01  0.43972911762E+01  0.53874266531E+01  0.51100000000E-03 0.  1.
        -12    1    3    3    0    0  0.20461780806E+00  0.95525854745E+00  0.96455564473E+00  0.13728637702E+01  0.00000000000E+00 0.  1.
</event>
<event>
 7    1  0.5743890E-009  0.4614232E+02  0.7816164E-02  0.1320468E+00
        -11   -1    0    0    0    0  0.00000000000E+00  0.00000000000E+00  0.45593999997E+02  0.45594000000E+02  0.51100000000E-03 0. -1.
         11   -1    0    0    0    0 -0.00000000000E+00 -0.00000000000E+00 -0.45593999997E+02  0.45594000000E+02  0.51100000000E-03 0.  1.
    9900012    2    1    2    0    0  0.19235553325E+02  0.32824355746E+02 -0.24117806354E+02  0.46142318462E+02  0.10000006395E+02 0.  0.
         12    1    1    2    0    0 -0.19235553325E+02 -0.32824355746E+02  0.24117806354E+02  0.45045681538E+02  0.00000000000E+00 0. -1.
         11    1    3    3    0    0  0.38492813998E+01  0.54940922250E+01 -0.37152036968E+01  0.76684258777E+01  0.51100000000E-03 0. -1.
        -11    1    3    3    0    0  0.14125478300E+02  0.25518260612E+02 -0.15348792042E+02  0.32959007559E+02  0.51100000000E-03 0.  1.
         12    1    3    3    0    0  0.12607936255E+01  0.18120029082E+01 -0.50538106157E+01  0.55148850255E+01  0.00000000000E+00 0. -1.
</event>
<event>
 7    1  0.5743890E-009  0.4614232E+02  0.7816164E-02  0.1320468E+00
        -11   -1    0    0    0    0  0.00000000000E+00  0.00000000000E+00  0.45593999997E+02  0.45594000000E+02  0.51100000000E-03 0. -1.
         11   -1    0    0    0    0 -0.00000000000E+00 -0.00000000000E+00 -0.45593999997E+02  0.45594000000E+02  0.51100000000E-03 0.  1.
    9900012    2    1    2    0    0 -0.11068893806E+02 -0.94438545630E+01  0.42631053270E+02  0.46142317609E+02  0.99999986173E+01 0.  0.
        -12    1    1    2    0    0  0.11068893806E+02  0.94438545630E+01 -0.42631053270E+02  0.45045682391E+02  0.00000000000E+00 0.  1.
         11    1    3    3    0    0 -0.37970344075E+01  0.15189053066E+01  0.97982697574E+01  0.10617468348E+02  0.51100000000E-03 0. -1.
        -11    1    3    3    0    0 -0.33555679968E+01 -0.63620918243E+01  0.13889896624E+02  0.15641779868E+02  0.51100000000E-03 0.  1.
         12    1    3    3    0    0 -0.39162914016E+01 -0.46006680453E+01  0.18942886889E+02  0.19883069393E+02  0.00000000000E+00 0. -1.
</event>
<event>
 7    1  0.5743890E-009  0.4614232E+02  0.7816164E-02  0.1320468E+00
        -11   -1    0    0    0    0  0.00000000000E+00  0.00000000000E+00  0.45593999997E+02  0.45594000000E+02  0.51100000000E-03 0. -1.
         11   -1    0    0    0    0 -0.00000000000E+00 -0.00000000000E+00 -0.45593999997E+02  0.45594000000E+02  0.51100000000E-03 0.  1.
    9900012    2    1    2    0    0  0.14619525446E+02 -0.54550113010E+01 -0.42256666025E+02  0.46142317675E+02  0.99999992180E+01 0.  0.
         12    1    1    2    0    0 -0.14619525446E+02  0.54550113010E+01  0.42256666025E+02  0.45045682325E+02  0.00000000000E+00 0. -1.
         11    1    3    3    0    0  0.10326997758E+01 -0.21528026552E+01 -0.21377057892E+01  0.32048111335E+01  0.51100000000E-03 0. -1.
        -11    1    3    3    0    0  0.11931833988E+02 -0.42193025384E+01 -0.38202955622E+02  0.40244713873E+02  0.51100000000E-03 0.  1.
         12    1    3    3    0    0  0.16549916822E+01  0.91709389264E+00 -0.19160046137E+01  0.26927926685E+01  0.00000000000E+00 0. -1.
</event>
<event>
 7    1  0.5743890E-009  0.4614232E+02  0.7816164E-02  0.1320468E+00
        -11   -1    0    0    0    0  0.00000000000E+00  0.00000000000E+00  0.45593999997E+02  0.45594000000E+02  0.51100000000E-03 0. -1.
         11   -1    0    0    0    0 -0.00000000000E+00 -0.00000000000E+00 -0.45593999997E+02  0.45594000000E+02  0.51100000000E-03 0.  1.
    9900012    2    1    2    0    0 -0.17556512541E+01 -0.39013777103E+02  0.22448973511E+02  0.46142317334E+02  0.99999961030E+01 0.  0.
        -12    1    1    2    0    0  0.17556512541E+01  0.39013777103E+02 -0.22448973511E+02  0.45045682666E+02  0.00000000000E+00 0.  1.
         11    1    3    3    0    0 -0.25179457129E+01 -0.10572041459E+02  0.11018783676E+02  0.15476488787E+02  0.51100000000E-03 0. -1.
        -11    1    3    3    0    0  0.71170631412E-02 -0.42838577229E+01  0.15775014360E+01  0.45650847401E+01  0.51100000000E-03 0.  1.
         12    1    3    3    0    0  0.75517739567E+00 -0.24157877921E+02  0.98526883990E+01  0.26100743806E+02  0.00000000000E+00 0. -1.
</event>
<event>
 7    1  0.5743890E-009  0.4614232E+02  0.7816164E-02  0.1320468E+00
        -11   -1    0    0    0    0  0.00000000000E+00  0.00000000000E+00  0.45593999997E+02  0.45594000000E+02  0.51100000000E-03 0. -1.
         11   -1    0    0    0    0 -0.00000000000E+00 -0.00000000000E+00 -0.45593999997E+02  0.45594000000E+02  0.51100000000E-03 0.  1.
    9900012    2    1    2    0    0  0.67239481303E+01  0.38525740020E+02 -0.22353283180E+02  0.46142318837E+02  0.10000009809E+02 0.  0.
         12    1    1    2    0    0 -0.67239481303E+01 -0.38525740020E+02  0.22353283180E+02  0.45045681163E+02  0.00000000000E+00 0. -1.
         11    1    3    3    0    0  0.44763867616E+01  0.96893944360E+01 -0.36738168085E+01  0.11288017239E+02  0.51100000000E-03 0.  1.
        -11    1    3    3    0    0  0.76387935973E+00  0.87156200993E+01 -0.28217562470E+01  0.91928153452E+01  0.51100000000E-03 0. -1.
        -12    1    3    3    0    0  0.14836820090E+01  0.20120725485E+02 -0.15857710124E+02  0.25661486253E+02  0.00000000000E+00 0.  1.
</event>
<event>
 7    1  0.5743890E-009  0.4614232E+02  0.7816164E-02  0.1320468E+00
        -11   -1    0    0    0    0  0.00000000000E+00  0.00000000000E+00  0.45593999997E+02  0.45594000000E+02  0.51100000000E-03 0. -1.
         11   -1    0    0    0    0 -0.00000000000E+00 -0.00000000000E+00 -0.45593999997E+02  0.45594000000E+02  0.51100000000E-03 0.  1.
    9900012    2    1    2    0    0 -0.55396981107E+01 -0.92901067049E+01 -0.43727783121E+02  0.46142319248E+02  0.10000013558E+02 0.  0.
         12    1    1    2    0    0  0.55396981107E+01  0.92901067049E+01  0.43727783121E+02  0.45045680752E+02  0.00000000000E+00 0. -1.
         11    1    3    3    0    0 -0.13421573338E+01 -0.10029204055E+01 -0.71788610478E+00  0.18227990479E+01  0.51100000000E-03 0. -1.
        -11    1    3    3    0    0 -0.15555326305E+00  0.22798812400E+00 -0.96397168725E+01  0.96436671990E+01  0.51100000000E-03 0.  1.
         12    1    3    3    0    0 -0.40419875138E+01 -0.85151744234E+01 -0.33370180144E+02  0.34675853001E+02  0.00000000000E+00 0. -1.
</event>
<event>
 7    1  0.5743890E-009  0.4614232E+02  0.7816164E-02  0.1320468E+00
        -11   -1    0    0    0    0  0.00000000000E+00  0.00000000000E+00  0.45593999997E+02  0.45594000000E+02  0.51100000000E-03 0.  1.
         11   -1    0    0    0    0 -0.00000000000E+00 -0.00000000000E+00 -0.45593999997E+02  0.45594000000E+02  0.51100000000E-03 0. -1.
    9900012    2    1    2    0    0  0.38830634342E+02 -0.84635815286E+01 -0.21205260488E+02  0.46142318209E+02  0.10000004084E+02 0.  0.
         12    1    1    2    0    0 -0.38830634342E+02  0.84635815286E+01  0.21205260488E+02  0.45045681791E+02  0.00000000000E+00 0. -1.
         11    1    3    3    0    0  0.64729788785E+01 -0.11719479075E+01 -0.21482420761E+01  0.69201056162E+01  0.51100000000E-03 0. -1.
        -11    1    3    3    0    0  0.32511795777E+02 -0.73210100145E+01 -0.19596391162E+02  0.38660478516E+02  0.51100000000E-03 0.  1.
        -12    1    3    3    0    0 -0.15414031377E+00  0.29376393420E-01  0.53937275052E+00  0.56173407661E+00  0.00000000000E+00 0.  1.
</event>
<event>
 7    1  0.5743890E-009  0.4614232E+02  0.7816164E-02  0.1320468E+00
        -11   -1    0    0    0    0  0.00000000000E+00  0.00000000000E+00  0.45593999997E+02  0.45594000000E+02  0.51100000000E-03 0. -1.
         11   -1    0    0    0    0 -0.00000000000E+00 -0.00000000000E+00 -0.45593999997E+02  0.45594000000E+02  0.51100000000E-03 0.  1.
    9900012    2    1    2    0    0 -0.35479484460E+02 -0.25892850020E+02 -0.99939942282E+01  0.46142318516E+02  0.10000006888E+02 0.  0.
         12    1    1    2    0    0  0.35479484460E+02  0.25892850020E+02  0.99939942282E+01  0.45045681484E+02  0.00000000000E+00 0. -1.
         11    1    3    3    0    0 -0.14505481871E+02 -0.75377129073E+01 -0.55622655816E+01  0.17267452587E+02  0.51100000000E-03 0. -1.
        -11    1    3    3    0    0 -0.17093917640E+02 -0.15974250570E+02 -0.58319963917E+01  0.24112048518E+02  0.51100000000E-03 0.  1.
         12    1    3    3    0    0 -0.38800849491E+01 -0.23808865425E+01  0.14002677451E+01  0.47628174118E+01  0.00000000000E+00 0. -1.
</event>
<event>
 7    1  0.5825807E-009  0.4614232E+02  0.7816164E-02  0.1320468E+00
        -11   -1    0    0    0    0  0.00000000000E+00  0.00000000000E+00  0.45593999997E+02  0.45594000000E+02  0.51100000000E-03 0. -1.
         11   -1    0    0    0    0 -0.00000000000E+00 -0.00000000000E+00 -0.45593999997E+02  0.45594000000E+02  0.51100000000E-03 0.  1.
    9900012    2    1    2    0    0  0.14467369903E+02  0.72038355832E+01 -0.42046564263E+02  0.46142316463E+02  0.99999881624E+01 0.  0.
         12    1    1    2    0    0 -0.14467369903E+02 -0.72038355832E+01  0.42046564263E+02  0.45045683537E+02  0.00000000000E+00 0. -1.
         11    1    3    3    0    0  0.23680043472E+01  0.13643189925E+01 -0.19232197907E+01  0.33417937588E+01  0.51100000000E-03 0. -1.
        -11    1    3    3    0    0  0.30460237376E+01  0.31537571765E+01 -0.62437981336E+01  0.76295124570E+01  0.51100000000E-03 0.  1.
        -12    1    3    3    0    0  0.90533418183E+01  0.26857594142E+01 -0.33879546338E+02  0.35171010247E+02  0.00000000000E+00 0.  1.
</event>
<event>
 7    1  0.5743890E-009  0.4614232E+02  0.7816164E-02  0.1320468E+00
        -11   -1    0    0    0    0  0.00000000000E+00  0.00000000000E+00  0.45593999997E+02  0.45594000000E+02  0.51100000000E-03 0. -1.
         11   -1    0    0    0    0 -0.00000000000E+00 -0.00000000000E+00 -0.45593999997E+02  0.45594000000E+02  0.51100000000E-03 0.  1.
    9900012    2    1    2    0    0 -0.35370337833E+02 -0.51121340437E+01  0.27421139472E+02  0.46142316490E+02  0.99999884113E+01 0.  0.
        -12    1    1    2    0    0  0.35370337833E+02  0.51121340437E+01 -0.27421139472E+02  0.45045683510E+02  0.00000000000E+00 0.  1.
         11    1    3    3    0    0 -0.19684668742E+02 -0.45440727888E+01  0.18290219200E+02  0.27251915522E+02  0.51100000000E-03 0. -1.
        -11    1    3    3    0    0 -0.15858240878E+02  0.86179849002E-01  0.86989096737E+01  0.18087627276E+02  0.51100000000E-03 0.  1.
         12    1    3    3    0    0  0.17257178640E+00 -0.65424110389E+00  0.43201059823E+00  0.80277369193E+00  0.00000000000E+00 0. -1.
</event>
<event>
 7    1  0.5743890E-009  0.4614232E+02  0.7816164E-02  0.1320468E+00
        -11   -1    0    0    0    0  0.00000000000E+00  0.00000000000E+00  0.45593999997E+02  0.45594000000E+02  0.51100000000E-03 0.  1.
         11   -1    0    0    0    0 -0.00000000000E+00 -0.00000000000E+00 -0.45593999997E+02  0.45594000000E+02  0.51100000000E-03 0. -1.
    9900012    2    1    2    0    0 -0.33631070790E+02  0.29621890269E+02  0.45396267503E+01  0.46142317448E+02  0.99999971430E+01 0.  0.
         12    1    1    2    0    0  0.33631070790E+02 -0.29621890269E+02 -0.45396267503E+01  0.45045682552E+02  0.00000000000E+00 0. -1.
         11    1    3    3    0    0 -0.79013364619E+00  0.13200117425E+01  0.18365653744E+01  0.23957701924E+01  0.51100000000E-03 0. -1.
        -11    1    3    3    0    0 -0.16627741246E+02  0.17703704283E+02  0.18405715214E+01  0.24357557925E+02  0.51100000000E-03 0.  1.
         12    1    3    3    0    0 -0.16213195898E+02  0.10598174243E+02  0.86248985450E+00  0.19388989331E+02  0.00000000000E+00 0. -1.
</event>
<event>
 7    1  0.5743890E-009  0.4614231E+02  0.7816164E-02  0.1320468E+00
        -11   -1    0    0    0    0  0.00000000000E+00  0.00000000000E+00  0.45593999997E+02  0.45594000000E+02  0.51100000000E-03 0. -1.
         11   -1    0    0    0    0 -0.00000000000E+00 -0.00000000000E+00 -0.45593999997E+02  0.45594000000E+02  0.51100000000E-03 0.  1.
    9900012    2    1    2    0    0 -0.26021004030E+02 -0.16308934449E+02 -0.32955117208E+02  0.46142314925E+02  0.99999741424E+01 0.  0.
         12    1    1    2    0    0  0.26021004030E+02  0.16308934449E+02  0.32955117208E+02  0.45045685075E+02  0.00000000000E+00 0. -1.
         11    1    3    3    0    0 -0.32542869910E+01 -0.22010583544E+01 -0.70739838421E+01  0.80917420472E+01  0.51100000000E-03 0. -1.
        -11    1    3    3    0    0 -0.13104624080E+02 -0.77651473019E+01 -0.19827736647E+02  0.25003356288E+02  0.51100000000E-03 0.  1.
        -12    1    3    3    0    0 -0.96620929593E+01 -0.63427287930E+01 -0.60533967196E+01  0.13047216590E+02  0.00000000000E+00 0.  1.
</event>
<event>
 7    1  0.6872627E-009  0.4614232E+02  0.7816164E-02  0.1320468E+00
        -11   -1    0    0    0    0  0.00000000000E+00  0.00000000000E+00  0.45593999997E+02  0.45594000000E+02  0.51100000000E-03 0. -1.
         11   -1    0    0    0    0 -0.00000000000E+00 -0.00000000000E+00 -0.45593999997E+02  0.45594000000E+02  0.51100000000E-03 0.  1.
    9900012    2    1    2    0    0  0.34819911081E+02 -0.42731707727E+01  0.28256454834E+02  0.46142318344E+02  0.10000005312E+02 0.  0.
        -12    1    1    2    0    0 -0.34819911081E+02  0.42731707727E+01 -0.28256454834E+02  0.45045681656E+02  0.00000000000E+00 0.  1.
         11    1    3    3    0    0  0.26454229916E+01  0.13916411709E+01  0.24175503179E+01  0.38444086351E+01  0.51100000000E-03 0. -1.
        -11    1    3    3    0    0  0.10139318996E+02  0.71238150433E+00  0.50934566486E+01  0.11369106297E+02  0.51100000000E-03 0.  1.
         12    1    3    3    0    0  0.22035169093E+02 -0.63771934479E+01  0.20745447867E+02  0.30928803411E+02  0.00000000000E+00 0. -1.
</event>
<event>
 7    1  0.5743890E-009  0.4614232E+02  0.7816164E-02  0.1320468E+00
        -11   -1    0    0    0    0  0.00000000000E+00  0.00000000000E+00  0.45593999997E+02  0.45594000000E+02  0.51100000000E-03 0. -1.
         11   -1    0    0    0    0 -0.00000000000E+00 -0.00000000000E+00 -0.45593999997E+02  0.45594000000E+02  0.51100000000E-03 0.  1.
    9900012    2    1    2    0    0  0.27595004197E+02  0.20500226614E+02 -0.29109619723E+02  0.46142317541E+02  0.99999979884E+01 0.  0.
         12    1    1    2    0    0 -0.27595004197E+02 -0.20500226614E+02  0.29109619723E+02  0.45045682459E+02  0.00000000000E+00 0. -1.
         11    1    3    3    0    0  0.33117338459E+01  0.43413393435E+01 -0.36159051068E+01  0.65490135413E+01  0.51100000000E-03 0. -1.
        -11    1    3    3    0    0  0.10109480607E+02  0.38050035881E+01 -0.13508484530E+02  0.17296207822E+02  0.51100000000E-03 0.  1.
         12    1    3    3    0    0  0.14173789744E+02  0.12353883682E+02 -0.11985230085E+02  0.22297096178E+02  0.00000000000E+00 0. -1.
</event>
<event>
 7    1  0.5743890E-009  0.4614232E+02  0.7816164E-02  0.1320468E+00
        -11   -1    0    0    0    0  0.00000000000E+00  0.00000000000E+00  0.45593999997E+02  0.45594000000E+02  0.51100000000E-03 0.  1.
         11   -1    0    0    0    0 -0.00000000000E+00 -0.00000000000E+00 -0.45593999997E+02  0.45594000000E+02  0.51100000000E-03 0. -1.
    9900012    2    1    2    0    0  0.43065163567E+02  0.86281893680E+01 -0.10002980256E+02  0.46142316757E+02  0.99999908449E+01 0.  0.
         12    1    1    2    0    0 -0.43065163567E+02 -0.86281893680E+01  0.10002980256E+02  0.45045683243E+02  0.00000000000E+00 0. -1.
         11    1    3    3    0    0  0.77256868244E+01  0.20561831479E+01  0.72235273102E+00  0.80271987502E+01  0.51100000000E-03 0. -1.
        -11    1    3    3    0    0  0.23131760579E+02  0.18457783745E+01 -0.90923034082E+01  0.24922985913E+02  0.51100000000E-03 0.  1.
        -12    1    3    3    0    0  0.12207716163E+02  0.47262278456E+01 -0.16330295785E+01  0.13192132094E+02  0.00000000000E+00 0.  1.
</event>
<event>
 7    1  0.5743890E-009  0.4614232E+02  0.7816164E-02  0.1320468E+00
        -11   -1    0    0    0    0  0.00000000000E+00  0.00000000000E+00  0.45593999997E+02  0.45594000000E+02  0.51100000000E-03 0. -1.
         11   -1    0    0    0    0 -0.00000000000E+00 -0.00000000000E+00 -0.45593999997E+02  0.45594000000E+02  0.51100000000E-03 0.  1.
    9900012    2    1    2    0    0  0.73914127029E+01  0.71066607023E+01 -0.43863149449E+02  0.46142317768E+02  0.10000000067E+02 0.  0.
         12    1    1    2    0    0 -0.73914127029E+01 -0.71066607023E+01  0.43863149449E+02  0.45045682232E+02  0.00000000000E+00 0. -1.
         11    1    3    3    0    0  0.46152088825E+00  0.55444241418E+00 -0.11115999879E+00  0.72990734164E+00  0.51100000000E-03 0. -1.
        -11    1    3    3    0    0  0.28921575473E+01 -0.10515297425E+01 -0.17952773895E+02  0.18214619975E+02  0.51100000000E-03 0.  1.
         12    1    3    3    0    0  0.40377342674E+01  0.76037480306E+01 -0.25799215556E+02  0.27197790451E+02  0.00000000000E+00 0. -1.
</event>
<event>
 7    1  0.5743890E-009  0.4614232E+02  0.7816164E-02  0.1320468E+00
        -11   -1    0    0    0    0  0.00000000000E+00  0.00000000000E+00  0.45593999997E+02  0.45594000000E+02  0.51100000000E-03 0. -1.
         11   -1    0    0    0    0 -0.00000000000E+00 -0.00000000000E+00 -0.45593999997E+02  0.45594000000E+02  0.51100000000E-03 0.  1.
    9900012    2    1    2    0    0  0.12759172215E+01  0.27112129775E+02  0.35950214673E+02  0.46142317846E+02  0.10000000775E+02 0.  0.
        -12    1    1    2    0    0 -0.12759172215E+01 -0.27112129775E+02 -0.35950214673E+02  0.45045682154E+02  0.00000000000E+00 0.  1.
         11    1    3    3    0    0 -0.22335749191E+01  0.96042978955E+01  0.13344866635E+02  0.16592674912E+02  0.51100000000E-03 0. -1.
        -11    1    3    3    0    0 -0.54367328854E+00  0.33950580904E+01  0.13026397645E+01  0.36768016942E+01  0.51100000000E-03 0.  1.
        -12    1    3    3    0    0  0.40531654292E+01  0.14112773789E+02  0.21302708273E+02  0.25872841239E+02  0.00000000000E+00 0.  1.
</event>
<event>
 7    1  0.5743890E-009  0.4614232E+02  0.7816164E-02  0.1320468E+00
        -11   -1    0    0    0    0  0.00000000000E+00  0.00000000000E+00  0.45593999997E+02  0.45594000000E+02  0.51100000000E-03 0. -1.
         11   -1    0    0    0    0 -0.00000000000E+00 -0.00000000000E+00 -0.45593999997E+02  0.45594000000E+02  0.51100000000E-03 0.  1.
    9900012    2    1    2    0    0 -0.27808960161E+02 -0.18897868620E+02 -0.29977420268E+02  0.46142318414E+02  0.10000005955E+02 0.  0.
         12    1    1    2    0    0  0.27808960161E+02  0.18897868620E+02  0.29977420268E+02  0.45045681586E+02  0.00000000000E+00 0. -1.
         11    1    3    3    0    0 -0.92406912515E+01 -0.36349214227E+01 -0.53897643196E+01  0.11298344491E+02  0.51100000000E-03 0. -1.
        -11    1    3    3    0    0 -0.11397226522E+02 -0.10089439791E+02 -0.11626480457E+02  0.19153814653E+02  0.51100000000E-03 0.  1.
         12    1    3    3    0    0 -0.71710423879E+01 -0.51735074070E+01 -0.12961175491E+02  0.15690159271E+02  0.00000000000E+00 0. -1.
</event>
<event>
 7    1  0.5743890E-009  0.4614232E+02  0.7816164E-02  0.1320468E+00
        -11   -1    0    0    0    0  0.00000000000E+00  0.00000000000E+00  0.45593999997E+02  0.45594000000E+02  0.51100000000E-03 0. -1.
         11   -1    0    0    0    0 -0.00000000000E+00 -0.00000000000E+00 -0.45593999997E+02  0.45594000000E+02  0.51100000000E-03 0.  1.
    9900012    2    1    2    0    0  0.12636668350E+01 -0.84687734377E+01  0.44224387552E+02  0.46142318390E+02  0.10000005733E+02 0.  0.
        -12    1    1    2    0    0 -0.12636668350E+01  0.84687734377E+01 -0.44224387552E+02  0.45045681610E+02  0.00000000000E+00 0.  1.
         11    1    3    3    0    0 -0.34020931748E+01 -0.33407492243E+01  0.14735926707E+02  0.15488136735E+02  0.51100000000E-03 0. -1.
        -11    1    3    3    0    0  0.24881131531E+01 -0.56139455680E+01  0.21385568118E+02  0.22249710468E+02  0.51100000000E-03 0.  1.
        -12    1    3    3    0    0  0.21776468566E+01  0.48592135456E+00  0.81028927265E+01  0.84044711869E+01  0.00000000000E+00 0.  1.
</event>
<event>
 7    1  0.5743890E-009  0.4614232E+02  0.7816164E-02  0.1320468E+00
        -11   -1    0    0    0    0  0.00000000000E+00  0.00000000000E+00  0.45593999997E+02  0.45594000000E+02  0.51100000000E-03 0. -1.
         11   -1    0    0    0    0 -0.00000000000E+00 -0.00000000000E+00 -0.45593999997E+02  0.45594000000E+02  0.51100000000E-03 0.  1.
    9900012    2    1    2    0    0  0.34759827727E+02 -0.32415903189E+01 -0.28466823755E+02  0.46142316676E+02  0.99999901035E+01 0.  0.
         12    1    1    2    0    0 -0.34759827727E+02  0.32415903189E+01  0.28466823755E+02  0.45045683324E+02  0.00000000000E+00 0. -1.
         11    1    3    3    0    0  0.20589526845E+01 -0.18083300157E+01 -0.37153589073E+01  0.46166260054E+01  0.51100000000E-03 0. -1.
        -11    1    3    3    0    0  0.30924696902E+02 -0.27121712082E+01 -0.23897424141E+02  0.39176263630E+02  0.51100000000E-03 0.  1.
         12    1    3    3    0    0  0.17761781406E+01  0.12789109050E+01 -0.85404070714E+00  0.23494270407E+01  0.00000000000E+00 0. -1.
</event>
<event>
 7    1  0.5743890E-009  0.4614232E+02  0.7816164E-02  0.1320468E+00
        -11   -1    0    0    0    0  0.00000000000E+00  0.00000000000E+00  0.45593999997E+02  0.45594000000E+02  0.51100000000E-03 0. -1.
         11   -1    0    0    0    0 -0.00000000000E+00 -0.00000000000E+00 -0.45593999997E+02  0.45594000000E+02  0.51100000000E-03 0.  1.
    9900012    2    1    2    0    0 -0.13807577123E+01 -0.12399832359E+02 -0.43283381851E+02  0.46142317867E+02  0.10000000966E+02 0.  0.
         12    1    1    2    0    0  0.13807577123E+01  0.12399832359E+02  0.43283381851E+02  0.45045682133E+02  0.00000000000E+00 0. -1.
         11    1    3    3    0    0 -0.17400332081E+01 -0.38653540869E+01 -0.52999032733E+01  0.67865788694E+01  0.51100000000E-03 0. -1.
        -11    1    3    3    0    0 -0.16844021932E+01 -0.62281152804E+00 -0.37122890684E+01  0.41238568521E+01  0.51100000000E-03 0.  1.
         12    1    3    3    0    0  0.20436776890E+01 -0.79116667435E+01 -0.34271189509E+02  0.35231882146E+02  0.00000000000E+00 0. -1.
</event>
<event>
 7    1  0.5743890E-009  0.4614232E+02  0.7816164E-02  0.1320468E+00
        -11   -1    0    0    0    0  0.00000000000E+00  0.00000000000E+00  0.45593999997E+02  0.45594000000E+02  0.51100000000E-03 0. -1.
         11   -1    0    0    0    0 -0.00000000000E+00 -0.00000000000E+00 -0.45593999997E+02  0.45594000000E+02  0.51100000000E-03 0.  1.
    9900012    2    1    2    0    0  0.42606569127E+01  0.27308797139E+02  0.35569509736E+02  0.46142316285E+02  0.99999865410E+01 0.  0.
        -12    1    1    2    0    0 -0.42606569127E+01 -0.27308797139E+02 -0.35569509736E+02  0.45045683715E+02  0.00000000000E+00 0.  1.
         11    1    3    3    0    0  0.13403758978E+01  0.17940094893E+02  0.22764698098E+02  0.29015083871E+02  0.51100000000E-03 0. -1.
        -11    1    3    3    0    0  0.22550540459E+01  0.84577646432E+01  0.69836326679E+01  0.11197775538E+02  0.51100000000E-03 0.  1.
         12    1    3    3    0    0  0.66522696896E+00  0.91093760303E+00  0.58211789703E+01  0.59294568757E+01  0.00000000000E+00 0. -1.
</event>
<event>
 7    1  0.5743890E-009  0.4614232E+02  0.7816164E-02  0.1320468E+00
        -11   -1    0    0    0    0  0.00000000000E+00  0.00000000000E+00  0.45593999997E+02  0.45594000000E+02  0.51100000000E-03 0. -1.
         11   -1    0    0    0    0 -0.00000000000E+00 -0.00000000000E+00 -0.45593999997E+02  0.45594000000E+02  0.51100000000E-03 0.  1.
    9900012    2    1    2    0    0  0.84515843671E+00 -0.38358352613E+02 -0.23601609642E+02  0.46142317791E+02  0.10000000272E+02 0.  0.
         12    1    1    2    0    0 -0.84515843671E+00  0.38358352613E+02  0.23601609642E+02  0.45045682209E+02  0.00000000000E+00 0. -1.
         11    1    3    3    0    0  0.11859069057E+01 -0.36956727815E+01 -0.97629262156E+00  0.40021894060E+01  0.51100000000E-03 0. -1.
        -11    1    3    3    0    0  0.30412275409E+01 -0.64065306037E+01 -0.43539253484E+01  0.83216203670E+01  0.51100000000E-03 0.  1.
         12    1    3    3    0    0 -0.33819760099E+01 -0.28256149228E+02 -0.18271391672E+02  0.33818508018E+02  0.00000000000E+00 0. -1.
</event>
<event>
 7    1  0.5743890E-009  0.4614232E+02  0.7816164E-02  0.1320468E+00
        -11   -1    0    0    0    0  0.00000000000E+00  0.00000000000E+00  0.45593999997E+02  0.45594000000E+02  0.51100000000E-03 0. -1.
         11   -1    0    0    0    0 -0.00000000000E+00 -0.00000000000E+00 -0.45593999997E+02  0.45594000000E+02  0.51100000000E-03 0.  1.
    9900012    2    1    2    0    0 -0.77028616461E+00 -0.34915966276E+02  0.28449875295E+02  0.46142318230E+02  0.10000004279E+02 0.  0.
        -12    1    1    2    0    0  0.77028616461E+00  0.34915966276E+02 -0.28449875295E+02  0.45045681770E+02  0.00000000000E+00 0.  1.
         11    1    3    3    0    0  0.17657092764E+01 -0.99983572273E+01  0.89503995074E+01  0.13534937314E+02  0.51100000000E-03 0. -1.
        -11    1    3    3    0    0 -0.51427541020E+01 -0.17511550972E+02  0.14364364320E+02  0.23225789541E+02  0.51100000000E-03 0.  1.
        -12    1    3    3    0    0  0.26067586610E+01 -0.74060580769E+01  0.51351114675E+01  0.93815913756E+01  0.00000000000E+00 0.  1.
</event>
<event>
 7    1  0.6263904E-009  0.4614232E+02  0.7816164E-02  0.1320468E+00
        -11   -1    0    0    0    0  0.00000000000E+00  0.00000000000E+00  0.45593999997E+02  0.45594000000E+02  0.51100000000E-03 0. -1.
         11   -1    0    0    0    0 -0.00000000000E+00 -0.00000000000E+00 -0.45593999997E+02  0.45594000000E+02  0.51100000000E-03 0.  1.
    9900012    2    1    2    0    0  0.50422997985E+01  0.51622068163E+01  0.44463920671E+02  0.46142318654E+02  0.10000008145E+02 0.  0.
        -12    1    1    2    0    0 -0.50422997985E+01 -0.51622068163E+01 -0.44463920671E+02  0.45045681346E+02  0.00000000000E+00 0.  1.
         11    1    3    3    0    0 -0.21034242937E+01  0.38104819705E+01  0.17327449425E+02  0.17865740132E+02  0.51100000000E-03 0. -1.
        -11    1    3    3    0    0  0.16566720091E+01 -0.68839901281E+00  0.35957916070E+01  0.40184789272E+01  0.51100000000E-03 0.  1.
         12    1    3    3    0    0  0.54890520831E+01  0.20401238586E+01  0.23540679639E+02  0.24258099595E+02  0.00000000000E+00 0. -1.
</event>
<event>
 7    1  0.5743890E-009  0.4614232E+02  0.7816164E-02  0.1320468E+00
        -11   -1    0    0    0    0  0.00000000000E+00  0.00000000000E+00  0.45593999997E+02  0.45594000000E+02  0.51100000000E-03 0. -1.
         11   -1    0    0    0    0 -0.00000000000E+00 -0.00000000000E+00 -0.45593999997E+02  0.45594000000E+02  0.51100000000E-03 0.  1.
    9900012    2    1    2    0    0  0.23146538107E+02  0.34129355458E+01  0.38492897517E+02  0.46142317470E+02  0.99999973456E+01 0.  0.
        -12    1    1    2    0    0 -0.23146538107E+02 -0.34129355458E+01 -0.38492897517E+02  0.45045682530E+02  0.00000000000E+00 0.  1.
         11    1    3    3    0    0  0.97171545777E+01  0.19816350065E+01  0.15921805293E+02  0.18757767843E+02  0.51100000000E-03 0. -1.
        -11    1    3    3    0    0  0.98562295777E+01 -0.23488897471E+01  0.16766776824E+02  0.19590491312E+02  0.51100000000E-03 0.  1.
        -12    1    3    3    0    0  0.35731539515E+01  0.37801902864E+01  0.58043153994E+01  0.77940583150E+01  0.00000000000E+00 0.  1.
</event>
<event>
 7    1  0.5743890E-009  0.4614232E+02  0.7816164E-02  0.1320468E+00
        -11   -1    0    0    0    0  0.00000000000E+00  0.00000000000E+00  0.45593999997E+02  0.45594000000E+02  0.51100000000E-03 0. -1.
         11   -1    0    0    0    0 -0.00000000000E+00 -0.00000000000E+00 -0.45593999997E+02  0.45594000000E+02  0.51100000000E-03 0.  1.
    9900012    2    1    2    0    0 -0.55421337187E+01  0.40469992907E+02 -0.18988890836E+02  0.46142317108E+02  0.99999940423E+01 0.  0.
         12    1    1    2    0    0  0.55421337187E+01 -0.40469992907E+02  0.18988890836E+02  0.45045682892E+02  0.00000000000E+00 0. -1.
         11    1    3    3    0    0 -0.10910419604E+01  0.38281656754E+01  0.14853568430E+00  0.39833764708E+01  0.51100000000E-03 0. -1.
        -11    1    3    3    0    0 -0.29582685585E+01  0.34720762789E+02 -0.19073786847E+02  0.39725206940E+02  0.51100000000E-03 0.  1.
        -12    1    3    3    0    0 -0.14928231998E+01  0.19210644430E+01 -0.63639673544E-01  0.24337336970E+01  0.00000000000E+00 0.  1.
</event>
<event>
 7    1  0.5743890E-009  0.4614232E+02  0.7816164E-02  0.1320468E+00
        -11   -1    0    0    0    0  0.00000000000E+00  0.00000000000E+00  0.45593999997E+02  0.45594000000E+02  0.51100000000E-03 0. -1.
         11   -1    0    0    0    0 -0.00000000000E+00 -0.00000000000E+00 -0.45593999997E+02  0.45594000000E+02  0.51100000000E-03 0.  1.
    9900012    2    1    2    0    0  0.25890167818E+02 -0.52854566156E-01 -0.36862038577E+02  0.46142317951E+02  0.10000001728E+02 0.  0.
         12    1    1    2    0    0 -0.25890167818E+02  0.52854566156E-01  0.36862038577E+02  0.45045682049E+02  0.00000000000E+00 0. -1.
         11    1    3    3    0    0  0.38535523817E+00  0.10375776127E+01 -0.30867212576E+01  0.32791636655E+01  0.51100000000E-03 0. -1.
        -11    1    3    3    0    0  0.37849270588E+01  0.22629386022E+01 -0.59197469898E+01  0.73817320896E+01  0.51100000000E-03 0.  1.
        -12    1    3    3    0    0  0.21719885521E+02 -0.33533707811E+01 -0.27855570330E+02  0.35481422196E+02  0.00000000000E+00 0.  1.
</event>
<event>
 7    1  0.5743890E-009  0.4614232E+02  0.7816164E-02  0.1320468E+00
        -11   -1    0    0    0    0  0.00000000000E+00  0.00000000000E+00  0.45593999997E+02  0.45594000000E+02  0.51100000000E-03 0. -1.
         11   -1    0    0    0    0 -0.00000000000E+00 -0.00000000000E+00 -0.45593999997E+02  0.45594000000E+02  0.51100000000E-03 0.  1.
    9900012    2    1    2    0    0  0.53240395969E+01 -0.10777746058E+02  0.43412076867E+02  0.46142316238E+02  0.99999861068E+01 0.  0.
        -12    1    1    2    0    0 -0.53240395969E+01  0.10777746058E+02 -0.43412076867E+02  0.45045683762E+02  0.00000000000E+00 0.  1.
         11    1    3    3    0    0  0.13485671527E+01 -0.77972595725E+01  0.25735245321E+02  0.26924315074E+02  0.51100000000E-03 0. -1.
        -11    1    3    3    0    0  0.51324072491E+01 -0.10951087677E+01  0.13641746709E+02  0.14616364832E+02  0.51100000000E-03 0.  1.
        -12    1    3    3    0    0 -0.11569348049E+01 -0.18853777179E+01  0.40350848372E+01  0.46016363313E+01  0.00000000000E+00 0.  1.
</event>
<event>
 7    1  0.5743890E-009  0.4614232E+02  0.7816164E-02  0.1320468E+00
        -11   -1    0    0    0    0  0.00000000000E+00  0.00000000000E+00  0.45593999997E+02  0.45594000000E+02  0.51100000000E-03 0. -1.
         11   -1    0    0    0    0 -0.00000000000E+00 -0.00000000000E+00 -0.45593999997E+02  0.45594000000E+02  0.51100000000E-03 0.  1.
    9900012    2    1    2    0    0  0.25836728581E+02  0.62033078756E+01 -0.36374384354E+02  0.46142318636E+02  0.10000007982E+02 0.  0.
         12    1    1    2    0    0 -0.25836728581E+02 -0.62033078756E+01  0.36374384354E+02  0.45045681364E+02  0.00000000000E+00 0. -1.
         11    1    3    3    0    0  0.44726090020E+01 -0.11131623631E+01 -0.42850578264E+01  0.62932569126E+01  0.51100000000E-03 0. -1.
        -11    1    3    3    0    0  0.29462002965E+01  0.19174902654E+01 -0.16960847468E+01  0.39030204758E+01  0.51100000000E-03 0.  1.
         12    1    3    3    0    0  0.18417919282E+02  0.53989799733E+01 -0.30393241781E+02  0.35946041248E+02  0.00000000000E+00 0. -1.
</event>
<event>
 7    1  0.5743890E-009  0.4614232E+02  0.7816164E-02  0.1320468E+00
        -11   -1    0    0    0    0  0.00000000000E+00  0.00000000000E+00  0.45593999997E+02  0.45594000000E+02  0.51100000000E-03 0. -1.
         11   -1    0    0    0    0 -0.00000000000E+00 -0.00000000000E+00 -0.45593999997E+02  0.45594000000E+02  0.51100000000E-03 0.  1.
    9900012    2    1    2    0    0  0.24155864690E+02  0.89408661979E+01  0.36954952794E+02  0.46142318483E+02  0.10000006585E+02 0.  0.
        -12    1    1    2    0    0 -0.24155864690E+02 -0.89408661979E+01 -0.36954952794E+02  0.45045681517E+02  0.00000000000E+00 0.  1.
         11    1    3    3    0    0  0.24303282402E+01  0.42220038560E+01  0.70788169597E+01  0.85931054762E+01  0.51100000000E-03 0. -1.
        -11    1    3    3    0    0  0.12416547880E+02  0.50717412120E+01  0.18349676295E+02  0.22728920797E+02  0.51100000000E-03 0.  1.
        -12    1    3    3    0    0  0.93089885699E+01 -0.35287887015E+00  0.11526459539E+02  0.14820292210E+02  0.00000000000E+00 0.  1.
</event>
<event>
 7    1  0.5743890E-009  0.4614232E+02  0.7816164E-02  0.1320468E+00
        -11   -1    0    0    0    0  0.00000000000E+00  0.00000000000E+00  0.45593999997E+02  0.45594000000E+02  0.51100000000E-03 0. -1.
         11   -1    0    0    0    0 -0.00000000000E+00 -0.00000000000E+00 -0.45593999997E+02  0.45594000000E+02  0.51100000000E-03 0.  1.
    9900012    2    1    2    0    0  0.72939137410E+01  0.22997050899E+02 -0.38040085673E+02  0.46142316014E+02  0.99999840686E+01 0.  0.
         12    1    1    2    0    0 -0.72939137410E+01 -0.22997050899E+02  0.38040085673E+02  0.45045683986E+02  0.00000000000E+00 0. -1.
         11    1    3    3    0    0  0.17898113744E+01  0.16294527337E+02 -0.24766650212E+02  0.29700202169E+02  0.51100000000E-03 0.  1.
        -11    1    3    3    0    0  0.52594031703E+01  0.73172429329E+01 -0.11996851285E+02  0.15004259624E+02  0.51100000000E-03 0. -1.
        -12    1    3    3    0    0  0.24469919635E+00 -0.61471937083E+00 -0.12765841759E+01  0.14378542206E+01  0.00000000000E+00 0.  1.
</event>
<event>
 7    1  0.5743890E-009  0.4614232E+02  0.7816164E-02  0.1320468E+00
        -11   -1    0    0    0    0  0.00000000000E+00  0.00000000000E+00  0.45593999997E+02  0.45594000000E+02  0.51100000000E-03 0.  1.
         11   -1    0    0    0    0 -0.00000000000E+00 -0.00000000000E+00 -0.45593999997E+02  0.45594000000E+02  0.51100000000E-03 0. -1.
    9900012    2    1    2    0    0  0.40953945514E+02  0.10510679549E+02 -0.15537486658E+02  0.46142317306E+02  0.99999958472E+01 0.  0.
         12    1    1    2    0    0 -0.40953945514E+02 -0.10510679549E+02  0.15537486658E+02  0.45045682694E+02  0.00000000000E+00 0. -1.
         11    1    3    3    0    0  0.45549522303E+01  0.35977287234E+01  0.11930152705E+00  0.58056416444E+01  0.51100000000E-03 0. -1.
        -11    1    3    3    0    0  0.11223939754E+02  0.13404942609E+01 -0.60485605937E+01  0.12820250933E+02  0.51100000000E-03 0.  1.
        -12    1    3    3    0    0  0.25175053530E+02  0.55724565651E+01 -0.96082275916E+01  0.27516424729E+02  0.00000000000E+00 0.  1.
</event>
<event>
 7    1  0.5743890E-009  0.4614232E+02  0.7816164E-02  0.1320468E+00
        -11   -1    0    0    0    0  0.00000000000E+00  0.00000000000E+00  0.45593999997E+02  0.45594000000E+02  0.51100000000E-03 0. -1.
         11   -1    0    0    0    0 -0.00000000000E+00 -0.00000000000E+00 -0.45593999997E+02  0.45594000000E+02  0.51100000000E-03 0.  1.
    9900012    2    1    2    0    0  0.30457585869E+01 -0.14531522578E+02 -0.42528481402E+02  0.46142317363E+02  0.99999963727E+01 0.  0.
         12    1    1    2    0    0 -0.30457585869E+01  0.14531522578E+02  0.42528481402E+02  0.45045682637E+02  0.00000000000E+00 0. -1.
         11    1    3    3    0    0  0.27507204368E+01 -0.46129155878E+01 -0.62806093931E+01  0.82638676025E+01  0.51100000000E-03 0. -1.
        -11    1    3    3    0    0  0.11688963029E+01 -0.91304706848E+01 -0.26363799153E+02  0.27924571967E+02  0.51100000000E-03 0.  1.
         12    1    3    3    0    0 -0.87385815278E+00 -0.78813630524E+00 -0.98840728560E+01  0.99538777936E+01  0.00000000000E+00 0. -1.
</event>
<event>
 7    1  0.5743890E-009  0.4614232E+02  0.7816164E-02  0.1320468E+00
        -11   -1    0    0    0    0  0.00000000000E+00  0.00000000000E+00  0.45593999997E+02  0.45594000000E+02  0.51100000000E-03 0.  1.
         11   -1    0    0    0    0 -0.00000000000E+00 -0.00000000000E+00 -0.45593999997E+02  0.45594000000E+02  0.51100000000E-03 0. -1.
    9900012    2    1    2    0    0  0.35863179531E+02  0.26508610058E+02 -0.63434551964E+01  0.46142317886E+02  0.10000001138E+02 0.  0.
        -12    1    1    2    0    0 -0.35863179531E+02 -0.26508610058E+02  0.63434551964E+01  0.45045682114E+02  0.00000000000E+00 0.  1.
         11    1    3    3    0    0  0.13073018592E+02  0.42748854367E+01 -0.24311866668E+01  0.13967431027E+02  0.51100000000E-03 0. -1.
        -11    1    3    3    0    0  0.45838613436E+01  0.59150190780E+01 -0.11205121232E+01  0.75666890507E+01  0.51100000000E-03 0.  1.
         12    1    3    3    0    0  0.18206299595E+02  0.16318705543E+02 -0.27917564064E+01  0.24608197809E+02  0.00000000000E+00 0. -1.
</event>
<event>
 7    1  0.5743890E-009  0.4614232E+02  0.7816164E-02  0.1320468E+00
        -11   -1    0    0    0    0  0.00000000000E+00  0.00000000000E+00  0.45593999997E+02  0.45594000000E+02  0.51100000000E-03 0. -1.
         11   -1    0    0    0    0 -0.00000000000E+00 -0.00000000000E+00 -0.45593999997E+02  0.45594000000E+02  0.51100000000E-03 0.  1.
    9900012    2    1    2    0    0  0.12643528169E+01 -0.14179128741E+02  0.42737187594E+02  0.46142317817E+02  0.10000000508E+02 0.  0.
        -12    1    1    2    0    0 -0.12643528169E+01  0.14179128741E+02 -0.42737187594E+02  0.45045682183E+02  0.00000000000E+00 0.  1.
         11    1    3    3    0    0 -0.15213350936E+01 -0.38965296026E+01  0.86439806535E+01  0.96029060815E+01  0.51100000000E-03 0. -1.
        -11    1    3    3    0    0 -0.14279500003E+01 -0.78830435865E+00  0.12182493542E+02  0.12291200679E+02  0.51100000000E-03 0.  1.
        -12    1    3    3    0    0  0.42136379108E+01 -0.94942947793E+01  0.21910713398E+02  0.24248211056E+02  0.00000000000E+00 0.  1.
</event>
<event>
 7    1  0.5743890E-009  0.4614232E+02  0.7816164E-02  0.1320468E+00
        -11   -1    0    0    0    0  0.00000000000E+00  0.00000000000E+00  0.45593999997E+02  0.45594000000E+02  0.51100000000E-03 0.  1.
         11   -1    0    0    0    0 -0.00000000000E+00 -0.00000000000E+00 -0.45593999997E+02  0.45594000000E+02  0.51100000000E-03 0. -1.
    9900012    2    1    2    0    0 -0.20821089732E+02  0.33706585432E+02 -0.21435062775E+02  0.46142316574E+02  0.99999891757E+01 0.  0.
         12    1    1    2    0    0  0.20821089732E+02 -0.33706585432E+02  0.21435062775E+02  0.45045683426E+02  0.00000000000E+00 0. -1.
         11    1    3    3    0    0 -0.75542773527E+01  0.13568526561E+02 -0.38145911918E+01  0.15991345333E+02  0.51100000000E-03 0. -1.
        -11    1    3    3    0    0 -0.10676933638E+02  0.17509822246E+02 -0.13183623537E+02  0.24380293617E+02  0.51100000000E-03 0.  1.
         12    1    3    3    0    0 -0.25898787418E+01  0.26282366251E+01 -0.44368480465E+01  0.57706776242E+01  0.00000000000E+00 0. -1.
</event>
<event>
 7    1  0.5743890E-009  0.4614232E+02  0.7816164E-02  0.1320468E+00
        -11   -1    0    0    0    0  0.00000000000E+00  0.00000000000E+00  0.45593999997E+02  0.45594000000E+02  0.51100000000E-03 0. -1.
         11   -1    0    0    0    0 -0.00000000000E+00 -0.00000000000E+00 -0.45593999997E+02  0.45594000000E+02  0.51100000000E-03 0.  1.
    9900012    2    1    2    0    0  0.15282411117E+02 -0.31551013002E+02 -0.28285949867E+02  0.46142317955E+02  0.10000001767E+02 0.  0.
         12    1    1    2    0    0 -0.15282411117E+02  0.31551013002E+02  0.28285949867E+02  0.45045682045E+02  0.00000000000E+00 0. -1.
         11    1    3    3    0    0  0.17505454696E+01 -0.40175243274E+01 -0.16337685375E+01  0.46769767005E+01  0.51100000000E-03 0. -1.
        -11    1    3    3    0    0  0.18405909141E+01 -0.44229329040E+01 -0.87670643612E+01  0.99905719636E+01  0.51100000000E-03 0.  1.
        -12    1    3    3    0    0  0.11691274733E+02 -0.23110555771E+02 -0.17885116969E+02  0.31474769291E+02  0.00000000000E+00 0.  1.
</event>
<event>
 7    1  0.5743890E-009  0.4614232E+02  0.7816164E-02  0.1320468E+00
        -11   -1    0    0    0    0  0.00000000000E+00  0.00000000000E+00  0.45593999997E+02  0.45594000000E+02  0.51100000000E-03 0.  1.
         11   -1    0    0    0    0 -0.00000000000E+00 -0.00000000000E+00 -0.45593999997E+02  0.45594000000E+02  0.51100000000E-03 0. -1.
    9900012    2    1    2    0    0  0.30290056843E+02  0.28448516303E+02 -0.17387007491E+02  0.46142315935E+02  0.99999833500E+01 0.  0.
         12    1    1    2    0    0 -0.30290056843E+02 -0.28448516303E+02  0.17387007491E+02  0.45045684065E+02  0.00000000000E+00 0. -1.
         11    1    3    3    0    0  0.95631773716E+01  0.14912390399E+02 -0.50376218393E+01  0.18417692117E+02  0.51100000000E-03 0. -1.
        -11    1    3    3    0    0  0.11304767476E+02  0.73221932763E+01 -0.77276939836E+01  0.15528346229E+02  0.51100000000E-03 0.  1.
        -12    1    3    3    0    0  0.94221119956E+01  0.62139326278E+01 -0.46216916679E+01  0.12196277589E+02  0.00000000000E+00 0.  1.
</event>
<event>
 7    1  0.5981159E-009  0.4614232E+02  0.7816164E-02  0.1320468E+00
        -11   -1    0    0    0    0  0.00000000000E+00  0.00000000000E+00  0.45593999997E+02  0.45594000000E+02  0.51100000000E-03 0. -1.
         11   -1    0    0    0    0 -0.00000000000E+00 -0.00000000000E+00 -0.45593999997E+02  0.45594000000E+02  0.51100000000E-03 0.  1.
    9900012    2    1    2    0    0 -0.21386125697E+01 -0.16120284717E+02  0.42008048640E+02  0.46142318813E+02  0.10000009589E+02 0.  0.
        -12    1    1    2    0    0  0.21386125697E+01  0.16120284717E+02 -0.42008048640E+02  0.45045681187E+02  0.00000000000E+00 0.  1.
         11    1    3    3    0    0 -0.16464372622E+01 -0.98022081310E+01  0.21336610753E+02  0.23538160476E+02  0.51100000000E-03 0.  1.
        -11    1    3    3    0    0  0.69526690677E+00 -0.74565863317E+01  0.17367318473E+02  0.18913165441E+02  0.51100000000E-03 0. -1.
        -12    1    3    3    0    0 -0.11874422143E+01  0.11385097459E+01  0.33041194144E+01  0.36909928960E+01  0.00000000000E+00 0.  1.
</event>
<event>
 7    1  0.5743890E-009  0.4614232E+02  0.7816164E-02  0.1320468E+00
        -11   -1    0    0    0    0  0.00000000000E+00  0.00000000000E+00  0.45593999997E+02  0.45594000000E+02  0.51100000000E-03 0. -1.
         11   -1    0    0    0    0 -0.00000000000E+00 -0.00000000000E+00 -0.45593999997E+02  0.45594000000E+02  0.51100000000E-03 0.  1.
    9900012    2    1    2    0    0 -0.11858137355E+02  0.20690209831E+02 -0.38215356620E+02  0.46142315568E+02  0.99999799978E+01 0.  0.
         12    1    1    2    0    0  0.11858137355E+02 -0.20690209831E+02  0.38215356620E+02  0.45045684432E+02  0.00000000000E+00 0. -1.
         11    1    3    3    0    0 -0.63027350649E+01  0.47036897677E+01 -0.16518765928E+02  0.18295321663E+02  0.51100000000E-03 0. -1.
        -11    1    3    3    0    0 -0.20319826363E+01  0.14443079588E+01 -0.31275960142E+01  0.39996044809E+01  0.51100000000E-03 0.  1.
        -12    1    3    3    0    0 -0.35234196534E+01  0.14542212105E+02 -0.18568994678E+02  0.23847389423E+02  0.00000000000E+00 0.  1.
</event>
<event>
 7    1  0.5743890E-009  0.4614232E+02  0.7816164E-02  0.1320468E+00
        -11   -1    0    0    0    0  0.00000000000E+00  0.00000000000E+00  0.45593999997E+02  0.45594000000E+02  0.51100000000E-03 0. -1.
         11   -1    0    0    0    0 -0.00000000000E+00 -0.00000000000E+00 -0.45593999997E+02  0.45594000000E+02  0.51100000000E-03 0.  1.
    9900012    2    1    2    0    0 -0.44502604982E+01  0.41085669899E+02  0.17924185203E+02  0.46142317579E+02  0.99999983397E+01 0.  0.
        -12    1    1    2    0    0  0.44502604982E+01 -0.41085669899E+02 -0.17924185203E+02  0.45045682421E+02  0.00000000000E+00 0.  1.
         11    1    3    3    0    0  0.45204220189E+00  0.20446195381E+02  0.86190095616E+01  0.22193210083E+02  0.51100000000E-03 0. -1.
        -11    1    3    3    0    0 -0.37040886188E+01  0.61975057637E+01  0.51662898702E+01  0.88780573028E+01  0.51100000000E-03 0.  1.
        -12    1    3    3    0    0 -0.11982140813E+01  0.14441968755E+02  0.41388857708E+01  0.15071050194E+02  0.00000000000E+00 0.  1.
</event>
<event>
 7    1  0.5743890E-009  0.4614232E+02  0.7816164E-02  0.1320468E+00
        -11   -1    0    0    0    0  0.00000000000E+00  0.00000000000E+00  0.45593999997E+02  0.45594000000E+02  0.51100000000E-03 0. -1.
         11   -1    0    0    0    0 -0.00000000000E+00 -0.00000000000E+00 -0.45593999997E+02  0.45594000000E+02  0.51100000000E-03 0.  1.
    9900012    2    1    2    0    0 -0.33130648899E+02  0.29216181237E+02  0.88254355752E+01  0.46142318125E+02  0.10000003314E+02 0.  0.
        -12    1    1    2    0    0  0.33130648899E+02 -0.29216181237E+02 -0.88254355752E+01  0.45045681875E+02  0.00000000000E+00 0.  1.
         11    1    3    3    0    0  0.11622421899E+00  0.42590612386E+00 -0.76199634422E+00  0.88064907038E+00  0.51100000000E-03 0.  1.
        -11    1    3    3    0    0 -0.13611211580E+02  0.14853146883E+02  0.39125227162E+01  0.20522886913E+02  0.51100000000E-03 0. -1.
         12    1    3    3    0    0 -0.19635661538E+02  0.13937128230E+02  0.56749092032E+01  0.24738782141E+02  0.00000000000E+00 0. -1.
</event>
<event>
 7    1  0.8466434E-009  0.4614232E+02  0.7816164E-02  0.1320468E+00
        -11   -1    0    0    0    0  0.00000000000E+00  0.00000000000E+00  0.45593999997E+02  0.45594000000E+02  0.51100000000E-03 0. -1.
         11   -1    0    0    0    0 -0.00000000000E+00 -0.00000000000E+00 -0.45593999997E+02  0.45594000000E+02  0.51100000000E-03 0.  1.
    9900012    2    1    2    0    0  0.46303620708E+01 -0.12314982194E+02  0.43081488913E+02  0.46142315121E+02  0.99999759217E+01 0.  0.
        -12    1    1    2    0    0 -0.46303620708E+01  0.12314982194E+02 -0.43081488913E+02  0.45045684879E+02  0.00000000000E+00 0.  1.
         11    1    3    3    0    0  0.11475914524E+01 -0.34799937460E+01  0.15759032888E+02  0.16179444998E+02  0.51100000000E-03 0. -1.
        -11    1    3    3    0    0 -0.21372760462E+01 -0.11895605358E+01  0.90348528244E+01  0.93601051803E+01  0.51100000000E-03 0.  1.
        -12    1    3    3    0    0  0.56200466646E+01 -0.76454279118E+01  0.18287603200E+02  0.20602764942E+02  0.00000000000E+00 0.  1.
</event>
<event>
 7    1  0.5743890E-009  0.4614232E+02  0.7816164E-02  0.1320468E+00
        -11   -1    0    0    0    0  0.00000000000E+00  0.00000000000E+00  0.45593999997E+02  0.45594000000E+02  0.51100000000E-03 0.  1.
         11   -1    0    0    0    0 -0.00000000000E+00 -0.00000000000E+00 -0.45593999997E+02  0.45594000000E+02  0.51100000000E-03 0. -1.
    9900012    2    1    2    0    0  0.29477987736E+02  0.32612131800E+02 -0.98290666102E+01  0.46142318166E+02  0.10000003693E+02 0.  0.
         12    1    1    2    0    0 -0.29477987736E+02 -0.32612131800E+02  0.98290666102E+01  0.45045681834E+02  0.00000000000E+00 0. -1.
         11    1    3    3    0    0  0.14749859009E+02  0.13885834850E+02  0.10354640674E+00  0.20257973058E+02  0.51100000000E-03 0.  1.
        -11    1    3    3    0    0  0.55284842015E+01  0.83985788127E+01 -0.46636051494E+01  0.11083748323E+02  0.51100000000E-03 0. -1.
        -12    1    3    3    0    0  0.91996445247E+01  0.10327718136E+02 -0.52690078676E+01  0.14800596785E+02  0.00000000000E+00 0.  1.
</event>
<event>
 7    1  0.5743890E-009  0.4614232E+02  0.7816164E-02  0.1320468E+00
        -11   -1    0    0    0    0  0.00000000000E+00  0.00000000000E+00  0.45593999997E+02  0.45594000000E+02  0.51100000000E-03 0.  1.
         11   -1    0    0    0    0 -0.00000000000E+00 -0.00000000000E+00 -0.45593999997E+02  0.45594000000E+02  0.51100000000E-03 0. -1.
    9900012    2    1    2    0    0 -0.35905364194E+02  0.27200174816E+02 -0.26240250212E+00  0.46142317155E+02  0.99999944743E+01 0.  0.
        -12    1    1    2    0    0  0.35905364194E+02 -0.27200174816E+02  0.26240250212E+00  0.45045682845E+02  0.00000000000E+00 0.  1.
         11    1    3    3    0    0 -0.24835913067E+02  0.17820345191E+02  0.27654799928E+01  0.30692591296E+02  0.51100000000E-03 0. -1.
        -11    1    3    3    0    0 -0.82064234576E+00  0.14679220052E+01 -0.17696389569E+01  0.24412847380E+01  0.51100000000E-03 0.  1.
        -12    1    3    3    0    0 -0.10248808781E+02  0.79119076194E+01 -0.12582435380E+01  0.13008441121E+02  0.00000000000E+00 0.  1.
</event>
<event>
 7    1  0.5743890E-009  0.4614232E+02  0.7816164E-02  0.1320468E+00
        -11   -1    0    0    0    0  0.00000000000E+00  0.00000000000E+00  0.45593999997E+02  0.45594000000E+02  0.51100000000E-03 0. -1.
         11   -1    0    0    0    0 -0.00000000000E+00 -0.00000000000E+00 -0.45593999997E+02  0.45594000000E+02  0.51100000000E-03 0.  1.
    9900012    2    1    2    0    0  0.18016105578E+02  0.14964754855E+02  0.38478431876E+02  0.46142315771E+02  0.99999818515E+01 0.  0.
        -12    1    1    2    0    0 -0.18016105578E+02 -0.14964754855E+02 -0.38478431876E+02  0.45045684229E+02  0.00000000000E+00 0.  1.
         11    1    3    3    0    0  0.26388329456E+00 -0.22277641145E+00  0.13087243874E+01  0.13535226285E+01  0.51100000000E-03 0. -1.
        -11    1    3    3    0    0  0.45019736897E+01  0.34746266268E+01  0.17190679817E+02  0.18106912219E+02  0.51100000000E-03 0.  1.
         12    1    3    3    0    0  0.13250248594E+02  0.11712904639E+02  0.19979027672E+02  0.26681880923E+02  0.00000000000E+00 0. -1.
</event>
<event>
 7    1  0.5743890E-009  0.4614232E+02  0.7816164E-02  0.1320468E+00
        -11   -1    0    0    0    0  0.00000000000E+00  0.00000000000E+00  0.45593999997E+02  0.45594000000E+02  0.51100000000E-03 0. -1.
         11   -1    0    0    0    0 -0.00000000000E+00 -0.00000000000E+00 -0.45593999997E+02  0.45594000000E+02  0.51100000000E-03 0.  1.
    9900012    2    1    2    0    0 -0.22131646406E+02  0.37203625453E+02  0.12457683745E+02  0.46142318700E+02  0.10000008558E+02 0.  0.
        -12    1    1    2    0    0  0.22131646406E+02 -0.37203625453E+02 -0.12457683745E+02  0.45045681300E+02  0.00000000000E+00 0.  1.
         11    1    3    3    0    0 -0.12098557393E+02  0.16380929269E+02  0.47279948384E+01  0.20906072567E+02  0.51100000000E-03 0. -1.
        -11    1    3    3    0    0 -0.90959133301E+01  0.13720080067E+02  0.32272604852E+01  0.16774726431E+02  0.51100000000E-03 0.  1.
         12    1    3    3    0    0 -0.93717568334E+00  0.71026161175E+01  0.45024284212E+01  0.84615197017E+01  0.00000000000E+00 0. -1.
</event>
<event>
 7    1  0.5743890E-009  0.4614232E+02  0.7816164E-02  0.1320468E+00
        -11   -1    0    0    0    0  0.00000000000E+00  0.00000000000E+00  0.45593999997E+02  0.45594000000E+02  0.51100000000E-03 0. -1.
         11   -1    0    0    0    0 -0.00000000000E+00 -0.00000000000E+00 -0.45593999997E+02  0.45594000000E+02  0.51100000000E-03 0.  1.
    9900012    2    1    2    0    0  0.25975665358E+02 -0.14924996468E+01 -0.36771602192E+02  0.46142317923E+02  0.10000001474E+02 0.  0.
         12    1    1    2    0    0 -0.25975665358E+02  0.14924996468E+01  0.36771602192E+02  0.45045682077E+02  0.00000000000E+00 0. -1.
         11    1    3    3    0    0  0.49601690759E+01 -0.20625406491E+01 -0.82789984697E+01  0.98691016366E+01  0.51100000000E-03 0. -1.
        -11    1    3    3    0    0  0.88648594290E+01  0.33613787576E+00 -0.60072921248E+01  0.10713835928E+02  0.51100000000E-03 0.  1.
         12    1    3    3    0    0  0.12150636853E+02  0.23390312653E+00 -0.22485311598E+02  0.25559380358E+02  0.00000000000E+00 0. -1.
</event>
<event>
 7    1  0.5743890E-009  0.4614232E+02  0.7816164E-02  0.1320468E+00
        -11   -1    0    0    0    0  0.00000000000E+00  0.00000000000E+00  0.45593999997E+02  0.45594000000E+02  0.51100000000E-03 0. -1.
         11   -1    0    0    0    0 -0.00000000000E+00 -0.00000000000E+00 -0.45593999997E+02  0.45594000000E+02  0.51100000000E-03 0.  1.
    9900012    2    1    2    0    0 -0.13815372287E+02  0.18578868232E+02  0.38640326022E+02  0.46142315953E+02  0.99999835131E+01 0.  0.
        -12    1    1    2    0    0  0.13815372287E+02 -0.18578868232E+02 -0.38640326022E+02  0.45045684047E+02  0.00000000000E+00 0.  1.
         11    1    3    3    0    0 -0.16839857991E+01  0.52667757887E+01  0.11944355927E+02  0.13162156896E+02  0.51100000000E-03 0. -1.
        -11    1    3    3    0    0 -0.34711170585E+01  0.76617278652E+01  0.16157485679E+02  0.18215791810E+02  0.51100000000E-03 0.  1.
        -12    1    3    3    0    0 -0.86602694290E+01  0.56503645782E+01  0.10538484415E+02  0.14764367247E+02  0.00000000000E+00 0.  1.
</event>
<event>
 7    1  0.5743890E-009  0.4614232E+02  0.7816164E-02  0.1320468E+00
        -11   -1    0    0    0    0  0.00000000000E+00  0.00000000000E+00  0.45593999997E+02  0.45594000000E+02  0.51100000000E-03 0. -1.
         11   -1    0    0    0    0 -0.00000000000E+00 -0.00000000000E+00 -0.45593999997E+02  0.45594000000E+02  0.51100000000E-03 0.  1.
    9900012    2    1    2    0    0 -0.27458405896E+01 -0.20208572595E+01 -0.44916477659E+02  0.46142317966E+02  0.10000001872E+02 0.  0.
         12    1    1    2    0    0  0.27458405896E+01  0.20208572595E+01  0.44916477659E+02  0.45045682034E+02  0.00000000000E+00 0. -1.
         11    1    3    3    0    0  0.49841232475E+00 -0.29867416888E+01 -0.58623041934E+01  0.65981551572E+01  0.51100000000E-03 0. -1.
        -11    1    3    3    0    0 -0.12357004949E+01 -0.20942856009E+01 -0.12038361060E+02  0.12281495233E+02  0.51100000000E-03 0.  1.
         12    1    3    3    0    0 -0.20085524194E+01  0.30601700303E+01 -0.27015812406E+02  0.27262667576E+02  0.00000000000E+00 0. -1.
</event>
<event>
 7    1  0.5743890E-009  0.4614232E+02  0.7816164E-02  0.1320468E+00
        -11   -1    0    0    0    0  0.00000000000E+00  0.00000000000E+00  0.45593999997E+02  0.45594000000E+02  0.51100000000E-03 0.  1.
         11   -1    0    0    0    0 -0.00000000000E+00 -0.00000000000E+00 -0.45593999997E+02  0.45594000000E+02  0.51100000000E-03 0. -1.
    9900012    2    1    2    0    0  0.22449030970E+02 -0.33723377088E+02 -0.19694881236E+02  0.46142317625E+02  0.99999987602E+01 0.  0.
        -12    1    1    2    0    0 -0.22449030970E+02  0.33723377088E+02  0.19694881236E+02  0.45045682375E+02  0.00000000000E+00 0.  1.
         11    1    3    3    0    0  0.49358432180E+00 -0.37217541522E+01 -0.14727258400E+01  0.40328651246E+01  0.51100000000E-03 0. -1.
        -11    1    3    3    0    0  0.77631869987E+00 -0.25552125489E+00 -0.19848271098E+01  0.21465089686E+01  0.51100000000E-03 0.  1.
         12    1    3    3    0    0  0.21179127948E+02 -0.29746101681E+02 -0.16237328287E+02  0.39962943532E+02  0.00000000000E+00 0. -1.
</event>
<event>
 7    1  0.5743890E-009  0.4614232E+02  0.7816164E-02  0.1320468E+00
        -11   -1    0    0    0    0  0.00000000000E+00  0.00000000000E+00  0.45593999997E+02  0.45594000000E+02  0.51100000000E-03 0. -1.
         11   -1    0    0    0    0 -0.00000000000E+00 -0.00000000000E+00 -0.45593999997E+02  0.45594000000E+02  0.51100000000E-03 0.  1.
    9900012    2    1    2    0    0 -0.21087940704E+02  0.18783552236E+02  0.35094022556E+02  0.46142317666E+02  0.99999991338E+01 0.  0.
        -12    1    1    2    0    0  0.21087940704E+02 -0.18783552236E+02 -0.35094022556E+02  0.45045682334E+02  0.00000000000E+00 0.  1.
         11    1    3    3    0    0 -0.15477505679E+02  0.15951109793E+02  0.32345345547E+02  0.39245540695E+02  0.51100000000E-03 0. -1.
        -11    1    3    3    0    0 -0.23455002914E+01  0.15289071912E+01  0.10262617076E+01  0.29819695119E+01  0.51100000000E-03 0.  1.
         12    1    3    3    0    0 -0.32649347337E+01  0.13035352521E+01  0.17224153021E+01  0.39148074591E+01  0.00000000000E+00 0. -1.
</event>
<event>
 7    1  0.5743890E-009  0.4614232E+02  0.7816164E-02  0.1320468E+00
        -11   -1    0    0    0    0  0.00000000000E+00  0.00000000000E+00  0.45593999997E+02  0.45594000000E+02  0.51100000000E-03 0. -1.
         11   -1    0    0    0    0 -0.00000000000E+00 -0.00000000000E+00 -0.45593999997E+02  0.45594000000E+02  0.51100000000E-03 0.  1.
    9900012    2    1    2    0    0 -0.10844276271E+02 -0.38291061791E+02 -0.21102363078E+02  0.46142317982E+02  0.10000002019E+02 0.  0.
         12    1    1    2    0    0  0.10844276271E+02  0.38291061791E+02  0.21102363078E+02  0.45045682018E+02  0.00000000000E+00 0. -1.
         11    1    3    3    0    0 -0.49039843546E+00 -0.18593394773E+00  0.12676631978E+00  0.53956651061E+00  0.51100000000E-03 0. -1.
        -11    1    3    3    0    0 -0.37433773317E+01 -0.27216067806E+02 -0.16298933454E+02  0.31943425814E+02  0.51100000000E-03 0.  1.
        -12    1    3    3    0    0 -0.66105005035E+01 -0.10889060037E+02 -0.49301959437E+01  0.13659325658E+02  0.00000000000E+00 0.  1.
</event>
<event>
 7    1  0.5743890E-009  0.4614231E+02  0.7816164E-02  0.1320468E+00
        -11   -1    0    0    0    0  0.00000000000E+00  0.00000000000E+00  0.45593999997E+02  0.45594000000E+02  0.51100000000E-03 0. -1.
         11   -1    0    0    0    0 -0.00000000000E+00 -0.00000000000E+00 -0.45593999997E+02  0.45594000000E+02  0.51100000000E-03 0.  1.
    9900012    2    1    2    0    0  0.16998270131E+02  0.33455820608E+02  0.24917476251E+02  0.46142314937E+02  0.99999742510E+01 0.  0.
        -12    1    1    2    0    0 -0.16998270131E+02 -0.33455820608E+02 -0.24917476251E+02  0.45045685063E+02  0.00000000000E+00 0.  1.
         11    1    3    3    0    0  0.62552392700E+01  0.12200008205E+02  0.14731423103E+02  0.20124190553E+02  0.51100000000E-03 0. -1.
        -11    1    3    3    0    0  0.62132352630E+00  0.61349497268E+00  0.20178488120E-02  0.87316856258E+00  0.51100000000E-03 0.  1.
        -12    1    3    3    0    0  0.10121707335E+02  0.20642317431E+02  0.10184035300E+02  0.25144955822E+02  0.00000000000E+00 0.  1.
</event>
<event>
 7    1  0.5743890E-009  0.4614232E+02  0.7816164E-02  0.1320468E+00
        -11   -1    0    0    0    0  0.00000000000E+00  0.00000000000E+00  0.45593999997E+02  0.45594000000E+02  0.51100000000E-03 0. -1.
         11   -1    0    0    0    0 -0.00000000000E+00 -0.00000000000E+00 -0.45593999997E+02  0.45594000000E+02  0.51100000000E-03 0.  1.
    9900012    2    1    2    0    0 -0.11746477866E+01 -0.17480254104E+02  0.41499088807E+02  0.46142318156E+02  0.10000003597E+02 0.  0.
        -12    1    1    2    0    0  0.11746477866E+01  0.17480254104E+02 -0.41499088807E+02  0.45045681844E+02  0.00000000000E+00 0.  1.
         11    1    3    3    0    0 -0.11738837917E+01 -0.51426051001E+00  0.26743653540E+01  0.29655854964E+01  0.51100000000E-03 0. -1.
        -11    1    3    3    0    0 -0.80168655755E+00 -0.15023782840E+02  0.38085660094E+02  0.40949655153E+02  0.51100000000E-03 0.  1.
        -12    1    3    3    0    0  0.80092256262E+00 -0.19422107548E+01  0.73906335978E+00  0.22270775058E+01  0.00000000000E+00 0.  1.
</event>
<event>
 7    1  0.5743890E-009  0.4614232E+02  0.7816164E-02  0.1320468E+00
        -11   -1    0    0    0    0  0.00000000000E+00  0.00000000000E+00  0.45593999997E+02  0.45594000000E+02  0.51100000000E-03 0. -1.
         11   -1    0    0    0    0 -0.00000000000E+00 -0.00000000000E+00 -0.45593999997E+02  0.45594000000E+02  0.51100000000E-03 0.  1.
    9900012    2    1    2    0    0  0.38719704976E+02 -0.12585651840E+02 -0.19274318364E+02  0.46142317254E+02  0.99999953756E+01 0.  0.
         12    1    1    2    0    0 -0.38719704976E+02  0.12585651840E+02  0.19274318364E+02  0.45045682746E+02  0.00000000000E+00 0. -1.
         11    1    3    3    0    0  0.17591095636E+02 -0.84571342095E+01 -0.12663513851E+02  0.23266592961E+02  0.51100000000E-03 0. -1.
        -11    1    3    3    0    0  0.17352041859E+02 -0.34824746441E+01 -0.69838699671E+01  0.19026177396E+02  0.51100000000E-03 0.  1.
         12    1    3    3    0    0  0.37765674811E+01 -0.64604298673E+00  0.37306545391E+00  0.38495468971E+01  0.00000000000E+00 0. -1.
</event>
<event>
 7    1  0.5743890E-009  0.4614232E+02  0.7816164E-02  0.1320468E+00
        -11   -1    0    0    0    0  0.00000000000E+00  0.00000000000E+00  0.45593999997E+02  0.45594000000E+02  0.51100000000E-03 0. -1.
         11   -1    0    0    0    0 -0.00000000000E+00 -0.00000000000E+00 -0.45593999997E+02  0.45594000000E+02  0.51100000000E-03 0.  1.
    9900012    2    1    2    0    0 -0.76297008318E+01 -0.25503153105E+02  0.36338551409E+02  0.46142317947E+02  0.10000001699E+02 0.  0.
        -12    1    1    2    0    0  0.76297008318E+01  0.25503153105E+02 -0.36338551409E+02  0.45045682053E+02  0.00000000000E+00 0.  1.
         11    1    3    3    0    0  0.21502124766E+01 -0.64182562915E+01  0.10019120180E+02  0.12091327345E+02  0.51100000000E-03 0. -1.
        -11    1    3    3    0    0 -0.22840428148E+01 -0.42946469144E+01  0.78075524392E+01  0.91988433540E+01  0.51100000000E-03 0.  1.
         12    1    3    3    0    0 -0.74958704937E+01 -0.14790249899E+02  0.18511878790E+02  0.24852147249E+02  0.00000000000E+00 0. -1.
</event>
<event>
 7    1  0.5743890E-009  0.4614233E+02  0.7816164E-02  0.1320468E+00
        -11   -1    0    0    0    0  0.00000000000E+00  0.00000000000E+00  0.45593999997E+02  0.45594000000E+02  0.51100000000E-03 0. -1.
         11   -1    0    0    0    0 -0.00000000000E+00 -0.00000000000E+00 -0.45593999997E+02  0.45594000000E+02  0.51100000000E-03 0.  1.
    9900012    2    1    2    0    0 -0.18629558381E-01  0.15108322370E+01 -0.45020320726E+02  0.46142331625E+02  0.10000126422E+02 0.  0.
         12    1    1    2    0    0  0.18629558381E-01 -0.15108322370E+01  0.45020320726E+02  0.45045668375E+02  0.00000000000E+00 0. -1.
         11    1    3    3    0    0  0.18418719567E+01  0.59722563504E+00 -0.17391030304E+02  0.17498488680E+02  0.51100000000E-03 0. -1.
        -11    1    3    3    0    0  0.12651082496E+01 -0.18062221778E+00 -0.59883857917E+00  0.14112870628E+01  0.51100000000E-03 0.  1.
        -12    1    3    3    0    0 -0.31256097647E+01  0.10942288197E+01 -0.27030451842E+02  0.27232555883E+02  0.00000000000E+00 0.  1.
</event>
<event>
 7    1  0.5743890E-009  0.4614232E+02  0.7816164E-02  0.1320468E+00
        -11   -1    0    0    0    0  0.00000000000E+00  0.00000000000E+00  0.45593999997E+02  0.45594000000E+02  0.51100000000E-03 0. -1.
         11   -1    0    0    0    0 -0.00000000000E+00 -0.00000000000E+00 -0.45593999997E+02  0.45594000000E+02  0.51100000000E-03 0.  1.
    9900012    2    1    2    0    0  0.44378065623E+01  0.24074871606E+01 -0.44761851732E+02  0.46142317721E+02  0.99999996375E+01 0.  0.
         12    1    1    2    0    0 -0.44378065623E+01 -0.24074871606E+01  0.44761851732E+02  0.45045682279E+02  0.00000000000E+00 0. -1.
         11    1    3    3    0    0  0.26548455817E+01 -0.16496378542E+01 -0.91958239149E+01  0.97125016267E+01  0.51100000000E-03 0. -1.
        -11    1    3    3    0    0  0.11397946160E+01  0.30700649625E+01 -0.34944865300E+02  0.35097977744E+02  0.51100000000E-03 0.  1.
         12    1    3    3    0    0  0.64316636460E+00  0.98706005229E+00 -0.62116251648E+00  0.13318383503E+01  0.00000000000E+00 0. -1.
</event>
<event>
 7    1  0.5743890E-009  0.4614232E+02  0.7816164E-02  0.1320468E+00
        -11   -1    0    0    0    0  0.00000000000E+00  0.00000000000E+00  0.45593999997E+02  0.45594000000E+02  0.51100000000E-03 0. -1.
         11   -1    0    0    0    0 -0.00000000000E+00 -0.00000000000E+00 -0.45593999997E+02  0.45594000000E+02  0.51100000000E-03 0.  1.
    9900012    2    1    2    0    0  0.41951253400E+02 -0.79583237322E+01  0.14348202524E+02  0.46142317697E+02  0.99999994185E+01 0.  0.
        -12    1    1    2    0    0 -0.41951253400E+02  0.79583237322E+01 -0.14348202524E+02  0.45045682303E+02  0.00000000000E+00 0.  1.
         11    1    3    3    0    0  0.28850772522E+02 -0.78879598634E+01  0.89812185028E+01  0.31228981283E+02  0.51100000000E-03 0. -1.
        -11    1    3    3    0    0  0.64578806532E+01 -0.23751487627E+01  0.27881795295E+01  0.74242507720E+01  0.51100000000E-03 0.  1.
        -12    1    3    3    0    0  0.66426002248E+01  0.23047848938E+01  0.25788044912E+01  0.74890856423E+01  0.00000000000E+00 0.  1.
</event>
<event>
 7    1  0.5743890E-009  0.4614232E+02  0.7816164E-02  0.1320468E+00
        -11   -1    0    0    0    0  0.00000000000E+00  0.00000000000E+00  0.45593999997E+02  0.45594000000E+02  0.51100000000E-03 0. -1.
         11   -1    0    0    0    0 -0.00000000000E+00 -0.00000000000E+00 -0.45593999997E+02  0.45594000000E+02  0.51100000000E-03 0.  1.
    9900012    2    1    2    0    0  0.20283539675E+02 -0.29611920291E+02  0.27218112984E+02  0.46142317859E+02  0.10000000897E+02 0.  0.
        -12    1    1    2    0    0 -0.20283539675E+02  0.29611920291E+02 -0.27218112984E+02  0.45045682141E+02  0.00000000000E+00 0.  1.
         11    1    3    3    0    0  0.55134128213E+01 -0.75711303544E+01  0.10560841470E+02  0.14115633482E+02  0.51100000000E-03 0. -1.
        -11    1    3    3    0    0  0.10022854173E+02 -0.19388068946E+02  0.12260549766E+02  0.25033495642E+02  0.51100000000E-03 0.  1.
         12    1    3    3    0    0  0.47472726805E+01 -0.26527209909E+01  0.43967217478E+01  0.69931887352E+01  0.00000000000E+00 0. -1.
</event>
<event>
 7    1  0.5743890E-009  0.4614231E+02  0.7816164E-02  0.1320468E+00
        -11   -1    0    0    0    0  0.00000000000E+00  0.00000000000E+00  0.45593999997E+02  0.45594000000E+02  0.51100000000E-03 0. -1.
         11   -1    0    0    0    0 -0.00000000000E+00 -0.00000000000E+00 -0.45593999997E+02  0.45594000000E+02  0.51100000000E-03 0.  1.
    9900012    2    1    2    0    0  0.80164613757E+01 -0.33426115041E+02 -0.29112636804E+02  0.46142307182E+02  0.99999035312E+01 0.  0.
         12    1    1    2    0    0 -0.80164613757E+01  0.33426115041E+02  0.29112636804E+02  0.45045692818E+02  0.00000000000E+00 0. -1.
         11    1    3    3    0    0  0.28644366391E+01 -0.65303605116E+01 -0.38920340057E+01  0.81239482171E+01  0.51100000000E-03 0. -1.
        -11    1    3    3    0    0  0.63294690018E+01 -0.15804051198E+02 -0.17744591075E+02  0.24590663367E+02  0.51100000000E-03 0.  1.
        -12    1    3    3    0    0 -0.11774442651E+01 -0.11091703332E+02 -0.74760117233E+01  0.13427695598E+02  0.00000000000E+00 0.  1.
</event>
<event>
 7    1  0.6036798E-009  0.4614232E+02  0.7816164E-02  0.1320468E+00
        -11   -1    0    0    0    0  0.00000000000E+00  0.00000000000E+00  0.45593999997E+02  0.45594000000E+02  0.51100000000E-03 0. -1.
         11   -1    0    0    0    0 -0.00000000000E+00 -0.00000000000E+00 -0.45593999997E+02  0.45594000000E+02  0.51100000000E-03 0.  1.
    9900012    2    1    2    0    0 -0.71619679013E+01 -0.76792659978E+01  0.43804664037E+02  0.46142317612E+02  0.99999986365E+01 0.  0.
        -12    1    1    2    0    0  0.71619679013E+01  0.76792659978E+01 -0.43804664037E+02  0.45045682388E+02  0.00000000000E+00 0.  1.
         11    1    3    3    0    0 -0.57496024835E+01 -0.48593916785E+01  0.33574497155E+02  0.34408116422E+02  0.51100000000E-03 0. -1.
        -11    1    3    3    0    0 -0.71506465017E+00  0.13238849073E+01  0.33489920634E+01  0.36714761069E+01  0.51100000000E-03 0.  1.
        -12    1    3    3    0    0 -0.69730076758E+00 -0.41437592265E+01  0.68811748178E+01  0.80627250828E+01  0.00000000000E+00 0.  1.
</event>
<event>
 7    1  0.5743890E-009  0.4614232E+02  0.7816164E-02  0.1320468E+00
        -11   -1    0    0    0    0  0.00000000000E+00  0.00000000000E+00  0.45593999997E+02  0.45594000000E+02  0.51100000000E-03 0. -1.
         11   -1    0    0    0    0 -0.00000000000E+00 -0.00000000000E+00 -0.45593999997E+02  0.45594000000E+02  0.51100000000E-03 0.  1.
    9900012    2    1    2    0    0  0.10433581678E+02 -0.14738034368E+02  0.41267953761E+02  0.46142319949E+02  0.10000019948E+02 0.  0.
        -12    1    1    2    0    0 -0.10433581678E+02  0.14738034368E+02 -0.41267953761E+02  0.45045680051E+02  0.00000000000E+00 0.  1.
         11    1    3    3    0    0  0.17619442085E+01 -0.72638480348E+01  0.10978242606E+02  0.13281180167E+02  0.51100000000E-03 0. -1.
        -11    1    3    3    0    0  0.20675798374E+01 -0.29622481511E+01  0.16753488872E+02  0.17138529404E+02  0.51100000000E-03 0.  1.
         12    1    3    3    0    0  0.66040576322E+01 -0.45119381817E+01  0.13536222283E+02  0.15722610377E+02  0.00000000000E+00 0. -1.
</event>
<event>
 7    1  0.5743890E-009  0.4614232E+02  0.7816164E-02  0.1320468E+00
        -11   -1    0    0    0    0  0.00000000000E+00  0.00000000000E+00  0.45593999997E+02  0.45594000000E+02  0.51100000000E-03 0. -1.
         11   -1    0    0    0    0 -0.00000000000E+00 -0.00000000000E+00 -0.45593999997E+02  0.45594000000E+02  0.51100000000E-03 0.  1.
    9900012    2    1    2    0    0  0.31422645668E+02  0.66881650749E+01 -0.31575295324E+02  0.46142317769E+02  0.10000000074E+02 0.  0.
         12    1    1    2    0    0 -0.31422645668E+02 -0.66881650749E+01  0.31575295324E+02  0.45045682231E+02  0.00000000000E+00 0. -1.
         11    1    3    3    0    0  0.10625416224E+02  0.21425356213E-01 -0.11132756539E+02  0.15389548318E+02  0.51100000000E-03 0. -1.
        -11    1    3    3    0    0  0.12576828071E+02  0.68402563843E+01 -0.10007223633E+02  0.17467404983E+02  0.51100000000E-03 0.  1.
         12    1    3    3    0    0  0.82204013719E+01 -0.17351666559E+00 -0.10435315152E+02  0.13285364469E+02  0.00000000000E+00 0. -1.
</event>
<event>
 7    1  0.5743890E-009  0.4614232E+02  0.7816164E-02  0.1320468E+00
        -11   -1    0    0    0    0  0.00000000000E+00  0.00000000000E+00  0.45593999997E+02  0.45594000000E+02  0.51100000000E-03 0. -1.
         11   -1    0    0    0    0 -0.00000000000E+00 -0.00000000000E+00 -0.45593999997E+02  0.45594000000E+02  0.51100000000E-03 0.  1.
    9900012    2    1    2    0    0  0.48046570072E+01  0.44783142798E+02  0.70628905279E+00  0.46142318164E+02  0.10000003678E+02 0.  0.
        -12    1    1    2    0    0 -0.48046570072E+01 -0.44783142798E+02 -0.70628905279E+00  0.45045681836E+02  0.00000000000E+00 0.  1.
         11    1    3    3    0    0 -0.63170310669E+00  0.20437972602E+02  0.24814012998E+00  0.20449238291E+02  0.51100000000E-03 0. -1.
        -11    1    3    3    0    0 -0.78016251034E-01  0.34239982181E+01 -0.19211903092E+01  0.39269355480E+01  0.51100000000E-03 0.  1.
         12    1    3    3    0    0  0.55143763649E+01  0.20921171977E+02  0.23793392320E+01  0.21766144325E+02  0.00000000000E+00 0. -1.
</event>
<event>
 7    1  0.5743890E-009  0.4614233E+02  0.7816164E-02  0.1320468E+00
        -11   -1    0    0    0    0  0.00000000000E+00  0.00000000000E+00  0.45593999997E+02  0.45594000000E+02  0.51100000000E-03 0. -1.
         11   -1    0    0    0    0 -0.00000000000E+00 -0.00000000000E+00 -0.45593999997E+02  0.45594000000E+02  0.51100000000E-03 0.  1.
    9900012    2    1    2    0    0  0.23816980741E+02  0.32008281900E+02  0.20912528702E+02  0.46142328305E+02  0.10000096143E+02 0.  0.
        -12    1    1    2    0    0 -0.23816980741E+02 -0.32008281900E+02 -0.20912528702E+02  0.45045671695E+02  0.00000000000E+00 0.  1.
         11    1    3    3    0    0  0.95779251092E+01  0.96517793300E+01  0.78090797393E+01  0.15680408804E+02  0.51100000000E-03 0. -1.
        -11    1    3    3    0    0  0.14002505888E+01  0.37103513771E-01 -0.30163618236E+00  0.14328513635E+01  0.51100000000E-03 0.  1.
        -12    1    3    3    0    0  0.12838805043E+02  0.22319399056E+02  0.13405085145E+02  0.29029068137E+02  0.00000000000E+00 0.  1.
</event>
<event>
 7    1  0.5743890E-009  0.4614232E+02  0.7816164E-02  0.1320468E+00
        -11   -1    0    0    0    0  0.00000000000E+00  0.00000000000E+00  0.45593999997E+02  0.45594000000E+02  0.51100000000E-03 0. -1.
         11   -1    0    0    0    0 -0.00000000000E+00 -0.00000000000E+00 -0.45593999997E+02  0.45594000000E+02  0.51100000000E-03 0.  1.
    9900012    2    1    2    0    0  0.65987499323E+01 -0.29818701635E+02 -0.33112157821E+02  0.46142318038E+02  0.10000002526E+02 0.  0.
         12    1    1    2    0    0 -0.65987499323E+01  0.29818701635E+02  0.33112157821E+02  0.45045681962E+02  0.00000000000E+00 0. -1.
         11    1    3    3    0    0 -0.13274503080E+01 -0.75531590099E+01 -0.11407084962E+02  0.13745323675E+02  0.51100000000E-03 0. -1.
        -11    1    3    3    0    0 -0.54444239299E+00 -0.11869142046E+01 -0.84473809659E+00  0.15552381044E+01  0.51100000000E-03 0.  1.
        -12    1    3    3    0    0  0.84706426333E+01 -0.21078628421E+02 -0.20860334762E+02  0.30841756259E+02  0.00000000000E+00 0.  1.
</event>
<event>
 7    1  0.5743890E-009  0.4614232E+02  0.7816164E-02  0.1320468E+00
        -11   -1    0    0    0    0  0.00000000000E+00  0.00000000000E+00  0.45593999997E+02  0.45594000000E+02  0.51100000000E-03 0.  1.
         11   -1    0    0    0    0 -0.00000000000E+00 -0.00000000000E+00 -0.45593999997E+02  0.45594000000E+02  0.51100000000E-03 0. -1.
    9900012    2    1    2    0    0 -0.25858874708E+02 -0.31942364304E+02  0.18442274012E+02  0.46142317529E+02  0.99999978834E+01 0.  0.
        -12    1    1    2    0    0  0.25858874708E+02  0.31942364304E+02 -0.18442274012E+02  0.45045682471E+02  0.00000000000E+00 0.  1.
         11    1    3    3    0    0 -0.13701009658E+02 -0.12757954103E+02  0.11586241545E+02  0.22016449576E+02  0.51100000000E-03 0. -1.
        -11    1    3    3    0    0 -0.98557661093E+01 -0.14699954591E+02  0.34205906793E+01  0.18025682551E+02  0.51100000000E-03 0.  1.
         12    1    3    3    0    0 -0.23020989412E+01 -0.44844556099E+01  0.34354417879E+01  0.61001854013E+01  0.00000000000E+00 0. -1.
</event>
<event>
 7    1  0.5743890E-009  0.4614232E+02  0.7816164E-02  0.1320468E+00
        -11   -1    0    0    0    0  0.00000000000E+00  0.00000000000E+00  0.45593999997E+02  0.45594000000E+02  0.51100000000E-03 0. -1.
         11   -1    0    0    0    0 -0.00000000000E+00 -0.00000000000E+00 -0.45593999997E+02  0.45594000000E+02  0.51100000000E-03 0.  1.
    9900012    2    1    2    0    0 -0.22929638200E+01  0.17001711453E+02 -0.41650902945E+02  0.46142316616E+02  0.99999895570E+01 0.  0.
         12    1    1    2    0    0  0.22929638200E+01 -0.17001711453E+02  0.41650902945E+02  0.45045683384E+02  0.00000000000E+00 0. -1.
         11    1    3    3    0    0 -0.21069560602E+01  0.98819743619E+00 -0.76902858773E+01  0.80346932206E+01  0.51100000000E-03 0. -1.
        -11    1    3    3    0    0 -0.31109519719E+00  0.38149693925E+01 -0.15607483520E+02  0.16069981761E+02  0.51100000000E-03 0.  1.
         12    1    3    3    0    0  0.12508743741E+00  0.12198544624E+02 -0.18353133547E+02  0.22037641635E+02  0.00000000000E+00 0. -1.
</event>
<event>
 7    1  0.5743890E-009  0.4614232E+02  0.7816164E-02  0.1320468E+00
        -11   -1    0    0    0    0  0.00000000000E+00  0.00000000000E+00  0.45593999997E+02  0.45594000000E+02  0.51100000000E-03 0. -1.
         11   -1    0    0    0    0 -0.00000000000E+00 -0.00000000000E+00 -0.45593999997E+02  0.45594000000E+02  0.51100000000E-03 0.  1.
    9900012    2    1    2    0    0  0.19933163482E+02 -0.86899097992E+01 -0.39449562436E+02  0.46142317464E+02  0.99999972933E+01 0.  0.
         12    1    1    2    0    0 -0.19933163482E+02  0.86899097992E+01  0.39449562436E+02  0.45045682536E+02  0.00000000000E+00 0. -1.
         11    1    3    3    0    0  0.23330370726E+01 -0.21064295647E+01 -0.67249461998E+01  0.74232748262E+01  0.51100000000E-03 0. -1.
        -11    1    3    3    0    0  0.11105557798E+02 -0.62587469782E+01 -0.14181648711E+02  0.19068940405E+02  0.51100000000E-03 0.  1.
        -12    1    3    3    0    0  0.64945686111E+01 -0.32473325631E+00 -0.18542967525E+02  0.19650102233E+02  0.00000000000E+00 0.  1.
</event>
<event>
 7    1  0.5743890E-009  0.4614232E+02  0.7816164E-02  0.1320468E+00
        -11   -1    0    0    0    0  0.00000000000E+00  0.00000000000E+00  0.45593999997E+02  0.45594000000E+02  0.51100000000E-03 0. -1.
         11   -1    0    0    0    0 -0.00000000000E+00 -0.00000000000E+00 -0.45593999997E+02  0.45594000000E+02  0.51100000000E-03 0.  1.
    9900012    2    1    2    0    0 -0.48260257492E+00  0.30856313802E+02 -0.32814148894E+02  0.46142319027E+02  0.10000011542E+02 0.  0.
         12    1    1    2    0    0  0.48260257492E+00 -0.30856313802E+02  0.32814148894E+02  0.45045680973E+02  0.00000000000E+00 0. -1.
         11    1    3    3    0    0  0.30585818764E+00  0.27549434732E+01 -0.78418459368E+00  0.28806611237E+01  0.51100000000E-03 0. -1.
        -11    1    3    3    0    0 -0.40668491397E+01  0.13489284156E+02 -0.14815488172E+02  0.20445017461E+02  0.51100000000E-03 0.  1.
        -12    1    3    3    0    0  0.32783883771E+01  0.14612086173E+02 -0.17214476128E+02  0.22816640442E+02  0.00000000000E+00 0.  1.
</event>
<event>
 7    1  0.5743890E-009  0.4614232E+02  0.7816164E-02  0.1320468E+00
        -11   -1    0    0    0    0  0.00000000000E+00  0.00000000000E+00  0.45593999997E+02  0.45594000000E+02  0.51100000000E-03 0. -1.
         11   -1    0    0    0    0 -0.00000000000E+00 -0.00000000000E+00 -0.45593999997E+02  0.45594000000E+02  0.51100000000E-03 0.  1.
    9900012    2    1    2    0    0  0.31195926998E+02  0.17984429022E+02 -0.27064515893E+02  0.46142316866E+02  0.99999918363E+01 0.  0.
         12    1    1    2    0    0 -0.31195926998E+02 -0.17984429022E+02  0.27064515893E+02  0.45045683134E+02  0.00000000000E+00 0. -1.
         11    1    3    3    0    0  0.19176466068E+02  0.11525684685E+02 -0.18738934849E+02  0.29184344054E+02  0.51100000000E-03 0. -1.
        -11    1    3    3    0    0  0.10832723517E+02  0.47714098568E+01 -0.89080562383E+01  0.14814442852E+02  0.51100000000E-03 0.  1.
         12    1    3    3    0    0  0.11867374125E+01  0.16873344810E+01  0.58247519430E+00  0.21435299599E+01  0.00000000000E+00 0. -1.
</event>
<event>
 7    1  0.5743890E-009  0.4614232E+02  0.7816164E-02  0.1320468E+00
        -11   -1    0    0    0    0  0.00000000000E+00  0.00000000000E+00  0.45593999997E+02  0.45594000000E+02  0.51100000000E-03 0. -1.
         11   -1    0    0    0    0 -0.00000000000E+00 -0.00000000000E+00 -0.45593999997E+02  0.45594000000E+02  0.51100000000E-03 0.  1.
    9900012    2    1    2    0    0 -0.79234232075E+01 -0.23468334351E+02 -0.37624063179E+02  0.46142317825E+02  0.10000000583E+02 0.  0.
         12    1    1    2    0    0  0.79234232075E+01  0.23468334351E+02  0.37624063179E+02  0.45045682175E+02  0.00000000000E+00 0. -1.
         11    1    3    3    0    0 -0.27935617456E+01 -0.23180777943E+00 -0.40488771682E+01  0.49245434973E+01  0.51100000000E-03 0. -1.
        -11    1    3    3    0    0 -0.39817152777E+01 -0.12711969883E+02 -0.18830956365E+02  0.23066277392E+02  0.51100000000E-03 0.  1.
         12    1    3    3    0    0 -0.11481461842E+01 -0.10524556689E+02 -0.14744229646E+02  0.18151496935E+02  0.00000000000E+00 0. -1.
</event>
<event>
 7    1  0.5743890E-009  0.4614232E+02  0.7816164E-02  0.1320468E+00
        -11   -1    0    0    0    0  0.00000000000E+00  0.00000000000E+00  0.45593999997E+02  0.45594000000E+02  0.51100000000E-03 0.  1.
         11   -1    0    0    0    0 -0.00000000000E+00 -0.00000000000E+00 -0.45593999997E+02  0.45594000000E+02  0.51100000000E-03 0. -1.
    9900012    2    1    2    0    0 -0.10520709001E+02  0.41071910896E+02  0.15215989135E+02  0.46142317544E+02  0.99999980227E+01 0.  0.
        -12    1    1    2    0    0  0.10520709001E+02 -0.41071910896E+02 -0.15215989135E+02  0.45045682456E+02  0.00000000000E+00 0.  1.
         11    1    3    3    0    0 -0.76213900538E+01  0.25095527642E+02  0.67782940162E+01  0.27089045092E+02  0.51100000000E-03 0. -1.
        -11    1    3    3    0    0  0.13224753742E+00 -0.47718575975E-01 -0.45620802594E+00  0.47738087278E+00  0.51100000000E-03 0.  1.
         12    1    3    3    0    0 -0.30315664847E+01  0.16024101830E+02  0.88939031447E+01  0.18575891579E+02  0.00000000000E+00 0. -1.
</event>
<event>
 7    1  0.5743890E-009  0.4614232E+02  0.7816164E-02  0.1320468E+00
        -11   -1    0    0    0    0  0.00000000000E+00  0.00000000000E+00  0.45593999997E+02  0.45594000000E+02  0.51100000000E-03 0. -1.
         11   -1    0    0    0    0 -0.00000000000E+00 -0.00000000000E+00 -0.45593999997E+02  0.45594000000E+02  0.51100000000E-03 0.  1.
    9900012    2    1    2    0    0 -0.27379935918E+02 -0.26003538627E+02 -0.24561526818E+02  0.46142317503E+02  0.99999976473E+01 0.  0.
         12    1    1    2    0    0  0.27379935918E+02  0.26003538627E+02  0.24561526818E+02  0.45045682497E+02  0.00000000000E+00 0. -1.
         11    1    3    3    0    0 -0.94149031753E+01 -0.12906453583E+02 -0.67968794429E+01  0.17361293624E+02  0.51100000000E-03 0. -1.
        -11    1    3    3    0    0 -0.11248655987E+02 -0.76044779726E+01 -0.13368312218E+02  0.19054451411E+02  0.51100000000E-03 0.  1.
        -12    1    3    3    0    0 -0.67163767548E+01 -0.54926070715E+01 -0.43963351573E+01  0.97265724677E+01  0.00000000000E+00 0.  1.
</event>
<event>
 7    1  0.5743890E-009  0.4614232E+02  0.7816164E-02  0.1320468E+00
        -11   -1    0    0    0    0  0.00000000000E+00  0.00000000000E+00  0.45593999997E+02  0.45594000000E+02  0.51100000000E-03 0. -1.
         11   -1    0    0    0    0 -0.00000000000E+00 -0.00000000000E+00 -0.45593999997E+02  0.45594000000E+02  0.51100000000E-03 0.  1.
    9900012    2    1    2    0    0  0.29468315635E+02 -0.28693370747E+02  0.18369056976E+02  0.46142318682E+02  0.10000008399E+02 0.  0.
        -12    1    1    2    0    0 -0.29468315635E+02  0.28693370747E+02 -0.18369056976E+02  0.45045681318E+02  0.00000000000E+00 0.  1.
         11    1    3    3    0    0  0.10856643567E+02 -0.10897384607E+02  0.90787474142E+01  0.17861784784E+02  0.51100000000E-03 0. -1.
        -11    1    3    3    0    0  0.34841901559E+01 -0.11721655950E+01  0.34872815722E+01  0.50670194640E+01  0.51100000000E-03 0.  1.
        -12    1    3    3    0    0  0.15127481913E+02 -0.16623820545E+02  0.58030279900E+01  0.23213514434E+02  0.00000000000E+00 0.  1.
</event>
<event>
 7    1  0.5743890E-009  0.4614232E+02  0.7816164E-02  0.1320468E+00
        -11   -1    0    0    0    0  0.00000000000E+00  0.00000000000E+00  0.45593999997E+02  0.45594000000E+02  0.51100000000E-03 0. -1.
         11   -1    0    0    0    0 -0.00000000000E+00 -0.00000000000E+00 -0.45593999997E+02  0.45594000000E+02  0.51100000000E-03 0.  1.
    9900012    2    1    2    0    0  0.17171671805E+02 -0.24162799490E+02  0.33917639672E+02  0.46142317935E+02  0.10000001581E+02 0.  0.
        -12    1    1    2    0    0 -0.17171671805E+02  0.24162799490E+02 -0.33917639672E+02  0.45045682065E+02  0.00000000000E+00 0.  1.
         11    1    3    3    0    0  0.28733570603E+01 -0.23190324226E+01  0.36206647938E+01  0.51713930409E+01  0.51100000000E-03 0. -1.
        -11    1    3    3    0    0  0.94308941896E+00 -0.23635930976E+01 -0.13507656041E-01  0.25448325487E+01  0.51100000000E-03 0.  1.
         12    1    3    3    0    0  0.13355225326E+02 -0.19480173970E+02  0.30310482535E+02  0.38426092345E+02  0.00000000000E+00 0. -1.
</event>
<event>
 7    1  0.5743890E-009  0.4614232E+02  0.7816164E-02  0.1320468E+00
        -11   -1    0    0    0    0  0.00000000000E+00  0.00000000000E+00  0.45593999997E+02  0.45594000000E+02  0.51100000000E-03 0.  1.
         11   -1    0    0    0    0 -0.00000000000E+00 -0.00000000000E+00 -0.45593999997E+02  0.45594000000E+02  0.51100000000E-03 0. -1.
    9900012    2    1    2    0    0  0.14064715371E+02 -0.40506158114E+02  0.13803923350E+02  0.46142319147E+02  0.10000012639E+02 0.  0.
         12    1    1    2    0    0 -0.14064715371E+02  0.40506158114E+02 -0.13803923350E+02  0.45045680853E+02  0.00000000000E+00 0. -1.
         11    1    3    3    0    0  0.52059634706E+01 -0.25265174534E+02  0.57119983494E+01  0.26420787750E+02  0.51100000000E-03 0. -1.
        -11    1    3    3    0    0  0.32323251529E+01 -0.78292033091E+01  0.53587660137E+01  0.10023009718E+02  0.51100000000E-03 0.  1.
         12    1    3    3    0    0  0.56264267474E+01 -0.74117802710E+01  0.27331589866E+01  0.96985216799E+01  0.00000000000E+00 0. -1.
</event>
<event>
 7    1  0.5743890E-009  0.4614233E+02  0.7816164E-02  0.1320468E+00
        -11   -1    0    0    0    0  0.00000000000E+00  0.00000000000E+00  0.45593999997E+02  0.45594000000E+02  0.51100000000E-03 0. -1.
         11   -1    0    0    0    0 -0.00000000000E+00 -0.00000000000E+00 -0.45593999997E+02  0.45594000000E+02  0.51100000000E-03 0.  1.
    9900012    2    1    2    0    0  0.93095077446E+01 -0.21521689737E+02 -0.38461181567E+02  0.46142328164E+02  0.10000094864E+02 0.  0.
         12    1    1    2    0    0 -0.93095077446E+01  0.21521689737E+02  0.38461181567E+02  0.45045671836E+02  0.00000000000E+00 0. -1.
         11    1    3    3    0    0  0.69297169275E-01 -0.43534638563E+01 -0.20122628623E+01  0.47965249643E+01  0.51100000000E-03 0. -1.
        -11    1    3    3    0    0  0.21313406904E+01 -0.32988556703E+01 -0.69522037181E+01  0.79848731156E+01  0.51100000000E-03 0.  1.
         12    1    3    3    0    0  0.71088698849E+01 -0.13869370210E+02 -0.29496714987E+02  0.33360930084E+02  0.00000000000E+00 0. -1.
</event>
<event>
 7    1  0.5743890E-009  0.4614232E+02  0.7816164E-02  0.1320468E+00
        -11   -1    0    0    0    0  0.00000000000E+00  0.00000000000E+00  0.45593999997E+02  0.45594000000E+02  0.51100000000E-03 0. -1.
         11   -1    0    0    0    0 -0.00000000000E+00 -0.00000000000E+00 -0.45593999997E+02  0.45594000000E+02  0.51100000000E-03 0.  1.
    9900012    2    1    2    0    0  0.21806417158E+02 -0.19253838865E+02  0.34393073027E+02  0.46142316383E+02  0.99999874311E+01 0.  0.
        -12    1    1    2    0    0 -0.21806417158E+02  0.19253838865E+02 -0.34393073027E+02  0.45045683617E+02  0.00000000000E+00 0.  1.
         11    1    3    3    0    0  0.67087740205E+01 -0.85021066977E+01  0.10029075310E+02  0.14760617162E+02  0.51100000000E-03 0. -1.
        -11    1    3    3    0    0  0.23804189604E+01 -0.19813914616E+01  0.93097839327E+01  0.98114414682E+01  0.51100000000E-03 0.  1.
        -12    1    3    3    0    0  0.12717224177E+02 -0.87703407057E+01  0.15054213784E+02  0.21570257753E+02  0.00000000000E+00 0.  1.
</event>
<event>
 7    1  0.5743890E-009  0.4614232E+02  0.7816164E-02  0.1320468E+00
        -11   -1    0    0    0    0  0.00000000000E+00  0.00000000000E+00  0.45593999997E+02  0.45594000000E+02  0.51100000000E-03 0. -1.
         11   -1    0    0    0    0 -0.00000000000E+00 -0.00000000000E+00 -0.45593999997E+02  0.45594000000E+02  0.51100000000E-03 0.  1.
    9900012    2    1    2    0    0 -0.12375008666E+01  0.11583563245E+02  0.43513250503E+02  0.46142319683E+02  0.10000017525E+02 0.  0.
        -12    1    1    2    0    0  0.12375008666E+01 -0.11583563245E+02 -0.43513250503E+02  0.45045680317E+02  0.00000000000E+00 0.  1.
         11    1    3    3    0    0  0.21242137765E+01  0.12897126384E+01  0.85692269228E+01  0.89222919238E+01  0.51100000000E-03 0.  1.
        -11    1    3    3    0    0  0.20972856123E+01  0.22871308337E+01  0.94427952316E+01  0.99396155075E+01  0.51100000000E-03 0. -1.
        -12    1    3    3    0    0 -0.54590002553E+01  0.80067197732E+01  0.25501228349E+02  0.27280412252E+02  0.00000000000E+00 0.  1.
</event>
<event>
 7    1  0.5743890E-009  0.4614232E+02  0.7816164E-02  0.1320468E+00
        -11   -1    0    0    0    0  0.00000000000E+00  0.00000000000E+00  0.45593999997E+02  0.45594000000E+02  0.51100000000E-03 0. -1.
         11   -1    0    0    0    0 -0.00000000000E+00 -0.00000000000E+00 -0.45593999997E+02  0.45594000000E+02  0.51100000000E-03 0.  1.
    9900012    2    1    2    0    0 -0.44034727177E+02 -0.14921491053E+01  0.93717535358E+01  0.46142317955E+02  0.10000001772E+02 0.  0.
        -12    1    1    2    0    0  0.44034727177E+02  0.14921491053E+01 -0.93717535358E+01  0.45045682045E+02  0.00000000000E+00 0.  1.
         11    1    3    3    0    0 -0.14792755330E+02 -0.31374303939E+01  0.47287526482E+01  0.15843932011E+02  0.51100000000E-03 0. -1.
        -11    1    3    3    0    0 -0.21772819240E+01  0.20070387368E+00 -0.13102717418E+01  0.25490490226E+01  0.51100000000E-03 0.  1.
        -12    1    3    3    0    0 -0.27064689924E+02  0.14445774149E+01  0.59532726294E+01  0.27749336921E+02  0.00000000000E+00 0.  1.
</event>
<event>
 7    1  0.5743890E-009  0.4614232E+02  0.7816164E-02  0.1320468E+00
        -11   -1    0    0    0    0  0.00000000000E+00  0.00000000000E+00  0.45593999997E+02  0.45594000000E+02  0.51100000000E-03 0. -1.
         11   -1    0    0    0    0 -0.00000000000E+00 -0.00000000000E+00 -0.45593999997E+02  0.45594000000E+02  0.51100000000E-03 0.  1.
    9900012    2    1    2    0    0 -0.46516515041E+01  0.64442639932E+01 -0.44338999971E+02  0.46142319646E+02  0.10000017188E+02 0.  0.
         12    1    1    2    0    0  0.46516515041E+01 -0.64442639932E+01  0.44338999971E+02  0.45045680354E+02  0.00000000000E+00 0. -1.
         11    1    3    3    0    0  0.13804955732E+00 -0.95156576812E+00 -0.26022689728E+01  0.27742276690E+01  0.51100000000E-03 0. -1.
        -11    1    3    3    0    0  0.12482910536E+01  0.11626629656E+01 -0.17248267833E+01  0.24259108433E+01  0.51100000000E-03 0.  1.
        -12    1    3    3    0    0 -0.60379921150E+01  0.62331667958E+01 -0.40011904215E+02  0.40942181134E+02  0.00000000000E+00 0.  1.
</event>
<event>
 7    1  0.5743890E-009  0.4614232E+02  0.7816164E-02  0.1320468E+00
        -11   -1    0    0    0    0  0.00000000000E+00  0.00000000000E+00  0.45593999997E+02  0.45594000000E+02  0.51100000000E-03 0. -1.
         11   -1    0    0    0    0 -0.00000000000E+00 -0.00000000000E+00 -0.45593999997E+02  0.45594000000E+02  0.51100000000E-03 0.  1.
    9900012    2    1    2    0    0  0.41328892901E+02  0.76841368927E+01  0.16186110182E+02  0.46142317509E+02  0.99999977046E+01 0.  0.
        -12    1    1    2    0    0 -0.41328892901E+02 -0.76841368927E+01 -0.16186110182E+02  0.45045682491E+02  0.00000000000E+00 0.  1.
         11    1    3    3    0    0  0.24903390391E+02  0.64033145186E+01  0.77804609674E+01  0.26864788533E+02  0.51100000000E-03 0. -1.
        -11    1    3    3    0    0  0.64445518455E-01  0.64237743783E+00 -0.32389393625E+00  0.72229463555E+00  0.51100000000E-03 0.  1.
         12    1    3    3    0    0  0.16361056991E+02  0.63844493629E+00  0.87295431513E+01  0.18555234341E+02  0.00000000000E+00 0. -1.
</event>
<event>
 7    1  0.5743890E-009  0.4614232E+02  0.7816164E-02  0.1320468E+00
        -11   -1    0    0    0    0  0.00000000000E+00  0.00000000000E+00  0.45593999997E+02  0.45594000000E+02  0.51100000000E-03 0. -1.
         11   -1    0    0    0    0 -0.00000000000E+00 -0.00000000000E+00 -0.45593999997E+02  0.45594000000E+02  0.51100000000E-03 0.  1.
    9900012    2    1    2    0    0  0.22443816997E+02  0.26575487406E+02 -0.28620483192E+02  0.46142317517E+02  0.99999977732E+01 0.  0.
         12    1    1    2    0    0 -0.22443816997E+02 -0.26575487406E+02  0.28620483192E+02  0.45045682483E+02  0.00000000000E+00 0. -1.
         11    1    3    3    0    0  0.14492667179E+01  0.36544193081E+01 -0.33483230004E+01  0.51639540736E+01  0.51100000000E-03 0. -1.
        -11    1    3    3    0    0  0.12151103603E+02  0.82642857462E+01 -0.83208717615E+01  0.16887410838E+02  0.51100000000E-03 0.  1.
        -12    1    3    3    0    0  0.88434466754E+01  0.14656782352E+02 -0.16951288430E+02  0.24090952605E+02  0.00000000000E+00 0.  1.
</event>
<event>
 7    1  0.5743890E-009  0.4614232E+02  0.7816164E-02  0.1320468E+00
        -11   -1    0    0    0    0  0.00000000000E+00  0.00000000000E+00  0.45593999997E+02  0.45594000000E+02  0.51100000000E-03 0. -1.
         11   -1    0    0    0    0 -0.00000000000E+00 -0.00000000000E+00 -0.45593999997E+02  0.45594000000E+02  0.51100000000E-03 0.  1.
    9900012    2    1    2    0    0  0.64175986797E+01 -0.28340045164E+02  0.34420483399E+02  0.46142318630E+02  0.10000007919E+02 0.  0.
        -12    1    1    2    0    0 -0.64175986797E+01  0.28340045164E+02 -0.34420483399E+02  0.45045681370E+02  0.00000000000E+00 0.  1.
         11    1    3    3    0    0  0.22982712228E+01 -0.77071386402E+01  0.14134224722E+02  0.16262175296E+02  0.51100000000E-03 0. -1.
        -11    1    3    3    0    0 -0.10975425709E+01 -0.10742975567E+01  0.24985909586E+01  0.29328607152E+01  0.51100000000E-03 0.  1.
        -12    1    3    3    0    0  0.52168700279E+01 -0.19558608967E+02  0.17787667719E+02  0.26947282618E+02  0.00000000000E+00 0.  1.
</event>
<event>
 7    1  0.5743890E-009  0.4614232E+02  0.7816164E-02  0.1320468E+00
        -11   -1    0    0    0    0  0.00000000000E+00  0.00000000000E+00  0.45593999997E+02  0.45594000000E+02  0.51100000000E-03 0. -1.
         11   -1    0    0    0    0 -0.00000000000E+00 -0.00000000000E+00 -0.45593999997E+02  0.45594000000E+02  0.51100000000E-03 0.  1.
    9900012    2    1    2    0    0 -0.14741322293E+02 -0.24005193600E+02 -0.35150496810E+02  0.46142319533E+02  0.10000016161E+02 0.  0.
         12    1    1    2    0    0  0.14741322293E+02  0.24005193600E+02  0.35150496810E+02  0.45045680467E+02  0.00000000000E+00 0. -1.
         11    1    3    3    0    0 -0.86560072443E+01 -0.92709749689E+01 -0.14358808067E+02  0.19158622280E+02  0.51100000000E-03 0. -1.
        -11    1    3    3    0    0 -0.67904937234E+01 -0.10818976190E+02 -0.12944725831E+02  0.18185900525E+02  0.51100000000E-03 0.  1.
         12    1    3    3    0    0  0.70517867495E+00 -0.39152424407E+01 -0.78469629124E+01  0.87977967288E+01  0.00000000000E+00 0. -1.
</event>
<event>
 7    1  0.5743890E-009  0.4614231E+02  0.7816164E-02  0.1320468E+00
        -11   -1    0    0    0    0  0.00000000000E+00  0.00000000000E+00  0.45593999997E+02  0.45594000000E+02  0.51100000000E-03 0. -1.
         11   -1    0    0    0    0 -0.00000000000E+00 -0.00000000000E+00 -0.45593999997E+02  0.45594000000E+02  0.51100000000E-03 0.  1.
    9900012    2    1    2    0    0 -0.15946944798E+02  0.25510362891E+02  0.33526562788E+02  0.46142311244E+02  0.99999405672E+01 0.  0.
        -12    1    1    2    0    0  0.15946944798E+02 -0.25510362891E+02 -0.33526562788E+02  0.45045688756E+02  0.00000000000E+00 0.  1.
         11    1    3    3    0    0 -0.18764364894E+01  0.10699240672E+01  0.54096368379E+01  0.58249396895E+01  0.51100000000E-03 0. -1.
        -11    1    3    3    0    0  0.52411574313E-01  0.60696671071E+00 -0.25745488395E+00  0.66139159310E+00  0.51100000000E-03 0.  1.
        -12    1    3    3    0    0 -0.14122919883E+02  0.23833472113E+02  0.28374380834E+02  0.39655979961E+02  0.00000000000E+00 0.  1.
</event>
<event>
 7    1  0.5743890E-009  0.4614232E+02  0.7816164E-02  0.1320468E+00
        -11   -1    0    0    0    0  0.00000000000E+00  0.00000000000E+00  0.45593999997E+02  0.45594000000E+02  0.51100000000E-03 0. -1.
         11   -1    0    0    0    0 -0.00000000000E+00 -0.00000000000E+00 -0.45593999997E+02  0.45594000000E+02  0.51100000000E-03 0.  1.
    9900012    2    1    2    0    0 -0.39542168129E+02 -0.28635632981E+01  0.21385289397E+02  0.46142315882E+02  0.99999828641E+01 0.  0.
        -12    1    1    2    0    0  0.39542168129E+02  0.28635632981E+01 -0.21385289397E+02  0.45045684118E+02  0.00000000000E+00 0.  1.
         11    1    3    3    0    0 -0.38544206227E+00 -0.35217485994E+00  0.12176081355E+01  0.13248254783E+01  0.51100000000E-03 0. -1.
        -11    1    3    3    0    0 -0.12627053557E+02 -0.10333759588E+01  0.25128603446E+01  0.12916068085E+02  0.51100000000E-03 0.  1.
         12    1    3    3    0    0 -0.26529672509E+02 -0.14780124794E+01  0.17654820917E+02  0.31901422319E+02  0.00000000000E+00 0. -1.
</event>
<event>
 7    1  0.5743890E-009  0.4614232E+02  0.7816164E-02  0.1320468E+00
        -11   -1    0    0    0    0  0.00000000000E+00  0.00000000000E+00  0.45593999997E+02  0.45594000000E+02  0.51100000000E-03 0. -1.
         11   -1    0    0    0    0 -0.00000000000E+00 -0.00000000000E+00 -0.45593999997E+02  0.45594000000E+02  0.51100000000E-03 0.  1.
    9900012    2    1    2    0    0 -0.31690416634E+02  0.15991398815E+02  0.27732764055E+02  0.46142317137E+02  0.99999943057E+01 0.  0.
        -12    1    1    2    0    0  0.31690416634E+02 -0.15991398815E+02 -0.27732764055E+02  0.45045682863E+02  0.00000000000E+00 0.  1.
         11    1    3    3    0    0 -0.21252679627E+02  0.95277632903E+01  0.15489039404E+02  0.27970788451E+02  0.51100000000E-03 0. -1.
        -11    1    3    3    0    0 -0.10617555854E+02  0.67921346218E+01  0.12472942868E+02  0.17732452991E+02  0.51100000000E-03 0.  1.
        -12    1    3    3    0    0  0.17981884729E+00 -0.32849909675E+00 -0.22921821721E+00  0.43907569451E+00  0.00000000000E+00 0.  1.
</event>
<event>
 7    1  0.5743890E-009  0.4614232E+02  0.7816164E-02  0.1320468E+00
        -11   -1    0    0    0    0  0.00000000000E+00  0.00000000000E+00  0.45593999997E+02  0.45594000000E+02  0.51100000000E-03 0. -1.
         11   -1    0    0    0    0 -0.00000000000E+00 -0.00000000000E+00 -0.45593999997E+02  0.45594000000E+02  0.51100000000E-03 0.  1.
    9900012    2    1    2    0    0 -0.31985761789E+02 -0.31032515828E+02  0.65580098850E+01  0.46142317749E+02  0.99999998853E+01 0.  0.
        -12    1    1    2    0    0  0.31985761789E+02  0.31032515828E+02 -0.65580098850E+01  0.45045682251E+02  0.00000000000E+00 0.  1.
         11    1    3    3    0    0 -0.20834955484E+02 -0.18055145695E+02  0.70283839940E+01  0.28451394306E+02  0.51100000000E-03 0. -1.
        -11    1    3    3    0    0 -0.11378630775E+02 -0.11544929195E+02 -0.68704235143E+00  0.16224384608E+02  0.51100000000E-03 0.  1.
         12    1    3    3    0    0  0.22782447009E+00 -0.14324409374E+01  0.21666824245E+00  0.14665388353E+01  0.00000000000E+00 0. -1.
</event>
<event>
 7    1  0.5743890E-009  0.4614232E+02  0.7816164E-02  0.1320468E+00
        -11   -1    0    0    0    0  0.00000000000E+00  0.00000000000E+00  0.45593999997E+02  0.45594000000E+02  0.51100000000E-03 0. -1.
         11   -1    0    0    0    0 -0.00000000000E+00 -0.00000000000E+00 -0.45593999997E+02  0.45594000000E+02  0.51100000000E-03 0.  1.
    9900012    2    1    2    0    0  0.12624466397E+01 -0.32204148177E+02  0.31470819721E+02  0.46142318462E+02  0.10000006390E+02 0.  0.
        -12    1    1    2    0    0 -0.12624466397E+01  0.32204148177E+02 -0.31470819721E+02  0.45045681538E+02  0.00000000000E+00 0.  1.
         11    1    3    3    0    0 -0.26709740598E+00 -0.13576481535E+02  0.11143709630E+02  0.17566287498E+02  0.51100000000E-03 0. -1.
        -11    1    3    3    0    0  0.44762611494E+01 -0.11988266559E+02  0.12286725638E+02  0.17740323450E+02  0.51100000000E-03 0.  1.
         12    1    3    3    0    0 -0.29467171038E+01 -0.66394000835E+01  0.80403844539E+01  0.10835707514E+02  0.00000000000E+00 0. -1.
</event>
<event>
 7    1  0.5743890E-009  0.4614232E+02  0.7816164E-02  0.1320468E+00
        -11   -1    0    0    0    0  0.00000000000E+00  0.00000000000E+00  0.45593999997E+02  0.45594000000E+02  0.51100000000E-03 0.  1.
         11   -1    0    0    0    0 -0.00000000000E+00 -0.00000000000E+00 -0.45593999997E+02  0.45594000000E+02  0.51100000000E-03 0. -1.
    9900012    2    1    2    0    0  0.69694303509E+01  0.38236040587E+02  0.22771598097E+02  0.46142318308E+02  0.10000004988E+02 0.  0.
        -12    1    1    2    0    0 -0.69694303509E+01 -0.38236040587E+02 -0.22771598097E+02  0.45045681692E+02  0.00000000000E+00 0.  1.
         11    1    3    3    0    0  0.21533872040E+01  0.12347833285E+02  0.10618196484E+02  0.16427177485E+02  0.51100000000E-03 0. -1.
        -11    1    3    3    0    0  0.42093823502E+01  0.96053748406E+01  0.25180315160E+01  0.10785295943E+02  0.51100000000E-03 0.  1.
        -12    1    3    3    0    0  0.60666079667E+00  0.16282832461E+02  0.96353700974E+01  0.18929844880E+02  0.00000000000E+00 0.  1.
</event>
<event>
 7    1  0.5743890E-009  0.4614232E+02  0.7816164E-02  0.1320468E+00
        -11   -1    0    0    0    0  0.00000000000E+00  0.00000000000E+00  0.45593999997E+02  0.45594000000E+02  0.51100000000E-03 0. -1.
         11   -1    0    0    0    0 -0.00000000000E+00 -0.00000000000E+00 -0.45593999997E+02  0.45594000000E+02  0.51100000000E-03 0.  1.
    9900012    2    1    2    0    0 -0.36628903323E+02 -0.49242153266E-01 -0.26218972414E+02  0.46142317655E+02  0.99999990342E+01 0.  0.
         12    1    1    2    0    0  0.36628903323E+02  0.49242153266E-01  0.26218972414E+02  0.45045682345E+02  0.00000000000E+00 0. -1.
         11    1    3    3    0    0 -0.59667510874E+01 -0.19407619708E+01 -0.50309133916E+01  0.80423109478E+01  0.51100000000E-03 0.  1.
        -11    1    3    3    0    0 -0.18628265838E+02  0.43475507574E+01 -0.15218581407E+02  0.24444195753E+02  0.51100000000E-03 0. -1.
         12    1    3    3    0    0 -0.12033886398E+02 -0.24560309399E+01 -0.59694776156E+01  0.13655810954E+02  0.00000000000E+00 0. -1.
</event>
<event>
 7    1  0.5743890E-009  0.4614232E+02  0.7816164E-02  0.1320468E+00
        -11   -1    0    0    0    0  0.00000000000E+00  0.00000000000E+00  0.45593999997E+02  0.45594000000E+02  0.51100000000E-03 0. -1.
         11   -1    0    0    0    0 -0.00000000000E+00 -0.00000000000E+00 -0.45593999997E+02  0.45594000000E+02  0.51100000000E-03 0.  1.
    9900012    2    1    2    0    0  0.98311856713E+01 -0.28061268271E+02  0.33838240142E+02  0.46142317803E+02  0.10000000386E+02 0.  0.
        -12    1    1    2    0    0 -0.98311856713E+01  0.28061268271E+02 -0.33838240142E+02  0.45045682197E+02  0.00000000000E+00 0.  1.
         11    1    3    3    0    0  0.15455334068E+01 -0.76403460488E+01  0.45622705647E+01  0.90320470672E+01  0.51100000000E-03 0.  1.
        -11    1    3    3    0    0  0.73576186529E+01 -0.16667599589E+02  0.19965680406E+02  0.27029092154E+02  0.51100000000E-03 0. -1.
         12    1    3    3    0    0  0.92803361162E+00 -0.37533226326E+01  0.93102891706E+01  0.10081178582E+02  0.00000000000E+00 0. -1.
</event>
<event>
 7    1  0.5743890E-009  0.4614232E+02  0.7816164E-02  0.1320468E+00
        -11   -1    0    0    0    0  0.00000000000E+00  0.00000000000E+00  0.45593999997E+02  0.45594000000E+02  0.51100000000E-03 0. -1.
         11   -1    0    0    0    0 -0.00000000000E+00 -0.00000000000E+00 -0.45593999997E+02  0.45594000000E+02  0.51100000000E-03 0.  1.
    9900012    2    1    2    0    0 -0.17701475120E+02 -0.31483768224E+02 -0.26917348232E+02  0.46142317423E+02  0.99999969160E+01 0.  0.
         12    1    1    2    0    0  0.17701475120E+02  0.31483768224E+02  0.26917348232E+02  0.45045682577E+02  0.00000000000E+00 0. -1.
         11    1    3    3    0    0 -0.79667425368E+01 -0.13926225299E+02 -0.78088081953E+01  0.17843380381E+02  0.51100000000E-03 0. -1.
        -11    1    3    3    0    0 -0.58048521174E+01 -0.14818241059E+02 -0.13088141597E+02  0.20605242705E+02  0.51100000000E-03 0.  1.
         12    1    3    3    0    0 -0.39298804653E+01 -0.27393018659E+01 -0.60203984395E+01  0.76936943372E+01  0.00000000000E+00 0. -1.
</event>
<event>
 7    1  0.5743890E-009  0.4614231E+02  0.7816164E-02  0.1320468E+00
        -11   -1    0    0    0    0  0.00000000000E+00  0.00000000000E+00  0.45593999997E+02  0.45594000000E+02  0.51100000000E-03 0. -1.
         11   -1    0    0    0    0 -0.00000000000E+00 -0.00000000000E+00 -0.45593999997E+02  0.45594000000E+02  0.51100000000E-03 0.  1.
    9900012    2    1    2    0    0 -0.19612578547E+02 -0.65756236388E+00 -0.40546621411E+02  0.46142310602E+02  0.99999347144E+01 0.  0.
         12    1    1    2    0    0  0.19612578547E+02  0.65756236388E+00  0.40546621411E+02  0.45045689398E+02  0.00000000000E+00 0. -1.
         11    1    3    3    0    0 -0.40325991690E+01  0.25339326815E+01 -0.63582192044E+01  0.79441565068E+01  0.51100000000E-03 0. -1.
        -11    1    3    3    0    0 -0.42800904972E+01 -0.32770402362E+01 -0.14876965163E+02  0.15823471810E+02  0.51100000000E-03 0.  1.
         12    1    3    3    0    0 -0.11299888880E+02  0.85545190867E-01 -0.19311437043E+02  0.22374682285E+02  0.00000000000E+00 0. -1.
</event>
<event>
 7    1  0.5743890E-009  0.4614232E+02  0.7816164E-02  0.1320468E+00
        -11   -1    0    0    0    0  0.00000000000E+00  0.00000000000E+00  0.45593999997E+02  0.45594000000E+02  0.51100000000E-03 0. -1.
         11   -1    0    0    0    0 -0.00000000000E+00 -0.00000000000E+00 -0.45593999997E+02  0.45594000000E+02  0.51100000000E-03 0.  1.
    9900012    2    1    2    0    0 -0.14764936406E+02  0.71589327951E+01  0.41950681839E+02  0.46142319046E+02  0.10000011721E+02 0.  0.
        -12    1    1    2    0    0  0.14764936406E+02 -0.71589327951E+01 -0.41950681839E+02  0.45045680954E+02  0.00000000000E+00 0.  1.
         11    1    3    3    0    0 -0.10106061418E+02  0.29236718157E+01  0.28442732424E+02  0.30326050885E+02  0.51100000000E-03 0. -1.
        -11    1    3    3    0    0  0.67126150154E+00  0.11437394481E+01  0.49023650847E+00  0.14138826061E+01  0.51100000000E-03 0.  1.
        -12    1    3    3    0    0 -0.53301364899E+01  0.30915215313E+01  0.13017712906E+02  0.14402385555E+02  0.00000000000E+00 0.  1.
</event>
<event>
 7    1  0.5743890E-009  0.4614232E+02  0.7816164E-02  0.1320468E+00
        -11   -1    0    0    0    0  0.00000000000E+00  0.00000000000E+00  0.45593999997E+02  0.45594000000E+02  0.51100000000E-03 0. -1.
         11   -1    0    0    0    0 -0.00000000000E+00 -0.00000000000E+00 -0.45593999997E+02  0.45594000000E+02  0.51100000000E-03 0.  1.
    9900012    2    1    2    0    0  0.25155001919E+02  0.76146239533E+01  0.36583560378E+02  0.46142317527E+02  0.99999978696E+01 0.  0.
        -12    1    1    2    0    0 -0.25155001919E+02 -0.76146239533E+01 -0.36583560378E+02  0.45045682473E+02  0.00000000000E+00 0.  1.
         11    1    3    3    0    0  0.17886004006E+02  0.28511618902E+01  0.29833856061E+02  0.34901249708E+02  0.51100000000E-03 0. -1.
        -11    1    3    3    0    0  0.45666529277E+01  0.36082351123E+01  0.56256057524E+01  0.80945117166E+01  0.51100000000E-03 0.  1.
         12    1    3    3    0    0  0.27023449851E+01  0.11552269508E+01  0.11240985642E+01  0.31465561029E+01  0.00000000000E+00 0. -1.
</event>
<event>
 7    1  0.5743890E-009  0.4614232E+02  0.7816164E-02  0.1320468E+00
        -11   -1    0    0    0    0  0.00000000000E+00  0.00000000000E+00  0.45593999997E+02  0.45594000000E+02  0.51100000000E-03 0. -1.
         11   -1    0    0    0    0 -0.00000000000E+00 -0.00000000000E+00 -0.45593999997E+02  0.45594000000E+02  0.51100000000E-03 0.  1.
    9900012    2    1    2    0    0  0.32992501601E+02 -0.14143787021E+02 -0.27213262636E+02  0.46142317228E+02  0.99999951353E+01 0.  0.
         12    1    1    2    0    0 -0.32992501601E+02  0.14143787021E+02  0.27213262636E+02  0.45045682772E+02  0.00000000000E+00 0. -1.
         11    1    3    3    0    0  0.79459436747E+01 -0.16508664337E+01 -0.40022245284E+01  0.90488221499E+01  0.51100000000E-03 0. -1.
        -11    1    3    3    0    0  0.20054177166E+02 -0.70321361120E+01 -0.14832765218E+02  0.25915861636E+02  0.51100000000E-03 0.  1.
        -12    1    3    3    0    0  0.49923807601E+01 -0.54607844749E+01 -0.83782728896E+01  0.11177633441E+02  0.00000000000E+00 0.  1.
</event>
<event>
 7    1  0.6024622E-009  0.4614232E+02  0.7816164E-02  0.1320468E+00
        -11   -1    0    0    0    0  0.00000000000E+00  0.00000000000E+00  0.45593999997E+02  0.45594000000E+02  0.51100000000E-03 0. -1.
         11   -1    0    0    0    0 -0.00000000000E+00 -0.00000000000E+00 -0.45593999997E+02  0.45594000000E+02  0.51100000000E-03 0.  1.
    9900012    2    1    2    0    0 -0.25533800039E+02  0.14403662570E+01  0.37081853792E+02  0.46142317853E+02  0.10000000842E+02 0.  0.
        -12    1    1    2    0    0  0.25533800039E+02 -0.14403662570E+01 -0.37081853792E+02  0.45045682147E+02  0.00000000000E+00 0.  1.
         11    1    3    3    0    0 -0.13388343787E+02  0.10976253081E+01  0.24767272010E+02  0.28175703962E+02  0.51100000000E-03 0. -1.
        -11    1    3    3    0    0 -0.58680843248E+01  0.18734466451E+01  0.83841573831E+01  0.10403764283E+02  0.51100000000E-03 0.  1.
        -12    1    3    3    0    0 -0.62773719273E+01 -0.15307056962E+01  0.39304243993E+01  0.75628496085E+01  0.00000000000E+00 0.  1.
</event>
<event>
 7    1  0.5743890E-009  0.4614232E+02  0.7816164E-02  0.1320468E+00
        -11   -1    0    0    0    0  0.00000000000E+00  0.00000000000E+00  0.45593999997E+02  0.45594000000E+02  0.51100000000E-03 0. -1.
         11   -1    0    0    0    0 -0.00000000000E+00 -0.00000000000E+00 -0.45593999997E+02  0.45594000000E+02  0.51100000000E-03 0.  1.
    9900012    2    1    2    0    0 -0.87266979058E+01  0.20777163086E+02  0.39003432417E+02  0.46142317603E+02  0.99999985624E+01 0.  0.
        -12    1    1    2    0    0  0.87266979058E+01 -0.20777163086E+02 -0.39003432417E+02  0.45045682397E+02  0.00000000000E+00 0.  1.
         11    1    3    3    0    0 -0.47989584599E+00  0.26371618795E+01  0.59530042959E+01  0.65286432901E+01  0.51100000000E-03 0. -1.
        -11    1    3    3    0    0  0.14257817473E+01  0.47528137778E+01  0.10967263968E+02  0.12037565019E+02  0.51100000000E-03 0.  1.
         12    1    3    3    0    0 -0.96725838071E+01  0.13387187428E+02  0.22083164154E+02  0.27576109294E+02  0.00000000000E+00 0. -1.
</event>
<event>
 7    1  0.5743890E-009  0.4614232E+02  0.7816164E-02  0.1320468E+00
        -11   -1    0    0    0    0  0.00000000000E+00  0.00000000000E+00  0.45593999997E+02  0.45594000000E+02  0.51100000000E-03 0. -1.
         11   -1    0    0    0    0 -0.00000000000E+00 -0.00000000000E+00 -0.45593999997E+02  0.45594000000E+02  0.51100000000E-03 0.  1.
    9900012    2    1    2    0    0 -0.38319738846E+01 -0.11860930598E+02  0.43286808619E+02  0.46142317644E+02  0.99999989301E+01 0.  0.
        -12    1    1    2    0    0  0.38319738846E+01  0.11860930598E+02 -0.43286808619E+02  0.45045682356E+02  0.00000000000E+00 0.  1.
         11    1    3    3    0    0 -0.20490132784E+01 -0.14803177965E+00  0.42411093261E+01  0.47124704137E+01  0.51100000000E-03 0.  1.
        -11    1    3    3    0    0 -0.43481209259E+01 -0.62091388224E+01  0.25097097453E+02  0.26216862157E+02  0.51100000000E-03 0. -1.
         12    1    3    3    0    0  0.25651603197E+01 -0.55037599957E+01  0.13948601840E+02  0.15212985073E+02  0.00000000000E+00 0. -1.
</event>
<event>
 7    1  0.5743890E-009  0.4614231E+02  0.7816164E-02  0.1320468E+00
        -11   -1    0    0    0    0  0.00000000000E+00  0.00000000000E+00  0.45593999997E+02  0.45594000000E+02  0.51100000000E-03 0. -1.
         11   -1    0    0    0    0 -0.00000000000E+00 -0.00000000000E+00 -0.45593999997E+02  0.45594000000E+02  0.51100000000E-03 0.  1.
    9900012    2    1    2    0    0 -0.96969645408E+01 -0.13709082061E+02  0.41798847965E+02  0.46142314930E+02  0.99999741796E+01 0.  0.
        -12    1    1    2    0    0  0.96969645408E+01  0.13709082061E+02 -0.41798847965E+02  0.45045685070E+02  0.00000000000E+00 0.  1.
         11    1    3    3    0    0 -0.26854606479E+01 -0.93949607307E+01  0.25810499200E+02  0.27598167606E+02  0.51100000000E-03 0. -1.
        -11    1    3    3    0    0 -0.76342164076E+01 -0.42907728846E+01  0.14652100724E+02  0.17069740713E+02  0.51100000000E-03 0.  1.
         12    1    3    3    0    0  0.62271251474E+00 -0.23348445600E-01  0.13362480409E+01  0.14744066104E+01  0.00000000000E+00 0. -1.
</event>
<event>
 7    1  0.5743890E-009  0.4614233E+02  0.7816164E-02  0.1320468E+00
        -11   -1    0    0    0    0  0.00000000000E+00  0.00000000000E+00  0.45593999997E+02  0.45594000000E+02  0.51100000000E-03 0. -1.
         11   -1    0    0    0    0 -0.00000000000E+00 -0.00000000000E+00 -0.45593999997E+02  0.45594000000E+02  0.51100000000E-03 0.  1.
    9900012    2    1    2    0    0 -0.87847179333E+01 -0.35507144117E+02 -0.26290377911E+02  0.46142328474E+02  0.10000097690E+02 0.  0.
         12    1    1    2    0    0  0.87847179333E+01  0.35507144117E+02  0.26290377911E+02  0.45045671526E+02  0.00000000000E+00 0. -1.
         11    1    3    3    0    0 -0.38798900277E+01 -0.24301213541E+02 -0.17234002675E+02  0.30043524671E+02  0.51100000000E-03 0. -1.
        -11    1    3    3    0    0 -0.33322529956E+01 -0.97028362903E+01 -0.93783471919E+01  0.13899724401E+02  0.51100000000E-03 0.  1.
         12    1    3    3    0    0 -0.15725749101E+01 -0.15030942851E+01  0.32197195558E+00  0.21990794023E+01  0.00000000000E+00 0. -1.
</event>
<event>
 7    1  0.5743890E-009  0.4614232E+02  0.7816164E-02  0.1320468E+00
        -11   -1    0    0    0    0  0.00000000000E+00  0.00000000000E+00  0.45593999997E+02  0.45594000000E+02  0.51100000000E-03 0.  1.
         11   -1    0    0    0    0 -0.00000000000E+00 -0.00000000000E+00 -0.45593999997E+02  0.45594000000E+02  0.51100000000E-03 0. -1.
    9900012    2    1    2    0    0 -0.40156895364E+02 -0.51727198494E+01  0.19742849010E+02  0.46142319153E+02  0.10000012693E+02 0.  0.
        -12    1    1    2    0    0  0.40156895364E+02  0.51727198494E+01 -0.19742849010E+02  0.45045680847E+02  0.00000000000E+00 0.  1.
         11    1    3    3    0    0 -0.55661627726E+01  0.34194164584E+00  0.60260649544E+01  0.82105146730E+01  0.51100000000E-03 0. -1.
        -11    1    3    3    0    0 -0.60738598040E-01 -0.45712189539E+00  0.25547490553E+00  0.52717861585E+00  0.51100000000E-03 0.  1.
         12    1    3    3    0    0 -0.34529993994E+02 -0.50575395999E+01  0.13461309150E+02  0.37404625864E+02  0.00000000000E+00 0. -1.
</event>
<event>
 7    1  0.5743890E-009  0.4614232E+02  0.7816164E-02  0.1320468E+00
        -11   -1    0    0    0    0  0.00000000000E+00  0.00000000000E+00  0.45593999997E+02  0.45594000000E+02  0.51100000000E-03 0. -1.
         11   -1    0    0    0    0 -0.00000000000E+00 -0.00000000000E+00 -0.45593999997E+02  0.45594000000E+02  0.51100000000E-03 0.  1.
    9900012    2    1    2    0    0 -0.35403110162E+02 -0.11050040496E+02 -0.25566185146E+02  0.46142318442E+02  0.10000006213E+02 0.  0.
         12    1    1    2    0    0  0.35403110162E+02  0.11050040496E+02  0.25566185146E+02  0.45045681558E+02  0.00000000000E+00 0. -1.
         11    1    3    3    0    0 -0.24107478606E+01 -0.26108228827E+01 -0.11926721636E+01  0.37484087988E+01  0.51100000000E-03 0. -1.
        -11    1    3    3    0    0 -0.27065328990E+01 -0.27250433425E+01 -0.22000602988E+01  0.44262226708E+01  0.51100000000E-03 0.  1.
        -12    1    3    3    0    0 -0.30285829402E+02 -0.57141742710E+01 -0.22173452684E+02  0.37967686973E+02  0.00000000000E+00 0.  1.
</event>
<event>
 7    1  0.5743890E-009  0.4614232E+02  0.7816164E-02  0.1320468E+00
        -11   -1    0    0    0    0  0.00000000000E+00  0.00000000000E+00  0.45593999997E+02  0.45594000000E+02  0.51100000000E-03 0. -1.
         11   -1    0    0    0    0 -0.00000000000E+00 -0.00000000000E+00 -0.45593999997E+02  0.45594000000E+02  0.51100000000E-03 0.  1.
    9900012    2    1    2    0    0  0.97970331299E+01 -0.12942465322E+02 -0.42019331678E+02  0.46142317616E+02  0.99999986756E+01 0.  0.
         12    1    1    2    0    0 -0.97970331299E+01  0.12942465322E+02  0.42019331678E+02  0.45045682384E+02  0.00000000000E+00 0. -1.
         11    1    3    3    0    0  0.41415836656E+01 -0.50419201948E+01 -0.94535246677E+01  0.11486635861E+02  0.51100000000E-03 0. -1.
        -11    1    3    3    0    0  0.56419686086E+01 -0.64726872073E+01 -0.31979338360E+02  0.33112015518E+02  0.51100000000E-03 0.  1.
        -12    1    3    3    0    0  0.13480855753E-01 -0.14278579194E+01 -0.58646865103E+00  0.15436662366E+01  0.00000000000E+00 0.  1.
</event>
<event>
 7    1  0.5743890E-009  0.4614232E+02  0.7816164E-02  0.1320468E+00
        -11   -1    0    0    0    0  0.00000000000E+00  0.00000000000E+00  0.45593999997E+02  0.45594000000E+02  0.51100000000E-03 0. -1.
         11   -1    0    0    0    0 -0.00000000000E+00 -0.00000000000E+00 -0.45593999997E+02  0.45594000000E+02  0.51100000000E-03 0.  1.
    9900012    2    1    2    0    0 -0.33940102706E+02  0.20541331738E+01 -0.29545947914E+02  0.46142322373E+02  0.10000042051E+02 0.  0.
         12    1    1    2    0    0  0.33940102706E+02 -0.20541331738E+01  0.29545947914E+02  0.45045677627E+02  0.00000000000E+00 0. -1.
         11    1    3    3    0    0 -0.46791011124E+01  0.17998361335E+00 -0.64708679476E+01  0.79873971717E+01  0.51100000000E-03 0. -1.
        -11    1    3    3    0    0 -0.26297765527E+02  0.97166852470E-01 -0.22585216226E+02  0.34665168474E+02  0.51100000000E-03 0.  1.
         12    1    3    3    0    0 -0.29632360662E+01  0.17769827080E+01 -0.48986374091E+00  0.34897567269E+01  0.00000000000E+00 0. -1.
</event>
<event>
 7    1  0.6511709E-009  0.4614232E+02  0.7816164E-02  0.1320468E+00
        -11   -1    0    0    0    0  0.00000000000E+00  0.00000000000E+00  0.45593999997E+02  0.45594000000E+02  0.51100000000E-03 0. -1.
         11   -1    0    0    0    0 -0.00000000000E+00 -0.00000000000E+00 -0.45593999997E+02  0.45594000000E+02  0.51100000000E-03 0.  1.
    9900012    2    1    2    0    0  0.11434323540E+02  0.33780931962E+02  0.27517601289E+02  0.46142317635E+02  0.99999988519E+01 0.  0.
        -12    1    1    2    0    0 -0.11434323540E+02 -0.33780931962E+02 -0.27517601289E+02  0.45045682365E+02  0.00000000000E+00 0.  1.
         11    1    3    3    0    0  0.33489912403E+01  0.11736780379E+02  0.52253442736E+01  0.13276745800E+02  0.51100000000E-03 0. -1.
        -11    1    3    3    0    0 -0.43542445782E+00 -0.41584652195E-01  0.69662794855E+00  0.82256580381E+00  0.51100000000E-03 0.  1.
         12    1    3    3    0    0  0.85207567578E+01  0.22085736235E+02  0.21595629066E+02  0.32043006032E+02  0.00000000000E+00 0. -1.
</event>
<event>
 7    1  0.5743890E-009  0.4614232E+02  0.7816164E-02  0.1320468E+00
        -11   -1    0    0    0    0  0.00000000000E+00  0.00000000000E+00  0.45593999997E+02  0.45594000000E+02  0.51100000000E-03 0. -1.
         11   -1    0    0    0    0 -0.00000000000E+00 -0.00000000000E+00 -0.45593999997E+02  0.45594000000E+02  0.51100000000E-03 0.  1.
    9900012    2    1    2    0    0  0.71445624420E+01 -0.16710326294E+02 -0.41216910455E+02  0.46142317801E+02  0.10000000362E+02 0.  0.
         12    1    1    2    0    0 -0.71445624420E+01  0.16710326294E+02  0.41216910455E+02  0.45045682199E+02  0.00000000000E+00 0. -1.
         11    1    3    3    0    0  0.99079590899E+00 -0.38804237590E+01 -0.51849456503E+01  0.65515667394E+01  0.51100000000E-03 0. -1.
        -11    1    3    3    0    0  0.31635389253E+01 -0.12842759377E+02 -0.26792766867E+02  0.29879705547E+02  0.51100000000E-03 0.  1.
        -12    1    3    3    0    0  0.29902276076E+01  0.12856842217E-01 -0.92391979379E+01  0.97110455142E+01  0.00000000000E+00 0.  1.
</event>
<event>
 7    1  0.5743890E-009  0.4614232E+02  0.7816164E-02  0.1320468E+00
        -11   -1    0    0    0    0  0.00000000000E+00  0.00000000000E+00  0.45593999997E+02  0.45594000000E+02  0.51100000000E-03 0. -1.
         11   -1    0    0    0    0 -0.00000000000E+00 -0.00000000000E+00 -0.45593999997E+02  0.45594000000E+02  0.51100000000E-03 0.  1.
    9900012    2    1    2    0    0 -0.25222271643E+02 -0.24365244963E+02  0.28271635850E+02  0.46142317160E+02  0.99999945173E+01 0.  0.
        -12    1    1    2    0    0  0.25222271643E+02  0.24365244963E+02 -0.28271635850E+02  0.45045682840E+02  0.00000000000E+00 0.  1.
         11    1    3    3    0    0 -0.22488781331E+02 -0.22313789047E+02  0.21041461461E+02  0.38031481277E+02  0.51100000000E-03 0. -1.
        -11    1    3    3    0    0 -0.26746236890E+01 -0.15044696226E+01  0.55368290282E+01  0.63303646555E+01  0.51100000000E-03 0.  1.
         12    1    3    3    0    0 -0.58866622354E-01 -0.54698629326E+00  0.16933453600E+01  0.17804712277E+01  0.00000000000E+00 0. -1.
</event>
<event>
 7    1  0.5743890E-009  0.4614232E+02  0.7816164E-02  0.1320468E+00
        -11   -1    0    0    0    0  0.00000000000E+00  0.00000000000E+00  0.45593999997E+02  0.45594000000E+02  0.51100000000E-03 0. -1.
         11   -1    0    0    0    0 -0.00000000000E+00 -0.00000000000E+00 -0.45593999997E+02  0.45594000000E+02  0.51100000000E-03 0.  1.
    9900012    2    1    2    0    0  0.45909243117E+01 -0.49524165314E+01 -0.44536619069E+02  0.46142318146E+02  0.10000003511E+02 0.  0.
         12    1    1    2    0    0 -0.45909243117E+01  0.49524165314E+01  0.44536619069E+02  0.45045681854E+02  0.00000000000E+00 0. -1.
         11    1    3    3    0    0  0.23505800110E+01 -0.72229281141E+01 -0.24092436562E+02  0.25261461096E+02  0.51100000000E-03 0. -1.
        -11    1    3    3    0    0 -0.34750987483E+00  0.13324620168E+01 -0.93196532386E+01  0.94208362096E+01  0.51100000000E-03 0.  1.
         12    1    3    3    0    0  0.25878541755E+01  0.93804956592E+00 -0.11124529268E+02  0.11460020841E+02  0.00000000000E+00 0. -1.
</event>
<event>
 7    1  0.5743890E-009  0.4614232E+02  0.7816164E-02  0.1320468E+00
        -11   -1    0    0    0    0  0.00000000000E+00  0.00000000000E+00  0.45593999997E+02  0.45594000000E+02  0.51100000000E-03 0. -1.
         11   -1    0    0    0    0 -0.00000000000E+00 -0.00000000000E+00 -0.45593999997E+02  0.45594000000E+02  0.51100000000E-03 0.  1.
    9900012    2    1    2    0    0 -0.19930156838E+02  0.59629504488E+01  0.39954293538E+02  0.46142317613E+02  0.99999986449E+01 0.  0.
        -12    1    1    2    0    0  0.19930156838E+02 -0.59629504488E+01 -0.39954293538E+02  0.45045682387E+02  0.00000000000E+00 0.  1.
         11    1    3    3    0    0 -0.22276459963E+01 -0.21632155502E+01  0.73633820143E+01  0.79913267453E+01  0.51100000000E-03 0. -1.
        -11    1    3    3    0    0 -0.13298857860E+01 -0.23861873493E+00  0.33255184529E+01  0.35895136643E+01  0.51100000000E-03 0.  1.
         12    1    3    3    0    0 -0.16372625056E+02  0.83647847340E+01  0.29265393071E+02  0.34561477203E+02  0.00000000000E+00 0. -1.
</event>
<event>
 7    1  0.5743890E-009  0.4614231E+02  0.7816164E-02  0.1320468E+00
        -11   -1    0    0    0    0  0.00000000000E+00  0.00000000000E+00  0.45593999997E+02  0.45594000000E+02  0.51100000000E-03 0. -1.
         11   -1    0    0    0    0 -0.00000000000E+00 -0.00000000000E+00 -0.45593999997E+02  0.45594000000E+02  0.51100000000E-03 0.  1.
    9900012    2    1    2    0    0  0.23698271648E+02 -0.17751184235E+02 -0.33947035383E+02  0.46142313945E+02  0.99999652061E+01 0.  0.
         12    1    1    2    0    0 -0.23698271648E+02  0.17751184235E+02  0.33947035383E+02  0.45045686055E+02  0.00000000000E+00 0. -1.
         11    1    3    3    0    0  0.74881256156E+01 -0.84809132282E+01 -0.17694535130E+02  0.21002249598E+02  0.51100000000E-03 0. -1.
        -11    1    3    3    0    0  0.21070921242E+01 -0.14713421668E+01 -0.45426194670E+01  0.52192027049E+01  0.51100000000E-03 0.  1.
         12    1    3    3    0    0  0.14103053909E+02 -0.77989288396E+01 -0.11709880785E+02  0.19920861643E+02  0.00000000000E+00 0. -1.
</event>
<event>
 7    1  0.5743890E-009  0.4614232E+02  0.7816164E-02  0.1320468E+00
        -11   -1    0    0    0    0  0.00000000000E+00  0.00000000000E+00  0.45593999997E+02  0.45594000000E+02  0.51100000000E-03 0. -1.
         11   -1    0    0    0    0 -0.00000000000E+00 -0.00000000000E+00 -0.45593999997E+02  0.45594000000E+02  0.51100000000E-03 0.  1.
    9900012    2    1    2    0    0 -0.13569627961E+02 -0.14307100467E+02  0.40500437848E+02  0.46142318823E+02  0.10000009685E+02 0.  0.
        -12    1    1    2    0    0  0.13569627961E+02  0.14307100467E+02 -0.40500437848E+02  0.45045681177E+02  0.00000000000E+00 0.  1.
         11    1    3    3    0    0 -0.32700158837E+01 -0.17766049783E+01  0.64251775964E+01  0.74251085201E+01  0.51100000000E-03 0. -1.
        -11    1    3    3    0    0 -0.45193331202E+01 -0.79557207923E+01  0.26966088570E+02  0.28476091695E+02  0.51100000000E-03 0.  1.
        -12    1    3    3    0    0 -0.57802789572E+01 -0.45747746969E+01  0.71091716816E+01  0.10241118608E+02  0.00000000000E+00 0.  1.
</event>
<event>
 7    1  0.5743890E-009  0.4614232E+02  0.7816164E-02  0.1320468E+00
        -11   -1    0    0    0    0  0.00000000000E+00  0.00000000000E+00  0.45593999997E+02  0.45594000000E+02  0.51100000000E-03 0. -1.
         11   -1    0    0    0    0 -0.00000000000E+00 -0.00000000000E+00 -0.45593999997E+02  0.45594000000E+02  0.51100000000E-03 0.  1.
    9900012    2    1    2    0    0 -0.26385657025E+02  0.35530623758E+02 -0.83955556286E+01  0.46142317903E+02  0.10000001291E+02 0.  0.
         12    1    1    2    0    0  0.26385657025E+02 -0.35530623758E+02  0.83955556286E+01  0.45045682097E+02  0.00000000000E+00 0. -1.
         11    1    3    3    0    0 -0.14069797923E+01  0.18537375561E+01  0.10634593280E+01  0.25586873717E+01  0.51100000000E-03 0. -1.
        -11    1    3    3    0    0 -0.17260389873E+01  0.27222045032E+01 -0.28614472066E+01  0.43101610550E+01  0.51100000000E-03 0.  1.
        -12    1    3    3    0    0 -0.23252638245E+02  0.30954681699E+02 -0.65975677501E+01  0.39273469476E+02  0.00000000000E+00 0.  1.
</event>
<event>
 7    1  0.5743890E-009  0.4614232E+02  0.7816164E-02  0.1320468E+00
        -11   -1    0    0    0    0  0.00000000000E+00  0.00000000000E+00  0.45593999997E+02  0.45594000000E+02  0.51100000000E-03 0. -1.
         11   -1    0    0    0    0 -0.00000000000E+00 -0.00000000000E+00 -0.45593999997E+02  0.45594000000E+02  0.51100000000E-03 0.  1.
    9900012    2    1    2    0    0  0.28057059712E+02 -0.58389171148E+01  0.34753732884E+02  0.46142317608E+02  0.99999986079E+01 0.  0.
        -12    1    1    2    0    0 -0.28057059712E+02  0.58389171148E+01 -0.34753732884E+02  0.45045682392E+02  0.00000000000E+00 0.  1.
         11    1    3    3    0    0  0.72771827747E+01 -0.64253222231E+00  0.47924911419E+01  0.87371739366E+01  0.51100000000E-03 0. -1.
        -11    1    3    3    0    0  0.12082415611E+02 -0.14519427286E+00  0.13531915299E+02  0.18141625624E+02  0.51100000000E-03 0.  1.
        -12    1    3    3    0    0  0.86974613267E+01 -0.50511906196E+01  0.16429326443E+02  0.19263518047E+02  0.00000000000E+00 0.  1.
</event>
<event>
 7    1  0.5743890E-009  0.4614232E+02  0.7816164E-02  0.1320468E+00
        -11   -1    0    0    0    0  0.00000000000E+00  0.00000000000E+00  0.45593999997E+02  0.45594000000E+02  0.51100000000E-03 0. -1.
         11   -1    0    0    0    0 -0.00000000000E+00 -0.00000000000E+00 -0.45593999997E+02  0.45594000000E+02  0.51100000000E-03 0.  1.
    9900012    2    1    2    0    0  0.67792578337E+01 -0.50005939557E+01  0.44250980187E+02  0.46142317363E+02  0.99999963719E+01 0.  0.
        -12    1    1    2    0    0 -0.67792578337E+01  0.50005939557E+01 -0.44250980187E+02  0.45045682637E+02  0.00000000000E+00 0.  1.
         11    1    3    3    0    0  0.25101304199E+01  0.11554812049E+01  0.96016585920E+01  0.99913832635E+01  0.51100000000E-03 0. -1.
        -11    1    3    3    0    0  0.10121674327E+01  0.14441968465E+01  0.99277850029E+01  0.10083208952E+02  0.51100000000E-03 0.  1.
         12    1    3    3    0    0  0.32569599811E+01 -0.76002720070E+01  0.24721536592E+02  0.26067725148E+02  0.00000000000E+00 0. -1.
</event>
<event>
 7    1  0.5743890E-009  0.4614232E+02  0.7816164E-02  0.1320468E+00
        -11   -1    0    0    0    0  0.00000000000E+00  0.00000000000E+00  0.45593999997E+02  0.45594000000E+02  0.51100000000E-03 0.  1.
         11   -1    0    0    0    0 -0.00000000000E+00 -0.00000000000E+00 -0.45593999997E+02  0.45594000000E+02  0.51100000000E-03 0. -1.
    9900012    2    1    2    0    0  0.21907551673E+02  0.39358959975E+02  0.21205486356E+00  0.46142317434E+02  0.99999970133E+01 0.  0.
        -12    1    1    2    0    0 -0.21907551673E+02 -0.39358959975E+02 -0.21205486356E+00  0.45045682566E+02  0.00000000000E+00 0.  1.
         11    1    3    3    0    0  0.73012827327E+01  0.84053383552E+01 -0.30772672559E+00  0.11137914455E+02  0.51100000000E-03 0. -1.
        -11    1    3    3    0    0  0.10613405381E+01  0.10253964713E+01 -0.14837947104E+01  0.20927323443E+01  0.51100000000E-03 0.  1.
         12    1    3    3    0    0  0.13544928403E+02  0.29928225148E+02  0.20035762995E+01  0.32911670634E+02  0.00000000000E+00 0. -1.
</event>
<event>
 7    1  0.5743890E-009  0.4614232E+02  0.7816164E-02  0.1320468E+00
        -11   -1    0    0    0    0  0.00000000000E+00  0.00000000000E+00  0.45593999997E+02  0.45594000000E+02  0.51100000000E-03 0. -1.
         11   -1    0    0    0    0 -0.00000000000E+00 -0.00000000000E+00 -0.45593999997E+02  0.45594000000E+02  0.51100000000E-03 0.  1.
    9900012    2    1    2    0    0 -0.22095406783E+02  0.36775383837E+02  0.13728717004E+02  0.46142317323E+02  0.99999960032E+01 0.  0.
        -12    1    1    2    0    0  0.22095406783E+02 -0.36775383837E+02 -0.13728717004E+02  0.45045682677E+02  0.00000000000E+00 0.  1.
         11    1    3    3    0    0 -0.41989314623E+01  0.11819254277E+02  0.55891995896E+01  0.13731895332E+02  0.51100000000E-03 0. -1.
        -11    1    3    3    0    0 -0.31166726201E+01  0.11476790533E+01  0.12862871722E+01  0.35616499520E+01  0.51100000000E-03 0.  1.
        -12    1    3    3    0    0 -0.14779802700E+02  0.23808450507E+02  0.68532302427E+01  0.28848772039E+02  0.00000000000E+00 0.  1.
</event>
<event>
 7    1  0.5743890E-009  0.4614231E+02  0.7816164E-02  0.1320468E+00
        -11   -1    0    0    0    0  0.00000000000E+00  0.00000000000E+00  0.45593999997E+02  0.45594000000E+02  0.51100000000E-03 0. -1.
         11   -1    0    0    0    0 -0.00000000000E+00 -0.00000000000E+00 -0.45593999997E+02  0.45594000000E+02  0.51100000000E-03 0.  1.
    9900012    2    1    2    0    0 -0.10852138137E+02 -0.24047353809E+02  0.36511230085E+02  0.46142311530E+02  0.99999431829E+01 0.  0.
        -12    1    1    2    0    0  0.10852138137E+02  0.24047353809E+02 -0.36511230085E+02  0.45045688470E+02  0.00000000000E+00 0.  1.
         11    1    3    3    0    0 -0.41607069214E+01 -0.97925822593E+01  0.13639218322E+02  0.17298393743E+02  0.51100000000E-03 0. -1.
        -11    1    3    3    0    0 -0.21223980421E+01 -0.78406838586E+01  0.56141274165E+01  0.98741745848E+01  0.51100000000E-03 0.  1.
        -12    1    3    3    0    0 -0.45690331736E+01 -0.64140876913E+01  0.17257884346E+02  0.18969743202E+02  0.00000000000E+00 0.  1.
</event>
<event>
 7    1  0.5743890E-009  0.4614233E+02  0.7816164E-02  0.1320468E+00
        -11   -1    0    0    0    0  0.00000000000E+00  0.00000000000E+00  0.45593999997E+02  0.45594000000E+02  0.51100000000E-03 0. -1.
         11   -1    0    0    0    0 -0.00000000000E+00 -0.00000000000E+00 -0.45593999997E+02  0.45594000000E+02  0.51100000000E-03 0.  1.
    9900012    2    1    2    0    0 -0.76649937784E+01 -0.32589053103E+02 -0.30138251676E+02  0.46142326225E+02  0.10000077178E+02 0.  0.
         12    1    1    2    0    0  0.76649937784E+01  0.32589053103E+02  0.30138251676E+02  0.45045673775E+02  0.00000000000E+00 0. -1.
         11    1    3    3    0    0 -0.13955711415E+01 -0.16295403681E+01 -0.24901273106E-01  0.21456096935E+01  0.51100000000E-03 0. -1.
        -11    1    3    3    0    0 -0.14967556030E+01 -0.30616637270E+01 -0.14162955649E+01  0.36905223886E+01  0.51100000000E-03 0.  1.
        -12    1    3    3    0    0 -0.47726670339E+01 -0.27897849008E+02 -0.28697054838E+02  0.40306194143E+02  0.00000000000E+00 0.  1.
</event>
<event>
 7    1  0.5743890E-009  0.4614232E+02  0.7816164E-02  0.1320468E+00
        -11   -1    0    0    0    0  0.00000000000E+00  0.00000000000E+00  0.45593999997E+02  0.45594000000E+02  0.51100000000E-03 0. -1.
         11   -1    0    0    0    0 -0.00000000000E+00 -0.00000000000E+00 -0.45593999997E+02  0.45594000000E+02  0.51100000000E-03 0.  1.
    9900012    2    1    2    0    0 -0.28040444700E+02  0.10427705581E+02 -0.33676549657E+02  0.46142316750E+02  0.99999907787E+01 0.  0.
         12    1    1    2    0    0  0.28040444700E+02 -0.10427705581E+02  0.33676549657E+02  0.45045683250E+02  0.00000000000E+00 0. -1.
         11    1    3    3    0    0 -0.61547581647E+00  0.10176825657E+01 -0.56492859657E-01  0.11906636760E+01  0.51100000000E-03 0. -1.
        -11    1    3    3    0    0 -0.15302047641E+02  0.39419037496E+01 -0.13234966095E+02  0.20612025495E+02  0.51100000000E-03 0.  1.
        -12    1    3    3    0    0 -0.12122921242E+02  0.54681192653E+01 -0.20385090703E+02  0.24339627579E+02  0.00000000000E+00 0.  1.
</event>
<event>
 7    1  0.5743890E-009  0.4614231E+02  0.7816164E-02  0.1320468E+00
        -11   -1    0    0    0    0  0.00000000000E+00  0.00000000000E+00  0.45593999997E+02  0.45594000000E+02  0.51100000000E-03 0.  1.
         11   -1    0    0    0    0 -0.00000000000E+00 -0.00000000000E+00 -0.45593999997E+02  0.45594000000E+02  0.51100000000E-03 0. -1.
    9900012    2    1    2    0    0  0.82773863142E+01  0.28671472390E+02 -0.33742348804E+02  0.46142305910E+02  0.99998919361E+01 0.  0.
         12    1    1    2    0    0 -0.82773863142E+01 -0.28671472390E+02  0.33742348804E+02  0.45045694090E+02  0.00000000000E+00 0. -1.
         11    1    3    3    0    0  0.84121186234E-01  0.23885727782E+01 -0.30157230363E+01  0.38479789479E+01  0.51100000000E-03 0.  1.
        -11    1    3    3    0    0  0.98937901699E+01  0.22333169145E+02 -0.28194373980E+02  0.37303890580E+02  0.51100000000E-03 0. -1.
         12    1    3    3    0    0 -0.17005250419E+01  0.39497304662E+01 -0.25322517875E+01  0.49904363826E+01  0.00000000000E+00 0. -1.
</event>
<event>
 7    1  0.5743890E-009  0.4614232E+02  0.7816164E-02  0.1320468E+00
        -11   -1    0    0    0    0  0.00000000000E+00  0.00000000000E+00  0.45593999997E+02  0.45594000000E+02  0.51100000000E-03 0. -1.
         11   -1    0    0    0    0 -0.00000000000E+00 -0.00000000000E+00 -0.45593999997E+02  0.45594000000E+02  0.51100000000E-03 0.  1.
    9900012    2    1    2    0    0  0.23017393281E+02  0.10868057381E+02 -0.37164479210E+02  0.46142316748E+02  0.99999907596E+01 0.  0.
         12    1    1    2    0    0 -0.23017393281E+02 -0.10868057381E+02  0.37164479210E+02  0.45045683252E+02  0.00000000000E+00 0. -1.
         11    1    3    3    0    0  0.52605208718E+01 -0.74714724001E+00 -0.56650851520E+01  0.77668847604E+01  0.51100000000E-03 0.  1.
        -11    1    3    3    0    0  0.13870191919E+02  0.95255471302E+01 -0.20482141425E+02  0.26507289368E+02  0.51100000000E-03 0. -1.
         12    1    3    3    0    0  0.38866804904E+01  0.20896574905E+01 -0.11017252633E+02  0.11868142619E+02  0.00000000000E+00 0. -1.
</event>
<event>
 7    1  0.5743890E-009  0.4614232E+02  0.7816164E-02  0.1320468E+00
        -11   -1    0    0    0    0  0.00000000000E+00  0.00000000000E+00  0.45593999997E+02  0.45594000000E+02  0.51100000000E-03 0. -1.
         11   -1    0    0    0    0 -0.00000000000E+00 -0.00000000000E+00 -0.45593999997E+02  0.45594000000E+02  0.51100000000E-03 0.  1.
    9900012    2    1    2    0    0 -0.39435138570E+02  0.11922473604E+02  0.18216421895E+02  0.46142316994E+02  0.99999930018E+01 0.  0.
        -12    1    1    2    0    0  0.39435138570E+02 -0.11922473604E+02 -0.18216421895E+02  0.45045683006E+02  0.00000000000E+00 0.  1.
         11    1    3    3    0    0 -0.21493671823E+01 -0.58363328354E+00  0.49272835828E+00  0.22810498877E+01  0.51100000000E-03 0. -1.
        -11    1    3    3    0    0 -0.42206105325E+01  0.42954621337E+01  0.20701386741E+01  0.63678899645E+01  0.51100000000E-03 0.  1.
         12    1    3    3    0    0 -0.33065160855E+02  0.82106447541E+01  0.15653554862E+02  0.37493377141E+02  0.00000000000E+00 0. -1.
</event>
<event>
 7    1  0.5743890E-009  0.4614232E+02  0.7816164E-02  0.1320468E+00
        -11   -1    0    0    0    0  0.00000000000E+00  0.00000000000E+00  0.45593999997E+02  0.45594000000E+02  0.51100000000E-03 0. -1.
         11   -1    0    0    0    0 -0.00000000000E+00 -0.00000000000E+00 -0.45593999997E+02  0.45594000000E+02  0.51100000000E-03 0.  1.
    9900012    2    1    2    0    0 -0.24183736235E+02  0.56824229660E-01 -0.38003384661E+02  0.46142316821E+02  0.99999914314E+01 0.  0.
         12    1    1    2    0    0  0.24183736235E+02 -0.56824229660E-01  0.38003384661E+02  0.45045683179E+02  0.00000000000E+00 0. -1.
         11    1    3    3    0    0 -0.19918267217E+02  0.22734193271E+00 -0.30639576647E+02  0.36545488239E+02  0.51100000000E-03 0. -1.
        -11    1    3    3    0    0 -0.28651763437E+01  0.14538217141E+01 -0.65636410556E+01  0.73078189102E+01  0.51100000000E-03 0.  1.
         12    1    3    3    0    0 -0.14002926744E+01 -0.16243394172E+01 -0.80016695924E+00  0.22890096721E+01  0.00000000000E+00 0. -1.
</event>
<event>
 7    1  0.5743890E-009  0.4614232E+02  0.7816164E-02  0.1320468E+00
        -11   -1    0    0    0    0  0.00000000000E+00  0.00000000000E+00  0.45593999997E+02  0.45594000000E+02  0.51100000000E-03 0. -1.
         11   -1    0    0    0    0 -0.00000000000E+00 -0.00000000000E+00 -0.45593999997E+02  0.45594000000E+02  0.51100000000E-03 0.  1.
    9900012    2    1    2    0    0 -0.10598385414E+02 -0.29674228108E+02 -0.32190491412E+02  0.46142319580E+02  0.10000016586E+02 0.  0.
         12    1    1    2    0    0  0.10598385414E+02  0.29674228108E+02  0.32190491412E+02  0.45045680420E+02  0.00000000000E+00 0. -1.
         11    1    3    3    0    0 -0.19539720037E+01 -0.57078393544E+01 -0.53687066215E+01  0.80759177644E+01  0.51100000000E-03 0. -1.
        -11    1    3    3    0    0 -0.89020455025E+01 -0.19740142153E+02 -0.17549066129E+02  0.27872734860E+02  0.51100000000E-03 0.  1.
         12    1    3    3    0    0  0.25763209273E+00 -0.42262466008E+01 -0.92727186613E+01  0.10193666955E+02  0.00000000000E+00 0. -1.
</event>
<event>
 7    1  0.5743890E-009  0.4614232E+02  0.7816164E-02  0.1320468E+00
        -11   -1    0    0    0    0  0.00000000000E+00  0.00000000000E+00  0.45593999997E+02  0.45594000000E+02  0.51100000000E-03 0. -1.
         11   -1    0    0    0    0 -0.00000000000E+00 -0.00000000000E+00 -0.45593999997E+02  0.45594000000E+02  0.51100000000E-03 0.  1.
    9900012    2    1    2    0    0  0.34738479401E+02 -0.11024271308E+02  0.26472948261E+02  0.46142317647E+02  0.99999989626E+01 0.  0.
        -12    1    1    2    0    0 -0.34738479401E+02  0.11024271308E+02 -0.26472948261E+02  0.45045682353E+02  0.00000000000E+00 0.  1.
         11    1    3    3    0    0  0.56033601193E+01 -0.22524075258E+01  0.40859579966E+01  0.72915044607E+01  0.51100000000E-03 0. -1.
        -11    1    3    3    0    0  0.60827517912E+01 -0.96407669785E+00  0.60473115664E+00  0.61882964753E+01  0.51100000000E-03 0.  1.
        -12    1    3    3    0    0  0.23052367491E+02 -0.78077870843E+01  0.21782259108E+02  0.32662516711E+02  0.00000000000E+00 0.  1.
</event>
<event>
 7    1  0.5743890E-009  0.4614232E+02  0.7816164E-02  0.1320468E+00
        -11   -1    0    0    0    0  0.00000000000E+00  0.00000000000E+00  0.45593999997E+02  0.45594000000E+02  0.51100000000E-03 0. -1.
         11   -1    0    0    0    0 -0.00000000000E+00 -0.00000000000E+00 -0.45593999997E+02  0.45594000000E+02  0.51100000000E-03 0.  1.
    9900012    2    1    2    0    0  0.16895718650E+02  0.95507523046E+01 -0.40650107844E+02  0.46142318231E+02  0.10000004285E+02 0.  0.
         12    1    1    2    0    0 -0.16895718650E+02 -0.95507523046E+01  0.40650107844E+02  0.45045681769E+02  0.00000000000E+00 0. -1.
         11    1    3    3    0    0  0.86194512396E+01  0.75160062599E+01 -0.15356350832E+02  0.19146874442E+02  0.51100000000E-03 0. -1.
        -11    1    3    3    0    0  0.21216557100E+01 -0.75400279098E+00 -0.33615892612E+01  0.40460135668E+01  0.51100000000E-03 0.  1.
        -12    1    3    3    0    0  0.61546117000E+01  0.27887488358E+01 -0.21932167751E+02  0.22949430222E+02  0.00000000000E+00 0.  1.
</event>
<event>
 7    1  0.5743890E-009  0.4614232E+02  0.7816164E-02  0.1320468E+00
        -11   -1    0    0    0    0  0.00000000000E+00  0.00000000000E+00  0.45593999997E+02  0.45594000000E+02  0.51100000000E-03 0.  1.
         11   -1    0    0    0    0 -0.00000000000E+00 -0.00000000000E+00 -0.45593999997E+02  0.45594000000E+02  0.51100000000E-03 0. -1.
    9900012    2    1    2    0    0 -0.41913039754E+01 -0.44818368847E+02  0.16910721339E+01  0.46142323847E+02  0.10000055500E+02 0.  0.
        -12    1    1    2    0    0  0.41913039754E+01  0.44818368847E+02 -0.16910721339E+01  0.45045676153E+02  0.00000000000E+00 0.  1.
         11    1    3    3    0    0 -0.22609138532E+01 -0.88589906614E+01  0.42739335437E+00  0.91529291667E+01  0.51100000000E-03 0. -1.
        -11    1    3    3    0    0  0.18395919213E+01 -0.23241058928E+02 -0.17725901769E+01  0.23381039214E+02  0.51100000000E-03 0.  1.
        -12    1    3    3    0    0 -0.37699820435E+01 -0.12718319257E+02  0.30362689564E+01  0.13608355467E+02  0.00000000000E+00 0.  1.
</event>
<event>
 7    1  0.5743890E-009  0.4614232E+02  0.7816164E-02  0.1320468E+00
        -11   -1    0    0    0    0  0.00000000000E+00  0.00000000000E+00  0.45593999997E+02  0.45594000000E+02  0.51100000000E-03 0. -1.
         11   -1    0    0    0    0 -0.00000000000E+00 -0.00000000000E+00 -0.45593999997E+02  0.45594000000E+02  0.51100000000E-03 0.  1.
    9900012    2    1    2    0    0  0.19537400774E+02 -0.40381497524E+02 -0.40912131234E+01  0.46142318786E+02  0.10000009342E+02 0.  0.
         12    1    1    2    0    0 -0.19537400774E+02  0.40381497524E+02  0.40912131234E+01  0.45045681214E+02  0.00000000000E+00 0. -1.
         11    1    3    3    0    0 -0.16643159923E+00  0.15443577416E+00 -0.19984663057E+00  0.30247119274E+00  0.51100000000E-03 0. -1.
        -11    1    3    3    0    0  0.10265641039E+02 -0.15569826495E+02 -0.43305867683E+01  0.19145674839E+02  0.51100000000E-03 0.  1.
         12    1    3    3    0    0  0.94381913337E+01 -0.24966106803E+02  0.43922027539E+00  0.26694172754E+02  0.00000000000E+00 0. -1.
</event>
<event>
 7    1  0.5743890E-009  0.4614232E+02  0.7816164E-02  0.1320468E+00
        -11   -1    0    0    0    0  0.00000000000E+00  0.00000000000E+00  0.45593999997E+02  0.45594000000E+02  0.51100000000E-03 0. -1.
         11   -1    0    0    0    0 -0.00000000000E+00 -0.00000000000E+00 -0.45593999997E+02  0.45594000000E+02  0.51100000000E-03 0.  1.
    9900012    2    1    2    0    0 -0.24590210256E+02  0.13027847112E+02 -0.35421890013E+02  0.46142317267E+02  0.99999954940E+01 0.  0.
         12    1    1    2    0    0  0.24590210256E+02 -0.13027847112E+02  0.35421890013E+02  0.45045682733E+02  0.00000000000E+00 0. -1.
         11    1    3    3    0    0 -0.17781034599E+02  0.57965780861E+01 -0.18841148036E+02  0.26547210183E+02  0.51100000000E-03 0. -1.
        -11    1    3    3    0    0 -0.30210211925E+01  0.12766293882E+01 -0.40269168939E+01  0.51934970465E+01  0.51100000000E-03 0.  1.
         12    1    3    3    0    0 -0.37881544644E+01  0.59546396377E+01 -0.12553825083E+02  0.14401610038E+02  0.00000000000E+00 0. -1.
</event>
<event>
 7    1  0.5743890E-009  0.4614232E+02  0.7816164E-02  0.1320468E+00
        -11   -1    0    0    0    0  0.00000000000E+00  0.00000000000E+00  0.45593999997E+02  0.45594000000E+02  0.51100000000E-03 0. -1.
         11   -1    0    0    0    0 -0.00000000000E+00 -0.00000000000E+00 -0.45593999997E+02  0.45594000000E+02  0.51100000000E-03 0.  1.
    9900012    2    1    2    0    0  0.23649014738E+01  0.33702344593E+02  0.29793839670E+02  0.46142315719E+02  0.99999813829E+01 0.  0.
        -12    1    1    2    0    0 -0.23649014738E+01 -0.33702344593E+02 -0.29793839670E+02  0.45045684281E+02  0.00000000000E+00 0.  1.
         11    1    3    3    0    0  0.12069817301E+01  0.11027345193E+02  0.93351126723E+01  0.14498395627E+02  0.51100000000E-03 0. -1.
        -11    1    3    3    0    0  0.23174658154E+01  0.20393919360E+02  0.14416621670E+02  0.25082296053E+02  0.51100000000E-03 0.  1.
         12    1    3    3    0    0 -0.11595460717E+01  0.22810800399E+01  0.60421053273E+01  0.65616240388E+01  0.00000000000E+00 0. -1.
</event>
<event>
 7    1  0.5743890E-009  0.4614232E+02  0.7816164E-02  0.1320468E+00
        -11   -1    0    0    0    0  0.00000000000E+00  0.00000000000E+00  0.45593999997E+02  0.45594000000E+02  0.51100000000E-03 0. -1.
         11   -1    0    0    0    0 -0.00000000000E+00 -0.00000000000E+00 -0.45593999997E+02  0.45594000000E+02  0.51100000000E-03 0.  1.
    9900012    2    1    2    0    0  0.21890797194E+02 -0.11911987752E+00  0.39368671810E+02  0.46142317505E+02  0.99999976662E+01 0.  0.
        -12    1    1    2    0    0 -0.21890797194E+02  0.11911987752E+00 -0.39368671810E+02  0.45045682495E+02  0.00000000000E+00 0.  1.
         11    1    3    3    0    0  0.98559929059E+01 -0.23353982548E+01  0.12778889308E+02  0.16306277729E+02  0.51100000000E-03 0. -1.
        -11    1    3    3    0    0  0.32765945394E+01  0.22034196394E+01  0.13659714851E+02  0.14218964095E+02  0.51100000000E-03 0.  1.
        -12    1    3    3    0    0  0.87582097483E+01  0.12858737916E-01  0.12930067651E+02  0.15617075681E+02  0.00000000000E+00 0.  1.
</event>
<event>
 7    1  0.5743890E-009  0.4614232E+02  0.7816164E-02  0.1320468E+00
        -11   -1    0    0    0    0  0.00000000000E+00  0.00000000000E+00  0.45593999997E+02  0.45594000000E+02  0.51100000000E-03 0. -1.
         11   -1    0    0    0    0 -0.00000000000E+00 -0.00000000000E+00 -0.45593999997E+02  0.45594000000E+02  0.51100000000E-03 0.  1.
    9900012    2    1    2    0    0  0.34392395810E+02  0.35600899450E+00 -0.29088654158E+02  0.46142318379E+02  0.10000005634E+02 0.  0.
         12    1    1    2    0    0 -0.34392395810E+02 -0.35600899450E+00  0.29088654158E+02  0.45045681621E+02  0.00000000000E+00 0. -1.
         11    1    3    3    0    0  0.11658467756E+02  0.41118823009E+00 -0.90820836439E+01  0.14784220972E+02  0.51100000000E-03 0. -1.
        -11    1    3    3    0    0  0.17024397965E+02 -0.30880220907E+01 -0.16896678514E+02  0.24183956491E+02  0.51100000000E-03 0.  1.
         12    1    3    3    0    0  0.57095300896E+01  0.30328428551E+01 -0.31098920004E+01  0.71741409160E+01  0.00000000000E+00 0. -1.
</event>
<event>
 7    1  0.5743890E-009  0.4614232E+02  0.7816164E-02  0.1320468E+00
        -11   -1    0    0    0    0  0.00000000000E+00  0.00000000000E+00  0.45593999997E+02  0.45594000000E+02  0.51100000000E-03 0. -1.
         11   -1    0    0    0    0 -0.00000000000E+00 -0.00000000000E+00 -0.45593999997E+02  0.45594000000E+02  0.51100000000E-03 0.  1.
    9900012    2    1    2    0    0 -0.23867161122E+02  0.13371800752E+02  0.35786408090E+02  0.46142318305E+02  0.10000004956E+02 0.  0.
        -12    1    1    2    0    0  0.23867161122E+02 -0.13371800752E+02 -0.35786408090E+02  0.45045681695E+02  0.00000000000E+00 0.  1.
         11    1    3    3    0    0 -0.10725095229E+02  0.74405615707E+01  0.14947118269E+02  0.19844545068E+02  0.51100000000E-03 0. -1.
        -11    1    3    3    0    0 -0.77606023193E+01  0.14480149045E+01  0.15821229711E+02  0.17681487645E+02  0.51100000000E-03 0.  1.
        -12    1    3    3    0    0 -0.53814635747E+01  0.44832242767E+01  0.50180601108E+01  0.86162855916E+01  0.00000000000E+00 0.  1.
</event>
<event>
 7    1  0.5743890E-009  0.4614232E+02  0.7816164E-02  0.1320468E+00
        -11   -1    0    0    0    0  0.00000000000E+00  0.00000000000E+00  0.45593999997E+02  0.45594000000E+02  0.51100000000E-03 0. -1.
         11   -1    0    0    0    0 -0.00000000000E+00 -0.00000000000E+00 -0.45593999997E+02  0.45594000000E+02  0.51100000000E-03 0.  1.
    9900012    2    1    2    0    0 -0.11292899619E+02 -0.20469351040E+02  0.38504406033E+02  0.46142320987E+02  0.10000029413E+02 0.  0.
        -12    1    1    2    0    0  0.11292899619E+02  0.20469351040E+02 -0.38504406033E+02  0.45045679013E+02  0.00000000000E+00 0.  1.
         11    1    3    3    0    0  0.26586982967E+00 -0.23375653495E+01  0.65787289396E+01  0.69867426782E+01  0.51100000000E-03 0. -1.
        -11    1    3    3    0    0 -0.47458119450E+01 -0.87904951676E+01  0.88527797216E+01  0.13347930378E+02  0.51100000000E-03 0.  1.
         12    1    3    3    0    0 -0.68129575034E+01 -0.93412905233E+01  0.23072897372E+02  0.25807647931E+02  0.00000000000E+00 0. -1.
</event>
<event>
 7    1  0.5743890E-009  0.4614231E+02  0.7816164E-02  0.1320468E+00
        -11   -1    0    0    0    0  0.00000000000E+00  0.00000000000E+00  0.45593999997E+02  0.45594000000E+02  0.51100000000E-03 0. -1.
         11   -1    0    0    0    0 -0.00000000000E+00 -0.00000000000E+00 -0.45593999997E+02  0.45594000000E+02  0.51100000000E-03 0.  1.
    9900012    2    1    2    0    0  0.11741818622E+02 -0.28009803737E+02  0.33267019592E+02  0.46142312055E+02  0.99999479675E+01 0.  0.
        -12    1    1    2    0    0 -0.11741818622E+02  0.28009803737E+02 -0.33267019592E+02  0.45045687945E+02  0.00000000000E+00 0.  1.
         11    1    3    3    0    0  0.22761631141E+01 -0.68265475189E+00  0.24102531387E+01  0.33847092173E+01  0.51100000000E-03 0. -1.
        -11    1    3    3    0    0  0.97124670698E+01 -0.22767353809E+02  0.23707035325E+02  0.34274012607E+02  0.51100000000E-03 0.  1.
        -12    1    3    3    0    0 -0.24681156174E+00 -0.45597951753E+01  0.71497311285E+01  0.84835902304E+01  0.00000000000E+00 0.  1.
</event>
<event>
 7    1  0.5743890E-009  0.4614232E+02  0.7816164E-02  0.1320468E+00
        -11   -1    0    0    0    0  0.00000000000E+00  0.00000000000E+00  0.45593999997E+02  0.45594000000E+02  0.51100000000E-03 0. -1.
         11   -1    0    0    0    0 -0.00000000000E+00 -0.00000000000E+00 -0.45593999997E+02  0.45594000000E+02  0.51100000000E-03 0.  1.
    9900012    2    1    2    0    0  0.21031800445E+02 -0.34065874262E+02  0.20646866108E+02  0.46142317639E+02  0.99999988901E+01 0.  0.
        -12    1    1    2    0    0 -0.21031800445E+02  0.34065874262E+02 -0.20646866108E+02  0.45045682361E+02  0.00000000000E+00 0.  1.
         11    1    3    3    0    0  0.12756426696E+02 -0.17064183205E+02  0.11786424866E+02  0.24348153563E+02  0.51100000000E-03 0. -1.
        -11    1    3    3    0    0  0.20953031096E+01 -0.10289949913E+02  0.65713882248E+01  0.12387756367E+02  0.51100000000E-03 0.  1.
         12    1    3    3    0    0  0.61800706394E+01 -0.67117411439E+01  0.22890530171E+01  0.94064077099E+01  0.00000000000E+00 0. -1.
</event>
<event>
 7    1  0.5743890E-009  0.4614232E+02  0.7816164E-02  0.1320468E+00
        -11   -1    0    0    0    0  0.00000000000E+00  0.00000000000E+00  0.45593999997E+02  0.45594000000E+02  0.51100000000E-03 0. -1.
         11   -1    0    0    0    0 -0.00000000000E+00 -0.00000000000E+00 -0.45593999997E+02  0.45594000000E+02  0.51100000000E-03 0.  1.
    9900012    2    1    2    0    0 -0.22577742451E+01  0.10108876743E+01  0.44977705782E+02  0.46142318122E+02  0.10000003292E+02 0.  0.
        -12    1    1    2    0    0  0.22577742451E+01 -0.10108876743E+01 -0.44977705782E+02  0.45045681878E+02  0.00000000000E+00 0.  1.
         11    1    3    3    0    0 -0.11756048654E+01  0.42992548273E+01  0.16169859785E+02  0.16772894938E+02  0.51100000000E-03 0. -1.
        -11    1    3    3    0    0 -0.16641169503E+01  0.60461737536E+00  0.81899165822E+01  0.83791157815E+01  0.51100000000E-03 0.  1.
         12    1    3    3    0    0  0.58194757070E+00 -0.38929845284E+01  0.20617929415E+02  0.20990307403E+02  0.00000000000E+00 0. -1.
</event>
<event>
 7    1  0.5743890E-009  0.4614232E+02  0.7816164E-02  0.1320468E+00
        -11   -1    0    0    0    0  0.00000000000E+00  0.00000000000E+00  0.45593999997E+02  0.45594000000E+02  0.51100000000E-03 0. -1.
         11   -1    0    0    0    0 -0.00000000000E+00 -0.00000000000E+00 -0.45593999997E+02  0.45594000000E+02  0.51100000000E-03 0.  1.
    9900012    2    1    2    0    0 -0.37388956178E+02  0.12443019346E+02  0.21825460741E+02  0.46142317509E+02  0.99999977041E+01 0.  0.
        -12    1    1    2    0    0  0.37388956178E+02 -0.12443019346E+02 -0.21825460741E+02  0.45045682491E+02  0.00000000000E+00 0.  1.
         11    1    3    3    0    0 -0.15635631278E+02  0.81521925049E+01  0.84374471175E+01  0.19547933963E+02  0.51100000000E-03 0. -1.
        -11    1    3    3    0    0 -0.28287839062E+00  0.11906467539E+01  0.11900416476E+01  0.17070030054E+01  0.51100000000E-03 0.  1.
        -12    1    3    3    0    0 -0.21470446509E+02  0.31001800874E+01  0.12197971976E+02  0.24887380541E+02  0.00000000000E+00 0.  1.
</event>
<event>
 7    1  0.5743890E-009  0.4614232E+02  0.7816164E-02  0.1320468E+00
        -11   -1    0    0    0    0  0.00000000000E+00  0.00000000000E+00  0.45593999997E+02  0.45594000000E+02  0.51100000000E-03 0. -1.
         11   -1    0    0    0    0 -0.00000000000E+00 -0.00000000000E+00 -0.45593999997E+02  0.45594000000E+02  0.51100000000E-03 0.  1.
    9900012    2    1    2    0    0 -0.20278007786E+02  0.34549972185E+02 -0.20596489863E+02  0.46142316828E+02  0.99999914938E+01 0.  0.
         12    1    1    2    0    0  0.20278007786E+02 -0.34549972185E+02  0.20596489863E+02  0.45045683172E+02  0.00000000000E+00 0. -1.
         11    1    3    3    0    0 -0.68865092541E+01  0.83291789786E+01 -0.56733720814E+01  0.12205997837E+02  0.51100000000E-03 0. -1.
        -11    1    3    3    0    0 -0.10696311647E+02  0.13324198187E+02 -0.64056408763E+01  0.18247673152E+02  0.51100000000E-03 0.  1.
         12    1    3    3    0    0 -0.26951868853E+01  0.12896595020E+02 -0.85174769049E+01  0.15688645839E+02  0.00000000000E+00 0. -1.
</event>
<event>
 7    1  0.5743890E-009  0.4614232E+02  0.7816164E-02  0.1320468E+00
        -11   -1    0    0    0    0  0.00000000000E+00  0.00000000000E+00  0.45593999997E+02  0.45594000000E+02  0.51100000000E-03 0. -1.
         11   -1    0    0    0    0 -0.00000000000E+00 -0.00000000000E+00 -0.45593999997E+02  0.45594000000E+02  0.51100000000E-03 0.  1.
    9900012    2    1    2    0    0 -0.23895506343E+02  0.10381727685E+02  0.36746945985E+02  0.46142317273E+02  0.99999955448E+01 0.  0.
        -12    1    1    2    0    0  0.23895506343E+02 -0.10381727685E+02 -0.36746945985E+02  0.45045682727E+02  0.00000000000E+00 0.  1.
         11    1    3    3    0    0 -0.42472744483E+01  0.60410830096E+01  0.96527830092E+01  0.12153610338E+02  0.51100000000E-03 0. -1.
        -11    1    3    3    0    0 -0.28915127651E+01  0.78637611684E+00  0.19894828185E+01  0.35968424506E+01  0.51100000000E-03 0.  1.
         12    1    3    3    0    0 -0.16756719130E+02  0.35542685590E+01  0.25104680158E+02  0.30391864484E+02  0.00000000000E+00 0. -1.
</event>
<event>
 7    1  0.5743890E-009  0.4614232E+02  0.7816164E-02  0.1320468E+00
        -11   -1    0    0    0    0  0.00000000000E+00  0.00000000000E+00  0.45593999997E+02  0.45594000000E+02  0.51100000000E-03 0. -1.
         11   -1    0    0    0    0 -0.00000000000E+00 -0.00000000000E+00 -0.45593999997E+02  0.45594000000E+02  0.51100000000E-03 0.  1.
    9900012    2    1    2    0    0  0.40131091167E+02 -0.29547411719E+01  0.20245451723E+02  0.46142319973E+02  0.10000020171E+02 0.  0.
        -12    1    1    2    0    0 -0.40131091167E+02  0.29547411719E+01 -0.20245451723E+02  0.45045680027E+02  0.00000000000E+00 0.  1.
         11    1    3    3    0    0  0.26314625155E+02 -0.26008791084E+01  0.12415556743E+02  0.29212499357E+02  0.51100000000E-03 0. -1.
        -11    1    3    3    0    0  0.31821547283E+01 -0.24495681032E+01  0.32372156685E+01  0.51581060625E+01  0.51100000000E-03 0.  1.
         12    1    3    3    0    0  0.10634311283E+02  0.20957060397E+01  0.45926793117E+01  0.11771714554E+02  0.00000000000E+00 0. -1.
</event>
<event>
 7    1  0.5743890E-009  0.4614232E+02  0.7816164E-02  0.1320468E+00
        -11   -1    0    0    0    0  0.00000000000E+00  0.00000000000E+00  0.45593999997E+02  0.45594000000E+02  0.51100000000E-03 0. -1.
         11   -1    0    0    0    0 -0.00000000000E+00 -0.00000000000E+00 -0.45593999997E+02  0.45594000000E+02  0.51100000000E-03 0.  1.
    9900012    2    1    2    0    0 -0.11421034313E+02 -0.16071697313E+02  0.40501530618E+02  0.46142318057E+02  0.10000002697E+02 0.  0.
        -12    1    1    2    0    0  0.11421034313E+02  0.16071697313E+02 -0.40501530618E+02  0.45045681943E+02  0.00000000000E+00 0.  1.
         11    1    3    3    0    0 -0.83360737303E+01 -0.16662001196E+02  0.35132921670E+02  0.39767255304E+02  0.51100000000E-03 0. -1.
        -11    1    3    3    0    0 -0.26169933738E+01  0.10168841294E+00  0.33889604416E+01  0.42829952122E+01  0.51100000000E-03 0.  1.
         12    1    3    3    0    0 -0.46796720913E+00  0.48861546943E+00  0.19796485062E+01  0.20920675405E+01  0.00000000000E+00 0. -1.
</event>
<event>
 7    1  0.5743890E-009  0.4614232E+02  0.7816164E-02  0.1320468E+00
        -11   -1    0    0    0    0  0.00000000000E+00  0.00000000000E+00  0.45593999997E+02  0.45594000000E+02  0.51100000000E-03 0. -1.
         11   -1    0    0    0    0 -0.00000000000E+00 -0.00000000000E+00 -0.45593999997E+02  0.45594000000E+02  0.51100000000E-03 0.  1.
    9900012    2    1    2    0    0 -0.37418320286E+02  0.25076471622E+02 -0.39162410944E+00  0.46142317727E+02  0.99999996866E+01 0.  0.
        -12    1    1    2    0    0  0.37418320286E+02 -0.25076471622E+02  0.39162410944E+00  0.45045682273E+02  0.00000000000E+00 0.  1.
         11    1    3    3    0    0 -0.32932122362E+01  0.27262331721E+01  0.76539295170E+00  0.43432039755E+01  0.51100000000E-03 0. -1.
        -11    1    3    3    0    0 -0.97399872534E+01  0.45082566249E+01  0.33634774408E+01  0.11247431273E+02  0.51100000000E-03 0.  1.
         12    1    3    3    0    0 -0.24385120796E+02  0.17841981825E+02 -0.45204945020E+01  0.30551682478E+02  0.00000000000E+00 0. -1.
</event>
<event>
 7    1  0.5743890E-009  0.4614232E+02  0.7816164E-02  0.1320468E+00
        -11   -1    0    0    0    0  0.00000000000E+00  0.00000000000E+00  0.45593999997E+02  0.45594000000E+02  0.51100000000E-03 0. -1.
         11   -1    0    0    0    0 -0.00000000000E+00 -0.00000000000E+00 -0.45593999997E+02  0.45594000000E+02  0.51100000000E-03 0.  1.
    9900012    2    1    2    0    0  0.27528721252E+02  0.28287583655E+02  0.21704737401E+02  0.46142317538E+02  0.99999979615E+01 0.  0.
        -12    1    1    2    0    0 -0.27528721252E+02 -0.28287583655E+02 -0.21704737401E+02  0.45045682462E+02  0.00000000000E+00 0.  1.
         11    1    3    3    0    0  0.22773719561E+02  0.25945343848E+02  0.16100654964E+02  0.38092443616E+02  0.51100000000E-03 0. -1.
        -11    1    3    3    0    0  0.44836029031E+01  0.26797319598E+01  0.46147575275E+01  0.69699100186E+01  0.51100000000E-03 0.  1.
        -12    1    3    3    0    0  0.27139878797E+00 -0.33749215301E+00  0.98932490977E+00  0.10799639034E+01  0.00000000000E+00 0.  1.
</event>
<event>
 7    1  0.5743890E-009  0.4614232E+02  0.7816164E-02  0.1320468E+00
        -11   -1    0    0    0    0  0.00000000000E+00  0.00000000000E+00  0.45593999997E+02  0.45594000000E+02  0.51100000000E-03 0. -1.
         11   -1    0    0    0    0 -0.00000000000E+00 -0.00000000000E+00 -0.45593999997E+02  0.45594000000E+02  0.51100000000E-03 0.  1.
    9900012    2    1    2    0    0  0.20778825793E+01 -0.38407354785E+02  0.23445063652E+02  0.46142317552E+02  0.99999980900E+01 0.  0.
        -12    1    1    2    0    0 -0.20778825793E+01  0.38407354785E+02 -0.23445063652E+02  0.45045682448E+02  0.00000000000E+00 0.  1.
         11    1    3    3    0    0  0.13257330005E+01 -0.19726091932E+02  0.85999066503E+01  0.21560024711E+02  0.51100000000E-03 0. -1.
        -11    1    3    3    0    0  0.89351459490E-02 -0.23574095582E+01 -0.20563412769E+00  0.23663781012E+01  0.51100000000E-03 0.  1.
         12    1    3    3    0    0  0.74321443289E+00 -0.16323853295E+02  0.15050791129E+02  0.22215914739E+02  0.00000000000E+00 0. -1.
</event>
<event>
 7    1  0.5743890E-009  0.4614232E+02  0.7816164E-02  0.1320468E+00
        -11   -1    0    0    0    0  0.00000000000E+00  0.00000000000E+00  0.45593999997E+02  0.45594000000E+02  0.51100000000E-03 0.  1.
         11   -1    0    0    0    0 -0.00000000000E+00 -0.00000000000E+00 -0.45593999997E+02  0.45594000000E+02  0.51100000000E-03 0. -1.
    9900012    2    1    2    0    0  0.37284892844E+02 -0.18817645942E+02  0.16877397266E+02  0.46142316837E+02  0.99999915712E+01 0.  0.
         12    1    1    2    0    0 -0.37284892844E+02  0.18817645942E+02 -0.16877397266E+02  0.45045683163E+02  0.00000000000E+00 0. -1.
         11    1    3    3    0    0  0.22830183913E+02 -0.89352286497E+01  0.98644449030E+01  0.26426556379E+02  0.51100000000E-03 0.  1.
        -11    1    3    3    0    0  0.10350699407E+02 -0.37454284092E+01  0.35906969735E+01  0.11578355548E+02  0.51100000000E-03 0. -1.
         12    1    3    3    0    0  0.41040095238E+01 -0.61369888828E+01  0.34222553893E+01  0.81374049099E+01  0.00000000000E+00 0. -1.
</event>
<event>
 7    1  0.5743890E-009  0.4614232E+02  0.7816164E-02  0.1320468E+00
        -11   -1    0    0    0    0  0.00000000000E+00  0.00000000000E+00  0.45593999997E+02  0.45594000000E+02  0.51100000000E-03 0. -1.
         11   -1    0    0    0    0 -0.00000000000E+00 -0.00000000000E+00 -0.45593999997E+02  0.45594000000E+02  0.51100000000E-03 0.  1.
    9900012    2    1    2    0    0 -0.24848814252E+02  0.23132218125E+01  0.37500652818E+02  0.46142317336E+02  0.99999961200E+01 0.  0.
        -12    1    1    2    0    0  0.24848814252E+02 -0.23132218125E+01 -0.37500652818E+02  0.45045682664E+02  0.00000000000E+00 0.  1.
         11    1    3    3    0    0 -0.13425922818E+01 -0.28669119345E+00  0.57996481418E+01  0.59599215352E+01  0.51100000000E-03 0. -1.
        -11    1    3    3    0    0 -0.66463386924E+01 -0.22299466640E+01  0.71783674451E+01  0.10033715143E+02  0.51100000000E-03 0.  1.
         12    1    3    3    0    0 -0.16859883278E+02  0.48298596699E+01  0.24522637232E+02  0.30148680657E+02  0.00000000000E+00 0. -1.
</event>
<event>
 7    1  0.5743890E-009  0.4614232E+02  0.7816164E-02  0.1320468E+00
        -11   -1    0    0    0    0  0.00000000000E+00  0.00000000000E+00  0.45593999997E+02  0.45594000000E+02  0.51100000000E-03 0. -1.
         11   -1    0    0    0    0 -0.00000000000E+00 -0.00000000000E+00 -0.45593999997E+02  0.45594000000E+02  0.51100000000E-03 0.  1.
    9900012    2    1    2    0    0  0.15406621865E+02  0.98694192873E+01  0.41162411170E+02  0.46142317325E+02  0.99999960215E+01 0.  0.
        -12    1    1    2    0    0 -0.15406621865E+02 -0.98694192873E+01 -0.41162411170E+02  0.45045682675E+02  0.00000000000E+00 0.  1.
         11    1    3    3    0    0  0.39049369227E+01  0.68661268207E+01  0.12773269559E+02  0.15018277044E+02  0.51100000000E-03 0. -1.
        -11    1    3    3    0    0  0.10771320982E+02  0.16392093420E+01  0.21998845143E+02  0.24549084522E+02  0.51100000000E-03 0.  1.
        -12    1    3    3    0    0  0.73036396031E+00  0.13640831245E+01  0.63902964676E+01  0.65749557587E+01  0.00000000000E+00 0.  1.
</event>
<event>
 7    1  0.5743890E-009  0.4614232E+02  0.7816164E-02  0.1320468E+00
        -11   -1    0    0    0    0  0.00000000000E+00  0.00000000000E+00  0.45593999997E+02  0.45594000000E+02  0.51100000000E-03 0. -1.
         11   -1    0    0    0    0 -0.00000000000E+00 -0.00000000000E+00 -0.45593999997E+02  0.45594000000E+02  0.51100000000E-03 0.  1.
    9900012    2    1    2    0    0 -0.14152046598E+02 -0.43615324700E+01 -0.42541861181E+02  0.46142319395E+02  0.10000014898E+02 0.  0.
         12    1    1    2    0    0  0.14152046598E+02  0.43615324700E+01  0.42541861181E+02  0.45045680605E+02  0.00000000000E+00 0. -1.
         11    1    3    3    0    0 -0.84448325631E+01  0.52343464361E+00 -0.17942078127E+02  0.19837019650E+02  0.51100000000E-03 0. -1.
        -11    1    3    3    0    0  0.25311879564E-01  0.98302534274E+00 -0.15139013944E+01  0.18052360535E+01  0.51100000000E-03 0.  1.
        -12    1    3    3    0    0 -0.57325259145E+01 -0.58679924563E+01 -0.23085881661E+02  0.24500063691E+02  0.00000000000E+00 0.  1.
</event>
<event>
 7    1  0.5743890E-009  0.4614232E+02  0.7816164E-02  0.1320468E+00
        -11   -1    0    0    0    0  0.00000000000E+00  0.00000000000E+00  0.45593999997E+02  0.45594000000E+02  0.51100000000E-03 0. -1.
         11   -1    0    0    0    0 -0.00000000000E+00 -0.00000000000E+00 -0.45593999997E+02  0.45594000000E+02  0.51100000000E-03 0.  1.
    9900012    2    1    2    0    0 -0.26439802034E+02 -0.26869904620E+02  0.24658834318E+02  0.46142323006E+02  0.10000047829E+02 0.  0.
        -12    1    1    2    0    0  0.26439802034E+02  0.26869904620E+02 -0.24658834318E+02  0.45045676994E+02  0.00000000000E+00 0.  1.
         11    1    3    3    0    0 -0.10087049494E+02 -0.67191700210E+01  0.12145129970E+02  0.17158088341E+02  0.51100000000E-03 0. -1.
        -11    1    3    3    0    0 -0.88586812088E+01 -0.12087041448E+02  0.56733148531E+01  0.16023710725E+02  0.51100000000E-03 0.  1.
         12    1    3    3    0    0 -0.74940713316E+01 -0.80636931516E+01  0.68403894950E+01  0.12960523940E+02  0.00000000000E+00 0. -1.
</event>
<event>
 7    1  0.5743890E-009  0.4614232E+02  0.7816164E-02  0.1320468E+00
        -11   -1    0    0    0    0  0.00000000000E+00  0.00000000000E+00  0.45593999997E+02  0.45594000000E+02  0.51100000000E-03 0. -1.
         11   -1    0    0    0    0 -0.00000000000E+00 -0.00000000000E+00 -0.45593999997E+02  0.45594000000E+02  0.51100000000E-03 0.  1.
    9900012    2    1    2    0    0  0.24914702439E+02  0.58014419359E+01  0.37077138383E+02  0.46142319665E+02  0.10000017361E+02 0.  0.
        -12    1    1    2    0    0 -0.24914702439E+02 -0.58014419359E+01 -0.37077138383E+02  0.45045680335E+02  0.00000000000E+00 0.  1.
         11    1    3    3    0    0  0.20034540076E+02  0.59803888775E+01  0.28918289918E+02  0.35684945554E+02  0.51100000000E-03 0. -1.
        -11    1    3    3    0    0  0.18254637069E+01  0.19753069732E+01  0.43957614981E+01  0.51533362779E+01  0.51100000000E-03 0.  1.
         12    1    3    3    0    0  0.30546986557E+01 -0.21542539147E+01  0.37630869677E+01  0.53040378329E+01  0.00000000000E+00 0. -1.
</event>
<event>
 7    1  0.5743890E-009  0.4614232E+02  0.7816164E-02  0.1320468E+00
        -11   -1    0    0    0    0  0.00000000000E+00  0.00000000000E+00  0.45593999997E+02  0.45594000000E+02  0.51100000000E-03 0. -1.
         11   -1    0    0    0    0 -0.00000000000E+00 -0.00000000000E+00 -0.45593999997E+02  0.45594000000E+02  0.51100000000E-03 0.  1.
    9900012    2    1    2    0    0  0.27862243178E+02  0.61786967812E+01  0.34851579594E+02  0.46142317754E+02  0.99999999344E+01 0.  0.
        -12    1    1    2    0    0 -0.27862243178E+02 -0.61786967812E+01 -0.34851579594E+02  0.45045682246E+02  0.00000000000E+00 0.  1.
         11    1    3    3    0    0  0.73261016210E+01  0.13485017770E+01  0.10348147353E+02  0.12750465713E+02  0.51100000000E-03 0. -1.
        -11    1    3    3    0    0  0.13937529174E+02 -0.41340707981E+00  0.17869272094E+02  0.22665756337E+02  0.51100000000E-03 0.  1.
        -12    1    3    3    0    0  0.65986123827E+01  0.52436020840E+01  0.66341601477E+01  0.10726095704E+02  0.00000000000E+00 0.  1.
</event>
<event>
 7    1  0.5743890E-009  0.4614232E+02  0.7816164E-02  0.1320468E+00
        -11   -1    0    0    0    0  0.00000000000E+00  0.00000000000E+00  0.45593999997E+02  0.45594000000E+02  0.51100000000E-03 0. -1.
         11   -1    0    0    0    0 -0.00000000000E+00 -0.00000000000E+00 -0.45593999997E+02  0.45594000000E+02  0.51100000000E-03 0.  1.
    9900012    2    1    2    0    0  0.18906429743E+02 -0.26444191211E+02 -0.31182770534E+02  0.46142317492E+02  0.99999975465E+01 0.  0.
         12    1    1    2    0    0 -0.18906429743E+02  0.26444191211E+02  0.31182770534E+02  0.45045682508E+02  0.00000000000E+00 0. -1.
         11    1    3    3    0    0  0.46276787497E+01 -0.57423558014E+01 -0.54149319197E+01  0.91494015497E+01  0.51100000000E-03 0. -1.
        -11    1    3    3    0    0  0.12419792050E+02 -0.11413840494E+02 -0.14258125701E+02  0.22086673316E+02  0.51100000000E-03 0.  1.
        -12    1    3    3    0    0  0.18589589438E+01 -0.92879949149E+01 -0.11509712914E+02  0.14906242627E+02  0.00000000000E+00 0.  1.
</event>
<event>
 7    1  0.5743890E-009  0.4614232E+02  0.7816164E-02  0.1320468E+00
        -11   -1    0    0    0    0  0.00000000000E+00  0.00000000000E+00  0.45593999997E+02  0.45594000000E+02  0.51100000000E-03 0. -1.
         11   -1    0    0    0    0 -0.00000000000E+00 -0.00000000000E+00 -0.45593999997E+02  0.45594000000E+02  0.51100000000E-03 0.  1.
    9900012    2    1    2    0    0  0.79813089935E+01 -0.10212242144E+02  0.43140727300E+02  0.46142317245E+02  0.99999952949E+01 0.  0.
        -12    1    1    2    0    0 -0.79813089935E+01  0.10212242144E+02 -0.43140727300E+02  0.45045682755E+02  0.00000000000E+00 0.  1.
         11    1    3    3    0    0  0.16584151410E+01 -0.90093421908E+00  0.11323671490E+01  0.22009722553E+01  0.51100000000E-03 0. -1.
        -11    1    3    3    0    0  0.62455148124E+01 -0.36626498399E+01  0.23532788015E+02  0.24621404736E+02  0.51100000000E-03 0.  1.
         12    1    3    3    0    0  0.77379040055E-01 -0.56486580849E+01  0.18475572136E+02  0.19319940254E+02  0.00000000000E+00 0. -1.
</event>
<event>
 7    1  0.5743890E-009  0.4614232E+02  0.7816164E-02  0.1320468E+00
        -11   -1    0    0    0    0  0.00000000000E+00  0.00000000000E+00  0.45593999997E+02  0.45594000000E+02  0.51100000000E-03 0. -1.
         11   -1    0    0    0    0 -0.00000000000E+00 -0.00000000000E+00 -0.45593999997E+02  0.45594000000E+02  0.51100000000E-03 0.  1.
    9900012    2    1    2    0    0  0.46037476495E+01 -0.37231508804E+02 -0.24934586381E+02  0.46142319428E+02  0.10000015198E+02 0.  0.
         12    1    1    2    0    0 -0.46037476495E+01  0.37231508804E+02  0.24934586381E+02  0.45045680572E+02  0.00000000000E+00 0. -1.
         11    1    3    3    0    0 -0.84249062744E+00 -0.77901736813E+01 -0.86035727828E+01  0.11636926627E+02  0.51100000000E-03 0. -1.
        -11    1    3    3    0    0 -0.48304628608E+00 -0.43567770880E+01 -0.39903911452E+01  0.59277366728E+01  0.51100000000E-03 0.  1.
        -12    1    3    3    0    0  0.59292845630E+01 -0.25084558035E+02 -0.12340622453E+02  0.28577656128E+02  0.00000000000E+00 0.  1.
</event>
<event>
 7    1  0.5743890E-009  0.4614232E+02  0.7816164E-02  0.1320468E+00
        -11   -1    0    0    0    0  0.00000000000E+00  0.00000000000E+00  0.45593999997E+02  0.45594000000E+02  0.51100000000E-03 0. -1.
         11   -1    0    0    0    0 -0.00000000000E+00 -0.00000000000E+00 -0.45593999997E+02  0.45594000000E+02  0.51100000000E-03 0.  1.
    9900012    2    1    2    0    0 -0.81265141858E+01  0.26519027776E+02 -0.35493864352E+02  0.46142317924E+02  0.10000001490E+02 0.  0.
         12    1    1    2    0    0  0.81265141858E+01 -0.26519027776E+02  0.35493864352E+02  0.45045682076E+02  0.00000000000E+00 0. -1.
         11    1    3    3    0    0 -0.96098246124E+00  0.53736478809E+01 -0.11197422339E+02  0.12457200573E+02  0.51100000000E-03 0. -1.
        -11    1    3    3    0    0 -0.78413495619E+01  0.20927235180E+02 -0.22320561962E+02  0.31585493851E+02  0.51100000000E-03 0.  1.
        -12    1    3    3    0    0  0.67581783732E+00  0.21814471546E+00 -0.19758800511E+01  0.20996235002E+01  0.00000000000E+00 0.  1.
</event>
<event>
 7    1  0.5743890E-009  0.4614232E+02  0.7816164E-02  0.1320468E+00
        -11   -1    0    0    0    0  0.00000000000E+00  0.00000000000E+00  0.45593999997E+02  0.45594000000E+02  0.51100000000E-03 0. -1.
         11   -1    0    0    0    0 -0.00000000000E+00 -0.00000000000E+00 -0.45593999997E+02  0.45594000000E+02  0.51100000000E-03 0.  1.
    9900012    2    1    2    0    0  0.33691366483E+02  0.62415287915E+01 -0.29241215487E+02  0.46142317185E+02  0.99999947421E+01 0.  0.
         12    1    1    2    0    0 -0.33691366483E+02 -0.62415287915E+01  0.29241215487E+02  0.45045682815E+02  0.00000000000E+00 0. -1.
         11    1    3    3    0    0  0.13852283847E+02 -0.19478715250E+01 -0.12291670116E+02  0.18621630588E+02  0.51100000000E-03 0. -1.
        -11    1    3    3    0    0  0.85551368392E+00  0.45189048070E+00 -0.17536456832E+01  0.20028435070E+01  0.51100000000E-03 0.  1.
        -12    1    3    3    0    0  0.18983568952E+02  0.77375098357E+01 -0.15195899688E+02  0.25517843090E+02  0.00000000000E+00 0.  1.
</event>
<event>
 7    1  0.5743890E-009  0.4614232E+02  0.7816164E-02  0.1320468E+00
        -11   -1    0    0    0    0  0.00000000000E+00  0.00000000000E+00  0.45593999997E+02  0.45594000000E+02  0.51100000000E-03 0. -1.
         11   -1    0    0    0    0 -0.00000000000E+00 -0.00000000000E+00 -0.45593999997E+02  0.45594000000E+02  0.51100000000E-03 0.  1.
    9900012    2    1    2    0    0  0.83960266126E+01 -0.21176201396E+02  0.38861145142E+02  0.46142319073E+02  0.10000011965E+02 0.  0.
        -12    1    1    2    0    0 -0.83960266126E+01  0.21176201396E+02 -0.38861145142E+02  0.45045680927E+02  0.00000000000E+00 0.  1.
         11    1    3    3    0    0  0.51342049171E+00 -0.47229864712E-01  0.10873969024E+01  0.12034382186E+01  0.51100000000E-03 0. -1.
        -11    1    3    3    0    0  0.42080254987E+01 -0.25498405943E+01  0.11876213074E+02  0.12855100268E+02  0.51100000000E-03 0.  1.
         12    1    3    3    0    0  0.36745806221E+01 -0.18579130937E+02  0.25897535165E+02  0.32083780587E+02  0.00000000000E+00 0. -1.
</event>
<event>
 7    1  0.5743890E-009  0.4614232E+02  0.7816164E-02  0.1320468E+00
        -11   -1    0    0    0    0  0.00000000000E+00  0.00000000000E+00  0.45593999997E+02  0.45594000000E+02  0.51100000000E-03 0. -1.
         11   -1    0    0    0    0 -0.00000000000E+00 -0.00000000000E+00 -0.45593999997E+02  0.45594000000E+02  0.51100000000E-03 0.  1.
    9900012    2    1    2    0    0 -0.28142242441E+02  0.22744264795E+02 -0.26829574823E+02  0.46142317900E+02  0.10000001266E+02 0.  0.
         12    1    1    2    0    0  0.28142242441E+02 -0.22744264795E+02  0.26829574823E+02  0.45045682100E+02  0.00000000000E+00 0. -1.
         11    1    3    3    0    0 -0.80087112349E+01  0.43530454034E+01 -0.48855000564E+01  0.10341980999E+02  0.51100000000E-03 0. -1.
        -11    1    3    3    0    0 -0.19741877013E+02  0.17413130753E+02 -0.22481516654E+02  0.34617588332E+02  0.51100000000E-03 0.  1.
         12    1    3    3    0    0 -0.39165419317E+00  0.97808863943E+00  0.53744188775E+00  0.11827485685E+01  0.00000000000E+00 0. -1.
</event>
<event>
 7    1  0.5743890E-009  0.4614232E+02  0.7816164E-02  0.1320468E+00
        -11   -1    0    0    0    0  0.00000000000E+00  0.00000000000E+00  0.45593999997E+02  0.45594000000E+02  0.51100000000E-03 0. -1.
         11   -1    0    0    0    0 -0.00000000000E+00 -0.00000000000E+00 -0.45593999997E+02  0.45594000000E+02  0.51100000000E-03 0.  1.
    9900012    2    1    2    0    0  0.19042091952E+02  0.34552401134E+02  0.21740371515E+02  0.46142318258E+02  0.10000004529E+02 0.  0.
        -12    1    1    2    0    0 -0.19042091952E+02 -0.34552401134E+02 -0.21740371515E+02  0.45045681742E+02  0.00000000000E+00 0.  1.
         11    1    3    3    0    0  0.28780245015E+01  0.51813511467E+01  0.12684596172E+01  0.60612222198E+01  0.51100000000E-03 0. -1.
        -11    1    3    3    0    0 -0.74614145322E+00  0.24353145781E+01  0.73613974332E+00  0.26512989544E+01  0.51100000000E-03 0.  1.
        -12    1    3    3    0    0  0.16910208904E+02  0.26935735409E+02  0.19735772154E+02  0.37429797084E+02  0.00000000000E+00 0.  1.
</event>
<event>
 7    1  0.5743890E-009  0.4614232E+02  0.7816164E-02  0.1320468E+00
        -11   -1    0    0    0    0  0.00000000000E+00  0.00000000000E+00  0.45593999997E+02  0.45594000000E+02  0.51100000000E-03 0. -1.
         11   -1    0    0    0    0 -0.00000000000E+00 -0.00000000000E+00 -0.45593999997E+02  0.45594000000E+02  0.51100000000E-03 0.  1.
    9900012    2    1    2    0    0 -0.10645798135E+02 -0.52095097047E+01 -0.43458503168E+02  0.46142317555E+02  0.99999981227E+01 0.  0.
         12    1    1    2    0    0  0.10645798135E+02  0.52095097047E+01  0.43458503168E+02  0.45045682445E+02  0.00000000000E+00 0. -1.
         11    1    3    3    0    0  0.10758671086E+01 -0.66916141060E+00 -0.11956799357E+02  0.12023739775E+02  0.51100000000E-03 0. -1.
        -11    1    3    3    0    0 -0.98382760058E+00  0.43072895139E+00 -0.46987045479E+01  0.48198826611E+01  0.51100000000E-03 0.  1.
        -12    1    3    3    0    0 -0.10737837643E+02 -0.49710772455E+01 -0.26802999263E+02  0.29298695120E+02  0.00000000000E+00 0.  1.
</event>
<event>
 7    1  0.5743890E-009  0.4614232E+02  0.7816164E-02  0.1320468E+00
        -11   -1    0    0    0    0  0.00000000000E+00  0.00000000000E+00  0.45593999997E+02  0.45594000000E+02  0.51100000000E-03 0. -1.
         11   -1    0    0    0    0 -0.00000000000E+00 -0.00000000000E+00 -0.45593999997E+02  0.45594000000E+02  0.51100000000E-03 0.  1.
    9900012    2    1    2    0    0 -0.96851705546E+01  0.18041992964E+02 -0.40122282002E+02  0.46142317057E+02  0.99999935754E+01 0.  0.
         12    1    1    2    0    0  0.96851705546E+01 -0.18041992964E+02  0.40122282002E+02  0.45045682943E+02  0.00000000000E+00 0. -1.
         11    1    3    3    0    0 -0.67526711471E+01  0.10047305321E+02 -0.14952220348E+02  0.19238394045E+02  0.51100000000E-03 0. -1.
        -11    1    3    3    0    0 -0.22518323776E+01  0.81844120896E+01 -0.24504926381E+02  0.25933506656E+02  0.51100000000E-03 0.  1.
         12    1    3    3    0    0 -0.68066702992E+00 -0.18972444605E+00 -0.66513527327E+00  0.97041635538E+00  0.00000000000E+00 0. -1.
</event>
<event>
 7    1  0.5743890E-009  0.4614232E+02  0.7816164E-02  0.1320468E+00
        -11   -1    0    0    0    0  0.00000000000E+00  0.00000000000E+00  0.45593999997E+02  0.45594000000E+02  0.51100000000E-03 0.  1.
         11   -1    0    0    0    0 -0.00000000000E+00 -0.00000000000E+00 -0.45593999997E+02  0.45594000000E+02  0.51100000000E-03 0. -1.
    9900012    2    1    2    0    0  0.38304848695E+02 -0.12109773670E+02  0.20376589643E+02  0.46142318105E+02  0.10000003138E+02 0.  0.
        -12    1    1    2    0    0 -0.38304848695E+02  0.12109773670E+02 -0.20376589643E+02  0.45045681895E+02  0.00000000000E+00 0.  1.
         11    1    3    3    0    0  0.14574101746E+02 -0.69399824832E+01  0.54019739490E+01  0.17022018722E+02  0.51100000000E-03 0. -1.
        -11    1    3    3    0    0  0.22539234874E+01 -0.23498460780E+00 -0.33065777752E+00  0.22901361706E+01  0.51100000000E-03 0.  1.
         12    1    3    3    0    0  0.21476823461E+02 -0.49348065791E+01  0.15305273472E+02  0.26830163212E+02  0.00000000000E+00 0. -1.
</event>
<event>
 7    1  0.5743890E-009  0.4614232E+02  0.7816164E-02  0.1320468E+00
        -11   -1    0    0    0    0  0.00000000000E+00  0.00000000000E+00  0.45593999997E+02  0.45594000000E+02  0.51100000000E-03 0. -1.
         11   -1    0    0    0    0 -0.00000000000E+00 -0.00000000000E+00 -0.45593999997E+02  0.45594000000E+02  0.51100000000E-03 0.  1.
    9900012    2    1    2    0    0 -0.14669455889E+01  0.24307990514E+02  0.37895687206E+02  0.46142318286E+02  0.10000004790E+02 0.  0.
        -12    1    1    2    0    0  0.14669455889E+01 -0.24307990514E+02 -0.37895687206E+02  0.45045681714E+02  0.00000000000E+00 0.  1.
         11    1    3    3    0    0  0.39097486387E+01  0.10750255452E+02  0.18171120288E+02  0.21471929105E+02  0.51100000000E-03 0. -1.
        -11    1    3    3    0    0 -0.14484912786E+01  0.59440094725E+01  0.98703007274E+01  0.11612588527E+02  0.51100000000E-03 0.  1.
         12    1    3    3    0    0 -0.39282029491E+01  0.76137255895E+01  0.98542661909E+01  0.13057800654E+02  0.00000000000E+00 0. -1.
</event>
<event>
 7    1  0.5743890E-009  0.4614232E+02  0.7816164E-02  0.1320468E+00
        -11   -1    0    0    0    0  0.00000000000E+00  0.00000000000E+00  0.45593999997E+02  0.45594000000E+02  0.51100000000E-03 0. -1.
         11   -1    0    0    0    0 -0.00000000000E+00 -0.00000000000E+00 -0.45593999997E+02  0.45594000000E+02  0.51100000000E-03 0.  1.
    9900012    2    1    2    0    0 -0.42610229228E+02  0.29204561779E+01 -0.14316171391E+02  0.46142318049E+02  0.10000002624E+02 0.  0.
         12    1    1    2    0    0  0.42610229228E+02 -0.29204561779E+01  0.14316171391E+02  0.45045681951E+02  0.00000000000E+00 0. -1.
         11    1    3    3    0    0 -0.16063850373E+01  0.16761750121E+01  0.27838946781E+00  0.23382763986E+01  0.51100000000E-03 0. -1.
        -11    1    3    3    0    0 -0.82792222619E+01  0.12214031888E+01 -0.47877106494E+01  0.96415517700E+01  0.51100000000E-03 0.  1.
        -12    1    3    3    0    0 -0.32724621929E+02  0.22877977025E-01 -0.98068502090E+01  0.34162489880E+02  0.00000000000E+00 0.  1.
</event>
<event>
 7    1  0.5743890E-009  0.4614232E+02  0.7816164E-02  0.1320468E+00
        -11   -1    0    0    0    0  0.00000000000E+00  0.00000000000E+00  0.45593999997E+02  0.45594000000E+02  0.51100000000E-03 0. -1.
         11   -1    0    0    0    0 -0.00000000000E+00 -0.00000000000E+00 -0.45593999997E+02  0.45594000000E+02  0.51100000000E-03 0.  1.
    9900012    2    1    2    0    0  0.37276983881E+01  0.33772174484E+02  0.29574617510E+02  0.46142317571E+02  0.99999982688E+01 0.  0.
        -12    1    1    2    0    0 -0.37276983881E+01 -0.33772174484E+02 -0.29574617510E+02  0.45045682429E+02  0.00000000000E+00 0.  1.
         11    1    3    3    0    0  0.15510501592E+01  0.12404785088E+02  0.10299969633E+02  0.16197957414E+02  0.51100000000E-03 0. -1.
        -11    1    3    3    0    0  0.32450500685E+01  0.98074447322E+01  0.48048417690E+01  0.11393104353E+02  0.51100000000E-03 0.  1.
         12    1    3    3    0    0 -0.10684018396E+01  0.11559944663E+02  0.14469806108E+02  0.18551255804E+02  0.00000000000E+00 0. -1.
</event>
<event>
 7    1  0.5743890E-009  0.4614232E+02  0.7816164E-02  0.1320468E+00
        -11   -1    0    0    0    0  0.00000000000E+00  0.00000000000E+00  0.45593999997E+02  0.45594000000E+02  0.51100000000E-03 0. -1.
         11   -1    0    0    0    0 -0.00000000000E+00 -0.00000000000E+00 -0.45593999997E+02  0.45594000000E+02  0.51100000000E-03 0.  1.
    9900012    2    1    2    0    0  0.16910417857E+02  0.26818493682E+02  0.31998743650E+02  0.46142318402E+02  0.10000005841E+02 0.  0.
        -12    1    1    2    0    0 -0.16910417857E+02 -0.26818493682E+02 -0.31998743650E+02  0.45045681598E+02  0.00000000000E+00 0.  1.
         11    1    3    3    0    0  0.10010145000E+01 -0.19901679941E+00  0.31224783290E+01  0.32850432100E+01  0.51100000000E-03 0.  1.
        -11    1    3    3    0    0  0.25129620813E+01  0.67968317000E+01  0.85751178905E+01  0.11226956252E+02  0.51100000000E-03 0. -1.
        -12    1    3    3    0    0  0.13396441276E+02  0.20220678782E+02  0.20301147430E+02  0.31630318940E+02  0.00000000000E+00 0.  1.
</event>
<event>
 7    1  0.5743890E-009  0.4614232E+02  0.7816164E-02  0.1320468E+00
        -11   -1    0    0    0    0  0.00000000000E+00  0.00000000000E+00  0.45593999997E+02  0.45594000000E+02  0.51100000000E-03 0. -1.
         11   -1    0    0    0    0 -0.00000000000E+00 -0.00000000000E+00 -0.45593999997E+02  0.45594000000E+02  0.51100000000E-03 0.  1.
    9900012    2    1    2    0    0  0.69117733221E+01  0.25991226630E+02 -0.36135813529E+02  0.46142317725E+02  0.99999996734E+01 0.  0.
         12    1    1    2    0    0 -0.69117733221E+01 -0.25991226630E+02  0.36135813529E+02  0.45045682275E+02  0.00000000000E+00 0. -1.
         11    1    3    3    0    0  0.35605422871E+01  0.87794093524E+01 -0.92431274427E+01  0.13235969747E+02  0.51100000000E-03 0. -1.
        -11    1    3    3    0    0  0.53941499765E+01  0.12545240044E+02 -0.21645469812E+02  0.25593090188E+02  0.51100000000E-03 0.  1.
        -12    1    3    3    0    0 -0.20429189415E+01  0.46665772339E+01 -0.52472162743E+01  0.73132577905E+01  0.00000000000E+00 0.  1.
</event>
<event>
 7    1  0.5743890E-009  0.4614232E+02  0.7816164E-02  0.1320468E+00
        -11   -1    0    0    0    0  0.00000000000E+00  0.00000000000E+00  0.45593999997E+02  0.45594000000E+02  0.51100000000E-03 0.  1.
         11   -1    0    0    0    0 -0.00000000000E+00 -0.00000000000E+00 -0.45593999997E+02  0.45594000000E+02  0.51100000000E-03 0. -1.
    9900012    2    1    2    0    0  0.43143592755E+02  0.11153727608E+02 -0.65831870885E+01  0.46142316660E+02  0.99999899554E+01 0.  0.
         12    1    1    2    0    0 -0.43143592755E+02 -0.11153727608E+02  0.65831870885E+01  0.45045683340E+02  0.00000000000E+00 0. -1.
         11    1    3    3    0    0  0.18833415828E+01  0.11189897313E+01 -0.18937146984E+01  0.28957329221E+01  0.51100000000E-03 0. -1.
        -11    1    3    3    0    0  0.33358772792E+01  0.10239693717E+01 -0.23283826728E+01  0.41949918508E+01  0.51100000000E-03 0.  1.
        -12    1    3    3    0    0  0.37924373893E+02  0.90107685050E+01 -0.23610897173E+01  0.39051591887E+02  0.00000000000E+00 0.  1.
</event>
<event>
 7    1  0.5743890E-009  0.4614232E+02  0.7816164E-02  0.1320468E+00
        -11   -1    0    0    0    0  0.00000000000E+00  0.00000000000E+00  0.45593999997E+02  0.45594000000E+02  0.51100000000E-03 0. -1.
         11   -1    0    0    0    0 -0.00000000000E+00 -0.00000000000E+00 -0.45593999997E+02  0.45594000000E+02  0.51100000000E-03 0.  1.
    9900012    2    1    2    0    0 -0.31783743679E+02  0.17220964371E+02  0.26876486195E+02  0.46142317784E+02  0.10000000209E+02 0.  0.
        -12    1    1    2    0    0  0.31783743679E+02 -0.17220964371E+02 -0.26876486195E+02  0.45045682216E+02  0.00000000000E+00 0.  1.
         11    1    3    3    0    0 -0.11944672508E+02  0.29277299518E+01  0.10122667085E+02  0.15928439760E+02  0.51100000000E-03 0. -1.
        -11    1    3    3    0    0 -0.11324943400E+02  0.11578857540E+02  0.10375206443E+02  0.19234583280E+02  0.51100000000E-03 0.  1.
        -12    1    3    3    0    0 -0.85141277709E+01  0.27143768796E+01  0.63786126662E+01  0.10979294745E+02  0.00000000000E+00 0.  1.
</event>
<event>
 7    1  0.5743890E-009  0.4614232E+02  0.7816164E-02  0.1320468E+00
        -11   -1    0    0    0    0  0.00000000000E+00  0.00000000000E+00  0.45593999997E+02  0.45594000000E+02  0.51100000000E-03 0.  1.
         11   -1    0    0    0    0 -0.00000000000E+00 -0.00000000000E+00 -0.45593999997E+02  0.45594000000E+02  0.51100000000E-03 0. -1.
    9900012    2    1    2    0    0 -0.24196921220E+00 -0.44989280693E+02 -0.22404391606E+01  0.46142317698E+02  0.99999994288E+01 0.  0.
        -12    1    1    2    0    0  0.24196921220E+00  0.44989280693E+02  0.22404391606E+01  0.45045682302E+02  0.00000000000E+00 0.  1.
         11    1    3    3    0    0 -0.41837057700E+00 -0.25673508811E+02 -0.40675210670E+01  0.25997092462E+02  0.51100000000E-03 0. -1.
        -11    1    3    3    0    0  0.19446045255E+01 -0.17148662871E+02  0.13915883350E+01  0.17314578926E+02  0.51100000000E-03 0.  1.
        -12    1    3    3    0    0 -0.17682031607E+01 -0.21671090114E+01  0.43549357146E+00  0.28306463106E+01  0.00000000000E+00 0.  1.
</event>
<event>
 7    1  0.5743890E-009  0.4614232E+02  0.7816164E-02  0.1320468E+00
        -11   -1    0    0    0    0  0.00000000000E+00  0.00000000000E+00  0.45593999997E+02  0.45594000000E+02  0.51100000000E-03 0. -1.
         11   -1    0    0    0    0 -0.00000000000E+00 -0.00000000000E+00 -0.45593999997E+02  0.45594000000E+02  0.51100000000E-03 0.  1.
    9900012    2    1    2    0    0 -0.38969665280E+02  0.61599887582E+01 -0.21737827150E+02  0.46142318712E+02  0.10000008667E+02 0.  0.
         12    1    1    2    0    0  0.38969665280E+02 -0.61599887582E+01  0.21737827150E+02  0.45045681288E+02  0.00000000000E+00 0. -1.
         11    1    3    3    0    0 -0.12454867657E+02  0.41069942118E+01 -0.36829530679E+01  0.13621867470E+02  0.51100000000E-03 0. -1.
        -11    1    3    3    0    0 -0.11375376906E+02 -0.74126051385E+00 -0.55097809208E+01  0.12661214514E+02  0.51100000000E-03 0.  1.
         12    1    3    3    0    0 -0.15139420716E+02  0.27942550603E+01 -0.12545093161E+02  0.19859236727E+02  0.00000000000E+00 0. -1.
</event>
<event>
 7    1  0.5743890E-009  0.4614232E+02  0.7816164E-02  0.1320468E+00
        -11   -1    0    0    0    0  0.00000000000E+00  0.00000000000E+00  0.45593999997E+02  0.45594000000E+02  0.51100000000E-03 0.  1.
         11   -1    0    0    0    0 -0.00000000000E+00 -0.00000000000E+00 -0.45593999997E+02  0.45594000000E+02  0.51100000000E-03 0. -1.
    9900012    2    1    2    0    0  0.97222363051E+01  0.38076411999E+02 -0.22017687005E+02  0.46142316849E+02  0.99999916835E+01 0.  0.
         12    1    1    2    0    0 -0.97222363051E+01 -0.38076411999E+02  0.22017687005E+02  0.45045683151E+02  0.00000000000E+00 0. -1.
         11    1    3    3    0    0  0.14313352824E+00  0.37365578004E+01 -0.44271544362E+00  0.37654148016E+01  0.51100000000E-03 0. -1.
        -11    1    3    3    0    0  0.53990247310E+01  0.19480937953E+02 -0.77330508814E+01  0.21643855658E+02  0.51100000000E-03 0.  1.
         12    1    3    3    0    0  0.41800780458E+01  0.14858916246E+02 -0.13841920680E+02  0.20733046389E+02  0.00000000000E+00 0. -1.
</event>
<event>
 7    1  0.5743890E-009  0.4614232E+02  0.7816164E-02  0.1320468E+00
        -11   -1    0    0    0    0  0.00000000000E+00  0.00000000000E+00  0.45593999997E+02  0.45594000000E+02  0.51100000000E-03 0.  1.
         11   -1    0    0    0    0 -0.00000000000E+00 -0.00000000000E+00 -0.45593999997E+02  0.45594000000E+02  0.51100000000E-03 0. -1.
    9900012    2    1    2    0    0 -0.12212884482E+02  0.38273853037E+02  0.20373295159E+02  0.46142317307E+02  0.99999958589E+01 0.  0.
        -12    1    1    2    0    0  0.12212884482E+02 -0.38273853037E+02 -0.20373295159E+02  0.45045682693E+02  0.00000000000E+00 0.  1.
         11    1    3    3    0    0  0.28125228025E+00  0.84341208691E+01  0.29355442222E+01  0.89348149293E+01  0.51100000000E-03 0. -1.
        -11    1    3    3    0    0  0.59128277574E+00  0.20298796400E+01  0.14457013213E+01  0.25612651649E+01  0.51100000000E-03 0.  1.
         12    1    3    3    0    0 -0.13085419538E+02  0.27809852528E+02  0.15992049615E+02  0.34646237213E+02  0.00000000000E+00 0. -1.
</event>
<event>
 7    1  0.5743890E-009  0.4614232E+02  0.7816164E-02  0.1320468E+00
        -11   -1    0    0    0    0  0.00000000000E+00  0.00000000000E+00  0.45593999997E+02  0.45594000000E+02  0.51100000000E-03 0. -1.
         11   -1    0    0    0    0 -0.00000000000E+00 -0.00000000000E+00 -0.45593999997E+02  0.45594000000E+02  0.51100000000E-03 0.  1.
    9900012    2    1    2    0    0 -0.69155001170E+01 -0.96789409894E+01  0.43446604400E+02  0.46142317915E+02  0.10000001406E+02 0.  0.
        -12    1    1    2    0    0  0.69155001170E+01  0.96789409894E+01 -0.43446604400E+02  0.45045682085E+02  0.00000000000E+00 0.  1.
         11    1    3    3    0    0 -0.54247332022E+01 -0.37305745432E+00  0.15693090464E+02  0.16608431315E+02  0.51100000000E-03 0. -1.
        -11    1    3    3    0    0  0.72087809826E+00 -0.56470356151E+01  0.13452398674E+02  0.14607385352E+02  0.51100000000E-03 0.  1.
         12    1    3    3    0    0 -0.22116450131E+01 -0.36588479200E+01  0.14301115263E+02  0.14926501248E+02  0.00000000000E+00 0. -1.
</event>
<event>
 7    1  0.5743890E-009  0.4614232E+02  0.7816164E-02  0.1320468E+00
        -11   -1    0    0    0    0  0.00000000000E+00  0.00000000000E+00  0.45593999997E+02  0.45594000000E+02  0.51100000000E-03 0.  1.
         11   -1    0    0    0    0 -0.00000000000E+00 -0.00000000000E+00 -0.45593999997E+02  0.45594000000E+02  0.51100000000E-03 0. -1.
    9900012    2    1    2    0    0 -0.29724704555E+02  0.30935664025E+02 -0.13730995001E+02  0.46142316597E+02  0.99999893809E+01 0.  0.
         12    1    1    2    0    0  0.29724704555E+02 -0.30935664025E+02  0.13730995001E+02  0.45045683403E+02  0.00000000000E+00 0. -1.
         11    1    3    3    0    0 -0.10038553228E+02  0.12019615859E+02 -0.77609599734E+01  0.17477877911E+02  0.51100000000E-03 0. -1.
        -11    1    3    3    0    0 -0.18226620888E+02  0.18755172772E+02 -0.44098340977E+01  0.26521931523E+02  0.51100000000E-03 0.  1.
         12    1    3    3    0    0 -0.14595304398E+01  0.16087539360E+00 -0.15602009303E+01  0.21425071622E+01  0.00000000000E+00 0. -1.
</event>
<event>
 7    1  0.5743890E-009  0.4614232E+02  0.7816164E-02  0.1320468E+00
        -11   -1    0    0    0    0  0.00000000000E+00  0.00000000000E+00  0.45593999997E+02  0.45594000000E+02  0.51100000000E-03 0. -1.
         11   -1    0    0    0    0 -0.00000000000E+00 -0.00000000000E+00 -0.45593999997E+02  0.45594000000E+02  0.51100000000E-03 0.  1.
    9900012    2    1    2    0    0  0.77027191735E+01  0.28206977840E+02  0.34265844767E+02  0.46142316532E+02  0.99999887908E+01 0.  0.
        -12    1    1    2    0    0 -0.77027191735E+01 -0.28206977840E+02 -0.34265844767E+02  0.45045683468E+02  0.00000000000E+00 0.  1.
         11    1    3    3    0    0  0.36332790300E+01  0.67230188435E+01  0.10662710994E+02  0.13118426159E+02  0.51100000000E-03 0. -1.
        -11    1    3    3    0    0 -0.14475593892E+01  0.10994250413E+02  0.13327731094E+02  0.17337744568E+02  0.51100000000E-03 0.  1.
         12    1    3    3    0    0  0.55169995328E+01  0.10489708583E+02  0.10275402679E+02  0.15686145805E+02  0.00000000000E+00 0. -1.
</event>
<event>
 7    1  0.5743890E-009  0.4614232E+02  0.7816164E-02  0.1320468E+00
        -11   -1    0    0    0    0  0.00000000000E+00  0.00000000000E+00  0.45593999997E+02  0.45594000000E+02  0.51100000000E-03 0. -1.
         11   -1    0    0    0    0 -0.00000000000E+00 -0.00000000000E+00 -0.45593999997E+02  0.45594000000E+02  0.51100000000E-03 0.  1.
    9900012    2    1    2    0    0 -0.19750803970E+02  0.14276668046E+01  0.40459622044E+02  0.46142317567E+02  0.99999982256E+01 0.  0.
        -12    1    1    2    0    0  0.19750803970E+02 -0.14276668046E+01 -0.40459622044E+02  0.45045682433E+02  0.00000000000E+00 0.  1.
         11    1    3    3    0    0 -0.39825361208E+00 -0.12051609936E+01  0.49266281773E+01  0.50875027684E+01  0.51100000000E-03 0.  1.
        -11    1    3    3    0    0 -0.18436609999E+02  0.27437322581E+01  0.35540862259E+02  0.40132151018E+02  0.51100000000E-03 0. -1.
         12    1    3    3    0    0 -0.91594035888E+00 -0.11090445983E+00 -0.78683919786E-02  0.92266378049E+00  0.00000000000E+00 0. -1.
</event>
<event>
 7    1  0.5743890E-009  0.4614232E+02  0.7816164E-02  0.1320468E+00
        -11   -1    0    0    0    0  0.00000000000E+00  0.00000000000E+00  0.45593999997E+02  0.45594000000E+02  0.51100000000E-03 0. -1.
         11   -1    0    0    0    0 -0.00000000000E+00 -0.00000000000E+00 -0.45593999997E+02  0.45594000000E+02  0.51100000000E-03 0.  1.
    9900012    2    1    2    0    0  0.70374539634E+01  0.22207440805E+02 -0.38554082557E+02  0.46142317996E+02  0.10000002145E+02 0.  0.
         12    1    1    2    0    0 -0.70374539634E+01 -0.22207440805E+02  0.38554082557E+02  0.45045682004E+02  0.00000000000E+00 0. -1.
         11    1    3    3    0    0  0.29447079306E+01  0.10335900410E+02 -0.14704885394E+02  0.18213615698E+02  0.51100000000E-03 0. -1.
        -11    1    3    3    0    0 -0.20117552356E+01  0.32217356696E+01 -0.81718214577E+01  0.90114042219E+01  0.51100000000E-03 0.  1.
        -12    1    3    3    0    0  0.61045012684E+01  0.86498047255E+01 -0.15677375705E+02  0.18917298077E+02  0.00000000000E+00 0.  1.
</event>
<event>
 7    1  0.5743890E-009  0.4614231E+02  0.7816164E-02  0.1320468E+00
        -11   -1    0    0    0    0  0.00000000000E+00  0.00000000000E+00  0.45593999997E+02  0.45594000000E+02  0.51100000000E-03 0. -1.
         11   -1    0    0    0    0 -0.00000000000E+00 -0.00000000000E+00 -0.45593999997E+02  0.45594000000E+02  0.51100000000E-03 0.  1.
    9900012    2    1    2    0    0 -0.30610253392E+02  0.66687236432E+01  0.32367488526E+02  0.46142314288E+02  0.99999683308E+01 0.  0.
        -12    1    1    2    0    0  0.30610253392E+02 -0.66687236432E+01 -0.32367488526E+02  0.45045685712E+02  0.00000000000E+00 0.  1.
         11    1    3    3    0    0 -0.27993836011E+02  0.72365553595E+01  0.26178730043E+02  0.39004467629E+02  0.51100000000E-03 0. -1.
        -11    1    3    3    0    0 -0.40683031544E+00 -0.86222371048E+00  0.61412865834E+00  0.11340612429E+01  0.51100000000E-03 0.  1.
        -12    1    3    3    0    0 -0.22095870662E+01  0.29439199417E+00  0.55746298243E+01  0.60037854165E+01  0.00000000000E+00 0.  1.
</event>
<event>
 7    1  0.5743890E-009  0.4614232E+02  0.7816164E-02  0.1320468E+00
        -11   -1    0    0    0    0  0.00000000000E+00  0.00000000000E+00  0.45593999997E+02  0.45594000000E+02  0.51100000000E-03 0. -1.
         11   -1    0    0    0    0 -0.00000000000E+00 -0.00000000000E+00 -0.45593999997E+02  0.45594000000E+02  0.51100000000E-03 0.  1.
    9900012    2    1    2    0    0  0.27511351114E+02 -0.29844672156E+02 -0.19532911477E+02  0.46142317332E+02  0.99999960903E+01 0.  0.
         12    1    1    2    0    0 -0.27511351114E+02  0.29844672156E+02  0.19532911477E+02  0.45045682668E+02  0.00000000000E+00 0. -1.
         11    1    3    3    0    0  0.22763704179E+01 -0.33888931327E+01  0.26620629455E+00  0.40911275947E+01  0.51100000000E-03 0. -1.
        -11    1    3    3    0    0  0.14231800770E+01 -0.36858607539E+01 -0.35673618765E+01  0.53232585930E+01  0.51100000000E-03 0.  1.
        -12    1    3    3    0    0  0.23811800619E+02 -0.22769918269E+02 -0.16231755895E+02  0.36727931145E+02  0.00000000000E+00 0.  1.
</event>
<event>
 7    1  0.5743890E-009  0.4614232E+02  0.7816164E-02  0.1320468E+00
        -11   -1    0    0    0    0  0.00000000000E+00  0.00000000000E+00  0.45593999997E+02  0.45594000000E+02  0.51100000000E-03 0. -1.
         11   -1    0    0    0    0 -0.00000000000E+00 -0.00000000000E+00 -0.45593999997E+02  0.45594000000E+02  0.51100000000E-03 0.  1.
    9900012    2    1    2    0    0  0.85056253709E+01 -0.21169638309E+02 -0.38840883580E+02  0.46142317783E+02  0.10000000203E+02 0.  0.
         12    1    1    2    0    0 -0.85056253709E+01  0.21169638309E+02  0.38840883580E+02  0.45045682217E+02  0.00000000000E+00 0. -1.
         11    1    3    3    0    0  0.11218826919E+01 -0.41870485863E+01 -0.11787752999E+02  0.12559503082E+02  0.51100000000E-03 0. -1.
        -11    1    3    3    0    0  0.80214978982E+01 -0.97532508983E+01 -0.16602066208E+02  0.20859025247E+02  0.51100000000E-03 0.  1.
        -12    1    3    3    0    0 -0.63775521917E+00 -0.72293388240E+01 -0.10451064373E+02  0.12723789455E+02  0.00000000000E+00 0.  1.
</event>
<event>
 7    1  0.5743890E-009  0.4614232E+02  0.7816164E-02  0.1320468E+00
        -11   -1    0    0    0    0  0.00000000000E+00  0.00000000000E+00  0.45593999997E+02  0.45594000000E+02  0.51100000000E-03 0. -1.
         11   -1    0    0    0    0 -0.00000000000E+00 -0.00000000000E+00 -0.45593999997E+02  0.45594000000E+02  0.51100000000E-03 0.  1.
    9900012    2    1    2    0    0  0.35531896949E+02 -0.28493559938E+01 -0.27540497034E+02  0.46142317551E+02  0.99999980873E+01 0.  0.
         12    1    1    2    0    0 -0.35531896949E+02  0.28493559938E+01  0.27540497034E+02  0.45045682449E+02  0.00000000000E+00 0. -1.
         11    1    3    3    0    0  0.30735583890E+01  0.14492082645E+01 -0.10350741291E+01  0.35522309157E+01  0.51100000000E-03 0. -1.
        -11    1    3    3    0    0  0.27667122593E+01 -0.22659579683E+01 -0.28539724524E+01  0.45754148730E+01  0.51100000000E-03 0.  1.
        -12    1    3    3    0    0  0.29691626301E+02 -0.20326062900E+01 -0.23651450452E+02  0.38014671763E+02  0.00000000000E+00 0.  1.
</event>
<event>
 7    1  0.5743890E-009  0.4614232E+02  0.7816164E-02  0.1320468E+00
        -11   -1    0    0    0    0  0.00000000000E+00  0.00000000000E+00  0.45593999997E+02  0.45594000000E+02  0.51100000000E-03 0.  1.
         11   -1    0    0    0    0 -0.00000000000E+00 -0.00000000000E+00 -0.45593999997E+02  0.45594000000E+02  0.51100000000E-03 0. -1.
    9900012    2    1    2    0    0 -0.26754460436E+02  0.30750564057E+02  0.19175894817E+02  0.46142320018E+02  0.10000020578E+02 0.  0.
        -12    1    1    2    0    0  0.26754460436E+02 -0.30750564057E+02 -0.19175894817E+02  0.45045679982E+02  0.00000000000E+00 0.  1.
         11    1    3    3    0    0 -0.20342493623E+02  0.25654234401E+02  0.16046393854E+02  0.36461535150E+02  0.51100000000E-03 0. -1.
        -11    1    3    3    0    0 -0.50809818972E+01  0.41088640550E+01  0.41439495235E+01  0.77376649435E+01  0.51100000000E-03 0.  1.
        -12    1    3    3    0    0 -0.13309849157E+01  0.98746560017E+00 -0.10144485605E+01  0.19431199241E+01  0.00000000000E+00 0.  1.
</event>
<event>
 7    1  0.5743890E-009  0.4614232E+02  0.7816164E-02  0.1320468E+00
        -11   -1    0    0    0    0  0.00000000000E+00  0.00000000000E+00  0.45593999997E+02  0.45594000000E+02  0.51100000000E-03 0. -1.
         11   -1    0    0    0    0 -0.00000000000E+00 -0.00000000000E+00 -0.45593999997E+02  0.45594000000E+02  0.51100000000E-03 0.  1.
    9900012    2    1    2    0    0  0.95600114315E+01 -0.36584471077E+02  0.24480527204E+02  0.46142317025E+02  0.99999932863E+01 0.  0.
        -12    1    1    2    0    0 -0.95600114315E+01  0.36584471077E+02 -0.24480527204E+02  0.45045682975E+02  0.00000000000E+00 0.  1.
         11    1    3    3    0    0  0.46376868312E+01 -0.19235938245E+02  0.88274590252E+01  0.21666875465E+02  0.51100000000E-03 0. -1.
        -11    1    3    3    0    0 -0.44831822459E+00 -0.60115452062E-01  0.12879118207E+01  0.13650348776E+01  0.51100000000E-03 0.  1.
        -12    1    3    3    0    0  0.53706428248E+01 -0.17288417380E+02  0.14365156358E+02  0.23110406683E+02  0.00000000000E+00 0.  1.
</event>
<event>
 7    1  0.5743890E-009  0.4614232E+02  0.7816164E-02  0.1320468E+00
        -11   -1    0    0    0    0  0.00000000000E+00  0.00000000000E+00  0.45593999997E+02  0.45594000000E+02  0.51100000000E-03 0. -1.
         11   -1    0    0    0    0 -0.00000000000E+00 -0.00000000000E+00 -0.45593999997E+02  0.45594000000E+02  0.51100000000E-03 0.  1.
    9900012    2    1    2    0    0 -0.20370642762E+02  0.36057148535E+02  0.17720961433E+02  0.46142317397E+02  0.99999966818E+01 0.  0.
        -12    1    1    2    0    0  0.20370642762E+02 -0.36057148535E+02 -0.17720961433E+02  0.45045682603E+02  0.00000000000E+00 0.  1.
         11    1    3    3    0    0 -0.13487388535E+01  0.16702566933E+01 -0.23844505759E+00  0.21600255144E+01  0.51100000000E-03 0. -1.
        -11    1    3    3    0    0 -0.14073330072E+01  0.97590816915E+01  0.39972567555E+01  0.10639470075E+02  0.51100000000E-03 0.  1.
         12    1    3    3    0    0 -0.17614570902E+02  0.24627810150E+02  0.13962149736E+02  0.33342821807E+02  0.00000000000E+00 0. -1.
</event>
<event>
 7    1  0.5743890E-009  0.4614232E+02  0.7816164E-02  0.1320468E+00
        -11   -1    0    0    0    0  0.00000000000E+00  0.00000000000E+00  0.45593999997E+02  0.45594000000E+02  0.51100000000E-03 0. -1.
         11   -1    0    0    0    0 -0.00000000000E+00 -0.00000000000E+00 -0.45593999997E+02  0.45594000000E+02  0.51100000000E-03 0.  1.
    9900012    2    1    2    0    0 -0.26886226410E+02  0.29194516153E+02 -0.21305491473E+02  0.46142324171E+02  0.10000058451E+02 0.  0.
         12    1    1    2    0    0  0.26886226410E+02 -0.29194516153E+02  0.21305491473E+02  0.45045675829E+02  0.00000000000E+00 0. -1.
         11    1    3    3    0    0 -0.16154180773E+01  0.27412870131E+00 -0.63906778125E+00  0.17587296550E+01  0.51100000000E-03 0. -1.
        -11    1    3    3    0    0 -0.26339203404E+01  0.24520954445E+00 -0.64160515507E+00  0.27220068913E+01  0.51100000000E-03 0.  1.
        -12    1    3    3    0    0 -0.22636887992E+02  0.28675177907E+02 -0.20024818537E+02  0.41661587625E+02  0.00000000000E+00 0.  1.
</event>
<event>
 7    1  0.5743890E-009  0.4614232E+02  0.7816164E-02  0.1320468E+00
        -11   -1    0    0    0    0  0.00000000000E+00  0.00000000000E+00  0.45593999997E+02  0.45594000000E+02  0.51100000000E-03 0. -1.
         11   -1    0    0    0    0 -0.00000000000E+00 -0.00000000000E+00 -0.45593999997E+02  0.45594000000E+02  0.51100000000E-03 0.  1.
    9900012    2    1    2    0    0 -0.26491153168E+02 -0.17835150742E+02 -0.31768533884E+02  0.46142317151E+02  0.99999944361E+01 0.  0.
         12    1    1    2    0    0  0.26491153168E+02  0.17835150742E+02  0.31768533884E+02  0.45045682849E+02  0.00000000000E+00 0. -1.
         11    1    3    3    0    0 -0.38151033851E+01 -0.65265171824E+01 -0.45563205043E+01  0.88266923120E+01  0.51100000000E-03 0. -1.
        -11    1    3    3    0    0 -0.16061826936E+02 -0.83478205573E+01 -0.17319041773E+02  0.25052297316E+02  0.51100000000E-03 0.  1.
         12    1    3    3    0    0 -0.66142228469E+01 -0.29608130025E+01 -0.98931716065E+01  0.12263327523E+02  0.00000000000E+00 0. -1.
</event>
<event>
 7    1  0.5743890E-009  0.4614232E+02  0.7816164E-02  0.1320468E+00
        -11   -1    0    0    0    0  0.00000000000E+00  0.00000000000E+00  0.45593999997E+02  0.45594000000E+02  0.51100000000E-03 0.  1.
         11   -1    0    0    0    0 -0.00000000000E+00 -0.00000000000E+00 -0.45593999997E+02  0.45594000000E+02  0.51100000000E-03 0. -1.
    9900012    2    1    2    0    0 -0.18544532690E+02 -0.38379115419E+02 -0.14569055410E+02  0.46142316871E+02  0.99999918816E+01 0.  0.
        -12    1    1    2    0    0  0.18544532690E+02  0.38379115419E+02  0.14569055410E+02  0.45045683129E+02  0.00000000000E+00 0.  1.
         11    1    3    3    0    0 -0.21302953692E+01 -0.41898361503E+01 -0.42529885307E+01  0.63388324658E+01  0.51100000000E-03 0. -1.
        -11    1    3    3    0    0 -0.92294977922E+01 -0.21741079371E+02 -0.34318989997E+01  0.23867050357E+02  0.51100000000E-03 0.  1.
        -12    1    3    3    0    0 -0.71847395282E+01 -0.12448199897E+02 -0.68841678800E+01  0.15936434048E+02  0.00000000000E+00 0.  1.
</event>
<event>
 7    1  0.5743890E-009  0.4614232E+02  0.7816164E-02  0.1320468E+00
        -11   -1    0    0    0    0  0.00000000000E+00  0.00000000000E+00  0.45593999997E+02  0.45594000000E+02  0.51100000000E-03 0. -1.
         11   -1    0    0    0    0 -0.00000000000E+00 -0.00000000000E+00 -0.45593999997E+02  0.45594000000E+02  0.51100000000E-03 0.  1.
    9900012    2    1    2    0    0  0.17700866176E+01  0.32923692579E+02 -0.30692193598E+02  0.46142317770E+02  0.10000000084E+02 0.  0.
         12    1    1    2    0    0 -0.17700866176E+01 -0.32923692579E+02  0.30692193598E+02  0.45045682230E+02  0.00000000000E+00 0. -1.
         11    1    3    3    0    0  0.17253214126E+01  0.17129719944E+01 -0.18793081285E+01  0.30729149571E+01  0.51100000000E-03 0. -1.
        -11    1    3    3    0    0  0.12171413895E+01  0.28976642294E+02 -0.24038235421E+02  0.37669138485E+02  0.51100000000E-03 0.  1.
        -12    1    3    3    0    0 -0.11723761845E+01  0.22340782906E+01 -0.47746500485E+01  0.54002643280E+01  0.00000000000E+00 0.  1.
</event>
<event>
 7    1  0.8769882E-009  0.4614232E+02  0.7816164E-02  0.1320468E+00
        -11   -1    0    0    0    0  0.00000000000E+00  0.00000000000E+00  0.45593999997E+02  0.45594000000E+02  0.51100000000E-03 0. -1.
         11   -1    0    0    0    0 -0.00000000000E+00 -0.00000000000E+00 -0.45593999997E+02  0.45594000000E+02  0.51100000000E-03 0.  1.
    9900012    2    1    2    0    0 -0.91965023917E+01 -0.27070306219E+02  0.34810004085E+02  0.46142317416E+02  0.99999968551E+01 0.  0.
        -12    1    1    2    0    0  0.91965023917E+01  0.27070306219E+02 -0.34810004085E+02  0.45045682584E+02  0.00000000000E+00 0.  1.
         11    1    3    3    0    0 -0.66854225278E+01 -0.11436800772E+02  0.17774650558E+02  0.22168299190E+02  0.51100000000E-03 0. -1.
        -11    1    3    3    0    0 -0.12933769120E+01 -0.94881698406E+01  0.14127953081E+02  0.17067432416E+02  0.51100000000E-03 0.  1.
        -12    1    3    3    0    0 -0.12177029520E+01 -0.61453356064E+01  0.29074004466E+01  0.69065858100E+01  0.00000000000E+00 0.  1.
</event>
<event>
 7    1  0.5743890E-009  0.4614232E+02  0.7816164E-02  0.1320468E+00
        -11   -1    0    0    0    0  0.00000000000E+00  0.00000000000E+00  0.45593999997E+02  0.45594000000E+02  0.51100000000E-03 0. -1.
         11   -1    0    0    0    0 -0.00000000000E+00 -0.00000000000E+00 -0.45593999997E+02  0.45594000000E+02  0.51100000000E-03 0.  1.
    9900012    2    1    2    0    0  0.12707250612E+02 -0.35246261582E+02  0.25006806723E+02  0.46142317009E+02  0.99999931458E+01 0.  0.
        -12    1    1    2    0    0 -0.12707250612E+02  0.35246261582E+02 -0.25006806723E+02  0.45045682991E+02  0.00000000000E+00 0.  1.
         11    1    3    3    0    0  0.37832794379E+01 -0.14135708109E+02  0.12697530294E+02  0.19374176702E+02  0.51100000000E-03 0. -1.
        -11    1    3    3    0    0  0.28258697565E+01 -0.16675339896E+01  0.26504883671E+01  0.42179732494E+01  0.51100000000E-03 0.  1.
        -12    1    3    3    0    0  0.60981014173E+01 -0.19443019484E+02  0.96587880614E+01  0.22550167058E+02  0.00000000000E+00 0.  1.
</event>
<event>
 7    1  0.5743890E-009  0.4614232E+02  0.7816164E-02  0.1320468E+00
        -11   -1    0    0    0    0  0.00000000000E+00  0.00000000000E+00  0.45593999997E+02  0.45594000000E+02  0.51100000000E-03 0. -1.
         11   -1    0    0    0    0 -0.00000000000E+00 -0.00000000000E+00 -0.45593999997E+02  0.45594000000E+02  0.51100000000E-03 0.  1.
    9900012    2    1    2    0    0 -0.13082368063E+02  0.74263963956E+01 -0.42459553536E+02  0.46142318697E+02  0.10000008538E+02 0.  0.
         12    1    1    2    0    0  0.13082368063E+02 -0.74263963956E+01  0.42459553536E+02  0.45045681303E+02  0.00000000000E+00 0. -1.
         11    1    3    3    0    0 -0.34402847138E+01 -0.71424894815E-01 -0.52626694421E+01  0.62877937581E+01  0.51100000000E-03 0. -1.
        -11    1    3    3    0    0 -0.12403816854E+01 -0.10281720074E+01 -0.10152471242E+02  0.10279511515E+02  0.51100000000E-03 0.  1.
        -12    1    3    3    0    0 -0.84017016637E+01  0.85259932978E+01 -0.27044412852E+02  0.29575013425E+02  0.00000000000E+00 0.  1.
</event>
<event>
 7    1  0.5743890E-009  0.4614232E+02  0.7816164E-02  0.1320468E+00
        -11   -1    0    0    0    0  0.00000000000E+00  0.00000000000E+00  0.45593999997E+02  0.45594000000E+02  0.51100000000E-03 0. -1.
         11   -1    0    0    0    0 -0.00000000000E+00 -0.00000000000E+00 -0.45593999997E+02  0.45594000000E+02  0.51100000000E-03 0.  1.
    9900012    2    1    2    0    0 -0.65683471758E+01 -0.10379120886E+01 -0.44552138753E+02  0.46142317481E+02  0.99999974426E+01 0.  0.
         12    1    1    2    0    0  0.65683471758E+01  0.10379120886E+01  0.44552138753E+02  0.45045682519E+02  0.00000000000E+00 0. -1.
         11    1    3    3    0    0  0.13906767734E+01  0.42120650763E+00 -0.31557124090E+01  0.34741787346E+01  0.51100000000E-03 0. -1.
        -11    1    3    3    0    0 -0.41080732234E+01  0.23376763925E+01 -0.23579416238E+02  0.24048489909E+02  0.51100000000E-03 0.  1.
         12    1    3    3    0    0 -0.38509507257E+01 -0.37967949887E+01 -0.17817010106E+02  0.18619648837E+02  0.00000000000E+00 0. -1.
</event>
<event>
 7    1  0.5743890E-009  0.4614232E+02  0.7816164E-02  0.1320468E+00
        -11   -1    0    0    0    0  0.00000000000E+00  0.00000000000E+00  0.45593999997E+02  0.45594000000E+02  0.51100000000E-03 0. -1.
         11   -1    0    0    0    0 -0.00000000000E+00 -0.00000000000E+00 -0.45593999997E+02  0.45594000000E+02  0.51100000000E-03 0.  1.
    9900012    2    1    2    0    0 -0.34019100437E+01  0.39076574476E+02 -0.22148632503E+02  0.46142316672E+02  0.99999900649E+01 0.  0.
         12    1    1    2    0    0  0.34019100437E+01 -0.39076574476E+02  0.22148632503E+02  0.45045683328E+02  0.00000000000E+00 0. -1.
         11    1    3    3    0    0  0.10229110170E+01  0.15974378376E+02 -0.69955114227E+01  0.17468952223E+02  0.51100000000E-03 0. -1.
        -11    1    3    3    0    0 -0.49643792356E+01  0.15385277941E+02 -0.76072519302E+01  0.17866788203E+02  0.51100000000E-03 0.  1.
         12    1    3    3    0    0  0.53955817490E+00  0.77169181596E+01 -0.75458691506E+01  0.10806576245E+02  0.00000000000E+00 0. -1.
</event>
<event>
 7    1  0.5743890E-009  0.4614232E+02  0.7816164E-02  0.1320468E+00
        -11   -1    0    0    0    0  0.00000000000E+00  0.00000000000E+00  0.45593999997E+02  0.45594000000E+02  0.51100000000E-03 0. -1.
         11   -1    0    0    0    0 -0.00000000000E+00 -0.00000000000E+00 -0.45593999997E+02  0.45594000000E+02  0.51100000000E-03 0.  1.
    9900012    2    1    2    0    0 -0.17782390059E+02  0.18974538828E+02  0.36781339963E+02  0.46142317749E+02  0.99999998935E+01 0.  0.
        -12    1    1    2    0    0  0.17782390059E+02 -0.18974538828E+02 -0.36781339963E+02  0.45045682251E+02  0.00000000000E+00 0.  1.
         11    1    3    3    0    0 -0.99386657377E+00  0.24894061558E+01  0.53468962336E+01  0.59811548524E+01  0.51100000000E-03 0. -1.
        -11    1    3    3    0    0 -0.10453525942E+01  0.41771714128E+01  0.98304773503E+01  0.10732185623E+02  0.51100000000E-03 0.  1.
        -12    1    3    3    0    0 -0.15743170891E+02  0.12307961260E+02  0.21603966379E+02  0.29428977274E+02  0.00000000000E+00 0.  1.
</event>
<event>
 7    1  0.5743890E-009  0.4614232E+02  0.7816164E-02  0.1320468E+00
        -11   -1    0    0    0    0  0.00000000000E+00  0.00000000000E+00  0.45593999997E+02  0.45594000000E+02  0.51100000000E-03 0. -1.
         11   -1    0    0    0    0 -0.00000000000E+00 -0.00000000000E+00 -0.45593999997E+02  0.45594000000E+02  0.51100000000E-03 0.  1.
    9900012    2    1    2    0    0 -0.13743146114E+01 -0.37762381436E+02 -0.24519936656E+02  0.46142317787E+02  0.10000000237E+02 0.  0.
         12    1    1    2    0    0  0.13743146114E+01  0.37762381436E+02  0.24519936656E+02  0.45045682213E+02  0.00000000000E+00 0. -1.
         11    1    3    3    0    0  0.50265189214E+00 -0.28890153781E+00 -0.64459127852E+00  0.86696089917E+00  0.51100000000E-03 0. -1.
        -11    1    3    3    0    0  0.92108167693E-02 -0.19959797768E+01  0.65631979979E+00  0.21011368469E+01  0.51100000000E-03 0.  1.
        -12    1    3    3    0    0 -0.18861773203E+01 -0.35477500122E+02 -0.24531665178E+02  0.43174220041E+02  0.00000000000E+00 0.  1.
</event>
<event>
 7    1  0.5743890E-009  0.4614232E+02  0.7816164E-02  0.1320468E+00
        -11   -1    0    0    0    0  0.00000000000E+00  0.00000000000E+00  0.45593999997E+02  0.45594000000E+02  0.51100000000E-03 0. -1.
         11   -1    0    0    0    0 -0.00000000000E+00 -0.00000000000E+00 -0.45593999997E+02  0.45594000000E+02  0.51100000000E-03 0.  1.
    9900012    2    1    2    0    0  0.33023099699E+02  0.28843913469E+02 -0.10325552191E+02  0.46142317788E+02  0.10000000244E+02 0.  0.
         12    1    1    2    0    0 -0.33023099699E+02 -0.28843913469E+02  0.10325552191E+02  0.45045682212E+02  0.00000000000E+00 0. -1.
         11    1    3    3    0    0  0.10920897447E+02  0.11444581838E+02 -0.58776449637E+01  0.16875756726E+02  0.51100000000E-03 0.  1.
        -11    1    3    3    0    0  0.22536362702E+02  0.16629023323E+02 -0.45568533922E+01  0.28375640497E+02  0.51100000000E-03 0. -1.
         12    1    3    3    0    0 -0.43416045048E+00  0.77030830780E+00  0.10894616512E+00  0.89092056476E+00  0.00000000000E+00 0. -1.
</event>
<event>
 7    1  0.5743890E-009  0.4614232E+02  0.7816164E-02  0.1320468E+00
        -11   -1    0    0    0    0  0.00000000000E+00  0.00000000000E+00  0.45593999997E+02  0.45594000000E+02  0.51100000000E-03 0. -1.
         11   -1    0    0    0    0 -0.00000000000E+00 -0.00000000000E+00 -0.45593999997E+02  0.45594000000E+02  0.51100000000E-03 0.  1.
    9900012    2    1    2    0    0  0.16638554156E+02  0.30162686571E+02  0.29025581701E+02  0.46142317203E+02  0.99999949110E+01 0.  0.
        -12    1    1    2    0    0 -0.16638554156E+02 -0.30162686571E+02 -0.29025581701E+02  0.45045682797E+02  0.00000000000E+00 0.  1.
         11    1    3    3    0    0  0.51531816910E+01  0.46577882086E+01  0.69739571801E+01  0.98430864848E+01  0.51100000000E-03 0. -1.
        -11    1    3    3    0    0  0.35660201973E+01  0.16321544526E+02  0.12862494554E+02  0.21084427480E+02  0.51100000000E-03 0.  1.
        -12    1    3    3    0    0  0.79193522680E+01  0.91833538365E+01  0.91891299668E+01  0.15214803238E+02  0.00000000000E+00 0.  1.
</event>
<event>
 7    1  0.5743890E-009  0.4614232E+02  0.7816164E-02  0.1320468E+00
        -11   -1    0    0    0    0  0.00000000000E+00  0.00000000000E+00  0.45593999997E+02  0.45594000000E+02  0.51100000000E-03 0. -1.
         11   -1    0    0    0    0 -0.00000000000E+00 -0.00000000000E+00 -0.45593999997E+02  0.45594000000E+02  0.51100000000E-03 0.  1.
    9900012    2    1    2    0    0 -0.18536449075E+02 -0.13824741021E+02  0.38657341620E+02  0.46142317968E+02  0.10000001889E+02 0.  0.
        -12    1    1    2    0    0  0.18536449075E+02  0.13824741021E+02 -0.38657341620E+02  0.45045682032E+02  0.00000000000E+00 0.  1.
         11    1    3    3    0    0 -0.84400272133E+01 -0.46296737875E+01  0.89030474536E+01  0.13112291675E+02  0.51100000000E-03 0. -1.
        -11    1    3    3    0    0 -0.54718804607E+01 -0.22299492671E+01  0.13970563712E+02  0.15168744187E+02  0.51100000000E-03 0.  1.
        -12    1    3    3    0    0 -0.46245414006E+01 -0.69651179669E+01  0.15783730454E+02  0.17861282107E+02  0.00000000000E+00 0.  1.
</event>
<event>
 7    1  0.5743890E-009  0.4614232E+02  0.7816164E-02  0.1320468E+00
        -11   -1    0    0    0    0  0.00000000000E+00  0.00000000000E+00  0.45593999997E+02  0.45594000000E+02  0.51100000000E-03 0. -1.
         11   -1    0    0    0    0 -0.00000000000E+00 -0.00000000000E+00 -0.45593999997E+02  0.45594000000E+02  0.51100000000E-03 0.  1.
    9900012    2    1    2    0    0  0.98522864680E+01 -0.23145658843E+02 -0.37367424783E+02  0.46142317556E+02  0.99999981255E+01 0.  0.
         12    1    1    2    0    0 -0.98522864680E+01  0.23145658843E+02  0.37367424783E+02  0.45045682444E+02  0.00000000000E+00 0. -1.
         11    1    3    3    0    0  0.47386673408E+01 -0.70932273260E+01 -0.13510724306E+02  0.15978376438E+02  0.51100000000E-03 0. -1.
        -11    1    3    3    0    0  0.58772070076E+01 -0.12083822461E+02 -0.21851436233E+02  0.25652399365E+02  0.51100000000E-03 0.  1.
         12    1    3    3    0    0 -0.76358788040E+00 -0.39686090561E+01 -0.20052642443E+01  0.45115417521E+01  0.00000000000E+00 0. -1.
</event>
<event>
 7    1  0.5743890E-009  0.4614232E+02  0.7816164E-02  0.1320468E+00
        -11   -1    0    0    0    0  0.00000000000E+00  0.00000000000E+00  0.45593999997E+02  0.45594000000E+02  0.51100000000E-03 0. -1.
         11   -1    0    0    0    0 -0.00000000000E+00 -0.00000000000E+00 -0.45593999997E+02  0.45594000000E+02  0.51100000000E-03 0.  1.
    9900012    2    1    2    0    0 -0.34179487505E+01 -0.19137984817E+02 -0.40634574427E+02  0.46142317906E+02  0.10000001317E+02 0.  0.
         12    1    1    2    0    0  0.34179487505E+01  0.19137984817E+02  0.40634574427E+02  0.45045682094E+02  0.00000000000E+00 0. -1.
         11    1    3    3    0    0 -0.59132591915E+00 -0.35646545113E+00 -0.62259406265E+01  0.62641097458E+01  0.51100000000E-03 0. -1.
        -11    1    3    3    0    0 -0.37819082922E+01 -0.47175841582E+01 -0.96425640056E+01  0.11381452960E+02  0.51100000000E-03 0.  1.
        -12    1    3    3    0    0  0.95528546092E+00 -0.14063935208E+02 -0.24766069795E+02  0.28496755200E+02  0.00000000000E+00 0.  1.
</event>
<event>
 7    1  0.5915765E-009  0.4614232E+02  0.7816164E-02  0.1320468E+00
        -11   -1    0    0    0    0  0.00000000000E+00  0.00000000000E+00  0.45593999997E+02  0.45594000000E+02  0.51100000000E-03 0. -1.
         11   -1    0    0    0    0 -0.00000000000E+00 -0.00000000000E+00 -0.45593999997E+02  0.45594000000E+02  0.51100000000E-03 0.  1.
    9900012    2    1    2    0    0 -0.13938005116E+02  0.16555374947E+01  0.42803091610E+02  0.46142318271E+02  0.10000004650E+02 0.  0.
        -12    1    1    2    0    0  0.13938005116E+02 -0.16555374947E+01 -0.42803091610E+02  0.45045681729E+02  0.00000000000E+00 0.  1.
         11    1    3    3    0    0 -0.93087952962E+01  0.64226600747E+00  0.19622106395E+02  0.21727706624E+02  0.51100000000E-03 0. -1.
        -11    1    3    3    0    0 -0.11280598714E+01 -0.24105179475E+01  0.10173914553E+02  0.10516256627E+02  0.51100000000E-03 0.  1.
         12    1    3    3    0    0 -0.35011499485E+01  0.34237894348E+01  0.13007070662E+02  0.13898355020E+02  0.00000000000E+00 0. -1.
</event>
<event>
 7    1  0.5743890E-009  0.4614232E+02  0.7816164E-02  0.1320468E+00
        -11   -1    0    0    0    0  0.00000000000E+00  0.00000000000E+00  0.45593999997E+02  0.45594000000E+02  0.51100000000E-03 0. -1.
         11   -1    0    0    0    0 -0.00000000000E+00 -0.00000000000E+00 -0.45593999997E+02  0.45594000000E+02  0.51100000000E-03 0.  1.
    9900012    2    1    2    0    0 -0.80853637858E+01 -0.42457301310E+02 -0.12693223553E+02  0.46142318007E+02  0.10000002244E+02 0.  0.
         12    1    1    2    0    0  0.80853637858E+01  0.42457301310E+02  0.12693223553E+02  0.45045681993E+02  0.00000000000E+00 0. -1.
         11    1    3    3    0    0 -0.13382201082E+01 -0.25285318857E+01 -0.25129979962E+01  0.38078164012E+01  0.51100000000E-03 0. -1.
        -11    1    3    3    0    0  0.25799382364E+00 -0.19007675503E+02 -0.53721089240E+01  0.19753932352E+02  0.51100000000E-03 0.  1.
         12    1    3    3    0    0 -0.70051375012E+01 -0.20921093921E+02 -0.48081166324E+01  0.22580569254E+02  0.00000000000E+00 0. -1.
</event>
<event>
 7    1  0.5743890E-009  0.4614232E+02  0.7816164E-02  0.1320468E+00
        -11   -1    0    0    0    0  0.00000000000E+00  0.00000000000E+00  0.45593999997E+02  0.45594000000E+02  0.51100000000E-03 0. -1.
         11   -1    0    0    0    0 -0.00000000000E+00 -0.00000000000E+00 -0.45593999997E+02  0.45594000000E+02  0.51100000000E-03 0.  1.
    9900012    2    1    2    0    0  0.11727862718E+01 -0.37645529979E+02  0.24709356176E+02  0.46142316104E+02  0.99999848888E+01 0.  0.
        -12    1    1    2    0    0 -0.11727862718E+01  0.37645529979E+02 -0.24709356176E+02  0.45045683896E+02  0.00000000000E+00 0.  1.
         11    1    3    3    0    0  0.34237005339E+01 -0.17120726262E+02  0.12081981485E+02  0.21232410837E+02  0.51100000000E-03 0. -1.
        -11    1    3    3    0    0 -0.11403716557E+01 -0.20306862453E+02  0.12028007911E+02  0.23629263314E+02  0.51100000000E-03 0.  1.
        -12    1    3    3    0    0 -0.11105426065E+01 -0.21794126435E+00  0.59936677905E+00  0.12806419528E+01  0.00000000000E+00 0.  1.
</event>
<event>
 7    1  0.5743890E-009  0.4614232E+02  0.7816164E-02  0.1320468E+00
        -11   -1    0    0    0    0  0.00000000000E+00  0.00000000000E+00  0.45593999997E+02  0.45594000000E+02  0.51100000000E-03 0. -1.
         11   -1    0    0    0    0 -0.00000000000E+00 -0.00000000000E+00 -0.45593999997E+02  0.45594000000E+02  0.51100000000E-03 0.  1.
    9900012    2    1    2    0    0  0.13223173172E+02  0.28190500279E+01 -0.42968758242E+02  0.46142317225E+02  0.99999951081E+01 0.  0.
         12    1    1    2    0    0 -0.13223173172E+02 -0.28190500279E+01  0.42968758242E+02  0.45045682775E+02  0.00000000000E+00 0. -1.
         11    1    3    3    0    0  0.89921894956E+00  0.26691121357E+01 -0.64561770772E+01  0.70437899618E+01  0.51100000000E-03 0. -1.
        -11    1    3    3    0    0  0.82471871041E+01  0.17378386121E+01 -0.15580105987E+02  0.17713720134E+02  0.51100000000E-03 0.  1.
         12    1    3    3    0    0  0.40767671186E+01 -0.15879007199E+01 -0.20932475178E+02  0.21384807129E+02  0.00000000000E+00 0. -1.
</event>
<event>
 7    1  0.5743890E-009  0.4614232E+02  0.7816164E-02  0.1320468E+00
        -11   -1    0    0    0    0  0.00000000000E+00  0.00000000000E+00  0.45593999997E+02  0.45594000000E+02  0.51100000000E-03 0. -1.
         11   -1    0    0    0    0 -0.00000000000E+00 -0.00000000000E+00 -0.45593999997E+02  0.45594000000E+02  0.51100000000E-03 0.  1.
    9900012    2    1    2    0    0  0.95370309345E+01  0.24239038826E+02  0.36750884134E+02  0.46142318222E+02  0.10000004199E+02 0.  0.
        -12    1    1    2    0    0 -0.95370309345E+01 -0.24239038826E+02 -0.36750884134E+02  0.45045681778E+02  0.00000000000E+00 0.  1.
         11    1    3    3    0    0  0.60308651433E+01  0.17448878747E+02  0.23441800911E+02  0.29838779032E+02  0.51100000000E-03 0. -1.
        -11    1    3    3    0    0  0.28881833886E+01  0.46115545792E+01  0.12902262700E+02  0.14002729090E+02  0.51100000000E-03 0.  1.
        -12    1    3    3    0    0  0.61798240263E+00  0.21786055003E+01  0.40682052219E+00  0.23008100993E+01  0.00000000000E+00 0.  1.
</event>
<event>
 7    1  0.5743890E-009  0.4614232E+02  0.7816164E-02  0.1320468E+00
        -11   -1    0    0    0    0  0.00000000000E+00  0.00000000000E+00  0.45593999997E+02  0.45594000000E+02  0.51100000000E-03 0. -1.
         11   -1    0    0    0    0 -0.00000000000E+00 -0.00000000000E+00 -0.45593999997E+02  0.45594000000E+02  0.51100000000E-03 0.  1.
    9900012    2    1    2    0    0  0.23315142886E+02  0.36886971067E+01  0.38365493186E+02  0.46142318281E+02  0.10000004740E+02 0.  0.
        -12    1    1    2    0    0 -0.23315142886E+02 -0.36886971067E+01 -0.38365493186E+02  0.45045681719E+02  0.00000000000E+00 0.  1.
         11    1    3    3    0    0  0.76738975671E+01  0.16678293692E+01  0.10925156192E+02  0.13454716525E+02  0.51100000000E-03 0. -1.
        -11    1    3    3    0    0  0.10223295918E+02 -0.53244192253E+00  0.10262197765E+02  0.14495239807E+02  0.51100000000E-03 0.  1.
         12    1    3    3    0    0  0.54179494008E+01  0.25533096601E+01  0.17178139229E+02  0.18192361949E+02  0.00000000000E+00 0. -1.
</event>
<event>
 7    1  0.5743890E-009  0.4614232E+02  0.7816164E-02  0.1320468E+00
        -11   -1    0    0    0    0  0.00000000000E+00  0.00000000000E+00  0.45593999997E+02  0.45594000000E+02  0.51100000000E-03 0. -1.
         11   -1    0    0    0    0 -0.00000000000E+00 -0.00000000000E+00 -0.45593999997E+02  0.45594000000E+02  0.51100000000E-03 0.  1.
    9900012    2    1    2    0    0 -0.11996486497E+02  0.13694317364E+02 -0.41202710761E+02  0.46142318849E+02  0.10000009919E+02 0.  0.
         12    1    1    2    0    0  0.11996486497E+02 -0.13694317364E+02  0.41202710761E+02  0.45045681151E+02  0.00000000000E+00 0. -1.
         11    1    3    3    0    0 -0.28535726328E+01  0.91550390082E-01 -0.13805355037E+02  0.14097485102E+02  0.51100000000E-03 0. -1.
        -11    1    3    3    0    0 -0.38016319643E+00  0.28865156236E+00 -0.19267334146E+00  0.51474950996E+00  0.51100000000E-03 0.  1.
        -12    1    3    3    0    0 -0.87627506681E+01  0.13314115412E+02 -0.27204682383E+02  0.31530084237E+02  0.00000000000E+00 0.  1.
</event>
<event>
 7    1  0.5743890E-009  0.4614232E+02  0.7816164E-02  0.1320468E+00
        -11   -1    0    0    0    0  0.00000000000E+00  0.00000000000E+00  0.45593999997E+02  0.45594000000E+02  0.51100000000E-03 0. -1.
         11   -1    0    0    0    0 -0.00000000000E+00 -0.00000000000E+00 -0.45593999997E+02  0.45594000000E+02  0.51100000000E-03 0.  1.
    9900012    2    1    2    0    0 -0.19746482630E+02  0.19913418926E+02  0.35251179368E+02  0.46142317893E+02  0.10000001205E+02 0.  0.
        -12    1    1    2    0    0  0.19746482630E+02 -0.19913418926E+02 -0.35251179368E+02  0.45045682107E+02  0.00000000000E+00 0.  1.
         11    1    3    3    0    0 -0.86861289109E+01  0.12039498738E+02  0.21259509545E+02  0.25930004082E+02  0.51100000000E-03 0. -1.
        -11    1    3    3    0    0 -0.96489167741E+01  0.53852290547E+01  0.82255924710E+01  0.13775436786E+02  0.51100000000E-03 0.  1.
        -12    1    3    3    0    0 -0.14114369455E+01  0.24886911335E+01  0.57660773524E+01  0.64368770257E+01  0.00000000000E+00 0.  1.
</event>
<event>
 7    1  0.5743890E-009  0.4614232E+02  0.7816164E-02  0.1320468E+00
        -11   -1    0    0    0    0  0.00000000000E+00  0.00000000000E+00  0.45593999997E+02  0.45594000000E+02  0.51100000000E-03 0. -1.
         11   -1    0    0    0    0 -0.00000000000E+00 -0.00000000000E+00 -0.45593999997E+02  0.45594000000E+02  0.51100000000E-03 0.  1.
    9900012    2    1    2    0    0  0.34138426388E+02 -0.25620687567E+02 -0.14396589443E+02  0.46142316797E+02  0.99999912097E+01 0.  0.
         12    1    1    2    0    0 -0.34138426388E+02  0.25620687567E+02  0.14396589443E+02  0.45045683203E+02  0.00000000000E+00 0. -1.
         11    1    3    3    0    0  0.61554972688E+01 -0.84037393255E+01 -0.79974607085E+00  0.10447610986E+02  0.51100000000E-03 0. -1.
        -11    1    3    3    0    0  0.27543341159E+02 -0.17302300066E+02 -0.13225420021E+02  0.35112917349E+02  0.51100000000E-03 0.  1.
        -12    1    3    3    0    0  0.43958796027E+00  0.85351824727E-01 -0.37142335160E+00  0.58178846234E+00  0.00000000000E+00 0.  1.
</event>
<event>
 7    1  0.5743890E-009  0.4614232E+02  0.7816164E-02  0.1320468E+00
        -11   -1    0    0    0    0  0.00000000000E+00  0.00000000000E+00  0.45593999997E+02  0.45594000000E+02  0.51100000000E-03 0.  1.
         11   -1    0    0    0    0 -0.00000000000E+00 -0.00000000000E+00 -0.45593999997E+02  0.45594000000E+02  0.51100000000E-03 0. -1.
    9900012    2    1    2    0    0  0.31423298368E+02  0.32253715108E+02  0.11779895993E+01  0.46142317875E+02  0.10000001035E+02 0.  0.
        -12    1    1    2    0    0 -0.31423298368E+02 -0.32253715108E+02 -0.11779895993E+01  0.45045682125E+02  0.00000000000E+00 0.  1.
         11    1    3    3    0    0  0.80758234133E+00  0.12864021546E+01  0.14130569965E+01  0.20745481623E+01  0.51100000000E-03 0. -1.
        -11    1    3    3    0    0  0.11201368052E+02  0.75709775875E+01 -0.17209623885E+01  0.13629088733E+02  0.51100000000E-03 0.  1.
         12    1    3    3    0    0  0.19414347975E+02  0.23396335366E+02  0.14858949913E+01  0.30438680980E+02  0.00000000000E+00 0. -1.
</event>
<event>
 7    1  0.5743890E-009  0.4614232E+02  0.7816164E-02  0.1320468E+00
        -11   -1    0    0    0    0  0.00000000000E+00  0.00000000000E+00  0.45593999997E+02  0.45594000000E+02  0.51100000000E-03 0.  1.
         11   -1    0    0    0    0 -0.00000000000E+00 -0.00000000000E+00 -0.45593999997E+02  0.45594000000E+02  0.51100000000E-03 0. -1.
    9900012    2    1    2    0    0 -0.10627085979E+02 -0.40477377435E+02  0.16666146057E+02  0.46142318022E+02  0.10000002382E+02 0.  0.
         12    1    1    2    0    0  0.10627085979E+02  0.40477377435E+02 -0.16666146057E+02  0.45045681978E+02  0.00000000000E+00 0. -1.
         11    1    3    3    0    0  0.14098141394E+01 -0.22910103007E+01  0.18095086354E+01  0.32420095417E+01  0.51100000000E-03 0. -1.
        -11    1    3    3    0    0 -0.68121638223E+01 -0.27601539474E+02  0.10021649175E+02  0.30144386040E+02  0.51100000000E-03 0.  1.
        -12    1    3    3    0    0 -0.52247362962E+01 -0.10584827660E+02  0.48349882471E+01  0.12755922441E+02  0.00000000000E+00 0.  1.
</event>
<event>
 7    1  0.5743890E-009  0.4614232E+02  0.7816164E-02  0.1320468E+00
        -11   -1    0    0    0    0  0.00000000000E+00  0.00000000000E+00  0.45593999997E+02  0.45594000000E+02  0.51100000000E-03 0.  1.
         11   -1    0    0    0    0 -0.00000000000E+00 -0.00000000000E+00 -0.45593999997E+02  0.45594000000E+02  0.51100000000E-03 0. -1.
    9900012    2    1    2    0    0  0.10638604286E+01 -0.43812283936E+02  0.10414673068E+02  0.46142318322E+02  0.10000005119E+02 0.  0.
        -12    1    1    2    0    0 -0.10638604286E+01  0.43812283936E+02 -0.10414673068E+02  0.45045681678E+02  0.00000000000E+00 0.  1.
         11    1    3    3    0    0 -0.11153161049E+01 -0.41442043037E+01 -0.14196843699E+01  0.45203830917E+01  0.51100000000E-03 0. -1.
        -11    1    3    3    0    0 -0.63788627448E+00 -0.98183684892E+01  0.40919900489E+01  0.10656061257E+02  0.51100000000E-03 0.  1.
         12    1    3    3    0    0  0.28170628079E+01 -0.29849711143E+02  0.77423673887E+01  0.30965873974E+02  0.00000000000E+00 0. -1.
</event>
<event>
 7    1  0.5743890E-009  0.4614232E+02  0.7816164E-02  0.1320468E+00
        -11   -1    0    0    0    0  0.00000000000E+00  0.00000000000E+00  0.45593999997E+02  0.45594000000E+02  0.51100000000E-03 0.  1.
         11   -1    0    0    0    0 -0.00000000000E+00 -0.00000000000E+00 -0.45593999997E+02  0.45594000000E+02  0.51100000000E-03 0. -1.
    9900012    2    1    2    0    0  0.12619422260E+02 -0.43129693045E+02 -0.31133948124E+01  0.46142317992E+02  0.10000002107E+02 0.  0.
         12    1    1    2    0    0 -0.12619422260E+02  0.43129693045E+02  0.31133948124E+01  0.45045682008E+02  0.00000000000E+00 0. -1.
         11    1    3    3    0    0  0.57165481284E+01 -0.15859599952E+02 -0.20141263099E+01  0.16978296093E+02  0.51100000000E-03 0. -1.
        -11    1    3    3    0    0  0.79631350232E+01 -0.26536981862E+02 -0.42495036599E+00  0.27709267561E+02  0.51100000000E-03 0.  1.
         12    1    3    3    0    0 -0.10602608918E+01 -0.73311123070E+00 -0.67431813646E+00  0.14547543382E+01  0.00000000000E+00 0. -1.
</event>
<event>
 7    1  0.5743890E-009  0.4614232E+02  0.7816164E-02  0.1320468E+00
        -11   -1    0    0    0    0  0.00000000000E+00  0.00000000000E+00  0.45593999997E+02  0.45594000000E+02  0.51100000000E-03 0. -1.
         11   -1    0    0    0    0 -0.00000000000E+00 -0.00000000000E+00 -0.45593999997E+02  0.45594000000E+02  0.51100000000E-03 0.  1.
    9900012    2    1    2    0    0 -0.38203833899E+02  0.79729947807E+01 -0.22494708806E+02  0.46142317691E+02  0.99999993634E+01 0.  0.
         12    1    1    2    0    0  0.38203833899E+02 -0.79729947807E+01  0.22494708806E+02  0.45045682309E+02  0.00000000000E+00 0. -1.
         11    1    3    3    0    0 -0.65645350628E+01 -0.19794771269E+01 -0.32431454709E+01  0.75848166157E+01  0.51100000000E-03 0. -1.
        -11    1    3    3    0    0 -0.78232493072E+01  0.43095131176E+01 -0.50720221252E+01  0.10271345663E+02  0.51100000000E-03 0.  1.
         12    1    3    3    0    0 -0.23816049529E+02  0.56429587900E+01 -0.14179541210E+02  0.28286155412E+02  0.00000000000E+00 0. -1.
</event>
<event>
 7    1  0.5743890E-009  0.4614232E+02  0.7816164E-02  0.1320468E+00
        -11   -1    0    0    0    0  0.00000000000E+00  0.00000000000E+00  0.45593999997E+02  0.45594000000E+02  0.51100000000E-03 0. -1.
         11   -1    0    0    0    0 -0.00000000000E+00 -0.00000000000E+00 -0.45593999997E+02  0.45594000000E+02  0.51100000000E-03 0.  1.
    9900012    2    1    2    0    0 -0.40159228493E+02  0.20135246785E+02  0.33047737957E+01  0.46142319563E+02  0.10000016427E+02 0.  0.
        -12    1    1    2    0    0  0.40159228493E+02 -0.20135246785E+02 -0.33047737957E+01  0.45045680437E+02  0.00000000000E+00 0.  1.
         11    1    3    3    0    0 -0.18070491784E+02  0.81897687412E+01  0.49870665340E+01  0.20456925924E+02  0.51100000000E-03 0. -1.
        -11    1    3    3    0    0 -0.92255560622E+01  0.22286533494E+01 -0.10959552570E+01  0.95539990891E+01  0.51100000000E-03 0.  1.
         12    1    3    3    0    0 -0.12863180646E+02  0.97168246947E+01 -0.58633748132E+00  0.16131394550E+02  0.00000000000E+00 0. -1.
</event>
<event>
 7    1  0.5743890E-009  0.4614232E+02  0.7816164E-02  0.1320468E+00
        -11   -1    0    0    0    0  0.00000000000E+00  0.00000000000E+00  0.45593999997E+02  0.45594000000E+02  0.51100000000E-03 0.  1.
         11   -1    0    0    0    0 -0.00000000000E+00 -0.00000000000E+00 -0.45593999997E+02  0.45594000000E+02  0.51100000000E-03 0. -1.
    9900012    2    1    2    0    0  0.69035737218E+01 -0.36391019610E+02 -0.25634893696E+02  0.46142318596E+02  0.10000007610E+02 0.  0.
         12    1    1    2    0    0 -0.69035737218E+01  0.36391019610E+02  0.25634893696E+02  0.45045681404E+02  0.00000000000E+00 0. -1.
         11    1    3    3    0    0 -0.23189591808E+00  0.38560458211E+00 -0.10168392762E+01  0.11119482835E+01  0.51100000000E-03 0. -1.
        -11    1    3    3    0    0  0.37444403147E+01 -0.10716066167E+02 -0.87358477963E+01  0.14323754548E+02  0.51100000000E-03 0.  1.
        -12    1    3    3    0    0  0.33910293252E+01 -0.26060558025E+02 -0.15882206623E+02  0.30706615764E+02  0.00000000000E+00 0.  1.
</event>
<event>
 7    1  0.5743890E-009  0.4614232E+02  0.7816164E-02  0.1320468E+00
        -11   -1    0    0    0    0  0.00000000000E+00  0.00000000000E+00  0.45593999997E+02  0.45594000000E+02  0.51100000000E-03 0. -1.
         11   -1    0    0    0    0 -0.00000000000E+00 -0.00000000000E+00 -0.45593999997E+02  0.45594000000E+02  0.51100000000E-03 0.  1.
    9900012    2    1    2    0    0  0.46758418710E+00 -0.36515424837E+02  0.26372685897E+02  0.46142318216E+02  0.10000004148E+02 0.  0.
        -12    1    1    2    0    0 -0.46758418710E+00  0.36515424837E+02 -0.26372685897E+02  0.45045681784E+02  0.00000000000E+00 0.  1.
         11    1    3    3    0    0  0.15789136961E+00 -0.96708253515E+01  0.29728919335E+01  0.10118689608E+02  0.51100000000E-03 0. -1.
        -11    1    3    3    0    0  0.92149199363E-01 -0.14922431646E+01 -0.39385980948E-01  0.14956044443E+01  0.51100000000E-03 0.  1.
        -12    1    3    3    0    0  0.21754361812E+00 -0.25352356321E+02  0.23439179944E+02  0.34528024164E+02  0.00000000000E+00 0.  1.
</event>
<event>
 7    1  0.5743890E-009  0.4614232E+02  0.7816164E-02  0.1320468E+00
        -11   -1    0    0    0    0  0.00000000000E+00  0.00000000000E+00  0.45593999997E+02  0.45594000000E+02  0.51100000000E-03 0. -1.
         11   -1    0    0    0    0 -0.00000000000E+00 -0.00000000000E+00 -0.45593999997E+02  0.45594000000E+02  0.51100000000E-03 0.  1.
    9900012    2    1    2    0    0 -0.22645001759E+02  0.16853798988E+02 -0.35103661751E+02  0.46142315265E+02  0.99999772345E+01 0.  0.
         12    1    1    2    0    0  0.22645001759E+02 -0.16853798988E+02  0.35103661751E+02  0.45045684735E+02  0.00000000000E+00 0. -1.
         11    1    3    3    0    0 -0.50557760582E+01  0.33948238591E+01 -0.37034133175E+01  0.71274799927E+01  0.51100000000E-03 0.  1.
        -11    1    3    3    0    0 -0.42880161765E+01  0.55185229549E+00 -0.86519585550E+01  0.96720220628E+01  0.51100000000E-03 0. -1.
         12    1    3    3    0    0 -0.13301209524E+02  0.12907122833E+02 -0.22748289878E+02  0.29342813209E+02  0.00000000000E+00 0. -1.
</event>
<event>
 7    1  0.5743890E-009  0.4614232E+02  0.7816164E-02  0.1320468E+00
        -11   -1    0    0    0    0  0.00000000000E+00  0.00000000000E+00  0.45593999997E+02  0.45594000000E+02  0.51100000000E-03 0. -1.
         11   -1    0    0    0    0 -0.00000000000E+00 -0.00000000000E+00 -0.45593999997E+02  0.45594000000E+02  0.51100000000E-03 0.  1.
    9900012    2    1    2    0    0 -0.44324529629E+02 -0.32944840612E+01  0.73209110974E+01  0.46142319947E+02  0.10000019937E+02 0.  0.
         12    1    1    2    0    0  0.44324529629E+02  0.32944840612E+01 -0.73209110974E+01  0.45045680053E+02  0.00000000000E+00 0. -1.
         11    1    3    3    0    0 -0.14061081179E+02  0.69654541454E+00  0.53697369458E+01  0.15067622725E+02  0.51100000000E-03 0. -1.
        -11    1    3    3    0    0 -0.90133146305E+01  0.11553117960E+01 -0.31958190936E+00  0.90926739099E+01  0.51100000000E-03 0.  1.
        -12    1    3    3    0    0 -0.21250133820E+02 -0.51463412717E+01  0.22707560609E+01  0.21982023313E+02  0.00000000000E+00 0.  1.
</event>
<event>
 7    1  0.5743890E-009  0.4614232E+02  0.7816164E-02  0.1320468E+00
        -11   -1    0    0    0    0  0.00000000000E+00  0.00000000000E+00  0.45593999997E+02  0.45594000000E+02  0.51100000000E-03 0. -1.
         11   -1    0    0    0    0 -0.00000000000E+00 -0.00000000000E+00 -0.45593999997E+02  0.45594000000E+02  0.51100000000E-03 0.  1.
    9900012    2    1    2    0    0 -0.35532994705E+02  0.38467319055E+01  0.27417558362E+02  0.46142316904E+02  0.99999921799E+01 0.  0.
        -12    1    1    2    0    0  0.35532994705E+02 -0.38467319055E+01 -0.27417558362E+02  0.45045683096E+02  0.00000000000E+00 0.  1.
         11    1    3    3    0    0 -0.26058218605E+02  0.69067228203E+00  0.18014907290E+02  0.31686663914E+02  0.51100000000E-03 0. -1.
        -11    1    3    3    0    0 -0.76450286574E+01  0.14598318102E+01  0.45929067736E+01  0.90372764138E+01  0.51100000000E-03 0.  1.
        -12    1    3    3    0    0 -0.18297474431E+01  0.16962278133E+01  0.48097442988E+01  0.54183765760E+01  0.00000000000E+00 0.  1.
</event>
<event>
 7    1  0.5743890E-009  0.4614232E+02  0.7816164E-02  0.1320468E+00
        -11   -1    0    0    0    0  0.00000000000E+00  0.00000000000E+00  0.45593999997E+02  0.45594000000E+02  0.51100000000E-03 0. -1.
         11   -1    0    0    0    0 -0.00000000000E+00 -0.00000000000E+00 -0.45593999997E+02  0.45594000000E+02  0.51100000000E-03 0.  1.
    9900012    2    1    2    0    0 -0.12657688838E+02  0.21402575612E+02  0.37560965464E+02  0.46142318119E+02  0.10000003262E+02 0.  0.
        -12    1    1    2    0    0  0.12657688838E+02 -0.21402575612E+02 -0.37560965464E+02  0.45045681881E+02  0.00000000000E+00 0.  1.
         11    1    3    3    0    0 -0.60996417845E+01  0.14187952315E+02  0.19207206551E+02  0.24645900360E+02  0.51100000000E-03 0. -1.
        -11    1    3    3    0    0 -0.44127319992E+01  0.57632316956E+01  0.17184448278E+02  0.18654551889E+02  0.51100000000E-03 0.  1.
        -12    1    3    3    0    0 -0.21453150547E+01  0.14513916009E+01  0.11693106345E+01  0.28418658700E+01  0.00000000000E+00 0.  1.
</event>
<event>
 7    1  0.5743890E-009  0.4614232E+02  0.7816164E-02  0.1320468E+00
        -11   -1    0    0    0    0  0.00000000000E+00  0.00000000000E+00  0.45593999997E+02  0.45594000000E+02  0.51100000000E-03 0.  1.
         11   -1    0    0    0    0 -0.00000000000E+00 -0.00000000000E+00 -0.45593999997E+02  0.45594000000E+02  0.51100000000E-03 0. -1.
    9900012    2    1    2    0    0  0.82268204050E+01 -0.28287256353E+02  0.34077324504E+02  0.46142317728E+02  0.99999997007E+01 0.  0.
         12    1    1    2    0    0 -0.82268204050E+01  0.28287256353E+02 -0.34077324504E+02  0.45045682272E+02  0.00000000000E+00 0. -1.
         11    1    3    3    0    0  0.31805041245E+00 -0.15861854358E+02  0.13878644434E+02  0.21078812854E+02  0.51100000000E-03 0. -1.
        -11    1    3    3    0    0  0.87150636088E+00 -0.24381955579E+01  0.29335320797E+01  0.39127907738E+01  0.51100000000E-03 0.  1.
        -12    1    3    3    0    0  0.70372636316E+01 -0.99872064374E+01  0.17265147990E+02  0.21150714101E+02  0.00000000000E+00 0.  1.
</event>
<event>
 7    1  0.5743890E-009  0.4614232E+02  0.7816164E-02  0.1320468E+00
        -11   -1    0    0    0    0  0.00000000000E+00  0.00000000000E+00  0.45593999997E+02  0.45594000000E+02  0.51100000000E-03 0. -1.
         11   -1    0    0    0    0 -0.00000000000E+00 -0.00000000000E+00 -0.45593999997E+02  0.45594000000E+02  0.51100000000E-03 0.  1.
    9900012    2    1    2    0    0  0.13714815727E+02 -0.42545703188E+02 -0.55569726058E+01  0.46142323462E+02  0.10000051988E+02 0.  0.
         12    1    1    2    0    0 -0.13714815727E+02  0.42545703188E+02  0.55569726058E+01  0.45045676538E+02  0.00000000000E+00 0. -1.
         11    1    3    3    0    0  0.30970995996E+01 -0.10320247694E+02  0.16631470332E+01  0.10902550010E+02  0.51100000000E-03 0. -1.
        -11    1    3    3    0    0  0.10430896478E+02 -0.24462211175E+02 -0.42758109132E+01  0.26934846132E+02  0.51100000000E-03 0.  1.
         12    1    3    3    0    0  0.18681964982E+00 -0.77632443189E+01 -0.29443087259E+01  0.83049273211E+01  0.00000000000E+00 0. -1.
</event>
<event>
 7    1  0.5743890E-009  0.4614232E+02  0.7816164E-02  0.1320468E+00
        -11   -1    0    0    0    0  0.00000000000E+00  0.00000000000E+00  0.45593999997E+02  0.45594000000E+02  0.51100000000E-03 0.  1.
         11   -1    0    0    0    0 -0.00000000000E+00 -0.00000000000E+00 -0.45593999997E+02  0.45594000000E+02  0.51100000000E-03 0. -1.
    9900012    2    1    2    0    0  0.38398557896E+02  0.23503764017E+02 -0.14958200774E+01  0.46142315976E+02  0.99999837215E+01 0.  0.
        -12    1    1    2    0    0 -0.38398557896E+02 -0.23503764017E+02  0.14958200774E+01  0.45045684024E+02  0.00000000000E+00 0.  1.
         11    1    3    3    0    0  0.31592258765E+02  0.21828731636E+02 -0.23193120331E+01  0.38470034407E+02  0.51100000000E-03 0. -1.
        -11    1    3    3    0    0 -0.12626387246E+00 -0.36966881718E+00  0.12806162661E+00  0.41109322692E+00  0.51100000000E-03 0.  1.
         12    1    3    3    0    0  0.69325630042E+01  0.20447011976E+01  0.69543032914E+00  0.72611883420E+01  0.00000000000E+00 0. -1.
</event>
<event>
 7    1  0.5743890E-009  0.4614231E+02  0.7816164E-02  0.1320468E+00
        -11   -1    0    0    0    0  0.00000000000E+00  0.00000000000E+00  0.45593999997E+02  0.45594000000E+02  0.51100000000E-03 0. -1.
         11   -1    0    0    0    0 -0.00000000000E+00 -0.00000000000E+00 -0.45593999997E+02  0.45594000000E+02  0.51100000000E-03 0.  1.
    9900012    2    1    2    0    0 -0.19513231499E+02 -0.12005954195E+02 -0.38784081061E+02  0.46142311156E+02  0.99999397688E+01 0.  0.
         12    1    1    2    0    0  0.19513231499E+02  0.12005954195E+02  0.38784081061E+02  0.45045688844E+02  0.00000000000E+00 0. -1.
         11    1    3    3    0    0 -0.10209563352E+02 -0.93518961819E+01 -0.25108847560E+02  0.28673112354E+02  0.51100000000E-03 0. -1.
        -11    1    3    3    0    0 -0.60287941004E+01 -0.95104918353E-01 -0.10946882501E+02  0.12497585367E+02  0.51100000000E-03 0.  1.
        -12    1    3    3    0    0 -0.32748740468E+01 -0.25589530948E+01 -0.27283510001E+01  0.49716134347E+01  0.00000000000E+00 0.  1.
</event>
<event>
 7    1  0.5743890E-009  0.4614232E+02  0.7816164E-02  0.1320468E+00
        -11   -1    0    0    0    0  0.00000000000E+00  0.00000000000E+00  0.45593999997E+02  0.45594000000E+02  0.51100000000E-03 0. -1.
         11   -1    0    0    0    0 -0.00000000000E+00 -0.00000000000E+00 -0.45593999997E+02  0.45594000000E+02  0.51100000000E-03 0.  1.
    9900012    2    1    2    0    0  0.12448429282E+02  0.98625516132E+01 -0.42153056349E+02  0.46142317904E+02  0.10000001304E+02 0.  0.
         12    1    1    2    0    0 -0.12448429282E+02 -0.98625516132E+01  0.42153056349E+02  0.45045682096E+02  0.00000000000E+00 0. -1.
         11    1    3    3    0    0  0.32692444339E+01  0.37495410258E+01 -0.41983707920E+01  0.65094803664E+01  0.51100000000E-03 0. -1.
        -11    1    3    3    0    0  0.22892533456E+01  0.29269487865E+01 -0.15100669601E+02  0.15551139274E+02  0.51100000000E-03 0.  1.
         12    1    3    3    0    0  0.68899315028E+01  0.31860618008E+01 -0.22854015957E+02  0.24081698264E+02  0.00000000000E+00 0. -1.
</event>
<event>
 7    1  0.5743890E-009  0.4614232E+02  0.7816164E-02  0.1320468E+00
        -11   -1    0    0    0    0  0.00000000000E+00  0.00000000000E+00  0.45593999997E+02  0.45594000000E+02  0.51100000000E-03 0.  1.
         11   -1    0    0    0    0 -0.00000000000E+00 -0.00000000000E+00 -0.45593999997E+02  0.45594000000E+02  0.51100000000E-03 0. -1.
    9900012    2    1    2    0    0  0.35655440977E+02 -0.18494743095E+02  0.20389885798E+02  0.46142318339E+02  0.10000005274E+02 0.  0.
        -12    1    1    2    0    0 -0.35655440977E+02  0.18494743095E+02 -0.20389885798E+02  0.45045681661E+02  0.00000000000E+00 0.  1.
         11    1    3    3    0    0  0.39874834828E+01 -0.41400333291E+01  0.25910791333E+01  0.63050449505E+01  0.51100000000E-03 0. -1.
        -11    1    3    3    0    0  0.21749887455E+02 -0.13680661232E+02  0.13112123884E+02  0.28846938989E+02  0.51100000000E-03 0.  1.
         12    1    3    3    0    0  0.99180700396E+01 -0.67404853397E+00  0.46866827803E+01  0.10990334400E+02  0.00000000000E+00 0. -1.
</event>
<event>
 7    1  0.5743890E-009  0.4614232E+02  0.7816164E-02  0.1320468E+00
        -11   -1    0    0    0    0  0.00000000000E+00  0.00000000000E+00  0.45593999997E+02  0.45594000000E+02  0.51100000000E-03 0. -1.
         11   -1    0    0    0    0 -0.00000000000E+00 -0.00000000000E+00 -0.45593999997E+02  0.45594000000E+02  0.51100000000E-03 0.  1.
    9900012    2    1    2    0    0  0.56072543807E+01 -0.40128145295E+02  0.19682585202E+02  0.46142317557E+02  0.99999981380E+01 0.  0.
        -12    1    1    2    0    0 -0.56072543807E+01  0.40128145295E+02 -0.19682585202E+02  0.45045682443E+02  0.00000000000E+00 0.  1.
         11    1    3    3    0    0 -0.44889131763E+00 -0.10299757962E+02  0.55124196070E+01  0.11690735121E+02  0.51100000000E-03 0. -1.
        -11    1    3    3    0    0  0.23877534639E+01 -0.25931059540E+02  0.12070745754E+02  0.28702336469E+02  0.51100000000E-03 0.  1.
        -12    1    3    3    0    0  0.36683922344E+01 -0.38973277930E+01  0.20994198409E+01  0.57492459662E+01  0.00000000000E+00 0.  1.
</event>
<event>
 7    1  0.5743890E-009  0.4614232E+02  0.7816164E-02  0.1320468E+00
        -11   -1    0    0    0    0  0.00000000000E+00  0.00000000000E+00  0.45593999997E+02  0.45594000000E+02  0.51100000000E-03 0. -1.
         11   -1    0    0    0    0 -0.00000000000E+00 -0.00000000000E+00 -0.45593999997E+02  0.45594000000E+02  0.51100000000E-03 0.  1.
    9900012    2    1    2    0    0 -0.23289563194E+02 -0.25304587914E+02  0.29092741806E+02  0.46142317088E+02  0.99999938586E+01 0.  0.
        -12    1    1    2    0    0  0.23289563194E+02  0.25304587914E+02 -0.29092741806E+02  0.45045682912E+02  0.00000000000E+00 0.  1.
         11    1    3    3    0    0 -0.10780152693E+02 -0.12988341156E+02  0.11844246386E+02  0.20620253897E+02  0.51100000000E-03 0. -1.
        -11    1    3    3    0    0 -0.13299449374E+02 -0.11636333155E+02  0.16815250159E+02  0.24393282705E+02  0.51100000000E-03 0.  1.
        -12    1    3    3    0    0  0.79003887325E+00 -0.67991360282E+00  0.43324526095E+00  0.11287804856E+01  0.00000000000E+00 0.  1.
</event>
<event>
 7    1  0.5743890E-009  0.4614232E+02  0.7816164E-02  0.1320468E+00
        -11   -1    0    0    0    0  0.00000000000E+00  0.00000000000E+00  0.45593999997E+02  0.45594000000E+02  0.51100000000E-03 0.  1.
         11   -1    0    0    0    0 -0.00000000000E+00 -0.00000000000E+00 -0.45593999997E+02  0.45594000000E+02  0.51100000000E-03 0. -1.
    9900012    2    1    2    0    0  0.62976562921E+01  0.44523504082E+02 -0.26666080777E+01  0.46142315533E+02  0.99999796788E+01 0.  0.
         12    1    1    2    0    0 -0.62976562921E+01 -0.44523504082E+02  0.26666080777E+01  0.45045684467E+02  0.00000000000E+00 0. -1.
         11    1    3    3    0    0  0.22251596695E+01  0.22644031156E+02 -0.41991067225E+01  0.23137328715E+02  0.51100000000E-03 0.  1.
        -11    1    3    3    0    0  0.36241614914E+00  0.11413500067E+02 -0.14405497406E+01  0.11509757298E+02  0.51100000000E-03 0. -1.
        -12    1    3    3    0    0  0.37100804734E+01  0.10465972859E+02  0.29730483854E+01  0.11495229520E+02  0.00000000000E+00 0.  1.
</event>
<event>
 7    1  0.5743890E-009  0.4614232E+02  0.7816164E-02  0.1320468E+00
        -11   -1    0    0    0    0  0.00000000000E+00  0.00000000000E+00  0.45593999997E+02  0.45594000000E+02  0.51100000000E-03 0. -1.
         11   -1    0    0    0    0 -0.00000000000E+00 -0.00000000000E+00 -0.45593999997E+02  0.45594000000E+02  0.51100000000E-03 0.  1.
    9900012    2    1    2    0    0  0.13093452687E+02  0.41124232944E+02 -0.12902408699E+02  0.46142321087E+02  0.10000030325E+02 0.  0.
         12    1    1    2    0    0 -0.13093452687E+02 -0.41124232944E+02  0.12902408699E+02  0.45045678913E+02  0.00000000000E+00 0. -1.
         11    1    3    3    0    0  0.24319892484E+01  0.75438636257E+01 -0.15763990688E+01  0.80814283634E+01  0.51100000000E-03 0. -1.
        -11    1    3    3    0    0  0.66626670386E+01  0.28843043386E+02 -0.67684973072E+01  0.30366508524E+02  0.51100000000E-03 0.  1.
         12    1    3    3    0    0  0.39987964000E+01  0.47373259322E+01 -0.45575123233E+01  0.76943841997E+01  0.00000000000E+00 0. -1.
</event>
<event>
 7    1  0.5743890E-009  0.4614232E+02  0.7816164E-02  0.1320468E+00
        -11   -1    0    0    0    0  0.00000000000E+00  0.00000000000E+00  0.45593999997E+02  0.45594000000E+02  0.51100000000E-03 0. -1.
         11   -1    0    0    0    0 -0.00000000000E+00 -0.00000000000E+00 -0.45593999997E+02  0.45594000000E+02  0.51100000000E-03 0.  1.
    9900012    2    1    2    0    0 -0.97187436328E+01 -0.79366054165E+01 -0.43262800058E+02  0.46142317053E+02  0.99999935416E+01 0.  0.
         12    1    1    2    0    0  0.97187436328E+01  0.79366054165E+01  0.43262800058E+02  0.45045682947E+02  0.00000000000E+00 0. -1.
         11    1    3    3    0    0 -0.34808292801E+01 -0.20265499925E+01 -0.61463582931E+01  0.73485235168E+01  0.51100000000E-03 0. -1.
        -11    1    3    3    0    0 -0.68224735042E+01 -0.18095127388E+01 -0.25595980627E+02  0.26551359769E+02  0.51100000000E-03 0.  1.
         12    1    3    3    0    0  0.58455915148E+00 -0.41005426851E+01 -0.11520461137E+02  0.12242433767E+02  0.00000000000E+00 0. -1.
</event>
<event>
 7    1  0.5743890E-009  0.4614232E+02  0.7816164E-02  0.1320468E+00
        -11   -1    0    0    0    0  0.00000000000E+00  0.00000000000E+00  0.45593999997E+02  0.45594000000E+02  0.51100000000E-03 0. -1.
         11   -1    0    0    0    0 -0.00000000000E+00 -0.00000000000E+00 -0.45593999997E+02  0.45594000000E+02  0.51100000000E-03 0.  1.
    9900012    2    1    2    0    0 -0.61678682431E+01 -0.26364997013E+02  0.35999413389E+02  0.46142318404E+02  0.10000005860E+02 0.  0.
        -12    1    1    2    0    0  0.61678682431E+01  0.26364997013E+02 -0.35999413389E+02  0.45045681596E+02  0.00000000000E+00 0.  1.
         11    1    3    3    0    0 -0.15955363093E+01 -0.10820805974E+02  0.21722303530E+02  0.24320650669E+02  0.51100000000E-03 0. -1.
        -11    1    3    3    0    0 -0.11672341953E+01 -0.14720096250E+01  0.80115505636E+00  0.20423265381E+01  0.51100000000E-03 0.  1.
         12    1    3    3    0    0 -0.34050977385E+01 -0.14072181414E+02  0.13475954802E+02  0.19779341197E+02  0.00000000000E+00 0. -1.
</event>
<event>
 7    1  0.5743890E-009  0.4614232E+02  0.7816164E-02  0.1320468E+00
        -11   -1    0    0    0    0  0.00000000000E+00  0.00000000000E+00  0.45593999997E+02  0.45594000000E+02  0.51100000000E-03 0. -1.
         11   -1    0    0    0    0 -0.00000000000E+00 -0.00000000000E+00 -0.45593999997E+02  0.45594000000E+02  0.51100000000E-03 0.  1.
    9900012    2    1    2    0    0  0.16861741497E+01  0.20565930099E+02 -0.40041388929E+02  0.46142317727E+02  0.99999996887E+01 0.  0.
         12    1    1    2    0    0 -0.16861741497E+01 -0.20565930099E+02  0.40041388929E+02  0.45045682273E+02  0.00000000000E+00 0. -1.
         11    1    3    3    0    0 -0.34229427116E+01  0.43897521549E+01 -0.10209255427E+02  0.11628213853E+02  0.51100000000E-03 0. -1.
        -11    1    3    3    0    0  0.52358420295E+01  0.11299569901E+02 -0.20581873368E+02  0.24056347048E+02  0.51100000000E-03 0.  1.
         12    1    3    3    0    0 -0.12672516818E+00  0.48766080428E+01 -0.92502601344E+01  0.10457756826E+02  0.00000000000E+00 0. -1.
</event>
<event>
 7    1  0.5743890E-009  0.4614232E+02  0.7816164E-02  0.1320468E+00
        -11   -1    0    0    0    0  0.00000000000E+00  0.00000000000E+00  0.45593999997E+02  0.45594000000E+02  0.51100000000E-03 0. -1.
         11   -1    0    0    0    0 -0.00000000000E+00 -0.00000000000E+00 -0.45593999997E+02  0.45594000000E+02  0.51100000000E-03 0.  1.
    9900012    2    1    2    0    0  0.33594667429E+02  0.20553752223E+02 -0.21864471405E+02  0.46142317411E+02  0.99999968035E+01 0.  0.
         12    1    1    2    0    0 -0.33594667429E+02 -0.20553752223E+02  0.21864471405E+02  0.45045682589E+02  0.00000000000E+00 0. -1.
         11    1    3    3    0    0  0.20919158555E+02  0.10401377948E+02 -0.14692815936E+02  0.27598527103E+02  0.51100000000E-03 0. -1.
        -11    1    3    3    0    0  0.74482158294E+00  0.48396786404E+00  0.84050178828E+00  0.12228767726E+01  0.51100000000E-03 0.  1.
        -12    1    3    3    0    0  0.11930687292E+02  0.96684064107E+01 -0.80121572578E+01  0.17320913535E+02  0.00000000000E+00 0.  1.
</event>
<event>
 7    1  0.5743890E-009  0.4614232E+02  0.7816164E-02  0.1320468E+00
        -11   -1    0    0    0    0  0.00000000000E+00  0.00000000000E+00  0.45593999997E+02  0.45594000000E+02  0.51100000000E-03 0. -1.
         11   -1    0    0    0    0 -0.00000000000E+00 -0.00000000000E+00 -0.45593999997E+02  0.45594000000E+02  0.51100000000E-03 0.  1.
    9900012    2    1    2    0    0 -0.89833572971E+00 -0.73285625321E+01 -0.44436456903E+02  0.46142317210E+02  0.99999949783E+01 0.  0.
         12    1    1    2    0    0  0.89833572971E+00  0.73285625321E+01  0.44436456903E+02  0.45045682790E+02  0.00000000000E+00 0. -1.
         11    1    3    3    0    0  0.93760700393E+00 -0.57030676548E+01 -0.24798776306E+02  0.25463373580E+02  0.51100000000E-03 0. -1.
        -11    1    3    3    0    0 -0.13993643711E+01 -0.39100247979E+01 -0.12470470437E+02  0.13143787420E+02  0.51100000000E-03 0.  1.
         12    1    3    3    0    0 -0.43657836255E+00  0.22845299206E+01 -0.71672101609E+01  0.75351562104E+01  0.00000000000E+00 0. -1.
</event>
<event>
 7    1  0.5743890E-009  0.4614232E+02  0.7816164E-02  0.1320468E+00
        -11   -1    0    0    0    0  0.00000000000E+00  0.00000000000E+00  0.45593999997E+02  0.45594000000E+02  0.51100000000E-03 0. -1.
         11   -1    0    0    0    0 -0.00000000000E+00 -0.00000000000E+00 -0.45593999997E+02  0.45594000000E+02  0.51100000000E-03 0.  1.
    9900012    2    1    2    0    0 -0.54882169710E+01 -0.25752062805E+01 -0.44635873971E+02  0.46142318098E+02  0.10000003071E+02 0.  0.
         12    1    1    2    0    0  0.54882169710E+01  0.25752062805E+01  0.44635873971E+02  0.45045681902E+02  0.00000000000E+00 0. -1.
         11    1    3    3    0    0 -0.18706803862E+01  0.33342362376E+00 -0.12477972575E+02  0.12621823017E+02  0.51100000000E-03 0. -1.
        -11    1    3    3    0    0 -0.25765908753E+01  0.23451300635E+01 -0.72555432460E+01  0.80486870736E+01  0.51100000000E-03 0.  1.
         12    1    3    3    0    0 -0.10409457094E+01 -0.52537599678E+01 -0.24902358149E+02  0.25471808007E+02  0.00000000000E+00 0. -1.
</event>
<event>
 7    1  0.5743890E-009  0.4614232E+02  0.7816164E-02  0.1320468E+00
        -11   -1    0    0    0    0  0.00000000000E+00  0.00000000000E+00  0.45593999997E+02  0.45594000000E+02  0.51100000000E-03 0. -1.
         11   -1    0    0    0    0 -0.00000000000E+00 -0.00000000000E+00 -0.45593999997E+02  0.45594000000E+02  0.51100000000E-03 0.  1.
    9900012    2    1    2    0    0 -0.47485751238E+01 -0.27017253352E+02  0.35729993862E+02  0.46142318678E+02  0.10000008361E+02 0.  0.
        -12    1    1    2    0    0  0.47485751238E+01  0.27017253352E+02 -0.35729993862E+02  0.45045681322E+02  0.00000000000E+00 0.  1.
         11    1    3    3    0    0 -0.44912912368E+01 -0.10883367885E+02  0.13486979882E+02  0.17903017067E+02  0.51100000000E-03 0. -1.
        -11    1    3    3    0    0  0.67669466837E+00 -0.12109099991E+02  0.11436196248E+02  0.16669577174E+02  0.51100000000E-03 0.  1.
        -12    1    3    3    0    0 -0.93397855540E+00 -0.40247854756E+01  0.10806817732E+02  0.11569724437E+02  0.00000000000E+00 0.  1.
</event>
<event>
 7    1  0.5743890E-009  0.4614232E+02  0.7816164E-02  0.1320468E+00
        -11   -1    0    0    0    0  0.00000000000E+00  0.00000000000E+00  0.45593999997E+02  0.45594000000E+02  0.51100000000E-03 0. -1.
         11   -1    0    0    0    0 -0.00000000000E+00 -0.00000000000E+00 -0.45593999997E+02  0.45594000000E+02  0.51100000000E-03 0.  1.
    9900012    2    1    2    0    0  0.22131964096E+02 -0.38803201992E+02 -0.57966488241E+01  0.46142318107E+02  0.10000003158E+02 0.  0.
         12    1    1    2    0    0 -0.22131964096E+02  0.38803201992E+02  0.57966488241E+01  0.45045681893E+02  0.00000000000E+00 0. -1.
         11    1    3    3    0    0  0.87836287826E+01 -0.97492290679E+01 -0.44077164482E+01  0.13842960903E+02  0.51100000000E-03 0. -1.
        -11    1    3    3    0    0  0.56383662519E+00 -0.11152374516E+00 -0.28072382706E+00  0.63965257276E+00  0.51100000000E-03 0.  1.
        -12    1    3    3    0    0  0.12784498688E+02 -0.28942449179E+02 -0.11082085488E+01  0.31659704632E+02  0.00000000000E+00 0.  1.
</event>
<event>
 7    1  0.5743890E-009  0.4614232E+02  0.7816164E-02  0.1320468E+00
        -11   -1    0    0    0    0  0.00000000000E+00  0.00000000000E+00  0.45593999997E+02  0.45594000000E+02  0.51100000000E-03 0. -1.
         11   -1    0    0    0    0 -0.00000000000E+00 -0.00000000000E+00 -0.45593999997E+02  0.45594000000E+02  0.51100000000E-03 0.  1.
    9900012    2    1    2    0    0  0.70609357289E+01 -0.31367777195E+02  0.31548679172E+02  0.46142318553E+02  0.10000007221E+02 0.  0.
        -12    1    1    2    0    0 -0.70609357289E+01  0.31367777195E+02 -0.31548679172E+02  0.45045681447E+02  0.00000000000E+00 0.  1.
         11    1    3    3    0    0 -0.95444567567E-01 -0.10862110018E+02  0.14545806774E+02  0.18154201681E+02  0.51100000000E-03 0. -1.
        -11    1    3    3    0    0  0.13706751002E+01 -0.17181688100E+01  0.35222628882E+00  0.22259644897E+01  0.51100000000E-03 0.  1.
        -12    1    3    3    0    0  0.57857051963E+01 -0.18787498367E+02  0.16650646110E+02  0.25762152382E+02  0.00000000000E+00 0.  1.
</event>
<event>
 7    1  0.5743890E-009  0.4614232E+02  0.7816164E-02  0.1320468E+00
        -11   -1    0    0    0    0  0.00000000000E+00  0.00000000000E+00  0.45593999997E+02  0.45594000000E+02  0.51100000000E-03 0. -1.
         11   -1    0    0    0    0 -0.00000000000E+00 -0.00000000000E+00 -0.45593999997E+02  0.45594000000E+02  0.51100000000E-03 0.  1.
    9900012    2    1    2    0    0 -0.36381191895E+02  0.26028661681E+00 -0.26560395859E+02  0.46142317621E+02  0.99999987191E+01 0.  0.
         12    1    1    2    0    0  0.36381191895E+02 -0.26028661681E+00  0.26560395859E+02  0.45045682379E+02  0.00000000000E+00 0. -1.
         11    1    3    3    0    0 -0.26510436689E+02  0.10945300841E+01 -0.16698391243E+02  0.31350239551E+02  0.51100000000E-03 0. -1.
        -11    1    3    3    0    0 -0.76673113850E+01 -0.23095970136E+01 -0.88977154843E+01  0.11970432045E+02  0.51100000000E-03 0.  1.
         12    1    3    3    0    0 -0.22034438208E+01  0.14753535463E+01 -0.96428913227E+00  0.28216460247E+01  0.00000000000E+00 0. -1.
</event>
<event>
 7    1  0.5743890E-009  0.4614232E+02  0.7816164E-02  0.1320468E+00
        -11   -1    0    0    0    0  0.00000000000E+00  0.00000000000E+00  0.45593999997E+02  0.45594000000E+02  0.51100000000E-03 0. -1.
         11   -1    0    0    0    0 -0.00000000000E+00 -0.00000000000E+00 -0.45593999997E+02  0.45594000000E+02  0.51100000000E-03 0.  1.
    9900012    2    1    2    0    0  0.24280930741E+02  0.33354238808E+02  0.18084371541E+02  0.46142319429E+02  0.10000015208E+02 0.  0.
        -12    1    1    2    0    0 -0.24280930741E+02 -0.33354238808E+02 -0.18084371541E+02  0.45045680571E+02  0.00000000000E+00 0.  1.
         11    1    3    3    0    0  0.21742389421E+02  0.29988040626E+02  0.16730238656E+02  0.40643756767E+02  0.51100000000E-03 0. -1.
        -11    1    3    3    0    0  0.22450195618E+01  0.47917985798E+00  0.12054786402E+01  0.25928565680E+01  0.51100000000E-03 0.  1.
         12    1    3    3    0    0  0.29352175789E+00  0.28870183234E+01  0.14865424489E+00  0.29057060943E+01  0.00000000000E+00 0. -1.
</event>
<event>
 7    1  0.5743890E-009  0.4614232E+02  0.7816164E-02  0.1320468E+00
        -11   -1    0    0    0    0  0.00000000000E+00  0.00000000000E+00  0.45593999997E+02  0.45594000000E+02  0.51100000000E-03 0. -1.
         11   -1    0    0    0    0 -0.00000000000E+00 -0.00000000000E+00 -0.45593999997E+02  0.45594000000E+02  0.51100000000E-03 0.  1.
    9900012    2    1    2    0    0  0.22056141826E+02  0.11738771462E+02 -0.37481213310E+02  0.46142317644E+02  0.99999989343E+01 0.  0.
         12    1    1    2    0    0 -0.22056141826E+02 -0.11738771462E+02  0.37481213310E+02  0.45045682356E+02  0.00000000000E+00 0. -1.
         11    1    3    3    0    0  0.85276333121E+01  0.53648191114E+01 -0.77474630382E+01  0.12709248514E+02  0.51100000000E-03 0. -1.
        -11    1    3    3    0    0  0.19081303880E+01  0.29839420959E-01 -0.24388636510E+01  0.30967576815E+01  0.51100000000E-03 0.  1.
        -12    1    3    3    0    0  0.11620378126E+02  0.63441129297E+01 -0.27294886621E+02  0.30336311449E+02  0.00000000000E+00 0.  1.
</event>
<event>
 7    1  0.5743890E-009  0.4614232E+02  0.7816164E-02  0.1320468E+00
        -11   -1    0    0    0    0  0.00000000000E+00  0.00000000000E+00  0.45593999997E+02  0.45594000000E+02  0.51100000000E-03 0. -1.
         11   -1    0    0    0    0 -0.00000000000E+00 -0.00000000000E+00 -0.45593999997E+02  0.45594000000E+02  0.51100000000E-03 0.  1.
    9900012    2    1    2    0    0  0.40646914642E+02  0.63922624538E+01 -0.18332507299E+02  0.46142317487E+02  0.99999974986E+01 0.  0.
         12    1    1    2    0    0 -0.40646914642E+02 -0.63922624538E+01  0.18332507299E+02  0.45045682513E+02  0.00000000000E+00 0. -1.
         11    1    3    3    0    0  0.22966672264E+02 -0.10167882888E+00 -0.85401116105E+01  0.24503303451E+02  0.51100000000E-03 0. -1.
        -11    1    3    3    0    0  0.14630370520E+02  0.36421902621E+01 -0.70521483709E+01  0.16644701510E+02  0.51100000000E-03 0.  1.
         12    1    3    3    0    0  0.30498718587E+01  0.28517510206E+01 -0.27402473178E+01  0.49943125254E+01  0.00000000000E+00 0. -1.
</event>
<event>
 7    1  0.5743890E-009  0.4614232E+02  0.7816164E-02  0.1320468E+00
        -11   -1    0    0    0    0  0.00000000000E+00  0.00000000000E+00  0.45593999997E+02  0.45594000000E+02  0.51100000000E-03 0. -1.
         11   -1    0    0    0    0 -0.00000000000E+00 -0.00000000000E+00 -0.45593999997E+02  0.45594000000E+02  0.51100000000E-03 0.  1.
    9900012    2    1    2    0    0  0.32486749090E+02 -0.30198210946E+01 -0.31058094639E+02  0.46142318426E+02  0.10000006064E+02 0.  0.
         12    1    1    2    0    0 -0.32486749090E+02  0.30198210946E+01  0.31058094639E+02  0.45045681574E+02  0.00000000000E+00 0. -1.
         11    1    3    3    0    0  0.81518403464E+01  0.14448488421E+01 -0.11837518981E+02  0.14445308758E+02  0.51100000000E-03 0. -1.
        -11    1    3    3    0    0  0.16377416658E+00 -0.63604620557E+00 -0.95742410836E+00  0.11610503597E+01  0.51100000000E-03 0.  1.
         12    1    3    3    0    0  0.24171134577E+02 -0.38286237311E+01 -0.18263151549E+02  0.30535959309E+02  0.00000000000E+00 0. -1.
</event>
<event>
 7    1  0.5743890E-009  0.4614232E+02  0.7816164E-02  0.1320468E+00
        -11   -1    0    0    0    0  0.00000000000E+00  0.00000000000E+00  0.45593999997E+02  0.45594000000E+02  0.51100000000E-03 0. -1.
         11   -1    0    0    0    0 -0.00000000000E+00 -0.00000000000E+00 -0.45593999997E+02  0.45594000000E+02  0.51100000000E-03 0.  1.
    9900012    2    1    2    0    0 -0.10893271950E+02 -0.21293007669E+02 -0.38171428380E+02  0.46142317699E+02  0.99999994302E+01 0.  0.
         12    1    1    2    0    0  0.10893271950E+02  0.21293007669E+02  0.38171428380E+02  0.45045682301E+02  0.00000000000E+00 0. -1.
         11    1    3    3    0    0  0.35767701506E+00 -0.50902000307E+01 -0.96761732991E+01  0.10939213828E+02  0.51100000000E-03 0. -1.
        -11    1    3    3    0    0 -0.10024470269E+02 -0.14655952239E+02 -0.21241491146E+02  0.27685517632E+02  0.51100000000E-03 0.  1.
         12    1    3    3    0    0 -0.12264786960E+01 -0.15468554002E+01 -0.72537639355E+01  0.75175862385E+01  0.00000000000E+00 0. -1.
</event>
<event>
 7    1  0.5743890E-009  0.4614232E+02  0.7816164E-02  0.1320468E+00
        -11   -1    0    0    0    0  0.00000000000E+00  0.00000000000E+00  0.45593999997E+02  0.45594000000E+02  0.51100000000E-03 0. -1.
         11   -1    0    0    0    0 -0.00000000000E+00 -0.00000000000E+00 -0.45593999997E+02  0.45594000000E+02  0.51100000000E-03 0.  1.
    9900012    2    1    2    0    0  0.10637649999E+00 -0.16637246074E+02  0.41860533118E+02  0.46142317567E+02  0.99999982344E+01 0.  0.
        -12    1    1    2    0    0 -0.10637649999E+00  0.16637246074E+02 -0.41860533118E+02  0.45045682433E+02  0.00000000000E+00 0.  1.
         11    1    3    3    0    0  0.42468840431E+01 -0.11439580914E+02  0.23518939246E+02  0.26496047612E+02  0.51100000000E-03 0. -1.
        -11    1    3    3    0    0 -0.14659129919E+01 -0.32652698422E+01  0.74385732421E+01  0.82548931054E+01  0.51100000000E-03 0.  1.
         12    1    3    3    0    0 -0.26745945512E+01 -0.19323953185E+01  0.10903020630E+02  0.11391376850E+02  0.00000000000E+00 0. -1.
</event>
<event>
 7    1  0.5743890E-009  0.4614231E+02  0.7816164E-02  0.1320468E+00
        -11   -1    0    0    0    0  0.00000000000E+00  0.00000000000E+00  0.45593999997E+02  0.45594000000E+02  0.51100000000E-03 0. -1.
         11   -1    0    0    0    0 -0.00000000000E+00 -0.00000000000E+00 -0.45593999997E+02  0.45594000000E+02  0.51100000000E-03 0.  1.
    9900012    2    1    2    0    0  0.94841194217E+01 -0.21214823065E+02  0.38588821963E+02  0.46142307427E+02  0.99999057635E+01 0.  0.
        -12    1    1    2    0    0 -0.94841194217E+01  0.21214823065E+02 -0.38588821963E+02  0.45045692573E+02  0.00000000000E+00 0.  1.
         11    1    3    3    0    0  0.18812130512E+01 -0.15803790268E+01  0.46393585818E+01  0.52497817787E+01  0.51100000000E-03 0. -1.
        -11    1    3    3    0    0  0.40840015340E+01 -0.38408897169E+01  0.41213133441E+01  0.69582128660E+01  0.51100000000E-03 0.  1.
        -12    1    3    3    0    0  0.35189048366E+01 -0.15793554322E+02  0.29828150037E+02  0.33934312782E+02  0.00000000000E+00 0.  1.
</event>
<event>
 7    1  0.5743890E-009  0.4614232E+02  0.7816164E-02  0.1320468E+00
        -11   -1    0    0    0    0  0.00000000000E+00  0.00000000000E+00  0.45593999997E+02  0.45594000000E+02  0.51100000000E-03 0.  1.
         11   -1    0    0    0    0 -0.00000000000E+00 -0.00000000000E+00 -0.45593999997E+02  0.45594000000E+02  0.51100000000E-03 0. -1.
    9900012    2    1    2    0    0 -0.18629871208E+02 -0.40526591891E+02  0.62957689517E+01  0.46142318096E+02  0.10000003052E+02 0.  0.
        -12    1    1    2    0    0  0.18629871208E+02  0.40526591891E+02 -0.62957689517E+01  0.45045681904E+02  0.00000000000E+00 0.  1.
         11    1    3    3    0    0 -0.75028448059E+00 -0.11258058206E+01 -0.17234812466E+00  0.13638437171E+01  0.51100000000E-03 0. -1.
        -11    1    3    3    0    0 -0.15228439141E+02 -0.31719103194E+02  0.14243419501E+01  0.35214139438E+02  0.51100000000E-03 0.  1.
        -12    1    3    3    0    0 -0.26511475869E+01 -0.76816828763E+01  0.50437751263E+01  0.95643349410E+01  0.00000000000E+00 0.  1.
</event>
<event>
 7    1  0.5743890E-009  0.4614231E+02  0.7816164E-02  0.1320468E+00
        -11   -1    0    0    0    0  0.00000000000E+00  0.00000000000E+00  0.45593999997E+02  0.45594000000E+02  0.51100000000E-03 0. -1.
         11   -1    0    0    0    0 -0.00000000000E+00 -0.00000000000E+00 -0.45593999997E+02  0.45594000000E+02  0.51100000000E-03 0.  1.
    9900012    2    1    2    0    0 -0.17122057848E+02  0.32626396141E+01 -0.41536782694E+02  0.46142312096E+02  0.99999483404E+01 0.  0.
         12    1    1    2    0    0  0.17122057848E+02 -0.32626396141E+01  0.41536782694E+02  0.45045687904E+02  0.00000000000E+00 0. -1.
         11    1    3    3    0    0 -0.30996952636E+01 -0.26764662040E+01 -0.92033857112E+01  0.10073424982E+02  0.51100000000E-03 0. -1.
        -11    1    3    3    0    0 -0.94646665830E+01  0.27881791988E+01 -0.25007283262E+02  0.26883416323E+02  0.51100000000E-03 0.  1.
        -12    1    3    3    0    0 -0.45576960015E+01  0.31509266193E+01 -0.73261137208E+01  0.91854707909E+01  0.00000000000E+00 0.  1.
</event>
<event>
 7    1  0.5743890E-009  0.4614232E+02  0.7816164E-02  0.1320468E+00
        -11   -1    0    0    0    0  0.00000000000E+00  0.00000000000E+00  0.45593999997E+02  0.45594000000E+02  0.51100000000E-03 0.  1.
         11   -1    0    0    0    0 -0.00000000000E+00 -0.00000000000E+00 -0.45593999997E+02  0.45594000000E+02  0.51100000000E-03 0. -1.
    9900012    2    1    2    0    0  0.24109295585E+02 -0.36347022420E+02  0.11258300229E+02  0.46142317671E+02  0.99999991810E+01 0.  0.
         12    1    1    2    0    0 -0.24109295585E+02  0.36347022420E+02 -0.11258300229E+02  0.45045682329E+02  0.00000000000E+00 0. -1.
         11    1    3    3    0    0  0.63773641082E+01 -0.68214000992E+01  0.50312908980E+01  0.10607363510E+02  0.51100000000E-03 0. -1.
        -11    1    3    3    0    0  0.37576362450E+01 -0.79183880180E+01  0.42107492409E+01  0.97237394239E+01  0.51100000000E-03 0.  1.
         12    1    3    3    0    0  0.13974295232E+02 -0.21607234303E+02  0.20162600902E+01  0.25811214737E+02  0.00000000000E+00 0. -1.
</event>
<event>
 7    1  0.5743890E-009  0.4614232E+02  0.7816164E-02  0.1320468E+00
        -11   -1    0    0    0    0  0.00000000000E+00  0.00000000000E+00  0.45593999997E+02  0.45594000000E+02  0.51100000000E-03 0. -1.
         11   -1    0    0    0    0 -0.00000000000E+00 -0.00000000000E+00 -0.45593999997E+02  0.45594000000E+02  0.51100000000E-03 0.  1.
    9900012    2    1    2    0    0  0.58504320650E+01 -0.35201044494E+02 -0.27491316363E+02  0.46142316919E+02  0.99999923208E+01 0.  0.
         12    1    1    2    0    0 -0.58504320650E+01  0.35201044494E+02  0.27491316363E+02  0.45045683081E+02  0.00000000000E+00 0. -1.
         11    1    3    3    0    0 -0.16840854279E+01 -0.72634812985E+01 -0.50681682297E+01  0.90155772842E+01  0.51100000000E-03 0. -1.
        -11    1    3    3    0    0 -0.37591691738E+00 -0.49160027636E+01 -0.18886436996E+01  0.52797132484E+01  0.51100000000E-03 0.  1.
         12    1    3    3    0    0  0.79104344103E+01 -0.23021560432E+02 -0.20534504434E+02  0.31847026386E+02  0.00000000000E+00 0. -1.
</event>
<event>
 7    1  0.5743890E-009  0.4614232E+02  0.7816164E-02  0.1320468E+00
        -11   -1    0    0    0    0  0.00000000000E+00  0.00000000000E+00  0.45593999997E+02  0.45594000000E+02  0.51100000000E-03 0. -1.
         11   -1    0    0    0    0 -0.00000000000E+00 -0.00000000000E+00 -0.45593999997E+02  0.45594000000E+02  0.51100000000E-03 0.  1.
    9900012    2    1    2    0    0 -0.39434140735E+01 -0.19886739844E+02  0.40225372782E+02  0.46142317059E+02  0.99999935939E+01 0.  0.
        -12    1    1    2    0    0  0.39434140735E+01  0.19886739844E+02 -0.40225372782E+02  0.45045682941E+02  0.00000000000E+00 0.  1.
         11    1    3    3    0    0 -0.11693403782E+01 -0.54163785365E+01  0.20006608171E+02  0.20759790080E+02  0.51100000000E-03 0. -1.
        -11    1    3    3    0    0 -0.68128965395E-01  0.10118123970E+00  0.15092964514E+01  0.15142176985E+01  0.51100000000E-03 0.  1.
        -12    1    3    3    0    0 -0.27059447299E+01 -0.14571542547E+02  0.18709468159E+02  0.23868309280E+02  0.00000000000E+00 0.  1.
</event>
<event>
 7    1  0.5743890E-009  0.4614232E+02  0.7816164E-02  0.1320468E+00
        -11   -1    0    0    0    0  0.00000000000E+00  0.00000000000E+00  0.45593999997E+02  0.45594000000E+02  0.51100000000E-03 0. -1.
         11   -1    0    0    0    0 -0.00000000000E+00 -0.00000000000E+00 -0.45593999997E+02  0.45594000000E+02  0.51100000000E-03 0.  1.
    9900012    2    1    2    0    0 -0.20530302095E+01  0.33507664327E+02  0.30035562748E+02  0.46142317284E+02  0.99999956503E+01 0.  0.
        -12    1    1    2    0    0  0.20530302095E+01 -0.33507664327E+02 -0.30035562748E+02  0.45045682716E+02  0.00000000000E+00 0.  1.
         11    1    3    3    0    0 -0.13697858606E+01  0.22973133190E+01  0.24424589631E+01  0.36220943993E+01  0.51100000000E-03 0. -1.
        -11    1    3    3    0    0 -0.75597339437E-01  0.18746349128E+01  0.54403714739E+01  0.57547904436E+01  0.51100000000E-03 0.  1.
        -12    1    3    3    0    0 -0.60764700944E+00  0.29335716096E+02  0.22152732311E+02  0.36765432441E+02  0.00000000000E+00 0.  1.
</event>
<event>
 7    1  0.5743890E-009  0.4614232E+02  0.7816164E-02  0.1320468E+00
        -11   -1    0    0    0    0  0.00000000000E+00  0.00000000000E+00  0.45593999997E+02  0.45594000000E+02  0.51100000000E-03 0.  1.
         11   -1    0    0    0    0 -0.00000000000E+00 -0.00000000000E+00 -0.45593999997E+02  0.45594000000E+02  0.51100000000E-03 0. -1.
    9900012    2    1    2    0    0  0.29405301502E+02  0.23685228960E+02 -0.24565253110E+02  0.46142317769E+02  0.10000000069E+02 0.  0.
         12    1    1    2    0    0 -0.29405301502E+02 -0.23685228960E+02  0.24565253110E+02  0.45045682231E+02  0.00000000000E+00 0. -1.
         11    1    3    3    0    0  0.90071525714E+01  0.60863792832E+01 -0.33593684584E+01  0.11377968488E+02  0.51100000000E-03 0. -1.
        -11    1    3    3    0    0  0.16167210998E+01 -0.24059208854E+00 -0.10475812475E+01  0.19414165959E+01  0.51100000000E-03 0.  1.
        -12    1    3    3    0    0  0.18781427831E+02  0.17839441765E+02 -0.20158303404E+02  0.32822932684E+02  0.00000000000E+00 0.  1.
</event>
<event>
 7    1  0.5743890E-009  0.4614232E+02  0.7816164E-02  0.1320468E+00
        -11   -1    0    0    0    0  0.00000000000E+00  0.00000000000E+00  0.45593999997E+02  0.45594000000E+02  0.51100000000E-03 0. -1.
         11   -1    0    0    0    0 -0.00000000000E+00 -0.00000000000E+00 -0.45593999997E+02  0.45594000000E+02  0.51100000000E-03 0.  1.
    9900012    2    1    2    0    0  0.24250609713E+01 -0.34314583399E+02  0.29081643308E+02  0.46142317276E+02  0.99999955750E+01 0.  0.
        -12    1    1    2    0    0 -0.24250609713E+01  0.34314583399E+02 -0.29081643308E+02  0.45045682724E+02  0.00000000000E+00 0.  1.
         11    1    3    3    0    0 -0.15579387696E+01 -0.49007497468E+01  0.34747502540E+01  0.62063202366E+01  0.51100000000E-03 0. -1.
        -11    1    3    3    0    0 -0.21056403304E+01 -0.95879082307E+01  0.96795912332E+01  0.13786086905E+02  0.51100000000E-03 0.  1.
         12    1    3    3    0    0  0.60886400713E+01 -0.19825925422E+02  0.15927301821E+02  0.26149910135E+02  0.00000000000E+00 0. -1.
</event>
<event>
 7    1  0.6528397E-009  0.4614232E+02  0.7816164E-02  0.1320468E+00
        -11   -1    0    0    0    0  0.00000000000E+00  0.00000000000E+00  0.45593999997E+02  0.45594000000E+02  0.51100000000E-03 0. -1.
         11   -1    0    0    0    0 -0.00000000000E+00 -0.00000000000E+00 -0.45593999997E+02  0.45594000000E+02  0.51100000000E-03 0.  1.
    9900012    2    1    2    0    0  0.16321933641E+00 -0.18830246513E+01  0.45006011987E+02  0.46142317218E+02  0.99999950453E+01 0.  0.
        -12    1    1    2    0    0 -0.16321933641E+00  0.18830246513E+01 -0.45006011987E+02  0.45045682782E+02  0.00000000000E+00 0.  1.
         11    1    3    3    0    0  0.63727703282E+00 -0.31047043856E+00  0.15731266840E+00  0.72612770677E+00  0.51100000000E-03 0. -1.
        -11    1    3    3    0    0 -0.23661317042E+01  0.13541635261E+01  0.91425179482E+01  0.95403339979E+01  0.51100000000E-03 0.  1.
         12    1    3    3    0    0  0.18920740078E+01 -0.29267177389E+01  0.35706181370E+02  0.35875855513E+02  0.00000000000E+00 0. -1.
</event>
<event>
 7    1  0.5743890E-009  0.4614232E+02  0.7816164E-02  0.1320468E+00
        -11   -1    0    0    0    0  0.00000000000E+00  0.00000000000E+00  0.45593999997E+02  0.45594000000E+02  0.51100000000E-03 0. -1.
         11   -1    0    0    0    0 -0.00000000000E+00 -0.00000000000E+00 -0.45593999997E+02  0.45594000000E+02  0.51100000000E-03 0.  1.
    9900012    2    1    2    0    0 -0.17071862944E+02  0.22733722033E+02 -0.34940558144E+02  0.46142320682E+02  0.10000026632E+02 0.  0.
         12    1    1    2    0    0  0.17071862944E+02 -0.22733722033E+02  0.34940558144E+02  0.45045679318E+02  0.00000000000E+00 0. -1.
         11    1    3    3    0    0 -0.13245346397E+02  0.10531471582E+02 -0.19140058028E+02  0.25547855418E+02  0.51100000000E-03 0. -1.
        -11    1    3    3    0    0 -0.11094057929E+01  0.31976567407E+01 -0.21239458874E+01  0.39958648924E+01  0.51100000000E-03 0.  1.
        -12    1    3    3    0    0 -0.27171107539E+01  0.90045937103E+01 -0.13676554228E+02  0.16598600371E+02  0.00000000000E+00 0.  1.
</event>
<event>
 7    1  0.5743890E-009  0.4614232E+02  0.7816164E-02  0.1320468E+00
        -11   -1    0    0    0    0  0.00000000000E+00  0.00000000000E+00  0.45593999997E+02  0.45594000000E+02  0.51100000000E-03 0. -1.
         11   -1    0    0    0    0 -0.00000000000E+00 -0.00000000000E+00 -0.45593999997E+02  0.45594000000E+02  0.51100000000E-03 0.  1.
    9900012    2    1    2    0    0 -0.39617429358E+01 -0.49869166723E+01  0.44593146716E+02  0.46142317865E+02  0.10000000949E+02 0.  0.
        -12    1    1    2    0    0  0.39617429358E+01  0.49869166723E+01 -0.44593146716E+02  0.45045682135E+02  0.00000000000E+00 0.  1.
         11    1    3    3    0    0  0.10278926565E+01 -0.36220673417E+01  0.13922149506E+02  0.14422280758E+02  0.51100000000E-03 0. -1.
        -11    1    3    3    0    0 -0.11705038676E+01  0.12664629899E+01  0.18533855779E+01  0.25316094032E+01  0.51100000000E-03 0.  1.
         12    1    3    3    0    0 -0.38191317247E+01 -0.26313123205E+01  0.28817611632E+02  0.29188427704E+02  0.00000000000E+00 0. -1.
</event>
<event>
 7    1  0.5743890E-009  0.4614232E+02  0.7816164E-02  0.1320468E+00
        -11   -1    0    0    0    0  0.00000000000E+00  0.00000000000E+00  0.45593999997E+02  0.45594000000E+02  0.51100000000E-03 0. -1.
         11   -1    0    0    0    0 -0.00000000000E+00 -0.00000000000E+00 -0.45593999997E+02  0.45594000000E+02  0.51100000000E-03 0.  1.
    9900012    2    1    2    0    0 -0.98712043808E+01  0.66613087527E+01  0.43443064166E+02  0.46142317251E+02  0.99999953442E+01 0.  0.
        -12    1    1    2    0    0  0.98712043808E+01 -0.66613087527E+01 -0.43443064166E+02  0.45045682749E+02  0.00000000000E+00 0.  1.
         11    1    3    3    0    0 -0.92065691761E+01  0.29017607820E+01  0.28823654336E+02  0.30397108105E+02  0.51100000000E-03 0. -1.
        -11    1    3    3    0    0 -0.19447517320E+01  0.18824183350E+01  0.11888583248E+02  0.12192783521E+02  0.51100000000E-03 0.  1.
        -12    1    3    3    0    0  0.12801165273E+01  0.18771296357E+01  0.27308265824E+01  0.35524256243E+01  0.00000000000E+00 0.  1.
</event>
<event>
 7    1  0.5743890E-009  0.4614232E+02  0.7816164E-02  0.1320468E+00
        -11   -1    0    0    0    0  0.00000000000E+00  0.00000000000E+00  0.45593999997E+02  0.45594000000E+02  0.51100000000E-03 0. -1.
         11   -1    0    0    0    0 -0.00000000000E+00 -0.00000000000E+00 -0.45593999997E+02  0.45594000000E+02  0.51100000000E-03 0.  1.
    9900012    2    1    2    0    0  0.38247061183E+02  0.18709249462E+02 -0.14705092260E+02  0.46142318265E+02  0.10000004594E+02 0.  0.
         12    1    1    2    0    0 -0.38247061183E+02 -0.18709249462E+02  0.14705092260E+02  0.45045681735E+02  0.00000000000E+00 0. -1.
         11    1    3    3    0    0  0.12988139113E+01  0.34176732505E+01 -0.46162109857E+00  0.36851733098E+01  0.51100000000E-03 0. -1.
        -11    1    3    3    0    0  0.23310370818E+02  0.94051393473E+01 -0.93196106049E+01  0.26808304234E+02  0.51100000000E-03 0.  1.
         12    1    3    3    0    0  0.13637876454E+02  0.58864368640E+01 -0.49238605569E+01  0.15648840721E+02  0.00000000000E+00 0. -1.
</event>
<event>
 7    1  0.5743890E-009  0.4614232E+02  0.7816164E-02  0.1320468E+00
        -11   -1    0    0    0    0  0.00000000000E+00  0.00000000000E+00  0.45593999997E+02  0.45594000000E+02  0.51100000000E-03 0.  1.
         11   -1    0    0    0    0 -0.00000000000E+00 -0.00000000000E+00 -0.45593999997E+02  0.45594000000E+02  0.51100000000E-03 0. -1.
    9900012    2    1    2    0    0 -0.27002797882E+02  0.12984385279E+02 -0.33635815318E+02  0.46142318447E+02  0.10000006250E+02 0.  0.
         12    1    1    2    0    0  0.27002797882E+02 -0.12984385279E+02  0.33635815318E+02  0.45045681553E+02  0.00000000000E+00 0. -1.
         11    1    3    3    0    0 -0.83368202251E+01  0.62807342127E+01 -0.72612819496E+01  0.12715203873E+02  0.51100000000E-03 0.  1.
        -11    1    3    3    0    0 -0.18249567039E+02  0.52507799958E+01 -0.24906476833E+02  0.31320120947E+02  0.51100000000E-03 0. -1.
         12    1    3    3    0    0 -0.41641061796E+00  0.14528710706E+01 -0.14680565351E+01  0.21069936262E+01  0.00000000000E+00 0. -1.
</event>
<event>
 7    1  0.5743890E-009  0.4614232E+02  0.7816164E-02  0.1320468E+00
        -11   -1    0    0    0    0  0.00000000000E+00  0.00000000000E+00  0.45593999997E+02  0.45594000000E+02  0.51100000000E-03 0. -1.
         11   -1    0    0    0    0 -0.00000000000E+00 -0.00000000000E+00 -0.45593999997E+02  0.45594000000E+02  0.51100000000E-03 0.  1.
    9900012    2    1    2    0    0 -0.89086403879E+01  0.12683662072E+02 -0.42295084466E+02  0.46142319551E+02  0.10000016324E+02 0.  0.
         12    1    1    2    0    0  0.89086403879E+01 -0.12683662072E+02  0.42295084466E+02  0.45045680449E+02  0.00000000000E+00 0. -1.
         11    1    3    3    0    0 -0.87030758902E+01  0.11465571429E+02 -0.36386634885E+02  0.39130423671E+02  0.51100000000E-03 0. -1.
        -11    1    3    3    0    0 -0.14188896278E+01 -0.48143293458E+00 -0.35985733591E+01  0.38980451419E+01  0.51100000000E-03 0.  1.
         12    1    3    3    0    0  0.12133251300E+01  0.16995235776E+01 -0.23098762221E+01  0.31138507388E+01  0.00000000000E+00 0. -1.
</event>
<event>
 7    1  0.5743890E-009  0.4614232E+02  0.7816164E-02  0.1320468E+00
        -11   -1    0    0    0    0  0.00000000000E+00  0.00000000000E+00  0.45593999997E+02  0.45594000000E+02  0.51100000000E-03 0. -1.
         11   -1    0    0    0    0 -0.00000000000E+00 -0.00000000000E+00 -0.45593999997E+02  0.45594000000E+02  0.51100000000E-03 0.  1.
    9900012    2    1    2    0    0 -0.31424613251E+02  0.33930476900E+01 -0.32095083725E+02  0.46142317744E+02  0.99999998423E+01 0.  0.
         12    1    1    2    0    0  0.31424613251E+02 -0.33930476900E+01  0.32095083725E+02  0.45045682256E+02  0.00000000000E+00 0. -1.
         11    1    3    3    0    0 -0.36137258096E+00  0.11611106874E+01 -0.81904938649E+00  0.14661549473E+01  0.51100000000E-03 0. -1.
        -11    1    3    3    0    0 -0.11961501946E+02  0.22474582463E+01 -0.79960198685E+01  0.14562449361E+02  0.51100000000E-03 0.  1.
         12    1    3    3    0    0 -0.19101738724E+02 -0.15521243760E-01 -0.23280014470E+02  0.30113713436E+02  0.00000000000E+00 0. -1.
</event>
<event>
 7    1  0.5743890E-009  0.4614232E+02  0.7816164E-02  0.1320468E+00
        -11   -1    0    0    0    0  0.00000000000E+00  0.00000000000E+00  0.45593999997E+02  0.45594000000E+02  0.51100000000E-03 0. -1.
         11   -1    0    0    0    0 -0.00000000000E+00 -0.00000000000E+00 -0.45593999997E+02  0.45594000000E+02  0.51100000000E-03 0.  1.
    9900012    2    1    2    0    0  0.37719810290E+02  0.20962303563E+02 -0.12919412320E+02  0.46142317924E+02  0.10000001487E+02 0.  0.
         12    1    1    2    0    0 -0.37719810290E+02 -0.20962303563E+02  0.12919412320E+02  0.45045682076E+02  0.00000000000E+00 0. -1.
         11    1    3    3    0    0  0.76120268898E+01  0.25027150688E+01  0.36509540072E+00  0.80212113175E+01  0.51100000000E-03 0. -1.
        -11    1    3    3    0    0  0.63266624331E+01  0.14851498553E+01 -0.19919547547E+01  0.67970737557E+01  0.51100000000E-03 0.  1.
        -12    1    3    3    0    0  0.23781120967E+02  0.16974438639E+02 -0.11292552966E+02  0.31324032851E+02  0.00000000000E+00 0.  1.
</event>
<event>
 7    1  0.5743890E-009  0.4614232E+02  0.7816164E-02  0.1320468E+00
        -11   -1    0    0    0    0  0.00000000000E+00  0.00000000000E+00  0.45593999997E+02  0.45594000000E+02  0.51100000000E-03 0. -1.
         11   -1    0    0    0    0 -0.00000000000E+00 -0.00000000000E+00 -0.45593999997E+02  0.45594000000E+02  0.51100000000E-03 0.  1.
    9900012    2    1    2    0    0  0.25155396898E+02  0.35622081652E+02  0.11286579524E+02  0.46142316836E+02  0.99999915655E+01 0.  0.
        -12    1    1    2    0    0 -0.25155396898E+02 -0.35622081652E+02 -0.11286579524E+02  0.45045683164E+02  0.00000000000E+00 0.  1.
         11    1    3    3    0    0  0.10597601821E+02  0.20862157365E+02  0.64914015874E+01  0.24283267266E+02  0.51100000000E-03 0. -1.
        -11    1    3    3    0    0  0.97084153489E+01  0.94469880010E+01  0.55233884789E+01  0.14628968912E+02  0.51100000000E-03 0.  1.
         12    1    3    3    0    0  0.48493797279E+01  0.53129362864E+01 -0.72821054243E+00  0.72300806581E+01  0.00000000000E+00 0. -1.
</event>
<event>
 7    1  0.5743890E-009  0.4614232E+02  0.7816164E-02  0.1320468E+00
        -11   -1    0    0    0    0  0.00000000000E+00  0.00000000000E+00  0.45593999997E+02  0.45594000000E+02  0.51100000000E-03 0. -1.
         11   -1    0    0    0    0 -0.00000000000E+00 -0.00000000000E+00 -0.45593999997E+02  0.45594000000E+02  0.51100000000E-03 0.  1.
    9900012    2    1    2    0    0 -0.33203699996E+02 -0.83367406082E+01  0.29276724402E+02  0.46142317309E+02  0.99999958799E+01 0.  0.
        -12    1    1    2    0    0  0.33203699996E+02  0.83367406082E+01 -0.29276724402E+02  0.45045682691E+02  0.00000000000E+00 0.  1.
         11    1    3    3    0    0 -0.18594971785E+02 -0.65624409290E+01  0.17123795836E+02  0.26116335707E+02  0.51100000000E-03 0. -1.
        -11    1    3    3    0    0 -0.45641688446E+01  0.11833314450E+00  0.75340357468E+01  0.88095025325E+01  0.51100000000E-03 0.  1.
        -12    1    3    3    0    0 -0.10044559366E+02 -0.18926328237E+01  0.46188928189E+01  0.11216479070E+02  0.00000000000E+00 0.  1.
</event>
<event>
 7    1  0.5743890E-009  0.4614232E+02  0.7816164E-02  0.1320468E+00
        -11   -1    0    0    0    0  0.00000000000E+00  0.00000000000E+00  0.45593999997E+02  0.45594000000E+02  0.51100000000E-03 0. -1.
         11   -1    0    0    0    0 -0.00000000000E+00 -0.00000000000E+00 -0.45593999997E+02  0.45594000000E+02  0.51100000000E-03 0.  1.
    9900012    2    1    2    0    0  0.45938801773E+00 -0.26850349609E+02  0.36165745236E+02  0.46142318298E+02  0.10000004897E+02 0.  0.
        -12    1    1    2    0    0 -0.45938801773E+00  0.26850349609E+02 -0.36165745236E+02  0.45045681702E+02  0.00000000000E+00 0.  1.
         11    1    3    3    0    0  0.11982823219E+01 -0.12017926703E+02  0.10474989127E+02  0.15987239920E+02  0.51100000000E-03 0.  1.
        -11    1    3    3    0    0 -0.30878845607E-01 -0.14554793511E+02  0.25515129071E+02  0.29374560072E+02  0.51100000000E-03 0. -1.
         12    1    3    3    0    0 -0.70801545861E+00 -0.27762939484E+00  0.17562703812E+00  0.78051830666E+00  0.00000000000E+00 0. -1.
</event>
<event>
 7    1  0.5743890E-009  0.4614231E+02  0.7816164E-02  0.1320468E+00
        -11   -1    0    0    0    0  0.00000000000E+00  0.00000000000E+00  0.45593999997E+02  0.45594000000E+02  0.51100000000E-03 0. -1.
         11   -1    0    0    0    0 -0.00000000000E+00 -0.00000000000E+00 -0.45593999997E+02  0.45594000000E+02  0.51100000000E-03 0.  1.
    9900012    2    1    2    0    0  0.42688768942E+01  0.42936566181E+02 -0.12936062939E+02  0.46142314860E+02  0.99999735468E+01 0.  0.
         12    1    1    2    0    0 -0.42688768942E+01 -0.42936566181E+02  0.12936062939E+02  0.45045685140E+02  0.00000000000E+00 0. -1.
         11    1    3    3    0    0  0.72568563038E+00  0.13728805127E+02 -0.71239023379E+00  0.13766416017E+02  0.51100000000E-03 0. -1.
        -11    1    3    3    0    0  0.39573858265E+00  0.21434654923E+02 -0.72779728192E+01  0.22640007273E+02  0.51100000000E-03 0.  1.
         12    1    3    3    0    0  0.31474526812E+01  0.77731061310E+01 -0.49456998862E+01  0.97358915703E+01  0.00000000000E+00 0. -1.
</event>
<event>
 7    1  0.5743890E-009  0.4614232E+02  0.7816164E-02  0.1320468E+00
        -11   -1    0    0    0    0  0.00000000000E+00  0.00000000000E+00  0.45593999997E+02  0.45594000000E+02  0.51100000000E-03 0. -1.
         11   -1    0    0    0    0 -0.00000000000E+00 -0.00000000000E+00 -0.45593999997E+02  0.45594000000E+02  0.51100000000E-03 0.  1.
    9900012    2    1    2    0    0 -0.44621828285E+01 -0.16885549680E+02  0.41522049689E+02  0.46142317921E+02  0.10000001454E+02 0.  0.
        -12    1    1    2    0    0  0.44621828285E+01  0.16885549680E+02 -0.41522049689E+02  0.45045682079E+02  0.00000000000E+00 0.  1.
         11    1    3    3    0    0 -0.72881550200E+00 -0.56549052869E+00  0.26581357699E+00  0.96000452751E+00  0.51100000000E-03 0. -1.
        -11    1    3    3    0    0 -0.31161110118E+01 -0.13814206003E+02  0.25083303317E+02  0.28804765940E+02  0.51100000000E-03 0.  1.
         12    1    3    3    0    0 -0.61725631473E+00 -0.25058531489E+01  0.16172932796E+02  0.16377547453E+02  0.00000000000E+00 0. -1.
</event>
<event>
 7    1  0.5743890E-009  0.4614232E+02  0.7816164E-02  0.1320468E+00
        -11   -1    0    0    0    0  0.00000000000E+00  0.00000000000E+00  0.45593999997E+02  0.45594000000E+02  0.51100000000E-03 0. -1.
         11   -1    0    0    0    0 -0.00000000000E+00 -0.00000000000E+00 -0.45593999997E+02  0.45594000000E+02  0.51100000000E-03 0.  1.
    9900012    2    1    2    0    0  0.17014341688E+02  0.17092519267E+02  0.38045648964E+02  0.46142318264E+02  0.10000004583E+02 0.  0.
        -12    1    1    2    0    0 -0.17014341688E+02 -0.17092519267E+02 -0.38045648964E+02  0.45045681736E+02  0.00000000000E+00 0.  1.
         11    1    3    3    0    0  0.44042373813E+01  0.41112746758E+01  0.14769688148E+02  0.15951287554E+02  0.51100000000E-03 0. -1.
        -11    1    3    3    0    0  0.10745796592E+02  0.66872678766E+01  0.14928304037E+02  0.19571559921E+02  0.51100000000E-03 0.  1.
        -12    1    3    3    0    0  0.18643077147E+01  0.62939767149E+01  0.83476567796E+01  0.10619470790E+02  0.00000000000E+00 0.  1.
</event>
<event>
 7    1  0.5743890E-009  0.4614232E+02  0.7816164E-02  0.1320468E+00
        -11   -1    0    0    0    0  0.00000000000E+00  0.00000000000E+00  0.45593999997E+02  0.45594000000E+02  0.51100000000E-03 0. -1.
         11   -1    0    0    0    0 -0.00000000000E+00 -0.00000000000E+00 -0.45593999997E+02  0.45594000000E+02  0.51100000000E-03 0.  1.
    9900012    2    1    2    0    0 -0.25931550371E+02 -0.61127739366E+01 -0.36322199520E+02  0.46142317767E+02  0.10000000054E+02 0.  0.
         12    1    1    2    0    0  0.25931550371E+02  0.61127739366E+01  0.36322199520E+02  0.45045682233E+02  0.00000000000E+00 0. -1.
         11    1    3    3    0    0 -0.67150469879E+01 -0.33768763417E+01 -0.10256666193E+02  0.12715909387E+02  0.51100000000E-03 0. -1.
        -11    1    3    3    0    0 -0.12275073476E+02 -0.54964268111E+01 -0.17160471586E+02  0.21802979655E+02  0.51100000000E-03 0.  1.
         12    1    3    3    0    0 -0.69414299070E+01  0.27605292162E+01 -0.89050617418E+01  0.11623428725E+02  0.00000000000E+00 0. -1.
</event>
<event>
 7    1  0.5743890E-009  0.4614233E+02  0.7816164E-02  0.1320468E+00
        -11   -1    0    0    0    0  0.00000000000E+00  0.00000000000E+00  0.45593999997E+02  0.45594000000E+02  0.51100000000E-03 0. -1.
         11   -1    0    0    0    0 -0.00000000000E+00 -0.00000000000E+00 -0.45593999997E+02  0.45594000000E+02  0.51100000000E-03 0.  1.
    9900012    2    1    2    0    0 -0.18894420700E+02  0.14208490623E+02  0.38343605797E+02  0.46142329343E+02  0.10000105615E+02 0.  0.
        -12    1    1    2    0    0  0.18894420700E+02 -0.14208490623E+02 -0.38343605797E+02  0.45045670657E+02  0.00000000000E+00 0.  1.
         11    1    3    3    0    0 -0.68260337853E+01  0.81568361633E+01  0.14675591738E+02  0.18124616039E+02  0.51100000000E-03 0. -1.
        -11    1    3    3    0    0 -0.52678728419E+00  0.51820238780E+00 -0.33804343265E+00  0.81259595186E+00  0.51100000000E-03 0.  1.
         12    1    3    3    0    0 -0.11541599631E+02  0.55334520722E+01  0.24006057492E+02  0.27205117353E+02  0.00000000000E+00 0. -1.
</event>
<event>
 7    1  0.5743890E-009  0.4614232E+02  0.7816164E-02  0.1320468E+00
        -11   -1    0    0    0    0  0.00000000000E+00  0.00000000000E+00  0.45593999997E+02  0.45594000000E+02  0.51100000000E-03 0. -1.
         11   -1    0    0    0    0 -0.00000000000E+00 -0.00000000000E+00 -0.45593999997E+02  0.45594000000E+02  0.51100000000E-03 0.  1.
    9900012    2    1    2    0    0  0.40816210168E+02  0.15022972180E+02 -0.11724368659E+02  0.46142317343E+02  0.99999961869E+01 0.  0.
         12    1    1    2    0    0 -0.40816210168E+02 -0.15022972180E+02  0.11724368659E+02  0.45045682657E+02  0.00000000000E+00 0. -1.
         11    1    3    3    0    0  0.55191149767E+00  0.12486960907E+01 -0.14161565355E+01  0.19670657900E+01  0.51100000000E-03 0. -1.
        -11    1    3    3    0    0  0.95784270513E+01  0.42033288162E+01 -0.50087720458E+01  0.11597501265E+02  0.51100000000E-03 0.  1.
        -12    1    3    3    0    0  0.30685871619E+02  0.95709472733E+01 -0.52994400779E+01  0.32577750288E+02  0.00000000000E+00 0.  1.
</event>
<event>
 7    1  0.5743890E-009  0.4614232E+02  0.7816164E-02  0.1320468E+00
        -11   -1    0    0    0    0  0.00000000000E+00  0.00000000000E+00  0.45593999997E+02  0.45594000000E+02  0.51100000000E-03 0. -1.
         11   -1    0    0    0    0 -0.00000000000E+00 -0.00000000000E+00 -0.45593999997E+02  0.45594000000E+02  0.51100000000E-03 0.  1.
    9900012    2    1    2    0    0  0.23497306580E+02  0.20377992817E+02 -0.32584159212E+02  0.46142318305E+02  0.10000004963E+02 0.  0.
         12    1    1    2    0    0 -0.23497306580E+02 -0.20377992817E+02  0.32584159212E+02  0.45045681695E+02  0.00000000000E+00 0. -1.
         11    1    3    3    0    0  0.13619194932E+02  0.12840658995E+02 -0.19358639848E+02  0.26928088143E+02  0.51100000000E-03 0. -1.
        -11    1    3    3    0    0  0.94594231507E+01  0.65983375083E+01 -0.13840634136E+02  0.18016156576E+02  0.51100000000E-03 0.  1.
         12    1    3    3    0    0  0.41868849796E+00  0.93899631380E+00  0.61511477220E+00  0.11980735865E+01  0.00000000000E+00 0. -1.
</event>
<event>
 7    1  0.5743890E-009  0.4614232E+02  0.7816164E-02  0.1320468E+00
        -11   -1    0    0    0    0  0.00000000000E+00  0.00000000000E+00  0.45593999997E+02  0.45594000000E+02  0.51100000000E-03 0.  1.
         11   -1    0    0    0    0 -0.00000000000E+00 -0.00000000000E+00 -0.45593999997E+02  0.45594000000E+02  0.51100000000E-03 0. -1.
    9900012    2    1    2    0    0  0.30354070435E+02  0.26766454615E+02  0.19781324762E+02  0.46142317699E+02  0.99999994305E+01 0.  0.
        -12    1    1    2    0    0 -0.30354070435E+02 -0.26766454615E+02 -0.19781324762E+02  0.45045682301E+02  0.00000000000E+00 0.  1.
         11    1    3    3    0    0  0.20347408794E+02  0.15721536813E+02  0.14078980545E+02  0.29315549762E+02  0.51100000000E-03 0. -1.
        -11    1    3    3    0    0  0.10587714498E+02  0.96900438229E+01  0.52838680615E+01  0.15294309711E+02  0.51100000000E-03 0.  1.
        -12    1    3    3    0    0 -0.58105285668E+00  0.13548739788E+01  0.41847615552E+00  0.15324582257E+01  0.00000000000E+00 0.  1.
</event>
<event>
 7    1  0.5743890E-009  0.4614232E+02  0.7816164E-02  0.1320468E+00
        -11   -1    0    0    0    0  0.00000000000E+00  0.00000000000E+00  0.45593999997E+02  0.45594000000E+02  0.51100000000E-03 0. -1.
         11   -1    0    0    0    0 -0.00000000000E+00 -0.00000000000E+00 -0.45593999997E+02  0.45594000000E+02  0.51100000000E-03 0.  1.
    9900012    2    1    2    0    0  0.32531920510E+02  0.29247715584E+02 -0.10740518844E+02  0.46142318032E+02  0.10000002472E+02 0.  0.
         12    1    1    2    0    0 -0.32531920510E+02 -0.29247715584E+02  0.10740518844E+02  0.45045681968E+02  0.00000000000E+00 0. -1.
         11    1    3    3    0    0  0.56446085841E+01  0.16806446412E+01  0.18589524310E+00  0.58924298706E+01  0.51100000000E-03 0. -1.
        -11    1    3    3    0    0  0.20993791603E+02  0.22287538504E+02 -0.69615856601E+01  0.31399639068E+02  0.51100000000E-03 0.  1.
        -12    1    3    3    0    0  0.58935203227E+01  0.52795324380E+01 -0.39648284272E+01  0.88502490934E+01  0.00000000000E+00 0.  1.
</event>
<event>
 7    1  0.5743890E-009  0.4614232E+02  0.7816164E-02  0.1320468E+00
        -11   -1    0    0    0    0  0.00000000000E+00  0.00000000000E+00  0.45593999997E+02  0.45594000000E+02  0.51100000000E-03 0. -1.
         11   -1    0    0    0    0 -0.00000000000E+00 -0.00000000000E+00 -0.45593999997E+02  0.45594000000E+02  0.51100000000E-03 0.  1.
    9900012    2    1    2    0    0 -0.29217813923E+02  0.25946414736E+02 -0.22410184355E+02  0.46142318177E+02  0.10000003789E+02 0.  0.
         12    1    1    2    0    0  0.29217813923E+02 -0.25946414736E+02  0.22410184355E+02  0.45045681823E+02  0.00000000000E+00 0. -1.
         11    1    3    3    0    0 -0.65749522701E+01  0.10065229103E+02 -0.89263567145E+01  0.14973933308E+02  0.51100000000E-03 0. -1.
        -11    1    3    3    0    0 -0.12679592410E+02  0.88756491911E+01 -0.10260136191E+02  0.18569318975E+02  0.51100000000E-03 0.  1.
        -12    1    3    3    0    0 -0.99632692428E+01  0.70055364416E+01 -0.32236914489E+01  0.12599065894E+02  0.00000000000E+00 0.  1.
</event>
<event>
 7    1  0.5743890E-009  0.4614232E+02  0.7816164E-02  0.1320468E+00
        -11   -1    0    0    0    0  0.00000000000E+00  0.00000000000E+00  0.45593999997E+02  0.45594000000E+02  0.51100000000E-03 0. -1.
         11   -1    0    0    0    0 -0.00000000000E+00 -0.00000000000E+00 -0.45593999997E+02  0.45594000000E+02  0.51100000000E-03 0.  1.
    9900012    2    1    2    0    0  0.32608784930E+02  0.81484796633E+01  0.29989713777E+02  0.46142317545E+02  0.99999980317E+01 0.  0.
        -12    1    1    2    0    0 -0.32608784930E+02 -0.81484796633E+01 -0.29989713777E+02  0.45045682455E+02  0.00000000000E+00 0.  1.
         11    1    3    3    0    0  0.58327771255E+01  0.29920739194E+01  0.35667223010E+01  0.74629286188E+01  0.51100000000E-03 0. -1.
        -11    1    3    3    0    0  0.13691399963E+02  0.57539885004E+01  0.11226943038E+02  0.18617386144E+02  0.51100000000E-03 0.  1.
        -12    1    3    3    0    0  0.13084607841E+02 -0.59758275655E+00  0.15196048438E+02  0.20062002782E+02  0.00000000000E+00 0.  1.
</event>
<event>
 7    1  0.5743890E-009  0.4614232E+02  0.7816164E-02  0.1320468E+00
        -11   -1    0    0    0    0  0.00000000000E+00  0.00000000000E+00  0.45593999997E+02  0.45594000000E+02  0.51100000000E-03 0. -1.
         11   -1    0    0    0    0 -0.00000000000E+00 -0.00000000000E+00 -0.45593999997E+02  0.45594000000E+02  0.51100000000E-03 0.  1.
    9900012    2    1    2    0    0  0.26025998728E+02  0.32815320602E+02  0.16580579001E+02  0.46142317898E+02  0.10000001251E+02 0.  0.
        -12    1    1    2    0    0 -0.26025998728E+02 -0.32815320602E+02 -0.16580579001E+02  0.45045682102E+02  0.00000000000E+00 0.  1.
         11    1    3    3    0    0  0.20169692493E+02  0.23457175161E+02  0.13451725562E+02  0.33734322028E+02  0.51100000000E-03 0. -1.
        -11    1    3    3    0    0  0.84752387746E+00  0.17247348490E+01  0.26394108771E+01  0.32648885220E+01  0.51100000000E-03 0.  1.
        -12    1    3    3    0    0  0.50087823574E+01  0.76334105918E+01  0.48944256167E+00  0.91431073486E+01  0.00000000000E+00 0.  1.
</event>
<event>
 7    1  0.5743890E-009  0.4614232E+02  0.7816164E-02  0.1320468E+00
        -11   -1    0    0    0    0  0.00000000000E+00  0.00000000000E+00  0.45593999997E+02  0.45594000000E+02  0.51100000000E-03 0.  1.
         11   -1    0    0    0    0 -0.00000000000E+00 -0.00000000000E+00 -0.45593999997E+02  0.45594000000E+02  0.51100000000E-03 0. -1.
    9900012    2    1    2    0    0  0.46776689802E+01  0.44199938565E+02 -0.73210813683E+01  0.46142318868E+02  0.10000010094E+02 0.  0.
         12    1    1    2    0    0 -0.46776689802E+01 -0.44199938565E+02  0.73210813683E+01  0.45045681132E+02  0.00000000000E+00 0. -1.
         11    1    3    3    0    0  0.33176990612E+01  0.23282733272E+02 -0.48490432072E+01  0.24012622013E+02  0.51100000000E-03 0. -1.
        -11    1    3    3    0    0  0.16205975924E+01  0.19567505929E+02 -0.39438587059E+00  0.19638461379E+02  0.51100000000E-03 0.  1.
         12    1    3    3    0    0 -0.26062767330E+00  0.13496993642E+01 -0.20776522905E+01  0.24912354762E+01  0.00000000000E+00 0. -1.
</event>
<event>
 7    1  0.5743890E-009  0.4614232E+02  0.7816164E-02  0.1320468E+00
        -11   -1    0    0    0    0  0.00000000000E+00  0.00000000000E+00  0.45593999997E+02  0.45594000000E+02  0.51100000000E-03 0. -1.
         11   -1    0    0    0    0 -0.00000000000E+00 -0.00000000000E+00 -0.45593999997E+02  0.45594000000E+02  0.51100000000E-03 0.  1.
    9900012    2    1    2    0    0 -0.33457719622E+02  0.23727953776E+02  0.18619313169E+02  0.46142316349E+02  0.99999871261E+01 0.  0.
        -12    1    1    2    0    0  0.33457719622E+02 -0.23727953776E+02 -0.18619313169E+02  0.45045683651E+02  0.00000000000E+00 0.  1.
         11    1    3    3    0    0 -0.24800753625E+02  0.13519985766E+02  0.11066856065E+02  0.30337150475E+02  0.51100000000E-03 0. -1.
        -11    1    3    3    0    0 -0.72647464196E+00  0.18684122199E+01 -0.62385249426E-01  0.20056474788E+01  0.51100000000E-03 0.  1.
        -12    1    3    3    0    0 -0.79304913547E+01  0.83395557896E+01  0.76148423529E+01  0.13799518396E+02  0.00000000000E+00 0.  1.
</event>
<event>
 7    1  0.5743890E-009  0.4614232E+02  0.7816164E-02  0.1320468E+00
        -11   -1    0    0    0    0  0.00000000000E+00  0.00000000000E+00  0.45593999997E+02  0.45594000000E+02  0.51100000000E-03 0. -1.
         11   -1    0    0    0    0 -0.00000000000E+00 -0.00000000000E+00 -0.45593999997E+02  0.45594000000E+02  0.51100000000E-03 0.  1.
    9900012    2    1    2    0    0  0.19527036844E+01  0.24464137937E+02  0.37773090816E+02  0.46142317782E+02  0.10000000192E+02 0.  0.
        -12    1    1    2    0    0 -0.19527036844E+01 -0.24464137937E+02 -0.37773090816E+02  0.45045682218E+02  0.00000000000E+00 0.  1.
         11    1    3    3    0    0  0.14413340915E+00  0.86838238862E+00  0.44972358658E+01  0.45825749428E+01  0.51100000000E-03 0. -1.
        -11    1    3    3    0    0 -0.19908370491E+01  0.15968241813E+02  0.24626041317E+02  0.29417513321E+02  0.51100000000E-03 0.  1.
        -12    1    3    3    0    0  0.37994073244E+01  0.76275137353E+01  0.86498136328E+01  0.12142229518E+02  0.00000000000E+00 0.  1.
</event>
<event>
 7    1  0.5743890E-009  0.4614232E+02  0.7816164E-02  0.1320468E+00
        -11   -1    0    0    0    0  0.00000000000E+00  0.00000000000E+00  0.45593999997E+02  0.45594000000E+02  0.51100000000E-03 0. -1.
         11   -1    0    0    0    0 -0.00000000000E+00 -0.00000000000E+00 -0.45593999997E+02  0.45594000000E+02  0.51100000000E-03 0.  1.
    9900012    2    1    2    0    0 -0.15111017187E+02 -0.41999985858E+02  0.60639828324E+01  0.46142317184E+02  0.99999947414E+01 0.  0.
        -12    1    1    2    0    0  0.15111017187E+02  0.41999985858E+02 -0.60639828324E+01  0.45045682816E+02  0.00000000000E+00 0.  1.
         11    1    3    3    0    0 -0.57977582412E+01 -0.10614301965E+02  0.46177175486E+01  0.12946069769E+02  0.51100000000E-03 0. -1.
        -11    1    3    3    0    0 -0.60731135282E+01 -0.12437604614E+02 -0.66784609685E+00  0.13857226820E+02  0.51100000000E-03 0.  1.
        -12    1    3    3    0    0 -0.32401454179E+01 -0.18948079279E+02  0.21141113806E+01  0.19339020596E+02  0.00000000000E+00 0.  1.
</event>
<event>
 7    1  0.5743890E-009  0.4614232E+02  0.7816164E-02  0.1320468E+00
        -11   -1    0    0    0    0  0.00000000000E+00  0.00000000000E+00  0.45593999997E+02  0.45594000000E+02  0.51100000000E-03 0. -1.
         11   -1    0    0    0    0 -0.00000000000E+00 -0.00000000000E+00 -0.45593999997E+02  0.45594000000E+02  0.51100000000E-03 0.  1.
    9900012    2    1    2    0    0 -0.73591920527E+01 -0.43554449419E+02 -0.88298192257E+01  0.46142317860E+02  0.10000000902E+02 0.  0.
        -12    1    1    2    0    0  0.73591920527E+01  0.43554449419E+02  0.88298192257E+01  0.45045682140E+02  0.00000000000E+00 0.  1.
         11    1    3    3    0    0 -0.30390775544E+00 -0.25554302219E+02 -0.36561168954E+01  0.25816310985E+02  0.51100000000E-03 0. -1.
        -11    1    3    3    0    0 -0.34711293042E+01 -0.13199316021E+02 -0.32014623891E+01  0.14018560688E+02  0.51100000000E-03 0.  1.
        -12    1    3    3    0    0 -0.35841549931E+01 -0.48008311790E+01 -0.19722399412E+01  0.63074461876E+01  0.00000000000E+00 0.  1.
</event>
<event>
 7    1  0.5743890E-009  0.4614232E+02  0.7816164E-02  0.1320468E+00
        -11   -1    0    0    0    0  0.00000000000E+00  0.00000000000E+00  0.45593999997E+02  0.45594000000E+02  0.51100000000E-03 0. -1.
         11   -1    0    0    0    0 -0.00000000000E+00 -0.00000000000E+00 -0.45593999997E+02  0.45594000000E+02  0.51100000000E-03 0.  1.
    9900012    2    1    2    0    0 -0.16051158851E+02  0.22487085503E+02 -0.35578151045E+02  0.46142317114E+02  0.99999940978E+01 0.  0.
         12    1    1    2    0    0  0.16051158851E+02 -0.22487085503E+02  0.35578151045E+02  0.45045682886E+02  0.00000000000E+00 0. -1.
         11    1    3    3    0    0 -0.55207452300E+01  0.37836021110E+01 -0.10501785980E+02  0.12453183603E+02  0.51100000000E-03 0. -1.
        -11    1    3    3    0    0 -0.23987856252E+01  0.46188987742E+00 -0.37087746584E+01  0.44410048933E+01  0.51100000000E-03 0.  1.
        -12    1    3    3    0    0 -0.81316279958E+01  0.18241593514E+02 -0.21367590407E+02  0.29248128617E+02  0.00000000000E+00 0.  1.
</event>
<event>
 7    1  0.5743890E-009  0.4614230E+02  0.7816164E-02  0.1320468E+00
        -11   -1    0    0    0    0  0.00000000000E+00  0.00000000000E+00  0.45593999997E+02  0.45594000000E+02  0.51100000000E-03 0. -1.
         11   -1    0    0    0    0 -0.00000000000E+00 -0.00000000000E+00 -0.45593999997E+02  0.45594000000E+02  0.51100000000E-03 0.  1.
    9900012    2    1    2    0    0 -0.21852380258E+02  0.18816243311E+02 -0.34605449569E+02  0.46142304588E+02  0.99998798777E+01 0.  0.
         12    1    1    2    0    0  0.21852380258E+02 -0.18816243311E+02  0.34605449569E+02  0.45045695412E+02  0.00000000000E+00 0. -1.
         11    1    3    3    0    0 -0.43105558793E+01  0.16264096392E+01 -0.94332318937E+01  0.10498188631E+02  0.51100000000E-03 0. -1.
        -11    1    3    3    0    0 -0.49985571619E+01  0.86170366641E+01 -0.11383863242E+02  0.15127168841E+02  0.51100000000E-03 0.  1.
         12    1    3    3    0    0 -0.12543267217E+02  0.85727970076E+01 -0.13788354433E+02  0.20516947116E+02  0.00000000000E+00 0. -1.
</event>
<event>
 7    1  0.5743890E-009  0.4614232E+02  0.7816164E-02  0.1320468E+00
        -11   -1    0    0    0    0  0.00000000000E+00  0.00000000000E+00  0.45593999997E+02  0.45594000000E+02  0.51100000000E-03 0. -1.
         11   -1    0    0    0    0 -0.00000000000E+00 -0.00000000000E+00 -0.45593999997E+02  0.45594000000E+02  0.51100000000E-03 0.  1.
    9900012    2    1    2    0    0  0.93368773182E+01 -0.82930598425E+01 -0.43280034430E+02  0.46142317634E+02  0.99999988367E+01 0.  0.
         12    1    1    2    0    0 -0.93368773182E+01  0.82930598425E+01  0.43280034430E+02  0.45045682366E+02  0.00000000000E+00 0. -1.
         11    1    3    3    0    0 -0.73853480306E+00 -0.22206748732E+00 -0.75825922056E+00  0.10815289783E+01  0.51100000000E-03 0. -1.
        -11    1    3    3    0    0  0.59989856340E+01 -0.83241257242E+01 -0.24128797751E+02  0.26219797461E+02  0.51100000000E-03 0.  1.
        -12    1    3    3    0    0  0.40764264872E+01  0.25313336909E+00 -0.18392977458E+02  0.18840991195E+02  0.00000000000E+00 0.  1.
</event>
<event>
 7    1  0.5743890E-009  0.4614232E+02  0.7816164E-02  0.1320468E+00
        -11   -1    0    0    0    0  0.00000000000E+00  0.00000000000E+00  0.45593999997E+02  0.45594000000E+02  0.51100000000E-03 0. -1.
         11   -1    0    0    0    0 -0.00000000000E+00 -0.00000000000E+00 -0.45593999997E+02  0.45594000000E+02  0.51100000000E-03 0.  1.
    9900012    2    1    2    0    0 -0.23937363192E+02 -0.14090242516E+01 -0.38133064719E+02  0.46142319510E+02  0.10000015949E+02 0.  0.
         12    1    1    2    0    0  0.23937363192E+02  0.14090242516E+01  0.38133064719E+02  0.45045680490E+02  0.00000000000E+00 0. -1.
         11    1    3    3    0    0  0.52736759752E+00 -0.43146125669E+00 -0.42070861413E+01  0.42619067869E+01  0.51100000000E-03 0. -1.
        -11    1    3    3    0    0 -0.17530814380E+00 -0.18306284246E+00 -0.36339191770E+00  0.44305631306E+00  0.51100000000E-03 0.  1.
        -12    1    3    3    0    0 -0.24289422646E+02 -0.79450015242E+00 -0.33562586660E+02  0.41437356410E+02  0.00000000000E+00 0.  1.
</event>
<event>
 7    1  0.9352800E-009  0.4614232E+02  0.7816164E-02  0.1320468E+00
        -11   -1    0    0    0    0  0.00000000000E+00  0.00000000000E+00  0.45593999997E+02  0.45594000000E+02  0.51100000000E-03 0. -1.
         11   -1    0    0    0    0 -0.00000000000E+00 -0.00000000000E+00 -0.45593999997E+02  0.45594000000E+02  0.51100000000E-03 0.  1.
    9900012    2    1    2    0    0  0.19895932524E+02  0.20649518539E+02  0.34739929022E+02  0.46142318571E+02  0.10000007390E+02 0.  0.
        -12    1    1    2    0    0 -0.19895932524E+02 -0.20649518539E+02 -0.34739929022E+02  0.45045681429E+02  0.00000000000E+00 0.  1.
         11    1    3    3    0    0  0.10593475939E+02  0.13474739012E+02  0.18905043219E+02  0.25518443982E+02  0.51100000000E-03 0. -1.
        -11    1    3    3    0    0  0.11936593697E+01  0.44003033002E+01  0.66355497210E+01  0.80509634322E+01  0.51100000000E-03 0.  1.
        -12    1    3    3    0    0  0.81087972148E+01  0.27744762272E+01  0.91993360825E+01  0.12572911157E+02  0.00000000000E+00 0.  1.
</event>
<event>
 7    1  0.5743890E-009  0.4614232E+02  0.7816164E-02  0.1320468E+00
        -11   -1    0    0    0    0  0.00000000000E+00  0.00000000000E+00  0.45593999997E+02  0.45594000000E+02  0.51100000000E-03 0. -1.
         11   -1    0    0    0    0 -0.00000000000E+00 -0.00000000000E+00 -0.45593999997E+02  0.45594000000E+02  0.51100000000E-03 0.  1.
    9900012    2    1    2    0    0 -0.18095376622E+02  0.28238847883E+02 -0.30070556603E+02  0.46142316974E+02  0.99999928230E+01 0.  0.
         12    1    1    2    0    0  0.18095376622E+02 -0.28238847883E+02  0.30070556603E+02  0.45045683026E+02  0.00000000000E+00 0. -1.
         11    1    3    3    0    0 -0.73069392445E+00  0.29228080044E+01 -0.22565385981E+01  0.37641316326E+01  0.51100000000E-03 0. -1.
        -11    1    3    3    0    0 -0.81852050775E+01  0.19033084687E+02 -0.16235239225E+02  0.26321832912E+02  0.51100000000E-03 0.  1.
        -12    1    3    3    0    0 -0.91794776205E+01  0.62829551915E+01 -0.11578778780E+02  0.16056352430E+02  0.00000000000E+00 0.  1.
</event>
<event>
 7    1  0.5743890E-009  0.4614232E+02  0.7816164E-02  0.1320468E+00
        -11   -1    0    0    0    0  0.00000000000E+00  0.00000000000E+00  0.45593999997E+02  0.45594000000E+02  0.51100000000E-03 0. -1.
         11   -1    0    0    0    0 -0.00000000000E+00 -0.00000000000E+00 -0.45593999997E+02  0.45594000000E+02  0.51100000000E-03 0.  1.
    9900012    2    1    2    0    0 -0.25936723475E+02  0.69872614062E+01 -0.36160447415E+02  0.46142318699E+02  0.10000008555E+02 0.  0.
         12    1    1    2    0    0  0.25936723475E+02 -0.69872614062E+01  0.36160447415E+02  0.45045681301E+02  0.00000000000E+00 0. -1.
         11    1    3    3    0    0 -0.83083010576E+01  0.58985449728E+01 -0.14156130386E+02  0.17441809741E+02  0.51100000000E-03 0. -1.
        -11    1    3    3    0    0 -0.12759091437E+02  0.47838333420E+00 -0.19171624370E+02  0.23034201661E+02  0.51100000000E-03 0.  1.
         12    1    3    3    0    0 -0.48693309802E+01  0.61033309921E+00 -0.28326926587E+01  0.56663072971E+01  0.00000000000E+00 0. -1.
</event>
<event>
 7    1  0.5743890E-009  0.4614231E+02  0.7816164E-02  0.1320468E+00
        -11   -1    0    0    0    0  0.00000000000E+00  0.00000000000E+00  0.45593999997E+02  0.45594000000E+02  0.51100000000E-03 0. -1.
         11   -1    0    0    0    0 -0.00000000000E+00 -0.00000000000E+00 -0.45593999997E+02  0.45594000000E+02  0.51100000000E-03 0.  1.
    9900012    2    1    2    0    0  0.15319193658E+02 -0.35160670542E+02  0.23625482308E+02  0.46142313618E+02  0.99999622217E+01 0.  0.
        -12    1    1    2    0    0 -0.15319193658E+02  0.35160670542E+02 -0.23625482308E+02  0.45045686382E+02  0.00000000000E+00 0.  1.
         11    1    3    3    0    0  0.46126708464E+00 -0.98212753111E+01  0.79156247015E+01  0.12622493048E+02  0.51100000000E-03 0. -1.
        -11    1    3    3    0    0  0.91426380138E+01 -0.12315388762E+02  0.91185649330E+01  0.17843902514E+02  0.51100000000E-03 0.  1.
        -12    1    3    3    0    0  0.57152885600E+01 -0.13024006469E+02  0.65912926738E+01  0.15675918057E+02  0.00000000000E+00 0.  1.
</event>
<event>
 7    1  0.6223604E-009  0.4614232E+02  0.7816164E-02  0.1320468E+00
        -11   -1    0    0    0    0  0.00000000000E+00  0.00000000000E+00  0.45593999997E+02  0.45594000000E+02  0.51100000000E-03 0. -1.
         11   -1    0    0    0    0 -0.00000000000E+00 -0.00000000000E+00 -0.45593999997E+02  0.45594000000E+02  0.51100000000E-03 0.  1.
    9900012    2    1    2    0    0 -0.15178610979E+02  0.18923366645E+02  0.37955623516E+02  0.46142318821E+02  0.10000009661E+02 0.  0.
        -12    1    1    2    0    0  0.15178610979E+02 -0.18923366645E+02 -0.37955623516E+02  0.45045681179E+02  0.00000000000E+00 0.  1.
         11    1    3    3    0    0 -0.78557477276E+01  0.12936098712E+02  0.23809433979E+02  0.28212489591E+02  0.51100000000E-03 0.  1.
        -11    1    3    3    0    0 -0.22496085149E+01  0.54507661520E+01  0.70683407237E+01  0.92050546419E+01  0.51100000000E-03 0. -1.
        -12    1    3    3    0    0 -0.50732547363E+01  0.53650178043E+00  0.70778488134E+01  0.87247745876E+01  0.00000000000E+00 0.  1.
</event>
<event>
 7    1  0.5743890E-009  0.4614232E+02  0.7816164E-02  0.1320468E+00
        -11   -1    0    0    0    0  0.00000000000E+00  0.00000000000E+00  0.45593999997E+02  0.45594000000E+02  0.51100000000E-03 0. -1.
         11   -1    0    0    0    0 -0.00000000000E+00 -0.00000000000E+00 -0.45593999997E+02  0.45594000000E+02  0.51100000000E-03 0.  1.
    9900012    2    1    2    0    0  0.42137361015E+01  0.19878855099E+01  0.44804087226E+02  0.46142317711E+02  0.99999995405E+01 0.  0.
        -12    1    1    2    0    0 -0.42137361015E+01 -0.19878855099E+01 -0.44804087226E+02  0.45045682289E+02  0.00000000000E+00 0.  1.
         11    1    3    3    0    0 -0.13498075983E+00 -0.20854837809E+01  0.17493351616E+02  0.17617741439E+02  0.51100000000E-03 0. -1.
        -11    1    3    3    0    0  0.23642863412E+01 -0.52001231343E+00  0.15642597855E+02  0.15828806987E+02  0.51100000000E-03 0.  1.
        -12    1    3    3    0    0  0.19844305202E+01  0.45933816042E+01  0.11668137755E+02  0.12695769285E+02  0.00000000000E+00 0.  1.
</event>
<event>
 7    1  0.5743890E-009  0.4614232E+02  0.7816164E-02  0.1320468E+00
        -11   -1    0    0    0    0  0.00000000000E+00  0.00000000000E+00  0.45593999997E+02  0.45594000000E+02  0.51100000000E-03 0. -1.
         11   -1    0    0    0    0 -0.00000000000E+00 -0.00000000000E+00 -0.45593999997E+02  0.45594000000E+02  0.51100000000E-03 0.  1.
    9900012    2    1    2    0    0 -0.12966446934E+02 -0.26494354889E+02  0.34044587386E+02  0.46142317439E+02  0.99999970649E+01 0.  0.
        -12    1    1    2    0    0  0.12966446934E+02  0.26494354889E+02 -0.34044587386E+02  0.45045682561E+02  0.00000000000E+00 0.  1.
         11    1    3    3    0    0 -0.18439901185E+01 -0.40268300337E+01  0.37385423448E+01  0.57958915451E+01  0.51100000000E-03 0. -1.
        -11    1    3    3    0    0 -0.93675612490E+01 -0.16868590836E+02  0.16659557132E+02  0.25491987067E+02  0.51100000000E-03 0.  1.
        -12    1    3    3    0    0 -0.17548955666E+01 -0.55989340192E+01  0.13646487909E+02  0.14854438827E+02  0.00000000000E+00 0.  1.
</event>
<event>
 7    1  0.5743890E-009  0.4614232E+02  0.7816164E-02  0.1320468E+00
        -11   -1    0    0    0    0  0.00000000000E+00  0.00000000000E+00  0.45593999997E+02  0.45594000000E+02  0.51100000000E-03 0. -1.
         11   -1    0    0    0    0 -0.00000000000E+00 -0.00000000000E+00 -0.45593999997E+02  0.45594000000E+02  0.51100000000E-03 0.  1.
    9900012    2    1    2    0    0  0.28812917446E+02  0.79300944130E+01 -0.33705235846E+02  0.46142317270E+02  0.99999955240E+01 0.  0.
         12    1    1    2    0    0 -0.28812917446E+02 -0.79300944130E+01  0.33705235846E+02  0.45045682730E+02  0.00000000000E+00 0. -1.
         11    1    3    3    0    0  0.50913584030E+01  0.27299998607E+01 -0.40959652050E+01  0.70817907940E+01  0.51100000000E-03 0.  1.
        -11    1    3    3    0    0  0.97298281270E+01  0.60223547188E+01 -0.12598790614E+02  0.17019630929E+02  0.51100000000E-03 0. -1.
         12    1    3    3    0    0  0.13991730916E+02 -0.82226016654E+00 -0.17010480026E+02  0.22040895548E+02  0.00000000000E+00 0. -1.
</event>
<event>
 7    1  0.5743890E-009  0.4614232E+02  0.7816164E-02  0.1320468E+00
        -11   -1    0    0    0    0  0.00000000000E+00  0.00000000000E+00  0.45593999997E+02  0.45594000000E+02  0.51100000000E-03 0. -1.
         11   -1    0    0    0    0 -0.00000000000E+00 -0.00000000000E+00 -0.45593999997E+02  0.45594000000E+02  0.51100000000E-03 0.  1.
    9900012    2    1    2    0    0  0.17401334875E+02  0.12547341045E+02  0.39608979612E+02  0.46142317758E+02  0.99999999739E+01 0.  0.
        -12    1    1    2    0    0 -0.17401334875E+02 -0.12547341045E+02 -0.39608979612E+02  0.45045682242E+02  0.00000000000E+00 0.  1.
         11    1    3    3    0    0  0.13112290666E+02  0.11434759627E+02  0.32253570894E+02  0.36646674200E+02  0.51100000000E-03 0. -1.
        -11    1    3    3    0    0  0.23297869157E+01 -0.15264216822E+00  0.69095480356E+00  0.24348768974E+01  0.51100000000E-03 0.  1.
        -12    1    3    3    0    0  0.19592572931E+01  0.12652235867E+01  0.66644539143E+01  0.70607666610E+01  0.00000000000E+00 0.  1.
</event>
<event>
 7    1  0.6235677E-009  0.4614233E+02  0.7816164E-02  0.1320468E+00
        -11   -1    0    0    0    0  0.00000000000E+00  0.00000000000E+00  0.45593999997E+02  0.45594000000E+02  0.51100000000E-03 0. -1.
         11   -1    0    0    0    0 -0.00000000000E+00 -0.00000000000E+00 -0.45593999997E+02  0.45594000000E+02  0.51100000000E-03 0.  1.
    9900012    2    1    2    0    0 -0.18171422894E+02  0.78628572420E+00  0.41210361127E+02  0.46142326296E+02  0.10000077831E+02 0.  0.
        -12    1    1    2    0    0  0.18171422894E+02 -0.78628572420E+00 -0.41210361127E+02  0.45045673704E+02  0.00000000000E+00 0.  1.
         11    1    3    3    0    0 -0.11321493255E+02  0.29189233483E+00  0.23103134279E+02  0.25729675949E+02  0.51100000000E-03 0. -1.
        -11    1    3    3    0    0 -0.93492167885E+00  0.49193244371E+00  0.11484627029E+02  0.11533114685E+02  0.51100000000E-03 0.  1.
        -12    1    3    3    0    0 -0.59150079607E+01  0.24609456623E-02  0.66225998181E+01  0.88795356625E+01  0.00000000000E+00 0.  1.
</event>
<event>
 7    1  0.5743890E-009  0.4614232E+02  0.7816164E-02  0.1320468E+00
        -11   -1    0    0    0    0  0.00000000000E+00  0.00000000000E+00  0.45593999997E+02  0.45594000000E+02  0.51100000000E-03 0. -1.
         11   -1    0    0    0    0 -0.00000000000E+00 -0.00000000000E+00 -0.45593999997E+02  0.45594000000E+02  0.51100000000E-03 0.  1.
    9900012    2    1    2    0    0  0.34905969991E+02  0.20230055571E+02  0.20035756680E+02  0.46142318352E+02  0.10000005386E+02 0.  0.
        -12    1    1    2    0    0 -0.34905969991E+02 -0.20230055571E+02 -0.20035756680E+02  0.45045681648E+02  0.00000000000E+00 0.  1.
         11    1    3    3    0    0  0.46984810142E+01  0.31913909435E+01  0.18676788391E+01  0.59790404332E+01  0.51100000000E-03 0. -1.
        -11    1    3    3    0    0  0.18201077737E+01  0.42732947931E+01  0.16715163257E+01  0.49363759768E+01  0.51100000000E-03 0.  1.
         12    1    3    3    0    0  0.28387381203E+02  0.12765369834E+02  0.16496561516E+02  0.35226901942E+02  0.00000000000E+00 0. -1.
</event>
<event>
 7    1  0.5743890E-009  0.4614232E+02  0.7816164E-02  0.1320468E+00
        -11   -1    0    0    0    0  0.00000000000E+00  0.00000000000E+00  0.45593999997E+02  0.45594000000E+02  0.51100000000E-03 0. -1.
         11   -1    0    0    0    0 -0.00000000000E+00 -0.00000000000E+00 -0.45593999997E+02  0.45594000000E+02  0.51100000000E-03 0.  1.
    9900012    2    1    2    0    0 -0.51872584870E+01  0.10044615630E+02  0.43604032773E+02  0.46142316213E+02  0.99999858826E+01 0.  0.
        -12    1    1    2    0    0  0.51872584870E+01 -0.10044615630E+02 -0.43604032773E+02  0.45045683787E+02  0.00000000000E+00 0.  1.
         11    1    3    3    0    0 -0.28438720497E+01  0.23448645525E+01  0.86927010836E+01  0.94418774825E+01  0.51100000000E-03 0. -1.
        -11    1    3    3    0    0 -0.20972911197E+01  0.18685459293E+01  0.25302711767E+02  0.25458148341E+02  0.51100000000E-03 0.  1.
        -12    1    3    3    0    0 -0.24609531761E+00  0.58312051480E+01  0.96086199227E+01  0.11242290390E+02  0.00000000000E+00 0.  1.
</event>
<event>
 7    1  0.5743890E-009  0.4614232E+02  0.7816164E-02  0.1320468E+00
        -11   -1    0    0    0    0  0.00000000000E+00  0.00000000000E+00  0.45593999997E+02  0.45594000000E+02  0.51100000000E-03 0. -1.
         11   -1    0    0    0    0 -0.00000000000E+00 -0.00000000000E+00 -0.45593999997E+02  0.45594000000E+02  0.51100000000E-03 0.  1.
    9900012    2    1    2    0    0  0.22516393482E+02 -0.93024005546E+01  0.37889192565E+02  0.46142317135E+02  0.99999942906E+01 0.  0.
        -12    1    1    2    0    0 -0.22516393482E+02  0.93024005546E+01 -0.37889192565E+02  0.45045682865E+02  0.00000000000E+00 0.  1.
         11    1    3    3    0    0  0.21120617919E+01 -0.10178541471E+01  0.41636372245E+01  0.47783582197E+01  0.51100000000E-03 0. -1.
        -11    1    3    3    0    0  0.17486024878E+02 -0.55302794794E+01  0.20327836477E+02  0.27378202886E+02  0.51100000000E-03 0.  1.
         12    1    3    3    0    0  0.29183068119E+01 -0.27542669282E+01  0.13397718863E+02  0.13985756029E+02  0.00000000000E+00 0. -1.
</event>
<event>
 7    1  0.5743890E-009  0.4614232E+02  0.7816164E-02  0.1320468E+00
        -11   -1    0    0    0    0  0.00000000000E+00  0.00000000000E+00  0.45593999997E+02  0.45594000000E+02  0.51100000000E-03 0. -1.
         11   -1    0    0    0    0 -0.00000000000E+00 -0.00000000000E+00 -0.45593999997E+02  0.45594000000E+02  0.51100000000E-03 0.  1.
    9900012    2    1    2    0    0  0.44084856678E+01  0.40951202601E+01  0.44642007896E+02  0.46142316246E+02  0.99999861850E+01 0.  0.
        -12    1    1    2    0    0 -0.44084856678E+01 -0.40951202601E+01 -0.44642007896E+02  0.45045683754E+02  0.00000000000E+00 0.  1.
         11    1    3    3    0    0  0.46116613706E+00 -0.13516536358E+01  0.16341444371E+01  0.21702695822E+01  0.51100000000E-03 0.  1.
        -11    1    3    3    0    0  0.25046625969E+01  0.44948055761E+01  0.41004599738E+02  0.41326187966E+02  0.51100000000E-03 0. -1.
         12    1    3    3    0    0  0.14426569338E+01  0.95196831978E+00  0.20032637217E+01  0.26458586979E+01  0.00000000000E+00 0. -1.
</event>
<event>
 7    1  0.5743890E-009  0.4614232E+02  0.7816164E-02  0.1320468E+00
        -11   -1    0    0    0    0  0.00000000000E+00  0.00000000000E+00  0.45593999997E+02  0.45594000000E+02  0.51100000000E-03 0. -1.
         11   -1    0    0    0    0 -0.00000000000E+00 -0.00000000000E+00 -0.45593999997E+02  0.45594000000E+02  0.51100000000E-03 0.  1.
    9900012    2    1    2    0    0  0.51207126277E+01  0.16805804362E+02 -0.41478389978E+02  0.46142316597E+02  0.99999893816E+01 0.  0.
         12    1    1    2    0    0 -0.51207126277E+01 -0.16805804362E+02  0.41478389978E+02  0.45045683403E+02  0.00000000000E+00 0. -1.
         11    1    3    3    0    0 -0.13212328595E+01  0.76082118592E+00 -0.99293418075E+01  0.10045712226E+02  0.51100000000E-03 0. -1.
        -11    1    3    3    0    0  0.47093117192E+01  0.89128141732E+01 -0.20296728914E+02  0.22662150785E+02  0.51100000000E-03 0.  1.
         12    1    3    3    0    0  0.17326337680E+01  0.71321690028E+01 -0.11252319257E+02  0.13434453585E+02  0.00000000000E+00 0. -1.
</event>
<event>
 7    1  0.5743890E-009  0.4614232E+02  0.7816164E-02  0.1320468E+00
        -11   -1    0    0    0    0  0.00000000000E+00  0.00000000000E+00  0.45593999997E+02  0.45594000000E+02  0.51100000000E-03 0. -1.
         11   -1    0    0    0    0 -0.00000000000E+00 -0.00000000000E+00 -0.45593999997E+02  0.45594000000E+02  0.51100000000E-03 0.  1.
    9900012    2    1    2    0    0 -0.51936051452E+01 -0.50306105538E+01 -0.44461586097E+02  0.46142320794E+02  0.10000027653E+02 0.  0.
         12    1    1    2    0    0  0.51936051452E+01  0.50306105538E+01  0.44461586097E+02  0.45045679206E+02  0.00000000000E+00 0. -1.
         11    1    3    3    0    0 -0.29766951364E+01  0.38365672594E+00 -0.71901017016E+01  0.77913714555E+01  0.51100000000E-03 0. -1.
        -11    1    3    3    0    0 -0.77935498325E+00 -0.30030003604E+00 -0.24558976109E+02  0.24573174033E+02  0.51100000000E-03 0.  1.
        -12    1    3    3    0    0 -0.14375550255E+01 -0.51139672437E+01 -0.12712508286E+02  0.13777775305E+02  0.00000000000E+00 0.  1.
</event>
<event>
 7    1  0.5743890E-009  0.4614232E+02  0.7816164E-02  0.1320468E+00
        -11   -1    0    0    0    0  0.00000000000E+00  0.00000000000E+00  0.45593999997E+02  0.45594000000E+02  0.51100000000E-03 0. -1.
         11   -1    0    0    0    0 -0.00000000000E+00 -0.00000000000E+00 -0.45593999997E+02  0.45594000000E+02  0.51100000000E-03 0.  1.
    9900012    2    1    2    0    0 -0.91083459051E+01 -0.23004005648E+02 -0.37642624543E+02  0.46142318482E+02  0.10000006571E+02 0.  0.
         12    1    1    2    0    0  0.91083459051E+01  0.23004005648E+02  0.37642624543E+02  0.45045681518E+02  0.00000000000E+00 0. -1.
         11    1    3    3    0    0  0.12394967604E+01 -0.23049826219E+01 -0.12464467341E+01  0.28987802312E+01  0.51100000000E-03 0. -1.
        -11    1    3    3    0    0 -0.56429889564E+01 -0.14547035382E+02 -0.23939761855E+02  0.28575719776E+02  0.51100000000E-03 0.  1.
         12    1    3    3    0    0 -0.47048537091E+01 -0.61519876442E+01 -0.12456415953E+02  0.14667818475E+02  0.00000000000E+00 0. -1.
</event>
<event>
 7    1  0.5743890E-009  0.4614232E+02  0.7816164E-02  0.1320468E+00
        -11   -1    0    0    0    0  0.00000000000E+00  0.00000000000E+00  0.45593999997E+02  0.45594000000E+02  0.51100000000E-03 0. -1.
         11   -1    0    0    0    0 -0.00000000000E+00 -0.00000000000E+00 -0.45593999997E+02  0.45594000000E+02  0.51100000000E-03 0.  1.
    9900012    2    1    2    0    0 -0.14144461238E+02  0.49595189012E+01 -0.42478826472E+02  0.46142319742E+02  0.10000018065E+02 0.  0.
         12    1    1    2    0    0  0.14144461238E+02 -0.49595189012E+01  0.42478826472E+02  0.45045680258E+02  0.00000000000E+00 0. -1.
         11    1    3    3    0    0 -0.89934647936E+00  0.15851639978E+01 -0.39284271343E+00  0.18643751362E+01  0.51100000000E-03 0. -1.
        -11    1    3    3    0    0 -0.88641934719E+01  0.26430250812E+01 -0.26308887905E+02  0.27887579503E+02  0.51100000000E-03 0.  1.
        -12    1    3    3    0    0 -0.43809212865E+01  0.73132982217E+00 -0.15777095854E+02  0.16390365103E+02  0.00000000000E+00 0.  1.
</event>
<event>
 7    1  0.5743890E-009  0.4614232E+02  0.7816164E-02  0.1320468E+00
        -11   -1    0    0    0    0  0.00000000000E+00  0.00000000000E+00  0.45593999997E+02  0.45594000000E+02  0.51100000000E-03 0. -1.
         11   -1    0    0    0    0 -0.00000000000E+00 -0.00000000000E+00 -0.45593999997E+02  0.45594000000E+02  0.51100000000E-03 0.  1.
    9900012    2    1    2    0    0  0.11315161165E+02 -0.30037655812E+02  0.31604112496E+02  0.46142316905E+02  0.99999921911E+01 0.  0.
        -12    1    1    2    0    0 -0.11315161165E+02  0.30037655812E+02 -0.31604112496E+02  0.45045683095E+02  0.00000000000E+00 0.  1.
         11    1    3    3    0    0  0.82127630593E+01 -0.14298490836E+02  0.16493120500E+02  0.23322078409E+02  0.51100000000E-03 0. -1.
        -11    1    3    3    0    0  0.29507575273E+01 -0.30208468861E+01  0.51802844902E+01  0.66833998500E+01  0.51100000000E-03 0.  1.
         12    1    3    3    0    0  0.15164057861E+00 -0.12718318090E+02  0.99307075062E+01  0.16136838646E+02  0.00000000000E+00 0. -1.
</event>
<event>
 7    1  0.5743890E-009  0.4614232E+02  0.7816164E-02  0.1320468E+00
        -11   -1    0    0    0    0  0.00000000000E+00  0.00000000000E+00  0.45593999997E+02  0.45594000000E+02  0.51100000000E-03 0. -1.
         11   -1    0    0    0    0 -0.00000000000E+00 -0.00000000000E+00 -0.45593999997E+02  0.45594000000E+02  0.51100000000E-03 0.  1.
    9900012    2    1    2    0    0  0.11552292083E+02 -0.11364022125E+02  0.42029953348E+02  0.46142318413E+02  0.10000005942E+02 0.  0.
        -12    1    1    2    0    0 -0.11552292083E+02  0.11364022125E+02 -0.42029953348E+02  0.45045681587E+02  0.00000000000E+00 0.  1.
         11    1    3    3    0    0  0.10923332563E+02 -0.63212570845E+01  0.31380455387E+02  0.33823223766E+02  0.51100000000E-03 0. -1.
        -11    1    3    3    0    0  0.17780806247E+01 -0.19305125293E+01  0.30300033563E+01  0.40086618632E+01  0.51100000000E-03 0.  1.
        -12    1    3    3    0    0 -0.11491211047E+01 -0.31122525107E+01  0.76194946051E+01  0.83104327830E+01  0.00000000000E+00 0.  1.
</event>
<event>
 7    1  0.5743890E-009  0.4614232E+02  0.7816164E-02  0.1320468E+00
        -11   -1    0    0    0    0  0.00000000000E+00  0.00000000000E+00  0.45593999997E+02  0.45594000000E+02  0.51100000000E-03 0. -1.
         11   -1    0    0    0    0 -0.00000000000E+00 -0.00000000000E+00 -0.45593999997E+02  0.45594000000E+02  0.51100000000E-03 0.  1.
    9900012    2    1    2    0    0 -0.20631852997E+01 -0.68377790083E+01  0.44475851101E+02  0.46142320002E+02  0.10000020430E+02 0.  0.
        -12    1    1    2    0    0  0.20631852997E+01  0.68377790083E+01 -0.44475851101E+02  0.45045679998E+02  0.00000000000E+00 0.  1.
         11    1    3    3    0    0 -0.30420756569E+01 -0.41728700756E+01  0.12842910287E+02  0.13842232980E+02  0.51100000000E-03 0.  1.
        -11    1    3    3    0    0  0.31988568284E+01 -0.72721848736E+00  0.11725637499E+02  0.12175882175E+02  0.51100000000E-03 0. -1.
         12    1    3    3    0    0 -0.22199664713E+01 -0.19376904453E+01  0.19907303316E+02  0.20124204847E+02  0.00000000000E+00 0. -1.
</event>
<event>
 7    1  0.5743890E-009  0.4614232E+02  0.7816164E-02  0.1320468E+00
        -11   -1    0    0    0    0  0.00000000000E+00  0.00000000000E+00  0.45593999997E+02  0.45594000000E+02  0.51100000000E-03 0. -1.
         11   -1    0    0    0    0 -0.00000000000E+00 -0.00000000000E+00 -0.45593999997E+02  0.45594000000E+02  0.51100000000E-03 0.  1.
    9900012    2    1    2    0    0  0.87017451666E+01 -0.27676414111E+02 -0.34458804392E+02  0.46142317997E+02  0.10000002147E+02 0.  0.
         12    1    1    2    0    0 -0.87017451666E+01  0.27676414111E+02  0.34458804392E+02  0.45045682003E+02  0.00000000000E+00 0. -1.
         11    1    3    3    0    0  0.15671804366E+01 -0.14960966551E+00 -0.45018868134E+01  0.47692161531E+01  0.51100000000E-03 0. -1.
        -11    1    3    3    0    0  0.14021395759E+01 -0.26242678008E+01 -0.28486373963E+01  0.41191640120E+01  0.51100000000E-03 0.  1.
        -12    1    3    3    0    0  0.57324251541E+01 -0.24902536645E+02 -0.27108280183E+02  0.37253937832E+02  0.00000000000E+00 0.  1.
</event>
<event>
 7    1  0.5743890E-009  0.4614232E+02  0.7816164E-02  0.1320468E+00
        -11   -1    0    0    0    0  0.00000000000E+00  0.00000000000E+00  0.45593999997E+02  0.45594000000E+02  0.51100000000E-03 0. -1.
         11   -1    0    0    0    0 -0.00000000000E+00 -0.00000000000E+00 -0.45593999997E+02  0.45594000000E+02  0.51100000000E-03 0.  1.
    9900012    2    1    2    0    0 -0.84508473140E+01  0.17567047203E+02  0.40609056274E+02  0.46142318529E+02  0.10000006998E+02 0.  0.
        -12    1    1    2    0    0  0.84508473140E+01 -0.17567047203E+02 -0.40609056274E+02  0.45045681471E+02  0.00000000000E+00 0.  1.
         11    1    3    3    0    0 -0.39735820265E+01  0.11764660339E+02  0.24107028827E+02  0.27117253293E+02  0.51100000000E-03 0. -1.
        -11    1    3    3    0    0  0.13459983235E+01  0.12296872194E+01  0.52315624296E+01  0.55401342818E+01  0.51100000000E-03 0.  1.
        -12    1    3    3    0    0 -0.58232636111E+01  0.45726996437E+01  0.11270465017E+02  0.13484930954E+02  0.00000000000E+00 0.  1.
</event>
<event>
 7    1  0.5743890E-009  0.4614232E+02  0.7816164E-02  0.1320468E+00
        -11   -1    0    0    0    0  0.00000000000E+00  0.00000000000E+00  0.45593999997E+02  0.45594000000E+02  0.51100000000E-03 0. -1.
         11   -1    0    0    0    0 -0.00000000000E+00 -0.00000000000E+00 -0.45593999997E+02  0.45594000000E+02  0.51100000000E-03 0.  1.
    9900012    2    1    2    0    0 -0.26372856722E+02  0.74401164353E+01 -0.35752351076E+02  0.46142317502E+02  0.99999976387E+01 0.  0.
         12    1    1    2    0    0  0.26372856722E+02 -0.74401164353E+01  0.35752351076E+02  0.45045682498E+02  0.00000000000E+00 0. -1.
         11    1    3    3    0    0 -0.18171387891E+02  0.70554140477E+01 -0.24165557213E+02  0.31047582208E+02  0.51100000000E-03 0. -1.
        -11    1    3    3    0    0 -0.88501820943E+01  0.79844919550E+00 -0.10386973667E+02  0.13669398906E+02  0.51100000000E-03 0.  1.
         12    1    3    3    0    0  0.64871326336E+00 -0.41374680789E+00 -0.11998201955E+01  0.14253363886E+01  0.00000000000E+00 0. -1.
</event>
<event>
 7    1  0.5743890E-009  0.4614232E+02  0.7816164E-02  0.1320468E+00
        -11   -1    0    0    0    0  0.00000000000E+00  0.00000000000E+00  0.45593999997E+02  0.45594000000E+02  0.51100000000E-03 0. -1.
         11   -1    0    0    0    0 -0.00000000000E+00 -0.00000000000E+00 -0.45593999997E+02  0.45594000000E+02  0.51100000000E-03 0.  1.
    9900012    2    1    2    0    0  0.20655086381E+02  0.27552145234E+02 -0.29040664714E+02  0.46142317549E+02  0.99999980686E+01 0.  0.
         12    1    1    2    0    0 -0.20655086381E+02 -0.27552145234E+02  0.29040664714E+02  0.45045682451E+02  0.00000000000E+00 0. -1.
         11    1    3    3    0    0  0.29007785763E+01  0.65134131193E+01 -0.23524610692E+01  0.75082048557E+01  0.51100000000E-03 0. -1.
        -11    1    3    3    0    0  0.10889606061E+02  0.95749047376E+01 -0.15271639058E+02  0.21059090215E+02  0.51100000000E-03 0.  1.
        -12    1    3    3    0    0  0.68647017442E+01  0.11463827377E+02 -0.11416564587E+02  0.17575022479E+02  0.00000000000E+00 0.  1.
</event>
<event>
 7    1  0.5743890E-009  0.4614232E+02  0.7816164E-02  0.1320468E+00
        -11   -1    0    0    0    0  0.00000000000E+00  0.00000000000E+00  0.45593999997E+02  0.45594000000E+02  0.51100000000E-03 0. -1.
         11   -1    0    0    0    0 -0.00000000000E+00 -0.00000000000E+00 -0.45593999997E+02  0.45594000000E+02  0.51100000000E-03 0.  1.
    9900012    2    1    2    0    0  0.22319245618E+02  0.11700053659E+02 -0.37337294458E+02  0.46142317210E+02  0.99999949733E+01 0.  0.
         12    1    1    2    0    0 -0.22319245618E+02 -0.11700053659E+02  0.37337294458E+02  0.45045682790E+02  0.00000000000E+00 0. -1.
         11    1    3    3    0    0  0.74373542774E+00 -0.10560296142E+01 -0.21519659511E+01  0.25098403631E+01  0.51100000000E-03 0. -1.
        -11    1    3    3    0    0  0.12805347323E+02  0.99924608265E+01 -0.25846303098E+02  0.30526342354E+02  0.51100000000E-03 0.  1.
         12    1    3    3    0    0  0.87701628673E+01  0.27636224463E+01 -0.93390254088E+01  0.13106134492E+02  0.00000000000E+00 0. -1.
</event>
<event>
 7    1  0.5743890E-009  0.4614232E+02  0.7816164E-02  0.1320468E+00
        -11   -1    0    0    0    0  0.00000000000E+00  0.00000000000E+00  0.45593999997E+02  0.45594000000E+02  0.51100000000E-03 0. -1.
         11   -1    0    0    0    0 -0.00000000000E+00 -0.00000000000E+00 -0.45593999997E+02  0.45594000000E+02  0.51100000000E-03 0.  1.
    9900012    2    1    2    0    0  0.15327483477E+02  0.14435639684E+01  0.42333176584E+02  0.46142318006E+02  0.10000002229E+02 0.  0.
        -12    1    1    2    0    0 -0.15327483477E+02 -0.14435639684E+01 -0.42333176584E+02  0.45045681994E+02  0.00000000000E+00 0.  1.
         11    1    3    3    0    0  0.36548756854E+01 -0.41525332083E+00  0.43032954987E+01  0.56611751436E+01  0.51100000000E-03 0. -1.
        -11    1    3    3    0    0  0.14065839502E+00 -0.10636423660E+01  0.96391441525E+01  0.96986710492E+01  0.51100000000E-03 0.  1.
         12    1    3    3    0    0  0.11531949397E+02  0.29224596552E+01  0.28390736932E+02  0.30782471813E+02  0.00000000000E+00 0. -1.
</event>
<event>
 7    1  0.5743890E-009  0.4614232E+02  0.7816164E-02  0.1320468E+00
        -11   -1    0    0    0    0  0.00000000000E+00  0.00000000000E+00  0.45593999997E+02  0.45594000000E+02  0.51100000000E-03 0. -1.
         11   -1    0    0    0    0 -0.00000000000E+00 -0.00000000000E+00 -0.45593999997E+02  0.45594000000E+02  0.51100000000E-03 0.  1.
    9900012    2    1    2    0    0 -0.23636916723E+02  0.30516034039E+02  0.23220277083E+02  0.46142318370E+02  0.10000005556E+02 0.  0.
        -12    1    1    2    0    0  0.23636916723E+02 -0.30516034039E+02 -0.23220277083E+02  0.45045681630E+02  0.00000000000E+00 0.  1.
         11    1    3    3    0    0 -0.65695712090E+01  0.80332940098E+01  0.10109103087E+02  0.14487478870E+02  0.51100000000E-03 0. -1.
        -11    1    3    3    0    0 -0.80998896333E+01  0.15261339284E+02  0.72793707541E+01  0.18748491344E+02  0.51100000000E-03 0.  1.
        -12    1    3    3    0    0 -0.89674558812E+01  0.72214007447E+01  0.58318032424E+01  0.12906348157E+02  0.00000000000E+00 0.  1.
</event>
<event>
 7    1  0.5743890E-009  0.4614232E+02  0.7816164E-02  0.1320468E+00
        -11   -1    0    0    0    0  0.00000000000E+00  0.00000000000E+00  0.45593999997E+02  0.45594000000E+02  0.51100000000E-03 0.  1.
         11   -1    0    0    0    0 -0.00000000000E+00 -0.00000000000E+00 -0.45593999997E+02  0.45594000000E+02  0.51100000000E-03 0. -1.
    9900012    2    1    2    0    0  0.15181809123E+02 -0.42342749466E+02  0.23911687979E+01  0.46142318200E+02  0.10000004002E+02 0.  0.
        -12    1    1    2    0    0 -0.15181809123E+02  0.42342749466E+02 -0.23911687979E+01  0.45045681800E+02  0.00000000000E+00 0.  1.
         11    1    3    3    0    0  0.96617930125E+01 -0.22406071144E+02  0.48182625134E+01  0.24871628861E+02  0.51100000000E-03 0.  1.
        -11    1    3    3    0    0  0.34269891621E+01 -0.68207454426E+01  0.57111600388E+00  0.76546062512E+01  0.51100000000E-03 0. -1.
        -12    1    3    3    0    0  0.20930269484E+01 -0.13115932880E+02 -0.29982097193E+01  0.13616083087E+02  0.00000000000E+00 0.  1.
</event>
<event>
 7    1  0.5743890E-009  0.4614232E+02  0.7816164E-02  0.1320468E+00
        -11   -1    0    0    0    0  0.00000000000E+00  0.00000000000E+00  0.45593999997E+02  0.45594000000E+02  0.51100000000E-03 0. -1.
         11   -1    0    0    0    0 -0.00000000000E+00 -0.00000000000E+00 -0.45593999997E+02  0.45594000000E+02  0.51100000000E-03 0.  1.
    9900012    2    1    2    0    0 -0.41086507263E+02 -0.11320633063E+02  0.14589573907E+02  0.46142317868E+02  0.10000000970E+02 0.  0.
        -12    1    1    2    0    0  0.41086507263E+02  0.11320633063E+02 -0.14589573907E+02  0.45045682132E+02  0.00000000000E+00 0.  1.
         11    1    3    3    0    0 -0.14285437808E+02 -0.34269974424E+01  0.16083402695E+01  0.14778525079E+02  0.51100000000E-03 0. -1.
        -11    1    3    3    0    0 -0.32925404794E+01  0.18434906403E+00  0.33633603016E+01  0.47103078631E+01  0.51100000000E-03 0.  1.
         12    1    3    3    0    0 -0.23508528975E+02 -0.80779846843E+01  0.96178733359E+01  0.26653484925E+02  0.00000000000E+00 0. -1.
</event>
<event>
 7    1  0.5743890E-009  0.4614232E+02  0.7816164E-02  0.1320468E+00
        -11   -1    0    0    0    0  0.00000000000E+00  0.00000000000E+00  0.45593999997E+02  0.45594000000E+02  0.51100000000E-03 0. -1.
         11   -1    0    0    0    0 -0.00000000000E+00 -0.00000000000E+00 -0.45593999997E+02  0.45594000000E+02  0.51100000000E-03 0.  1.
    9900012    2    1    2    0    0 -0.25064302941E+02  0.18207107543E+02 -0.32701609944E+02  0.46142319409E+02  0.10000015025E+02 0.  0.
         12    1    1    2    0    0  0.25064302941E+02 -0.18207107543E+02  0.32701609944E+02  0.45045680591E+02  0.00000000000E+00 0. -1.
         11    1    3    3    0    0 -0.14107085534E+02  0.14540179456E+02 -0.20207357932E+02  0.28614052417E+02  0.51100000000E-03 0. -1.
        -11    1    3    3    0    0 -0.98953465395E+01  0.41669658752E+01 -0.12319337232E+02  0.16341589820E+02  0.51100000000E-03 0.  1.
        -12    1    3    3    0    0 -0.10618708678E+01 -0.50003778842E+00 -0.17491477937E+00  0.11866771716E+01  0.00000000000E+00 0.  1.
</event>
<event>
 7    1  0.5743890E-009  0.4614232E+02  0.7816164E-02  0.1320468E+00
        -11   -1    0    0    0    0  0.00000000000E+00  0.00000000000E+00  0.45593999997E+02  0.45594000000E+02  0.51100000000E-03 0. -1.
         11   -1    0    0    0    0 -0.00000000000E+00 -0.00000000000E+00 -0.45593999997E+02  0.45594000000E+02  0.51100000000E-03 0.  1.
    9900012    2    1    2    0    0  0.15723819858E+02 -0.68276606736E+01  0.41656428553E+02  0.46142317621E+02  0.99999987207E+01 0.  0.
        -12    1    1    2    0    0 -0.15723819858E+02  0.68276606736E+01 -0.41656428553E+02  0.45045682379E+02  0.00000000000E+00 0.  1.
         11    1    3    3    0    0  0.90031195553E+01 -0.29854768750E+01  0.20319349065E+02  0.22424209698E+02  0.51100000000E-03 0. -1.
        -11    1    3    3    0    0  0.18122681946E+01  0.95089920620E+00  0.10455429303E+01  0.22981918087E+01  0.51100000000E-03 0.  1.
         12    1    3    3    0    0  0.49084321084E+01 -0.47930830048E+01  0.20291536558E+02  0.21419916114E+02  0.00000000000E+00 0. -1.
</event>
<event>
 7    1  0.5743890E-009  0.4614232E+02  0.7816164E-02  0.1320468E+00
        -11   -1    0    0    0    0  0.00000000000E+00  0.00000000000E+00  0.45593999997E+02  0.45594000000E+02  0.51100000000E-03 0. -1.
         11   -1    0    0    0    0 -0.00000000000E+00 -0.00000000000E+00 -0.45593999997E+02  0.45594000000E+02  0.51100000000E-03 0.  1.
    9900012    2    1    2    0    0  0.13179651254E+02  0.20389379338E+02  0.37943160807E+02  0.46142318199E+02  0.10000003989E+02 0.  0.
        -12    1    1    2    0    0 -0.13179651254E+02 -0.20389379338E+02 -0.37943160807E+02  0.45045681801E+02  0.00000000000E+00 0.  1.
         11    1    3    3    0    0  0.68987868058E+01  0.51027685508E+01  0.16464012768E+02  0.18565969486E+02  0.51100000000E-03 0. -1.
        -11    1    3    3    0    0  0.21275743368E+00 -0.32858372617E+00  0.12555528614E+01  0.13151601574E+01  0.51100000000E-03 0.  1.
         12    1    3    3    0    0  0.60681070146E+01  0.15615194513E+02  0.20223595177E+02  0.26261188555E+02  0.00000000000E+00 0. -1.
</event>
<event>
 7    1  0.5743890E-009  0.4614232E+02  0.7816164E-02  0.1320468E+00
        -11   -1    0    0    0    0  0.00000000000E+00  0.00000000000E+00  0.45593999997E+02  0.45594000000E+02  0.51100000000E-03 0. -1.
         11   -1    0    0    0    0 -0.00000000000E+00 -0.00000000000E+00 -0.45593999997E+02  0.45594000000E+02  0.51100000000E-03 0.  1.
    9900012    2    1    2    0    0 -0.19494601723E+02 -0.16135726436E+02  0.37265428785E+02  0.46142319336E+02  0.10000014365E+02 0.  0.
        -12    1    1    2    0    0  0.19494601723E+02  0.16135726436E+02 -0.37265428785E+02  0.45045680664E+02  0.00000000000E+00 0.  1.
         11    1    3    3    0    0 -0.11621715620E+02 -0.59982777569E+01  0.13757062342E+02  0.18981579875E+02  0.51100000000E-03 0. -1.
        -11    1    3    3    0    0 -0.47787538630E+01 -0.44700971583E+01  0.78266087649E+01  0.10201669574E+02  0.51100000000E-03 0.  1.
        -12    1    3    3    0    0 -0.30941322398E+01 -0.56673515204E+01  0.15681757677E+02  0.16959069887E+02  0.00000000000E+00 0.  1.
</event>
<event>
 7    1  0.6114606E-009  0.4614232E+02  0.7816164E-02  0.1320468E+00
        -11   -1    0    0    0    0  0.00000000000E+00  0.00000000000E+00  0.45593999997E+02  0.45594000000E+02  0.51100000000E-03 0. -1.
         11   -1    0    0    0    0 -0.00000000000E+00 -0.00000000000E+00 -0.45593999997E+02  0.45594000000E+02  0.51100000000E-03 0.  1.
    9900012    2    1    2    0    0  0.14847442139E+01  0.38186319857E+02  0.23847725348E+02  0.46142317700E+02  0.99999994421E+01 0.  0.
        -12    1    1    2    0    0 -0.14847442139E+01 -0.38186319857E+02 -0.23847725348E+02  0.45045682300E+02  0.00000000000E+00 0.  1.
         11    1    3    3    0    0 -0.67537016860E+00  0.22226062610E+02  0.14893026943E+02  0.26762963883E+02  0.51100000000E-03 0. -1.
        -11    1    3    3    0    0  0.24203777995E+01  0.16440610820E+02  0.84841333928E+01  0.18658307332E+02  0.51100000000E-03 0.  1.
        -12    1    3    3    0    0 -0.26026341708E+00 -0.48035357331E+00  0.47056501284E+00  0.72104648461E+00  0.00000000000E+00 0.  1.
</event>
<event>
 7    1  0.5743890E-009  0.4614231E+02  0.7816164E-02  0.1320468E+00
        -11   -1    0    0    0    0  0.00000000000E+00  0.00000000000E+00  0.45593999997E+02  0.45594000000E+02  0.51100000000E-03 0. -1.
         11   -1    0    0    0    0 -0.00000000000E+00 -0.00000000000E+00 -0.45593999997E+02  0.45594000000E+02  0.51100000000E-03 0.  1.
    9900012    2    1    2    0    0  0.14657727705E+02  0.29595926864E+02 -0.30632431957E+02  0.46142314790E+02  0.99999729089E+01 0.  0.
         12    1    1    2    0    0 -0.14657727705E+02 -0.29595926864E+02  0.30632431957E+02  0.45045685210E+02  0.00000000000E+00 0. -1.
         11    1    3    3    0    0  0.45771675449E+01  0.14845015408E+02 -0.16610295097E+02  0.22742621852E+02  0.51100000000E-03 0. -1.
        -11    1    3    3    0    0  0.26255977815E+01  0.67513541912E+01 -0.84402525081E+01  0.11122608048E+02  0.51100000000E-03 0.  1.
         12    1    3    3    0    0  0.74549623787E+01  0.79995572651E+01 -0.55818843513E+01  0.12277084891E+02  0.00000000000E+00 0. -1.
</event>
<event>
 7    1  0.5743890E-009  0.4614232E+02  0.7816164E-02  0.1320468E+00
        -11   -1    0    0    0    0  0.00000000000E+00  0.00000000000E+00  0.45593999997E+02  0.45594000000E+02  0.51100000000E-03 0. -1.
         11   -1    0    0    0    0 -0.00000000000E+00 -0.00000000000E+00 -0.45593999997E+02  0.45594000000E+02  0.51100000000E-03 0.  1.
    9900012    2    1    2    0    0  0.89467696391E+01 -0.30373939399E+02  0.32038922940E+02  0.46142318024E+02  0.10000002393E+02 0.  0.
        -12    1    1    2    0    0 -0.89467696391E+01  0.30373939399E+02 -0.32038922940E+02  0.45045681976E+02  0.00000000000E+00 0.  1.
         11    1    3    3    0    0  0.56341182892E+01 -0.14454266476E+02  0.10137681467E+02  0.18532179959E+02  0.51100000000E-03 0. -1.
        -11    1    3    3    0    0  0.40378261786E+01 -0.13547911228E+02  0.16942672318E+02  0.22065903209E+02  0.51100000000E-03 0.  1.
        -12    1    3    3    0    0 -0.72517482874E+00 -0.23717616951E+01  0.49585691542E+01  0.55442348550E+01  0.00000000000E+00 0.  1.
</event>
<event>
 7    1  0.5743890E-009  0.4614232E+02  0.7816164E-02  0.1320468E+00
        -11   -1    0    0    0    0  0.00000000000E+00  0.00000000000E+00  0.45593999997E+02  0.45594000000E+02  0.51100000000E-03 0. -1.
         11   -1    0    0    0    0 -0.00000000000E+00 -0.00000000000E+00 -0.45593999997E+02  0.45594000000E+02  0.51100000000E-03 0.  1.
    9900012    2    1    2    0    0  0.14588321372E+01 -0.23951278444E+02 -0.38122454013E+02  0.46142318406E+02  0.10000005878E+02 0.  0.
         12    1    1    2    0    0 -0.14588321372E+01  0.23951278444E+02  0.38122454013E+02  0.45045681594E+02  0.00000000000E+00 0. -1.
         11    1    3    3    0    0  0.14235567472E+01 -0.19986990266E+01 -0.13605960600E+01  0.28058035411E+01  0.51100000000E-03 0. -1.
        -11    1    3    3    0    0  0.23110917806E+01 -0.18615908563E+02 -0.28193392953E+02  0.33863853935E+02  0.51100000000E-03 0.  1.
         12    1    3    3    0    0 -0.22758163905E+01 -0.33366708538E+01 -0.85684650003E+01  0.94726609298E+01  0.00000000000E+00 0. -1.
</event>
<event>
 7    1  0.5743890E-009  0.4614232E+02  0.7816164E-02  0.1320468E+00
        -11   -1    0    0    0    0  0.00000000000E+00  0.00000000000E+00  0.45593999997E+02  0.45594000000E+02  0.51100000000E-03 0. -1.
         11   -1    0    0    0    0 -0.00000000000E+00 -0.00000000000E+00 -0.45593999997E+02  0.45594000000E+02  0.51100000000E-03 0.  1.
    9900012    2    1    2    0    0  0.17671737163E+02  0.35040615735E+02 -0.22112853383E+02  0.46142319517E+02  0.10000016012E+02 0.  0.
         12    1    1    2    0    0 -0.17671737163E+02 -0.35040615735E+02  0.22112853383E+02  0.45045680483E+02  0.00000000000E+00 0. -1.
         11    1    3    3    0    0  0.56101990235E+01  0.88558570471E+01 -0.81654843068E+01  0.13288177879E+02  0.51100000000E-03 0.  1.
        -11    1    3    3    0    0 -0.70070647346E+00  0.79167310949E+00  0.24863367469E+00  0.10860731281E+01  0.51100000000E-03 0. -1.
        -12    1    3    3    0    0  0.12762244613E+02  0.25393085578E+02 -0.14196002751E+02  0.31768068510E+02  0.00000000000E+00 0.  1.
</event>
<event>
 7    1  0.5743890E-009  0.4614232E+02  0.7816164E-02  0.1320468E+00
        -11   -1    0    0    0    0  0.00000000000E+00  0.00000000000E+00  0.45593999997E+02  0.45594000000E+02  0.51100000000E-03 0. -1.
         11   -1    0    0    0    0 -0.00000000000E+00 -0.00000000000E+00 -0.45593999997E+02  0.45594000000E+02  0.51100000000E-03 0.  1.
    9900012    2    1    2    0    0 -0.31057418851E+01  0.26366934190E+02  0.36390281801E+02  0.46142318068E+02  0.10000002795E+02 0.  0.
        -12    1    1    2    0    0  0.31057418851E+01 -0.26366934190E+02 -0.36390281801E+02  0.45045681932E+02  0.00000000000E+00 0.  1.
         11    1    3    3    0    0 -0.95242014092E+00  0.94525179588E+00  0.10276948538E+01  0.16901958632E+01  0.51100000000E-03 0. -1.
        -11    1    3    3    0    0 -0.52512588389E+00  0.13850492527E+02  0.12013097509E+02  0.18341930445E+02  0.51100000000E-03 0.  1.
         12    1    3    3    0    0 -0.16281958603E+01  0.11571189867E+02  0.23349489438E+02  0.26110191759E+02  0.00000000000E+00 0. -1.
</event>
<event>
 7    1  0.5743890E-009  0.4614232E+02  0.7816164E-02  0.1320468E+00
        -11   -1    0    0    0    0  0.00000000000E+00  0.00000000000E+00  0.45593999997E+02  0.45594000000E+02  0.51100000000E-03 0.  1.
         11   -1    0    0    0    0 -0.00000000000E+00 -0.00000000000E+00 -0.45593999997E+02  0.45594000000E+02  0.51100000000E-03 0. -1.
    9900012    2    1    2    0    0  0.39015519208E+02  0.21150235899E+02  0.77181738157E+01  0.46142318468E+02  0.10000006444E+02 0.  0.
        -12    1    1    2    0    0 -0.39015519208E+02 -0.21150235899E+02 -0.77181738157E+01  0.45045681532E+02  0.00000000000E+00 0.  1.
         11    1    3    3    0    0  0.19158019735E+02  0.93228048904E+01  0.67991630574E+01  0.22364548503E+02  0.51100000000E-03 0. -1.
        -11    1    3    3    0    0  0.69122540617E+01  0.29571356905E+01 -0.20808564169E+01  0.78008891413E+01  0.51100000000E-03 0.  1.
        -12    1    3    3    0    0  0.12945245411E+02  0.88702953182E+01  0.29998671752E+01  0.15976880824E+02  0.00000000000E+00 0.  1.
</event>
<event>
 7    1  0.5743890E-009  0.4614233E+02  0.7816164E-02  0.1320468E+00
        -11   -1    0    0    0    0  0.00000000000E+00  0.00000000000E+00  0.45593999997E+02  0.45594000000E+02  0.51100000000E-03 0. -1.
         11   -1    0    0    0    0 -0.00000000000E+00 -0.00000000000E+00 -0.45593999997E+02  0.45594000000E+02  0.51100000000E-03 0.  1.
    9900012    2    1    2    0    0 -0.14209822959E+02  0.10967521880E+02  0.41314731140E+02  0.46142327467E+02  0.10000088510E+02 0.  0.
        -12    1    1    2    0    0  0.14209822959E+02 -0.10967521880E+02 -0.41314731140E+02  0.45045672533E+02  0.00000000000E+00 0.  1.
         11    1    3    3    0    0 -0.83987770172E+01  0.21555095147E+01  0.15633017683E+02  0.17876714430E+02  0.51100000000E-03 0. -1.
        -11    1    3    3    0    0 -0.79180231280E+00 -0.63658998728E+00  0.13861090352E+01  0.17185738952E+01  0.51100000000E-03 0.  1.
        -12    1    3    3    0    0 -0.50192436291E+01  0.94486023529E+01  0.24295604421E+02  0.26547039143E+02  0.00000000000E+00 0.  1.
</event>
<event>
 7    1  0.5743890E-009  0.4614232E+02  0.7816164E-02  0.1320468E+00
        -11   -1    0    0    0    0  0.00000000000E+00  0.00000000000E+00  0.45593999997E+02  0.45594000000E+02  0.51100000000E-03 0. -1.
         11   -1    0    0    0    0 -0.00000000000E+00 -0.00000000000E+00 -0.45593999997E+02  0.45594000000E+02  0.51100000000E-03 0.  1.
    9900012    2    1    2    0    0 -0.25057318352E+02 -0.32282415567E+02 -0.18949663615E+02  0.46142319753E+02  0.10000018165E+02 0.  0.
         12    1    1    2    0    0  0.25057318352E+02  0.32282415567E+02  0.18949663615E+02  0.45045680247E+02  0.00000000000E+00 0. -1.
         11    1    3    3    0    0 -0.33896054953E+01 -0.93247714581E+00 -0.21582063147E+01  0.41251416702E+01  0.51100000000E-03 0. -1.
        -11    1    3    3    0    0 -0.17052951490E+02 -0.26907763586E+02 -0.15715935056E+02  0.35522127057E+02  0.51100000000E-03 0.  1.
        -12    1    3    3    0    0 -0.46147613659E+01 -0.44421748353E+01 -0.10755222439E+01  0.64950510259E+01  0.00000000000E+00 0.  1.
</event>
<event>
 7    1  0.5743890E-009  0.4614232E+02  0.7816164E-02  0.1320468E+00
        -11   -1    0    0    0    0  0.00000000000E+00  0.00000000000E+00  0.45593999997E+02  0.45594000000E+02  0.51100000000E-03 0. -1.
         11   -1    0    0    0    0 -0.00000000000E+00 -0.00000000000E+00 -0.45593999997E+02  0.45594000000E+02  0.51100000000E-03 0.  1.
    9900012    2    1    2    0    0  0.16060386696E+02  0.22249729912E+02 -0.35722920927E+02  0.46142316727E+02  0.99999905660E+01 0.  0.
         12    1    1    2    0    0 -0.16060386696E+02 -0.22249729912E+02  0.35722920927E+02  0.45045683273E+02  0.00000000000E+00 0. -1.
         11    1    3    3    0    0  0.60109327366E+00 -0.27109211843E-01  0.52044686061E+00  0.79555843836E+00  0.51100000000E-03 0. -1.
        -11    1    3    3    0    0  0.67077645189E+00  0.20881202571E+01 -0.35814315392E+01  0.41996237198E+01  0.51100000000E-03 0.  1.
        -12    1    3    3    0    0  0.14788516970E+02  0.20188718867E+02 -0.32661936249E+02  0.41147134568E+02  0.00000000000E+00 0.  1.
</event>
<event>
 7    1  0.5743890E-009  0.4614232E+02  0.7816164E-02  0.1320468E+00
        -11   -1    0    0    0    0  0.00000000000E+00  0.00000000000E+00  0.45593999997E+02  0.45594000000E+02  0.51100000000E-03 0. -1.
         11   -1    0    0    0    0 -0.00000000000E+00 -0.00000000000E+00 -0.45593999997E+02  0.45594000000E+02  0.51100000000E-03 0.  1.
    9900012    2    1    2    0    0 -0.12242675171E+02  0.29832303164E+02  0.31452570083E+02  0.46142316830E+02  0.99999915095E+01 0.  0.
        -12    1    1    2    0    0  0.12242675171E+02 -0.29832303164E+02 -0.31452570083E+02  0.45045683170E+02  0.00000000000E+00 0.  1.
         11    1    3    3    0    0 -0.81526897025E+01  0.11080494893E+02  0.15996806263E+02  0.21098377362E+02  0.51100000000E-03 0. -1.
        -11    1    3    3    0    0 -0.83853475454E+00  0.12081177504E+01  0.50982966306E-01  0.14714919495E+01  0.51100000000E-03 0.  1.
         12    1    3    3    0    0 -0.32514507141E+01  0.17543690521E+02  0.15404780854E+02  0.23572447518E+02  0.00000000000E+00 0. -1.
</event>
<event>
 7    1  0.5743890E-009  0.4614232E+02  0.7816164E-02  0.1320468E+00
        -11   -1    0    0    0    0  0.00000000000E+00  0.00000000000E+00  0.45593999997E+02  0.45594000000E+02  0.51100000000E-03 0. -1.
         11   -1    0    0    0    0 -0.00000000000E+00 -0.00000000000E+00 -0.45593999997E+02  0.45594000000E+02  0.51100000000E-03 0.  1.
    9900012    2    1    2    0    0  0.10620937809E+02  0.47288123126E+00  0.43773114792E+02  0.46142317464E+02  0.99999972881E+01 0.  0.
        -12    1    1    2    0    0 -0.10620937809E+02 -0.47288123126E+00 -0.43773114792E+02  0.45045682536E+02  0.00000000000E+00 0.  1.
         11    1    3    3    0    0  0.12891042603E+01 -0.33138982960E+01  0.17884485801E+02  0.18234542614E+02  0.51100000000E-03 0. -1.
        -11    1    3    3    0    0  0.27493041539E+01 -0.84014008295E-01  0.79113805405E+01  0.83758983997E+01  0.51100000000E-03 0.  1.
         12    1    3    3    0    0  0.65825293947E+01  0.38707935355E+01  0.17977248450E+02  0.19531876450E+02  0.00000000000E+00 0. -1.
</event>
<event>
 7    1  0.5743890E-009  0.4614232E+02  0.7816164E-02  0.1320468E+00
        -11   -1    0    0    0    0  0.00000000000E+00  0.00000000000E+00  0.45593999997E+02  0.45594000000E+02  0.51100000000E-03 0. -1.
         11   -1    0    0    0    0 -0.00000000000E+00 -0.00000000000E+00 -0.45593999997E+02  0.45594000000E+02  0.51100000000E-03 0.  1.
    9900012    2    1    2    0    0  0.10637785458E+02 -0.26329247295E+02  0.34967438593E+02  0.46142317584E+02  0.99999983873E+01 0.  0.
        -12    1    1    2    0    0 -0.10637785458E+02  0.26329247295E+02 -0.34967438593E+02  0.45045682416E+02  0.00000000000E+00 0.  1.
         11    1    3    3    0    0  0.14067195467E+01  0.12674115301E+00  0.24951411748E+01  0.28671681057E+01  0.51100000000E-03 0. -1.
        -11    1    3    3    0    0 -0.52589369491E+00 -0.46551574664E+01  0.61610074529E+01  0.77398364525E+01  0.51100000000E-03 0.  1.
         12    1    3    3    0    0  0.97569596059E+01 -0.21800830981E+02  0.26311289965E+02  0.35535313026E+02  0.00000000000E+00 0. -1.
</event>
<event>
 7    1  0.5743890E-009  0.4614232E+02  0.7816164E-02  0.1320468E+00
        -11   -1    0    0    0    0  0.00000000000E+00  0.00000000000E+00  0.45593999997E+02  0.45594000000E+02  0.51100000000E-03 0. -1.
         11   -1    0    0    0    0 -0.00000000000E+00 -0.00000000000E+00 -0.45593999997E+02  0.45594000000E+02  0.51100000000E-03 0.  1.
    9900012    2    1    2    0    0  0.34311612991E+02  0.17920904812E+02  0.23036228750E+02  0.46142318184E+02  0.10000003852E+02 0.  0.
        -12    1    1    2    0    0 -0.34311612991E+02 -0.17920904812E+02 -0.23036228750E+02  0.45045681816E+02  0.00000000000E+00 0.  1.
         11    1    3    3    0    0  0.76278814411E+01  0.15999624747E+01  0.46914262205E+01  0.90969190083E+01  0.51100000000E-03 0. -1.
        -11    1    3    3    0    0  0.47064794456E+00  0.21846859975E+00 -0.69419950664E+00  0.86668981357E+00  0.51100000000E-03 0.  1.
        -12    1    3    3    0    0  0.26213083605E+02  0.16102473738E+02  0.19039002036E+02  0.36178709362E+02  0.00000000000E+00 0.  1.
</event>
<event>
 7    1  0.5743890E-009  0.4614232E+02  0.7816164E-02  0.1320468E+00
        -11   -1    0    0    0    0  0.00000000000E+00  0.00000000000E+00  0.45593999997E+02  0.45594000000E+02  0.51100000000E-03 0. -1.
         11   -1    0    0    0    0 -0.00000000000E+00 -0.00000000000E+00 -0.45593999997E+02  0.45594000000E+02  0.51100000000E-03 0.  1.
    9900012    2    1    2    0    0  0.35812994690E+02  0.21446506151E+02 -0.16928970549E+02  0.46142320311E+02  0.10000023256E+02 0.  0.
         12    1    1    2    0    0 -0.35812994690E+02 -0.21446506151E+02  0.16928970549E+02  0.45045679689E+02  0.00000000000E+00 0. -1.
         11    1    3    3    0    0  0.54811562258E+01  0.17802875583E+01 -0.67855159285E+00  0.58028380890E+01  0.51100000000E-03 0. -1.
        -11    1    3    3    0    0  0.18992902452E+02  0.80021611548E+01 -0.10062658010E+02  0.22935169787E+02  0.51100000000E-03 0.  1.
        -12    1    3    3    0    0  0.11338936013E+02  0.11664057438E+02 -0.61877609460E+01  0.17404312435E+02  0.00000000000E+00 0.  1.
</event>
<event>
 7    1  0.5743890E-009  0.4614232E+02  0.7816164E-02  0.1320468E+00
        -11   -1    0    0    0    0  0.00000000000E+00  0.00000000000E+00  0.45593999997E+02  0.45594000000E+02  0.51100000000E-03 0. -1.
         11   -1    0    0    0    0 -0.00000000000E+00 -0.00000000000E+00 -0.45593999997E+02  0.45594000000E+02  0.51100000000E-03 0.  1.
    9900012    2    1    2    0    0  0.26538269308E+02  0.88379053116E+00 -0.36387531591E+02  0.46142320087E+02  0.10000021207E+02 0.  0.
         12    1    1    2    0    0 -0.26538269308E+02 -0.88379053116E+00  0.36387531591E+02  0.45045679913E+02  0.00000000000E+00 0. -1.
         11    1    3    3    0    0  0.95920593650E+01 -0.64313947563E+00 -0.18007069609E+02  0.20412637934E+02  0.51100000000E-03 0. -1.
        -11    1    3    3    0    0  0.43949844005E+01 -0.65124075480E+00 -0.17366122246E+01  0.47703065605E+01  0.51100000000E-03 0.  1.
        -12    1    3    3    0    0  0.12551225542E+02  0.21781707616E+01 -0.16643849758E+02  0.20959375593E+02  0.00000000000E+00 0.  1.
</event>
<event>
 7    1  0.5743890E-009  0.4614232E+02  0.7816164E-02  0.1320468E+00
        -11   -1    0    0    0    0  0.00000000000E+00  0.00000000000E+00  0.45593999997E+02  0.45594000000E+02  0.51100000000E-03 0. -1.
         11   -1    0    0    0    0 -0.00000000000E+00 -0.00000000000E+00 -0.45593999997E+02  0.45594000000E+02  0.51100000000E-03 0.  1.
    9900012    2    1    2    0    0  0.33995696950E+02  0.44308051256E+01 -0.29219413754E+02  0.46142316685E+02  0.99999901852E+01 0.  0.
         12    1    1    2    0    0 -0.33995696950E+02 -0.44308051256E+01  0.29219413754E+02  0.45045683315E+02  0.00000000000E+00 0. -1.
         11    1    3    3    0    0  0.87998265647E+01 -0.66742774115E-01 -0.42391310136E+01  0.97678879077E+01  0.51100000000E-03 0. -1.
        -11    1    3    3    0    0  0.23182321186E+02  0.55887934674E+01 -0.20965162741E+02  0.31752049966E+02  0.51100000000E-03 0.  1.
        -12    1    3    3    0    0  0.20135491997E+01 -0.10912455677E+01 -0.40151199990E+01  0.46223788113E+01  0.00000000000E+00 0.  1.
</event>
<event>
 7    1  0.5743890E-009  0.4614232E+02  0.7816164E-02  0.1320468E+00
        -11   -1    0    0    0    0  0.00000000000E+00  0.00000000000E+00  0.45593999997E+02  0.45594000000E+02  0.51100000000E-03 0. -1.
         11   -1    0    0    0    0 -0.00000000000E+00 -0.00000000000E+00 -0.45593999997E+02  0.45594000000E+02  0.51100000000E-03 0.  1.
    9900012    2    1    2    0    0 -0.46419225787E+01 -0.19253084611E+02 -0.40458432797E+02  0.46142317669E+02  0.99999991594E+01 0.  0.
         12    1    1    2    0    0  0.46419225787E+01  0.19253084611E+02  0.40458432797E+02  0.45045682331E+02  0.00000000000E+00 0. -1.
         11    1    3    3    0    0  0.86986204808E+00 -0.64572036499E+00 -0.22678324152E+00  0.11068178135E+01  0.51100000000E-03 0. -1.
        -11    1    3    3    0    0 -0.56500428909E+01 -0.13572569883E+02 -0.25111691995E+02  0.29098706380E+02  0.51100000000E-03 0.  1.
        -12    1    3    3    0    0  0.13825826414E+00 -0.50347943623E+01 -0.15119957561E+02  0.15936793475E+02  0.00000000000E+00 0.  1.
</event>
<event>
 7    1  0.5743890E-009  0.4614231E+02  0.7816164E-02  0.1320468E+00
        -11   -1    0    0    0    0  0.00000000000E+00  0.00000000000E+00  0.45593999997E+02  0.45594000000E+02  0.51100000000E-03 0. -1.
         11   -1    0    0    0    0 -0.00000000000E+00 -0.00000000000E+00 -0.45593999997E+02  0.45594000000E+02  0.51100000000E-03 0.  1.
    9900012    2    1    2    0    0  0.31345912604E+01  0.31334825822E+02 -0.32208957095E+02  0.46142313317E+02  0.99999594705E+01 0.  0.
         12    1    1    2    0    0 -0.31345912604E+01 -0.31334825822E+02  0.32208957095E+02  0.45045686683E+02  0.00000000000E+00 0. -1.
         11    1    3    3    0    0 -0.67276694537E+00  0.47217391760E+01 -0.68181744992E+01  0.83207535699E+01  0.51100000000E-03 0. -1.
        -11    1    3    3    0    0 -0.12125853879E+01  0.12581644701E+02 -0.15195448366E+02  0.19765368653E+02  0.51100000000E-03 0.  1.
         12    1    3    3    0    0  0.50199435936E+01  0.14031441945E+02 -0.10195334230E+02  0.18056191094E+02  0.00000000000E+00 0. -1.
</event>
<event>
 7    1  0.5743890E-009  0.4614232E+02  0.7816164E-02  0.1320468E+00
        -11   -1    0    0    0    0  0.00000000000E+00  0.00000000000E+00  0.45593999997E+02  0.45594000000E+02  0.51100000000E-03 0. -1.
         11   -1    0    0    0    0 -0.00000000000E+00 -0.00000000000E+00 -0.45593999997E+02  0.45594000000E+02  0.51100000000E-03 0.  1.
    9900012    2    1    2    0    0 -0.18761493505E+02 -0.19789986248E+02  0.35853538330E+02  0.46142318687E+02  0.10000008440E+02 0.  0.
        -12    1    1    2    0    0  0.18761493505E+02  0.19789986248E+02 -0.35853538330E+02  0.45045681313E+02  0.00000000000E+00 0.  1.
         11    1    3    3    0    0 -0.71549572428E+01 -0.10772946490E+02  0.21608075046E+02  0.25182507752E+02  0.51100000000E-03 0. -1.
        -11    1    3    3    0    0 -0.24547405583E+00 -0.20124783469E+01  0.19333926956E+01  0.28014878521E+01  0.51100000000E-03 0.  1.
        -12    1    3    3    0    0 -0.11361062206E+02 -0.70045614109E+01  0.12312070589E+02  0.18158323083E+02  0.00000000000E+00 0.  1.
</event>
<event>
 7    1  0.5743890E-009  0.4614232E+02  0.7816164E-02  0.1320468E+00
        -11   -1    0    0    0    0  0.00000000000E+00  0.00000000000E+00  0.45593999997E+02  0.45594000000E+02  0.51100000000E-03 0. -1.
         11   -1    0    0    0    0 -0.00000000000E+00 -0.00000000000E+00 -0.45593999997E+02  0.45594000000E+02  0.51100000000E-03 0.  1.
    9900012    2    1    2    0    0 -0.17266051542E+02 -0.79220550803E+01  0.40844069093E+02  0.46142317936E+02  0.10000001591E+02 0.  0.
        -12    1    1    2    0    0  0.17266051542E+02  0.79220550803E+01 -0.40844069093E+02  0.45045682064E+02  0.00000000000E+00 0.  1.
         11    1    3    3    0    0 -0.13449285630E+02 -0.82338257544E+01  0.24758766030E+02  0.29354312564E+02  0.51100000000E-03 0. -1.
        -11    1    3    3    0    0  0.48324890819E+00  0.89109705414E-02  0.20169095860E+01  0.20740138504E+01  0.51100000000E-03 0.  1.
         12    1    3    3    0    0 -0.43000148204E+01  0.30285970364E+00  0.14068393478E+02  0.14713991521E+02  0.00000000000E+00 0. -1.
</event>
<event>
 7    1  0.5743890E-009  0.4614232E+02  0.7816164E-02  0.1320468E+00
        -11   -1    0    0    0    0  0.00000000000E+00  0.00000000000E+00  0.45593999997E+02  0.45594000000E+02  0.51100000000E-03 0. -1.
         11   -1    0    0    0    0 -0.00000000000E+00 -0.00000000000E+00 -0.45593999997E+02  0.45594000000E+02  0.51100000000E-03 0.  1.
    9900012    2    1    2    0    0 -0.16036869242E+02  0.29771993764E+02  0.29758370696E+02  0.46142318584E+02  0.10000007507E+02 0.  0.
        -12    1    1    2    0    0  0.16036869242E+02 -0.29771993764E+02 -0.29758370696E+02  0.45045681416E+02  0.00000000000E+00 0.  1.
         11    1    3    3    0    0 -0.62565276878E+01  0.70654209630E+01  0.95424673356E+01  0.13420990843E+02  0.51100000000E-03 0. -1.
        -11    1    3    3    0    0 -0.11806829970E+01  0.55321342349E+00  0.33095571134E+01  0.35571373293E+01  0.51100000000E-03 0.  1.
        -12    1    3    3    0    0 -0.85996585570E+01  0.22153359377E+02  0.16906346246E+02  0.29164190412E+02  0.00000000000E+00 0.  1.
</event>
<event>
 7    1  0.5743890E-009  0.4614232E+02  0.7816164E-02  0.1320468E+00
        -11   -1    0    0    0    0  0.00000000000E+00  0.00000000000E+00  0.45593999997E+02  0.45594000000E+02  0.51100000000E-03 0. -1.
         11   -1    0    0    0    0 -0.00000000000E+00 -0.00000000000E+00 -0.45593999997E+02  0.45594000000E+02  0.51100000000E-03 0.  1.
    9900012    2    1    2    0    0 -0.10682298002E+02 -0.40902891395E+02  0.15554903554E+02  0.46142322742E+02  0.10000045419E+02 0.  0.
        -12    1    1    2    0    0  0.10682298002E+02  0.40902891395E+02 -0.15554903554E+02  0.45045677258E+02  0.00000000000E+00 0.  1.
         11    1    3    3    0    0 -0.31918544664E+01 -0.33421605690E+01  0.97334391830E+00  0.47228562171E+01  0.51100000000E-03 0. -1.
        -11    1    3    3    0    0  0.74003409406E+00 -0.93828681024E+01  0.36401064043E+01  0.10091394313E+02  0.51100000000E-03 0.  1.
         12    1    3    3    0    0 -0.82304776300E+01 -0.28177862723E+02  0.10941453231E+02  0.31328072212E+02  0.00000000000E+00 0. -1.
</event>
<event>
 7    1  0.5743890E-009  0.4614232E+02  0.7816164E-02  0.1320468E+00
        -11   -1    0    0    0    0  0.00000000000E+00  0.00000000000E+00  0.45593999997E+02  0.45594000000E+02  0.51100000000E-03 0. -1.
         11   -1    0    0    0    0 -0.00000000000E+00 -0.00000000000E+00 -0.45593999997E+02  0.45594000000E+02  0.51100000000E-03 0.  1.
    9900012    2    1    2    0    0  0.13445700361E+02 -0.32155514384E+02 -0.28536808254E+02  0.46142318866E+02  0.10000010072E+02 0.  0.
         12    1    1    2    0    0 -0.13445700361E+02  0.32155514384E+02  0.28536808254E+02  0.45045681134E+02  0.00000000000E+00 0. -1.
         11    1    3    3    0    0  0.93439341665E+01 -0.26162127452E+02 -0.19723762597E+02  0.34070409886E+02  0.51100000000E-03 0. -1.
        -11    1    3    3    0    0  0.47822077599E+01 -0.43631097171E+01 -0.66755953052E+01  0.92989144744E+01  0.51100000000E-03 0.  1.
        -12    1    3    3    0    0 -0.68044156512E+00 -0.16302772152E+01 -0.21374503514E+01  0.27729945053E+01  0.00000000000E+00 0.  1.
</event>
<event>
 7    1  0.5743890E-009  0.4614232E+02  0.7816164E-02  0.1320468E+00
        -11   -1    0    0    0    0  0.00000000000E+00  0.00000000000E+00  0.45593999997E+02  0.45594000000E+02  0.51100000000E-03 0.  1.
         11   -1    0    0    0    0 -0.00000000000E+00 -0.00000000000E+00 -0.45593999997E+02  0.45594000000E+02  0.51100000000E-03 0. -1.
    9900012    2    1    2    0    0 -0.94704419035E+01  0.39433399417E+02  0.19606919901E+02  0.46142316884E+02  0.99999919976E+01 0.  0.
        -12    1    1    2    0    0  0.94704419035E+01 -0.39433399417E+02 -0.19606919901E+02  0.45045683116E+02  0.00000000000E+00 0.  1.
         11    1    3    3    0    0 -0.13326365543E+01  0.22485644840E+02  0.81584125696E+01  0.23957041553E+02  0.51100000000E-03 0. -1.
        -11    1    3    3    0    0  0.13301120597E+00  0.99034449416E+00  0.90135928506E+00  0.13457053986E+01  0.51100000000E-03 0.  1.
         12    1    3    3    0    0 -0.82708165552E+01  0.15957410083E+02  0.10547148046E+02  0.20839569932E+02  0.00000000000E+00 0. -1.
</event>
<event>
 7    1  0.5743890E-009  0.4614232E+02  0.7816164E-02  0.1320468E+00
        -11   -1    0    0    0    0  0.00000000000E+00  0.00000000000E+00  0.45593999997E+02  0.45594000000E+02  0.51100000000E-03 0. -1.
         11   -1    0    0    0    0 -0.00000000000E+00 -0.00000000000E+00 -0.45593999997E+02  0.45594000000E+02  0.51100000000E-03 0.  1.
    9900012    2    1    2    0    0 -0.17027958185E+02 -0.22191786858E+02  0.35308450729E+02  0.46142318112E+02  0.10000003195E+02 0.  0.
        -12    1    1    2    0    0  0.17027958185E+02  0.22191786858E+02 -0.35308450729E+02  0.45045681888E+02  0.00000000000E+00 0.  1.
         11    1    3    3    0    0 -0.33035252844E+01 -0.54523998932E+01  0.87035124092E+01  0.10788562111E+02  0.51100000000E-03 0. -1.
        -11    1    3    3    0    0 -0.14315513686E+02 -0.16371439484E+02  0.22889018238E+02  0.31573170874E+02  0.51100000000E-03 0.  1.
        -12    1    3    3    0    0  0.59108078628E+00 -0.36794748130E+00  0.37159200816E+01  0.37805851264E+01  0.00000000000E+00 0.  1.
</event>
<event>
 7    1  0.5743890E-009  0.4614232E+02  0.7816164E-02  0.1320468E+00
        -11   -1    0    0    0    0  0.00000000000E+00  0.00000000000E+00  0.45593999997E+02  0.45594000000E+02  0.51100000000E-03 0.  1.
         11   -1    0    0    0    0 -0.00000000000E+00 -0.00000000000E+00 -0.45593999997E+02  0.45594000000E+02  0.51100000000E-03 0. -1.
    9900012    2    1    2    0    0 -0.39393116554E+02 -0.97422503408E+01 -0.19554651938E+02  0.46142317788E+02  0.10000000241E+02 0.  0.
         12    1    1    2    0    0  0.39393116554E+02  0.97422503408E+01  0.19554651938E+02  0.45045682212E+02  0.00000000000E+00 0. -1.
         11    1    3    3    0    0 -0.10867743532E+02 -0.60373556790E+01 -0.88610187869E+01  0.15266799510E+02  0.51100000000E-03 0. -1.
        -11    1    3    3    0    0 -0.11633512030E+02 -0.96250964152E+00 -0.26692349158E+01  0.11974549773E+02  0.51100000000E-03 0.  1.
         12    1    3    3    0    0 -0.16891860993E+02 -0.27423850202E+01 -0.80243982351E+01  0.18900968505E+02  0.00000000000E+00 0. -1.
</event>
<event>
 7    1  0.5743890E-009  0.4614232E+02  0.7816164E-02  0.1320468E+00
        -11   -1    0    0    0    0  0.00000000000E+00  0.00000000000E+00  0.45593999997E+02  0.45594000000E+02  0.51100000000E-03 0.  1.
         11   -1    0    0    0    0 -0.00000000000E+00 -0.00000000000E+00 -0.45593999997E+02  0.45594000000E+02  0.51100000000E-03 0. -1.
    9900012    2    1    2    0    0  0.37336833354E+02 -0.19485039303E+02  0.15981474799E+02  0.46142318539E+02  0.10000007090E+02 0.  0.
        -12    1    1    2    0    0 -0.37336833354E+02  0.19485039303E+02 -0.15981474799E+02  0.45045681461E+02  0.00000000000E+00 0.  1.
         11    1    3    3    0    0  0.72705053047E+01 -0.49478911625E+01  0.39668533687E+01  0.96476836728E+01  0.51100000000E-03 0. -1.
        -11    1    3    3    0    0  0.10121075360E+02 -0.90500748389E+01  0.28696880744E+01  0.13877144192E+02  0.51100000000E-03 0.  1.
        -12    1    3    3    0    0  0.19945252690E+02 -0.54870733018E+01  0.91449333562E+01  0.22617490674E+02  0.00000000000E+00 0.  1.
</event>
<event>
 7    1  0.5743890E-009  0.4614232E+02  0.7816164E-02  0.1320468E+00
        -11   -1    0    0    0    0  0.00000000000E+00  0.00000000000E+00  0.45593999997E+02  0.45594000000E+02  0.51100000000E-03 0. -1.
         11   -1    0    0    0    0 -0.00000000000E+00 -0.00000000000E+00 -0.45593999997E+02  0.45594000000E+02  0.51100000000E-03 0.  1.
    9900012    2    1    2    0    0 -0.32921823377E+02 -0.22413663125E+02  0.21045061604E+02  0.46142319108E+02  0.10000012278E+02 0.  0.
        -12    1    1    2    0    0  0.32921823377E+02  0.22413663125E+02 -0.21045061604E+02  0.45045680892E+02  0.00000000000E+00 0.  1.
         11    1    3    3    0    0 -0.92155227196E+01 -0.58581577685E+01  0.66024755947E+01  0.12760742756E+02  0.51100000000E-03 0. -1.
        -11    1    3    3    0    0 -0.18025730910E+01 -0.11649380404E+01 -0.11154227131E+01  0.24187845039E+01  0.51100000000E-03 0.  1.
        -12    1    3    3    0    0 -0.21903727566E+02 -0.15390567316E+02  0.15558008723E+02  0.30962791848E+02  0.00000000000E+00 0.  1.
</event>
<event>
 7    1  0.5743890E-009  0.4614232E+02  0.7816164E-02  0.1320468E+00
        -11   -1    0    0    0    0  0.00000000000E+00  0.00000000000E+00  0.45593999997E+02  0.45594000000E+02  0.51100000000E-03 0. -1.
         11   -1    0    0    0    0 -0.00000000000E+00 -0.00000000000E+00 -0.45593999997E+02  0.45594000000E+02  0.51100000000E-03 0.  1.
    9900012    2    1    2    0    0  0.25638891851E+02 -0.32701143430E+02 -0.17389535476E+02  0.46142317621E+02  0.99999987197E+01 0.  0.
         12    1    1    2    0    0 -0.25638891851E+02  0.32701143430E+02  0.17389535476E+02  0.45045682379E+02  0.00000000000E+00 0. -1.
         11    1    3    3    0    0  0.21884124597E+02 -0.25476640935E+02 -0.14347871542E+02  0.36521713552E+02  0.51100000000E-03 0. -1.
        -11    1    3    3    0    0  0.15834200223E+01 -0.63294227550E+01 -0.31994222729E+01  0.72667127726E+01  0.51100000000E-03 0.  1.
         12    1    3    3    0    0  0.21713472315E+01 -0.89507973965E+00  0.15775833951E+00  0.23538912961E+01  0.00000000000E+00 0. -1.
</event>
<event>
 7    1  0.5743890E-009  0.4614232E+02  0.7816164E-02  0.1320468E+00
        -11   -1    0    0    0    0  0.00000000000E+00  0.00000000000E+00  0.45593999997E+02  0.45594000000E+02  0.51100000000E-03 0.  1.
         11   -1    0    0    0    0 -0.00000000000E+00 -0.00000000000E+00 -0.45593999997E+02  0.45594000000E+02  0.51100000000E-03 0. -1.
    9900012    2    1    2    0    0 -0.43275207022E+02  0.49770610868E+01  0.11471652188E+02  0.46142317812E+02  0.10000000467E+02 0.  0.
        -12    1    1    2    0    0  0.43275207022E+02 -0.49770610868E+01 -0.11471652188E+02  0.45045682188E+02  0.00000000000E+00 0.  1.
         11    1    3    3    0    0 -0.22537131953E+02  0.43621913765E+01  0.42893932036E+01  0.23352728418E+02  0.51100000000E-03 0. -1.
        -11    1    3    3    0    0 -0.16969584176E+01  0.74423619395E+00  0.26201198831E+01  0.32091406710E+01  0.51100000000E-03 0.  1.
        -12    1    3    3    0    0 -0.19041116651E+02 -0.12936648357E+00  0.45621391009E+01  0.19580448723E+02  0.00000000000E+00 0.  1.
</event>
<event>
 7    1  0.5743890E-009  0.4614232E+02  0.7816164E-02  0.1320468E+00
        -11   -1    0    0    0    0  0.00000000000E+00  0.00000000000E+00  0.45593999997E+02  0.45594000000E+02  0.51100000000E-03 0. -1.
         11   -1    0    0    0    0 -0.00000000000E+00 -0.00000000000E+00 -0.45593999997E+02  0.45594000000E+02  0.51100000000E-03 0.  1.
    9900012    2    1    2    0    0 -0.16542717145E+02 -0.12335507362E+02  0.40041069372E+02  0.46142317977E+02  0.10000001968E+02 0.  0.
        -12    1    1    2    0    0  0.16542717145E+02  0.12335507362E+02 -0.40041069372E+02  0.45045682023E+02  0.00000000000E+00 0.  1.
         11    1    3    3    0    0 -0.11984305095E+02 -0.76691762722E+01  0.18679692657E+02  0.23481285130E+02  0.51100000000E-03 0. -1.
        -11    1    3    3    0    0 -0.49209347519E+01 -0.42216715949E+01  0.15922455294E+02  0.17191936852E+02  0.51100000000E-03 0.  1.
        -12    1    3    3    0    0  0.36252270164E+00 -0.44465949508E+00  0.54389214217E+01  0.54690959954E+01  0.00000000000E+00 0.  1.
</event>
<event>
 7    1  0.5743890E-009  0.4614232E+02  0.7816164E-02  0.1320468E+00
        -11   -1    0    0    0    0  0.00000000000E+00  0.00000000000E+00  0.45593999997E+02  0.45594000000E+02  0.51100000000E-03 0. -1.
         11   -1    0    0    0    0 -0.00000000000E+00 -0.00000000000E+00 -0.45593999997E+02  0.45594000000E+02  0.51100000000E-03 0.  1.
    9900012    2    1    2    0    0 -0.65966497228E+01 -0.13424418438E+02 -0.42489795668E+02  0.46142317256E+02  0.99999953976E+01 0.  0.
         12    1    1    2    0    0  0.65966497228E+01  0.13424418438E+02  0.42489795668E+02  0.45045682744E+02  0.00000000000E+00 0. -1.
         11    1    3    3    0    0  0.12522293964E+01 -0.28988632300E+01 -0.37006130038E+01  0.48647737206E+01  0.51100000000E-03 0. -1.
        -11    1    3    3    0    0 -0.68792635677E+00 -0.47987712426E+01 -0.15808912598E+02  0.16535512266E+02  0.51100000000E-03 0.  1.
        -12    1    3    3    0    0 -0.71609527624E+01 -0.57267839649E+01 -0.22980270066E+02  0.24742031270E+02  0.00000000000E+00 0.  1.
</event>
<event>
 7    1  0.5743890E-009  0.4614233E+02  0.7816164E-02  0.1320468E+00
        -11   -1    0    0    0    0  0.00000000000E+00  0.00000000000E+00  0.45593999997E+02  0.45594000000E+02  0.51100000000E-03 0. -1.
         11   -1    0    0    0    0 -0.00000000000E+00 -0.00000000000E+00 -0.45593999997E+02  0.45594000000E+02  0.51100000000E-03 0.  1.
    9900012    2    1    2    0    0 -0.27213979733E+02  0.14984723716E+02  0.32618555784E+02  0.46142325189E+02  0.10000067732E+02 0.  0.
        -12    1    1    2    0    0  0.27213979733E+02 -0.14984723716E+02 -0.32618555784E+02  0.45045674811E+02  0.00000000000E+00 0.  1.
         11    1    3    3    0    0 -0.81038081889E+01  0.16973620516E+01  0.57108642315E+01  0.10058166614E+02  0.51100000000E-03 0. -1.
        -11    1    3    3    0    0 -0.51573747956E+01  0.12099225236E+01  0.85242855096E+01  0.10036227927E+02  0.51100000000E-03 0.  1.
        -12    1    3    3    0    0 -0.13952796749E+02  0.12077439141E+02  0.18383406043E+02  0.26047930648E+02  0.00000000000E+00 0.  1.
</event>
<event>
 7    1  0.5743890E-009  0.4614232E+02  0.7816164E-02  0.1320468E+00
        -11   -1    0    0    0    0  0.00000000000E+00  0.00000000000E+00  0.45593999997E+02  0.45594000000E+02  0.51100000000E-03 0.  1.
         11   -1    0    0    0    0 -0.00000000000E+00 -0.00000000000E+00 -0.45593999997E+02  0.45594000000E+02  0.51100000000E-03 0. -1.
    9900012    2    1    2    0    0 -0.40474787824E+02 -0.33960405088E+01 -0.19477475002E+02  0.46142316822E+02  0.99999914376E+01 0.  0.
         12    1    1    2    0    0  0.40474787824E+02  0.33960405088E+01  0.19477475002E+02  0.45045683178E+02  0.00000000000E+00 0. -1.
         11    1    3    3    0    0 -0.12202424902E+02  0.11106927932E+01 -0.71625964333E+01  0.14192800988E+02  0.51100000000E-03 0.  1.
        -11    1    3    3    0    0 -0.92389326052E+01  0.18260869069E+01 -0.36965195485E+01  0.10117150098E+02  0.51100000000E-03 0. -1.
        -12    1    3    3    0    0 -0.19033430316E+02 -0.63328202089E+01 -0.86183590205E+01  0.21832365736E+02  0.00000000000E+00 0.  1.
</event>
<event>
 7    1  0.5743890E-009  0.4614232E+02  0.7816164E-02  0.1320468E+00
        -11   -1    0    0    0    0  0.00000000000E+00  0.00000000000E+00  0.45593999997E+02  0.45594000000E+02  0.51100000000E-03 0. -1.
         11   -1    0    0    0    0 -0.00000000000E+00 -0.00000000000E+00 -0.45593999997E+02  0.45594000000E+02  0.51100000000E-03 0.  1.
    9900012    2    1    2    0    0  0.10312921035E+02 -0.15719292168E+01 -0.43821072013E+02  0.46142315922E+02  0.99999832268E+01 0.  0.
         12    1    1    2    0    0 -0.10312921035E+02  0.15719292168E+01  0.43821072013E+02  0.45045684078E+02  0.00000000000E+00 0. -1.
         11    1    3    3    0    0  0.33935516464E+01 -0.35547615602E+01 -0.72402538469E+01  0.87506456079E+01  0.51100000000E-03 0. -1.
        -11    1    3    3    0    0  0.29457252748E+01  0.18863473587E+01 -0.22105401358E+02  0.22380446225E+02  0.51100000000E-03 0.  1.
         12    1    3    3    0    0  0.39736441141E+01  0.96484984674E-01 -0.14475416807E+02  0.15011224089E+02  0.00000000000E+00 0. -1.
</event>
<event>
 7    1  0.5743890E-009  0.4614232E+02  0.7816164E-02  0.1320468E+00
        -11   -1    0    0    0    0  0.00000000000E+00  0.00000000000E+00  0.45593999997E+02  0.45594000000E+02  0.51100000000E-03 0. -1.
         11   -1    0    0    0    0 -0.00000000000E+00 -0.00000000000E+00 -0.45593999997E+02  0.45594000000E+02  0.51100000000E-03 0.  1.
    9900012    2    1    2    0    0 -0.12228967771E+02 -0.34885821805E+02  0.25739953554E+02  0.46142318468E+02  0.10000006443E+02 0.  0.
        -12    1    1    2    0    0  0.12228967771E+02  0.34885821805E+02 -0.25739953554E+02  0.45045681532E+02  0.00000000000E+00 0.  1.
         11    1    3    3    0    0 -0.10120250573E+02 -0.31515841568E+02  0.22502136911E+02  0.40025165924E+02  0.51100000000E-03 0.  1.
        -11    1    3    3    0    0 -0.10997104898E+01 -0.14046680955E+01  0.34640317666E+01  0.38964050048E+01  0.51100000000E-03 0. -1.
        -12    1    3    3    0    0 -0.10090067085E+01 -0.19653121415E+01 -0.22621512359E+00  0.22207475394E+01  0.00000000000E+00 0.  1.
</event>
<event>
 7    1  0.5743890E-009  0.4614232E+02  0.7816164E-02  0.1320468E+00
        -11   -1    0    0    0    0  0.00000000000E+00  0.00000000000E+00  0.45593999997E+02  0.45594000000E+02  0.51100000000E-03 0.  1.
         11   -1    0    0    0    0 -0.00000000000E+00 -0.00000000000E+00 -0.45593999997E+02  0.45594000000E+02  0.51100000000E-03 0. -1.
    9900012    2    1    2    0    0 -0.16024274215E+02 -0.41018932942E+02 -0.94754023899E+01  0.46142317917E+02  0.10000001424E+02 0.  0.
        -12    1    1    2    0    0  0.16024274215E+02  0.41018932942E+02  0.94754023899E+01  0.45045682083E+02  0.00000000000E+00 0.  1.
         11    1    3    3    0    0 -0.46008267059E+01 -0.81176296731E+01 -0.18854454491E+01  0.95193709188E+01  0.51100000000E-03 0. -1.
        -11    1    3    3    0    0 -0.30045781822E+01 -0.15984604012E+02 -0.70300763400E+01  0.17718832610E+02  0.51100000000E-03 0.  1.
        -12    1    3    3    0    0 -0.84188693267E+01 -0.16916699258E+02 -0.55988060080E+00  0.18904114388E+02  0.00000000000E+00 0.  1.
</event>
<event>
 7    1  0.5743890E-009  0.4614232E+02  0.7816164E-02  0.1320468E+00
        -11   -1    0    0    0    0  0.00000000000E+00  0.00000000000E+00  0.45593999997E+02  0.45594000000E+02  0.51100000000E-03 0. -1.
         11   -1    0    0    0    0 -0.00000000000E+00 -0.00000000000E+00 -0.45593999997E+02  0.45594000000E+02  0.51100000000E-03 0.  1.
    9900012    2    1    2    0    0  0.22517510086E+02 -0.16790119619E+02  0.35216006540E+02  0.46142317699E+02  0.99999994363E+01 0.  0.
        -12    1    1    2    0    0 -0.22517510086E+02  0.16790119619E+02 -0.35216006540E+02  0.45045682301E+02  0.00000000000E+00 0.  1.
         11    1    3    3    0    0  0.84022657000E+01 -0.54794634784E+01  0.72473408870E+01  0.12375238951E+02  0.51100000000E-03 0. -1.
        -11    1    3    3    0    0  0.12112854379E+02 -0.11743356287E+02  0.25020172222E+02  0.30176757221E+02  0.51100000000E-03 0.  1.
        -12    1    3    3    0    0  0.20023900069E+01  0.43270014581E+00  0.29484934312E+01  0.35903215273E+01  0.00000000000E+00 0.  1.
</event>
<event>
 7    1  0.5743890E-009  0.4614231E+02  0.7816164E-02  0.1320468E+00
        -11   -1    0    0    0    0  0.00000000000E+00  0.00000000000E+00  0.45593999997E+02  0.45594000000E+02  0.51100000000E-03 0. -1.
         11   -1    0    0    0    0 -0.00000000000E+00 -0.00000000000E+00 -0.45593999997E+02  0.45594000000E+02  0.51100000000E-03 0.  1.
    9900012    2    1    2    0    0 -0.25645626376E+02  0.18375036204E+02 -0.32152356006E+02  0.46142310922E+02  0.99999376368E+01 0.  0.
         12    1    1    2    0    0  0.25645626376E+02 -0.18375036204E+02  0.32152356006E+02  0.45045689078E+02  0.00000000000E+00 0. -1.
         11    1    3    3    0    0 -0.52955549719E+01  0.56002260306E+00 -0.29516795719E+01  0.60884267535E+01  0.51100000000E-03 0. -1.
        -11    1    3    3    0    0 -0.75800193829E+01  0.40056958130E+01 -0.10078228299E+02  0.13231514603E+02  0.51100000000E-03 0.  1.
        -12    1    3    3    0    0 -0.12770052022E+02  0.13809317788E+02 -0.19122448136E+02  0.26822369565E+02  0.00000000000E+00 0.  1.
</event>
<event>
 7    1  0.5743890E-009  0.4614232E+02  0.7816164E-02  0.1320468E+00
        -11   -1    0    0    0    0  0.00000000000E+00  0.00000000000E+00  0.45593999997E+02  0.45594000000E+02  0.51100000000E-03 0.  1.
         11   -1    0    0    0    0 -0.00000000000E+00 -0.00000000000E+00 -0.45593999997E+02  0.45594000000E+02  0.51100000000E-03 0. -1.
    9900012    2    1    2    0    0  0.28395624499E+02 -0.30917410395E+02  0.16337554633E+02  0.46142318213E+02  0.10000004124E+02 0.  0.
         12    1    1    2    0    0 -0.28395624499E+02  0.30917410395E+02 -0.16337554633E+02  0.45045681787E+02  0.00000000000E+00 0. -1.
         11    1    3    3    0    0  0.13524330528E+02 -0.11589461571E+02  0.90293198043E+01  0.19968769419E+02  0.51100000000E-03 0. -1.
        -11    1    3    3    0    0  0.14795309834E+02 -0.16473540886E+02  0.73113848531E+01  0.23318127951E+02  0.51100000000E-03 0.  1.
         12    1    3    3    0    0  0.75984136989E-01 -0.28544079381E+01 -0.31500246138E-02  0.28554208427E+01  0.00000000000E+00 0. -1.
</event>
<event>
 7    1  0.5743890E-009  0.4614232E+02  0.7816164E-02  0.1320468E+00
        -11   -1    0    0    0    0  0.00000000000E+00  0.00000000000E+00  0.45593999997E+02  0.45594000000E+02  0.51100000000E-03 0. -1.
         11   -1    0    0    0    0 -0.00000000000E+00 -0.00000000000E+00 -0.45593999997E+02  0.45594000000E+02  0.51100000000E-03 0.  1.
    9900012    2    1    2    0    0 -0.20285560757E+02 -0.75366581880E+00  0.40212452416E+02  0.46142319666E+02  0.10000017372E+02 0.  0.
        -12    1    1    2    0    0  0.20285560757E+02  0.75366581880E+00 -0.40212452416E+02  0.45045680334E+02  0.00000000000E+00 0.  1.
         11    1    3    3    0    0 -0.73615745574E+01 -0.25161684858E+00  0.83546265743E+01  0.11138037370E+02  0.51100000000E-03 0. -1.
        -11    1    3    3    0    0 -0.49886040887E+01 -0.33701426659E+01  0.14661002771E+02  0.15848944282E+02  0.51100000000E-03 0.  1.
        -12    1    3    3    0    0 -0.79353821113E+01  0.28680936957E+01  0.17196823071E+02  0.19155338014E+02  0.00000000000E+00 0.  1.
</event>
<event>
 7    1  0.5743890E-009  0.4614233E+02  0.7816164E-02  0.1320468E+00
        -11   -1    0    0    0    0  0.00000000000E+00  0.00000000000E+00  0.45593999997E+02  0.45594000000E+02  0.51100000000E-03 0. -1.
         11   -1    0    0    0    0 -0.00000000000E+00 -0.00000000000E+00 -0.45593999997E+02  0.45594000000E+02  0.51100000000E-03 0.  1.
    9900012    2    1    2    0    0 -0.15453289965E+02  0.12758249295E+02  0.40342719297E+02  0.46142333215E+02  0.10000140923E+02 0.  0.
        -12    1    1    2    0    0  0.15453289965E+02 -0.12758249295E+02 -0.40342719297E+02  0.45045666785E+02  0.00000000000E+00 0.  1.
         11    1    3    3    0    0 -0.21033238746E+01  0.46237605877E+01  0.11757865307E+02  0.12808221193E+02  0.51100000000E-03 0. -1.
        -11    1    3    3    0    0 -0.35340032321E+01  0.60133748939E+01  0.97324085041E+01  0.11973705860E+02  0.51100000000E-03 0.  1.
        -12    1    3    3    0    0 -0.98159628580E+01  0.21211138131E+01  0.18852445486E+02  0.21360406163E+02  0.00000000000E+00 0.  1.
</event>
<event>
 7    1  0.5743890E-009  0.4614232E+02  0.7816164E-02  0.1320468E+00
        -11   -1    0    0    0    0  0.00000000000E+00  0.00000000000E+00  0.45593999997E+02  0.45594000000E+02  0.51100000000E-03 0. -1.
         11   -1    0    0    0    0 -0.00000000000E+00 -0.00000000000E+00 -0.45593999997E+02  0.45594000000E+02  0.51100000000E-03 0.  1.
    9900012    2    1    2    0    0  0.19866786337E+02 -0.23415775887E+02  0.32956420929E+02  0.46142318296E+02  0.10000004878E+02 0.  0.
        -12    1    1    2    0    0 -0.19866786337E+02  0.23415775887E+02 -0.32956420929E+02  0.45045681704E+02  0.00000000000E+00 0.  1.
         11    1    3    3    0    0  0.47118016527E+01 -0.11238817163E+02  0.10435678023E+02  0.16044172216E+02  0.51100000000E-03 0. -1.
        -11    1    3    3    0    0  0.12816382046E+02 -0.11614980345E+02  0.21177631661E+02  0.27343363001E+02  0.51100000000E-03 0.  1.
         12    1    3    3    0    0  0.23386026384E+01 -0.56197837868E+00  0.13431112449E+01  0.27547830794E+01  0.00000000000E+00 0. -1.
</event>
<event>
 7    1  0.5743890E-009  0.4614232E+02  0.7816164E-02  0.1320468E+00
        -11   -1    0    0    0    0  0.00000000000E+00  0.00000000000E+00  0.45593999997E+02  0.45594000000E+02  0.51100000000E-03 0. -1.
         11   -1    0    0    0    0 -0.00000000000E+00 -0.00000000000E+00 -0.45593999997E+02  0.45594000000E+02  0.51100000000E-03 0.  1.
    9900012    2    1    2    0    0 -0.27869347371E+01  0.40315266954E+02 -0.19900396298E+02  0.46142317326E+02  0.99999960291E+01 0.  0.
         12    1    1    2    0    0  0.27869347371E+01 -0.40315266954E+02  0.19900396298E+02  0.45045682674E+02  0.00000000000E+00 0. -1.
         11    1    3    3    0    0  0.12731319214E+01  0.88062385115E+01 -0.78311818308E+01  0.11853189897E+02  0.51100000000E-03 0. -1.
        -11    1    3    3    0    0  0.11755742083E+00  0.16891847783E+02 -0.64002107045E+01  0.18064081449E+02  0.51100000000E-03 0.  1.
         12    1    3    3    0    0 -0.41776240794E+01  0.14617180660E+02 -0.56690037622E+01  0.16225045980E+02  0.00000000000E+00 0. -1.
</event>
<event>
 7    1  0.5743890E-009  0.4614232E+02  0.7816164E-02  0.1320468E+00
        -11   -1    0    0    0    0  0.00000000000E+00  0.00000000000E+00  0.45593999997E+02  0.45594000000E+02  0.51100000000E-03 0. -1.
         11   -1    0    0    0    0 -0.00000000000E+00 -0.00000000000E+00 -0.45593999997E+02  0.45594000000E+02  0.51100000000E-03 0.  1.
    9900012    2    1    2    0    0  0.16580839419E+02  0.89835435408E+01 -0.40908252668E+02  0.46142318445E+02  0.10000006239E+02 0.  0.
         12    1    1    2    0    0 -0.16580839419E+02 -0.89835435408E+01  0.40908252668E+02  0.45045681555E+02  0.00000000000E+00 0. -1.
         11    1    3    3    0    0  0.12017619819E+02  0.76141913107E+01 -0.21366270016E+02  0.25669370661E+02  0.51100000000E-03 0. -1.
        -11    1    3    3    0    0  0.47425916485E+01  0.16150112039E+00 -0.17047338111E+02  0.17695479510E+02  0.51100000000E-03 0.  1.
         12    1    3    3    0    0 -0.17937204817E+00  0.12078511097E+01 -0.24946445403E+01  0.27774682748E+01  0.00000000000E+00 0. -1.
</event>
<event>
 7    1  0.5743890E-009  0.4614232E+02  0.7816164E-02  0.1320468E+00
        -11   -1    0    0    0    0  0.00000000000E+00  0.00000000000E+00  0.45593999997E+02  0.45594000000E+02  0.51100000000E-03 0. -1.
         11   -1    0    0    0    0 -0.00000000000E+00 -0.00000000000E+00 -0.45593999997E+02  0.45594000000E+02  0.51100000000E-03 0.  1.
    9900012    2    1    2    0    0 -0.34633346022E+02 -0.14501001359E+02  0.24887059806E+02  0.46142318266E+02  0.10000004604E+02 0.  0.
        -12    1    1    2    0    0  0.34633346022E+02  0.14501001359E+02 -0.24887059806E+02  0.45045681734E+02  0.00000000000E+00 0.  1.
         11    1    3    3    0    0 -0.20186142262E+02 -0.90304187995E+01  0.19240048894E+02  0.29312254857E+02  0.51100000000E-03 0. -1.
        -11    1    3    3    0    0 -0.56265991488E+01 -0.32575093876E+00  0.22485189004E+01  0.60679954813E+01  0.51100000000E-03 0.  1.
         12    1    3    3    0    0 -0.88206046117E+01 -0.51448316206E+01  0.33984920110E+01  0.10762067927E+02  0.00000000000E+00 0. -1.
</event>
<event>
 7    1  0.5743890E-009  0.4614231E+02  0.7816164E-02  0.1320468E+00
        -11   -1    0    0    0    0  0.00000000000E+00  0.00000000000E+00  0.45593999997E+02  0.45594000000E+02  0.51100000000E-03 0.  1.
         11   -1    0    0    0    0 -0.00000000000E+00 -0.00000000000E+00 -0.45593999997E+02  0.45594000000E+02  0.51100000000E-03 0. -1.
    9900012    2    1    2    0    0 -0.17374538139E+02 -0.19879442704E+02 -0.36497225503E+02  0.46142308895E+02  0.99999191470E+01 0.  0.
         12    1    1    2    0    0  0.17374538139E+02  0.19879442704E+02  0.36497225503E+02  0.45045691105E+02  0.00000000000E+00 0. -1.
         11    1    3    3    0    0 -0.23597511584E+01 -0.19953653879E+01 -0.46897315017E+01  0.56163591748E+01  0.51100000000E-03 0. -1.
        -11    1    3    3    0    0 -0.14519166673E+02 -0.15413983436E+02 -0.22558561528E+02  0.30940035305E+02  0.51100000000E-03 0.  1.
        -12    1    3    3    0    0 -0.49562030825E+00 -0.24700938800E+01 -0.92489324731E+01  0.95859144143E+01  0.00000000000E+00 0.  1.
</event>
<event>
 7    1  0.5743890E-009  0.4614232E+02  0.7816164E-02  0.1320468E+00
        -11   -1    0    0    0    0  0.00000000000E+00  0.00000000000E+00  0.45593999997E+02  0.45594000000E+02  0.51100000000E-03 0. -1.
         11   -1    0    0    0    0 -0.00000000000E+00 -0.00000000000E+00 -0.45593999997E+02  0.45594000000E+02  0.51100000000E-03 0.  1.
    9900012    2    1    2    0    0 -0.30875521816E+02 -0.12295239874E+02  0.30407936487E+02  0.46142319049E+02  0.10000011740E+02 0.  0.
        -12    1    1    2    0    0  0.30875521816E+02  0.12295239874E+02 -0.30407936487E+02  0.45045680951E+02  0.00000000000E+00 0.  1.
         11    1    3    3    0    0 -0.17226761622E+02 -0.10534014790E+02  0.19901999588E+02  0.28351655533E+02  0.51100000000E-03 0. -1.
        -11    1    3    3    0    0 -0.27678358982E+00  0.70065273955E+00  0.68288062112E+00  0.10167839598E+01  0.51100000000E-03 0.  1.
         12    1    3    3    0    0 -0.13371976604E+02 -0.24618778238E+01  0.98230562781E+01  0.16773879556E+02  0.00000000000E+00 0. -1.
</event>
<event>
 7    1  0.5743890E-009  0.4614232E+02  0.7816164E-02  0.1320468E+00
        -11   -1    0    0    0    0  0.00000000000E+00  0.00000000000E+00  0.45593999997E+02  0.45594000000E+02  0.51100000000E-03 0. -1.
         11   -1    0    0    0    0 -0.00000000000E+00 -0.00000000000E+00 -0.45593999997E+02  0.45594000000E+02  0.51100000000E-03 0.  1.
    9900012    2    1    2    0    0 -0.38911383914E+02 -0.84681295084E+01  0.21054890905E+02  0.46142318226E+02  0.10000004240E+02 0.  0.
        -12    1    1    2    0    0  0.38911383914E+02  0.84681295084E+01 -0.21054890905E+02  0.45045681774E+02  0.00000000000E+00 0.  1.
         11    1    3    3    0    0 -0.11973343290E+02  0.78213608565E+00  0.57546723441E+01  0.13307476863E+02  0.51100000000E-03 0. -1.
        -11    1    3    3    0    0 -0.18001729883E+02 -0.50379849493E+01  0.71023898478E+01  0.19997187625E+02  0.51100000000E-03 0.  1.
        -12    1    3    3    0    0 -0.89363107410E+01 -0.42122806448E+01  0.81978287133E+01  0.12837653738E+02  0.00000000000E+00 0.  1.
</event>
<event>
 7    1  0.5743890E-009  0.4614232E+02  0.7816164E-02  0.1320468E+00
        -11   -1    0    0    0    0  0.00000000000E+00  0.00000000000E+00  0.45593999997E+02  0.45594000000E+02  0.51100000000E-03 0. -1.
         11   -1    0    0    0    0 -0.00000000000E+00 -0.00000000000E+00 -0.45593999997E+02  0.45594000000E+02  0.51100000000E-03 0.  1.
    9900012    2    1    2    0    0  0.13346445981E+02  0.46293146476E+01 -0.42773303086E+02  0.46142316174E+02  0.99999855286E+01 0.  0.
         12    1    1    2    0    0 -0.13346445981E+02 -0.46293146476E+01  0.42773303086E+02  0.45045683826E+02  0.00000000000E+00 0. -1.
         11    1    3    3    0    0  0.75661837146E+01  0.46188936191E+01 -0.14813831273E+02  0.17263571806E+02  0.51100000000E-03 0. -1.
        -11    1    3    3    0    0  0.58166235678E+01  0.77045803600E-01 -0.17951611086E+02  0.18870595821E+02  0.51100000000E-03 0.  1.
         12    1    3    3    0    0 -0.36361300959E-01 -0.66624775055E-01 -0.10007860728E+02  0.10008148547E+02  0.00000000000E+00 0. -1.
</event>
<event>
 7    1  0.5743890E-009  0.4614232E+02  0.7816164E-02  0.1320468E+00
        -11   -1    0    0    0    0  0.00000000000E+00  0.00000000000E+00  0.45593999997E+02  0.45594000000E+02  0.51100000000E-03 0.  1.
         11   -1    0    0    0    0 -0.00000000000E+00 -0.00000000000E+00 -0.45593999997E+02  0.45594000000E+02  0.51100000000E-03 0. -1.
    9900012    2    1    2    0    0  0.41534151087E+02  0.14035015815E+02  0.10346308146E+02  0.46142317991E+02  0.10000002092E+02 0.  0.
        -12    1    1    2    0    0 -0.41534151087E+02 -0.14035015815E+02 -0.10346308146E+02  0.45045682009E+02  0.00000000000E+00 0.  1.
         11    1    3    3    0    0  0.19552405761E+02  0.56804674494E+01  0.86076874120E+00  0.20379038362E+02  0.51100000000E-03 0. -1.
        -11    1    3    3    0    0  0.14512693236E+02  0.77605946424E+01  0.67222076865E+01  0.17777321807E+02  0.51100000000E-03 0.  1.
        -12    1    3    3    0    0  0.74690520900E+01  0.59395372313E+00  0.27633317179E+01  0.79859578218E+01  0.00000000000E+00 0.  1.
</event>
<event>
 7    1  0.5743890E-009  0.4614232E+02  0.7816164E-02  0.1320468E+00
        -11   -1    0    0    0    0  0.00000000000E+00  0.00000000000E+00  0.45593999997E+02  0.45594000000E+02  0.51100000000E-03 0. -1.
         11   -1    0    0    0    0 -0.00000000000E+00 -0.00000000000E+00 -0.45593999997E+02  0.45594000000E+02  0.51100000000E-03 0.  1.
    9900012    2    1    2    0    0  0.23180500162E+02  0.32566459482E+01  0.38486000647E+02  0.46142316784E+02  0.99999910859E+01 0.  0.
        -12    1    1    2    0    0 -0.23180500162E+02 -0.32566459482E+01 -0.38486000647E+02  0.45045683216E+02  0.00000000000E+00 0.  1.
         11    1    3    3    0    0  0.30503416807E+01  0.13343266682E+01  0.98768565282E+00  0.34728281323E+01  0.51100000000E-03 0.  1.
        -11    1    3    3    0    0  0.12095671268E+02  0.13630809773E+01  0.24915142922E+02  0.27729543816E+02  0.51100000000E-03 0. -1.
        -12    1    3    3    0    0  0.80344872136E+01  0.55923830268E+00  0.12583172072E+02  0.14939944835E+02  0.00000000000E+00 0.  1.
</event>
<event>
 7    1  0.5743890E-009  0.4614232E+02  0.7816164E-02  0.1320468E+00
        -11   -1    0    0    0    0  0.00000000000E+00  0.00000000000E+00  0.45593999997E+02  0.45594000000E+02  0.51100000000E-03 0. -1.
         11   -1    0    0    0    0 -0.00000000000E+00 -0.00000000000E+00 -0.45593999997E+02  0.45594000000E+02  0.51100000000E-03 0.  1.
    9900012    2    1    2    0    0 -0.23277780307E+02 -0.46328574974E+01  0.38285704029E+02  0.46142316993E+02  0.99999929917E+01 0.  0.
        -12    1    1    2    0    0  0.23277780307E+02  0.46328574974E+01 -0.38285704029E+02  0.45045683007E+02  0.00000000000E+00 0.  1.
         11    1    3    3    0    0  0.48449123699E-01  0.11906455085E+01  0.46220275649E+00  0.12781297641E+01  0.51100000000E-03 0.  1.
        -11    1    3    3    0    0 -0.16624196238E+02 -0.31952744143E+01  0.26357017165E+02  0.31325166133E+02  0.51100000000E-03 0. -1.
        -12    1    3    3    0    0 -0.67020331930E+01 -0.26282285917E+01  0.11466484107E+02  0.13539021096E+02  0.00000000000E+00 0.  1.
</event>
<event>
 7    1  0.7374360E-009  0.4614232E+02  0.7816164E-02  0.1320468E+00
        -11   -1    0    0    0    0  0.00000000000E+00  0.00000000000E+00  0.45593999997E+02  0.45594000000E+02  0.51100000000E-03 0. -1.
         11   -1    0    0    0    0 -0.00000000000E+00 -0.00000000000E+00 -0.45593999997E+02  0.45594000000E+02  0.51100000000E-03 0.  1.
    9900012    2    1    2    0    0  0.59229290443E+01 -0.18786791592E+02  0.40510354330E+02  0.46142318357E+02  0.10000005432E+02 0.  0.
        -12    1    1    2    0    0 -0.59229290443E+01  0.18786791592E+02 -0.40510354330E+02  0.45045681643E+02  0.00000000000E+00 0.  1.
         11    1    3    3    0    0  0.64920284042E+00 -0.25472967005E+01  0.17348319713E+01  0.31495756918E+01  0.51100000000E-03 0. -1.
        -11    1    3    3    0    0 -0.20910870900E+00  0.20656670603E+00 -0.18642969308E+00  0.34806974560E+00  0.51100000000E-03 0.  1.
         12    1    3    3    0    0  0.54828349129E+01 -0.16446061597E+02  0.38961952052E+02  0.42644672919E+02  0.00000000000E+00 0. -1.
</event>
<event>
 7    1  0.5743890E-009  0.4614232E+02  0.7816164E-02  0.1320468E+00
        -11   -1    0    0    0    0  0.00000000000E+00  0.00000000000E+00  0.45593999997E+02  0.45594000000E+02  0.51100000000E-03 0. -1.
         11   -1    0    0    0    0 -0.00000000000E+00 -0.00000000000E+00 -0.45593999997E+02  0.45594000000E+02  0.51100000000E-03 0.  1.
    9900012    2    1    2    0    0 -0.39880373317E+02  0.30800079059E+01 -0.20716724094E+02  0.46142320054E+02  0.10000020908E+02 0.  0.
         12    1    1    2    0    0  0.39880373317E+02 -0.30800079059E+01  0.20716724094E+02  0.45045679946E+02  0.00000000000E+00 0. -1.
         11    1    3    3    0    0 -0.21965843831E+02  0.65546807628E+01 -0.11508198676E+02  0.25649576451E+02  0.51100000000E-03 0. -1.
        -11    1    3    3    0    0 -0.68082141945E+01 -0.11548494142E+01 -0.42662884034E+01  0.81170607173E+01  0.51100000000E-03 0.  1.
         12    1    3    3    0    0 -0.11106315292E+02 -0.23198234428E+01 -0.49422370144E+01  0.12375682885E+02  0.00000000000E+00 0. -1.
</event>
<event>
 7    1  0.5743890E-009  0.4614232E+02  0.7816164E-02  0.1320468E+00
        -11   -1    0    0    0    0  0.00000000000E+00  0.00000000000E+00  0.45593999997E+02  0.45594000000E+02  0.51100000000E-03 0. -1.
         11   -1    0    0    0    0 -0.00000000000E+00 -0.00000000000E+00 -0.45593999997E+02  0.45594000000E+02  0.51100000000E-03 0.  1.
    9900012    2    1    2    0    0  0.12490507268E+02 -0.25457708089E+02  0.35000082240E+02  0.46142318411E+02  0.10000005927E+02 0.  0.
        -12    1    1    2    0    0 -0.12490507268E+02  0.25457708089E+02 -0.35000082240E+02  0.45045681589E+02  0.00000000000E+00 0.  1.
         11    1    3    3    0    0  0.64530499398E+01 -0.12059392408E+02  0.23787102095E+02  0.27438969097E+02  0.51100000000E-03 0. -1.
        -11    1    3    3    0    0  0.22027861891E+01 -0.45981834852E+01  0.22603271192E+01  0.55771531542E+01  0.51100000000E-03 0.  1.
        -12    1    3    3    0    0  0.38346711396E+01 -0.88001321963E+01  0.89526530261E+01  0.13126196160E+02  0.00000000000E+00 0.  1.
</event>
<event>
 7    1  0.5743890E-009  0.4614232E+02  0.7816164E-02  0.1320468E+00
        -11   -1    0    0    0    0  0.00000000000E+00  0.00000000000E+00  0.45593999997E+02  0.45594000000E+02  0.51100000000E-03 0. -1.
         11   -1    0    0    0    0 -0.00000000000E+00 -0.00000000000E+00 -0.45593999997E+02  0.45594000000E+02  0.51100000000E-03 0.  1.
    9900012    2    1    2    0    0 -0.25560631243E+02 -0.29240221799E+02 -0.22820540800E+02  0.46142317379E+02  0.99999965136E+01 0.  0.
         12    1    1    2    0    0  0.25560631243E+02  0.29240221799E+02  0.22820540800E+02  0.45045682621E+02  0.00000000000E+00 0. -1.
         11    1    3    3    0    0 -0.51356621784E+01 -0.81924638896E+01 -0.42508105454E+01  0.10562238453E+02  0.51100000000E-03 0. -1.
        -11    1    3    3    0    0 -0.11033569627E+02 -0.16130976344E+02 -0.10026586251E+02  0.21965438503E+02  0.51100000000E-03 0.  1.
         12    1    3    3    0    0 -0.93913994376E+01 -0.49167815659E+01 -0.85431440041E+01  0.13614640423E+02  0.00000000000E+00 0. -1.
</event>
<event>
 7    1  0.5743890E-009  0.4614232E+02  0.7816164E-02  0.1320468E+00
        -11   -1    0    0    0    0  0.00000000000E+00  0.00000000000E+00  0.45593999997E+02  0.45594000000E+02  0.51100000000E-03 0. -1.
         11   -1    0    0    0    0 -0.00000000000E+00 -0.00000000000E+00 -0.45593999997E+02  0.45594000000E+02  0.51100000000E-03 0.  1.
    9900012    2    1    2    0    0  0.11392265993E+02  0.41544629279E+02 -0.13167138580E+02  0.46142317801E+02  0.10000000363E+02 0.  0.
        -12    1    1    2    0    0 -0.11392265993E+02 -0.41544629279E+02  0.13167138580E+02  0.45045682199E+02  0.00000000000E+00 0.  1.
         11    1    3    3    0    0  0.11333283143E+02  0.30141207986E+02 -0.84626468087E+01  0.33294926294E+02  0.51100000000E-03 0. -1.
        -11    1    3    3    0    0  0.13114932104E+01  0.91483325527E+01 -0.28532407258E+01  0.96722792472E+01  0.51100000000E-03 0.  1.
        -12    1    3    3    0    0 -0.12525103602E+01  0.22550887410E+01 -0.18512510450E+01  0.31751122600E+01  0.00000000000E+00 0.  1.
</event>
<event>
 7    1  0.5743890E-009  0.4614232E+02  0.7816164E-02  0.1320468E+00
        -11   -1    0    0    0    0  0.00000000000E+00  0.00000000000E+00  0.45593999997E+02  0.45594000000E+02  0.51100000000E-03 0. -1.
         11   -1    0    0    0    0 -0.00000000000E+00 -0.00000000000E+00 -0.45593999997E+02  0.45594000000E+02  0.51100000000E-03 0.  1.
    9900012    2    1    2    0    0  0.24382062421E+02 -0.24699454702E+01 -0.37795869510E+02  0.46142319291E+02  0.10000013951E+02 0.  0.
         12    1    1    2    0    0 -0.24382062421E+02  0.24699454702E+01  0.37795869510E+02  0.45045680709E+02  0.00000000000E+00 0. -1.
         11    1    3    3    0    0  0.18452124413E+02  0.16806842342E+01 -0.24751549059E+02  0.30918356618E+02  0.51100000000E-03 0. -1.
        -11    1    3    3    0    0  0.36788888879E+00 -0.62853327585E+00 -0.38346970314E+01  0.39032419727E+01  0.51100000000E-03 0.  1.
         12    1    3    3    0    0  0.55620491187E+01 -0.35220964285E+01 -0.92096234199E+01  0.11320720701E+02  0.00000000000E+00 0. -1.
</event>
<event>
 7    1  0.5743890E-009  0.4614232E+02  0.7816164E-02  0.1320468E+00
        -11   -1    0    0    0    0  0.00000000000E+00  0.00000000000E+00  0.45593999997E+02  0.45594000000E+02  0.51100000000E-03 0. -1.
         11   -1    0    0    0    0 -0.00000000000E+00 -0.00000000000E+00 -0.45593999997E+02  0.45594000000E+02  0.51100000000E-03 0.  1.
    9900012    2    1    2    0    0 -0.29099204179E+02  0.32672134432E+02 -0.10718271791E+02  0.46142318716E+02  0.10000008704E+02 0.  0.
         12    1    1    2    0    0  0.29099204179E+02 -0.32672134432E+02  0.10718271791E+02  0.45045681284E+02  0.00000000000E+00 0. -1.
         11    1    3    3    0    0 -0.28872872501E+01  0.58598205928E+01 -0.27500471476E+01  0.70877841826E+01  0.51100000000E-03 0. -1.
        -11    1    3    3    0    0 -0.24134973838E+02  0.25094980029E+02 -0.93147088107E+01  0.36041903186E+02  0.51100000000E-03 0.  1.
        -12    1    3    3    0    0 -0.20769430910E+01  0.17173338102E+01  0.13464841669E+01  0.30126313466E+01  0.00000000000E+00 0.  1.
</event>
<event>
 7    1  0.5743890E-009  0.4614232E+02  0.7816164E-02  0.1320468E+00
        -11   -1    0    0    0    0  0.00000000000E+00  0.00000000000E+00  0.45593999997E+02  0.45594000000E+02  0.51100000000E-03 0.  1.
         11   -1    0    0    0    0 -0.00000000000E+00 -0.00000000000E+00 -0.45593999997E+02  0.45594000000E+02  0.51100000000E-03 0. -1.
    9900012    2    1    2    0    0  0.41792559774E+02 -0.16540768307E+02  0.29830310551E+01  0.46142317155E+02  0.99999944764E+01 0.  0.
        -12    1    1    2    0    0 -0.41792559774E+02  0.16540768307E+02 -0.29830310551E+01  0.45045682845E+02  0.00000000000E+00 0.  1.
         11    1    3    3    0    0  0.11795753244E+02 -0.23197223492E+01 -0.44720003222E+00  0.12029999771E+02  0.51100000000E-03 0. -1.
        -11    1    3    3    0    0  0.18947176892E+01  0.54295725070E+00  0.11597780623E+01  0.22868850239E+01  0.51100000000E-03 0.  1.
         12    1    3    3    0    0  0.28102088841E+02 -0.14764003208E+02  0.22704530250E+01  0.31825432360E+02  0.00000000000E+00 0. -1.
</event>
<event>
 7    1  0.5743890E-009  0.4614232E+02  0.7816164E-02  0.1320468E+00
        -11   -1    0    0    0    0  0.00000000000E+00  0.00000000000E+00  0.45593999997E+02  0.45594000000E+02  0.51100000000E-03 0.  1.
         11   -1    0    0    0    0 -0.00000000000E+00 -0.00000000000E+00 -0.45593999997E+02  0.45594000000E+02  0.51100000000E-03 0. -1.
    9900012    2    1    2    0    0  0.11882746413E+02  0.43160863095E+02  0.50053767060E+01  0.46142316951E+02  0.99999926096E+01 0.  0.
        -12    1    1    2    0    0 -0.11882746413E+02 -0.43160863095E+02 -0.50053767060E+01  0.45045683049E+02  0.00000000000E+00 0.  1.
         11    1    3    3    0    0 -0.32036648966E+00  0.10284685313E+02  0.29708771440E+01  0.10709971893E+02  0.51100000000E-03 0. -1.
        -11    1    3    3    0    0  0.18594013880E+01  0.21038236255E+01  0.89915720586E+00  0.29482081526E+01  0.51100000000E-03 0.  1.
         12    1    3    3    0    0  0.10343711515E+02  0.30772354156E+02  0.11353423562E+01  0.32484136905E+02  0.00000000000E+00 0. -1.
</event>
<event>
 7    1  0.5743890E-009  0.4614232E+02  0.7816164E-02  0.1320468E+00
        -11   -1    0    0    0    0  0.00000000000E+00  0.00000000000E+00  0.45593999997E+02  0.45594000000E+02  0.51100000000E-03 0. -1.
         11   -1    0    0    0    0 -0.00000000000E+00 -0.00000000000E+00 -0.45593999997E+02  0.45594000000E+02  0.51100000000E-03 0.  1.
    9900012    2    1    2    0    0 -0.25908443244E+00  0.23562794513E+02  0.38390638003E+02  0.46142317673E+02  0.99999991987E+01 0.  0.
        -12    1    1    2    0    0  0.25908443244E+00 -0.23562794513E+02 -0.38390638003E+02  0.45045682327E+02  0.00000000000E+00 0.  1.
         11    1    3    3    0    0  0.20692115712E+01  0.45294031965E+01  0.43390157055E+01  0.66048608915E+01  0.51100000000E-03 0.  1.
        -11    1    3    3    0    0  0.36034257052E+00  0.12510553890E+02  0.25838277941E+02  0.28709935783E+02  0.51100000000E-03 0. -1.
         12    1    3    3    0    0 -0.26886385742E+01  0.65228374262E+01  0.82133443563E+01  0.10827520999E+02  0.00000000000E+00 0. -1.
</event>
<event>
 7    1  0.5743890E-009  0.4614232E+02  0.7816164E-02  0.1320468E+00
        -11   -1    0    0    0    0  0.00000000000E+00  0.00000000000E+00  0.45593999997E+02  0.45594000000E+02  0.51100000000E-03 0. -1.
         11   -1    0    0    0    0 -0.00000000000E+00 -0.00000000000E+00 -0.45593999997E+02  0.45594000000E+02  0.51100000000E-03 0.  1.
    9900012    2    1    2    0    0  0.14067487388E+02 -0.31897490700E+02 -0.28526641453E+02  0.46142318887E+02  0.10000010263E+02 0.  0.
         12    1    1    2    0    0 -0.14067487388E+02  0.31897490700E+02  0.28526641453E+02  0.45045681113E+02  0.00000000000E+00 0. -1.
         11    1    3    3    0    0  0.61925803817E+00 -0.11219265899E+01 -0.38230696388E+01  0.40321286581E+01  0.51100000000E-03 0. -1.
        -11    1    3    3    0    0  0.11210213186E+02 -0.23426183409E+02 -0.21765433345E+02  0.33884938213E+02  0.51100000000E-03 0.  1.
         12    1    3    3    0    0  0.22380161641E+01 -0.73493807017E+01 -0.29381384689E+01  0.82252520151E+01  0.00000000000E+00 0. -1.
</event>
<event>
 7    1  0.5743890E-009  0.4614231E+02  0.7816164E-02  0.1320468E+00
        -11   -1    0    0    0    0  0.00000000000E+00  0.00000000000E+00  0.45593999997E+02  0.45594000000E+02  0.51100000000E-03 0. -1.
         11   -1    0    0    0    0 -0.00000000000E+00 -0.00000000000E+00 -0.45593999997E+02  0.45594000000E+02  0.51100000000E-03 0.  1.
    9900012    2    1    2    0    0  0.19755775812E+02  0.13063662066E+02 -0.38316632428E+02  0.46142309139E+02  0.99999213800E+01 0.  0.
         12    1    1    2    0    0 -0.19755775812E+02 -0.13063662066E+02  0.38316632428E+02  0.45045690861E+02  0.00000000000E+00 0. -1.
         11    1    3    3    0    0  0.40775643960E+01  0.47937862958E+01 -0.13577817551E+02  0.14965428432E+02  0.51100000000E-03 0. -1.
        -11    1    3    3    0    0  0.14225730969E+02  0.74553883868E+01 -0.24758327930E+02  0.29511506904E+02  0.51100000000E-03 0.  1.
        -12    1    3    3    0    0  0.14524804468E+01  0.81448738315E+00  0.19513052636E-01  0.16653738034E+01  0.00000000000E+00 0.  1.
</event>
<event>
 7    1  0.5743890E-009  0.4614232E+02  0.7816164E-02  0.1320468E+00
        -11   -1    0    0    0    0  0.00000000000E+00  0.00000000000E+00  0.45593999997E+02  0.45594000000E+02  0.51100000000E-03 0. -1.
         11   -1    0    0    0    0 -0.00000000000E+00 -0.00000000000E+00 -0.45593999997E+02  0.45594000000E+02  0.51100000000E-03 0.  1.
    9900012    2    1    2    0    0  0.74653101603E+01 -0.73177437951E+01 -0.43815901216E+02  0.46142318416E+02  0.10000005968E+02 0.  0.
         12    1    1    2    0    0 -0.74653101603E+01  0.73177437951E+01  0.43815901216E+02  0.45045681584E+02  0.00000000000E+00 0. -1.
         11    1    3    3    0    0 -0.11716820335E-01  0.16343499826E+00 -0.48208329586E+01  0.48236167922E+01  0.51100000000E-03 0. -1.
        -11    1    3    3    0    0  0.18501178288E+00 -0.43341741391E+01 -0.61436960982E+01  0.75209239350E+01  0.51100000000E-03 0.  1.
        -12    1    3    3    0    0  0.72920151978E+01 -0.31470046542E+01 -0.32851372159E+02  0.33797777688E+02  0.00000000000E+00 0.  1.
</event>
<event>
 7    1  0.5743890E-009  0.4614232E+02  0.7816164E-02  0.1320468E+00
        -11   -1    0    0    0    0  0.00000000000E+00  0.00000000000E+00  0.45593999997E+02  0.45594000000E+02  0.51100000000E-03 0. -1.
         11   -1    0    0    0    0 -0.00000000000E+00 -0.00000000000E+00 -0.45593999997E+02  0.45594000000E+02  0.51100000000E-03 0.  1.
    9900012    2    1    2    0    0  0.17844980969E+02  0.15873518277E+02 -0.38192951075E+02  0.46142318297E+02  0.10000004889E+02 0.  0.
         12    1    1    2    0    0 -0.17844980969E+02 -0.15873518277E+02  0.38192951075E+02  0.45045681703E+02  0.00000000000E+00 0. -1.
         11    1    3    3    0    0 -0.89438352902E+00  0.21775058331E+00 -0.98634189066E+00  0.13491507699E+01  0.51100000000E-03 0. -1.
        -11    1    3    3    0    0  0.51948287250E+01  0.17550456255E+01 -0.94163174413E+01  0.10896488657E+02  0.51100000000E-03 0.  1.
        -12    1    3    3    0    0  0.13544535773E+02  0.13900722068E+02 -0.27790291743E+02  0.33896678871E+02  0.00000000000E+00 0.  1.
</event>
<event>
 7    1  0.5743890E-009  0.4614232E+02  0.7816164E-02  0.1320468E+00
        -11   -1    0    0    0    0  0.00000000000E+00  0.00000000000E+00  0.45593999997E+02  0.45594000000E+02  0.51100000000E-03 0. -1.
         11   -1    0    0    0    0 -0.00000000000E+00 -0.00000000000E+00 -0.45593999997E+02  0.45594000000E+02  0.51100000000E-03 0.  1.
    9900012    2    1    2    0    0  0.26805376668E+02 -0.28199830592E+01 -0.36092006330E+02  0.46142318257E+02  0.10000004523E+02 0.  0.
         12    1    1    2    0    0 -0.26805376668E+02  0.28199830592E+01  0.36092006330E+02  0.45045681743E+02  0.00000000000E+00 0. -1.
         11    1    3    3    0    0  0.10974246412E+02  0.82233488100E-01 -0.18142454269E+02  0.21203525504E+02  0.51100000000E-03 0. -1.
        -11    1    3    3    0    0  0.10357715459E+02 -0.47404260699E+01 -0.13403993416E+02  0.17590365221E+02  0.51100000000E-03 0.  1.
         12    1    3    3    0    0  0.54734147979E+01  0.18382095226E+01 -0.45455586449E+01  0.73484275320E+01  0.00000000000E+00 0. -1.
</event>
<event>
 7    1  0.5743890E-009  0.4614232E+02  0.7816164E-02  0.1320468E+00
        -11   -1    0    0    0    0  0.00000000000E+00  0.00000000000E+00  0.45593999997E+02  0.45594000000E+02  0.51100000000E-03 0. -1.
         11   -1    0    0    0    0 -0.00000000000E+00 -0.00000000000E+00 -0.45593999997E+02  0.45594000000E+02  0.51100000000E-03 0.  1.
    9900012    2    1    2    0    0  0.73138841595E+01 -0.25905753615E+02 -0.36118035443E+02  0.46142318119E+02  0.10000003264E+02 0.  0.
         12    1    1    2    0    0 -0.73138841595E+01  0.25905753615E+02  0.36118035443E+02  0.45045681881E+02  0.00000000000E+00 0. -1.
         11    1    3    3    0    0 -0.16414213440E+01 -0.43335119329E+01 -0.68626982960E+01  0.82807136084E+01  0.51100000000E-03 0. -1.
        -11    1    3    3    0    0  0.10238771411E+00 -0.21017930374E+01 -0.55384975978E+01  0.59247762083E+01  0.51100000000E-03 0.  1.
        -12    1    3    3    0    0  0.88529177894E+01 -0.19470448645E+02 -0.23716839549E+02  0.31936828302E+02  0.00000000000E+00 0.  1.
</event>
<event>
 7    1  0.5743890E-009  0.4614231E+02  0.7816164E-02  0.1320468E+00
        -11   -1    0    0    0    0  0.00000000000E+00  0.00000000000E+00  0.45593999997E+02  0.45594000000E+02  0.51100000000E-03 0. -1.
         11   -1    0    0    0    0 -0.00000000000E+00 -0.00000000000E+00 -0.45593999997E+02  0.45594000000E+02  0.51100000000E-03 0.  1.
    9900012    2    1    2    0    0  0.17993982300E+01  0.10438289791E+02 -0.43782623870E+02  0.46142313407E+02  0.99999602925E+01 0.  0.
         12    1    1    2    0    0 -0.17993982300E+01 -0.10438289791E+02  0.43782623870E+02  0.45045686593E+02  0.00000000000E+00 0. -1.
         11    1    3    3    0    0 -0.17784738581E+01 -0.10116372017E+01 -0.51384831028E+01  0.55308577952E+01  0.51100000000E-03 0. -1.
        -11    1    3    3    0    0 -0.62091085238E+00  0.20274636483E+01 -0.80723867171E+01  0.83462306884E+01  0.51100000000E-03 0.  1.
        -12    1    3    3    0    0  0.41987829404E+01  0.94224633446E+01 -0.30571754050E+02  0.32265224923E+02  0.00000000000E+00 0.  1.
</event>
<event>
 7    1  0.5743890E-009  0.4614232E+02  0.7816164E-02  0.1320468E+00
        -11   -1    0    0    0    0  0.00000000000E+00  0.00000000000E+00  0.45593999997E+02  0.45594000000E+02  0.51100000000E-03 0. -1.
         11   -1    0    0    0    0 -0.00000000000E+00 -0.00000000000E+00 -0.45593999997E+02  0.45594000000E+02  0.51100000000E-03 0.  1.
    9900012    2    1    2    0    0  0.22005199766E+02  0.12805653399E+02 -0.37160462904E+02  0.46142316755E+02  0.99999908278E+01 0.  0.
         12    1    1    2    0    0 -0.22005199766E+02 -0.12805653399E+02  0.37160462904E+02  0.45045683245E+02  0.00000000000E+00 0. -1.
         11    1    3    3    0    0  0.20879128053E+01  0.24975086302E+01 -0.80947524592E+01  0.87247892168E+01  0.51100000000E-03 0. -1.
        -11    1    3    3    0    0  0.85389156798E+01  0.17675179525E+01 -0.15360250029E+02  0.17662799379E+02  0.51100000000E-03 0.  1.
         12    1    3    3    0    0  0.11378371281E+02  0.85406268164E+01 -0.13705460416E+02  0.19754728159E+02  0.00000000000E+00 0. -1.
</event>
<event>
 7    1  0.5743890E-009  0.4614232E+02  0.7816164E-02  0.1320468E+00
        -11   -1    0    0    0    0  0.00000000000E+00  0.00000000000E+00  0.45593999997E+02  0.45594000000E+02  0.51100000000E-03 0. -1.
         11   -1    0    0    0    0 -0.00000000000E+00 -0.00000000000E+00 -0.45593999997E+02  0.45594000000E+02  0.51100000000E-03 0.  1.
    9900012    2    1    2    0    0  0.12177861593E+01  0.15807356078E+02  0.42163468428E+02  0.46142316753E+02  0.99999908057E+01 0.  0.
        -12    1    1    2    0    0 -0.12177861593E+01 -0.15807356078E+02 -0.42163468428E+02  0.45045683247E+02  0.00000000000E+00 0.  1.
         11    1    3    3    0    0  0.77629673886E+00  0.53873464302E+01  0.19946703238E+02  0.20676003205E+02  0.51100000000E-03 0. -1.
        -11    1    3    3    0    0  0.11730048642E+00  0.53415631907E+01  0.43522848711E+01  0.68911857169E+01  0.51100000000E-03 0.  1.
        -12    1    3    3    0    0  0.32418893401E+00  0.50784464574E+01  0.17864480319E+02  0.18575127831E+02  0.00000000000E+00 0.  1.
</event>
<event>
 7    1  0.5743890E-009  0.4614232E+02  0.7816164E-02  0.1320468E+00
        -11   -1    0    0    0    0  0.00000000000E+00  0.00000000000E+00  0.45593999997E+02  0.45594000000E+02  0.51100000000E-03 0. -1.
         11   -1    0    0    0    0 -0.00000000000E+00 -0.00000000000E+00 -0.45593999997E+02  0.45594000000E+02  0.51100000000E-03 0.  1.
    9900012    2    1    2    0    0 -0.27344362568E+02  0.33274752511E+02  0.13198111433E+02  0.46142318028E+02  0.10000002431E+02 0.  0.
        -12    1    1    2    0    0  0.27344362568E+02 -0.33274752511E+02 -0.13198111433E+02  0.45045681972E+02  0.00000000000E+00 0.  1.
         11    1    3    3    0    0 -0.67199132765E+01  0.99536497231E+01 -0.27464753717E+00  0.12012818520E+02  0.51100000000E-03 0. -1.
        -11    1    3    3    0    0 -0.66461980101E+01  0.54279000150E+01  0.47320903350E+01  0.97993227196E+01  0.51100000000E-03 0.  1.
         12    1    3    3    0    0 -0.13978251281E+02  0.17893202773E+02  0.87406686356E+01  0.24330176789E+02  0.00000000000E+00 0. -1.
</event>
<event>
 7    1  0.5743890E-009  0.4614232E+02  0.7816164E-02  0.1320468E+00
        -11   -1    0    0    0    0  0.00000000000E+00  0.00000000000E+00  0.45593999997E+02  0.45594000000E+02  0.51100000000E-03 0. -1.
         11   -1    0    0    0    0 -0.00000000000E+00 -0.00000000000E+00 -0.45593999997E+02  0.45594000000E+02  0.51100000000E-03 0.  1.
    9900012    2    1    2    0    0  0.31849908450E+02  0.16591911884E+02 -0.27192008324E+02  0.46142317356E+02  0.99999963042E+01 0.  0.
         12    1    1    2    0    0 -0.31849908450E+02 -0.16591911884E+02  0.27192008324E+02  0.45045682644E+02  0.00000000000E+00 0. -1.
         11    1    3    3    0    0  0.14648686837E+02  0.51082187532E+01 -0.14498064370E+02  0.21233741913E+02  0.51100000000E-03 0.  1.
        -11    1    3    3    0    0  0.12881055893E+02  0.54075532320E+01 -0.85518635522E+01  0.16379792531E+02  0.51100000000E-03 0. -1.
         12    1    3    3    0    0  0.43201657194E+01  0.60761398985E+01 -0.41420804012E+01  0.85287829120E+01  0.00000000000E+00 0. -1.
</event>
<event>
 7    1  0.5743890E-009  0.4614232E+02  0.7816164E-02  0.1320468E+00
        -11   -1    0    0    0    0  0.00000000000E+00  0.00000000000E+00  0.45593999997E+02  0.45594000000E+02  0.51100000000E-03 0. -1.
         11   -1    0    0    0    0 -0.00000000000E+00 -0.00000000000E+00 -0.45593999997E+02  0.45594000000E+02  0.51100000000E-03 0.  1.
    9900012    2    1    2    0    0 -0.25111592609E+02 -0.19440714925E+02 -0.31946517722E+02  0.46142317913E+02  0.10000001383E+02 0.  0.
         12    1    1    2    0    0  0.25111592609E+02  0.19440714925E+02  0.31946517722E+02  0.45045682087E+02  0.00000000000E+00 0. -1.
         11    1    3    3    0    0 -0.62104834283E+01 -0.36258489290E+01 -0.82764215017E+01  0.10964307457E+02  0.51100000000E-03 0. -1.
        -11    1    3    3    0    0 -0.18980171035E+02 -0.15987428743E+02 -0.24171091287E+02  0.34642263561E+02  0.51100000000E-03 0.  1.
        -12    1    3    3    0    0  0.79061854626E-01  0.17256274774E+00  0.50099506682E+00  0.53574689522E+00  0.00000000000E+00 0.  1.
</event>
<event>
 7    1  0.5743890E-009  0.4614232E+02  0.7816164E-02  0.1320468E+00
        -11   -1    0    0    0    0  0.00000000000E+00  0.00000000000E+00  0.45593999997E+02  0.45594000000E+02  0.51100000000E-03 0. -1.
         11   -1    0    0    0    0 -0.00000000000E+00 -0.00000000000E+00 -0.45593999997E+02  0.45594000000E+02  0.51100000000E-03 0.  1.
    9900012    2    1    2    0    0 -0.22729076215E+02  0.24672634468E+02 -0.30062663037E+02  0.46142317565E+02  0.99999982079E+01 0.  0.
         12    1    1    2    0    0  0.22729076215E+02 -0.24672634468E+02  0.30062663037E+02  0.45045682435E+02  0.00000000000E+00 0. -1.
         11    1    3    3    0    0 -0.83293859951E+01  0.48590255395E+01 -0.11967185890E+02  0.15368875647E+02  0.51100000000E-03 0. -1.
        -11    1    3    3    0    0 -0.12357765227E+01  0.42390325828E+00 -0.28366531354E+00  0.13369008406E+01  0.51100000000E-03 0.  1.
         12    1    3    3    0    0 -0.13163913697E+02  0.19389705670E+02 -0.17811811834E+02  0.29436541077E+02  0.00000000000E+00 0. -1.
</event>
<event>
 7    1  0.5743890E-009  0.4614232E+02  0.7816164E-02  0.1320468E+00
        -11   -1    0    0    0    0  0.00000000000E+00  0.00000000000E+00  0.45593999997E+02  0.45594000000E+02  0.51100000000E-03 0. -1.
         11   -1    0    0    0    0 -0.00000000000E+00 -0.00000000000E+00 -0.45593999997E+02  0.45594000000E+02  0.51100000000E-03 0.  1.
    9900012    2    1    2    0    0  0.15773015092E+02 -0.41948337610E+02  0.45455954520E+01  0.46142317950E+02  0.10000001727E+02 0.  0.
        -12    1    1    2    0    0 -0.15773015092E+02  0.41948337610E+02 -0.45455954520E+01  0.45045682050E+02  0.00000000000E+00 0.  1.
         11    1    3    3    0    0  0.22214573992E+01 -0.10262077462E+02  0.39268727279E+01  0.11210059612E+02  0.51100000000E-03 0. -1.
        -11    1    3    3    0    0  0.34016573923E+01 -0.88894445705E+01 -0.23448222633E+01  0.98026368643E+01  0.51100000000E-03 0.  1.
        -12    1    3    3    0    0  0.10149900300E+02 -0.22796815577E+02  0.29635449875E+01  0.25129621474E+02  0.00000000000E+00 0.  1.
</event>
<event>
 7    1  0.5743890E-009  0.4614232E+02  0.7816164E-02  0.1320468E+00
        -11   -1    0    0    0    0  0.00000000000E+00  0.00000000000E+00  0.45593999997E+02  0.45594000000E+02  0.51100000000E-03 0. -1.
         11   -1    0    0    0    0 -0.00000000000E+00 -0.00000000000E+00 -0.45593999997E+02  0.45594000000E+02  0.51100000000E-03 0.  1.
    9900012    2    1    2    0    0  0.78829558238E+01 -0.96035991910E+01 -0.43298306798E+02  0.46142317837E+02  0.10000000696E+02 0.  0.
         12    1    1    2    0    0 -0.78829558238E+01  0.96035991910E+01  0.43298306798E+02  0.45045682163E+02  0.00000000000E+00 0. -1.
         11    1    3    3    0    0  0.73681378814E+01 -0.27216231523E+01 -0.17576506429E+02  0.19251760100E+02  0.51100000000E-03 0. -1.
        -11    1    3    3    0    0  0.55843419286E+00 -0.15842155136E+01 -0.13023484963E+02  0.13131365062E+02  0.51100000000E-03 0.  1.
         12    1    3    3    0    0 -0.43616250509E-01 -0.52977605251E+01 -0.12698315406E+02  0.13759192676E+02  0.00000000000E+00 0. -1.
</event>
<event>
 7    1  0.5743890E-009  0.4614232E+02  0.7816164E-02  0.1320468E+00
        -11   -1    0    0    0    0  0.00000000000E+00  0.00000000000E+00  0.45593999997E+02  0.45594000000E+02  0.51100000000E-03 0. -1.
         11   -1    0    0    0    0 -0.00000000000E+00 -0.00000000000E+00 -0.45593999997E+02  0.45594000000E+02  0.51100000000E-03 0.  1.
    9900012    2    1    2    0    0 -0.26346965853E+01 -0.27777649552E+02 -0.35363448964E+02  0.46142323589E+02  0.10000053142E+02 0.  0.
         12    1    1    2    0    0  0.26346965853E+01  0.27777649552E+02  0.35363448964E+02  0.45045676411E+02  0.00000000000E+00 0. -1.
         11    1    3    3    0    0  0.13288642800E+01 -0.74166525385E+01 -0.63919719791E+01  0.98807854543E+01  0.51100000000E-03 0. -1.
        -11    1    3    3    0    0 -0.34640350007E+01 -0.17719546619E+02 -0.20226075920E+02  0.27112285375E+02  0.51100000000E-03 0.  1.
        -12    1    3    3    0    0 -0.49952586454E+00 -0.26414503939E+01 -0.87454010646E+01  0.91492527593E+01  0.00000000000E+00 0.  1.
</event>
<event>
 7    1  0.5743890E-009  0.4614232E+02  0.7816164E-02  0.1320468E+00
        -11   -1    0    0    0    0  0.00000000000E+00  0.00000000000E+00  0.45593999997E+02  0.45594000000E+02  0.51100000000E-03 0.  1.
         11   -1    0    0    0    0 -0.00000000000E+00 -0.00000000000E+00 -0.45593999997E+02  0.45594000000E+02  0.51100000000E-03 0. -1.
    9900012    2    1    2    0    0  0.43995593646E+02 -0.96282855378E+01 -0.89298104988E+00  0.46142316990E+02  0.99999929718E+01 0.  0.
        -12    1    1    2    0    0 -0.43995593646E+02  0.96282855378E+01  0.89298104988E+00  0.45045683010E+02  0.00000000000E+00 0.  1.
         11    1    3    3    0    0  0.84047430525E+01 -0.33922359587E+01  0.28291791688E+01  0.94947999246E+01  0.51100000000E-03 0. -1.
        -11    1    3    3    0    0  0.73896693637E+00  0.55126830116E+00 -0.32995848092E+00  0.97920464315E+00  0.51100000000E-03 0.  1.
         12    1    3    3    0    0  0.34851883657E+02 -0.67873178803E+01 -0.33922017378E+01  0.35668312423E+02  0.00000000000E+00 0. -1.
</event>
<event>
 7    1  0.5743890E-009  0.4614232E+02  0.7816164E-02  0.1320468E+00
        -11   -1    0    0    0    0  0.00000000000E+00  0.00000000000E+00  0.45593999997E+02  0.45594000000E+02  0.51100000000E-03 0. -1.
         11   -1    0    0    0    0 -0.00000000000E+00 -0.00000000000E+00 -0.45593999997E+02  0.45594000000E+02  0.51100000000E-03 0.  1.
    9900012    2    1    2    0    0  0.30485198134E+02  0.89750474963E+01  0.31925145367E+02  0.46142315528E+02  0.99999796389E+01 0.  0.
        -12    1    1    2    0    0 -0.30485198134E+02 -0.89750474963E+01 -0.31925145367E+02  0.45045684472E+02  0.00000000000E+00 0.  1.
         11    1    3    3    0    0  0.21379811208E+01  0.11591911449E+01  0.18917089854E+01  0.30811118983E+01  0.51100000000E-03 0. -1.
        -11    1    3    3    0    0  0.10623140394E+02  0.59526121582E+01  0.17308168928E+02  0.21162641972E+02  0.51100000000E-03 0.  1.
         12    1    3    3    0    0  0.17724076619E+02  0.18632441932E+01  0.12725267454E+02  0.21898561658E+02  0.00000000000E+00 0. -1.
</event>
<event>
 7    1  0.5743890E-009  0.4614232E+02  0.7816164E-02  0.1320468E+00
        -11   -1    0    0    0    0  0.00000000000E+00  0.00000000000E+00  0.45593999997E+02  0.45594000000E+02  0.51100000000E-03 0. -1.
         11   -1    0    0    0    0 -0.00000000000E+00 -0.00000000000E+00 -0.45593999997E+02  0.45594000000E+02  0.51100000000E-03 0.  1.
    9900012    2    1    2    0    0  0.87853046120E+01 -0.29147977381E+00 -0.44179711140E+02  0.46142318587E+02  0.10000007531E+02 0.  0.
         12    1    1    2    0    0 -0.87853046120E+01  0.29147977381E+00  0.44179711140E+02  0.45045681413E+02  0.00000000000E+00 0. -1.
         11    1    3    3    0    0 -0.20596660984E+01 -0.65221213950E+00 -0.65548742398E+01  0.69017375836E+01  0.51100000000E-03 0. -1.
        -11    1    3    3    0    0  0.13420670455E+01  0.65243957875E+00 -0.76470187253E+01  0.77912590128E+01  0.51100000000E-03 0.  1.
        -12    1    3    3    0    0  0.95029036650E+01 -0.29170721306E+00 -0.29977818175E+02  0.31449321991E+02  0.00000000000E+00 0.  1.
</event>
<event>
 7    1  0.5743890E-009  0.4614232E+02  0.7816164E-02  0.1320468E+00
        -11   -1    0    0    0    0  0.00000000000E+00  0.00000000000E+00  0.45593999997E+02  0.45594000000E+02  0.51100000000E-03 0.  1.
         11   -1    0    0    0    0 -0.00000000000E+00 -0.00000000000E+00 -0.45593999997E+02  0.45594000000E+02  0.51100000000E-03 0. -1.
    9900012    2    1    2    0    0 -0.38297854521E+02 -0.17177982155E+02 -0.16349460593E+02  0.46142316594E+02  0.99999893564E+01 0.  0.
        -12    1    1    2    0    0  0.38297854521E+02  0.17177982155E+02  0.16349460593E+02  0.45045683406E+02  0.00000000000E+00 0.  1.
         11    1    3    3    0    0 -0.72094796926E+01 -0.38621800646E+01 -0.47533561535E+01  0.94597794516E+01  0.51100000000E-03 0. -1.
        -11    1    3    3    0    0 -0.11483117992E+02 -0.41182936526E+01 -0.17650343283E+00  0.12200553068E+02  0.51100000000E-03 0.  1.
        -12    1    3    3    0    0 -0.19605256836E+02 -0.91975084378E+01 -0.11419601007E+02  0.24481984075E+02  0.00000000000E+00 0.  1.
</event>
<event>
 7    1  0.5743890E-009  0.4614232E+02  0.7816164E-02  0.1320468E+00
        -11   -1    0    0    0    0  0.00000000000E+00  0.00000000000E+00  0.45593999997E+02  0.45594000000E+02  0.51100000000E-03 0. -1.
         11   -1    0    0    0    0 -0.00000000000E+00 -0.00000000000E+00 -0.45593999997E+02  0.45594000000E+02  0.51100000000E-03 0.  1.
    9900012    2    1    2    0    0 -0.22180505562E+02 -0.35968506149E+02 -0.15601454534E+02  0.46142316021E+02  0.99999841337E+01 0.  0.
         12    1    1    2    0    0  0.22180505562E+02  0.35968506149E+02  0.15601454534E+02  0.45045683979E+02  0.00000000000E+00 0. -1.
         11    1    3    3    0    0 -0.13967028405E+02 -0.15242083572E+02 -0.55328696659E+01  0.21401206533E+02  0.51100000000E-03 0. -1.
        -11    1    3    3    0    0 -0.28284610449E+01 -0.10627604624E+02 -0.63920289860E+01  0.12720228251E+02  0.51100000000E-03 0.  1.
         12    1    3    3    0    0 -0.53850161122E+01 -0.10098817953E+02 -0.36765558819E+01  0.12020881237E+02  0.00000000000E+00 0. -1.
</event>
<event>
 7    1  0.5743890E-009  0.4614232E+02  0.7816164E-02  0.1320468E+00
        -11   -1    0    0    0    0  0.00000000000E+00  0.00000000000E+00  0.45593999997E+02  0.45594000000E+02  0.51100000000E-03 0.  1.
         11   -1    0    0    0    0 -0.00000000000E+00 -0.00000000000E+00 -0.45593999997E+02  0.45594000000E+02  0.51100000000E-03 0. -1.
    9900012    2    1    2    0    0 -0.13704212800E+02  0.39232559467E+02 -0.17381440715E+02  0.46142315943E+02  0.99999834232E+01 0.  0.
         12    1    1    2    0    0  0.13704212800E+02 -0.39232559467E+02  0.17381440715E+02  0.45045684057E+02  0.00000000000E+00 0. -1.
         11    1    3    3    0    0 -0.70216855906E+01  0.84239807460E+01 -0.64523690608E+01  0.12724016147E+02  0.51100000000E-03 0. -1.
        -11    1    3    3    0    0 -0.33955054749E-01  0.18921954013E+01 -0.39758521861E+00  0.19338124650E+01  0.51100000000E-03 0.  1.
        -12    1    3    3    0    0 -0.66485721551E+01  0.28916383320E+02 -0.10531486436E+02  0.31484487332E+02  0.00000000000E+00 0.  1.
</event>
<event>
 7    1  0.5743890E-009  0.4614232E+02  0.7816164E-02  0.1320468E+00
        -11   -1    0    0    0    0  0.00000000000E+00  0.00000000000E+00  0.45593999997E+02  0.45594000000E+02  0.51100000000E-03 0. -1.
         11   -1    0    0    0    0 -0.00000000000E+00 -0.00000000000E+00 -0.45593999997E+02  0.45594000000E+02  0.51100000000E-03 0.  1.
    9900012    2    1    2    0    0 -0.42433370413E+02 -0.10069831406E+01  0.15083378084E+02  0.46142320584E+02  0.10000025741E+02 0.  0.
        -12    1    1    2    0    0  0.42433370413E+02  0.10069831406E+01 -0.15083378084E+02  0.45045679416E+02  0.00000000000E+00 0.  1.
         11    1    3    3    0    0 -0.42040396651E+00  0.65838905674E+00  0.13891399676E+01  0.15937144524E+01  0.51100000000E-03 0. -1.
        -11    1    3    3    0    0 -0.64451608396E+01  0.11581497424E+01  0.74016196112E+00  0.65900871818E+01  0.51100000000E-03 0.  1.
         12    1    3    3    0    0 -0.35567805607E+02 -0.28235219397E+01  0.12954076156E+02  0.37958518950E+02  0.00000000000E+00 0. -1.
</event>
<event>
 7    1  0.5743890E-009  0.4614232E+02  0.7816164E-02  0.1320468E+00
        -11   -1    0    0    0    0  0.00000000000E+00  0.00000000000E+00  0.45593999997E+02  0.45594000000E+02  0.51100000000E-03 0. -1.
         11   -1    0    0    0    0 -0.00000000000E+00 -0.00000000000E+00 -0.45593999997E+02  0.45594000000E+02  0.51100000000E-03 0.  1.
    9900012    2    1    2    0    0 -0.30868356244E+02  0.69078159973E+01 -0.32070860723E+02  0.46142318225E+02  0.10000004230E+02 0.  0.
         12    1    1    2    0    0  0.30868356244E+02 -0.69078159973E+01  0.32070860723E+02  0.45045681775E+02  0.00000000000E+00 0. -1.
         11    1    3    3    0    0 -0.10673568784E+02  0.33171041339E+01 -0.74989746750E+01  0.13459675771E+02  0.51100000000E-03 0. -1.
        -11    1    3    3    0    0 -0.14617460763E+02  0.93327180738E+00 -0.13089596116E+02  0.19643795004E+02  0.51100000000E-03 0.  1.
        -12    1    3    3    0    0 -0.55773266969E+01  0.26574400560E+01 -0.11482289932E+02  0.13038847450E+02  0.00000000000E+00 0.  1.
</event>
<event>
 7    1  0.5743890E-009  0.4614232E+02  0.7816164E-02  0.1320468E+00
        -11   -1    0    0    0    0  0.00000000000E+00  0.00000000000E+00  0.45593999997E+02  0.45594000000E+02  0.51100000000E-03 0. -1.
         11   -1    0    0    0    0 -0.00000000000E+00 -0.00000000000E+00 -0.45593999997E+02  0.45594000000E+02  0.51100000000E-03 0.  1.
    9900012    2    1    2    0    0 -0.40267879999E+02  0.50452643173E+01 -0.19548827302E+02  0.46142317626E+02  0.99999987692E+01 0.  0.
         12    1    1    2    0    0  0.40267879999E+02 -0.50452643173E+01  0.19548827302E+02  0.45045682374E+02  0.00000000000E+00 0. -1.
         11    1    3    3    0    0 -0.19254943265E+02  0.54375367869E+01 -0.10214756897E+02  0.22464659026E+02  0.51100000000E-03 0. -1.
        -11    1    3    3    0    0 -0.16548887497E+02  0.20388418120E+01 -0.69839336364E+01  0.18077551898E+02  0.51100000000E-03 0.  1.
         12    1    3    3    0    0 -0.44640492371E+01 -0.24311142816E+01 -0.23501367685E+01  0.56001067019E+01  0.00000000000E+00 0. -1.
</event>
<event>
 7    1  0.5743890E-009  0.4614232E+02  0.7816164E-02  0.1320468E+00
        -11   -1    0    0    0    0  0.00000000000E+00  0.00000000000E+00  0.45593999997E+02  0.45594000000E+02  0.51100000000E-03 0. -1.
         11   -1    0    0    0    0 -0.00000000000E+00 -0.00000000000E+00 -0.45593999997E+02  0.45594000000E+02  0.51100000000E-03 0.  1.
    9900012    2    1    2    0    0 -0.21580962881E+02 -0.62471132736E+01 -0.39042913695E+02  0.46142317711E+02  0.99999995414E+01 0.  0.
         12    1    1    2    0    0  0.21580962881E+02  0.62471132736E+01  0.39042913695E+02  0.45045682289E+02  0.00000000000E+00 0. -1.
         11    1    3    3    0    0 -0.63644511316E+01 -0.96242882109E+00 -0.16424610093E+02  0.17640870852E+02  0.51100000000E-03 0.  1.
        -11    1    3    3    0    0 -0.41679900943E+01 -0.40201939942E+01 -0.10922536063E+02  0.12362681565E+02  0.51100000000E-03 0. -1.
        -12    1    3    3    0    0 -0.11048521655E+02 -0.12644904582E+01 -0.11695767539E+02  0.16138765294E+02  0.00000000000E+00 0.  1.
</event>
<event>
 7    1  0.5743890E-009  0.4614232E+02  0.7816164E-02  0.1320468E+00
        -11   -1    0    0    0    0  0.00000000000E+00  0.00000000000E+00  0.45593999997E+02  0.45594000000E+02  0.51100000000E-03 0. -1.
         11   -1    0    0    0    0 -0.00000000000E+00 -0.00000000000E+00 -0.45593999997E+02  0.45594000000E+02  0.51100000000E-03 0.  1.
    9900012    2    1    2    0    0  0.65777810456E+01 -0.34889826333E+02  0.27722668285E+02  0.46142317390E+02  0.99999966119E+01 0.  0.
        -12    1    1    2    0    0 -0.65777810456E+01  0.34889826333E+02 -0.27722668285E+02  0.45045682610E+02  0.00000000000E+00 0.  1.
         11    1    3    3    0    0  0.37250790097E+01 -0.16767114477E+02  0.14337991647E+02  0.22373876424E+02  0.51100000000E-03 0. -1.
        -11    1    3    3    0    0  0.30126660237E+01 -0.17516533049E+02  0.10137966922E+02  0.20461756039E+02  0.51100000000E-03 0.  1.
         12    1    3    3    0    0 -0.15996398787E+00 -0.60617880720E+00  0.32467097168E+01  0.33066849273E+01  0.00000000000E+00 0. -1.
</event>
<event>
 7    1  0.5743890E-009  0.4614232E+02  0.7816164E-02  0.1320468E+00
        -11   -1    0    0    0    0  0.00000000000E+00  0.00000000000E+00  0.45593999997E+02  0.45594000000E+02  0.51100000000E-03 0. -1.
         11   -1    0    0    0    0 -0.00000000000E+00 -0.00000000000E+00 -0.45593999997E+02  0.45594000000E+02  0.51100000000E-03 0.  1.
    9900012    2    1    2    0    0 -0.11545995016E+01 -0.22200975896E+02 -0.39177761978E+02  0.46142318027E+02  0.10000002428E+02 0.  0.
         12    1    1    2    0    0  0.11545995016E+01  0.22200975896E+02  0.39177761978E+02  0.45045681973E+02  0.00000000000E+00 0. -1.
         11    1    3    3    0    0  0.20373166586E+01 -0.99028957187E+01 -0.25131826608E+02  0.27089236086E+02  0.51100000000E-03 0. -1.
        -11    1    3    3    0    0 -0.21871178877E+01 -0.90471393941E+01 -0.11547342030E+02  0.14831565126E+02  0.51100000000E-03 0.  1.
         12    1    3    3    0    0 -0.10047982726E+01 -0.32509407832E+01 -0.24985933404E+01  0.42215168157E+01  0.00000000000E+00 0. -1.
</event>
<event>
 7    1  0.5743890E-009  0.4614232E+02  0.7816164E-02  0.1320468E+00
        -11   -1    0    0    0    0  0.00000000000E+00  0.00000000000E+00  0.45593999997E+02  0.45594000000E+02  0.51100000000E-03 0. -1.
         11   -1    0    0    0    0 -0.00000000000E+00 -0.00000000000E+00 -0.45593999997E+02  0.45594000000E+02  0.51100000000E-03 0.  1.
    9900012    2    1    2    0    0  0.32972634424E+02 -0.16641570807E+02  0.25787146785E+02  0.46142318309E+02  0.10000004992E+02 0.  0.
        -12    1    1    2    0    0 -0.32972634424E+02  0.16641570807E+02 -0.25787146785E+02  0.45045681691E+02  0.00000000000E+00 0.  1.
         11    1    3    3    0    0  0.57581499691E+01 -0.20710958975E+01  0.66226312078E+01  0.90169270630E+01  0.51100000000E-03 0. -1.
        -11    1    3    3    0    0  0.13001186836E+01  0.19043356046E+00 -0.49612704224E+00  0.14045340279E+01  0.51100000000E-03 0.  1.
         12    1    3    3    0    0  0.25914365771E+02 -0.14760908470E+02  0.19660642619E+02  0.35720857218E+02  0.00000000000E+00 0. -1.
</event>
<event>
 7    1  0.5743890E-009  0.4614232E+02  0.7816164E-02  0.1320468E+00
        -11   -1    0    0    0    0  0.00000000000E+00  0.00000000000E+00  0.45593999997E+02  0.45594000000E+02  0.51100000000E-03 0. -1.
         11   -1    0    0    0    0 -0.00000000000E+00 -0.00000000000E+00 -0.45593999997E+02  0.45594000000E+02  0.51100000000E-03 0.  1.
    9900012    2    1    2    0    0 -0.25574182613E+02 -0.66825164794E+01 -0.36474905438E+02  0.46142316860E+02  0.99999917799E+01 0.  0.
         12    1    1    2    0    0  0.25574182613E+02  0.66825164794E+01  0.36474905438E+02  0.45045683140E+02  0.00000000000E+00 0. -1.
         11    1    3    3    0    0  0.14258103786E+00  0.29710313215E+00 -0.89301462177E+00  0.95187971893E+00  0.51100000000E-03 0. -1.
        -11    1    3    3    0    0 -0.11433049207E+02  0.10081753000E+01 -0.15418953007E+02  0.19221736230E+02  0.51100000000E-03 0.  1.
        -12    1    3    3    0    0 -0.14283714444E+02 -0.79877949115E+01 -0.20162937810E+02  0.25968700911E+02  0.00000000000E+00 0.  1.
</event>
<event>
 7    1  0.5743890E-009  0.4614233E+02  0.7816164E-02  0.1320468E+00
        -11   -1    0    0    0    0  0.00000000000E+00  0.00000000000E+00  0.45593999997E+02  0.45594000000E+02  0.51100000000E-03 0. -1.
         11   -1    0    0    0    0 -0.00000000000E+00 -0.00000000000E+00 -0.45593999997E+02  0.45594000000E+02  0.51100000000E-03 0.  1.
    9900012    2    1    2    0    0  0.30172615758E+01  0.63530866928E+00 -0.44940012807E+02  0.46142331666E+02  0.10000126798E+02 0.  0.
         12    1    1    2    0    0 -0.30172615758E+01 -0.63530866928E+00  0.44940012807E+02  0.45045668334E+02  0.00000000000E+00 0. -1.
         11    1    3    3    0    0  0.21255240975E+01 -0.35170516946E+01 -0.26785263641E+02  0.27098668858E+02  0.51100000000E-03 0. -1.
        -11    1    3    3    0    0  0.22249750862E+01  0.32351787273E+01 -0.10279396075E+02  0.11003766603E+02  0.51100000000E-03 0.  1.
         12    1    3    3    0    0 -0.13332376079E+01  0.91718163658E+00 -0.78753530914E+01  0.80398962050E+01  0.00000000000E+00 0. -1.
</event>
<event>
 7    1  0.5743890E-009  0.4614232E+02  0.7816164E-02  0.1320468E+00
        -11   -1    0    0    0    0  0.00000000000E+00  0.00000000000E+00  0.45593999997E+02  0.45594000000E+02  0.51100000000E-03 0. -1.
         11   -1    0    0    0    0 -0.00000000000E+00 -0.00000000000E+00 -0.45593999997E+02  0.45594000000E+02  0.51100000000E-03 0.  1.
    9900012    2    1    2    0    0  0.17590369556E+02 -0.10354244919E+02 -0.40155720967E+02  0.46142318572E+02  0.10000007394E+02 0.  0.
         12    1    1    2    0    0 -0.17590369556E+02  0.10354244919E+02  0.40155720967E+02  0.45045681428E+02  0.00000000000E+00 0. -1.
         11    1    3    3    0    0  0.15241227810E+02 -0.11570945455E+02 -0.35071902398E+02  0.39952723837E+02  0.51100000000E-03 0.  1.
        -11    1    3    3    0    0  0.25091521141E+01  0.56904144004E+00 -0.27657497423E+01  0.37774362193E+01  0.51100000000E-03 0. -1.
        -12    1    3    3    0    0 -0.16001036855E+00  0.64765909575E+00 -0.23180688264E+01  0.24121585160E+01  0.00000000000E+00 0.  1.
</event>
<event>
 7    1  0.5743890E-009  0.4614232E+02  0.7816164E-02  0.1320468E+00
        -11   -1    0    0    0    0  0.00000000000E+00  0.00000000000E+00  0.45593999997E+02  0.45594000000E+02  0.51100000000E-03 0.  1.
         11   -1    0    0    0    0 -0.00000000000E+00 -0.00000000000E+00 -0.45593999997E+02  0.45594000000E+02  0.51100000000E-03 0. -1.
    9900012    2    1    2    0    0  0.42351012898E+02 -0.13996241237E+02  0.62936957833E+01  0.46142315757E+02  0.99999817294E+01 0.  0.
        -12    1    1    2    0    0 -0.42351012898E+02  0.13996241237E+02 -0.62936957833E+01  0.45045684243E+02  0.00000000000E+00 0.  1.
         11    1    3    3    0    0  0.24157118897E+02 -0.63259879117E+01  0.31011011041E+01  0.25163492301E+02  0.51100000000E-03 0. -1.
        -11    1    3    3    0    0  0.51660419253E+01  0.37522690531E+00  0.22221195824E+01  0.56361866634E+01  0.51100000000E-03 0.  1.
        -12    1    3    3    0    0  0.13027852076E+02 -0.80454802310E+01  0.97047509671E+00  0.15342636793E+02  0.00000000000E+00 0.  1.
</event>
<event>
 7    1  0.5743890E-009  0.4614232E+02  0.7816164E-02  0.1320468E+00
        -11   -1    0    0    0    0  0.00000000000E+00  0.00000000000E+00  0.45593999997E+02  0.45594000000E+02  0.51100000000E-03 0. -1.
         11   -1    0    0    0    0 -0.00000000000E+00 -0.00000000000E+00 -0.45593999997E+02  0.45594000000E+02  0.51100000000E-03 0.  1.
    9900012    2    1    2    0    0 -0.36365571188E+02  0.26461474826E+02  0.25394785277E+01  0.46142319086E+02  0.10000012078E+02 0.  0.
        -12    1    1    2    0    0  0.36365571188E+02 -0.26461474826E+02 -0.25394785277E+01  0.45045680914E+02  0.00000000000E+00 0.  1.
         11    1    3    3    0    0 -0.13326858257E+02  0.12589802096E+02 -0.25494722042E+01  0.18509675215E+02  0.51100000000E-03 0.  1.
        -11    1    3    3    0    0 -0.73533659362E+01  0.30188439310E+01  0.24236748087E+00  0.79526191615E+01  0.51100000000E-03 0. -1.
        -12    1    3    3    0    0 -0.15685346995E+02  0.10852828800E+02  0.48465832510E+01  0.19680024709E+02  0.00000000000E+00 0.  1.
</event>
<event>
 7    1  0.5743890E-009  0.4614232E+02  0.7816164E-02  0.1320468E+00
        -11   -1    0    0    0    0  0.00000000000E+00  0.00000000000E+00  0.45593999997E+02  0.45594000000E+02  0.51100000000E-03 0. -1.
         11   -1    0    0    0    0 -0.00000000000E+00 -0.00000000000E+00 -0.45593999997E+02  0.45594000000E+02  0.51100000000E-03 0.  1.
    9900012    2    1    2    0    0  0.64212406842E+00 -0.28657814950E+02 -0.34748105563E+02  0.46142317396E+02  0.99999966699E+01 0.  0.
         12    1    1    2    0    0 -0.64212406842E+00  0.28657814950E+02  0.34748105563E+02  0.45045682604E+02  0.00000000000E+00 0. -1.
         11    1    3    3    0    0  0.93333448289E+00 -0.14092690769E+02 -0.22403111658E+02  0.26483475199E+02  0.51100000000E-03 0. -1.
        -11    1    3    3    0    0  0.81477065432E+00 -0.68049361238E+01 -0.85269498711E+01  0.10939830037E+02  0.51100000000E-03 0.  1.
         12    1    3    3    0    0 -0.11059810688E+01 -0.77601880574E+01 -0.38180440339E+01  0.87190121605E+01  0.00000000000E+00 0. -1.
</event>
<event>
 7    1  0.5743890E-009  0.4614232E+02  0.7816164E-02  0.1320468E+00
        -11   -1    0    0    0    0  0.00000000000E+00  0.00000000000E+00  0.45593999997E+02  0.45594000000E+02  0.51100000000E-03 0. -1.
         11   -1    0    0    0    0 -0.00000000000E+00 -0.00000000000E+00 -0.45593999997E+02  0.45594000000E+02  0.51100000000E-03 0.  1.
    9900012    2    1    2    0    0  0.25104429996E+02  0.32632125770E+02 -0.18276363823E+02  0.46142317496E+02  0.99999975829E+01 0.  0.
         12    1    1    2    0    0 -0.25104429996E+02 -0.32632125770E+02  0.18276363823E+02  0.45045682504E+02  0.00000000000E+00 0. -1.
         11    1    3    3    0    0  0.16034183747E+02  0.15909611345E+02 -0.10041420402E+02  0.24719241606E+02  0.51100000000E-03 0. -1.
        -11    1    3    3    0    0  0.47896937439E+01  0.42682967246E+01 -0.41253187558E+01  0.76274358855E+01  0.51100000000E-03 0.  1.
         12    1    3    3    0    0  0.42805525043E+01  0.12454217700E+02 -0.41096246648E+01  0.13795640005E+02  0.00000000000E+00 0. -1.
</event>
<event>
 7    1  0.5743890E-009  0.4614232E+02  0.7816164E-02  0.1320468E+00
        -11   -1    0    0    0    0  0.00000000000E+00  0.00000000000E+00  0.45593999997E+02  0.45594000000E+02  0.51100000000E-03 0. -1.
         11   -1    0    0    0    0 -0.00000000000E+00 -0.00000000000E+00 -0.45593999997E+02  0.45594000000E+02  0.51100000000E-03 0.  1.
    9900012    2    1    2    0    0  0.42803353462E+02 -0.17771512007E+01 -0.13922217636E+02  0.46142317877E+02  0.10000001060E+02 0.  0.
         12    1    1    2    0    0 -0.42803353462E+02  0.17771512007E+01  0.13922217636E+02  0.45045682123E+02  0.00000000000E+00 0. -1.
         11    1    3    3    0    0  0.14349503567E+01 -0.75283912749E+00 -0.15717012041E+01  0.22574530370E+01  0.51100000000E-03 0. -1.
        -11    1    3    3    0    0  0.19618814590E+02 -0.17507972067E+01 -0.20337171077E+01  0.19801494446E+02  0.51100000000E-03 0.  1.
         12    1    3    3    0    0  0.21749588515E+02  0.72648513347E+00 -0.10316799324E+02  0.24083370394E+02  0.00000000000E+00 0. -1.
</event>
<event>
 7    1  0.5743890E-009  0.4614232E+02  0.7816164E-02  0.1320468E+00
        -11   -1    0    0    0    0  0.00000000000E+00  0.00000000000E+00  0.45593999997E+02  0.45594000000E+02  0.51100000000E-03 0. -1.
         11   -1    0    0    0    0 -0.00000000000E+00 -0.00000000000E+00 -0.45593999997E+02  0.45594000000E+02  0.51100000000E-03 0.  1.
    9900012    2    1    2    0    0 -0.22942345003E+02  0.18292197231E+02 -0.34178318793E+02  0.46142321525E+02  0.10000034323E+02 0.  0.
         12    1    1    2    0    0  0.22942345003E+02 -0.18292197231E+02  0.34178318793E+02  0.45045678475E+02  0.00000000000E+00 0. -1.
         11    1    3    3    0    0 -0.10702060418E+01  0.22394420044E+01 -0.52290659033E+01  0.57882270123E+01  0.51100000000E-03 0. -1.
        -11    1    3    3    0    0 -0.56695207597E+01  0.47162616657E+01 -0.36070109600E+01  0.82095747802E+01  0.51100000000E-03 0.  1.
        -12    1    3    3    0    0 -0.16202618202E+02  0.11336493561E+02 -0.25342241929E+02  0.32144519733E+02  0.00000000000E+00 0.  1.
</event>
<event>
 7    1  0.5743890E-009  0.4614232E+02  0.7816164E-02  0.1320468E+00
        -11   -1    0    0    0    0  0.00000000000E+00  0.00000000000E+00  0.45593999997E+02  0.45594000000E+02  0.51100000000E-03 0.  1.
         11   -1    0    0    0    0 -0.00000000000E+00 -0.00000000000E+00 -0.45593999997E+02  0.45594000000E+02  0.51100000000E-03 0. -1.
    9900012    2    1    2    0    0 -0.81119581499E+01 -0.44289703117E+02  0.13159667756E+01  0.46142318345E+02  0.10000005327E+02 0.  0.
        -12    1    1    2    0    0  0.81119581499E+01  0.44289703117E+02 -0.13159667756E+01  0.45045681655E+02  0.00000000000E+00 0.  1.
         11    1    3    3    0    0 -0.74461873451E+01 -0.29803518691E+02  0.33887747686E+01  0.30905973970E+02  0.51100000000E-03 0. -1.
        -11    1    3    3    0    0  0.62019865844E+00 -0.67500220500E+01  0.92359365419E+00  0.68410868691E+01  0.51100000000E-03 0.  1.
         12    1    3    3    0    0 -0.12859694632E+01 -0.77361623754E+01 -0.29964016471E+01  0.83952575059E+01  0.00000000000E+00 0. -1.
</event>
<event>
 7    1  0.5743890E-009  0.4614232E+02  0.7816164E-02  0.1320468E+00
        -11   -1    0    0    0    0  0.00000000000E+00  0.00000000000E+00  0.45593999997E+02  0.45594000000E+02  0.51100000000E-03 0.  1.
         11   -1    0    0    0    0 -0.00000000000E+00 -0.00000000000E+00 -0.45593999997E+02  0.45594000000E+02  0.51100000000E-03 0. -1.
    9900012    2    1    2    0    0  0.45038602541E+02 -0.19603073246E+00  0.77423834558E+00  0.46142316612E+02  0.99999895216E+01 0.  0.
        -12    1    1    2    0    0 -0.45038602541E+02  0.19603073246E+00 -0.77423834558E+00  0.45045683388E+02  0.00000000000E+00 0.  1.
         11    1    3    3    0    0  0.12223502574E+02 -0.33938778463E+01  0.25633757234E+01  0.12942307266E+02  0.51100000000E-03 0. -1.
        -11    1    3    3    0    0  0.99230293768E+01  0.24845906489E+01 -0.30370524043E-01  0.10229400048E+02  0.51100000000E-03 0.  1.
         12    1    3    3    0    0  0.22892070590E+02  0.71325646502E+00 -0.17587668537E+01  0.22970609298E+02  0.00000000000E+00 0. -1.
</event>
<event>
 7    1  0.5743890E-009  0.4614232E+02  0.7816164E-02  0.1320468E+00
        -11   -1    0    0    0    0  0.00000000000E+00  0.00000000000E+00  0.45593999997E+02  0.45594000000E+02  0.51100000000E-03 0. -1.
         11   -1    0    0    0    0 -0.00000000000E+00 -0.00000000000E+00 -0.45593999997E+02  0.45594000000E+02  0.51100000000E-03 0.  1.
    9900012    2    1    2    0    0  0.11814800955E+02 -0.33187692563E+01  0.43341777757E+02  0.46142318185E+02  0.10000003868E+02 0.  0.
        -12    1    1    2    0    0 -0.11814800955E+02  0.33187692563E+01 -0.43341777757E+02  0.45045681815E+02  0.00000000000E+00 0.  1.
         11    1    3    3    0    0  0.23891033636E+01  0.16826152491E+01  0.52305119919E+01  0.59914326264E+01  0.51100000000E-03 0. -1.
        -11    1    3    3    0    0  0.22314240020E+01 -0.48481389196E+01  0.18784703986E+02  0.19528154243E+02  0.51100000000E-03 0.  1.
        -12    1    3    3    0    0  0.71942735894E+01 -0.15324558571E+00  0.19326561780E+02  0.20622731316E+02  0.00000000000E+00 0.  1.
</event>
<event>
 7    1  0.5743890E-009  0.4614232E+02  0.7816164E-02  0.1320468E+00
        -11   -1    0    0    0    0  0.00000000000E+00  0.00000000000E+00  0.45593999997E+02  0.45594000000E+02  0.51100000000E-03 0. -1.
         11   -1    0    0    0    0 -0.00000000000E+00 -0.00000000000E+00 -0.45593999997E+02  0.45594000000E+02  0.51100000000E-03 0.  1.
    9900012    2    1    2    0    0 -0.11252570424E+02  0.48907151547E-01  0.43617550680E+02  0.46142318072E+02  0.10000002831E+02 0.  0.
        -12    1    1    2    0    0  0.11252570424E+02 -0.48907151547E-01 -0.43617550680E+02  0.45045681928E+02  0.00000000000E+00 0.  1.
         11    1    3    3    0    0  0.63982946426E+00  0.24394144167E+01  0.60231807479E+01  0.65298415771E+01  0.51100000000E-03 0. -1.
        -11    1    3    3    0    0 -0.31211556133E+01  0.28017724898E-01  0.13533232349E+02  0.13888512355E+02  0.51100000000E-03 0.  1.
        -12    1    3    3    0    0 -0.87712442745E+01 -0.24185249900E+01  0.24061137583E+02  0.25723964139E+02  0.00000000000E+00 0.  1.
</event>
<event>
 7    1  0.5743890E-009  0.4614231E+02  0.7816164E-02  0.1320468E+00
        -11   -1    0    0    0    0  0.00000000000E+00  0.00000000000E+00  0.45593999997E+02  0.45594000000E+02  0.51100000000E-03 0.  1.
         11   -1    0    0    0    0 -0.00000000000E+00 -0.00000000000E+00 -0.45593999997E+02  0.45594000000E+02  0.51100000000E-03 0. -1.
    9900012    2    1    2    0    0  0.39666231257E+02 -0.52550739933E+01 -0.20690292124E+02  0.46142313270E+02  0.99999590478E+01 0.  0.
         12    1    1    2    0    0 -0.39666231257E+02  0.52550739933E+01  0.20690292124E+02  0.45045686730E+02  0.00000000000E+00 0. -1.
         11    1    3    3    0    0  0.87112499541E+01 -0.14024894849E+01 -0.12904141337E+01  0.89172877836E+01  0.51100000000E-03 0. -1.
        -11    1    3    3    0    0  0.16258103137E+02 -0.46040095541E+01 -0.85205065403E+01  0.18924107735E+02  0.51100000000E-03 0.  1.
         12    1    3    3    0    0  0.14696878165E+02  0.75142504566E+00 -0.10879371450E+02  0.18300917752E+02  0.00000000000E+00 0. -1.
</event>
<event>
 7    1  0.8829701E-009  0.4614232E+02  0.7816164E-02  0.1320468E+00
        -11   -1    0    0    0    0  0.00000000000E+00  0.00000000000E+00  0.45593999997E+02  0.45594000000E+02  0.51100000000E-03 0. -1.
         11   -1    0    0    0    0 -0.00000000000E+00 -0.00000000000E+00 -0.45593999997E+02  0.45594000000E+02  0.51100000000E-03 0.  1.
    9900012    2    1    2    0    0  0.27118737958E+01 -0.27251437031E+02  0.35764763022E+02  0.46142319255E+02  0.10000013624E+02 0.  0.
        -12    1    1    2    0    0 -0.27118737958E+01  0.27251437031E+02 -0.35764763022E+02  0.45045680745E+02  0.00000000000E+00 0.  1.
         11    1    3    3    0    0  0.13158230918E+01 -0.18538039786E+02  0.25268628851E+02  0.31367083285E+02  0.51100000000E-03 0. -1.
        -11    1    3    3    0    0 -0.18646097452E+01 -0.55334238492E+01  0.56627376126E+01  0.81340117118E+01  0.51100000000E-03 0.  1.
        -12    1    3    3    0    0  0.32606604493E+01 -0.31799733955E+01  0.48333965581E+01  0.66412242583E+01  0.00000000000E+00 0.  1.
</event>
<event>
 7    1  0.5743890E-009  0.4614232E+02  0.7816164E-02  0.1320468E+00
        -11   -1    0    0    0    0  0.00000000000E+00  0.00000000000E+00  0.45593999997E+02  0.45594000000E+02  0.51100000000E-03 0. -1.
         11   -1    0    0    0    0 -0.00000000000E+00 -0.00000000000E+00 -0.45593999997E+02  0.45594000000E+02  0.51100000000E-03 0.  1.
    9900012    2    1    2    0    0  0.26632537323E+02 -0.29156063788E+02 -0.21673610391E+02  0.46142317773E+02  0.10000000112E+02 0.  0.
         12    1    1    2    0    0 -0.26632537323E+02  0.29156063788E+02  0.21673610391E+02  0.45045682227E+02  0.00000000000E+00 0. -1.
         11    1    3    3    0    0  0.20186422824E+01 -0.20883047614E-01 -0.26836163254E+01  0.33581467522E+01  0.51100000000E-03 0. -1.
        -11    1    3    3    0    0  0.79333641112E+01 -0.10611596615E+02 -0.47419450805E+01  0.14072323627E+02  0.51100000000E-03 0.  1.
         12    1    3    3    0    0  0.16680530929E+02 -0.18523584125E+02 -0.14248048985E+02  0.28711847395E+02  0.00000000000E+00 0. -1.
</event>
<event>
 7    1  0.5743890E-009  0.4614232E+02  0.7816164E-02  0.1320468E+00
        -11   -1    0    0    0    0  0.00000000000E+00  0.00000000000E+00  0.45593999997E+02  0.45594000000E+02  0.51100000000E-03 0. -1.
         11   -1    0    0    0    0 -0.00000000000E+00 -0.00000000000E+00 -0.45593999997E+02  0.45594000000E+02  0.51100000000E-03 0.  1.
    9900012    2    1    2    0    0 -0.18105385645E+02  0.11828259029E+02 -0.39514563379E+02  0.46142318520E+02  0.10000006918E+02 0.  0.
         12    1    1    2    0    0  0.18105385645E+02 -0.11828259029E+02  0.39514563379E+02  0.45045681480E+02  0.00000000000E+00 0. -1.
         11    1    3    3    0    0 -0.11362168445E+01 -0.20664046262E+00 -0.59194466795E+01  0.60310478568E+01  0.51100000000E-03 0. -1.
        -11    1    3    3    0    0 -0.12831611313E+02  0.50655442530E+01 -0.20438703983E+02  0.24658682207E+02  0.51100000000E-03 0.  1.
         12    1    3    3    0    0 -0.41375574880E+01  0.69693552389E+01 -0.13156412716E+02  0.15452588456E+02  0.00000000000E+00 0. -1.
</event>
<event>
 7    1  0.5743890E-009  0.4614232E+02  0.7816164E-02  0.1320468E+00
        -11   -1    0    0    0    0  0.00000000000E+00  0.00000000000E+00  0.45593999997E+02  0.45594000000E+02  0.51100000000E-03 0. -1.
         11   -1    0    0    0    0 -0.00000000000E+00 -0.00000000000E+00 -0.45593999997E+02  0.45594000000E+02  0.51100000000E-03 0.  1.
    9900012    2    1    2    0    0  0.68322746581E+01 -0.27375927246E+02  0.35113989116E+02  0.46142316509E+02  0.99999885802E+01 0.  0.
        -12    1    1    2    0    0 -0.68322746581E+01  0.27375927246E+02 -0.35113989116E+02  0.45045683491E+02  0.00000000000E+00 0.  1.
         11    1    3    3    0    0  0.34534395180E+01 -0.85119965534E+01  0.14034833816E+02  0.16773696382E+02  0.51100000000E-03 0. -1.
        -11    1    3    3    0    0 -0.52973143693E+00 -0.13899466403E+02  0.16411319845E+02  0.21512954261E+02  0.51100000000E-03 0.  1.
         12    1    3    3    0    0  0.39085665770E+01 -0.49644642887E+01  0.46678354549E+01  0.78556658658E+01  0.00000000000E+00 0. -1.
</event>
<event>
 7    1  0.5743890E-009  0.4614232E+02  0.7816164E-02  0.1320468E+00
        -11   -1    0    0    0    0  0.00000000000E+00  0.00000000000E+00  0.45593999997E+02  0.45594000000E+02  0.51100000000E-03 0. -1.
         11   -1    0    0    0    0 -0.00000000000E+00 -0.00000000000E+00 -0.45593999997E+02  0.45594000000E+02  0.51100000000E-03 0.  1.
    9900012    2    1    2    0    0 -0.36142019508E+02 -0.18382256554E+02 -0.19620412298E+02  0.46142317533E+02  0.99999979241E+01 0.  0.
         12    1    1    2    0    0  0.36142019508E+02  0.18382256554E+02  0.19620412298E+02  0.45045682467E+02  0.00000000000E+00 0. -1.
         11    1    3    3    0    0 -0.11109331084E+01 -0.27625511512E+01 -0.54615661936E+00  0.30272344720E+01  0.51100000000E-03 0. -1.
        -11    1    3    3    0    0 -0.20408810644E+02 -0.10886939832E+02 -0.94877676320E+01  0.25001254883E+02  0.51100000000E-03 0.  1.
         12    1    3    3    0    0 -0.14622275756E+02 -0.47327655704E+01 -0.95864880467E+01  0.18113828179E+02  0.00000000000E+00 0. -1.
</event>
<event>
 7    1  0.5743890E-009  0.4614232E+02  0.7816164E-02  0.1320468E+00
        -11   -1    0    0    0    0  0.00000000000E+00  0.00000000000E+00  0.45593999997E+02  0.45594000000E+02  0.51100000000E-03 0. -1.
         11   -1    0    0    0    0 -0.00000000000E+00 -0.00000000000E+00 -0.45593999997E+02  0.45594000000E+02  0.51100000000E-03 0.  1.
    9900012    2    1    2    0    0 -0.18524756780E+01  0.31460361941E+02  0.32185827351E+02  0.46142317389E+02  0.99999966090E+01 0.  0.
        -12    1    1    2    0    0  0.18524756780E+01 -0.31460361941E+02 -0.32185827351E+02  0.45045682611E+02  0.00000000000E+00 0.  1.
         11    1    3    3    0    0 -0.78116941499E+00  0.64527239371E+01  0.85988753628E+01  0.10779078329E+02  0.51100000000E-03 0. -1.
        -11    1    3    3    0    0  0.13509925310E+01  0.16433894601E+02  0.19568607245E+02  0.25589616299E+02  0.51100000000E-03 0.  1.
         12    1    3    3    0    0 -0.24222987940E+01  0.85737434033E+01  0.40183447428E+01  0.97736227605E+01  0.00000000000E+00 0. -1.
</event>
<event>
 7    1  0.5743890E-009  0.4614232E+02  0.7816164E-02  0.1320468E+00
        -11   -1    0    0    0    0  0.00000000000E+00  0.00000000000E+00  0.45593999997E+02  0.45594000000E+02  0.51100000000E-03 0. -1.
         11   -1    0    0    0    0 -0.00000000000E+00 -0.00000000000E+00 -0.45593999997E+02  0.45594000000E+02  0.51100000000E-03 0.  1.
    9900012    2    1    2    0    0 -0.65006959391E+01 -0.19819314639E+02 -0.39925547465E+02  0.46142316291E+02  0.99999865905E+01 0.  0.
         12    1    1    2    0    0  0.65006959391E+01  0.19819314639E+02  0.39925547465E+02  0.45045683709E+02  0.00000000000E+00 0. -1.
         11    1    3    3    0    0 -0.28533773639E+01 -0.35637335012E+01 -0.11024141441E+02  0.11932043145E+02  0.51100000000E-03 0. -1.
        -11    1    3    3    0    0 -0.37634979346E+01 -0.87178501158E+01 -0.22113499056E+02  0.24065985708E+02  0.51100000000E-03 0.  1.
         12    1    3    3    0    0  0.11617935945E+00 -0.75377310216E+01 -0.67879069688E+01  0.10144287438E+02  0.00000000000E+00 0. -1.
</event>
<event>
 7    1  0.5743890E-009  0.4614232E+02  0.7816164E-02  0.1320468E+00
        -11   -1    0    0    0    0  0.00000000000E+00  0.00000000000E+00  0.45593999997E+02  0.45594000000E+02  0.51100000000E-03 0. -1.
         11   -1    0    0    0    0 -0.00000000000E+00 -0.00000000000E+00 -0.45593999997E+02  0.45594000000E+02  0.51100000000E-03 0.  1.
    9900012    2    1    2    0    0  0.10649598423E+02  0.20527204613E+02  0.38656608548E+02  0.46142318074E+02  0.10000002849E+02 0.  0.
        -12    1    1    2    0    0 -0.10649598423E+02 -0.20527204613E+02 -0.38656608548E+02  0.45045681926E+02  0.00000000000E+00 0.  1.
         11    1    3    3    0    0  0.60288537258E+01  0.56599487539E+01  0.10565126628E+02  0.13416556864E+02  0.51100000000E-03 0.  1.
        -11    1    3    3    0    0  0.59377016749E+01  0.96202940631E+01  0.20387200115E+02  0.23311891555E+02  0.51100000000E-03 0. -1.
         12    1    3    3    0    0 -0.13169569778E+01  0.52469617959E+01  0.77042818044E+01  0.94138696555E+01  0.00000000000E+00 0. -1.
</event>
<event>
 7    1  0.5743890E-009  0.4614232E+02  0.7816164E-02  0.1320468E+00
        -11   -1    0    0    0    0  0.00000000000E+00  0.00000000000E+00  0.45593999997E+02  0.45594000000E+02  0.51100000000E-03 0. -1.
         11   -1    0    0    0    0 -0.00000000000E+00 -0.00000000000E+00 -0.45593999997E+02  0.45594000000E+02  0.51100000000E-03 0.  1.
    9900012    2    1    2    0    0 -0.26336147512E+01 -0.44924028834E+02 -0.20021996930E+01  0.46142322106E+02  0.10000039617E+02 0.  0.
         12    1    1    2    0    0  0.26336147512E+01  0.44924028834E+02  0.20021996930E+01  0.45045677894E+02  0.00000000000E+00 0. -1.
         11    1    3    3    0    0  0.87634857765E+00 -0.13331286189E+02  0.75644449055E+00  0.13381456827E+02  0.51100000000E-03 0. -1.
        -11    1    3    3    0    0 -0.37792676717E+01 -0.30268713848E+02 -0.41927394943E+01  0.30790533721E+02  0.51100000000E-03 0.  1.
         12    1    3    3    0    0  0.26930434291E+00 -0.13240287979E+01  0.14340953108E+01  0.19703315577E+01  0.00000000000E+00 0. -1.
</event>
<event>
 7    1  0.5743890E-009  0.4614232E+02  0.7816164E-02  0.1320468E+00
        -11   -1    0    0    0    0  0.00000000000E+00  0.00000000000E+00  0.45593999997E+02  0.45594000000E+02  0.51100000000E-03 0. -1.
         11   -1    0    0    0    0 -0.00000000000E+00 -0.00000000000E+00 -0.45593999997E+02  0.45594000000E+02  0.51100000000E-03 0.  1.
    9900012    2    1    2    0    0 -0.36916674462E+02  0.14103844258E+02  0.21618377015E+02  0.46142317622E+02  0.99999987295E+01 0.  0.
        -12    1    1    2    0    0  0.36916674462E+02 -0.14103844258E+02 -0.21618377015E+02  0.45045682378E+02  0.00000000000E+00 0.  1.
         11    1    3    3    0    0 -0.10746811906E+02  0.60138679593E+01  0.80650755224E+01  0.14720938062E+02  0.51100000000E-03 0. -1.
        -11    1    3    3    0    0 -0.55462000484E+01 -0.10134794499E+01  0.41240371728E+01  0.69853531361E+01  0.51100000000E-03 0.  1.
        -12    1    3    3    0    0 -0.20623662507E+02  0.91034557484E+01  0.94292643200E+01  0.24436026424E+02  0.00000000000E+00 0.  1.
</event>
<event>
 7    1  0.5743890E-009  0.4614232E+02  0.7816164E-02  0.1320468E+00
        -11   -1    0    0    0    0  0.00000000000E+00  0.00000000000E+00  0.45593999997E+02  0.45594000000E+02  0.51100000000E-03 0. -1.
         11   -1    0    0    0    0 -0.00000000000E+00 -0.00000000000E+00 -0.45593999997E+02  0.45594000000E+02  0.51100000000E-03 0.  1.
    9900012    2    1    2    0    0 -0.89489688737E+01 -0.42899902815E+02 -0.10422471663E+02  0.46142316289E+02  0.99999865793E+01 0.  0.
         12    1    1    2    0    0  0.89489688737E+01  0.42899902815E+02  0.10422471663E+02  0.45045683711E+02  0.00000000000E+00 0. -1.
         11    1    3    3    0    0 -0.57352550228E+01 -0.23270183176E+02 -0.35152695717E+01  0.24222958029E+02  0.51100000000E-03 0. -1.
        -11    1    3    3    0    0 -0.48861229805E+01 -0.15122760747E+02 -0.43637877214E+01  0.16480738270E+02  0.51100000000E-03 0.  1.
        -12    1    3    3    0    0  0.16724091296E+01 -0.45069588908E+01 -0.25434143699E+01  0.54386199901E+01  0.00000000000E+00 0.  1.
</event>
<event>
 7    1  0.5743890E-009  0.4614232E+02  0.7816164E-02  0.1320468E+00
        -11   -1    0    0    0    0  0.00000000000E+00  0.00000000000E+00  0.45593999997E+02  0.45594000000E+02  0.51100000000E-03 0. -1.
         11   -1    0    0    0    0 -0.00000000000E+00 -0.00000000000E+00 -0.45593999997E+02  0.45594000000E+02  0.51100000000E-03 0.  1.
    9900012    2    1    2    0    0  0.29301141443E+01 -0.14394322570E+02 -0.42583228857E+02  0.46142317954E+02  0.10000001755E+02 0.  0.
         12    1    1    2    0    0 -0.29301141443E+01  0.14394322570E+02  0.42583228857E+02  0.45045682046E+02  0.00000000000E+00 0. -1.
         11    1    3    3    0    0  0.12917839166E+00  0.12548131660E+01 -0.41309456803E+01  0.43192540575E+01  0.51100000000E-03 0. -1.
        -11    1    3    3    0    0  0.23528372842E+00 -0.53340229488E+01 -0.17977228110E+02  0.18753343436E+02  0.51100000000E-03 0.  1.
        -12    1    3    3    0    0  0.25656520242E+01 -0.10315112787E+02 -0.20475055067E+02  0.23069720460E+02  0.00000000000E+00 0.  1.
</event>
<event>
 7    1  0.5743890E-009  0.4614233E+02  0.7816164E-02  0.1320468E+00
        -11   -1    0    0    0    0  0.00000000000E+00  0.00000000000E+00  0.45593999997E+02  0.45594000000E+02  0.51100000000E-03 0. -1.
         11   -1    0    0    0    0 -0.00000000000E+00 -0.00000000000E+00 -0.45593999997E+02  0.45594000000E+02  0.51100000000E-03 0.  1.
    9900012    2    1    2    0    0 -0.26469513590E+02 -0.40124358895E+01 -0.36226757533E+02  0.46142325925E+02  0.10000074446E+02 0.  0.
         12    1    1    2    0    0  0.26469513590E+02  0.40124358895E+01  0.36226757533E+02  0.45045674075E+02  0.00000000000E+00 0. -1.
         11    1    3    3    0    0 -0.10517201974E+02 -0.38581805310E+01 -0.11046574158E+02  0.15732892146E+02  0.51100000000E-03 0. -1.
        -11    1    3    3    0    0 -0.51795714901E+01 -0.19259498060E+01 -0.49383226586E+01  0.74110913109E+01  0.51100000000E-03 0.  1.
         12    1    3    3    0    0 -0.10772740126E+02  0.17716944476E+01 -0.20241860716E+02  0.22998342469E+02  0.00000000000E+00 0. -1.
</event>
<event>
 7    1  0.5743890E-009  0.4614232E+02  0.7816164E-02  0.1320468E+00
        -11   -1    0    0    0    0  0.00000000000E+00  0.00000000000E+00  0.45593999997E+02  0.45594000000E+02  0.51100000000E-03 0.  1.
         11   -1    0    0    0    0 -0.00000000000E+00 -0.00000000000E+00 -0.45593999997E+02  0.45594000000E+02  0.51100000000E-03 0. -1.
    9900012    2    1    2    0    0 -0.23085377378E+02  0.37402615105E+02  0.98601780711E+01  0.46142318997E+02  0.10000011271E+02 0.  0.
         12    1    1    2    0    0  0.23085377378E+02 -0.37402615105E+02 -0.98601780711E+01  0.45045681003E+02  0.00000000000E+00 0. -1.
         11    1    3    3    0    0 -0.31380798197E+01  0.25995292397E+01 -0.13101842598E+01  0.42803831929E+01  0.51100000000E-03 0. -1.
        -11    1    3    3    0    0 -0.16664175462E+02  0.25497881197E+02  0.79239476494E+01  0.31474205883E+02  0.51100000000E-03 0.  1.
         12    1    3    3    0    0 -0.32831220964E+01  0.93052046685E+01  0.32464146815E+01  0.10387729921E+02  0.00000000000E+00 0. -1.
</event>
<event>
 7    1  0.5743890E-009  0.4614232E+02  0.7816164E-02  0.1320468E+00
        -11   -1    0    0    0    0  0.00000000000E+00  0.00000000000E+00  0.45593999997E+02  0.45594000000E+02  0.51100000000E-03 0. -1.
         11   -1    0    0    0    0 -0.00000000000E+00 -0.00000000000E+00 -0.45593999997E+02  0.45594000000E+02  0.51100000000E-03 0.  1.
    9900012    2    1    2    0    0 -0.23611286500E+02  0.24136329242E+02  0.29817075191E+02  0.46142320824E+02  0.10000027933E+02 0.  0.
        -12    1    1    2    0    0  0.23611286500E+02 -0.24136329242E+02 -0.29817075191E+02  0.45045679176E+02  0.00000000000E+00 0.  1.
         11    1    3    3    0    0 -0.15218680430E+01  0.39052926203E+00  0.90842522139E+00  0.18148917567E+01  0.51100000000E-03 0. -1.
        -11    1    3    3    0    0 -0.17810601733E+02  0.13169246350E+02  0.20141740198E+02  0.29938875763E+02  0.51100000000E-03 0.  1.
        -12    1    3    3    0    0 -0.42788167236E+01  0.10576553630E+02  0.87669097719E+01  0.14388553304E+02  0.00000000000E+00 0.  1.
</event>
<event>
 7    1  0.5743890E-009  0.4614232E+02  0.7816164E-02  0.1320468E+00
        -11   -1    0    0    0    0  0.00000000000E+00  0.00000000000E+00  0.45593999997E+02  0.45594000000E+02  0.51100000000E-03 0. -1.
         11   -1    0    0    0    0 -0.00000000000E+00 -0.00000000000E+00 -0.45593999997E+02  0.45594000000E+02  0.51100000000E-03 0.  1.
    9900012    2    1    2    0    0 -0.34237186442E+02 -0.69139849328E+01  0.28445128346E+02  0.46142318190E+02  0.10000003911E+02 0.  0.
        -12    1    1    2    0    0  0.34237186442E+02  0.69139849328E+01 -0.28445128346E+02  0.45045681810E+02  0.00000000000E+00 0.  1.
         11    1    3    3    0    0 -0.14842442704E+02 -0.59715211714E+01  0.14558919312E+02  0.21631442446E+02  0.51100000000E-03 0. -1.
        -11    1    3    3    0    0 -0.65962498902E+01  0.15382768038E+01  0.71041054745E+01  0.98155551546E+01  0.51100000000E-03 0.  1.
        -12    1    3    3    0    0 -0.12798493848E+02 -0.24807405652E+01  0.67821035595E+01  0.14695320589E+02  0.00000000000E+00 0.  1.
</event>
<event>
 7    1  0.5743890E-009  0.4614232E+02  0.7816164E-02  0.1320468E+00
        -11   -1    0    0    0    0  0.00000000000E+00  0.00000000000E+00  0.45593999997E+02  0.45594000000E+02  0.51100000000E-03 0. -1.
         11   -1    0    0    0    0 -0.00000000000E+00 -0.00000000000E+00 -0.45593999997E+02  0.45594000000E+02  0.51100000000E-03 0.  1.
    9900012    2    1    2    0    0  0.18334057292E+02 -0.15253445773E+02  0.38213978957E+02  0.46142318159E+02  0.10000003633E+02 0.  0.
        -12    1    1    2    0    0 -0.18334057292E+02  0.15253445773E+02 -0.38213978957E+02  0.45045681841E+02  0.00000000000E+00 0.  1.
         11    1    3    3    0    0  0.29983212715E+01 -0.39803678109E+01  0.12167862086E+02  0.13148769006E+02  0.51100000000E-03 0. -1.
        -11    1    3    3    0    0  0.27058925374E+00  0.85030440038E+00  0.15006994881E+01  0.17459482616E+01  0.51100000000E-03 0.  1.
        -12    1    3    3    0    0  0.15065146767E+02 -0.12123382363E+02  0.24545417383E+02  0.31247600892E+02  0.00000000000E+00 0.  1.
</event>
<event>
 7    1  0.5743890E-009  0.4614232E+02  0.7816164E-02  0.1320468E+00
        -11   -1    0    0    0    0  0.00000000000E+00  0.00000000000E+00  0.45593999997E+02  0.45594000000E+02  0.51100000000E-03 0. -1.
         11   -1    0    0    0    0 -0.00000000000E+00 -0.00000000000E+00 -0.45593999997E+02  0.45594000000E+02  0.51100000000E-03 0.  1.
    9900012    2    1    2    0    0  0.36492170153E+02  0.18747539465E+02 -0.18600124343E+02  0.46142319363E+02  0.10000014605E+02 0.  0.
         12    1    1    2    0    0 -0.36492170153E+02 -0.18747539465E+02  0.18600124343E+02  0.45045680637E+02  0.00000000000E+00 0. -1.
         11    1    3    3    0    0  0.30110897314E+02  0.13754482512E+02 -0.18480659620E+02  0.37912883120E+02  0.51100000000E-03 0. -1.
        -11    1    3    3    0    0  0.59314522407E+00  0.18782653876E-01 -0.68385734183E-01  0.59736999815E+00  0.51100000000E-03 0.  1.
         12    1    3    3    0    0  0.57881276147E+01  0.49742742998E+01 -0.51078988939E-01  0.76320662443E+01  0.00000000000E+00 0. -1.
</event>
<event>
 7    1  0.5743890E-009  0.4614232E+02  0.7816164E-02  0.1320468E+00
        -11   -1    0    0    0    0  0.00000000000E+00  0.00000000000E+00  0.45593999997E+02  0.45594000000E+02  0.51100000000E-03 0. -1.
         11   -1    0    0    0    0 -0.00000000000E+00 -0.00000000000E+00 -0.45593999997E+02  0.45594000000E+02  0.51100000000E-03 0.  1.
    9900012    2    1    2    0    0  0.37231404723E+02  0.14802732652E+02 -0.20586772869E+02  0.46142316425E+02  0.99999878147E+01 0.  0.
         12    1    1    2    0    0 -0.37231404723E+02 -0.14802732652E+02  0.20586772869E+02  0.45045683575E+02  0.00000000000E+00 0. -1.
         11    1    3    3    0    0  0.49284498644E+01  0.86275990212E+00  0.33169873150E+00  0.50143790268E+01  0.51100000000E-03 0. -1.
        -11    1    3    3    0    0  0.25877191459E+00 -0.24463292288E+00 -0.32197352488E+00  0.48007851710E+00  0.51100000000E-03 0.  1.
        -12    1    3    3    0    0  0.32044182944E+02  0.14184605672E+02 -0.20596498076E+02  0.40647858881E+02  0.00000000000E+00 0.  1.
</event>
<event>
 7    1  0.5743890E-009  0.4614232E+02  0.7816164E-02  0.1320468E+00
        -11   -1    0    0    0    0  0.00000000000E+00  0.00000000000E+00  0.45593999997E+02  0.45594000000E+02  0.51100000000E-03 0. -1.
         11   -1    0    0    0    0 -0.00000000000E+00 -0.00000000000E+00 -0.45593999997E+02  0.45594000000E+02  0.51100000000E-03 0.  1.
    9900012    2    1    2    0    0  0.34186671256E+02 -0.17497888837E+02  0.23541642542E+02  0.46142317200E+02  0.99999948873E+01 0.  0.
        -12    1    1    2    0    0 -0.34186671256E+02  0.17497888837E+02 -0.23541642542E+02  0.45045682800E+02  0.00000000000E+00 0.  1.
         11    1    3    3    0    0  0.20422702817E+02 -0.12191144922E+02  0.10027510950E+02  0.25812047206E+02  0.51100000000E-03 0. -1.
        -11    1    3    3    0    0  0.57877231945E+01 -0.24738021687E+01  0.34424970641E+01  0.71741357141E+01  0.51100000000E-03 0.  1.
         12    1    3    3    0    0  0.79762452441E+01 -0.28329417467E+01  0.10071634528E+02  0.13156134280E+02  0.00000000000E+00 0. -1.
</event>
<event>
 7    1  0.5743890E-009  0.4614232E+02  0.7816164E-02  0.1320468E+00
        -11   -1    0    0    0    0  0.00000000000E+00  0.00000000000E+00  0.45593999997E+02  0.45594000000E+02  0.51100000000E-03 0. -1.
         11   -1    0    0    0    0 -0.00000000000E+00 -0.00000000000E+00 -0.45593999997E+02  0.45594000000E+02  0.51100000000E-03 0.  1.
    9900012    2    1    2    0    0  0.79529005564E+01 -0.61198204843E+01 -0.43913694899E+02  0.46142318412E+02  0.10000005937E+02 0.  0.
         12    1    1    2    0    0 -0.79529005564E+01  0.61198204843E+01  0.43913694899E+02  0.45045681588E+02  0.00000000000E+00 0. -1.
         11    1    3    3    0    0 -0.45623723602E+00 -0.67913765826E-01 -0.47771426072E+01  0.47993600038E+01  0.51100000000E-03 0. -1.
        -11    1    3    3    0    0  0.36013282627E+01  0.48986378034E+00 -0.22934507334E+02  0.23220705388E+02  0.51100000000E-03 0.  1.
        -12    1    3    3    0    0  0.48078095298E+01 -0.65417704988E+01 -0.16202044958E+02  0.18122253021E+02  0.00000000000E+00 0.  1.
</event>
<event>
 7    1  0.5743890E-009  0.4614232E+02  0.7816164E-02  0.1320468E+00
        -11   -1    0    0    0    0  0.00000000000E+00  0.00000000000E+00  0.45593999997E+02  0.45594000000E+02  0.51100000000E-03 0. -1.
         11   -1    0    0    0    0 -0.00000000000E+00 -0.00000000000E+00 -0.45593999997E+02  0.45594000000E+02  0.51100000000E-03 0.  1.
    9900012    2    1    2    0    0 -0.16677789216E+02  0.20227856833E+01  0.41795611781E+02  0.46142317863E+02  0.10000000930E+02 0.  0.
        -12    1    1    2    0    0  0.16677789216E+02 -0.20227856833E+01 -0.41795611781E+02  0.45045682137E+02  0.00000000000E+00 0.  1.
         11    1    3    3    0    0 -0.59402322796E+01  0.43279452805E+00  0.13716859849E+02  0.14954127023E+02  0.51100000000E-03 0. -1.
        -11    1    3    3    0    0 -0.90844603981E+01  0.45200828581E+01  0.19709234006E+02  0.22167825223E+02  0.51100000000E-03 0.  1.
         12    1    3    3    0    0 -0.16530965385E+01 -0.29300917028E+01  0.83695179258E+01  0.90203656169E+01  0.00000000000E+00 0. -1.
</event>
<event>
 7    1  0.5743890E-009  0.4614232E+02  0.7816164E-02  0.1320468E+00
        -11   -1    0    0    0    0  0.00000000000E+00  0.00000000000E+00  0.45593999997E+02  0.45594000000E+02  0.51100000000E-03 0. -1.
         11   -1    0    0    0    0 -0.00000000000E+00 -0.00000000000E+00 -0.45593999997E+02  0.45594000000E+02  0.51100000000E-03 0.  1.
    9900012    2    1    2    0    0  0.93746565393E+01 -0.17310618372E+02  0.40516310236E+02  0.46142322196E+02  0.10000040442E+02 0.  0.
        -12    1    1    2    0    0 -0.93746565393E+01  0.17310618372E+02 -0.40516310236E+02  0.45045677804E+02  0.00000000000E+00 0.  1.
         11    1    3    3    0    0  0.44404825086E+01 -0.53552326421E+01  0.11809734581E+02  0.13706430341E+02  0.51100000000E-03 0. -1.
        -11    1    3    3    0    0  0.53580525451E+01 -0.10483891020E+02  0.17295931232E+02  0.20922952360E+02  0.51100000000E-03 0.  1.
        -12    1    3    3    0    0 -0.42387851435E+00 -0.14714947096E+01  0.11410644423E+02  0.11512939495E+02  0.00000000000E+00 0.  1.
</event>
<event>
 7    1  0.5743890E-009  0.4614232E+02  0.7816164E-02  0.1320468E+00
        -11   -1    0    0    0    0  0.00000000000E+00  0.00000000000E+00  0.45593999997E+02  0.45594000000E+02  0.51100000000E-03 0.  1.
         11   -1    0    0    0    0 -0.00000000000E+00 -0.00000000000E+00 -0.45593999997E+02  0.45594000000E+02  0.51100000000E-03 0. -1.
    9900012    2    1    2    0    0 -0.38597240530E+02 -0.77216286689E+01  0.21903032325E+02  0.46142319288E+02  0.10000013922E+02 0.  0.
        -12    1    1    2    0    0  0.38597240530E+02  0.77216286689E+01 -0.21903032325E+02  0.45045680712E+02  0.00000000000E+00 0.  1.
         11    1    3    3    0    0 -0.96417174173E+01  0.14980008909E+01  0.29775923922E+01  0.10201606645E+02  0.51100000000E-03 0. -1.
        -11    1    3    3    0    0 -0.93994996742E+01 -0.25572703742E+01  0.77776187556E+01  0.12465214786E+02  0.51100000000E-03 0.  1.
         12    1    3    3    0    0 -0.19556023438E+02 -0.66623591856E+01  0.11147821177E+02  0.23475497857E+02  0.00000000000E+00 0. -1.
</event>
<event>
 7    1  0.5743890E-009  0.4614232E+02  0.7816164E-02  0.1320468E+00
        -11   -1    0    0    0    0  0.00000000000E+00  0.00000000000E+00  0.45593999997E+02  0.45594000000E+02  0.51100000000E-03 0. -1.
         11   -1    0    0    0    0 -0.00000000000E+00 -0.00000000000E+00 -0.45593999997E+02  0.45594000000E+02  0.51100000000E-03 0.  1.
    9900012    2    1    2    0    0 -0.32901193165E+02  0.18586441621E+02  0.24518750877E+02  0.46142317983E+02  0.10000002024E+02 0.  0.
        -12    1    1    2    0    0  0.32901193165E+02 -0.18586441621E+02 -0.24518750877E+02  0.45045682017E+02  0.00000000000E+00 0.  1.
         11    1    3    3    0    0 -0.45115020230E+01  0.29863730837E+01  0.56275451614E+01  0.78064934191E+01  0.51100000000E-03 0. -1.
        -11    1    3    3    0    0 -0.38585903997E+01 -0.23326352843E+00  0.39921105473E+01  0.55569846706E+01  0.51100000000E-03 0.  1.
        -12    1    3    3    0    0 -0.24531100742E+02  0.15833332066E+02  0.14899095169E+02  0.32778839893E+02  0.00000000000E+00 0.  1.
</event>
<event>
 7    1  0.5743890E-009  0.4614232E+02  0.7816164E-02  0.1320468E+00
        -11   -1    0    0    0    0  0.00000000000E+00  0.00000000000E+00  0.45593999997E+02  0.45594000000E+02  0.51100000000E-03 0. -1.
         11   -1    0    0    0    0 -0.00000000000E+00 -0.00000000000E+00 -0.45593999997E+02  0.45594000000E+02  0.51100000000E-03 0.  1.
    9900012    2    1    2    0    0 -0.43652603624E+01 -0.13502029240E+02 -0.42752230399E+02  0.46142317680E+02  0.99999992574E+01 0.  0.
         12    1    1    2    0    0  0.43652603624E+01  0.13502029240E+02  0.42752230399E+02  0.45045682320E+02  0.00000000000E+00 0. -1.
         11    1    3    3    0    0 -0.82219624477E+00 -0.62974992035E+01 -0.26920219669E+02  0.27659225046E+02  0.51100000000E-03 0. -1.
        -11    1    3    3    0    0  0.13404499678E+01 -0.19231984236E+01 -0.38064114745E+01  0.44703765912E+01  0.51100000000E-03 0.  1.
        -12    1    3    3    0    0 -0.48835140853E+01 -0.52813316124E+01 -0.12025599256E+02  0.14012716042E+02  0.00000000000E+00 0.  1.
</event>
<event>
 7    1  0.5743890E-009  0.4614231E+02  0.7816164E-02  0.1320468E+00
        -11   -1    0    0    0    0  0.00000000000E+00  0.00000000000E+00  0.45593999997E+02  0.45594000000E+02  0.51100000000E-03 0.  1.
         11   -1    0    0    0    0 -0.00000000000E+00 -0.00000000000E+00 -0.45593999997E+02  0.45594000000E+02  0.51100000000E-03 0. -1.
    9900012    2    1    2    0    0  0.26276889745E+02  0.24949756556E+02  0.26760954944E+02  0.46142312122E+02  0.99999485823E+01 0.  0.
        -12    1    1    2    0    0 -0.26276889745E+02 -0.24949756556E+02 -0.26760954944E+02  0.45045687878E+02  0.00000000000E+00 0.  1.
         11    1    3    3    0    0  0.42102321412E+01  0.85728698528E+00  0.13362767356E+01  0.44996256992E+01  0.51100000000E-03 0. -1.
        -11    1    3    3    0    0  0.45922277068E+01  0.32801484521E+01  0.60116122158E+01  0.82454478880E+01  0.51100000000E-03 0.  1.
         12    1    3    3    0    0  0.17474429897E+02  0.20812321119E+02  0.19413065992E+02  0.33397238535E+02  0.00000000000E+00 0. -1.
</event>
<event>
 7    1  0.5743890E-009  0.4614232E+02  0.7816164E-02  0.1320468E+00
        -11   -1    0    0    0    0  0.00000000000E+00  0.00000000000E+00  0.45593999997E+02  0.45594000000E+02  0.51100000000E-03 0. -1.
         11   -1    0    0    0    0 -0.00000000000E+00 -0.00000000000E+00 -0.45593999997E+02  0.45594000000E+02  0.51100000000E-03 0.  1.
    9900012    2    1    2    0    0 -0.22064324757E+02 -0.37851758101E+00  0.39270037668E+02  0.46142316955E+02  0.99999926497E+01 0.  0.
        -12    1    1    2    0    0  0.22064324757E+02  0.37851758101E+00 -0.39270037668E+02  0.45045683045E+02  0.00000000000E+00 0.  1.
         11    1    3    3    0    0 -0.15420136506E+01  0.21730752980E+01  0.27752111045E+01  0.38473184538E+01  0.51100000000E-03 0. -1.
        -11    1    3    3    0    0 -0.60524634715E-01  0.58307678225E+00  0.49198456971E+00  0.76530441222E+00  0.51100000000E-03 0.  1.
         12    1    3    3    0    0 -0.20461786472E+02 -0.31346696613E+01  0.36002841994E+02  0.41529694089E+02  0.00000000000E+00 0. -1.
</event>
<event>
 7    1  0.5743890E-009  0.4614232E+02  0.7816164E-02  0.1320468E+00
        -11   -1    0    0    0    0  0.00000000000E+00  0.00000000000E+00  0.45593999997E+02  0.45594000000E+02  0.51100000000E-03 0. -1.
         11   -1    0    0    0    0 -0.00000000000E+00 -0.00000000000E+00 -0.45593999997E+02  0.45594000000E+02  0.51100000000E-03 0.  1.
    9900012    2    1    2    0    0 -0.21996262149E+02  0.35429920641E+01 -0.39150032934E+02  0.46142318519E+02  0.10000006912E+02 0.  0.
         12    1    1    2    0    0  0.21996262149E+02 -0.35429920641E+01  0.39150032934E+02  0.45045681481E+02  0.00000000000E+00 0. -1.
         11    1    3    3    0    0 -0.73797882839E+01 -0.25224292709E+01 -0.13165425144E+02  0.15302037250E+02  0.51100000000E-03 0. -1.
        -11    1    3    3    0    0 -0.80171842453E+01  0.71382159835E+00 -0.14011663960E+02  0.16158945253E+02  0.51100000000E-03 0.  1.
        -12    1    3    3    0    0 -0.65992896201E+01  0.53515997367E+01 -0.11972943831E+02  0.14681336016E+02  0.00000000000E+00 0.  1.
</event>
<event>
 7    1  0.5743890E-009  0.4614232E+02  0.7816164E-02  0.1320468E+00
        -11   -1    0    0    0    0  0.00000000000E+00  0.00000000000E+00  0.45593999997E+02  0.45594000000E+02  0.51100000000E-03 0. -1.
         11   -1    0    0    0    0 -0.00000000000E+00 -0.00000000000E+00 -0.45593999997E+02  0.45594000000E+02  0.51100000000E-03 0.  1.
    9900012    2    1    2    0    0 -0.14871886091E+01 -0.78919332900E+01 -0.44324025048E+02  0.46142317216E+02  0.99999950324E+01 0.  0.
         12    1    1    2    0    0  0.14871886091E+01  0.78919332900E+01  0.44324025048E+02  0.45045682784E+02  0.00000000000E+00 0. -1.
         11    1    3    3    0    0  0.67308361027E+00 -0.34055130481E+01 -0.74155836541E+01  0.81878838450E+01  0.51100000000E-03 0. -1.
        -11    1    3    3    0    0  0.22116302217E+01 -0.28939682701E+01 -0.23043787053E+02  0.23329862464E+02  0.51100000000E-03 0.  1.
        -12    1    3    3    0    0 -0.43719024411E+01 -0.15924519718E+01 -0.13864654341E+02  0.14624570907E+02  0.00000000000E+00 0.  1.
</event>
<event>
 7    1  0.6680724E-009  0.4614232E+02  0.7816164E-02  0.1320468E+00
        -11   -1    0    0    0    0  0.00000000000E+00  0.00000000000E+00  0.45593999997E+02  0.45594000000E+02  0.51100000000E-03 0. -1.
         11   -1    0    0    0    0 -0.00000000000E+00 -0.00000000000E+00 -0.45593999997E+02  0.45594000000E+02  0.51100000000E-03 0.  1.
    9900012    2    1    2    0    0  0.47909575590E+01 -0.11511169942E+02  0.43285714184E+02  0.46142319184E+02  0.10000012974E+02 0.  0.
        -12    1    1    2    0    0 -0.47909575590E+01  0.11511169942E+02 -0.43285714184E+02  0.45045680816E+02  0.00000000000E+00 0.  1.
         11    1    3    3    0    0  0.16686876838E+01 -0.23174172193E+01  0.33330954573E+01  0.43891305225E+01  0.51100000000E-03 0. -1.
        -11    1    3    3    0    0  0.14496125662E+01 -0.94564789798E-01  0.11216950727E+01  0.18353526061E+01  0.51100000000E-03 0.  1.
         12    1    3    3    0    0  0.16726573089E+01 -0.90991879326E+01  0.38830923654E+02  0.39917836055E+02  0.00000000000E+00 0. -1.
</event>
<event>
 7    1  0.5743890E-009  0.4614232E+02  0.7816164E-02  0.1320468E+00
        -11   -1    0    0    0    0  0.00000000000E+00  0.00000000000E+00  0.45593999997E+02  0.45594000000E+02  0.51100000000E-03 0. -1.
         11   -1    0    0    0    0 -0.00000000000E+00 -0.00000000000E+00 -0.45593999997E+02  0.45594000000E+02  0.51100000000E-03 0.  1.
    9900012    2    1    2    0    0  0.15470126051E+02  0.41891674757E+02  0.59056089452E+01  0.46142318398E+02  0.10000005810E+02 0.  0.
         12    1    1    2    0    0 -0.15470126051E+02 -0.41891674757E+02 -0.59056089452E+01  0.45045681602E+02  0.00000000000E+00 0. -1.
         11    1    3    3    0    0  0.19945770386E+01  0.10433961411E+02  0.37258801895E+01  0.11257356338E+02  0.51100000000E-03 0. -1.
        -11    1    3    3    0    0  0.74685565236E+01  0.10610128441E+02 -0.72630709169E+00  0.12995448600E+02  0.51100000000E-03 0.  1.
        -12    1    3    3    0    0  0.60069924891E+01  0.20847584905E+02  0.29060358474E+01  0.21889513460E+02  0.00000000000E+00 0.  1.
</event>
<event>
 7    1  0.5743890E-009  0.4614233E+02  0.7816164E-02  0.1320468E+00
        -11   -1    0    0    0    0  0.00000000000E+00  0.00000000000E+00  0.45593999997E+02  0.45594000000E+02  0.51100000000E-03 0.  1.
         11   -1    0    0    0    0 -0.00000000000E+00 -0.00000000000E+00 -0.45593999997E+02  0.45594000000E+02  0.51100000000E-03 0. -1.
    9900012    2    1    2    0    0  0.16683727616E+02 -0.40317605628E+02  0.11191815456E+02  0.46142325137E+02  0.10000067256E+02 0.  0.
        -12    1    1    2    0    0 -0.16683727616E+02  0.40317605628E+02 -0.11191815456E+02  0.45045674863E+02  0.00000000000E+00 0.  1.
         11    1    3    3    0    0  0.12735803628E+02 -0.29607403118E+02  0.11571282342E+02  0.34244614011E+02  0.51100000000E-03 0. -1.
        -11    1    3    3    0    0 -0.36359094964E+00 -0.73382795795E-01 -0.19445449884E+00  0.41880332689E+00  0.51100000000E-03 0.  1.
         12    1    3    3    0    0  0.43115149374E+01 -0.10636819714E+02 -0.18501238708E+00  0.11478907799E+02  0.00000000000E+00 0. -1.
</event>
<event>
 7    1  0.5743890E-009  0.4614232E+02  0.7816164E-02  0.1320468E+00
        -11   -1    0    0    0    0  0.00000000000E+00  0.00000000000E+00  0.45593999997E+02  0.45594000000E+02  0.51100000000E-03 0. -1.
         11   -1    0    0    0    0 -0.00000000000E+00 -0.00000000000E+00 -0.45593999997E+02  0.45594000000E+02  0.51100000000E-03 0.  1.
    9900012    2    1    2    0    0 -0.74527970613E+01  0.18669126211E+02 -0.40311698509E+02  0.46142317697E+02  0.99999994120E+01 0.  0.
         12    1    1    2    0    0  0.74527970613E+01 -0.18669126211E+02  0.40311698509E+02  0.45045682303E+02  0.00000000000E+00 0. -1.
         11    1    3    3    0    0 -0.25132174565E+01  0.91629777347E+01 -0.13144064231E+02  0.16218595738E+02  0.51100000000E-03 0. -1.
        -11    1    3    3    0    0  0.95583942767E+00  0.24704693256E+01 -0.11169308335E+02  0.11479124385E+02  0.51100000000E-03 0.  1.
        -12    1    3    3    0    0 -0.58954190325E+01  0.70356791511E+01 -0.15998325943E+02  0.18444597574E+02  0.00000000000E+00 0.  1.
</event>
<event>
 7    1  0.5743890E-009  0.4614232E+02  0.7816164E-02  0.1320468E+00
        -11   -1    0    0    0    0  0.00000000000E+00  0.00000000000E+00  0.45593999997E+02  0.45594000000E+02  0.51100000000E-03 0. -1.
         11   -1    0    0    0    0 -0.00000000000E+00 -0.00000000000E+00 -0.45593999997E+02  0.45594000000E+02  0.51100000000E-03 0.  1.
    9900012    2    1    2    0    0 -0.39054084182E+01 -0.20916603086E+02  0.39703360747E+02  0.46142319251E+02  0.10000013582E+02 0.  0.
        -12    1    1    2    0    0  0.39054084182E+01  0.20916603086E+02 -0.39703360747E+02  0.45045680749E+02  0.00000000000E+00 0.  1.
         11    1    3    3    0    0 -0.87036704647E+00 -0.65151176016E+01  0.68644513917E+01  0.95039459872E+01  0.51100000000E-03 0. -1.
        -11    1    3    3    0    0  0.20211953447E+01 -0.27861178533E+01  0.52192152900E+01  0.62520310154E+01  0.51100000000E-03 0.  1.
         12    1    3    3    0    0 -0.50562367164E+01 -0.11615367631E+02  0.27619694066E+02  0.30386342248E+02  0.00000000000E+00 0. -1.
</event>
<event>
 7    1  0.5743890E-009  0.4614232E+02  0.7816164E-02  0.1320468E+00
        -11   -1    0    0    0    0  0.00000000000E+00  0.00000000000E+00  0.45593999997E+02  0.45594000000E+02  0.51100000000E-03 0. -1.
         11   -1    0    0    0    0 -0.00000000000E+00 -0.00000000000E+00 -0.45593999997E+02  0.45594000000E+02  0.51100000000E-03 0.  1.
    9900012    2    1    2    0    0 -0.44775542438E+02 -0.26793870109E+01  0.41334216307E+01  0.46142317746E+02  0.99999998635E+01 0.  0.
        -12    1    1    2    0    0  0.44775542438E+02  0.26793870109E+01 -0.41334216307E+01  0.45045682254E+02  0.00000000000E+00 0.  1.
         11    1    3    3    0    0 -0.53682558474E+01  0.20832695703E+01  0.18285319991E+01  0.60416647108E+01  0.51100000000E-03 0.  1.
        -11    1    3    3    0    0 -0.58758305085E+01  0.82631101933E+00 -0.69640434993E+00  0.59743747242E+01  0.51100000000E-03 0. -1.
        -12    1    3    3    0    0 -0.33531456082E+02 -0.55889676006E+01  0.30012939815E+01  0.34126278311E+02  0.00000000000E+00 0.  1.
</event>
<event>
 7    1  0.5743890E-009  0.4614232E+02  0.7816164E-02  0.1320468E+00
        -11   -1    0    0    0    0  0.00000000000E+00  0.00000000000E+00  0.45593999997E+02  0.45594000000E+02  0.51100000000E-03 0. -1.
         11   -1    0    0    0    0 -0.00000000000E+00 -0.00000000000E+00 -0.45593999997E+02  0.45594000000E+02  0.51100000000E-03 0.  1.
    9900012    2    1    2    0    0  0.15238493923E+02  0.37701738624E+01  0.42221885412E+02  0.46142317457E+02  0.99999972256E+01 0.  0.
        -12    1    1    2    0    0 -0.15238493923E+02 -0.37701738624E+01 -0.42221885412E+02  0.45045682543E+02  0.00000000000E+00 0.  1.
         11    1    3    3    0    0  0.12630519449E+02  0.32420977177E+01  0.34086991806E+02  0.36496085130E+02  0.51100000000E-03 0. -1.
        -11    1    3    3    0    0 -0.89519835779E+00 -0.95439413034E+00  0.28361113008E+01  0.31234237348E+01  0.51100000000E-03 0.  1.
         12    1    3    3    0    0  0.35031728321E+01  0.14824702750E+01  0.52987823054E+01  0.65228085920E+01  0.00000000000E+00 0. -1.
</event>
<event>
 7    1  0.5743890E-009  0.4614232E+02  0.7816164E-02  0.1320468E+00
        -11   -1    0    0    0    0  0.00000000000E+00  0.00000000000E+00  0.45593999997E+02  0.45594000000E+02  0.51100000000E-03 0. -1.
         11   -1    0    0    0    0 -0.00000000000E+00 -0.00000000000E+00 -0.45593999997E+02  0.45594000000E+02  0.51100000000E-03 0.  1.
    9900012    2    1    2    0    0  0.33947322570E+02  0.92077432569E+01 -0.28140899346E+02  0.46142318059E+02  0.10000002715E+02 0.  0.
         12    1    1    2    0    0 -0.33947322570E+02 -0.92077432569E+01  0.28140899346E+02  0.45045681941E+02  0.00000000000E+00 0. -1.
         11    1    3    3    0    0  0.87591572847E+01  0.37499391854E+01 -0.36231176813E+01  0.10193716801E+02  0.51100000000E-03 0. -1.
        -11    1    3    3    0    0  0.49537091885E+01  0.31829488756E+01 -0.63499459910E+01  0.86598044215E+01  0.51100000000E-03 0.  1.
         12    1    3    3    0    0  0.20234456097E+02  0.22748551959E+01 -0.18167835674E+02  0.27288796836E+02  0.00000000000E+00 0. -1.
</event>
<event>
 7    1  0.5743890E-009  0.4614232E+02  0.7816164E-02  0.1320468E+00
        -11   -1    0    0    0    0  0.00000000000E+00  0.00000000000E+00  0.45593999997E+02  0.45594000000E+02  0.51100000000E-03 0. -1.
         11   -1    0    0    0    0 -0.00000000000E+00 -0.00000000000E+00 -0.45593999997E+02  0.45594000000E+02  0.51100000000E-03 0.  1.
    9900012    2    1    2    0    0  0.24367648644E+02 -0.19842096242E+02 -0.32274175712E+02  0.46142317614E+02  0.99999986627E+01 0.  0.
         12    1    1    2    0    0 -0.24367648644E+02  0.19842096242E+02  0.32274175712E+02  0.45045682386E+02  0.00000000000E+00 0. -1.
         11    1    3    3    0    0  0.58790306201E+01 -0.73787910433E+00 -0.38601186378E+01  0.70716322560E+01  0.51100000000E-03 0. -1.
        -11    1    3    3    0    0  0.16156422630E+02 -0.15309784670E+02 -0.22308995970E+02  0.31513660535E+02  0.51100000000E-03 0.  1.
         12    1    3    3    0    0  0.23321953936E+01 -0.37944324670E+01 -0.61050611037E+01  0.75570248233E+01  0.00000000000E+00 0. -1.
</event>
<event>
 7    1  0.5743890E-009  0.4614232E+02  0.7816164E-02  0.1320468E+00
        -11   -1    0    0    0    0  0.00000000000E+00  0.00000000000E+00  0.45593999997E+02  0.45594000000E+02  0.51100000000E-03 0. -1.
         11   -1    0    0    0    0 -0.00000000000E+00 -0.00000000000E+00 -0.45593999997E+02  0.45594000000E+02  0.51100000000E-03 0.  1.
    9900012    2    1    2    0    0 -0.12366299902E+02  0.16987607537E+02 -0.39844815495E+02  0.46142317578E+02  0.99999983271E+01 0.  0.
         12    1    1    2    0    0  0.12366299902E+02 -0.16987607537E+02  0.39844815495E+02  0.45045682422E+02  0.00000000000E+00 0. -1.
         11    1    3    3    0    0  0.51943691529E-01  0.22693128690E+01 -0.67358621802E+00  0.23677410540E+01  0.51100000000E-03 0. -1.
        -11    1    3    3    0    0 -0.34775759499E+01  0.32143544703E+01 -0.69219403459E+01  0.83868270259E+01  0.51100000000E-03 0.  1.
        -12    1    3    3    0    0 -0.89406676435E+01  0.11503940198E+02 -0.32249288931E+02  0.35387749498E+02  0.00000000000E+00 0.  1.
</event>
<event>
 7    1  0.5743890E-009  0.4614232E+02  0.7816164E-02  0.1320468E+00
        -11   -1    0    0    0    0  0.00000000000E+00  0.00000000000E+00  0.45593999997E+02  0.45594000000E+02  0.51100000000E-03 0. -1.
         11   -1    0    0    0    0 -0.00000000000E+00 -0.00000000000E+00 -0.45593999997E+02  0.45594000000E+02  0.51100000000E-03 0.  1.
    9900012    2    1    2    0    0  0.80595883124E+01 -0.20376704108E+02 -0.39356656904E+02  0.46142317891E+02  0.10000001180E+02 0.  0.
         12    1    1    2    0    0 -0.80595883124E+01  0.20376704108E+02  0.39356656904E+02  0.45045682109E+02  0.00000000000E+00 0. -1.
         11    1    3    3    0    0  0.41364794382E+01 -0.11970382567E+02 -0.21857857398E+02  0.25261956599E+02  0.51100000000E-03 0.  1.
        -11    1    3    3    0    0  0.25544266971E+01 -0.32045992851E+01 -0.13688339152E+02  0.14288638190E+02  0.51100000000E-03 0. -1.
         12    1    3    3    0    0  0.13686821771E+01 -0.52017222560E+01 -0.38104603537E+01  0.65917231008E+01  0.00000000000E+00 0. -1.
</event>
<event>
 7    1  0.5743890E-009  0.4614232E+02  0.7816164E-02  0.1320468E+00
        -11   -1    0    0    0    0  0.00000000000E+00  0.00000000000E+00  0.45593999997E+02  0.45594000000E+02  0.51100000000E-03 0. -1.
         11   -1    0    0    0    0 -0.00000000000E+00 -0.00000000000E+00 -0.45593999997E+02  0.45594000000E+02  0.51100000000E-03 0.  1.
    9900012    2    1    2    0    0  0.21098067352E+02  0.14131869235E+02 -0.37205849965E+02  0.46142318235E+02  0.10000004319E+02 0.  0.
         12    1    1    2    0    0 -0.21098067352E+02 -0.14131869235E+02  0.37205849965E+02  0.45045681765E+02  0.00000000000E+00 0. -1.
         11    1    3    3    0    0  0.68492228866E+01  0.55374875234E+01 -0.77973796430E+01  0.11763279805E+02  0.51100000000E-03 0. -1.
        -11    1    3    3    0    0  0.10172314247E+02  0.86185300998E+01 -0.19093260743E+02  0.23287499743E+02  0.51100000000E-03 0.  1.
         12    1    3    3    0    0  0.40765302180E+01 -0.24148388187E-01 -0.10315209580E+02  0.11091538687E+02  0.00000000000E+00 0. -1.
</event>
<event>
 7    1  0.8409115E-009  0.4614232E+02  0.7816164E-02  0.1320468E+00
        -11   -1    0    0    0    0  0.00000000000E+00  0.00000000000E+00  0.45593999997E+02  0.45594000000E+02  0.51100000000E-03 0. -1.
         11   -1    0    0    0    0 -0.00000000000E+00 -0.00000000000E+00 -0.45593999997E+02  0.45594000000E+02  0.51100000000E-03 0.  1.
    9900012    2    1    2    0    0  0.24656005236E+02 -0.15272794501E+01  0.37667789556E+02  0.46142317113E+02  0.99999940917E+01 0.  0.
        -12    1    1    2    0    0 -0.24656005236E+02  0.15272794501E+01 -0.37667789556E+02  0.45045682887E+02  0.00000000000E+00 0.  1.
         11    1    3    3    0    0  0.14092115399E+02 -0.20468296688E+01  0.20620543135E+02  0.25059609485E+02  0.51100000000E-03 0. -1.
        -11    1    3    3    0    0  0.70869491041E+01 -0.26636259015E+01  0.90471822762E+01  0.11797086842E+02  0.51100000000E-03 0.  1.
        -12    1    3    3    0    0  0.34769407338E+01  0.31831761202E+01  0.80000641442E+01  0.92856207864E+01  0.00000000000E+00 0.  1.
</event>
<event>
 7    1  0.5743890E-009  0.4614232E+02  0.7816164E-02  0.1320468E+00
        -11   -1    0    0    0    0  0.00000000000E+00  0.00000000000E+00  0.45593999997E+02  0.45594000000E+02  0.51100000000E-03 0.  1.
         11   -1    0    0    0    0 -0.00000000000E+00 -0.00000000000E+00 -0.45593999997E+02  0.45594000000E+02  0.51100000000E-03 0. -1.
    9900012    2    1    2    0    0  0.37710249869E+02 -0.24350981735E+02  0.37523738531E+01  0.46142316897E+02  0.99999921246E+01 0.  0.
         12    1    1    2    0    0 -0.37710249869E+02  0.24350981735E+02 -0.37523738531E+01  0.45045683103E+02  0.00000000000E+00 0. -1.
         11    1    3    3    0    0  0.10600994248E+02 -0.64605282746E+01 -0.23216266222E+01  0.12629705264E+02  0.51100000000E-03 0. -1.
        -11    1    3    3    0    0  0.14318563760E+02 -0.80484179548E+01  0.56430558208E+01  0.17367854760E+02  0.51100000000E-03 0.  1.
        -12    1    3    3    0    0  0.12790691862E+02 -0.98420355057E+01  0.43094465450E+00  0.16144756873E+02  0.00000000000E+00 0.  1.
</event>
<event>
 7    1  0.5743890E-009  0.4614232E+02  0.7816164E-02  0.1320468E+00
        -11   -1    0    0    0    0  0.00000000000E+00  0.00000000000E+00  0.45593999997E+02  0.45594000000E+02  0.51100000000E-03 0. -1.
         11   -1    0    0    0    0 -0.00000000000E+00 -0.00000000000E+00 -0.45593999997E+02  0.45594000000E+02  0.51100000000E-03 0.  1.
    9900012    2    1    2    0    0 -0.22176830639E+02  0.95271332662E+01  0.38033345956E+02  0.46142317742E+02  0.99999998253E+01 0.  0.
        -12    1    1    2    0    0  0.22176830639E+02 -0.95271332662E+01 -0.38033345956E+02  0.45045682258E+02  0.00000000000E+00 0.  1.
         11    1    3    3    0    0 -0.10847174850E+02  0.93306035189E+01  0.19217549602E+02  0.23959039572E+02  0.51100000000E-03 0.  1.
        -11    1    3    3    0    0 -0.62971063863E+01 -0.87163848513E+00  0.81024028423E+01  0.10298652075E+02  0.51100000000E-03 0. -1.
        -12    1    3    3    0    0 -0.50325494027E+01  0.10681682324E+01  0.10713393512E+02  0.11884626094E+02  0.00000000000E+00 0.  1.
</event>
<event>
 7    1  0.5743890E-009  0.4614232E+02  0.7816164E-02  0.1320468E+00
        -11   -1    0    0    0    0  0.00000000000E+00  0.00000000000E+00  0.45593999997E+02  0.45594000000E+02  0.51100000000E-03 0. -1.
         11   -1    0    0    0    0 -0.00000000000E+00 -0.00000000000E+00 -0.45593999997E+02  0.45594000000E+02  0.51100000000E-03 0.  1.
    9900012    2    1    2    0    0  0.40464509649E+02 -0.24640234303E+01  0.19638370753E+02  0.46142316983E+02  0.99999929068E+01 0.  0.
        -12    1    1    2    0    0 -0.40464509649E+02  0.24640234303E+01 -0.19638370753E+02  0.45045683017E+02  0.00000000000E+00 0.  1.
         11    1    3    3    0    0  0.12350397095E+02  0.79858165368E+00  0.31207713251E+01  0.12763590991E+02  0.51100000000E-03 0. -1.
        -11    1    3    3    0    0  0.18739296688E+01 -0.19011622677E+01  0.21767374223E+01  0.34444471892E+01  0.51100000000E-03 0.  1.
        -12    1    3    3    0    0  0.26240182886E+02 -0.13614428163E+01  0.14340862005E+02  0.29934278803E+02  0.00000000000E+00 0.  1.
</event>
<event>
 7    1  0.5743890E-009  0.4614232E+02  0.7816164E-02  0.1320468E+00
        -11   -1    0    0    0    0  0.00000000000E+00  0.00000000000E+00  0.45593999997E+02  0.45594000000E+02  0.51100000000E-03 0. -1.
         11   -1    0    0    0    0 -0.00000000000E+00 -0.00000000000E+00 -0.45593999997E+02  0.45594000000E+02  0.51100000000E-03 0.  1.
    9900012    2    1    2    0    0  0.40606893964E+02 -0.33300028073E+01  0.19212098171E+02  0.46142317940E+02  0.10000001631E+02 0.  0.
        -12    1    1    2    0    0 -0.40606893964E+02  0.33300028073E+01 -0.19212098171E+02  0.45045682060E+02  0.00000000000E+00 0.  1.
         11    1    3    3    0    0  0.15640837160E+02  0.68652730907E+00  0.61126471978E+01  0.16806890338E+02  0.51100000000E-03 0. -1.
        -11    1    3    3    0    0 -0.47405433145E-01 -0.80478554028E+00  0.12112399070E+01  0.14550015170E+01  0.51100000000E-03 0.  1.
        -12    1    3    3    0    0  0.25013462237E+02 -0.32117445761E+01  0.11888211066E+02  0.27880426085E+02  0.00000000000E+00 0.  1.
</event>
<event>
 7    1  0.5743890E-009  0.4614232E+02  0.7816164E-02  0.1320468E+00
        -11   -1    0    0    0    0  0.00000000000E+00  0.00000000000E+00  0.45593999997E+02  0.45594000000E+02  0.51100000000E-03 0. -1.
         11   -1    0    0    0    0 -0.00000000000E+00 -0.00000000000E+00 -0.45593999997E+02  0.45594000000E+02  0.51100000000E-03 0.  1.
    9900012    2    1    2    0    0  0.34991390849E+02 -0.50760977531E+01 -0.27909663293E+02  0.46142317553E+02  0.99999981043E+01 0.  0.
         12    1    1    2    0    0 -0.34991390849E+02  0.50760977531E+01  0.27909663293E+02  0.45045682447E+02  0.00000000000E+00 0. -1.
         11    1    3    3    0    0  0.18737598034E+02 -0.67878354593E+00 -0.13616116195E+02  0.23172331511E+02  0.51100000000E-03 0. -1.
        -11    1    3    3    0    0  0.14492387462E+02 -0.15670366116E+01 -0.12390800627E+02  0.19131566547E+02  0.51100000000E-03 0.  1.
         12    1    3    3    0    0  0.17614053534E+01 -0.28302775956E+01 -0.19027464713E+01  0.38384194952E+01  0.00000000000E+00 0. -1.
</event>
<event>
 7    1  0.5743890E-009  0.4614232E+02  0.7816164E-02  0.1320468E+00
        -11   -1    0    0    0    0  0.00000000000E+00  0.00000000000E+00  0.45593999997E+02  0.45594000000E+02  0.51100000000E-03 0. -1.
         11   -1    0    0    0    0 -0.00000000000E+00 -0.00000000000E+00 -0.45593999997E+02  0.45594000000E+02  0.51100000000E-03 0.  1.
    9900012    2    1    2    0    0  0.16687504190E+02  0.17306508708E+02  0.38093640364E+02  0.46142317899E+02  0.10000001256E+02 0.  0.
        -12    1    1    2    0    0 -0.16687504190E+02 -0.17306508708E+02 -0.38093640364E+02  0.45045682101E+02  0.00000000000E+00 0.  1.
         11    1    3    3    0    0  0.82855514158E+01  0.99683672796E+01  0.25988665331E+02  0.29041856594E+02  0.51100000000E-03 0. -1.
        -11    1    3    3    0    0 -0.53689004201E+00  0.70595166417E+00  0.48984594839E+00  0.10131969126E+01  0.51100000000E-03 0.  1.
        -12    1    3    3    0    0  0.89388428166E+01  0.66321897647E+01  0.11615129085E+02  0.16087264392E+02  0.00000000000E+00 0.  1.
</event>
<event>
 7    1  0.5743890E-009  0.4614232E+02  0.7816164E-02  0.1320468E+00
        -11   -1    0    0    0    0  0.00000000000E+00  0.00000000000E+00  0.45593999997E+02  0.45594000000E+02  0.51100000000E-03 0. -1.
         11   -1    0    0    0    0 -0.00000000000E+00 -0.00000000000E+00 -0.45593999997E+02  0.45594000000E+02  0.51100000000E-03 0.  1.
    9900012    2    1    2    0    0 -0.11029620251E+02 -0.15151634034E+01  0.43648198546E+02  0.46142317862E+02  0.10000000919E+02 0.  0.
        -12    1    1    2    0    0  0.11029620251E+02  0.15151634034E+01 -0.43648198546E+02  0.45045682138E+02  0.00000000000E+00 0.  1.
         11    1    3    3    0    0 -0.39916675460E+01  0.13800259645E+00  0.14670470459E+02  0.15204445346E+02  0.51100000000E-03 0. -1.
        -11    1    3    3    0    0 -0.47820194530E+01  0.28666704541E+01  0.12147787035E+02  0.13366160243E+02  0.51100000000E-03 0.  1.
         12    1    3    3    0    0 -0.22559332519E+01 -0.45198364539E+01  0.16829941051E+02  0.17571712273E+02  0.00000000000E+00 0. -1.
</event>
<event>
 7    1  0.5743890E-009  0.4614232E+02  0.7816164E-02  0.1320468E+00
        -11   -1    0    0    0    0  0.00000000000E+00  0.00000000000E+00  0.45593999997E+02  0.45594000000E+02  0.51100000000E-03 0. -1.
         11   -1    0    0    0    0 -0.00000000000E+00 -0.00000000000E+00 -0.45593999997E+02  0.45594000000E+02  0.51100000000E-03 0.  1.
    9900012    2    1    2    0    0  0.77802529590E+01 -0.25377017941E+02  0.36394891451E+02  0.46142317639E+02  0.99999988825E+01 0.  0.
        -12    1    1    2    0    0 -0.77802529590E+01  0.25377017941E+02 -0.36394891451E+02  0.45045682361E+02  0.00000000000E+00 0.  1.
         11    1    3    3    0    0  0.14840819267E+01 -0.85977842059E+01  0.51899821260E+01  0.10151862250E+02  0.51100000000E-03 0. -1.
        -11    1    3    3    0    0  0.23903890128E+01 -0.57481504545E+01  0.10443098116E+02  0.12157857204E+02  0.51100000000E-03 0.  1.
         12    1    3    3    0    0  0.39057820196E+01 -0.11031083281E+02  0.20761811209E+02  0.23832598184E+02  0.00000000000E+00 0. -1.
</event>
<event>
 7    1  0.5743890E-009  0.4614231E+02  0.7816164E-02  0.1320468E+00
        -11   -1    0    0    0    0  0.00000000000E+00  0.00000000000E+00  0.45593999997E+02  0.45594000000E+02  0.51100000000E-03 0. -1.
         11   -1    0    0    0    0 -0.00000000000E+00 -0.00000000000E+00 -0.45593999997E+02  0.45594000000E+02  0.51100000000E-03 0.  1.
    9900012    2    1    2    0    0  0.19167765222E+02  0.84542791684E+00  0.40755317054E+02  0.46142313856E+02  0.99999643943E+01 0.  0.
        -12    1    1    2    0    0 -0.19167765222E+02 -0.84542791684E+00 -0.40755317054E+02  0.45045686144E+02  0.00000000000E+00 0.  1.
         11    1    3    3    0    0  0.44037852277E-01 -0.64138498394E+00  0.45449793522E+01  0.45902234808E+01  0.51100000000E-03 0. -1.
        -11    1    3    3    0    0  0.10052154344E+02  0.88732991620E+00  0.11930282342E+02  0.15625773528E+02  0.51100000000E-03 0.  1.
         12    1    3    3    0    0  0.90715730263E+01  0.59948298458E+00  0.24280055359E+02  0.25926316848E+02  0.00000000000E+00 0. -1.
</event>
<event>
 7    1  0.5743890E-009  0.4614232E+02  0.7816164E-02  0.1320468E+00
        -11   -1    0    0    0    0  0.00000000000E+00  0.00000000000E+00  0.45593999997E+02  0.45594000000E+02  0.51100000000E-03 0. -1.
         11   -1    0    0    0    0 -0.00000000000E+00 -0.00000000000E+00 -0.45593999997E+02  0.45594000000E+02  0.51100000000E-03 0.  1.
    9900012    2    1    2    0    0  0.92372436092E+01  0.10983085045E+02  0.42698463415E+02  0.46142316471E+02  0.99999882333E+01 0.  0.
        -12    1    1    2    0    0 -0.92372436092E+01 -0.10983085045E+02 -0.42698463415E+02  0.45045683529E+02  0.00000000000E+00 0.  1.
         11    1    3    3    0    0  0.96407521657E+00 -0.63310252537E+00  0.10440454387E+02  0.10503968197E+02  0.51100000000E-03 0. -1.
        -11    1    3    3    0    0  0.24901420151E+01  0.29764302515E+01  0.42112553613E+01  0.57266583866E+01  0.51100000000E-03 0.  1.
         12    1    3    3    0    0  0.57830263776E+01  0.86397573192E+01  0.28046753667E+02  0.29911689887E+02  0.00000000000E+00 0. -1.
</event>
<event>
 7    1  0.5980431E-009  0.4614232E+02  0.7816164E-02  0.1320468E+00
        -11   -1    0    0    0    0  0.00000000000E+00  0.00000000000E+00  0.45593999997E+02  0.45594000000E+02  0.51100000000E-03 0. -1.
         11   -1    0    0    0    0 -0.00000000000E+00 -0.00000000000E+00 -0.45593999997E+02  0.45594000000E+02  0.51100000000E-03 0.  1.
    9900012    2    1    2    0    0  0.22871936325E+02  0.84270919539E+01  0.37881024508E+02  0.46142319099E+02  0.10000012201E+02 0.  0.
        -12    1    1    2    0    0 -0.22871936325E+02 -0.84270919539E+01 -0.37881024508E+02  0.45045680901E+02  0.00000000000E+00 0.  1.
         11    1    3    3    0    0  0.16847228805E+02  0.54300104631E+01  0.23783749688E+02  0.29647611734E+02  0.51100000000E-03 0. -1.
        -11    1    3    3    0    0  0.62645454545E+01  0.11421786601E+01  0.12527054778E+02  0.14052622656E+02  0.51100000000E-03 0.  1.
        -12    1    3    3    0    0 -0.23983793455E+00  0.18549028307E+01  0.15702200418E+01  0.24420847090E+01  0.00000000000E+00 0.  1.
</event>
<event>
 7    1  0.5743890E-009  0.4614232E+02  0.7816164E-02  0.1320468E+00
        -11   -1    0    0    0    0  0.00000000000E+00  0.00000000000E+00  0.45593999997E+02  0.45594000000E+02  0.51100000000E-03 0. -1.
         11   -1    0    0    0    0 -0.00000000000E+00 -0.00000000000E+00 -0.45593999997E+02  0.45594000000E+02  0.51100000000E-03 0.  1.
    9900012    2    1    2    0    0 -0.82316317784E+01  0.19595189339E+02 -0.39716270264E+02  0.46142319512E+02  0.10000015965E+02 0.  0.
         12    1    1    2    0    0  0.82316317784E+01 -0.19595189339E+02  0.39716270264E+02  0.45045680488E+02  0.00000000000E+00 0. -1.
         11    1    3    3    0    0 -0.45122456730E+00 -0.47286718330E+00 -0.18946539790E+01  0.20042257718E+01  0.51100000000E-03 0. -1.
        -11    1    3    3    0    0 -0.45433885821E+01  0.46873328066E+01 -0.15682960069E+02  0.16987310129E+02  0.51100000000E-03 0.  1.
         12    1    3    3    0    0 -0.32370186290E+01  0.15380723716E+02 -0.22138656216E+02  0.27150783611E+02  0.00000000000E+00 0. -1.
</event>
<event>
 7    1  0.5743890E-009  0.4614232E+02  0.7816164E-02  0.1320468E+00
        -11   -1    0    0    0    0  0.00000000000E+00  0.00000000000E+00  0.45593999997E+02  0.45594000000E+02  0.51100000000E-03 0. -1.
         11   -1    0    0    0    0 -0.00000000000E+00 -0.00000000000E+00 -0.45593999997E+02  0.45594000000E+02  0.51100000000E-03 0.  1.
    9900012    2    1    2    0    0 -0.10544165305E+02  0.30828985493E+02 -0.31104786888E+02  0.46142317234E+02  0.99999951918E+01 0.  0.
         12    1    1    2    0    0  0.10544165305E+02 -0.30828985493E+02  0.31104786888E+02  0.45045682766E+02  0.00000000000E+00 0. -1.
         11    1    3    3    0    0 -0.24776435968E+01  0.19216349470E+02 -0.15125394102E+02  0.24580161752E+02  0.51100000000E-03 0. -1.
        -11    1    3    3    0    0 -0.54277239437E+01  0.99901165670E+01 -0.12222990231E+02  0.16693235357E+02  0.51100000000E-03 0.  1.
         12    1    3    3    0    0 -0.26387977645E+01  0.16225194560E+01 -0.37564025547E+01  0.48689201246E+01  0.00000000000E+00 0. -1.
</event>
<event>
 7    1  0.5743890E-009  0.4614232E+02  0.7816164E-02  0.1320468E+00
        -11   -1    0    0    0    0  0.00000000000E+00  0.00000000000E+00  0.45593999997E+02  0.45594000000E+02  0.51100000000E-03 0.  1.
         11   -1    0    0    0    0 -0.00000000000E+00 -0.00000000000E+00 -0.45593999997E+02  0.45594000000E+02  0.51100000000E-03 0. -1.
    9900012    2    1    2    0    0 -0.34677944516E+00 -0.34419909376E+02 -0.29056206458E+02  0.46142317064E+02  0.99999936406E+01 0.  0.
         12    1    1    2    0    0  0.34677944516E+00  0.34419909376E+02  0.29056206458E+02  0.45045682936E+02  0.00000000000E+00 0. -1.
         11    1    3    3    0    0  0.20532784132E+00 -0.10172638509E+00  0.41211011147E+00  0.47153237953E+00  0.51100000000E-03 0. -1.
        -11    1    3    3    0    0  0.13490160209E+01 -0.42796887943E+01 -0.19646027200E+01  0.48984941063E+01  0.51100000000E-03 0.  1.
        -12    1    3    3    0    0 -0.19011233074E+01 -0.30038494197E+02 -0.27503713850E+02  0.40772290578E+02  0.00000000000E+00 0.  1.
</event>
<event>
 7    1  0.5743890E-009  0.4614232E+02  0.7816164E-02  0.1320468E+00
        -11   -1    0    0    0    0  0.00000000000E+00  0.00000000000E+00  0.45593999997E+02  0.45594000000E+02  0.51100000000E-03 0. -1.
         11   -1    0    0    0    0 -0.00000000000E+00 -0.00000000000E+00 -0.45593999997E+02  0.45594000000E+02  0.51100000000E-03 0.  1.
    9900012    2    1    2    0    0 -0.11717183149E+02  0.12660627576E+01 -0.43476640348E+02  0.46142317057E+02  0.99999935814E+01 0.  0.
         12    1    1    2    0    0  0.11717183149E+02 -0.12660627576E+01  0.43476640348E+02  0.45045682943E+02  0.00000000000E+00 0. -1.
         11    1    3    3    0    0 -0.55347944377E+01  0.24583765644E+01 -0.13722770135E+02  0.14999732839E+02  0.51100000000E-03 0. -1.
        -11    1    3    3    0    0 -0.61732951302E+01  0.94973013597E+00 -0.26644534404E+02  0.27366818850E+02  0.51100000000E-03 0.  1.
        -12    1    3    3    0    0 -0.90935814519E-02 -0.21420439428E+01 -0.31093358086E+01  0.37757653683E+01  0.00000000000E+00 0.  1.
</event>
<event>
 7    1  0.5743890E-009  0.4614232E+02  0.7816164E-02  0.1320468E+00
        -11   -1    0    0    0    0  0.00000000000E+00  0.00000000000E+00  0.45593999997E+02  0.45594000000E+02  0.51100000000E-03 0. -1.
         11   -1    0    0    0    0 -0.00000000000E+00 -0.00000000000E+00 -0.45593999997E+02  0.45594000000E+02  0.51100000000E-03 0.  1.
    9900012    2    1    2    0    0  0.18392594615E+02 -0.15883142091E+02 -0.37928246590E+02  0.46142316203E+02  0.99999857918E+01 0.  0.
         12    1    1    2    0    0 -0.18392594615E+02  0.15883142091E+02  0.37928246590E+02  0.45045683797E+02  0.00000000000E+00 0. -1.
         11    1    3    3    0    0  0.75332985525E+01 -0.43573895926E+01 -0.13692835993E+02  0.16224401035E+02  0.51100000000E-03 0. -1.
        -11    1    3    3    0    0  0.34295342032E+01 -0.79667122619E+01 -0.16380518704E+02  0.18535145060E+02  0.51100000000E-03 0.  1.
         12    1    3    3    0    0  0.74297618596E+01 -0.35590402361E+01 -0.78548918929E+01  0.11382770108E+02  0.00000000000E+00 0. -1.
</event>
<event>
 7    1  0.5743890E-009  0.4614232E+02  0.7816164E-02  0.1320468E+00
        -11   -1    0    0    0    0  0.00000000000E+00  0.00000000000E+00  0.45593999997E+02  0.45594000000E+02  0.51100000000E-03 0. -1.
         11   -1    0    0    0    0 -0.00000000000E+00 -0.00000000000E+00 -0.45593999997E+02  0.45594000000E+02  0.51100000000E-03 0.  1.
    9900012    2    1    2    0    0  0.67024352596E+01  0.88417168589E+01  0.43657929911E+02  0.46142318303E+02  0.10000004946E+02 0.  0.
        -12    1    1    2    0    0 -0.67024352596E+01 -0.88417168589E+01 -0.43657929911E+02  0.45045681697E+02  0.00000000000E+00 0.  1.
         11    1    3    3    0    0 -0.17822454506E+01  0.14620252988E+01  0.57698578206E+01  0.62133063945E+01  0.51100000000E-03 0. -1.
        -11    1    3    3    0    0  0.72777943795E+01  0.39758103109E+01  0.31674337817E+02  0.32741976651E+02  0.51100000000E-03 0.  1.
        -12    1    3    3    0    0  0.12068863307E+01  0.34038812491E+01  0.62137342735E+01  0.71870352576E+01  0.00000000000E+00 0.  1.
</event>
<event>
 7    1  0.5743890E-009  0.4614232E+02  0.7816164E-02  0.1320468E+00
        -11   -1    0    0    0    0  0.00000000000E+00  0.00000000000E+00  0.45593999997E+02  0.45594000000E+02  0.51100000000E-03 0. -1.
         11   -1    0    0    0    0 -0.00000000000E+00 -0.00000000000E+00 -0.45593999997E+02  0.45594000000E+02  0.51100000000E-03 0.  1.
    9900012    2    1    2    0    0  0.12373445455E+02 -0.16927921284E+02 -0.39867992203E+02  0.46142317924E+02  0.10000001485E+02 0.  0.
         12    1    1    2    0    0 -0.12373445455E+02  0.16927921284E+02  0.39867992203E+02  0.45045682076E+02  0.00000000000E+00 0. -1.
         11    1    3    3    0    0  0.10226672392E+02 -0.98919500872E+01 -0.23991494464E+02  0.27893140942E+02  0.51100000000E-03 0. -1.
        -11    1    3    3    0    0  0.12774134796E+01 -0.46645688351E+01 -0.45353577849E+01  0.66301929167E+01  0.51100000000E-03 0.  1.
        -12    1    3    3    0    0  0.86935958288E+00 -0.23714023616E+01 -0.11341139954E+02  0.11618984065E+02  0.00000000000E+00 0.  1.
</event>
<event>
 7    1  0.5743890E-009  0.4614232E+02  0.7816164E-02  0.1320468E+00
        -11   -1    0    0    0    0  0.00000000000E+00  0.00000000000E+00  0.45593999997E+02  0.45594000000E+02  0.51100000000E-03 0. -1.
         11   -1    0    0    0    0 -0.00000000000E+00 -0.00000000000E+00 -0.45593999997E+02  0.45594000000E+02  0.51100000000E-03 0.  1.
    9900012    2    1    2    0    0  0.12922492191E+02 -0.23039467513E+02  0.36487058252E+02  0.46142319989E+02  0.10000020318E+02 0.  0.
        -12    1    1    2    0    0 -0.12922492191E+02  0.23039467513E+02 -0.36487058252E+02  0.45045680011E+02  0.00000000000E+00 0.  1.
         11    1    3    3    0    0  0.17014671451E+01 -0.86881173145E+01  0.70968179761E+01  0.11346506007E+02  0.51100000000E-03 0. -1.
        -11    1    3    3    0    0  0.84449679783E+00 -0.34238203233E+01  0.48138386834E+01  0.59673079004E+01  0.51100000000E-03 0.  1.
        -12    1    3    3    0    0  0.10376528248E+02 -0.10927529875E+02  0.24576401593E+02  0.28828506082E+02  0.00000000000E+00 0.  1.
</event>
<event>
 7    1  0.5743890E-009  0.4614232E+02  0.7816164E-02  0.1320468E+00
        -11   -1    0    0    0    0  0.00000000000E+00  0.00000000000E+00  0.45593999997E+02  0.45594000000E+02  0.51100000000E-03 0.  1.
         11   -1    0    0    0    0 -0.00000000000E+00 -0.00000000000E+00 -0.45593999997E+02  0.45594000000E+02  0.51100000000E-03 0. -1.
    9900012    2    1    2    0    0 -0.27656803472E+02  0.27112027769E+02  0.23003319323E+02  0.46142317323E+02  0.99999960005E+01 0.  0.
        -12    1    1    2    0    0  0.27656803472E+02 -0.27112027769E+02 -0.23003319323E+02  0.45045682677E+02  0.00000000000E+00 0.  1.
         11    1    3    3    0    0 -0.37141577359E+01  0.53370874180E+01  0.35782875756E+01  0.74218334682E+01  0.51100000000E-03 0. -1.
        -11    1    3    3    0    0 -0.18489560862E+02  0.16110465882E+02  0.10097615842E+02  0.26521176779E+02  0.51100000000E-03 0.  1.
         12    1    3    3    0    0 -0.54530848742E+01  0.56644744694E+01  0.93274159047E+01  0.12199307075E+02  0.00000000000E+00 0. -1.
</event>
<event>
 7    1  0.5743890E-009  0.4614232E+02  0.7816164E-02  0.1320468E+00
        -11   -1    0    0    0    0  0.00000000000E+00  0.00000000000E+00  0.45593999997E+02  0.45594000000E+02  0.51100000000E-03 0.  1.
         11   -1    0    0    0    0 -0.00000000000E+00 -0.00000000000E+00 -0.45593999997E+02  0.45594000000E+02  0.51100000000E-03 0. -1.
    9900012    2    1    2    0    0 -0.43605996741E+02 -0.10861457800E+02  0.31079329483E+01  0.46142318026E+02  0.10000002414E+02 0.  0.
        -12    1    1    2    0    0  0.43605996741E+02  0.10861457800E+02 -0.31079329483E+01  0.45045681974E+02  0.00000000000E+00 0.  1.
         11    1    3    3    0    0 -0.16269191772E+02 -0.32288107653E+01 -0.58739847421E+00  0.16596892996E+02  0.51100000000E-03 0. -1.
        -11    1    3    3    0    0 -0.61310763719E+01 -0.27330466584E+01 -0.20805052015E+01  0.70276698606E+01  0.51100000000E-03 0.  1.
         12    1    3    3    0    0 -0.21205728597E+02 -0.48996003758E+01  0.57758366240E+01  0.22517755169E+02  0.00000000000E+00 0. -1.
</event>
<event>
 7    1  0.5743890E-009  0.4614232E+02  0.7816164E-02  0.1320468E+00
        -11   -1    0    0    0    0  0.00000000000E+00  0.00000000000E+00  0.45593999997E+02  0.45594000000E+02  0.51100000000E-03 0. -1.
         11   -1    0    0    0    0 -0.00000000000E+00 -0.00000000000E+00 -0.45593999997E+02  0.45594000000E+02  0.51100000000E-03 0.  1.
    9900012    2    1    2    0    0 -0.15742385164E+02 -0.57932558203E+01  0.41805849047E+02  0.46142317430E+02  0.99999969768E+01 0.  0.
        -12    1    1    2    0    0  0.15742385164E+02  0.57932558203E+01 -0.41805849047E+02  0.45045682570E+02  0.00000000000E+00 0.  1.
         11    1    3    3    0    0 -0.13007493176E+02 -0.54059097897E+01  0.36724624631E+02  0.39333405572E+02  0.51100000000E-03 0. -1.
        -11    1    3    3    0    0 -0.10554734323E+01 -0.19553447525E+01  0.27532944584E+01  0.35380825178E+01  0.51100000000E-03 0.  1.
         12    1    3    3    0    0 -0.16794185560E+01  0.15679987218E+01  0.23279299584E+01  0.32708293397E+01  0.00000000000E+00 0. -1.
</event>
<event>
 7    1  0.5743890E-009  0.4614232E+02  0.7816164E-02  0.1320468E+00
        -11   -1    0    0    0    0  0.00000000000E+00  0.00000000000E+00  0.45593999997E+02  0.45594000000E+02  0.51100000000E-03 0. -1.
         11   -1    0    0    0    0 -0.00000000000E+00 -0.00000000000E+00 -0.45593999997E+02  0.45594000000E+02  0.51100000000E-03 0.  1.
    9900012    2    1    2    0    0  0.34125615618E+02  0.17717933673E+02  0.23465520403E+02  0.46142318045E+02  0.10000002593E+02 0.  0.
        -12    1    1    2    0    0 -0.34125615618E+02 -0.17717933673E+02 -0.23465520403E+02  0.45045681955E+02  0.00000000000E+00 0.  1.
         11    1    3    3    0    0  0.28585196002E+01  0.36674866608E+01  0.25408079355E+01  0.52988015568E+01  0.51100000000E-03 0. -1.
        -11    1    3    3    0    0  0.12418564383E+02  0.33232549778E+01  0.11301976692E+02  0.17117226481E+02  0.51100000000E-03 0.  1.
         12    1    3    3    0    0  0.18848531635E+02  0.10727192034E+02  0.96227357752E+01  0.23726290008E+02  0.00000000000E+00 0. -1.
</event>
<event>
 7    1  0.5743890E-009  0.4614232E+02  0.7816164E-02  0.1320468E+00
        -11   -1    0    0    0    0  0.00000000000E+00  0.00000000000E+00  0.45593999997E+02  0.45594000000E+02  0.51100000000E-03 0. -1.
         11   -1    0    0    0    0 -0.00000000000E+00 -0.00000000000E+00 -0.45593999997E+02  0.45594000000E+02  0.51100000000E-03 0.  1.
    9900012    2    1    2    0    0 -0.96503143725E+01 -0.41187501051E+02 -0.15478207933E+02  0.46142315067E+02  0.99999754296E+01 0.  0.
         12    1    1    2    0    0  0.96503143725E+01  0.41187501051E+02  0.15478207933E+02  0.45045684933E+02  0.00000000000E+00 0. -1.
         11    1    3    3    0    0 -0.47020168326E-01 -0.54244868000E+01 -0.12278906915E+01  0.55619226668E+01  0.51100000000E-03 0. -1.
        -11    1    3    3    0    0 -0.12014407499E+01 -0.20726635015E+02 -0.73231796353E+01  0.22015127053E+02  0.51100000000E-03 0.  1.
        -12    1    3    3    0    0 -0.84018534543E+01 -0.15036379236E+02 -0.69271376057E+01  0.18565265347E+02  0.00000000000E+00 0.  1.
</event>
<event>
 7    1  0.5743890E-009  0.4614232E+02  0.7816164E-02  0.1320468E+00
        -11   -1    0    0    0    0  0.00000000000E+00  0.00000000000E+00  0.45593999997E+02  0.45594000000E+02  0.51100000000E-03 0. -1.
         11   -1    0    0    0    0 -0.00000000000E+00 -0.00000000000E+00 -0.45593999997E+02  0.45594000000E+02  0.51100000000E-03 0.  1.
    9900012    2    1    2    0    0  0.30124062442E+02 -0.24762998096E+02 -0.22548798296E+02  0.46142317440E+02  0.99999970742E+01 0.  0.
         12    1    1    2    0    0 -0.30124062442E+02  0.24762998096E+02  0.22548798296E+02  0.45045682560E+02  0.00000000000E+00 0. -1.
         11    1    3    3    0    0  0.95409603917E+00 -0.21559209699E+01 -0.22678565064E+01  0.32713098103E+01  0.51100000000E-03 0. -1.
        -11    1    3    3    0    0  0.51277630156E+00 -0.26621584794E+01 -0.25071477697E+01  0.36926707822E+01  0.51100000000E-03 0.  1.
        -12    1    3    3    0    0  0.28657190101E+02 -0.19944918646E+02 -0.17773794020E+02  0.39178336848E+02  0.00000000000E+00 0.  1.
</event>
<event>
 7    1  0.5743890E-009  0.4614232E+02  0.7816164E-02  0.1320468E+00
        -11   -1    0    0    0    0  0.00000000000E+00  0.00000000000E+00  0.45593999997E+02  0.45594000000E+02  0.51100000000E-03 0. -1.
         11   -1    0    0    0    0 -0.00000000000E+00 -0.00000000000E+00 -0.45593999997E+02  0.45594000000E+02  0.51100000000E-03 0.  1.
    9900012    2    1    2    0    0  0.36430959575E+02  0.16420256596E+02 -0.20791193908E+02  0.46142318893E+02  0.10000010323E+02 0.  0.
         12    1    1    2    0    0 -0.36430959575E+02 -0.16420256596E+02  0.20791193908E+02  0.45045681107E+02  0.00000000000E+00 0. -1.
         11    1    3    3    0    0  0.17068220630E+02  0.47956401045E+01 -0.82391570889E+01  0.19550090263E+02  0.51100000000E-03 0. -1.
        -11    1    3    3    0    0  0.90443791780E+01  0.35056786289E+01 -0.83720143467E+01  0.12813321265E+02  0.51100000000E-03 0.  1.
        -12    1    3    3    0    0  0.10318359768E+02  0.81189378629E+01 -0.41800224724E+01  0.13778907365E+02  0.00000000000E+00 0.  1.
</event>
<event>
 7    1  0.5743890E-009  0.4614232E+02  0.7816164E-02  0.1320468E+00
        -11   -1    0    0    0    0  0.00000000000E+00  0.00000000000E+00  0.45593999997E+02  0.45594000000E+02  0.51100000000E-03 0. -1.
         11   -1    0    0    0    0 -0.00000000000E+00 -0.00000000000E+00 -0.45593999997E+02  0.45594000000E+02  0.51100000000E-03 0.  1.
    9900012    2    1    2    0    0  0.24430045962E+02 -0.30683104169E+02 -0.22154762488E+02  0.46142317321E+02  0.99999959841E+01 0.  0.
         12    1    1    2    0    0 -0.24430045962E+02  0.30683104169E+02  0.22154762488E+02  0.45045682679E+02  0.00000000000E+00 0. -1.
         11    1    3    3    0    0  0.94574819869E+01 -0.68855773670E+01 -0.40210796805E+01  0.12370296006E+02  0.51100000000E-03 0. -1.
        -11    1    3    3    0    0  0.12452448691E+02 -0.16052172925E+02 -0.12238441269E+02  0.23717402450E+02  0.51100000000E-03 0.  1.
         12    1    3    3    0    0  0.25201152838E+01 -0.77453538768E+01 -0.58952415388E+01  0.10054618865E+02  0.00000000000E+00 0. -1.
</event>
<event>
 7    1  0.5743890E-009  0.4614232E+02  0.7816164E-02  0.1320468E+00
        -11   -1    0    0    0    0  0.00000000000E+00  0.00000000000E+00  0.45593999997E+02  0.45594000000E+02  0.51100000000E-03 0. -1.
         11   -1    0    0    0    0 -0.00000000000E+00 -0.00000000000E+00 -0.45593999997E+02  0.45594000000E+02  0.51100000000E-03 0.  1.
    9900012    2    1    2    0    0  0.26814995736E+02 -0.35829781220E+02  0.51279930193E+01  0.46142317288E+02  0.99999956834E+01 0.  0.
         12    1    1    2    0    0 -0.26814995736E+02  0.35829781220E+02 -0.51279930193E+01  0.45045682712E+02  0.00000000000E+00 0. -1.
         11    1    3    3    0    0  0.18669306569E+02 -0.21578963463E+02  0.22230282186E+01  0.28620561256E+02  0.51100000000E-03 0. -1.
        -11    1    3    3    0    0  0.84098030385E+01 -0.12615953061E+02  0.13034044241E+01  0.15217947369E+02  0.51100000000E-03 0.  1.
         12    1    3    3    0    0 -0.26411387145E+00 -0.16348646972E+01  0.16015603766E+01  0.23038086628E+01  0.00000000000E+00 0. -1.
</event>
<event>
 7    1  0.5743890E-009  0.4614232E+02  0.7816164E-02  0.1320468E+00
        -11   -1    0    0    0    0  0.00000000000E+00  0.00000000000E+00  0.45593999997E+02  0.45594000000E+02  0.51100000000E-03 0. -1.
         11   -1    0    0    0    0 -0.00000000000E+00 -0.00000000000E+00 -0.45593999997E+02  0.45594000000E+02  0.51100000000E-03 0.  1.
    9900012    2    1    2    0    0 -0.23330321968E+02 -0.18329646022E+02 -0.33894448680E+02  0.46142317657E+02  0.99999990550E+01 0.  0.
         12    1    1    2    0    0  0.23330321968E+02  0.18329646022E+02  0.33894448680E+02  0.45045682343E+02  0.00000000000E+00 0. -1.
         11    1    3    3    0    0 -0.96652235224E+01 -0.61078373539E+01 -0.94984172327E+01  0.14864123017E+02  0.51100000000E-03 0. -1.
        -11    1    3    3    0    0 -0.12712325235E+02 -0.75164650322E+01 -0.18723391401E+02  0.23846715608E+02  0.51100000000E-03 0.  1.
         12    1    3    3    0    0 -0.95277321024E+00 -0.47053436358E+01 -0.56726400460E+01  0.74314790326E+01  0.00000000000E+00 0. -1.
</event>
<event>
 7    1  0.5743890E-009  0.4614232E+02  0.7816164E-02  0.1320468E+00
        -11   -1    0    0    0    0  0.00000000000E+00  0.00000000000E+00  0.45593999997E+02  0.45594000000E+02  0.51100000000E-03 0. -1.
         11   -1    0    0    0    0 -0.00000000000E+00 -0.00000000000E+00 -0.45593999997E+02  0.45594000000E+02  0.51100000000E-03 0.  1.
    9900012    2    1    2    0    0  0.27236589672E+02  0.32726618206E+02  0.14705447591E+02  0.46142317132E+02  0.99999942657E+01 0.  0.
        -12    1    1    2    0    0 -0.27236589672E+02 -0.32726618206E+02 -0.14705447591E+02  0.45045682868E+02  0.00000000000E+00 0.  1.
         11    1    3    3    0    0  0.10472062484E+01  0.19992866246E+01  0.28209114925E+01  0.36126624314E+01  0.51100000000E-03 0. -1.
        -11    1    3    3    0    0  0.15207688122E+02  0.22298304790E+02  0.80123231223E+01  0.28154670955E+02  0.51100000000E-03 0.  1.
        -12    1    3    3    0    0  0.10981695302E+02  0.84290267913E+01  0.38722129767E+01  0.14374983746E+02  0.00000000000E+00 0.  1.
</event>
<event>
 7    1  0.5743890E-009  0.4614232E+02  0.7816164E-02  0.1320468E+00
        -11   -1    0    0    0    0  0.00000000000E+00  0.00000000000E+00  0.45593999997E+02  0.45594000000E+02  0.51100000000E-03 0.  1.
         11   -1    0    0    0    0 -0.00000000000E+00 -0.00000000000E+00 -0.45593999997E+02  0.45594000000E+02  0.51100000000E-03 0. -1.
    9900012    2    1    2    0    0  0.78454694843E+01 -0.43835727958E+02 -0.67816735413E+01  0.46142317265E+02  0.99999954757E+01 0.  0.
        -12    1    1    2    0    0 -0.78454694843E+01  0.43835727958E+02  0.67816735413E+01  0.45045682735E+02  0.00000000000E+00 0.  1.
         11    1    3    3    0    0 -0.96143517623E+00 -0.35484866545E+01 -0.92693427212E+00  0.37914802572E+01  0.51100000000E-03 0. -1.
        -11    1    3    3    0    0  0.48618205525E+01 -0.19949560695E+02 -0.67507463561E+01  0.21614690551E+02  0.51100000000E-03 0.  1.
         12    1    3    3    0    0  0.39450841081E+01 -0.20337680609E+02  0.89600708690E+00  0.20736146456E+02  0.00000000000E+00 0. -1.
</event>
<event>
 7    1  0.5743890E-009  0.4614232E+02  0.7816164E-02  0.1320468E+00
        -11   -1    0    0    0    0  0.00000000000E+00  0.00000000000E+00  0.45593999997E+02  0.45594000000E+02  0.51100000000E-03 0. -1.
         11   -1    0    0    0    0 -0.00000000000E+00 -0.00000000000E+00 -0.45593999997E+02  0.45594000000E+02  0.51100000000E-03 0.  1.
    9900012    2    1    2    0    0 -0.70380644419E+01  0.23970697291E+02 -0.37483126822E+02  0.46142317897E+02  0.10000001242E+02 0.  0.
         12    1    1    2    0    0  0.70380644419E+01 -0.23970697291E+02  0.37483126822E+02  0.45045682103E+02  0.00000000000E+00 0. -1.
         11    1    3    3    0    0 -0.24468331831E+01  0.29561310316E+01 -0.36161784020E+01  0.52728028408E+01  0.51100000000E-03 0. -1.
        -11    1    3    3    0    0 -0.65719249777E+01  0.15442139631E+02 -0.27168497975E+02  0.31933949909E+02  0.51100000000E-03 0.  1.
        -12    1    3    3    0    0  0.19806937190E+01  0.55724266289E+01 -0.66984504449E+01  0.89355651475E+01  0.00000000000E+00 0.  1.
</event>
<event>
 7    1  0.5743890E-009  0.4614232E+02  0.7816164E-02  0.1320468E+00
        -11   -1    0    0    0    0  0.00000000000E+00  0.00000000000E+00  0.45593999997E+02  0.45594000000E+02  0.51100000000E-03 0. -1.
         11   -1    0    0    0    0 -0.00000000000E+00 -0.00000000000E+00 -0.45593999997E+02  0.45594000000E+02  0.51100000000E-03 0.  1.
    9900012    2    1    2    0    0 -0.35550720222E+02 -0.83968055454E+01 -0.26358179904E+02  0.46142315418E+02  0.99999786301E+01 0.  0.
         12    1    1    2    0    0  0.35550720222E+02  0.83968055454E+01  0.26358179904E+02  0.45045684582E+02  0.00000000000E+00 0. -1.
         11    1    3    3    0    0 -0.17635318160E+02 -0.57366485665E+00 -0.11654186518E+02  0.21146006754E+02  0.51100000000E-03 0. -1.
        -11    1    3    3    0    0 -0.76296223884E+01 -0.12027654611E+01 -0.37928310806E+01  0.86048445896E+01  0.51100000000E-03 0.  1.
         12    1    3    3    0    0 -0.10285779673E+02 -0.66203752277E+01 -0.10911162305E+02  0.16391464074E+02  0.00000000000E+00 0. -1.
</event>
<event>
 7    1  0.5743890E-009  0.4614232E+02  0.7816164E-02  0.1320468E+00
        -11   -1    0    0    0    0  0.00000000000E+00  0.00000000000E+00  0.45593999997E+02  0.45594000000E+02  0.51100000000E-03 0. -1.
         11   -1    0    0    0    0 -0.00000000000E+00 -0.00000000000E+00 -0.45593999997E+02  0.45594000000E+02  0.51100000000E-03 0.  1.
    9900012    2    1    2    0    0 -0.76612667711E+01  0.53550400229E+01  0.44065202249E+02  0.46142317505E+02  0.99999976662E+01 0.  0.
        -12    1    1    2    0    0  0.76612667711E+01 -0.53550400229E+01 -0.44065202249E+02  0.45045682495E+02  0.00000000000E+00 0.  1.
         11    1    3    3    0    0 -0.28092497938E+01  0.47813827691E+01  0.19212946938E+02  0.19997270711E+02  0.51100000000E-03 0. -1.
        -11    1    3    3    0    0 -0.54770981430E+01  0.67288246117E+00  0.11274204587E+02  0.12552253352E+02  0.51100000000E-03 0.  1.
         12    1    3    3    0    0  0.62508116569E+00 -0.99225207383E-01  0.13578050724E+02  0.13592793442E+02  0.00000000000E+00 0. -1.
</event>
<event>
 7    1  0.5743890E-009  0.4614232E+02  0.7816164E-02  0.1320468E+00
        -11   -1    0    0    0    0  0.00000000000E+00  0.00000000000E+00  0.45593999997E+02  0.45594000000E+02  0.51100000000E-03 0. -1.
         11   -1    0    0    0    0 -0.00000000000E+00 -0.00000000000E+00 -0.45593999997E+02  0.45594000000E+02  0.51100000000E-03 0.  1.
    9900012    2    1    2    0    0  0.91598279290E+00 -0.34188554145E+02 -0.29315818961E+02  0.46142317629E+02  0.99999987920E+01 0.  0.
         12    1    1    2    0    0 -0.91598279290E+00  0.34188554145E+02  0.29315818961E+02  0.45045682371E+02  0.00000000000E+00 0. -1.
         11    1    3    3    0    0 -0.89579855356E-01 -0.68076809597E+01 -0.14872577737E+01  0.69688220343E+01  0.51100000000E-03 0. -1.
        -11    1    3    3    0    0  0.58231820768E+00 -0.21518521230E+01 -0.13929095993E+01  0.26286421337E+01  0.51100000000E-03 0.  1.
        -12    1    3    3    0    0  0.42324444057E+00 -0.25229021062E+02 -0.26435651588E+02  0.36544853461E+02  0.00000000000E+00 0.  1.
</event>
<event>
 7    1  0.5743890E-009  0.4614232E+02  0.7816164E-02  0.1320468E+00
        -11   -1    0    0    0    0  0.00000000000E+00  0.00000000000E+00  0.45593999997E+02  0.45594000000E+02  0.51100000000E-03 0. -1.
         11   -1    0    0    0    0 -0.00000000000E+00 -0.00000000000E+00 -0.45593999997E+02  0.45594000000E+02  0.51100000000E-03 0.  1.
    9900012    2    1    2    0    0 -0.27690327348E+02  0.15486524976E+02  0.31976973788E+02  0.46142317220E+02  0.99999950639E+01 0.  0.
        -12    1    1    2    0    0  0.27690327348E+02 -0.15486524976E+02 -0.31976973788E+02  0.45045682780E+02  0.00000000000E+00 0.  1.
         11    1    3    3    0    0 -0.18517043577E+02  0.10477185447E+02  0.19224932211E+02  0.28674907786E+02  0.51100000000E-03 0. -1.
        -11    1    3    3    0    0 -0.72194327408E+01  0.10007792564E+01  0.93682771442E+01  0.11869557074E+02  0.51100000000E-03 0.  1.
         12    1    3    3    0    0 -0.19538510297E+01  0.40085602730E+01  0.33837644332E+01  0.55978523603E+01  0.00000000000E+00 0. -1.
</event>
<event>
 7    1  0.5743890E-009  0.4614232E+02  0.7816164E-02  0.1320468E+00
        -11   -1    0    0    0    0  0.00000000000E+00  0.00000000000E+00  0.45593999997E+02  0.45594000000E+02  0.51100000000E-03 0. -1.
         11   -1    0    0    0    0 -0.00000000000E+00 -0.00000000000E+00 -0.45593999997E+02  0.45594000000E+02  0.51100000000E-03 0.  1.
    9900012    2    1    2    0    0  0.13924928721E+01  0.63997397749E+01 -0.44567002727E+02  0.46142318324E+02  0.10000005133E+02 0.  0.
         12    1    1    2    0    0 -0.13924928721E+01 -0.63997397749E+01  0.44567002727E+02  0.45045681676E+02  0.00000000000E+00 0. -1.
         11    1    3    3    0    0  0.20842659069E+01  0.10677653041E+01 -0.21735280886E+01  0.31950761694E+01  0.51100000000E-03 0. -1.
        -11    1    3    3    0    0 -0.87555530973E+00 -0.51410408944E+00 -0.71469434975E+01  0.72187049900E+01  0.51100000000E-03 0.  1.
        -12    1    3    3    0    0  0.18378227497E+00  0.58460785602E+01 -0.35246531141E+02  0.35728537165E+02  0.00000000000E+00 0.  1.
</event>
<event>
 7    1  0.5743890E-009  0.4614232E+02  0.7816164E-02  0.1320468E+00
        -11   -1    0    0    0    0  0.00000000000E+00  0.00000000000E+00  0.45593999997E+02  0.45594000000E+02  0.51100000000E-03 0.  1.
         11   -1    0    0    0    0 -0.00000000000E+00 -0.00000000000E+00 -0.45593999997E+02  0.45594000000E+02  0.51100000000E-03 0. -1.
    9900012    2    1    2    0    0 -0.33867245480E+01  0.38259080214E+02 -0.23534790553E+02  0.46142317761E+02  0.10000000002E+02 0.  0.
         12    1    1    2    0    0  0.33867245480E+01 -0.38259080214E+02  0.23534790553E+02  0.45045682239E+02  0.00000000000E+00 0. -1.
         11    1    3    3    0    0 -0.67360423743E+00  0.39688590436E+01 -0.48435917103E+01  0.62980922266E+01  0.51100000000E-03 0. -1.
        -11    1    3    3    0    0 -0.46134843069E+01  0.14185398381E+02 -0.92483428566E+01  0.17551114225E+02  0.51100000000E-03 0.  1.
        -12    1    3    3    0    0  0.19003639964E+01  0.20104822789E+02 -0.94428559862E+01  0.22293111310E+02  0.00000000000E+00 0.  1.
</event>
<event>
 7    1  0.5743890E-009  0.4614232E+02  0.7816164E-02  0.1320468E+00
        -11   -1    0    0    0    0  0.00000000000E+00  0.00000000000E+00  0.45593999997E+02  0.45594000000E+02  0.51100000000E-03 0. -1.
         11   -1    0    0    0    0 -0.00000000000E+00 -0.00000000000E+00 -0.45593999997E+02  0.45594000000E+02  0.51100000000E-03 0.  1.
    9900012    2    1    2    0    0  0.16716440936E+02  0.39279766600E+02  0.14379639491E+02  0.46142317703E+02  0.99999994671E+01 0.  0.
        -12    1    1    2    0    0 -0.16716440936E+02 -0.39279766600E+02 -0.14379639491E+02  0.45045682297E+02  0.00000000000E+00 0.  1.
         11    1    3    3    0    0  0.71570926885E+01  0.22875517372E+02  0.87884409402E+01  0.25529394141E+02  0.51100000000E-03 0. -1.
        -11    1    3    3    0    0  0.10127923938E+02  0.15175165845E+02  0.59876062861E+01  0.19201873112E+02  0.51100000000E-03 0.  1.
        -12    1    3    3    0    0 -0.56857569047E+00  0.12290833829E+01 -0.39640773502E+00  0.14110504492E+01  0.00000000000E+00 0.  1.
</event>
<event>
 7    1  0.5743890E-009  0.4614232E+02  0.7816164E-02  0.1320468E+00
        -11   -1    0    0    0    0  0.00000000000E+00  0.00000000000E+00  0.45593999997E+02  0.45594000000E+02  0.51100000000E-03 0. -1.
         11   -1    0    0    0    0 -0.00000000000E+00 -0.00000000000E+00 -0.45593999997E+02  0.45594000000E+02  0.51100000000E-03 0.  1.
    9900012    2    1    2    0    0 -0.11140972259E+02 -0.38835009001E+01 -0.43473102468E+02  0.46142317851E+02  0.10000000820E+02 0.  0.
         12    1    1    2    0    0  0.11140972259E+02  0.38835009001E+01  0.43473102468E+02  0.45045682149E+02  0.00000000000E+00 0. -1.
         11    1    3    3    0    0 -0.46157242093E+01 -0.42124338207E+00 -0.68606954577E+01  0.82795832255E+01  0.51100000000E-03 0. -1.
        -11    1    3    3    0    0 -0.69197225341E+01 -0.82464885372E+00 -0.25537441462E+02  0.26471182867E+02  0.51100000000E-03 0.  1.
        -12    1    3    3    0    0  0.39447448474E+00 -0.26376086643E+01 -0.11074965548E+02  0.11391551759E+02  0.00000000000E+00 0.  1.
</event>
<event>
 7    1  0.5743890E-009  0.4614232E+02  0.7816164E-02  0.1320468E+00
        -11   -1    0    0    0    0  0.00000000000E+00  0.00000000000E+00  0.45593999997E+02  0.45594000000E+02  0.51100000000E-03 0. -1.
         11   -1    0    0    0    0 -0.00000000000E+00 -0.00000000000E+00 -0.45593999997E+02  0.45594000000E+02  0.51100000000E-03 0.  1.
    9900012    2    1    2    0    0  0.13636754419E+02  0.29477773146E+02 -0.31212390578E+02  0.46142317562E+02  0.99999981834E+01 0.  0.
         12    1    1    2    0    0 -0.13636754419E+02 -0.29477773146E+02  0.31212390578E+02  0.45045682438E+02  0.00000000000E+00 0. -1.
         11    1    3    3    0    0  0.90156632416E+01  0.10057693127E+02 -0.14645059742E+02  0.19922779671E+02  0.51100000000E-03 0. -1.
        -11    1    3    3    0    0  0.44602553238E+01  0.10822404350E+02 -0.90121837768E+01  0.14772872780E+02  0.51100000000E-03 0.  1.
         12    1    3    3    0    0  0.16083585343E+00  0.85976756689E+01 -0.75551470589E+01  0.11446665111E+02  0.00000000000E+00 0. -1.
</event>
<event>
 7    1  0.5743890E-009  0.4614232E+02  0.7816164E-02  0.1320468E+00
        -11   -1    0    0    0    0  0.00000000000E+00  0.00000000000E+00  0.45593999997E+02  0.45594000000E+02  0.51100000000E-03 0. -1.
         11   -1    0    0    0    0 -0.00000000000E+00 -0.00000000000E+00 -0.45593999997E+02  0.45594000000E+02  0.51100000000E-03 0.  1.
    9900012    2    1    2    0    0  0.49205912721E+01  0.11477040862E+02  0.43280236945E+02  0.46142316573E+02  0.99999891626E+01 0.  0.
        -12    1    1    2    0    0 -0.49205912721E+01 -0.11477040862E+02 -0.43280236945E+02  0.45045683427E+02  0.00000000000E+00 0.  1.
         11    1    3    3    0    0  0.17717278959E+01  0.82847622078E+01  0.33654289552E+02  0.34704286624E+02  0.51100000000E-03 0. -1.
        -11    1    3    3    0    0  0.28164700937E+01 -0.14819398972E+00  0.43018991315E+01  0.51440063809E+01  0.51100000000E-03 0.  1.
         12    1    3    3    0    0  0.33239328243E+00  0.33404726440E+01  0.53240482618E+01  0.62940235679E+01  0.00000000000E+00 0. -1.
</event>
<event>
 7    1  0.5743890E-009  0.4614232E+02  0.7816164E-02  0.1320468E+00
        -11   -1    0    0    0    0  0.00000000000E+00  0.00000000000E+00  0.45593999997E+02  0.45594000000E+02  0.51100000000E-03 0. -1.
         11   -1    0    0    0    0 -0.00000000000E+00 -0.00000000000E+00 -0.45593999997E+02  0.45594000000E+02  0.51100000000E-03 0.  1.
    9900012    2    1    2    0    0  0.55677486729E+01  0.30731642463E+02 -0.32460434169E+02  0.46142318074E+02  0.10000002850E+02 0.  0.
         12    1    1    2    0    0 -0.55677486729E+01 -0.30731642463E+02  0.32460434169E+02  0.45045681926E+02  0.00000000000E+00 0. -1.
         11    1    3    3    0    0 -0.45798784514E-01  0.27814494342E+01 -0.25818540851E+00  0.27937821049E+01  0.51100000000E-03 0. -1.
        -11    1    3    3    0    0  0.12961742569E+01  0.72505118195E+01 -0.50341076326E+01  0.89214477114E+01  0.51100000000E-03 0.  1.
        -12    1    3    3    0    0  0.43173732005E+01  0.20699681210E+02 -0.27168141128E+02  0.34427088257E+02  0.00000000000E+00 0.  1.
</event>
<event>
 7    1  0.5743890E-009  0.4614232E+02  0.7816164E-02  0.1320468E+00
        -11   -1    0    0    0    0  0.00000000000E+00  0.00000000000E+00  0.45593999997E+02  0.45594000000E+02  0.51100000000E-03 0. -1.
         11   -1    0    0    0    0 -0.00000000000E+00 -0.00000000000E+00 -0.45593999997E+02  0.45594000000E+02  0.51100000000E-03 0.  1.
    9900012    2    1    2    0    0 -0.17530632920E+01 -0.27257571035E+02 -0.35819899646E+02  0.46142316297E+02  0.99999866516E+01 0.  0.
         12    1    1    2    0    0  0.17530632920E+01  0.27257571035E+02  0.35819899646E+02  0.45045683703E+02  0.00000000000E+00 0. -1.
         11    1    3    3    0    0 -0.17188316233E+01 -0.19845105428E+02 -0.18438910199E+02  0.27143618056E+02  0.51100000000E-03 0. -1.
        -11    1    3    3    0    0 -0.57506078886E+00 -0.14269033535E+01 -0.50836441018E+01  0.53113261721E+01  0.51100000000E-03 0.  1.
        -12    1    3    3    0    0  0.54082912016E+00 -0.59855622536E+01 -0.12297345345E+02  0.13687372069E+02  0.00000000000E+00 0.  1.
</event>
<event>
 7    1  0.5743890E-009  0.4614232E+02  0.7816164E-02  0.1320468E+00
        -11   -1    0    0    0    0  0.00000000000E+00  0.00000000000E+00  0.45593999997E+02  0.45594000000E+02  0.51100000000E-03 0.  1.
         11   -1    0    0    0    0 -0.00000000000E+00 -0.00000000000E+00 -0.45593999997E+02  0.45594000000E+02  0.51100000000E-03 0. -1.
    9900012    2    1    2    0    0  0.13487647027E+02  0.36929519960E+02 -0.21986527553E+02  0.46142318069E+02  0.10000002806E+02 0.  0.
         12    1    1    2    0    0 -0.13487647027E+02 -0.36929519960E+02  0.21986527553E+02  0.45045681931E+02  0.00000000000E+00 0. -1.
         11    1    3    3    0    0  0.67996393076E+01  0.13208995687E+02 -0.55432503426E+01  0.15856868745E+02  0.51100000000E-03 0. -1.
        -11    1    3    3    0    0  0.42422102296E+01  0.15200579113E+02 -0.67909682727E+01  0.17180547236E+02  0.51100000000E-03 0.  1.
         12    1    3    3    0    0  0.24457974903E+01  0.85199451599E+01 -0.96523089376E+01  0.13104902087E+02  0.00000000000E+00 0. -1.
</event>
<event>
 7    1  0.5743890E-009  0.4614232E+02  0.7816164E-02  0.1320468E+00
        -11   -1    0    0    0    0  0.00000000000E+00  0.00000000000E+00  0.45593999997E+02  0.45594000000E+02  0.51100000000E-03 0.  1.
         11   -1    0    0    0    0 -0.00000000000E+00 -0.00000000000E+00 -0.45593999997E+02  0.45594000000E+02  0.51100000000E-03 0. -1.
    9900012    2    1    2    0    0 -0.40083764747E+02  0.87440805570E+01 -0.18599633752E+02  0.46142317446E+02  0.99999971230E+01 0.  0.
         12    1    1    2    0    0  0.40083764747E+02 -0.87440805570E+01  0.18599633752E+02  0.45045682554E+02  0.00000000000E+00 0. -1.
         11    1    3    3    0    0 -0.26792113032E+01  0.33820170645E+01 -0.23966246752E+01  0.49355873740E+01  0.51100000000E-03 0. -1.
        -11    1    3    3    0    0 -0.19645917140E+02  0.29975891080E+01 -0.70342202329E+01  0.21081457617E+02  0.51100000000E-03 0.  1.
         12    1    3    3    0    0 -0.17758636304E+02  0.23644743845E+01 -0.91687888442E+01  0.20125272454E+02  0.00000000000E+00 0. -1.
</event>
<event>
 7    1  0.5743890E-009  0.4614232E+02  0.7816164E-02  0.1320468E+00
        -11   -1    0    0    0    0  0.00000000000E+00  0.00000000000E+00  0.45593999997E+02  0.45594000000E+02  0.51100000000E-03 0. -1.
         11   -1    0    0    0    0 -0.00000000000E+00 -0.00000000000E+00 -0.45593999997E+02  0.45594000000E+02  0.51100000000E-03 0.  1.
    9900012    2    1    2    0    0 -0.23795950479E+02 -0.17137304519E+02  0.34193259142E+02  0.46142318341E+02  0.10000005288E+02 0.  0.
        -12    1    1    2    0    0  0.23795950479E+02  0.17137304519E+02 -0.34193259142E+02  0.45045681659E+02  0.00000000000E+00 0.  1.
         11    1    3    3    0    0  0.49990235337E-01 -0.37333624249E+00  0.41270880744E+00  0.55875557666E+00  0.51100000000E-03 0. -1.
        -11    1    3    3    0    0 -0.82050120472E+01 -0.11355111171E+02  0.14231245111E+02  0.19969704807E+02  0.51100000000E-03 0.  1.
         12    1    3    3    0    0 -0.15640928667E+02 -0.54088571060E+01  0.19549305223E+02  0.25613857958E+02  0.00000000000E+00 0. -1.
</event>
<event>
 7    1  0.5743890E-009  0.4614232E+02  0.7816164E-02  0.1320468E+00
        -11   -1    0    0    0    0  0.00000000000E+00  0.00000000000E+00  0.45593999997E+02  0.45594000000E+02  0.51100000000E-03 0. -1.
         11   -1    0    0    0    0 -0.00000000000E+00 -0.00000000000E+00 -0.45593999997E+02  0.45594000000E+02  0.51100000000E-03 0.  1.
    9900012    2    1    2    0    0  0.30106609604E+02  0.15265378038E+02 -0.29827399936E+02  0.46142317682E+02  0.99999992805E+01 0.  0.
         12    1    1    2    0    0 -0.30106609604E+02 -0.15265378038E+02  0.29827399936E+02  0.45045682318E+02  0.00000000000E+00 0. -1.
         11    1    3    3    0    0  0.98345502895E+01  0.55819582004E+01 -0.55121016307E+01  0.12580139164E+02  0.51100000000E-03 0. -1.
        -11    1    3    3    0    0  0.61528869696E+01  0.54658479366E+01 -0.68240143178E+01  0.10691149770E+02  0.51100000000E-03 0.  1.
         12    1    3    3    0    0  0.14119172345E+02  0.42175719013E+01 -0.17491283988E+02  0.22871028748E+02  0.00000000000E+00 0. -1.
</event>
<event>
 7    1  0.5743890E-009  0.4614232E+02  0.7816164E-02  0.1320468E+00
        -11   -1    0    0    0    0  0.00000000000E+00  0.00000000000E+00  0.45593999997E+02  0.45594000000E+02  0.51100000000E-03 0. -1.
         11   -1    0    0    0    0 -0.00000000000E+00 -0.00000000000E+00 -0.45593999997E+02  0.45594000000E+02  0.51100000000E-03 0.  1.
    9900012    2    1    2    0    0  0.26820865594E+01 -0.37899311483E+02 -0.24198390223E+02  0.46142317759E+02  0.99999999779E+01 0.  0.
         12    1    1    2    0    0 -0.26820865594E+01  0.37899311483E+02  0.24198390223E+02  0.45045682241E+02  0.00000000000E+00 0. -1.
         11    1    3    3    0    0 -0.11646454211E+01 -0.19491435616E+01 -0.25064887169E+01  0.33820179670E+01  0.51100000000E-03 0. -1.
        -11    1    3    3    0    0  0.32569910990E+00 -0.22067336044E+02 -0.98139411733E+01  0.24153402278E+02  0.51100000000E-03 0.  1.
        -12    1    3    3    0    0  0.35210328706E+01 -0.13882831877E+02 -0.11877960332E+02  0.18606897513E+02  0.00000000000E+00 0.  1.
</event>
<event>
 7    1  0.5743890E-009  0.4614232E+02  0.7816164E-02  0.1320468E+00
        -11   -1    0    0    0    0  0.00000000000E+00  0.00000000000E+00  0.45593999997E+02  0.45594000000E+02  0.51100000000E-03 0. -1.
         11   -1    0    0    0    0 -0.00000000000E+00 -0.00000000000E+00 -0.45593999997E+02  0.45594000000E+02  0.51100000000E-03 0.  1.
    9900012    2    1    2    0    0 -0.32141112503E+02 -0.40698218280E+01  0.31296947872E+02  0.46142317535E+02  0.99999979391E+01 0.  0.
        -12    1    1    2    0    0  0.32141112503E+02  0.40698218280E+01 -0.31296947872E+02  0.45045682465E+02  0.00000000000E+00 0.  1.
         11    1    3    3    0    0 -0.14013026999E+02  0.17873288541E+01  0.16698997972E+02  0.21872722822E+02  0.51100000000E-03 0. -1.
        -11    1    3    3    0    0 -0.49695264104E+00  0.33481405633E+00  0.77076814410E-01  0.60415517559E+00  0.51100000000E-03 0.  1.
         12    1    3    3    0    0 -0.17631132863E+02 -0.61919647384E+01  0.14520873085E+02  0.23665439538E+02  0.00000000000E+00 0. -1.
</event>
<event>
 7    1  0.5743890E-009  0.4614232E+02  0.7816164E-02  0.1320468E+00
        -11   -1    0    0    0    0  0.00000000000E+00  0.00000000000E+00  0.45593999997E+02  0.45594000000E+02  0.51100000000E-03 0. -1.
         11   -1    0    0    0    0 -0.00000000000E+00 -0.00000000000E+00 -0.45593999997E+02  0.45594000000E+02  0.51100000000E-03 0.  1.
    9900012    2    1    2    0    0  0.17562498232E+02  0.47402898674E+01  0.41209243436E+02  0.46142318335E+02  0.10000005230E+02 0.  0.
        -12    1    1    2    0    0 -0.17562498232E+02 -0.47402898674E+01 -0.41209243436E+02  0.45045681665E+02  0.00000000000E+00 0.  1.
         11    1    3    3    0    0  0.21194149352E+01 -0.80968165759E+00  0.13216910237E+01  0.26257135178E+01  0.51100000000E-03 0. -1.
        -11    1    3    3    0    0  0.66892512867E+01  0.11187138414E+01  0.23069659777E+02  0.24045931172E+02  0.51100000000E-03 0.  1.
         12    1    3    3    0    0  0.87538320096E+01  0.44312576837E+01  0.16817892635E+02  0.19470673645E+02  0.00000000000E+00 0. -1.
</event>
<event>
 7    1  0.5743890E-009  0.4614232E+02  0.7816164E-02  0.1320468E+00
        -11   -1    0    0    0    0  0.00000000000E+00  0.00000000000E+00  0.45593999997E+02  0.45594000000E+02  0.51100000000E-03 0.  1.
         11   -1    0    0    0    0 -0.00000000000E+00 -0.00000000000E+00 -0.45593999997E+02  0.45594000000E+02  0.51100000000E-03 0. -1.
    9900012    2    1    2    0    0 -0.16533710486E+02  0.39951530166E+02  0.12634284283E+02  0.46142317805E+02  0.10000000401E+02 0.  0.
        -12    1    1    2    0    0  0.16533710486E+02 -0.39951530166E+02 -0.12634284283E+02  0.45045682195E+02  0.00000000000E+00 0.  1.
         11    1    3    3    0    0 -0.25691454220E+01  0.75445880893E+01  0.36952697485E-01  0.79701118812E+01  0.51100000000E-03 0. -1.
        -11    1    3    3    0    0 -0.10018428015E+02  0.14389576087E+02  0.50804907279E+01  0.18254867465E+02  0.51100000000E-03 0.  1.
        -12    1    3    3    0    0 -0.39461370494E+01  0.18017365990E+02  0.75168408574E+01  0.19917338459E+02  0.00000000000E+00 0.  1.
</event>
<event>
 7    1  0.5743890E-009  0.4614232E+02  0.7816164E-02  0.1320468E+00
        -11   -1    0    0    0    0  0.00000000000E+00  0.00000000000E+00  0.45593999997E+02  0.45594000000E+02  0.51100000000E-03 0. -1.
         11   -1    0    0    0    0 -0.00000000000E+00 -0.00000000000E+00 -0.45593999997E+02  0.45594000000E+02  0.51100000000E-03 0.  1.
    9900012    2    1    2    0    0 -0.99474104455E+01  0.38974196736E+02 -0.20277435888E+02  0.46142318831E+02  0.10000009757E+02 0.  0.
         12    1    1    2    0    0  0.99474104455E+01 -0.38974196736E+02  0.20277435888E+02  0.45045681169E+02  0.00000000000E+00 0. -1.
         11    1    3    3    0    0 -0.14928520732E+01  0.89238191381E+01 -0.18747938981E+01  0.92400220640E+01  0.51100000000E-03 0. -1.
        -11    1    3    3    0    0 -0.48264381400E+01  0.17076122566E+02 -0.14386983332E+02  0.22844556390E+02  0.51100000000E-03 0.  1.
        -12    1    3    3    0    0 -0.36281202324E+01  0.12974255032E+02 -0.40156586585E+01  0.14057740377E+02  0.00000000000E+00 0.  1.
</event>
<event>
 7    1  0.5743890E-009  0.4614233E+02  0.7816164E-02  0.1320468E+00
        -11   -1    0    0    0    0  0.00000000000E+00  0.00000000000E+00  0.45593999997E+02  0.45594000000E+02  0.51100000000E-03 0. -1.
         11   -1    0    0    0    0 -0.00000000000E+00 -0.00000000000E+00 -0.45593999997E+02  0.45594000000E+02  0.51100000000E-03 0.  1.
    9900012    2    1    2    0    0 -0.42269812600E+01  0.26664262965E+02 -0.36059153043E+02  0.46142325311E+02  0.10000068844E+02 0.  0.
         12    1    1    2    0    0  0.42269812600E+01 -0.26664262965E+02  0.36059153043E+02  0.45045674689E+02  0.00000000000E+00 0. -1.
         11    1    3    3    0    0  0.17692552982E+01  0.30972277738E+01 -0.85774799823E+01  0.92895773478E+01  0.51100000000E-03 0. -1.
        -11    1    3    3    0    0 -0.84113832716E+00  0.39603552460E+01 -0.66434626174E+01  0.77799436483E+01  0.51100000000E-03 0.  1.
        -12    1    3    3    0    0 -0.51550982310E+01  0.19606679946E+02 -0.20838210443E+02  0.29072804315E+02  0.00000000000E+00 0.  1.
</event>
<event>
 7    1  0.5743890E-009  0.4614232E+02  0.7816164E-02  0.1320468E+00
        -11   -1    0    0    0    0  0.00000000000E+00  0.00000000000E+00  0.45593999997E+02  0.45594000000E+02  0.51100000000E-03 0. -1.
         11   -1    0    0    0    0 -0.00000000000E+00 -0.00000000000E+00 -0.45593999997E+02  0.45594000000E+02  0.51100000000E-03 0.  1.
    9900012    2    1    2    0    0 -0.55419557474E+00  0.23799117341E+02  0.38241445451E+02  0.46142320195E+02  0.10000022193E+02 0.  0.
        -12    1    1    2    0    0  0.55419557474E+00 -0.23799117341E+02 -0.38241445451E+02  0.45045679805E+02  0.00000000000E+00 0.  1.
         11    1    3    3    0    0  0.14429582493E+01  0.13524291729E+02  0.16682497651E+02  0.21524272889E+02  0.51100000000E-03 0. -1.
        -11    1    3    3    0    0 -0.39198026952E+00  0.10025932795E+02  0.19953619737E+02  0.22334276747E+02  0.51100000000E-03 0.  1.
        -12    1    3    3    0    0 -0.16051735545E+01  0.24889281721E+00  0.16053280626E+01  0.22837705583E+01  0.00000000000E+00 0.  1.
</event>
<event>
 7    1  0.5743890E-009  0.4614232E+02  0.7816164E-02  0.1320468E+00
        -11   -1    0    0    0    0  0.00000000000E+00  0.00000000000E+00  0.45593999997E+02  0.45594000000E+02  0.51100000000E-03 0. -1.
         11   -1    0    0    0    0 -0.00000000000E+00 -0.00000000000E+00 -0.45593999997E+02  0.45594000000E+02  0.51100000000E-03 0.  1.
    9900012    2    1    2    0    0 -0.17529808800E+01  0.14335079576E+02  0.42667857439E+02  0.46142317556E+02  0.99999981300E+01 0.  0.
        -12    1    1    2    0    0  0.17529808800E+01 -0.14335079576E+02 -0.42667857439E+02  0.45045682444E+02  0.00000000000E+00 0.  1.
         11    1    3    3    0    0 -0.13230094763E+01  0.20430744466E+01  0.62166446909E+01  0.66761649727E+01  0.51100000000E-03 0. -1.
        -11    1    3    3    0    0  0.15907716668E+01  0.27884327250E+01  0.20786279015E+02  0.21032719917E+02  0.51100000000E-03 0.  1.
        -12    1    3    3    0    0 -0.20207430705E+01  0.95035724044E+01  0.15664933733E+02  0.18433432666E+02  0.00000000000E+00 0.  1.
</event>
<event>
 7    1  0.5743890E-009  0.4614232E+02  0.7816164E-02  0.1320468E+00
        -11   -1    0    0    0    0  0.00000000000E+00  0.00000000000E+00  0.45593999997E+02  0.45594000000E+02  0.51100000000E-03 0. -1.
         11   -1    0    0    0    0 -0.00000000000E+00 -0.00000000000E+00 -0.45593999997E+02  0.45594000000E+02  0.51100000000E-03 0.  1.
    9900012    2    1    2    0    0 -0.40196878920E+02  0.53063497037E+01 -0.19625669514E+02  0.46142319564E+02  0.10000016443E+02 0.  0.
         12    1    1    2    0    0  0.40196878920E+02 -0.53063497037E+01  0.19625669514E+02  0.45045680436E+02  0.00000000000E+00 0. -1.
         11    1    3    3    0    0 -0.58760529118E+01  0.25246562420E+01 -0.68193426537E+01  0.93490813159E+01  0.51100000000E-03 0. -1.
        -11    1    3    3    0    0 -0.16774223403E+02  0.21376160965E+01 -0.55923274884E+01  0.17810617630E+02  0.51100000000E-03 0.  1.
         12    1    3    3    0    0 -0.17546602605E+02  0.64407736523E+00 -0.72139993715E+01  0.18982620619E+02  0.00000000000E+00 0. -1.
</event>
<event>
 7    1  0.5743890E-009  0.4614232E+02  0.7816164E-02  0.1320468E+00
        -11   -1    0    0    0    0  0.00000000000E+00  0.00000000000E+00  0.45593999997E+02  0.45594000000E+02  0.51100000000E-03 0.  1.
         11   -1    0    0    0    0 -0.00000000000E+00 -0.00000000000E+00 -0.45593999997E+02  0.45594000000E+02  0.51100000000E-03 0. -1.
    9900012    2    1    2    0    0  0.32276329303E+02 -0.29479460633E+02  0.10877198474E+02  0.46142317864E+02  0.10000000937E+02 0.  0.
        -12    1    1    2    0    0 -0.32276329303E+02  0.29479460633E+02 -0.10877198474E+02  0.45045682136E+02  0.00000000000E+00 0.  1.
         11    1    3    3    0    0  0.20061665281E+02 -0.16800992094E+02  0.87272704340E+01  0.27584579001E+02  0.51100000000E-03 0. -1.
        -11    1    3    3    0    0  0.24940858671E+01 -0.10415939275E+00  0.73073272713E+00  0.26010159690E+01  0.51100000000E-03 0.  1.
         12    1    3    3    0    0  0.97205781543E+01 -0.12574309147E+02  0.14191953133E+01  0.15956722894E+02  0.00000000000E+00 0. -1.
</event>
<event>
 7    1  0.5743890E-009  0.4614232E+02  0.7816164E-02  0.1320468E+00
        -11   -1    0    0    0    0  0.00000000000E+00  0.00000000000E+00  0.45593999997E+02  0.45594000000E+02  0.51100000000E-03 0. -1.
         11   -1    0    0    0    0 -0.00000000000E+00 -0.00000000000E+00 -0.45593999997E+02  0.45594000000E+02  0.51100000000E-03 0.  1.
    9900012    2    1    2    0    0 -0.85146855651E+01 -0.13962534986E+02 -0.41972149015E+02  0.46142317116E+02  0.99999941173E+01 0.  0.
         12    1    1    2    0    0  0.85146855651E+01  0.13962534986E+02  0.41972149015E+02  0.45045682884E+02  0.00000000000E+00 0. -1.
         11    1    3    3    0    0 -0.28552104411E+01 -0.11771702307E+01 -0.64590423433E+01  0.71594123131E+01  0.51100000000E-03 0. -1.
        -11    1    3    3    0    0 -0.53871943465E+01 -0.39246115329E+01 -0.10414363408E+02  0.12364602867E+02  0.51100000000E-03 0.  1.
         12    1    3    3    0    0 -0.27228077746E+00 -0.88607532225E+01 -0.25098743264E+02  0.26618301936E+02  0.00000000000E+00 0. -1.
</event>
<event>
 7    1  0.5743890E-009  0.4614232E+02  0.7816164E-02  0.1320468E+00
        -11   -1    0    0    0    0  0.00000000000E+00  0.00000000000E+00  0.45593999997E+02  0.45594000000E+02  0.51100000000E-03 0. -1.
         11   -1    0    0    0    0 -0.00000000000E+00 -0.00000000000E+00 -0.45593999997E+02  0.45594000000E+02  0.51100000000E-03 0.  1.
    9900012    2    1    2    0    0 -0.16331327290E+02 -0.33547865389E+02  0.25237710457E+02  0.46142317051E+02  0.99999935216E+01 0.  0.
        -12    1    1    2    0    0  0.16331327290E+02  0.33547865389E+02 -0.25237710457E+02  0.45045682949E+02  0.00000000000E+00 0.  1.
         11    1    3    3    0    0 -0.35470228610E+01 -0.39366808063E+01  0.63178453723E+00  0.53364762634E+01  0.51100000000E-03 0. -1.
        -11    1    3    3    0    0 -0.33446058468E+01 -0.72172907371E+01  0.85535798678E+01  0.11680727831E+02  0.51100000000E-03 0.  1.
         12    1    3    3    0    0 -0.94396985823E+01 -0.22393893846E+02  0.16052346052E+02  0.29125112956E+02  0.00000000000E+00 0. -1.
</event>
<event>
 7    1  0.5743890E-009  0.4614232E+02  0.7816164E-02  0.1320468E+00
        -11   -1    0    0    0    0  0.00000000000E+00  0.00000000000E+00  0.45593999997E+02  0.45594000000E+02  0.51100000000E-03 0. -1.
         11   -1    0    0    0    0 -0.00000000000E+00 -0.00000000000E+00 -0.45593999997E+02  0.45594000000E+02  0.51100000000E-03 0.  1.
    9900012    2    1    2    0    0 -0.20916240198E+01 -0.16540170001E+02  0.41846880396E+02  0.46142317482E+02  0.99999974504E+01 0.  0.
        -12    1    1    2    0    0  0.20916240198E+01  0.16540170001E+02 -0.41846880396E+02  0.45045682518E+02  0.00000000000E+00 0.  1.
         11    1    3    3    0    0  0.26250410224E+01 -0.54869077813E+01  0.86029666055E+01  0.10536034930E+02  0.51100000000E-03 0.  1.
        -11    1    3    3    0    0  0.41391769095E-01 -0.21767363951E-01 -0.12877734269E+00  0.13700715964E+00  0.51100000000E-03 0. -1.
         12    1    3    3    0    0 -0.47580568113E+01 -0.11031494856E+02  0.33372691133E+02  0.35469275392E+02  0.00000000000E+00 0. -1.
</event>
<event>
 7    1  0.5743890E-009  0.4614232E+02  0.7816164E-02  0.1320468E+00
        -11   -1    0    0    0    0  0.00000000000E+00  0.00000000000E+00  0.45593999997E+02  0.45594000000E+02  0.51100000000E-03 0. -1.
         11   -1    0    0    0    0 -0.00000000000E+00 -0.00000000000E+00 -0.45593999997E+02  0.45594000000E+02  0.51100000000E-03 0.  1.
    9900012    2    1    2    0    0  0.79210203466E+01 -0.26161291136E+02  0.35804437984E+02  0.46142317670E+02  0.99999991687E+01 0.  0.
        -12    1    1    2    0    0 -0.79210203466E+01  0.26161291136E+02 -0.35804437984E+02  0.45045682330E+02  0.00000000000E+00 0.  1.
         11    1    3    3    0    0  0.64007374571E+01 -0.15891961523E+02  0.16870702882E+02  0.24044635515E+02  0.51100000000E-03 0. -1.
        -11    1    3    3    0    0  0.20002993809E+01 -0.12538456515E+01  0.36675377074E+01  0.43616693625E+01  0.51100000000E-03 0.  1.
         12    1    3    3    0    0 -0.48001649135E+00 -0.90154839611E+01  0.15266197395E+02  0.17736012793E+02  0.00000000000E+00 0. -1.
</event>
<event>
 7    1  0.5743890E-009  0.4614232E+02  0.7816164E-02  0.1320468E+00
        -11   -1    0    0    0    0  0.00000000000E+00  0.00000000000E+00  0.45593999997E+02  0.45594000000E+02  0.51100000000E-03 0. -1.
         11   -1    0    0    0    0 -0.00000000000E+00 -0.00000000000E+00 -0.45593999997E+02  0.45594000000E+02  0.51100000000E-03 0.  1.
    9900012    2    1    2    0    0 -0.23079980124E+02  0.56769240982E+01 -0.38264872314E+02  0.46142318709E+02  0.10000008647E+02 0.  0.
         12    1    1    2    0    0  0.23079980124E+02 -0.56769240982E+01  0.38264872314E+02  0.45045681291E+02  0.00000000000E+00 0. -1.
         11    1    3    3    0    0 -0.14080638546E+02  0.68266210256E+00 -0.14657814066E+02  0.20336713669E+02  0.51100000000E-03 0. -1.
        -11    1    3    3    0    0 -0.23589819186E+01  0.53270625213E+00 -0.51654999983E+01  0.57035920381E+01  0.51100000000E-03 0.  1.
         12    1    3    3    0    0 -0.66403596594E+01  0.44615557435E+01 -0.18441558250E+02  0.20102013002E+02  0.00000000000E+00 0. -1.
</event>
<event>
 7    1  0.5743890E-009  0.4614232E+02  0.7816164E-02  0.1320468E+00
        -11   -1    0    0    0    0  0.00000000000E+00  0.00000000000E+00  0.45593999997E+02  0.45594000000E+02  0.51100000000E-03 0. -1.
         11   -1    0    0    0    0 -0.00000000000E+00 -0.00000000000E+00 -0.45593999997E+02  0.45594000000E+02  0.51100000000E-03 0.  1.
    9900012    2    1    2    0    0  0.60025336053E+01  0.13056192148E+00 -0.44643768649E+02  0.46142317240E+02  0.99999952525E+01 0.  0.
         12    1    1    2    0    0 -0.60025336053E+01 -0.13056192148E+00  0.44643768649E+02  0.45045682760E+02  0.00000000000E+00 0. -1.
         11    1    3    3    0    0  0.37495064036E+01 -0.23354887670E+01 -0.29443738838E+02  0.29773260874E+02  0.51100000000E-03 0. -1.
        -11    1    3    3    0    0  0.11411959987E+01 -0.14737448756E+01 -0.63535927406E+01  0.66213588666E+01  0.51100000000E-03 0.  1.
        -12    1    3    3    0    0  0.11118312030E+01  0.39397955641E+01 -0.88464370706E+01  0.97476975001E+01  0.00000000000E+00 0.  1.
</event>
<event>
 7    1  0.5743890E-009  0.4614232E+02  0.7816164E-02  0.1320468E+00
        -11   -1    0    0    0    0  0.00000000000E+00  0.00000000000E+00  0.45593999997E+02  0.45594000000E+02  0.51100000000E-03 0. -1.
         11   -1    0    0    0    0 -0.00000000000E+00 -0.00000000000E+00 -0.45593999997E+02  0.45594000000E+02  0.51100000000E-03 0.  1.
    9900012    2    1    2    0    0 -0.30404402238E+01  0.16754714246E+01 -0.44911713165E+02  0.46142318068E+02  0.10000002801E+02 0.  0.
         12    1    1    2    0    0  0.30404402238E+01 -0.16754714246E+01  0.44911713165E+02  0.45045681932E+02  0.00000000000E+00 0. -1.
         11    1    3    3    0    0 -0.15515946728E+01 -0.71474738333E+00 -0.66409978495E+01  0.68571978642E+01  0.51100000000E-03 0.  1.
        -11    1    3    3    0    0  0.16838578786E+01 -0.53314540142E+00 -0.29065260511E+02  0.29118876871E+02  0.51100000000E-03 0. -1.
         12    1    3    3    0    0 -0.31727034295E+01  0.29233642094E+01 -0.92054548046E+01  0.10166243333E+02  0.00000000000E+00 0. -1.
</event>
<event>
 7    1  0.5743890E-009  0.4614232E+02  0.7816164E-02  0.1320468E+00
        -11   -1    0    0    0    0  0.00000000000E+00  0.00000000000E+00  0.45593999997E+02  0.45594000000E+02  0.51100000000E-03 0. -1.
         11   -1    0    0    0    0 -0.00000000000E+00 -0.00000000000E+00 -0.45593999997E+02  0.45594000000E+02  0.51100000000E-03 0.  1.
    9900012    2    1    2    0    0  0.23352001943E+02  0.18617507252E+02  0.33722186657E+02  0.46142318254E+02  0.10000004495E+02 0.  0.
        -12    1    1    2    0    0 -0.23352001943E+02 -0.18617507252E+02 -0.33722186657E+02  0.45045681746E+02  0.00000000000E+00 0.  1.
         11    1    3    3    0    0  0.14154351422E+02  0.16206362293E+02  0.22129221213E+02  0.30865745977E+02  0.51100000000E-03 0. -1.
        -11    1    3    3    0    0 -0.96371297315E-01  0.39132058305E+00  0.76492759010E+00  0.86460031511E+00  0.51100000000E-03 0.  1.
        -12    1    3    3    0    0  0.92940218181E+01  0.20198243759E+01  0.10828037854E+02  0.14411971962E+02  0.00000000000E+00 0.  1.
</event>
<event>
 7    1  0.5743890E-009  0.4614232E+02  0.7816164E-02  0.1320468E+00
        -11   -1    0    0    0    0  0.00000000000E+00  0.00000000000E+00  0.45593999997E+02  0.45594000000E+02  0.51100000000E-03 0.  1.
         11   -1    0    0    0    0 -0.00000000000E+00 -0.00000000000E+00 -0.45593999997E+02  0.45594000000E+02  0.51100000000E-03 0. -1.
    9900012    2    1    2    0    0 -0.13975161013E+02 -0.42588980093E+02  0.44707011609E+01  0.46142317415E+02  0.99999968415E+01 0.  0.
        -12    1    1    2    0    0  0.13975161013E+02  0.42588980093E+02 -0.44707011609E+01  0.45045682585E+02  0.00000000000E+00 0.  1.
         11    1    3    3    0    0 -0.45447828271E+00 -0.12472479964E+02  0.11384949456E+01  0.12532576669E+02  0.51100000000E-03 0. -1.
        -11    1    3    3    0    0 -0.34145487723E+01 -0.11973931727E+02  0.31413162994E+01  0.12841419419E+02  0.51100000000E-03 0.  1.
        -12    1    3    3    0    0 -0.10106133958E+02 -0.18142568402E+02  0.19088991592E+00  0.20768321327E+02  0.00000000000E+00 0.  1.
</event>
<event>
 7    1  0.5743890E-009  0.4614231E+02  0.7816164E-02  0.1320468E+00
        -11   -1    0    0    0    0  0.00000000000E+00  0.00000000000E+00  0.45593999997E+02  0.45594000000E+02  0.51100000000E-03 0. -1.
         11   -1    0    0    0    0 -0.00000000000E+00 -0.00000000000E+00 -0.45593999997E+02  0.45594000000E+02  0.51100000000E-03 0.  1.
    9900012    2    1    2    0    0  0.15924253283E+02 -0.15681206412E+02  0.39110505832E+02  0.46142314929E+02  0.99999741721E+01 0.  0.
        -12    1    1    2    0    0 -0.15924253283E+02  0.15681206412E+02 -0.39110505832E+02  0.45045685071E+02  0.00000000000E+00 0.  1.
         11    1    3    3    0    0  0.26032134124E+01 -0.18267008549E+01  0.86508747066E+01  0.92168969580E+01  0.51100000000E-03 0. -1.
        -11    1    3    3    0    0  0.41263661168E+00 -0.54457208498E+01  0.83772784083E+01  0.10000246914E+02  0.51100000000E-03 0.  1.
         12    1    3    3    0    0  0.12908403259E+02 -0.84087847069E+01  0.22082352717E+02  0.26925171057E+02  0.00000000000E+00 0. -1.
</event>
<event>
 7    1  0.5743890E-009  0.4614232E+02  0.7816164E-02  0.1320468E+00
        -11   -1    0    0    0    0  0.00000000000E+00  0.00000000000E+00  0.45593999997E+02  0.45594000000E+02  0.51100000000E-03 0. -1.
         11   -1    0    0    0    0 -0.00000000000E+00 -0.00000000000E+00 -0.45593999997E+02  0.45594000000E+02  0.51100000000E-03 0.  1.
    9900012    2    1    2    0    0 -0.37553313872E+02 -0.12367229300E+02 -0.21585035129E+02  0.46142317800E+02  0.10000000357E+02 0.  0.
         12    1    1    2    0    0  0.37553313872E+02  0.12367229300E+02  0.21585035129E+02  0.45045682200E+02  0.00000000000E+00 0. -1.
         11    1    3    3    0    0 -0.30694712635E+02 -0.77438303177E+01 -0.18559081118E+02  0.36695664375E+02  0.51100000000E-03 0. -1.
        -11    1    3    3    0    0 -0.45858446142E+01 -0.11046413321E+01 -0.20633283065E+01  0.51485461307E+01  0.51100000000E-03 0.  1.
         12    1    3    3    0    0 -0.22727566228E+01 -0.35187576503E+01 -0.96262570464E+00  0.42981072945E+01  0.00000000000E+00 0. -1.
</event>
<event>
 7    1  0.5743890E-009  0.4614232E+02  0.7816164E-02  0.1320468E+00
        -11   -1    0    0    0    0  0.00000000000E+00  0.00000000000E+00  0.45593999997E+02  0.45594000000E+02  0.51100000000E-03 0. -1.
         11   -1    0    0    0    0 -0.00000000000E+00 -0.00000000000E+00 -0.45593999997E+02  0.45594000000E+02  0.51100000000E-03 0.  1.
    9900012    2    1    2    0    0  0.12386748150E+02 -0.13817102783E+02 -0.41045941643E+02  0.46142321135E+02  0.10000030770E+02 0.  0.
         12    1    1    2    0    0 -0.12386748150E+02  0.13817102783E+02  0.41045941643E+02  0.45045678865E+02  0.00000000000E+00 0. -1.
         11    1    3    3    0    0  0.58032154561E+01 -0.18506276022E+01 -0.95686597893E+01  0.11342900096E+02  0.51100000000E-03 0. -1.
        -11    1    3    3    0    0  0.12929398446E+01 -0.81568445228E+01 -0.16019425174E+02  0.18022979476E+02  0.51100000000E-03 0.  1.
        -12    1    3    3    0    0  0.52905928490E+01 -0.38096306579E+01 -0.15457856679E+02  0.16776441564E+02  0.00000000000E+00 0.  1.
</event>
<event>
 7    1  0.5743890E-009  0.4614232E+02  0.7816164E-02  0.1320468E+00
        -11   -1    0    0    0    0  0.00000000000E+00  0.00000000000E+00  0.45593999997E+02  0.45594000000E+02  0.51100000000E-03 0. -1.
         11   -1    0    0    0    0 -0.00000000000E+00 -0.00000000000E+00 -0.45593999997E+02  0.45594000000E+02  0.51100000000E-03 0.  1.
    9900012    2    1    2    0    0 -0.13719919867E+02 -0.14931952426E+02  0.40223302889E+02  0.46142317635E+02  0.99999988522E+01 0.  0.
        -12    1    1    2    0    0  0.13719919867E+02  0.14931952426E+02 -0.40223302889E+02  0.45045682365E+02  0.00000000000E+00 0.  1.
         11    1    3    3    0    0 -0.80089274967E+01 -0.67611931836E+01  0.18500372556E+02  0.21263123897E+02  0.51100000000E-03 0. -1.
        -11    1    3    3    0    0 -0.96030770783E+00 -0.56599793933E+01  0.16139624063E+02  0.17130237091E+02  0.51100000000E-03 0.  1.
        -12    1    3    3    0    0 -0.47506846624E+01 -0.25107798494E+01  0.55833062701E+01  0.77489566472E+01  0.00000000000E+00 0.  1.
</event>
<event>
 7    1  0.5743890E-009  0.4614232E+02  0.7816164E-02  0.1320468E+00
        -11   -1    0    0    0    0  0.00000000000E+00  0.00000000000E+00  0.45593999997E+02  0.45594000000E+02  0.51100000000E-03 0. -1.
         11   -1    0    0    0    0 -0.00000000000E+00 -0.00000000000E+00 -0.45593999997E+02  0.45594000000E+02  0.51100000000E-03 0.  1.
    9900012    2    1    2    0    0 -0.16135165959E+02  0.21329635062E+02 -0.36246608014E+02  0.46142317578E+02  0.99999983260E+01 0.  0.
         12    1    1    2    0    0  0.16135165959E+02 -0.21329635062E+02  0.36246608014E+02  0.45045682422E+02  0.00000000000E+00 0. -1.
         11    1    3    3    0    0 -0.67392655242E+00  0.82609835295E+00 -0.68281256686E+01  0.69108549322E+01  0.51100000000E-03 0. -1.
        -11    1    3    3    0    0 -0.34007626702E+01  0.67846026472E+01 -0.10243716107E+02  0.12748715220E+02  0.51100000000E-03 0.  1.
        -12    1    3    3    0    0 -0.12060476737E+02  0.13718934062E+02 -0.19174766238E+02  0.26482747425E+02  0.00000000000E+00 0.  1.
</event>
<event>
 7    1  0.5743890E-009  0.4614232E+02  0.7816164E-02  0.1320468E+00
        -11   -1    0    0    0    0  0.00000000000E+00  0.00000000000E+00  0.45593999997E+02  0.45594000000E+02  0.51100000000E-03 0. -1.
         11   -1    0    0    0    0 -0.00000000000E+00 -0.00000000000E+00 -0.45593999997E+02  0.45594000000E+02  0.51100000000E-03 0.  1.
    9900012    2    1    2    0    0 -0.23167744122E+02  0.17586990855E+02 -0.34395739603E+02  0.46142317433E+02  0.99999970080E+01 0.  0.
         12    1    1    2    0    0  0.23167744122E+02 -0.17586990855E+02  0.34395739603E+02  0.45045682567E+02  0.00000000000E+00 0. -1.
         11    1    3    3    0    0 -0.10538250633E+02  0.68990992701E+01 -0.96727211291E+01  0.15881241496E+02  0.51100000000E-03 0. -1.
        -11    1    3    3    0    0 -0.61354741682E+01  0.87193817876E+01 -0.14853809195E+02  0.18284072574E+02  0.51100000000E-03 0.  1.
         12    1    3    3    0    0 -0.64940193209E+01  0.19685097977E+01 -0.98692092793E+01  0.11977003363E+02  0.00000000000E+00 0. -1.
</event>
<event>
 7    1  0.5743890E-009  0.4614232E+02  0.7816164E-02  0.1320468E+00
        -11   -1    0    0    0    0  0.00000000000E+00  0.00000000000E+00  0.45593999997E+02  0.45594000000E+02  0.51100000000E-03 0. -1.
         11   -1    0    0    0    0 -0.00000000000E+00 -0.00000000000E+00 -0.45593999997E+02  0.45594000000E+02  0.51100000000E-03 0.  1.
    9900012    2    1    2    0    0 -0.24629289112E+02  0.36601758838E+02 -0.91007107119E+01  0.46142316881E+02  0.99999919760E+01 0.  0.
         12    1    1    2    0    0  0.24629289112E+02 -0.36601758838E+02  0.91007107119E+01  0.45045683119E+02  0.00000000000E+00 0. -1.
         11    1    3    3    0    0 -0.62048879957E+00  0.36687290652E+01 -0.11322289826E+01  0.38892829718E+01  0.51100000000E-03 0. -1.
        -11    1    3    3    0    0 -0.21379327304E+02  0.29404198787E+02 -0.95302590983E+01  0.37583352445E+02  0.51100000000E-03 0.  1.
        -12    1    3    3    0    0 -0.26294730087E+01  0.35288309856E+01  0.15617773690E+01  0.46696814644E+01  0.00000000000E+00 0.  1.
</event>
<event>
 7    1  0.5743890E-009  0.4614232E+02  0.7816164E-02  0.1320468E+00
        -11   -1    0    0    0    0  0.00000000000E+00  0.00000000000E+00  0.45593999997E+02  0.45594000000E+02  0.51100000000E-03 0. -1.
         11   -1    0    0    0    0 -0.00000000000E+00 -0.00000000000E+00 -0.45593999997E+02  0.45594000000E+02  0.51100000000E-03 0.  1.
    9900012    2    1    2    0    0 -0.37779320317E+02 -0.37198658761E+01 -0.24248687339E+02  0.46142320035E+02  0.10000020739E+02 0.  0.
         12    1    1    2    0    0  0.37779320317E+02  0.37198658761E+01  0.24248687339E+02  0.45045679965E+02  0.00000000000E+00 0. -1.
         11    1    3    3    0    0 -0.70460172385E+01 -0.43848225443E+01 -0.55955189329E+01  0.10009138827E+02  0.51100000000E-03 0. -1.
        -11    1    3    3    0    0 -0.10343571593E+02 -0.12983227889E+01 -0.54587036588E+01  0.11767436478E+02  0.51100000000E-03 0.  1.
        -12    1    3    3    0    0 -0.20389731485E+02  0.19632794572E+01 -0.13194464748E+02  0.24365744730E+02  0.00000000000E+00 0.  1.
</event>
<event>
 7    1  0.5743890E-009  0.4614232E+02  0.7816164E-02  0.1320468E+00
        -11   -1    0    0    0    0  0.00000000000E+00  0.00000000000E+00  0.45593999997E+02  0.45594000000E+02  0.51100000000E-03 0. -1.
         11   -1    0    0    0    0 -0.00000000000E+00 -0.00000000000E+00 -0.45593999997E+02  0.45594000000E+02  0.51100000000E-03 0.  1.
    9900012    2    1    2    0    0  0.43358278644E+02 -0.11100232913E+02 -0.50948376239E+01  0.46142324646E+02  0.10000062786E+02 0.  0.
         12    1    1    2    0    0 -0.43358278644E+02  0.11100232913E+02  0.50948376239E+01  0.45045675354E+02  0.00000000000E+00 0. -1.
         11    1    3    3    0    0  0.26942261567E+01  0.56938671355E+00 -0.20821510875E+01  0.34523049148E+01  0.51100000000E-03 0. -1.
        -11    1    3    3    0    0  0.23433918897E+02 -0.53233019071E+01  0.29494798644E+00  0.24032750418E+02  0.51100000000E-03 0.  1.
        -12    1    3    3    0    0  0.17230133590E+02 -0.63463177190E+01 -0.33076345229E+01  0.18657269314E+02  0.00000000000E+00 0.  1.
</event>
<event>
 7    1  0.5743890E-009  0.4614232E+02  0.7816164E-02  0.1320468E+00
        -11   -1    0    0    0    0  0.00000000000E+00  0.00000000000E+00  0.45593999997E+02  0.45594000000E+02  0.51100000000E-03 0. -1.
         11   -1    0    0    0    0 -0.00000000000E+00 -0.00000000000E+00 -0.45593999997E+02  0.45594000000E+02  0.51100000000E-03 0.  1.
    9900012    2    1    2    0    0 -0.23481496245E+02  0.34467730222E+02  0.17020820712E+02  0.46142318406E+02  0.10000005879E+02 0.  0.
        -12    1    1    2    0    0  0.23481496245E+02 -0.34467730222E+02 -0.17020820712E+02  0.45045681594E+02  0.00000000000E+00 0.  1.
         11    1    3    3    0    0 -0.64485186972E+00  0.99366471636E+00 -0.34804943109E+00  0.12346425272E+01  0.51100000000E-03 0.  1.
        -11    1    3    3    0    0 -0.84133292496E+01  0.11747170334E+02  0.10729386952E+02  0.17997218245E+02  0.51100000000E-03 0. -1.
         12    1    3    3    0    0 -0.14423315126E+02  0.21726895172E+02  0.66394831909E+01  0.26910457634E+02  0.00000000000E+00 0. -1.
</event>
<event>
 7    1  0.8918375E-009  0.4614232E+02  0.7816164E-02  0.1320468E+00
        -11   -1    0    0    0    0  0.00000000000E+00  0.00000000000E+00  0.45593999997E+02  0.45594000000E+02  0.51100000000E-03 0. -1.
         11   -1    0    0    0    0 -0.00000000000E+00 -0.00000000000E+00 -0.45593999997E+02  0.45594000000E+02  0.51100000000E-03 0.  1.
    9900012    2    1    2    0    0  0.18818601332E+02 -0.13230791503E+02  0.38728798521E+02  0.46142318356E+02  0.10000005426E+02 0.  0.
        -12    1    1    2    0    0 -0.18818601332E+02  0.13230791503E+02 -0.38728798521E+02  0.45045681644E+02  0.00000000000E+00 0.  1.
         11    1    3    3    0    0  0.70258479111E+01 -0.53621876258E+01  0.14463195282E+02  0.16949914838E+02  0.51100000000E-03 0. -1.
        -11    1    3    3    0    0  0.10614717073E+02 -0.46951114305E+01  0.22629920551E+02  0.25432844794E+02  0.51100000000E-03 0.  1.
        -12    1    3    3    0    0  0.11780363485E+01 -0.31734924464E+01  0.16356826876E+01  0.37595587242E+01  0.00000000000E+00 0.  1.
</event>
<event>
 7    1  0.5743890E-009  0.4614232E+02  0.7816164E-02  0.1320468E+00
        -11   -1    0    0    0    0  0.00000000000E+00  0.00000000000E+00  0.45593999997E+02  0.45594000000E+02  0.51100000000E-03 0. -1.
         11   -1    0    0    0    0 -0.00000000000E+00 -0.00000000000E+00 -0.45593999997E+02  0.45594000000E+02  0.51100000000E-03 0.  1.
    9900012    2    1    2    0    0 -0.11223073987E+02  0.30607391556E+02 -0.31086067621E+02  0.46142318657E+02  0.10000008165E+02 0.  0.
         12    1    1    2    0    0  0.11223073987E+02 -0.30607391556E+02  0.31086067621E+02  0.45045681343E+02  0.00000000000E+00 0. -1.
         11    1    3    3    0    0 -0.74245029572E+00 -0.17337463288E+00 -0.99855790520E+00  0.12563476255E+01  0.51100000000E-03 0. -1.
        -11    1    3    3    0    0 -0.69589087497E+01  0.20274003705E+02 -0.14982640718E+02  0.26152268742E+02  0.51100000000E-03 0.  1.
         12    1    3    3    0    0 -0.35217149417E+01  0.10506762484E+02 -0.15104868997E+02  0.18733702289E+02  0.00000000000E+00 0. -1.
</event>
<event>
 7    1  0.5743890E-009  0.4614232E+02  0.7816164E-02  0.1320468E+00
        -11   -1    0    0    0    0  0.00000000000E+00  0.00000000000E+00  0.45593999997E+02  0.45594000000E+02  0.51100000000E-03 0. -1.
         11   -1    0    0    0    0 -0.00000000000E+00 -0.00000000000E+00 -0.45593999997E+02  0.45594000000E+02  0.51100000000E-03 0.  1.
    9900012    2    1    2    0    0  0.90316250971E+00 -0.30132774012E+02  0.33471088070E+02  0.46142317535E+02  0.99999979381E+01 0.  0.
        -12    1    1    2    0    0 -0.90316250971E+00  0.30132774012E+02 -0.33471088070E+02  0.45045682465E+02  0.00000000000E+00 0.  1.
         11    1    3    3    0    0 -0.13670992794E+01 -0.19887248525E+02  0.24319937786E+02  0.31445683146E+02  0.51100000000E-03 0. -1.
        -11    1    3    3    0    0 -0.51367178763E+00 -0.99093546723E+00 -0.32414326050E+00  0.11622740297E+01  0.51100000000E-03 0.  1.
        -12    1    3    3    0    0  0.27839335767E+01 -0.92545900194E+01  0.94752935445E+01  0.13534360359E+02  0.00000000000E+00 0.  1.
</event>
<event>
 7    1  0.5743890E-009  0.4614232E+02  0.7816164E-02  0.1320468E+00
        -11   -1    0    0    0    0  0.00000000000E+00  0.00000000000E+00  0.45593999997E+02  0.45594000000E+02  0.51100000000E-03 0. -1.
         11   -1    0    0    0    0 -0.00000000000E+00 -0.00000000000E+00 -0.45593999997E+02  0.45594000000E+02  0.51100000000E-03 0.  1.
    9900012    2    1    2    0    0 -0.20977632034E+02 -0.29676951357E+02 -0.26614488527E+02  0.46142317775E+02  0.10000000128E+02 0.  0.
         12    1    1    2    0    0  0.20977632034E+02  0.29676951357E+02  0.26614488527E+02  0.45045682225E+02  0.00000000000E+00 0. -1.
         11    1    3    3    0    0 -0.14397065993E+02 -0.12737515743E+02 -0.12404415759E+02  0.22877704148E+02  0.51100000000E-03 0. -1.
        -11    1    3    3    0    0 -0.61960494382E+01 -0.13027550995E+02 -0.10343924935E+02  0.17751194239E+02  0.51100000000E-03 0.  1.
         12    1    3    3    0    0 -0.38451660239E+00 -0.39118846186E+01 -0.38661478332E+01  0.55134193887E+01  0.00000000000E+00 0. -1.
</event>
<event>
 7    1  0.5743890E-009  0.4614232E+02  0.7816164E-02  0.1320468E+00
        -11   -1    0    0    0    0  0.00000000000E+00  0.00000000000E+00  0.45593999997E+02  0.45594000000E+02  0.51100000000E-03 0. -1.
         11   -1    0    0    0    0 -0.00000000000E+00 -0.00000000000E+00 -0.45593999997E+02  0.45594000000E+02  0.51100000000E-03 0.  1.
    9900012    2    1    2    0    0 -0.34336196294E+02  0.18265865341E+02  0.22726576528E+02  0.46142317707E+02  0.99999995062E+01 0.  0.
        -12    1    1    2    0    0  0.34336196294E+02 -0.18265865341E+02 -0.22726576528E+02  0.45045682293E+02  0.00000000000E+00 0.  1.
         11    1    3    3    0    0 -0.27678812994E+02  0.14536636906E+02  0.16757386376E+02  0.35471685888E+02  0.51100000000E-03 0. -1.
        -11    1    3    3    0    0 -0.51631483955E+01  0.47574349182E+01  0.45321100386E+01  0.83565130298E+01  0.51100000000E-03 0.  1.
        -12    1    3    3    0    0 -0.14942349039E+01 -0.10282064830E+01  0.14370801129E+01  0.23141187893E+01  0.00000000000E+00 0.  1.
</event>
<event>
 7    1  0.5743890E-009  0.4614232E+02  0.7816164E-02  0.1320468E+00
        -11   -1    0    0    0    0  0.00000000000E+00  0.00000000000E+00  0.45593999997E+02  0.45594000000E+02  0.51100000000E-03 0.  1.
         11   -1    0    0    0    0 -0.00000000000E+00 -0.00000000000E+00 -0.45593999997E+02  0.45594000000E+02  0.51100000000E-03 0. -1.
    9900012    2    1    2    0    0 -0.77170157785E-01  0.45043207862E+02 -0.46577876583E+00  0.46142317859E+02  0.10000000891E+02 0.  0.
        -12    1    1    2    0    0  0.77170157785E-01 -0.45043207862E+02  0.46577876583E+00  0.45045682141E+02  0.00000000000E+00 0.  1.
         11    1    3    3    0    0 -0.22326688711E+00  0.20695390802E+02  0.19955389750E+01  0.20792576190E+02  0.51100000000E-03 0. -1.
        -11    1    3    3    0    0 -0.17015249793E+01  0.81060604302E+01  0.17585324636E+01  0.84673395845E+01  0.51100000000E-03 0.  1.
         12    1    3    3    0    0  0.18476217086E+01  0.16241756629E+02 -0.42198502044E+01  0.16882402084E+02  0.00000000000E+00 0. -1.
</event>
<event>
 7    1  0.5743890E-009  0.4614232E+02  0.7816164E-02  0.1320468E+00
        -11   -1    0    0    0    0  0.00000000000E+00  0.00000000000E+00  0.45593999997E+02  0.45594000000E+02  0.51100000000E-03 0. -1.
         11   -1    0    0    0    0 -0.00000000000E+00 -0.00000000000E+00 -0.45593999997E+02  0.45594000000E+02  0.51100000000E-03 0.  1.
    9900012    2    1    2    0    0  0.24519107732E+02 -0.75922509091E+01 -0.37017354306E+02  0.46142318324E+02  0.10000005134E+02 0.  0.
         12    1    1    2    0    0 -0.24519107732E+02  0.75922509091E+01  0.37017354306E+02  0.45045681676E+02  0.00000000000E+00 0. -1.
         11    1    3    3    0    0 -0.34953058832E-01 -0.11379471013E+01 -0.54866530110E+01  0.56035262867E+01  0.51100000000E-03 0. -1.
        -11    1    3    3    0    0  0.11376812676E+02 -0.21054844045E+01 -0.13309186232E+02  0.17635174217E+02  0.51100000000E-03 0.  1.
         12    1    3    3    0    0  0.13177248115E+02 -0.43488194033E+01 -0.18221515063E+02  0.22903617821E+02  0.00000000000E+00 0. -1.
</event>
<event>
 7    1  0.5743890E-009  0.4614232E+02  0.7816164E-02  0.1320468E+00
        -11   -1    0    0    0    0  0.00000000000E+00  0.00000000000E+00  0.45593999997E+02  0.45594000000E+02  0.51100000000E-03 0. -1.
         11   -1    0    0    0    0 -0.00000000000E+00 -0.00000000000E+00 -0.45593999997E+02  0.45594000000E+02  0.51100000000E-03 0.  1.
    9900012    2    1    2    0    0  0.36080585100E+02  0.55886997938E+00  0.26962799222E+02  0.46142317646E+02  0.99999989501E+01 0.  0.
        -12    1    1    2    0    0 -0.36080585100E+02 -0.55886997938E+00 -0.26962799222E+02  0.45045682354E+02  0.00000000000E+00 0.  1.
         11    1    3    3    0    0  0.15360153007E+02  0.37246100478E+01  0.13624133648E+02  0.20866816680E+02  0.51100000000E-03 0. -1.
        -11    1    3    3    0    0  0.10872358313E+02  0.30092577619E+00  0.53012109900E+01  0.12099651641E+02  0.51100000000E-03 0.  1.
         12    1    3    3    0    0  0.98480737799E+01 -0.34666658446E+01  0.80374545842E+01  0.13175849325E+02  0.00000000000E+00 0. -1.
</event>
<event>
 7    1  0.5743890E-009  0.4614232E+02  0.7816164E-02  0.1320468E+00
        -11   -1    0    0    0    0  0.00000000000E+00  0.00000000000E+00  0.45593999997E+02  0.45594000000E+02  0.51100000000E-03 0. -1.
         11   -1    0    0    0    0 -0.00000000000E+00 -0.00000000000E+00 -0.45593999997E+02  0.45594000000E+02  0.51100000000E-03 0.  1.
    9900012    2    1    2    0    0 -0.43489841362E+01 -0.17994347353E+02  0.41065843918E+02  0.46142315008E+02  0.99999748964E+01 0.  0.
        -12    1    1    2    0    0  0.43489841362E+01  0.17994347353E+02 -0.41065843918E+02  0.45045684992E+02  0.00000000000E+00 0.  1.
         11    1    3    3    0    0 -0.26913036497E+01 -0.74279360490E+01  0.18426012788E+02  0.20048324040E+02  0.51100000000E-03 0. -1.
        -11    1    3    3    0    0 -0.24369128976E+01 -0.59046058754E-01  0.41624346863E+01  0.48236805125E+01  0.51100000000E-03 0.  1.
         12    1    3    3    0    0  0.77923241110E+00 -0.10507365245E+02  0.18477396444E+02  0.21270310456E+02  0.00000000000E+00 0. -1.
</event>
<event>
 7    1  0.5743890E-009  0.4614232E+02  0.7816164E-02  0.1320468E+00
        -11   -1    0    0    0    0  0.00000000000E+00  0.00000000000E+00  0.45593999997E+02  0.45594000000E+02  0.51100000000E-03 0.  1.
         11   -1    0    0    0    0 -0.00000000000E+00 -0.00000000000E+00 -0.45593999997E+02  0.45594000000E+02  0.51100000000E-03 0. -1.
    9900012    2    1    2    0    0  0.42695882245E+02 -0.72407017829E+01 -0.12399491954E+02  0.46142317369E+02  0.99999964204E+01 0.  0.
         12    1    1    2    0    0 -0.42695882245E+02  0.72407017829E+01  0.12399491954E+02  0.45045682631E+02  0.00000000000E+00 0. -1.
         11    1    3    3    0    0  0.68985395199E+00 -0.93032272650E+00 -0.13219277634E+01  0.17575244303E+01  0.51100000000E-03 0. -1.
        -11    1    3    3    0    0  0.43698708027E+01  0.59458500049E-01  0.72580382334E+00  0.44301351669E+01  0.51100000000E-03 0.  1.
        -12    1    3    3    0    0  0.37636157491E+02 -0.63698375564E+01 -0.11803368014E+02  0.39954657771E+02  0.00000000000E+00 0.  1.
</event>
<event>
 7    1  0.5743890E-009  0.4614232E+02  0.7816164E-02  0.1320468E+00
        -11   -1    0    0    0    0  0.00000000000E+00  0.00000000000E+00  0.45593999997E+02  0.45594000000E+02  0.51100000000E-03 0. -1.
         11   -1    0    0    0    0 -0.00000000000E+00 -0.00000000000E+00 -0.45593999997E+02  0.45594000000E+02  0.51100000000E-03 0.  1.
    9900012    2    1    2    0    0  0.61162715563E-01 -0.36790082750E+02  0.25992299066E+02  0.46142317184E+02  0.99999947369E+01 0.  0.
        -12    1    1    2    0    0 -0.61162715563E-01  0.36790082750E+02 -0.25992299066E+02  0.45045682816E+02  0.00000000000E+00 0.  1.
         11    1    3    3    0    0 -0.99154647027E+00 -0.15954546431E+02  0.11424014167E+02  0.19647870525E+02  0.51100000000E-03 0. -1.
        -11    1    3    3    0    0  0.90100174598E-01 -0.13936467717E+02  0.13579762158E+02  0.19458756152E+02  0.51100000000E-03 0.  1.
        -12    1    3    3    0    0  0.96260901124E+00 -0.68990686030E+01  0.98852273999E+00  0.70356905066E+01  0.00000000000E+00 0.  1.
</event>
<event>
 7    1  0.5743890E-009  0.4614232E+02  0.7816164E-02  0.1320468E+00
        -11   -1    0    0    0    0  0.00000000000E+00  0.00000000000E+00  0.45593999997E+02  0.45594000000E+02  0.51100000000E-03 0. -1.
         11   -1    0    0    0    0 -0.00000000000E+00 -0.00000000000E+00 -0.45593999997E+02  0.45594000000E+02  0.51100000000E-03 0.  1.
    9900012    2    1    2    0    0 -0.33779507727E+02  0.18179749883E+02  0.23612604426E+02  0.46142317234E+02  0.99999951931E+01 0.  0.
        -12    1    1    2    0    0  0.33779507727E+02 -0.18179749883E+02 -0.23612604426E+02  0.45045682766E+02  0.00000000000E+00 0.  1.
         11    1    3    3    0    0 -0.21633422407E+02  0.99349104831E+01  0.19077886541E+02  0.30506936367E+02  0.51100000000E-03 0. -1.
        -11    1    3    3    0    0 -0.94861939402E+01  0.58068165860E+01  0.45761125843E+01  0.12026961419E+02  0.51100000000E-03 0.  1.
         12    1    3    3    0    0 -0.26598913795E+01  0.24380228136E+01 -0.41394699239E-01  0.36084194478E+01  0.00000000000E+00 0. -1.
</event>
<event>
 7    1  0.5743890E-009  0.4614232E+02  0.7816164E-02  0.1320468E+00
        -11   -1    0    0    0    0  0.00000000000E+00  0.00000000000E+00  0.45593999997E+02  0.45594000000E+02  0.51100000000E-03 0.  1.
         11   -1    0    0    0    0 -0.00000000000E+00 -0.00000000000E+00 -0.45593999997E+02  0.45594000000E+02  0.51100000000E-03 0. -1.
    9900012    2    1    2    0    0 -0.30357757861E+02 -0.29524599509E+02  0.15356366564E+02  0.46142318380E+02  0.10000005647E+02 0.  0.
         12    1    1    2    0    0  0.30357757861E+02  0.29524599509E+02 -0.15356366564E+02  0.45045681620E+02  0.00000000000E+00 0. -1.
         11    1    3    3    0    0  0.39933150675E+00 -0.29172261265E-02 -0.15302426896E+00  0.42765739852E+00  0.51100000000E-03 0. -1.
        -11    1    3    3    0    0 -0.24958225068E+02 -0.25372167399E+02  0.10891726563E+02  0.37219478568E+02  0.51100000000E-03 0.  1.
        -12    1    3    3    0    0 -0.57988642990E+01 -0.41495148847E+01  0.46176642700E+01  0.84951824140E+01  0.00000000000E+00 0.  1.
</event>
<event>
 7    1  0.5743890E-009  0.4614232E+02  0.7816164E-02  0.1320468E+00
        -11   -1    0    0    0    0  0.00000000000E+00  0.00000000000E+00  0.45593999997E+02  0.45594000000E+02  0.51100000000E-03 0. -1.
         11   -1    0    0    0    0 -0.00000000000E+00 -0.00000000000E+00 -0.45593999997E+02  0.45594000000E+02  0.51100000000E-03 0.  1.
    9900012    2    1    2    0    0  0.37394792729E+02 -0.12653784975E+02 -0.21693882438E+02  0.46142319489E+02  0.10000015757E+02 0.  0.
         12    1    1    2    0    0 -0.37394792729E+02  0.12653784975E+02  0.21693882438E+02  0.45045680511E+02  0.00000000000E+00 0. -1.
         11    1    3    3    0    0  0.63201278694E+01 -0.32828099119E+01 -0.35917177742E+01  0.79762957589E+01  0.51100000000E-03 0.  1.
        -11    1    3    3    0    0  0.17929237434E+02 -0.36630859800E+01 -0.55708040870E+01  0.19128764003E+02  0.51100000000E-03 0. -1.
        -12    1    3    3    0    0  0.13145427426E+02 -0.57078890833E+01 -0.12531360577E+02  0.19037259727E+02  0.00000000000E+00 0.  1.
</event>
<event>
 7    1  0.5743890E-009  0.4614232E+02  0.7816164E-02  0.1320468E+00
        -11   -1    0    0    0    0  0.00000000000E+00  0.00000000000E+00  0.45593999997E+02  0.45594000000E+02  0.51100000000E-03 0. -1.
         11   -1    0    0    0    0 -0.00000000000E+00 -0.00000000000E+00 -0.45593999997E+02  0.45594000000E+02  0.51100000000E-03 0.  1.
    9900012    2    1    2    0    0  0.15176966160E+01 -0.82664407547E+01  0.44254672576E+02  0.46142317737E+02  0.99999997766E+01 0.  0.
        -12    1    1    2    0    0 -0.15176966160E+01  0.82664407547E+01 -0.44254672576E+02  0.45045682263E+02  0.00000000000E+00 0.  1.
         11    1    3    3    0    0  0.16681699933E+01 -0.30264453201E+01  0.51464124124E+01  0.61990098711E+01  0.51100000000E-03 0. -1.
        -11    1    3    3    0    0  0.14535535723E+01 -0.22448798632E+01  0.50360192131E+01  0.57020867552E+01  0.51100000000E-03 0.  1.
         12    1    3    3    0    0 -0.16040269496E+01 -0.29951155713E+01  0.34072240950E+02  0.34241221110E+02  0.00000000000E+00 0. -1.
</event>
<event>
 7    1  0.5743890E-009  0.4614232E+02  0.7816164E-02  0.1320468E+00
        -11   -1    0    0    0    0  0.00000000000E+00  0.00000000000E+00  0.45593999997E+02  0.45594000000E+02  0.51100000000E-03 0. -1.
         11   -1    0    0    0    0 -0.00000000000E+00 -0.00000000000E+00 -0.45593999997E+02  0.45594000000E+02  0.51100000000E-03 0.  1.
    9900012    2    1    2    0    0 -0.33642051823E+02 -0.11037379263E+02  0.27847837217E+02  0.46142318415E+02  0.10000005960E+02 0.  0.
        -12    1    1    2    0    0  0.33642051823E+02  0.11037379263E+02 -0.27847837217E+02  0.45045681585E+02  0.00000000000E+00 0.  1.
         11    1    3    3    0    0 -0.24439548832E+02 -0.70578888393E+01  0.23027576611E+02  0.34312893011E+02  0.51100000000E-03 0. -1.
        -11    1    3    3    0    0 -0.80259627196E+01 -0.31135430701E+01  0.55025810576E+01  0.10217075246E+02  0.51100000000E-03 0.  1.
        -12    1    3    3    0    0 -0.11765402718E+01 -0.86594735324E+00 -0.68232045253E+00  0.16123501573E+01  0.00000000000E+00 0.  1.
</event>
<event>
 7    1  0.5743890E-009  0.4614232E+02  0.7816164E-02  0.1320468E+00
        -11   -1    0    0    0    0  0.00000000000E+00  0.00000000000E+00  0.45593999997E+02  0.45594000000E+02  0.51100000000E-03 0. -1.
         11   -1    0    0    0    0 -0.00000000000E+00 -0.00000000000E+00 -0.45593999997E+02  0.45594000000E+02  0.51100000000E-03 0.  1.
    9900012    2    1    2    0    0 -0.24183846334E+02 -0.29657874402E+02  0.23762692095E+02  0.46142317930E+02  0.10000001538E+02 0.  0.
        -12    1    1    2    0    0  0.24183846334E+02  0.29657874402E+02 -0.23762692095E+02  0.45045682070E+02  0.00000000000E+00 0.  1.
         11    1    3    3    0    0 -0.45725338960E+01 -0.62492185559E+01  0.44407564259E+01  0.89264279914E+01  0.51100000000E-03 0. -1.
        -11    1    3    3    0    0 -0.11094494706E+02 -0.11796098009E+02  0.15265108956E+02  0.22254421869E+02  0.51100000000E-03 0.  1.
        -12    1    3    3    0    0 -0.85168177320E+01 -0.11612557838E+02  0.40568267126E+01  0.14961468069E+02  0.00000000000E+00 0.  1.
</event>
<event>
 7    1  0.7576819E-009  0.4614232E+02  0.7816164E-02  0.1320468E+00
        -11   -1    0    0    0    0  0.00000000000E+00  0.00000000000E+00  0.45593999997E+02  0.45594000000E+02  0.51100000000E-03 0. -1.
         11   -1    0    0    0    0 -0.00000000000E+00 -0.00000000000E+00 -0.45593999997E+02  0.45594000000E+02  0.51100000000E-03 0.  1.
    9900012    2    1    2    0    0 -0.11481627430E+02  0.35105784754E+01  0.43416144688E+02  0.46142317086E+02  0.99999938410E+01 0.  0.
        -12    1    1    2    0    0  0.11481627430E+02 -0.35105784754E+01 -0.43416144688E+02  0.45045682914E+02  0.00000000000E+00 0.  1.
         11    1    3    3    0    0 -0.80910029770E+01 -0.96800474976E+00  0.20943602390E+02  0.22473002552E+02  0.51100000000E-03 0. -1.
        -11    1    3    3    0    0 -0.35315775512E+01  0.64077726893E+00  0.11091892998E+02  0.11658161350E+02  0.51100000000E-03 0.  1.
        -12    1    3    3    0    0  0.14095309841E+00  0.38378059562E+01  0.11380649299E+02  0.12011153184E+02  0.00000000000E+00 0.  1.
</event>
<event>
 7    1  0.5743890E-009  0.4614232E+02  0.7816164E-02  0.1320468E+00
        -11   -1    0    0    0    0  0.00000000000E+00  0.00000000000E+00  0.45593999997E+02  0.45594000000E+02  0.51100000000E-03 0. -1.
         11   -1    0    0    0    0 -0.00000000000E+00 -0.00000000000E+00 -0.45593999997E+02  0.45594000000E+02  0.51100000000E-03 0.  1.
    9900012    2    1    2    0    0  0.39195142847E+02 -0.38005741540E+01  0.21872582299E+02  0.46142318264E+02  0.10000004582E+02 0.  0.
        -12    1    1    2    0    0 -0.39195142847E+02  0.38005741540E+01 -0.21872582299E+02  0.45045681736E+02  0.00000000000E+00 0.  1.
         11    1    3    3    0    0  0.24982531375E+02 -0.38952665980E+01  0.13245107692E+02  0.28543525602E+02  0.51100000000E-03 0. -1.
        -11    1    3    3    0    0  0.10215568910E+02  0.14729915180E+01  0.33813312080E+01  0.10860983067E+02  0.51100000000E-03 0.  1.
         12    1    3    3    0    0  0.39970425617E+01 -0.13782990740E+01  0.52461433987E+01  0.67378095949E+01  0.00000000000E+00 0. -1.
</event>
<event>
 7    1  0.5743890E-009  0.4614232E+02  0.7816164E-02  0.1320468E+00
        -11   -1    0    0    0    0  0.00000000000E+00  0.00000000000E+00  0.45593999997E+02  0.45594000000E+02  0.51100000000E-03 0. -1.
         11   -1    0    0    0    0 -0.00000000000E+00 -0.00000000000E+00 -0.45593999997E+02  0.45594000000E+02  0.51100000000E-03 0.  1.
    9900012    2    1    2    0    0 -0.33685037018E+02  0.15316240172E+02  0.25687440808E+02  0.46142317108E+02  0.99999940467E+01 0.  0.
        -12    1    1    2    0    0  0.33685037018E+02 -0.15316240172E+02 -0.25687440808E+02  0.45045682892E+02  0.00000000000E+00 0.  1.
         11    1    3    3    0    0 -0.50850859942E+01  0.33971801801E+01  0.55219435893E+01  0.82395870048E+01  0.51100000000E-03 0.  1.
        -11    1    3    3    0    0 -0.34916384651E+01 -0.12358087387E+01  0.17190623496E+01  0.40833733643E+01  0.51100000000E-03 0. -1.
         12    1    3    3    0    0 -0.25108312559E+02  0.13154868731E+02  0.18446434869E+02  0.33819356739E+02  0.00000000000E+00 0. -1.
</event>
<event>
 7    1  0.5743890E-009  0.4614232E+02  0.7816164E-02  0.1320468E+00
        -11   -1    0    0    0    0  0.00000000000E+00  0.00000000000E+00  0.45593999997E+02  0.45594000000E+02  0.51100000000E-03 0. -1.
         11   -1    0    0    0    0 -0.00000000000E+00 -0.00000000000E+00 -0.45593999997E+02  0.45594000000E+02  0.51100000000E-03 0.  1.
    9900012    2    1    2    0    0  0.32735031200E+02 -0.16121934791E+02  0.26412390700E+02  0.46142318392E+02  0.10000005752E+02 0.  0.
        -12    1    1    2    0    0 -0.32735031200E+02  0.16121934791E+02 -0.26412390700E+02  0.45045681608E+02  0.00000000000E+00 0.  1.
         11    1    3    3    0    0  0.31903925603E+02 -0.16296173952E+02  0.24818743361E+02  0.43582057967E+02  0.51100000000E-03 0. -1.
        -11    1    3    3    0    0  0.50512070213E+00 -0.68994904023E+00  0.13617583727E+01  0.16079685098E+01  0.51100000000E-03 0.  1.
         12    1    3    3    0    0  0.32598489475E+00  0.86418820141E+00  0.23188896602E+00  0.95229191513E+00  0.00000000000E+00 0. -1.
</event>
<event>
 7    1  0.5743890E-009  0.4614232E+02  0.7816164E-02  0.1320468E+00
        -11   -1    0    0    0    0  0.00000000000E+00  0.00000000000E+00  0.45593999997E+02  0.45594000000E+02  0.51100000000E-03 0. -1.
         11   -1    0    0    0    0 -0.00000000000E+00 -0.00000000000E+00 -0.45593999997E+02  0.45594000000E+02  0.51100000000E-03 0.  1.
    9900012    2    1    2    0    0  0.14473408618E+02 -0.21858391378E+02 -0.36631197519E+02  0.46142318050E+02  0.10000002635E+02 0.  0.
         12    1    1    2    0    0 -0.14473408618E+02  0.21858391378E+02  0.36631197519E+02  0.45045681950E+02  0.00000000000E+00 0. -1.
         11    1    3    3    0    0  0.58068717825E+01 -0.72557475392E+01 -0.65363335965E+01  0.11361746758E+02  0.51100000000E-03 0. -1.
        -11    1    3    3    0    0  0.64672909028E+01 -0.85342589108E+01 -0.15689639453E+02  0.18995373468E+02  0.51100000000E-03 0.  1.
        -12    1    3    3    0    0  0.21992459331E+01 -0.60683849277E+01 -0.14405224470E+02  0.15785197824E+02  0.00000000000E+00 0.  1.
</event>
<event>
 7    1  0.5743890E-009  0.4614233E+02  0.7816164E-02  0.1320468E+00
        -11   -1    0    0    0    0  0.00000000000E+00  0.00000000000E+00  0.45593999997E+02  0.45594000000E+02  0.51100000000E-03 0.  1.
         11   -1    0    0    0    0 -0.00000000000E+00 -0.00000000000E+00 -0.45593999997E+02  0.45594000000E+02  0.51100000000E-03 0. -1.
    9900012    2    1    2    0    0  0.45042209173E+02  0.53588549720E+00 -0.15631854274E+00  0.46142331885E+02  0.10000128790E+02 0.  0.
        -12    1    1    2    0    0 -0.45042209173E+02 -0.53588549720E+00  0.15631854274E+00  0.45045668115E+02  0.00000000000E+00 0.  1.
         11    1    3    3    0    0  0.39751825108E+02 -0.50051662360E-01 -0.23030645260E+01  0.39818515932E+02  0.51100000000E-03 0. -1.
        -11    1    3    3    0    0  0.10443062633E+00 -0.58739671939E+00  0.19174910592E-01  0.59691590696E+00  0.51100000000E-03 0.  1.
         12    1    3    3    0    0  0.51859534389E+01  0.11733338790E+01  0.21275710727E+01  0.57269000455E+01  0.00000000000E+00 0. -1.
</event>
<event>
 7    1  0.5743890E-009  0.4614232E+02  0.7816164E-02  0.1320468E+00
        -11   -1    0    0    0    0  0.00000000000E+00  0.00000000000E+00  0.45593999997E+02  0.45594000000E+02  0.51100000000E-03 0. -1.
         11   -1    0    0    0    0 -0.00000000000E+00 -0.00000000000E+00 -0.45593999997E+02  0.45594000000E+02  0.51100000000E-03 0.  1.
    9900012    2    1    2    0    0 -0.21497436875E+02  0.24098455171E+02 -0.31404429814E+02  0.46142317124E+02  0.99999941931E+01 0.  0.
         12    1    1    2    0    0  0.21497436875E+02 -0.24098455171E+02  0.31404429814E+02  0.45045682876E+02  0.00000000000E+00 0. -1.
         11    1    3    3    0    0 -0.25135279909E+01  0.17375847571E+01 -0.30379029917E+01  0.43088140592E+01  0.51100000000E-03 0. -1.
        -11    1    3    3    0    0 -0.16923510664E+02  0.14849131374E+02 -0.23985028683E+02  0.32896557828E+02  0.51100000000E-03 0.  1.
         12    1    3    3    0    0 -0.20603982203E+01  0.75117390398E+01 -0.43814981390E+01  0.89369452371E+01  0.00000000000E+00 0. -1.
</event>
<event>
 7    1  0.5743890E-009  0.4614232E+02  0.7816164E-02  0.1320468E+00
        -11   -1    0    0    0    0  0.00000000000E+00  0.00000000000E+00  0.45593999997E+02  0.45594000000E+02  0.51100000000E-03 0. -1.
         11   -1    0    0    0    0 -0.00000000000E+00 -0.00000000000E+00 -0.45593999997E+02  0.45594000000E+02  0.51100000000E-03 0.  1.
    9900012    2    1    2    0    0 -0.41774090564E+01  0.25065347657E+02 -0.37193964598E+02  0.46142318719E+02  0.10000008732E+02 0.  0.
         12    1    1    2    0    0  0.41774090564E+01 -0.25065347657E+02  0.37193964598E+02  0.45045681281E+02  0.00000000000E+00 0. -1.
         11    1    3    3    0    0 -0.24302823188E+00  0.79047877555E+01 -0.76911700902E+01  0.11031719259E+02  0.51100000000E-03 0. -1.
        -11    1    3    3    0    0  0.19059290623E+01  0.18837095778E+01 -0.40825570701E+01  0.48834618721E+01  0.51100000000E-03 0.  1.
        -12    1    3    3    0    0 -0.58403098868E+01  0.15276850323E+02 -0.25420237438E+02  0.30227137588E+02  0.00000000000E+00 0.  1.
</event>
<event>
 7    1  0.5743890E-009  0.4614232E+02  0.7816164E-02  0.1320468E+00
        -11   -1    0    0    0    0  0.00000000000E+00  0.00000000000E+00  0.45593999997E+02  0.45594000000E+02  0.51100000000E-03 0. -1.
         11   -1    0    0    0    0 -0.00000000000E+00 -0.00000000000E+00 -0.45593999997E+02  0.45594000000E+02  0.51100000000E-03 0.  1.
    9900012    2    1    2    0    0  0.24515823607E+02 -0.36993395608E+02  0.77185754708E+01  0.46142319486E+02  0.10000015727E+02 0.  0.
        -12    1    1    2    0    0 -0.24515823607E+02  0.36993395608E+02 -0.77185754708E+01  0.45045680514E+02  0.00000000000E+00 0.  1.
         11    1    3    3    0    0  0.13136718911E+02 -0.16194743115E+02  0.12614050231E+01  0.20891008382E+02  0.51100000000E-03 0. -1.
        -11    1    3    3    0    0  0.73500513171E+01 -0.10058010161E+02  0.58531576493E+01  0.13763948470E+02  0.51100000000E-03 0.  1.
        -12    1    3    3    0    0  0.40290533788E+01 -0.10740642332E+02  0.60401279844E+00  0.11487362634E+02  0.00000000000E+00 0.  1.
</event>
<event>
 7    1  0.5743890E-009  0.4614232E+02  0.7816164E-02  0.1320468E+00
        -11   -1    0    0    0    0  0.00000000000E+00  0.00000000000E+00  0.45593999997E+02  0.45594000000E+02  0.51100000000E-03 0. -1.
         11   -1    0    0    0    0 -0.00000000000E+00 -0.00000000000E+00 -0.45593999997E+02  0.45594000000E+02  0.51100000000E-03 0.  1.
    9900012    2    1    2    0    0  0.35677434027E+02  0.14725534404E+02  0.23224831810E+02  0.46142317911E+02  0.10000001368E+02 0.  0.
        -12    1    1    2    0    0 -0.35677434027E+02 -0.14725534404E+02 -0.23224831810E+02  0.45045682089E+02  0.00000000000E+00 0.  1.
         11    1    3    3    0    0  0.19720302376E+02  0.63094448585E+01  0.12155752385E+02  0.24009617584E+02  0.51100000000E-03 0. -1.
        -11    1    3    3    0    0  0.79060979942E+01  0.64920800333E+01  0.89390847382E+01  0.13585312837E+02  0.51100000000E-03 0.  1.
        -12    1    3    3    0    0  0.80510336562E+01  0.19240095125E+01  0.21299946871E+01  0.85473874900E+01  0.00000000000E+00 0.  1.
</event>
<event>
 7    1  0.5743890E-009  0.4614232E+02  0.7816164E-02  0.1320468E+00
        -11   -1    0    0    0    0  0.00000000000E+00  0.00000000000E+00  0.45593999997E+02  0.45594000000E+02  0.51100000000E-03 0. -1.
         11   -1    0    0    0    0 -0.00000000000E+00 -0.00000000000E+00 -0.45593999997E+02  0.45594000000E+02  0.51100000000E-03 0.  1.
    9900012    2    1    2    0    0 -0.21555683906E+02 -0.29077233048E+02 -0.26813811014E+02  0.46142318171E+02  0.10000003733E+02 0.  0.
         12    1    1    2    0    0  0.21555683906E+02  0.29077233048E+02  0.26813811014E+02  0.45045681829E+02  0.00000000000E+00 0. -1.
         11    1    3    3    0    0 -0.24573787673E+01 -0.25339577040E+00 -0.11561603358E+01  0.27275679287E+01  0.51100000000E-03 0. -1.
        -11    1    3    3    0    0 -0.16905653619E+02 -0.21828542300E+02 -0.19034118219E+02  0.33534818321E+02  0.51100000000E-03 0.  1.
        -12    1    3    3    0    0 -0.21926515201E+01 -0.69952949778E+01 -0.66235324594E+01  0.98799319206E+01  0.00000000000E+00 0.  1.
</event>
<event>
 7    1  0.5743890E-009  0.4614232E+02  0.7816164E-02  0.1320468E+00
        -11   -1    0    0    0    0  0.00000000000E+00  0.00000000000E+00  0.45593999997E+02  0.45594000000E+02  0.51100000000E-03 0. -1.
         11   -1    0    0    0    0 -0.00000000000E+00 -0.00000000000E+00 -0.45593999997E+02  0.45594000000E+02  0.51100000000E-03 0.  1.
    9900012    2    1    2    0    0  0.22093100569E+02  0.18848863212E+02  0.34434411542E+02  0.46142318349E+02  0.10000005361E+02 0.  0.
        -12    1    1    2    0    0 -0.22093100569E+02 -0.18848863212E+02 -0.34434411542E+02  0.45045681651E+02  0.00000000000E+00 0.  1.
         11    1    3    3    0    0  0.13291447164E+02  0.63298847788E+01  0.15459275799E+02  0.21347581070E+02  0.51100000000E-03 0. -1.
        -11    1    3    3    0    0  0.33380365075E+01  0.45730055371E+01  0.10622595845E+02  0.12037209399E+02  0.51100000000E-03 0.  1.
         12    1    3    3    0    0  0.54636168970E+01  0.79459728965E+01  0.83525398983E+01  0.12757527880E+02  0.00000000000E+00 0. -1.
</event>
<event>
 7    1  0.5743890E-009  0.4614232E+02  0.7816164E-02  0.1320468E+00
        -11   -1    0    0    0    0  0.00000000000E+00  0.00000000000E+00  0.45593999997E+02  0.45594000000E+02  0.51100000000E-03 0. -1.
         11   -1    0    0    0    0 -0.00000000000E+00 -0.00000000000E+00 -0.45593999997E+02  0.45594000000E+02  0.51100000000E-03 0.  1.
    9900012    2    1    2    0    0 -0.16730410784E+01  0.17150265930E+02 -0.41619499996E+02  0.46142317989E+02  0.10000002079E+02 0.  0.
         12    1    1    2    0    0  0.16730410784E+01 -0.17150265930E+02  0.41619499996E+02  0.45045682011E+02  0.00000000000E+00 0. -1.
         11    1    3    3    0    0  0.16415325360E+01  0.11333229999E+01 -0.19938002684E+01  0.28203350617E+01  0.51100000000E-03 0. -1.
        -11    1    3    3    0    0  0.97425971121E+00  0.10129585415E+02 -0.24685249153E+02  0.26700546974E+02  0.51100000000E-03 0.  1.
         12    1    3    3    0    0 -0.42888333256E+01  0.58873575154E+01 -0.14940450574E+02  0.16621435954E+02  0.00000000000E+00 0. -1.
</event>
<event>
 7    1  0.5743890E-009  0.4614232E+02  0.7816164E-02  0.1320468E+00
        -11   -1    0    0    0    0  0.00000000000E+00  0.00000000000E+00  0.45593999997E+02  0.45594000000E+02  0.51100000000E-03 0. -1.
         11   -1    0    0    0    0 -0.00000000000E+00 -0.00000000000E+00 -0.45593999997E+02  0.45594000000E+02  0.51100000000E-03 0.  1.
    9900012    2    1    2    0    0  0.29144877974E+01 -0.33491947272E+02  0.29981800963E+02  0.46142321404E+02  0.10000033222E+02 0.  0.
        -12    1    1    2    0    0 -0.29144877974E+01  0.33491947272E+02 -0.29981800963E+02  0.45045678596E+02  0.00000000000E+00 0.  1.
         11    1    3    3    0    0  0.37782056213E+01 -0.61962290231E+01  0.70236372927E+01  0.10099483794E+02  0.51100000000E-03 0. -1.
        -11    1    3    3    0    0  0.10563647075E+01 -0.34140446239E+01  0.47811960262E+01  0.59692078864E+01  0.51100000000E-03 0.  1.
         12    1    3    3    0    0 -0.19200825314E+01 -0.23881673625E+02  0.18176967644E+02  0.30073629724E+02  0.00000000000E+00 0. -1.
</event>
<event>
 7    1  0.5743890E-009  0.4614232E+02  0.7816164E-02  0.1320468E+00
        -11   -1    0    0    0    0  0.00000000000E+00  0.00000000000E+00  0.45593999997E+02  0.45594000000E+02  0.51100000000E-03 0. -1.
         11   -1    0    0    0    0 -0.00000000000E+00 -0.00000000000E+00 -0.45593999997E+02  0.45594000000E+02  0.51100000000E-03 0.  1.
    9900012    2    1    2    0    0  0.17890932969E+02  0.32263593200E+02  0.25847408550E+02  0.46142318105E+02  0.10000003135E+02 0.  0.
        -12    1    1    2    0    0 -0.17890932969E+02 -0.32263593200E+02 -0.25847408550E+02  0.45045681895E+02  0.00000000000E+00 0.  1.
         11    1    3    3    0    0  0.93918796702E+00  0.68065980914E+01  0.33234670588E+01  0.76326460135E+01  0.51100000000E-03 0. -1.
        -11    1    3    3    0    0  0.25119724644E+01  0.75754397418E+00  0.19899563260E+01  0.32929933154E+01  0.51100000000E-03 0.  1.
         12    1    3    3    0    0  0.14439772537E+02  0.24699451134E+02  0.20533985165E+02  0.35216678776E+02  0.00000000000E+00 0. -1.
</event>
<event>
 7    1  0.5743890E-009  0.4614231E+02  0.7816164E-02  0.1320468E+00
        -11   -1    0    0    0    0  0.00000000000E+00  0.00000000000E+00  0.45593999997E+02  0.45594000000E+02  0.51100000000E-03 0. -1.
         11   -1    0    0    0    0 -0.00000000000E+00 -0.00000000000E+00 -0.45593999997E+02  0.45594000000E+02  0.51100000000E-03 0.  1.
    9900012    2    1    2    0    0  0.11125511006E+02  0.56895765945E+01 -0.43277773642E+02  0.46142312433E+02  0.99999514144E+01 0.  0.
         12    1    1    2    0    0 -0.11125511006E+02 -0.56895765945E+01  0.43277773642E+02  0.45045687567E+02  0.00000000000E+00 0. -1.
         11    1    3    3    0    0  0.10554450477E+02  0.28652523773E+01 -0.38866554606E+02  0.40375923064E+02  0.51100000000E-03 0.  1.
        -11    1    3    3    0    0 -0.22804824253E+00  0.13878169083E+01 -0.37312049567E+01  0.39874719387E+01  0.51100000000E-03 0. -1.
         12    1    3    3    0    0  0.79910877155E+00  0.14365073088E+01 -0.68001407964E+00  0.17789174308E+01  0.00000000000E+00 0. -1.
</event>
<event>
 7    1  0.5743890E-009  0.4614231E+02  0.7816164E-02  0.1320468E+00
        -11   -1    0    0    0    0  0.00000000000E+00  0.00000000000E+00  0.45593999997E+02  0.45594000000E+02  0.51100000000E-03 0. -1.
         11   -1    0    0    0    0 -0.00000000000E+00 -0.00000000000E+00 -0.45593999997E+02  0.45594000000E+02  0.51100000000E-03 0.  1.
    9900012    2    1    2    0    0 -0.26936322999E+02 -0.15072746389E+02 -0.32807938292E+02  0.46142312134E+02  0.99999486831E+01 0.  0.
         12    1    1    2    0    0  0.26936322999E+02  0.15072746389E+02  0.32807938292E+02  0.45045687866E+02  0.00000000000E+00 0. -1.
         11    1    3    3    0    0 -0.31614547312E+01 -0.42958261650E+01 -0.50382632322E+01  0.73370985488E+01  0.51100000000E-03 0. -1.
        -11    1    3    3    0    0 -0.10457691336E+02 -0.85689749081E+01 -0.15441577714E+02  0.20523960671E+02  0.51100000000E-03 0.  1.
        -12    1    3    3    0    0 -0.13317176932E+02 -0.22079453163E+01 -0.12328097346E+02  0.18281252914E+02  0.00000000000E+00 0.  1.
</event>
<event>
 7    1  0.5743890E-009  0.4614232E+02  0.7816164E-02  0.1320468E+00
        -11   -1    0    0    0    0  0.00000000000E+00  0.00000000000E+00  0.45593999997E+02  0.45594000000E+02  0.51100000000E-03 0. -1.
         11   -1    0    0    0    0 -0.00000000000E+00 -0.00000000000E+00 -0.45593999997E+02  0.45594000000E+02  0.51100000000E-03 0.  1.
    9900012    2    1    2    0    0 -0.27933231757E+02  0.34520785126E+01  0.35170032590E+02  0.46142317912E+02  0.10000001372E+02 0.  0.
        -12    1    1    2    0    0  0.27933231757E+02 -0.34520785126E+01 -0.35170032590E+02  0.45045682088E+02  0.00000000000E+00 0.  1.
         11    1    3    3    0    0 -0.50625387410E+01  0.40905517250E+01  0.90398786386E+01  0.11139179412E+02  0.51100000000E-03 0. -1.
        -11    1    3    3    0    0 -0.29980205586E+01  0.40780858783E+00  0.58725860347E+01  0.66061866543E+01  0.51100000000E-03 0.  1.
        -12    1    3    3    0    0 -0.19872672457E+02 -0.10462818002E+01  0.20257567917E+02  0.28396951845E+02  0.00000000000E+00 0.  1.
</event>
<event>
 7    1  0.5743890E-009  0.4614232E+02  0.7816164E-02  0.1320468E+00
        -11   -1    0    0    0    0  0.00000000000E+00  0.00000000000E+00  0.45593999997E+02  0.45594000000E+02  0.51100000000E-03 0. -1.
         11   -1    0    0    0    0 -0.00000000000E+00 -0.00000000000E+00 -0.45593999997E+02  0.45594000000E+02  0.51100000000E-03 0.  1.
    9900012    2    1    2    0    0  0.19296076309E+02  0.14884630461E+02 -0.37884334279E+02  0.46142316870E+02  0.99999918781E+01 0.  0.
         12    1    1    2    0    0 -0.19296076309E+02 -0.14884630461E+02  0.37884334279E+02  0.45045683130E+02  0.00000000000E+00 0. -1.
         11    1    3    3    0    0  0.51149799120E+01  0.19542566500E+01 -0.47686941025E+01  0.72610317627E+01  0.51100000000E-03 0. -1.
        -11    1    3    3    0    0  0.13847876814E+02  0.11511109019E+02 -0.26058546613E+02  0.31675182319E+02  0.51100000000E-03 0.  1.
        -12    1    3    3    0    0  0.33321958277E+00  0.14192647912E+01 -0.70570935634E+01  0.72061027887E+01  0.00000000000E+00 0.  1.
</event>
<event>
 7    1  0.5743890E-009  0.4614232E+02  0.7816164E-02  0.1320468E+00
        -11   -1    0    0    0    0  0.00000000000E+00  0.00000000000E+00  0.45593999997E+02  0.45594000000E+02  0.51100000000E-03 0. -1.
         11   -1    0    0    0    0 -0.00000000000E+00 -0.00000000000E+00 -0.45593999997E+02  0.45594000000E+02  0.51100000000E-03 0.  1.
    9900012    2    1    2    0    0  0.20146584017E+02  0.35931224411E+02 -0.18225691761E+02  0.46142316795E+02  0.99999911862E+01 0.  0.
         12    1    1    2    0    0 -0.20146584017E+02 -0.35931224411E+02  0.18225691761E+02  0.45045683205E+02  0.00000000000E+00 0. -1.
         11    1    3    3    0    0  0.10158041715E+02  0.17660889782E+02 -0.11200194828E+02  0.23249455990E+02  0.51100000000E-03 0. -1.
        -11    1    3    3    0    0  0.89820605259E+01  0.17742039124E+02 -0.79612631467E+01  0.21420529282E+02  0.51100000000E-03 0.  1.
         12    1    3    3    0    0  0.10064817765E+01  0.52829550483E+00  0.93576621302E+00  0.14723315226E+01  0.00000000000E+00 0. -1.
</event>
<event>
 7    1  0.5743890E-009  0.4614232E+02  0.7816164E-02  0.1320468E+00
        -11   -1    0    0    0    0  0.00000000000E+00  0.00000000000E+00  0.45593999997E+02  0.45594000000E+02  0.51100000000E-03 0. -1.
         11   -1    0    0    0    0 -0.00000000000E+00 -0.00000000000E+00 -0.45593999997E+02  0.45594000000E+02  0.51100000000E-03 0.  1.
    9900012    2    1    2    0    0 -0.20181256634E+01  0.75146647671E+01 -0.44368574962E+02  0.46142318055E+02  0.10000002681E+02 0.  0.
         12    1    1    2    0    0  0.20181256634E+01 -0.75146647671E+01  0.44368574962E+02  0.45045681945E+02  0.00000000000E+00 0. -1.
         11    1    3    3    0    0  0.82300552526E+00  0.58097029333E+01 -0.13873225920E+02  0.15063080162E+02  0.51100000000E-03 0. -1.
        -11    1    3    3    0    0 -0.15164675685E+01  0.32468705210E+01 -0.13684501942E+02  0.14145933540E+02  0.51100000000E-03 0.  1.
         12    1    3    3    0    0 -0.13246636202E+01 -0.15419086872E+01 -0.16810847100E+02  0.16933304353E+02  0.00000000000E+00 0. -1.
</event>
<event>
 7    1  0.5743890E-009  0.4614232E+02  0.7816164E-02  0.1320468E+00
        -11   -1    0    0    0    0  0.00000000000E+00  0.00000000000E+00  0.45593999997E+02  0.45594000000E+02  0.51100000000E-03 0. -1.
         11   -1    0    0    0    0 -0.00000000000E+00 -0.00000000000E+00 -0.45593999997E+02  0.45594000000E+02  0.51100000000E-03 0.  1.
    9900012    2    1    2    0    0 -0.30347572762E+02  0.12242669673E+02  0.30955700461E+02  0.46142317362E+02  0.99999963606E+01 0.  0.
        -12    1    1    2    0    0  0.30347572762E+02 -0.12242669673E+02 -0.30955700461E+02  0.45045682638E+02  0.00000000000E+00 0.  1.
         11    1    3    3    0    0 -0.13090602547E+02  0.20249333393E+01  0.17565387532E+02  0.22000160670E+02  0.51100000000E-03 0. -1.
        -11    1    3    3    0    0 -0.10720173757E+02  0.68532028958E+01  0.80661099746E+01  0.15064881204E+02  0.51100000000E-03 0.  1.
         12    1    3    3    0    0 -0.65367964583E+01  0.33645334381E+01  0.53242029546E+01  0.90772754885E+01  0.00000000000E+00 0. -1.
</event>
<event>
 7    1  0.5743890E-009  0.4614232E+02  0.7816164E-02  0.1320468E+00
        -11   -1    0    0    0    0  0.00000000000E+00  0.00000000000E+00  0.45593999997E+02  0.45594000000E+02  0.51100000000E-03 0.  1.
         11   -1    0    0    0    0 -0.00000000000E+00 -0.00000000000E+00 -0.45593999997E+02  0.45594000000E+02  0.51100000000E-03 0. -1.
    9900012    2    1    2    0    0  0.24353613583E+02  0.37894326428E+02 -0.18731325930E+00  0.46142317008E+02  0.99999931323E+01 0.  0.
         12    1    1    2    0    0 -0.24353613583E+02 -0.37894326428E+02  0.18731325930E+00  0.45045682992E+02  0.00000000000E+00 0. -1.
         11    1    3    3    0    0  0.88970960556E+00  0.25346541819E+01 -0.22291496602E+01  0.34907253506E+01  0.51100000000E-03 0. -1.
        -11    1    3    3    0    0  0.88458353131E+01  0.16671970317E+02  0.11739743209E+01  0.18909828466E+02  0.51100000000E-03 0.  1.
         12    1    3    3    0    0  0.14618068665E+02  0.18687701928E+02  0.86786208000E+00  0.23741763191E+02  0.00000000000E+00 0. -1.
</event>
<event>
 7    1  0.5743890E-009  0.4614232E+02  0.7816164E-02  0.1320468E+00
        -11   -1    0    0    0    0  0.00000000000E+00  0.00000000000E+00  0.45593999997E+02  0.45594000000E+02  0.51100000000E-03 0. -1.
         11   -1    0    0    0    0 -0.00000000000E+00 -0.00000000000E+00 -0.45593999997E+02  0.45594000000E+02  0.51100000000E-03 0.  1.
    9900012    2    1    2    0    0  0.29283548620E+02  0.92328150373E+01 -0.32959708800E+02  0.46142317660E+02  0.99999990818E+01 0.  0.
         12    1    1    2    0    0 -0.29283548620E+02 -0.92328150373E+01  0.32959708800E+02  0.45045682340E+02  0.00000000000E+00 0. -1.
         11    1    3    3    0    0  0.90070931990E+01  0.29289621201E+00 -0.10714677483E+02  0.14000636768E+02  0.51100000000E-03 0. -1.
        -11    1    3    3    0    0  0.15393053568E+02  0.84795623810E+01 -0.20337753089E+02  0.26878863021E+02  0.51100000000E-03 0.  1.
         12    1    3    3    0    0  0.48834018527E+01  0.46035644422E+00 -0.19072782277E+01  0.52628178715E+01  0.00000000000E+00 0. -1.
</event>
<event>
 7    1  0.5743890E-009  0.4614232E+02  0.7816164E-02  0.1320468E+00
        -11   -1    0    0    0    0  0.00000000000E+00  0.00000000000E+00  0.45593999997E+02  0.45594000000E+02  0.51100000000E-03 0. -1.
         11   -1    0    0    0    0 -0.00000000000E+00 -0.00000000000E+00 -0.45593999997E+02  0.45594000000E+02  0.51100000000E-03 0.  1.
    9900012    2    1    2    0    0 -0.13166046573E+01  0.42475498115E+02  0.14940281184E+02  0.46142318855E+02  0.10000009978E+02 0.  0.
        -12    1    1    2    0    0  0.13166046573E+01 -0.42475498115E+02 -0.14940281184E+02  0.45045681145E+02  0.00000000000E+00 0.  1.
         11    1    3    3    0    0 -0.14791060392E+01  0.26448193016E+02  0.11903711731E+02  0.29041229687E+02  0.51100000000E-03 0. -1.
        -11    1    3    3    0    0 -0.12332614965E+01  0.15045606685E+02  0.30167764961E+01  0.15394549527E+02  0.51100000000E-03 0.  1.
        -12    1    3    3    0    0  0.13957628785E+01  0.98169841341E+00  0.19792957383E-01  0.17065396418E+01  0.00000000000E+00 0.  1.
</event>
<event>
 7    1  0.5743890E-009  0.4614232E+02  0.7816164E-02  0.1320468E+00
        -11   -1    0    0    0    0  0.00000000000E+00  0.00000000000E+00  0.45593999997E+02  0.45594000000E+02  0.51100000000E-03 0. -1.
         11   -1    0    0    0    0 -0.00000000000E+00 -0.00000000000E+00 -0.45593999997E+02  0.45594000000E+02  0.51100000000E-03 0.  1.
    9900012    2    1    2    0    0 -0.26516801018E+02  0.57136110846E+01  0.35962861175E+02  0.46142317946E+02  0.10000001684E+02 0.  0.
        -12    1    1    2    0    0  0.26516801018E+02 -0.57136110846E+01 -0.35962861175E+02  0.45045682054E+02  0.00000000000E+00 0.  1.
         11    1    3    3    0    0 -0.86784101230E+01  0.18003744594E+01  0.60823679279E+01  0.10749481398E+02  0.51100000000E-03 0. -1.
        -11    1    3    3    0    0  0.12299246175E+00  0.44320676309E+00  0.19589859265E+01  0.20122588058E+01  0.51100000000E-03 0.  1.
         12    1    3    3    0    0 -0.17961383356E+02  0.34700298621E+01  0.27921507321E+02  0.33380577742E+02  0.00000000000E+00 0. -1.
</event>
<event>
 7    1  0.5743890E-009  0.4614232E+02  0.7816164E-02  0.1320468E+00
        -11   -1    0    0    0    0  0.00000000000E+00  0.00000000000E+00  0.45593999997E+02  0.45594000000E+02  0.51100000000E-03 0. -1.
         11   -1    0    0    0    0 -0.00000000000E+00 -0.00000000000E+00 -0.45593999997E+02  0.45594000000E+02  0.51100000000E-03 0.  1.
    9900012    2    1    2    0    0  0.19789178238E+02 -0.34094396110E+02 -0.21796191863E+02  0.46142318729E+02  0.10000008829E+02 0.  0.
         12    1    1    2    0    0 -0.19789178238E+02  0.34094396110E+02  0.21796191863E+02  0.45045681271E+02  0.00000000000E+00 0. -1.
         11    1    3    3    0    0  0.76069968992E+01 -0.19472756589E+02 -0.13180219088E+02  0.24713818533E+02  0.51100000000E-03 0. -1.
        -11    1    3    3    0    0  0.20702073849E+01 -0.22641546267E+01  0.39607481571E+00  0.30933849277E+01  0.51100000000E-03 0.  1.
        -12    1    3    3    0    0  0.10111973954E+02 -0.12357484894E+02 -0.90120475901E+01  0.18335115269E+02  0.00000000000E+00 0.  1.
</event>
<event>
 7    1  0.5743890E-009  0.4614232E+02  0.7816164E-02  0.1320468E+00
        -11   -1    0    0    0    0  0.00000000000E+00  0.00000000000E+00  0.45593999997E+02  0.45594000000E+02  0.51100000000E-03 0. -1.
         11   -1    0    0    0    0 -0.00000000000E+00 -0.00000000000E+00 -0.45593999997E+02  0.45594000000E+02  0.51100000000E-03 0.  1.
    9900012    2    1    2    0    0 -0.34698489898E+00 -0.45289582195E+00 -0.45042068510E+02  0.46142318201E+02  0.10000004009E+02 0.  0.
         12    1    1    2    0    0  0.34698489898E+00  0.45289582195E+00  0.45042068510E+02  0.45045681799E+02  0.00000000000E+00 0. -1.
         11    1    3    3    0    0  0.27675641480E+00  0.22954355670E+01 -0.76034372239E+01  0.79471929909E+01  0.51100000000E-03 0. -1.
        -11    1    3    3    0    0 -0.35632712181E+01 -0.23963325426E+01 -0.27207006462E+02  0.27543792627E+02  0.51100000000E-03 0.  1.
        -12    1    3    3    0    0  0.29395299043E+01 -0.35199884626E+00 -0.10231624824E+02  0.10651332582E+02  0.00000000000E+00 0.  1.
</event>
<event>
 7    1  0.5743890E-009  0.4614232E+02  0.7816164E-02  0.1320468E+00
        -11   -1    0    0    0    0  0.00000000000E+00  0.00000000000E+00  0.45593999997E+02  0.45594000000E+02  0.51100000000E-03 0. -1.
         11   -1    0    0    0    0 -0.00000000000E+00 -0.00000000000E+00 -0.45593999997E+02  0.45594000000E+02  0.51100000000E-03 0.  1.
    9900012    2    1    2    0    0 -0.18816342805E+01  0.70574110490E+01  0.44449587827E+02  0.46142318118E+02  0.10000003251E+02 0.  0.
        -12    1    1    2    0    0  0.18816342805E+01 -0.70574110490E+01 -0.44449587827E+02  0.45045681882E+02  0.00000000000E+00 0.  1.
         11    1    3    3    0    0 -0.21757880696E+01  0.29446618583E+00  0.29521290890E+02  0.29602827232E+02  0.51100000000E-03 0. -1.
        -11    1    3    3    0    0 -0.20920695885E+00  0.27968416822E+01  0.38603820702E+01  0.47716497080E+01  0.51100000000E-03 0.  1.
         12    1    3    3    0    0  0.50336074801E+00  0.39661031810E+01  0.11067914867E+02  0.11767841178E+02  0.00000000000E+00 0. -1.
</event>
<event>
 7    1  0.5743890E-009  0.4614232E+02  0.7816164E-02  0.1320468E+00
        -11   -1    0    0    0    0  0.00000000000E+00  0.00000000000E+00  0.45593999997E+02  0.45594000000E+02  0.51100000000E-03 0.  1.
         11   -1    0    0    0    0 -0.00000000000E+00 -0.00000000000E+00 -0.45593999997E+02  0.45594000000E+02  0.51100000000E-03 0. -1.
    9900012    2    1    2    0    0 -0.26667900421E+02 -0.72835265986E+01  0.35565246969E+02  0.46142318026E+02  0.10000002416E+02 0.  0.
        -12    1    1    2    0    0  0.26667900421E+02  0.72835265986E+01 -0.35565246969E+02  0.45045681974E+02  0.00000000000E+00 0.  1.
         11    1    3    3    0    0 -0.84901054036E+01 -0.19436711928E+01  0.70231404141E+01  0.11188576719E+02  0.51100000000E-03 0. -1.
        -11    1    3    3    0    0 -0.15790230250E+02 -0.44206773637E+01  0.19109244749E+02  0.25180091239E+02  0.51100000000E-03 0.  1.
        -12    1    3    3    0    0 -0.23875647672E+01 -0.91917804214E+00  0.94328618058E+01  0.97736500673E+01  0.00000000000E+00 0.  1.
</event>
<event>
 7    1  0.5743890E-009  0.4614232E+02  0.7816164E-02  0.1320468E+00
        -11   -1    0    0    0    0  0.00000000000E+00  0.00000000000E+00  0.45593999997E+02  0.45594000000E+02  0.51100000000E-03 0. -1.
         11   -1    0    0    0    0 -0.00000000000E+00 -0.00000000000E+00 -0.45593999997E+02  0.45594000000E+02  0.51100000000E-03 0.  1.
    9900012    2    1    2    0    0  0.19571866751E+01  0.89196830645E+01  0.44110339771E+02  0.46142318738E+02  0.10000008908E+02 0.  0.
        -12    1    1    2    0    0 -0.19571866751E+01 -0.89196830645E+01 -0.44110339771E+02  0.45045681262E+02  0.00000000000E+00 0.  1.
         11    1    3    3    0    0 -0.12661835552E+01  0.24275705201E+01  0.47123370681E+01  0.54499945257E+01  0.51100000000E-03 0.  1.
        -11    1    3    3    0    0 -0.23027665044E+01  0.17239308748E+01  0.10517419042E+02  0.10903704636E+02  0.51100000000E-03 0. -1.
         12    1    3    3    0    0  0.55261367347E+01  0.47681816696E+01  0.28880583661E+02  0.29788619576E+02  0.00000000000E+00 0. -1.
</event>
<event>
 7    1  0.5743890E-009  0.4614232E+02  0.7816164E-02  0.1320468E+00
        -11   -1    0    0    0    0  0.00000000000E+00  0.00000000000E+00  0.45593999997E+02  0.45594000000E+02  0.51100000000E-03 0.  1.
         11   -1    0    0    0    0 -0.00000000000E+00 -0.00000000000E+00 -0.45593999997E+02  0.45594000000E+02  0.51100000000E-03 0. -1.
    9900012    2    1    2    0    0 -0.44069153868E+02  0.79380109284E+01 -0.49001199602E+01  0.46142317457E+02  0.99999972307E+01 0.  0.
        -12    1    1    2    0    0  0.44069153868E+02 -0.79380109284E+01  0.49001199602E+01  0.45045682543E+02  0.00000000000E+00 0.  1.
         11    1    3    3    0    0 -0.66927350845E+01  0.10485774385E+01 -0.68121386747E+00  0.68085439082E+01  0.51100000000E-03 0. -1.
        -11    1    3    3    0    0 -0.31024179170E+02  0.37356000114E+01 -0.64340871879E+01  0.31903790979E+02  0.51100000000E-03 0.  1.
        -12    1    3    3    0    0 -0.63522396134E+01  0.31538334785E+01  0.22151810953E+01  0.74299825707E+01  0.00000000000E+00 0.  1.
</event>
<event>
 7    1  0.5743890E-009  0.4614232E+02  0.7816164E-02  0.1320468E+00
        -11   -1    0    0    0    0  0.00000000000E+00  0.00000000000E+00  0.45593999997E+02  0.45594000000E+02  0.51100000000E-03 0. -1.
         11   -1    0    0    0    0 -0.00000000000E+00 -0.00000000000E+00 -0.45593999997E+02  0.45594000000E+02  0.51100000000E-03 0.  1.
    9900012    2    1    2    0    0 -0.19629190368E+02 -0.36682886946E+02 -0.17267720585E+02  0.46142317816E+02  0.10000000504E+02 0.  0.
         12    1    1    2    0    0  0.19629190368E+02  0.36682886946E+02  0.17267720585E+02  0.45045682184E+02  0.00000000000E+00 0. -1.
         11    1    3    3    0    0  0.26253723542E+00 -0.53874820305E-01 -0.57207784113E+00  0.63174489604E+00  0.51100000000E-03 0. -1.
        -11    1    3    3    0    0 -0.90373934185E+01 -0.21641994829E+02 -0.62952502217E+01  0.24283339877E+02  0.51100000000E-03 0.  1.
        -12    1    3    3    0    0 -0.10854334185E+02 -0.14987017296E+02 -0.10400392522E+02  0.21227233043E+02  0.00000000000E+00 0.  1.
</event>
<event>
 7    1  0.5743890E-009  0.4614232E+02  0.7816164E-02  0.1320468E+00
        -11   -1    0    0    0    0  0.00000000000E+00  0.00000000000E+00  0.45593999997E+02  0.45594000000E+02  0.51100000000E-03 0. -1.
         11   -1    0    0    0    0 -0.00000000000E+00 -0.00000000000E+00 -0.45593999997E+02  0.45594000000E+02  0.51100000000E-03 0.  1.
    9900012    2    1    2    0    0  0.15956090350E+02  0.89822365423E+01 -0.41156239934E+02  0.46142317876E+02  0.10000001044E+02 0.  0.
         12    1    1    2    0    0 -0.15956090350E+02 -0.89822365423E+01  0.41156239934E+02  0.45045682124E+02  0.00000000000E+00 0. -1.
         11    1    3    3    0    0  0.70285800262E+01  0.41306266564E+01 -0.11100939905E+02  0.13772940165E+02  0.51100000000E-03 0. -1.
        -11    1    3    3    0    0  0.71223739484E+01  0.58331059159E+01 -0.18858656840E+02  0.20985763587E+02  0.51100000000E-03 0.  1.
        -12    1    3    3    0    0  0.18051363754E+01 -0.98149603008E+00 -0.11196643190E+02  0.11383614123E+02  0.00000000000E+00 0.  1.
</event>
<event>
 7    1  0.5743890E-009  0.4614232E+02  0.7816164E-02  0.1320468E+00
        -11   -1    0    0    0    0  0.00000000000E+00  0.00000000000E+00  0.45593999997E+02  0.45594000000E+02  0.51100000000E-03 0.  1.
         11   -1    0    0    0    0 -0.00000000000E+00 -0.00000000000E+00 -0.45593999997E+02  0.45594000000E+02  0.51100000000E-03 0. -1.
    9900012    2    1    2    0    0 -0.23529338822E+02  0.38401888069E+02  0.88237392900E+00  0.46142319003E+02  0.10000011329E+02 0.  0.
        -12    1    1    2    0    0  0.23529338822E+02 -0.38401888069E+02 -0.88237392900E+00  0.45045680997E+02  0.00000000000E+00 0.  1.
         11    1    3    3    0    0 -0.22287462974E+01  0.78651977213E+01  0.18076536751E+01  0.83723507645E+01  0.51100000000E-03 0.  1.
        -11    1    3    3    0    0 -0.10192761795E+02  0.19319547912E+02 -0.20751140411E+01  0.21941819047E+02  0.51100000000E-03 0. -1.
        -12    1    3    3    0    0 -0.11107830729E+02  0.11217142436E+02  0.11498342951E+01  0.15828149192E+02  0.00000000000E+00 0.  1.
</event>
<event>
 7    1  0.5743890E-009  0.4614232E+02  0.7816164E-02  0.1320468E+00
        -11   -1    0    0    0    0  0.00000000000E+00  0.00000000000E+00  0.45593999997E+02  0.45594000000E+02  0.51100000000E-03 0. -1.
         11   -1    0    0    0    0 -0.00000000000E+00 -0.00000000000E+00 -0.45593999997E+02  0.45594000000E+02  0.51100000000E-03 0.  1.
    9900012    2    1    2    0    0  0.90062688101E+01  0.42951634472E+02  0.10156662475E+02  0.46142316807E+02  0.99999913008E+01 0.  0.
        -12    1    1    2    0    0 -0.90062688101E+01 -0.42951634472E+02 -0.10156662475E+02  0.45045683193E+02  0.00000000000E+00 0.  1.
         11    1    3    3    0    0  0.30652721785E+01  0.10018661734E+02  0.39941843773E+01  0.11212626167E+02  0.51100000000E-03 0. -1.
        -11    1    3    3    0    0  0.28546615846E+01  0.28084141427E+02  0.70949079101E+01  0.29106800081E+02  0.51100000000E-03 0.  1.
        -12    1    3    3    0    0  0.30863350470E+01  0.48488313113E+01 -0.93242981214E+00  0.58228905590E+01  0.00000000000E+00 0.  1.
</event>
<event>
 7    1  0.5743890E-009  0.4614232E+02  0.7816164E-02  0.1320468E+00
        -11   -1    0    0    0    0  0.00000000000E+00  0.00000000000E+00  0.45593999997E+02  0.45594000000E+02  0.51100000000E-03 0. -1.
         11   -1    0    0    0    0 -0.00000000000E+00 -0.00000000000E+00 -0.45593999997E+02  0.45594000000E+02  0.51100000000E-03 0.  1.
    9900012    2    1    2    0    0  0.20647414933E+02 -0.11454912919E+02  0.38361214713E+02  0.46142316881E+02  0.99999919707E+01 0.  0.
        -12    1    1    2    0    0 -0.20647414933E+02  0.11454912919E+02 -0.38361214713E+02  0.45045683119E+02  0.00000000000E+00 0.  1.
         11    1    3    3    0    0  0.47093729519E+01 -0.23883254598E+01  0.41997723401E+01  0.67468792839E+01  0.51100000000E-03 0.  1.
        -11    1    3    3    0    0  0.10474614367E+02 -0.30715814508E+01  0.24211188194E+02  0.26558121033E+02  0.51100000000E-03 0. -1.
         12    1    3    3    0    0  0.54634276144E+01 -0.59950060082E+01  0.99502541789E+01  0.12837316564E+02  0.00000000000E+00 0. -1.
</event>
<event>
 7    1  0.5743890E-009  0.4614232E+02  0.7816164E-02  0.1320468E+00
        -11   -1    0    0    0    0  0.00000000000E+00  0.00000000000E+00  0.45593999997E+02  0.45594000000E+02  0.51100000000E-03 0.  1.
         11   -1    0    0    0    0 -0.00000000000E+00 -0.00000000000E+00 -0.45593999997E+02  0.45594000000E+02  0.51100000000E-03 0. -1.
    9900012    2    1    2    0    0  0.28275486048E+02  0.20378129453E+02  0.28536682768E+02  0.46142317247E+02  0.99999953118E+01 0.  0.
        -12    1    1    2    0    0 -0.28275486048E+02 -0.20378129453E+02 -0.28536682768E+02  0.45045682753E+02  0.00000000000E+00 0.  1.
         11    1    3    3    0    0  0.12000680867E+02  0.97129736934E+01  0.71953407121E+01  0.17033235966E+02  0.51100000000E-03 0. -1.
        -11    1    3    3    0    0  0.72215707373E+00  0.15457949255E+01  0.25444432364E+01  0.30635248383E+01  0.51100000000E-03 0.  1.
         12    1    3    3    0    0  0.15552648107E+02  0.91193608346E+01  0.18796898820E+02  0.26045556443E+02  0.00000000000E+00 0. -1.
</event>
<event>
 7    1  0.5743890E-009  0.4614232E+02  0.7816164E-02  0.1320468E+00
        -11   -1    0    0    0    0  0.00000000000E+00  0.00000000000E+00  0.45593999997E+02  0.45594000000E+02  0.51100000000E-03 0. -1.
         11   -1    0    0    0    0 -0.00000000000E+00 -0.00000000000E+00 -0.45593999997E+02  0.45594000000E+02  0.51100000000E-03 0.  1.
    9900012    2    1    2    0    0 -0.19371134929E+02 -0.52539769385E+01  0.40327018051E+02  0.46142317332E+02  0.99999960901E+01 0.  0.
        -12    1    1    2    0    0  0.19371134929E+02  0.52539769385E+01 -0.40327018051E+02  0.45045682668E+02  0.00000000000E+00 0.  1.
         11    1    3    3    0    0 -0.13581424576E+02 -0.45429319019E+01  0.21588361324E+02  0.25906575781E+02  0.51100000000E-03 0. -1.
        -11    1    3    3    0    0 -0.42721019591E+01 -0.25803014326E+01  0.14806089315E+02  0.15624630930E+02  0.51100000000E-03 0.  1.
        -12    1    3    3    0    0 -0.15176083934E+01  0.18692563961E+01  0.39325674114E+01  0.46111106206E+01  0.00000000000E+00 0.  1.
</event>
<event>
 7    1  0.5743890E-009  0.4614232E+02  0.7816164E-02  0.1320468E+00
        -11   -1    0    0    0    0  0.00000000000E+00  0.00000000000E+00  0.45593999997E+02  0.45594000000E+02  0.51100000000E-03 0. -1.
         11   -1    0    0    0    0 -0.00000000000E+00 -0.00000000000E+00 -0.45593999997E+02  0.45594000000E+02  0.51100000000E-03 0.  1.
    9900012    2    1    2    0    0  0.86973606591E+01 -0.44115707979E+02 -0.26969895749E+01  0.46142317347E+02  0.99999962198E+01 0.  0.
         12    1    1    2    0    0 -0.86973606591E+01  0.44115707979E+02  0.26969895749E+01  0.45045682653E+02  0.00000000000E+00 0. -1.
         11    1    3    3    0    0  0.28125571245E+01 -0.23257569750E+01 -0.13033346016E+00  0.36519323868E+01  0.51100000000E-03 0. -1.
        -11    1    3    3    0    0 -0.17857445857E+00 -0.12319383425E+02 -0.47226616566E+00  0.12329725561E+02  0.51100000000E-03 0.  1.
        -12    1    3    3    0    0  0.60633779931E+01 -0.29470567579E+02 -0.20943899491E+01  0.30160659399E+02  0.00000000000E+00 0.  1.
</event>
<event>
 7    1  0.5743890E-009  0.4614233E+02  0.7816164E-02  0.1320468E+00
        -11   -1    0    0    0    0  0.00000000000E+00  0.00000000000E+00  0.45593999997E+02  0.45594000000E+02  0.51100000000E-03 0.  1.
         11   -1    0    0    0    0 -0.00000000000E+00 -0.00000000000E+00 -0.45593999997E+02  0.45594000000E+02  0.51100000000E-03 0. -1.
    9900012    2    1    2    0    0  0.36892841955E+02 -0.16305851625E+02 -0.20053678494E+02  0.46142327557E+02  0.10000089326E+02 0.  0.
         12    1    1    2    0    0 -0.36892841955E+02  0.16305851625E+02  0.20053678494E+02  0.45045672443E+02  0.00000000000E+00 0. -1.
         11    1    3    3    0    0  0.49475338582E+01 -0.12626212677E-01 -0.28935090810E+01  0.57315482867E+01  0.51100000000E-03 0. -1.
        -11    1    3    3    0    0  0.26856638203E+02 -0.13766268685E+02 -0.11237494678E+02  0.32203578310E+02  0.51100000000E-03 0.  1.
        -12    1    3    3    0    0  0.50886698937E+01 -0.25269567271E+01 -0.59226747348E+01  0.82072009603E+01  0.00000000000E+00 0.  1.
</event>
<event>
 7    1  0.5743890E-009  0.4614232E+02  0.7816164E-02  0.1320468E+00
        -11   -1    0    0    0    0  0.00000000000E+00  0.00000000000E+00  0.45593999997E+02  0.45594000000E+02  0.51100000000E-03 0.  1.
         11   -1    0    0    0    0 -0.00000000000E+00 -0.00000000000E+00 -0.45593999997E+02  0.45594000000E+02  0.51100000000E-03 0. -1.
    9900012    2    1    2    0    0 -0.23098302911E+01 -0.44979161065E+02  0.80825777838E+00  0.46142317336E+02  0.99999961219E+01 0.  0.
        -12    1    1    2    0    0  0.23098302911E+01  0.44979161065E+02 -0.80825777838E+00  0.45045682664E+02  0.00000000000E+00 0.  1.
         11    1    3    3    0    0  0.95190728246E+00 -0.14228234687E+02  0.42113079700E+01  0.14868890505E+02  0.51100000000E-03 0. -1.
        -11    1    3    3    0    0  0.27004263776E+00 -0.32029425917E+01 -0.11298420694E+01  0.34070966577E+01  0.51100000000E-03 0.  1.
         12    1    3    3    0    0 -0.35317802113E+01 -0.27547983786E+02 -0.22732081222E+01  0.27866330173E+02  0.00000000000E+00 0. -1.
</event>
<event>
 7    1  0.5743890E-009  0.4614232E+02  0.7816164E-02  0.1320468E+00
        -11   -1    0    0    0    0  0.00000000000E+00  0.00000000000E+00  0.45593999997E+02  0.45594000000E+02  0.51100000000E-03 0. -1.
         11   -1    0    0    0    0 -0.00000000000E+00 -0.00000000000E+00 -0.45593999997E+02  0.45594000000E+02  0.51100000000E-03 0.  1.
    9900012    2    1    2    0    0  0.66197668997E+01 -0.43136732439E+02  0.11158605894E+02  0.46142317801E+02  0.10000000363E+02 0.  0.
        -12    1    1    2    0    0 -0.66197668997E+01  0.43136732439E+02 -0.11158605894E+02  0.45045682199E+02  0.00000000000E+00 0.  1.
         11    1    3    3    0    0  0.55311513125E+01 -0.32821540658E+02  0.63351133544E+01  0.33881865761E+02  0.51100000000E-03 0. -1.
        -11    1    3    3    0    0  0.12882834682E+01 -0.10731950835E+02  0.46514417203E+01  0.11767342664E+02  0.51100000000E-03 0.  1.
        -12    1    3    3    0    0 -0.19966788105E+00  0.41675905448E+00  0.17205081950E+00  0.49310937600E+00  0.00000000000E+00 0.  1.
</event>
<event>
 7    1  0.5743890E-009  0.4614231E+02  0.7816164E-02  0.1320468E+00
        -11   -1    0    0    0    0  0.00000000000E+00  0.00000000000E+00  0.45593999997E+02  0.45594000000E+02  0.51100000000E-03 0.  1.
         11   -1    0    0    0    0 -0.00000000000E+00 -0.00000000000E+00 -0.45593999997E+02  0.45594000000E+02  0.51100000000E-03 0. -1.
    9900012    2    1    2    0    0 -0.25564386114E+02  0.36962611931E+02 -0.30564268957E+01  0.46142309157E+02  0.99999215363E+01 0.  0.
         12    1    1    2    0    0  0.25564386114E+02 -0.36962611931E+02  0.30564268957E+01  0.45045690843E+02  0.00000000000E+00 0. -1.
         11    1    3    3    0    0 -0.14562190390E+02  0.12861297680E+02 -0.23159559085E+01  0.19566144715E+02  0.51100000000E-03 0. -1.
        -11    1    3    3    0    0 -0.32666752527E+01  0.53073998427E+01  0.13636562820E+00  0.62336390770E+01  0.51100000000E-03 0.  1.
         12    1    3    3    0    0 -0.77355204718E+01  0.18793914409E+02 -0.87683661534E+00  0.20342525365E+02  0.00000000000E+00 0. -1.
</event>
<event>
 7    1  0.5743890E-009  0.4614232E+02  0.7816164E-02  0.1320468E+00
        -11   -1    0    0    0    0  0.00000000000E+00  0.00000000000E+00  0.45593999997E+02  0.45594000000E+02  0.51100000000E-03 0. -1.
         11   -1    0    0    0    0 -0.00000000000E+00 -0.00000000000E+00 -0.45593999997E+02  0.45594000000E+02  0.51100000000E-03 0.  1.
    9900012    2    1    2    0    0  0.28089001675E+02 -0.10914466889E+02 -0.33481275374E+02  0.46142318706E+02  0.10000008617E+02 0.  0.
         12    1    1    2    0    0 -0.28089001675E+02  0.10914466889E+02  0.33481275374E+02  0.45045681294E+02  0.00000000000E+00 0. -1.
         11    1    3    3    0    0  0.23793276143E+00 -0.31084310998E+00  0.50820370009E+00  0.64148787977E+00  0.51100000000E-03 0. -1.
        -11    1    3    3    0    0  0.19724727696E+02 -0.97935707382E+01 -0.23481922886E+02  0.32192850342E+02  0.51100000000E-03 0.  1.
        -12    1    3    3    0    0  0.81263412177E+01 -0.81005304050E+00 -0.10507556189E+02  0.13307980484E+02  0.00000000000E+00 0.  1.
</event>
<event>
 7    1  0.5743890E-009  0.4614232E+02  0.7816164E-02  0.1320468E+00
        -11   -1    0    0    0    0  0.00000000000E+00  0.00000000000E+00  0.45593999997E+02  0.45594000000E+02  0.51100000000E-03 0. -1.
         11   -1    0    0    0    0 -0.00000000000E+00 -0.00000000000E+00 -0.45593999997E+02  0.45594000000E+02  0.51100000000E-03 0.  1.
    9900012    2    1    2    0    0 -0.26571027911E+02  0.34327497327E+02 -0.12029832581E+02  0.46142317977E+02  0.10000001972E+02 0.  0.
         12    1    1    2    0    0  0.26571027911E+02 -0.34327497327E+02  0.12029832581E+02  0.45045682023E+02  0.00000000000E+00 0. -1.
         11    1    3    3    0    0 -0.90528715906E+01  0.91992602609E+01 -0.26670030756E+01  0.13179293572E+02  0.51100000000E-03 0. -1.
        -11    1    3    3    0    0 -0.17544502375E+02  0.23002024892E+02 -0.69605893555E+01  0.29754873839E+02  0.51100000000E-03 0.  1.
         12    1    3    3    0    0  0.26346054705E-01  0.21262121737E+01 -0.24022401498E+01  0.32081505668E+01  0.00000000000E+00 0. -1.
</event>
<event>
 7    1  0.5743890E-009  0.4614231E+02  0.7816164E-02  0.1320468E+00
        -11   -1    0    0    0    0  0.00000000000E+00  0.00000000000E+00  0.45593999997E+02  0.45594000000E+02  0.51100000000E-03 0. -1.
         11   -1    0    0    0    0 -0.00000000000E+00 -0.00000000000E+00 -0.45593999997E+02  0.45594000000E+02  0.51100000000E-03 0.  1.
    9900012    2    1    2    0    0 -0.60521127770E+01  0.35173421909E+02  0.27483028386E+02  0.46142306232E+02  0.99998948634E+01 0.  0.
        -12    1    1    2    0    0  0.60521127770E+01 -0.35173421909E+02 -0.27483028386E+02  0.45045693768E+02  0.00000000000E+00 0.  1.
         11    1    3    3    0    0  0.18091848980E+01  0.82775889926E+01  0.35369021312E+01  0.91815742916E+01  0.51100000000E-03 0. -1.
        -11    1    3    3    0    0 -0.39017096285E+01  0.13253759409E+02  0.13604673385E+02  0.19390013272E+02  0.51100000000E-03 0.  1.
         12    1    3    3    0    0 -0.39595880465E+01  0.13642073506E+02  0.10341452870E+02  0.17570718668E+02  0.00000000000E+00 0. -1.
</event>
<event>
 7    1  0.5743890E-009  0.4614232E+02  0.7816164E-02  0.1320468E+00
        -11   -1    0    0    0    0  0.00000000000E+00  0.00000000000E+00  0.45593999997E+02  0.45594000000E+02  0.51100000000E-03 0. -1.
         11   -1    0    0    0    0 -0.00000000000E+00 -0.00000000000E+00 -0.45593999997E+02  0.45594000000E+02  0.51100000000E-03 0.  1.
    9900012    2    1    2    0    0 -0.83053547561E+00  0.37630390316E+02  0.24746261313E+02  0.46142317483E+02  0.99999974602E+01 0.  0.
        -12    1    1    2    0    0  0.83053547561E+00 -0.37630390316E+02 -0.24746261313E+02  0.45045682517E+02  0.00000000000E+00 0.  1.
         11    1    3    3    0    0  0.30356220169E+01  0.59374187910E+01  0.34938876124E+01  0.75282928900E+01  0.51100000000E-03 0. -1.
        -11    1    3    3    0    0 -0.32525413422E+01  0.29823911969E+02  0.21023037146E+02  0.36633493437E+02  0.51100000000E-03 0.  1.
        -12    1    3    3    0    0 -0.61361615025E+00  0.18690595552E+01  0.22933655505E+00  0.19805311551E+01  0.00000000000E+00 0.  1.
</event>
<event>
 7    1  0.5743890E-009  0.4614232E+02  0.7816164E-02  0.1320468E+00
        -11   -1    0    0    0    0  0.00000000000E+00  0.00000000000E+00  0.45593999997E+02  0.45594000000E+02  0.51100000000E-03 0. -1.
         11   -1    0    0    0    0 -0.00000000000E+00 -0.00000000000E+00 -0.45593999997E+02  0.45594000000E+02  0.51100000000E-03 0.  1.
    9900012    2    1    2    0    0  0.19820594758E+02 -0.18660911567E+02 -0.35889105515E+02  0.46142317724E+02  0.99999996615E+01 0.  0.
         12    1    1    2    0    0 -0.19820594758E+02  0.18660911567E+02  0.35889105515E+02  0.45045682276E+02  0.00000000000E+00 0. -1.
         11    1    3    3    0    0  0.85386764479E+01 -0.66213312722E+01 -0.84249099034E+01  0.13701464536E+02  0.51100000000E-03 0. -1.
        -11    1    3    3    0    0  0.11619362242E+02 -0.10465354687E+02 -0.24434894529E+02  0.29010296423E+02  0.51100000000E-03 0.  1.
        -12    1    3    3    0    0 -0.33744393163E+00 -0.15742256069E+01 -0.30293010828E+01  0.34305567651E+01  0.00000000000E+00 0.  1.
</event>
<event>
 7    1  0.5743890E-009  0.4614232E+02  0.7816164E-02  0.1320468E+00
        -11   -1    0    0    0    0  0.00000000000E+00  0.00000000000E+00  0.45593999997E+02  0.45594000000E+02  0.51100000000E-03 0. -1.
         11   -1    0    0    0    0 -0.00000000000E+00 -0.00000000000E+00 -0.45593999997E+02  0.45594000000E+02  0.51100000000E-03 0.  1.
    9900012    2    1    2    0    0 -0.10942037068E+02 -0.56758474061E-01 -0.43696476492E+02  0.46142318137E+02  0.10000003424E+02 0.  0.
         12    1    1    2    0    0  0.10942037068E+02  0.56758474061E-01  0.43696476492E+02  0.45045681863E+02  0.00000000000E+00 0. -1.
         11    1    3    3    0    0 -0.10031569181E+02  0.17239958441E+01 -0.22638208078E+02  0.24821220904E+02  0.51100000000E-03 0.  1.
        -11    1    3    3    0    0 -0.55710161875E+00 -0.88742895014E+00 -0.21834600856E+01  0.24218568417E+01  0.51100000000E-03 0. -1.
        -12    1    3    3    0    0 -0.35336626839E+00 -0.89332536800E+00 -0.18874808328E+02  0.18899240391E+02  0.00000000000E+00 0.  1.
</event>
<event>
 7    1  0.5743890E-009  0.4614232E+02  0.7816164E-02  0.1320468E+00
        -11   -1    0    0    0    0  0.00000000000E+00  0.00000000000E+00  0.45593999997E+02  0.45594000000E+02  0.51100000000E-03 0. -1.
         11   -1    0    0    0    0 -0.00000000000E+00 -0.00000000000E+00 -0.45593999997E+02  0.45594000000E+02  0.51100000000E-03 0.  1.
    9900012    2    1    2    0    0 -0.55383835788E+01  0.19761367722E+02  0.40098979601E+02  0.46142317499E+02  0.99999976082E+01 0.  0.
        -12    1    1    2    0    0  0.55383835788E+01 -0.19761367722E+02 -0.40098979601E+02  0.45045682501E+02  0.00000000000E+00 0.  1.
         11    1    3    3    0    0  0.21542457910E+01  0.64929395838E+01  0.98540040985E+01  0.11995850799E+02  0.51100000000E-03 0.  1.
        -11    1    3    3    0    0 -0.16218804149E+01  0.44686421256E+01  0.60453297076E+01  0.76905962098E+01  0.51100000000E-03 0. -1.
         12    1    3    3    0    0 -0.60707489549E+01  0.87997860129E+01  0.24199645795E+02  0.26455870490E+02  0.00000000000E+00 0. -1.
</event>
<event>
 7    1  0.5743890E-009  0.4614232E+02  0.7816164E-02  0.1320468E+00
        -11   -1    0    0    0    0  0.00000000000E+00  0.00000000000E+00  0.45593999997E+02  0.45594000000E+02  0.51100000000E-03 0. -1.
         11   -1    0    0    0    0 -0.00000000000E+00 -0.00000000000E+00 -0.45593999997E+02  0.45594000000E+02  0.51100000000E-03 0.  1.
    9900012    2    1    2    0    0 -0.21056604043E+02 -0.89132790514E+01  0.38810905851E+02  0.46142317296E+02  0.99999957611E+01 0.  0.
        -12    1    1    2    0    0  0.21056604043E+02  0.89132790514E+01 -0.38810905851E+02  0.45045682704E+02  0.00000000000E+00 0.  1.
         11    1    3    3    0    0 -0.19703123252E+01  0.12174828137E+01  0.29372828029E+01  0.37405916091E+01  0.51100000000E-03 0. -1.
        -11    1    3    3    0    0 -0.81237355063E+01 -0.58662209664E+01  0.22252480505E+02  0.24404518350E+02  0.51100000000E-03 0.  1.
        -12    1    3    3    0    0 -0.10962556211E+02 -0.42645408987E+01  0.13621142544E+02  0.17997207338E+02  0.00000000000E+00 0.  1.
</event>
<event>
 7    1  0.5743890E-009  0.4614232E+02  0.7816164E-02  0.1320468E+00
        -11   -1    0    0    0    0  0.00000000000E+00  0.00000000000E+00  0.45593999997E+02  0.45594000000E+02  0.51100000000E-03 0.  1.
         11   -1    0    0    0    0 -0.00000000000E+00 -0.00000000000E+00 -0.45593999997E+02  0.45594000000E+02  0.51100000000E-03 0. -1.
    9900012    2    1    2    0    0 -0.33821226412E+02  0.26365526293E+02 -0.13787581298E+02  0.46142315070E+02  0.99999754599E+01 0.  0.
         12    1    1    2    0    0  0.33821226412E+02 -0.26365526293E+02  0.13787581298E+02  0.45045684930E+02  0.00000000000E+00 0. -1.
         11    1    3    3    0    0 -0.52582661432E+01  0.84955448251E+01 -0.20805936279E+01  0.10205513942E+02  0.51100000000E-03 0. -1.
        -11    1    3    3    0    0 -0.23617696655E+02  0.13426801844E+02 -0.79800978898E+01  0.28315306208E+02  0.51100000000E-03 0.  1.
        -12    1    3    3    0    0 -0.49452636140E+01  0.44431796245E+01 -0.37268897804E+01  0.76214949205E+01  0.00000000000E+00 0.  1.
</event>
<event>
 7    1  0.5743890E-009  0.4614232E+02  0.7816164E-02  0.1320468E+00
        -11   -1    0    0    0    0  0.00000000000E+00  0.00000000000E+00  0.45593999997E+02  0.45594000000E+02  0.51100000000E-03 0.  1.
         11   -1    0    0    0    0 -0.00000000000E+00 -0.00000000000E+00 -0.45593999997E+02  0.45594000000E+02  0.51100000000E-03 0. -1.
    9900012    2    1    2    0    0  0.43731199261E+02  0.99759503573E+01 -0.41444093406E+01  0.46142317597E+02  0.99999985073E+01 0.  0.
        -12    1    1    2    0    0 -0.43731199261E+02 -0.99759503573E+01  0.41444093406E+01  0.45045682403E+02  0.00000000000E+00 0.  1.
         11    1    3    3    0    0  0.12476702572E+02  0.26669332972E+01 -0.46336021831E+01  0.13573905471E+02  0.51100000000E-03 0. -1.
        -11    1    3    3    0    0  0.83117179416E+01  0.12795391558E+01 -0.22054539189E+01  0.86940153463E+01  0.51100000000E-03 0.  1.
        -12    1    3    3    0    0  0.22942778748E+02  0.60294779042E+01  0.26946467614E+01  0.23874396780E+02  0.00000000000E+00 0.  1.
</event>
<event>
 7    1  0.5743890E-009  0.4614230E+02  0.7816164E-02  0.1320468E+00
        -11   -1    0    0    0    0  0.00000000000E+00  0.00000000000E+00  0.45593999997E+02  0.45594000000E+02  0.51100000000E-03 0.  1.
         11   -1    0    0    0    0 -0.00000000000E+00 -0.00000000000E+00 -0.45593999997E+02  0.45594000000E+02  0.51100000000E-03 0. -1.
    9900012    2    1    2    0    0 -0.32187594802E+02 -0.31501600066E+02 -0.85015694765E+00  0.46142302840E+02  0.99998639325E+01 0.  0.
         12    1    1    2    0    0  0.32187594802E+02  0.31501600066E+02  0.85015694765E+00  0.45045697160E+02  0.00000000000E+00 0. -1.
         11    1    3    3    0    0 -0.53686803292E+01 -0.32716563611E+01 -0.96842290203E+00  0.63611561057E+01  0.51100000000E-03 0. -1.
        -11    1    3    3    0    0 -0.17023606639E+02 -0.22627504986E+02 -0.16259478043E+01  0.28362843147E+02  0.51100000000E-03 0.  1.
        -12    1    3    3    0    0 -0.97953078339E+01 -0.56024387187E+01  0.17442137587E+01  0.11418303587E+02  0.00000000000E+00 0.  1.
</event>
<event>
 7    1  0.5743890E-009  0.4614232E+02  0.7816164E-02  0.1320468E+00
        -11   -1    0    0    0    0  0.00000000000E+00  0.00000000000E+00  0.45593999997E+02  0.45594000000E+02  0.51100000000E-03 0. -1.
         11   -1    0    0    0    0 -0.00000000000E+00 -0.00000000000E+00 -0.45593999997E+02  0.45594000000E+02  0.51100000000E-03 0.  1.
    9900012    2    1    2    0    0  0.39125268845E+02  0.21089089752E+02 -0.73196191416E+01  0.46142321039E+02  0.10000029886E+02 0.  0.
         12    1    1    2    0    0 -0.39125268845E+02 -0.21089089752E+02  0.73196191416E+01  0.45045678961E+02  0.00000000000E+00 0. -1.
         11    1    3    3    0    0  0.51754803023E+00  0.36287309635E+00  0.10935988679E+01  0.12631277024E+01  0.51100000000E-03 0. -1.
        -11    1    3    3    0    0  0.86026821281E+01  0.24648366420E+01 -0.20844122444E+01  0.91883803869E+01  0.51100000000E-03 0.  1.
        -12    1    3    3    0    0  0.30005038686E+02  0.18261380013E+02 -0.63288057651E+01  0.35690812949E+02  0.00000000000E+00 0.  1.
</event>
<event>
 7    1  0.5743890E-009  0.4614232E+02  0.7816164E-02  0.1320468E+00
        -11   -1    0    0    0    0  0.00000000000E+00  0.00000000000E+00  0.45593999997E+02  0.45594000000E+02  0.51100000000E-03 0. -1.
         11   -1    0    0    0    0 -0.00000000000E+00 -0.00000000000E+00 -0.45593999997E+02  0.45594000000E+02  0.51100000000E-03 0.  1.
    9900012    2    1    2    0    0  0.24730563474E+02 -0.35797717630E+02 -0.11663447918E+02  0.46142319024E+02  0.10000011516E+02 0.  0.
         12    1    1    2    0    0 -0.24730563474E+02  0.35797717630E+02  0.11663447918E+02  0.45045680976E+02  0.00000000000E+00 0. -1.
         11    1    3    3    0    0  0.96803842213E+01 -0.10202865496E+02 -0.20135598172E+01  0.14207840314E+02  0.51100000000E-03 0. -1.
        -11    1    3    3    0    0  0.10069637303E+02 -0.12742160458E+02 -0.25839597422E+01  0.16444971777E+02  0.51100000000E-03 0.  1.
         12    1    3    3    0    0  0.49805419499E+01 -0.12852691676E+02 -0.70659283587E+01  0.15489506932E+02  0.00000000000E+00 0. -1.
</event>
<event>
 7    1  0.5743890E-009  0.4614232E+02  0.7816164E-02  0.1320468E+00
        -11   -1    0    0    0    0  0.00000000000E+00  0.00000000000E+00  0.45593999997E+02  0.45594000000E+02  0.51100000000E-03 0.  1.
         11   -1    0    0    0    0 -0.00000000000E+00 -0.00000000000E+00 -0.45593999997E+02  0.45594000000E+02  0.51100000000E-03 0. -1.
    9900012    2    1    2    0    0 -0.37492019542E+02 -0.18004605068E+02  0.17300177685E+02  0.46142317844E+02  0.10000000755E+02 0.  0.
        -12    1    1    2    0    0  0.37492019542E+02  0.18004605068E+02 -0.17300177685E+02  0.45045682156E+02  0.00000000000E+00 0.  1.
         11    1    3    3    0    0 -0.17245563876E+02 -0.48503029724E+01  0.98614682163E+01  0.20449534664E+02  0.51100000000E-03 0. -1.
        -11    1    3    3    0    0 -0.17027883782E+02 -0.99514096347E+01  0.76326416246E+01  0.21147969128E+02  0.51100000000E-03 0.  1.
         12    1    3    3    0    0 -0.32185718847E+01 -0.32028924606E+01 -0.19393215617E+00  0.45448140526E+01  0.00000000000E+00 0. -1.
</event>
<event>
 7    1  0.5743890E-009  0.4614232E+02  0.7816164E-02  0.1320468E+00
        -11   -1    0    0    0    0  0.00000000000E+00  0.00000000000E+00  0.45593999997E+02  0.45594000000E+02  0.51100000000E-03 0. -1.
         11   -1    0    0    0    0 -0.00000000000E+00 -0.00000000000E+00 -0.45593999997E+02  0.45594000000E+02  0.51100000000E-03 0.  1.
    9900012    2    1    2    0    0  0.20778863660E+02  0.31700808061E+02 -0.24339499193E+02  0.46142316215E+02  0.99999858971E+01 0.  0.
         12    1    1    2    0    0 -0.20778863660E+02 -0.31700808061E+02  0.24339499193E+02  0.45045683785E+02  0.00000000000E+00 0. -1.
         11    1    3    3    0    0  0.45794293118E+01  0.10148873677E+02 -0.56707425622E+01  0.12495124298E+02  0.51100000000E-03 0. -1.
        -11    1    3    3    0    0  0.14679036144E+02  0.16769254295E+02 -0.12032864896E+02  0.25327294162E+02  0.51100000000E-03 0.  1.
         12    1    3    3    0    0  0.15203982042E+01  0.47826800890E+01 -0.66358917347E+01  0.83198977546E+01  0.00000000000E+00 0. -1.
</event>
<event>
 7    1  0.5743890E-009  0.4614232E+02  0.7816164E-02  0.1320468E+00
        -11   -1    0    0    0    0  0.00000000000E+00  0.00000000000E+00  0.45593999997E+02  0.45594000000E+02  0.51100000000E-03 0. -1.
         11   -1    0    0    0    0 -0.00000000000E+00 -0.00000000000E+00 -0.45593999997E+02  0.45594000000E+02  0.51100000000E-03 0.  1.
    9900012    2    1    2    0    0  0.22083522960E+02  0.18326563017E+02 -0.34721294544E+02  0.46142321038E+02  0.10000029881E+02 0.  0.
         12    1    1    2    0    0 -0.22083522960E+02 -0.18326563017E+02  0.34721294544E+02  0.45045678962E+02  0.00000000000E+00 0. -1.
         11    1    3    3    0    0  0.53526363549E+01  0.54184386579E+00 -0.68343937113E+01  0.86978875818E+01  0.51100000000E-03 0. -1.
        -11    1    3    3    0    0  0.75956688262E+01  0.55603902661E+01 -0.78446547580E+01  0.12253600833E+02  0.51100000000E-03 0.  1.
         12    1    3    3    0    0  0.91352177790E+01  0.12224328885E+02 -0.20042246074E+02  0.25190832624E+02  0.00000000000E+00 0. -1.
</event>
<event>
 7    1  0.5743890E-009  0.4614232E+02  0.7816164E-02  0.1320468E+00
        -11   -1    0    0    0    0  0.00000000000E+00  0.00000000000E+00  0.45593999997E+02  0.45594000000E+02  0.51100000000E-03 0. -1.
         11   -1    0    0    0    0 -0.00000000000E+00 -0.00000000000E+00 -0.45593999997E+02  0.45594000000E+02  0.51100000000E-03 0.  1.
    9900012    2    1    2    0    0  0.34794216595E+02  0.36849964606E+01  0.28370704890E+02  0.46142316486E+02  0.99999883685E+01 0.  0.
        -12    1    1    2    0    0 -0.34794216595E+02 -0.36849964606E+01 -0.28370704890E+02  0.45045683514E+02  0.00000000000E+00 0.  1.
         11    1    3    3    0    0  0.28106105189E+02 -0.77126197450E-01  0.20812220719E+02  0.34972955678E+02  0.51100000000E-03 0. -1.
        -11    1    3    3    0    0  0.29244103783E+00  0.66985424771E+00 -0.83240466426E-01  0.73563286370E+00  0.51100000000E-03 0.  1.
         12    1    3    3    0    0  0.63956703676E+01  0.30922684103E+01  0.76417246371E+01  0.10433727944E+02  0.00000000000E+00 0. -1.
</event>
<event>
 7    1  0.5743890E-009  0.4614232E+02  0.7816164E-02  0.1320468E+00
        -11   -1    0    0    0    0  0.00000000000E+00  0.00000000000E+00  0.45593999997E+02  0.45594000000E+02  0.51100000000E-03 0.  1.
         11   -1    0    0    0    0 -0.00000000000E+00 -0.00000000000E+00 -0.45593999997E+02  0.45594000000E+02  0.51100000000E-03 0. -1.
    9900012    2    1    2    0    0 -0.44850103611E+02  0.31803074974E+01  0.27326175562E+01  0.46142319314E+02  0.10000014164E+02 0.  0.
         12    1    1    2    0    0  0.44850103611E+02 -0.31803074974E+01 -0.27326175562E+01  0.45045680686E+02  0.00000000000E+00 0. -1.
         11    1    3    3    0    0 -0.25151635777E+01  0.27612160057E+00 -0.19769150724E+01  0.32109943048E+01  0.51100000000E-03 0. -1.
        -11    1    3    3    0    0 -0.16386641070E+02  0.22556504533E+01  0.37297121681E+01  0.16956435877E+02  0.51100000000E-03 0.  1.
        -12    1    3    3    0    0 -0.25948298963E+02  0.64853544350E+00  0.97982046044E+00  0.25974889132E+02  0.00000000000E+00 0.  1.
</event>
<event>
 7    1  0.5743890E-009  0.4614232E+02  0.7816164E-02  0.1320468E+00
        -11   -1    0    0    0    0  0.00000000000E+00  0.00000000000E+00  0.45593999997E+02  0.45594000000E+02  0.51100000000E-03 0. -1.
         11   -1    0    0    0    0 -0.00000000000E+00 -0.00000000000E+00 -0.45593999997E+02  0.45594000000E+02  0.51100000000E-03 0.  1.
    9900012    2    1    2    0    0 -0.22337864666E+02 -0.27672012762E+01 -0.39018916472E+02  0.46142318261E+02  0.10000004554E+02 0.  0.
         12    1    1    2    0    0  0.22337864666E+02  0.27672012762E+01  0.39018916472E+02  0.45045681739E+02  0.00000000000E+00 0. -1.
         11    1    3    3    0    0 -0.17750160104E+02 -0.26093616002E+01 -0.25763729315E+02  0.31395010752E+02  0.51100000000E-03 0. -1.
        -11    1    3    3    0    0 -0.49736913817E+01  0.10204066470E+01 -0.11730332019E+02  0.12782000048E+02  0.51100000000E-03 0.  1.
         12    1    3    3    0    0  0.38598681932E+00 -0.11782463230E+01 -0.15248551376E+01  0.19653074602E+01  0.00000000000E+00 0. -1.
</event>
<event>
 7    1  0.5743890E-009  0.4614232E+02  0.7816164E-02  0.1320468E+00
        -11   -1    0    0    0    0  0.00000000000E+00  0.00000000000E+00  0.45593999997E+02  0.45594000000E+02  0.51100000000E-03 0. -1.
         11   -1    0    0    0    0 -0.00000000000E+00 -0.00000000000E+00 -0.45593999997E+02  0.45594000000E+02  0.51100000000E-03 0.  1.
    9900012    2    1    2    0    0  0.15982156209E+02 -0.22624683173E+02 -0.35521933875E+02  0.46142318831E+02  0.10000009754E+02 0.  0.
         12    1    1    2    0    0 -0.15982156209E+02  0.22624683173E+02  0.35521933875E+02  0.45045681169E+02  0.00000000000E+00 0. -1.
         11    1    3    3    0    0  0.15218331237E+02 -0.21051785930E+02 -0.32210089950E+02  0.41379526234E+02  0.51100000000E-03 0. -1.
        -11    1    3    3    0    0  0.13271828027E+01 -0.19810946738E+01 -0.32944390457E+01  0.40668758507E+01  0.51100000000E-03 0.  1.
         12    1    3    3    0    0 -0.56335783071E+00  0.40819743115E+00 -0.17404879954E-01  0.69591674651E+00  0.00000000000E+00 0. -1.
</event>
<event>
 7    1  0.6797452E-009  0.4614232E+02  0.7816164E-02  0.1320468E+00
        -11   -1    0    0    0    0  0.00000000000E+00  0.00000000000E+00  0.45593999997E+02  0.45594000000E+02  0.51100000000E-03 0. -1.
         11   -1    0    0    0    0 -0.00000000000E+00 -0.00000000000E+00 -0.45593999997E+02  0.45594000000E+02  0.51100000000E-03 0.  1.
    9900012    2    1    2    0    0  0.37791923085E+02  0.10074364957E+02  0.22347061026E+02  0.46142318561E+02  0.10000007297E+02 0.  0.
        -12    1    1    2    0    0 -0.37791923085E+02 -0.10074364957E+02 -0.22347061026E+02  0.45045681439E+02  0.00000000000E+00 0.  1.
         11    1    3    3    0    0  0.13009888487E+02  0.60877001867E+01  0.10431293112E+02  0.17751877880E+02  0.51100000000E-03 0. -1.
        -11    1    3    3    0    0  0.79611045652E+01  0.40576504800E+01  0.37197673311E+01  0.96788626695E+01  0.51100000000E-03 0.  1.
        -12    1    3    3    0    0  0.16820930033E+02 -0.70985710061E-01  0.81960005831E+01  0.18711578012E+02  0.00000000000E+00 0.  1.
</event>
<event>
 7    1  0.5743890E-009  0.4614232E+02  0.7816164E-02  0.1320468E+00
        -11   -1    0    0    0    0  0.00000000000E+00  0.00000000000E+00  0.45593999997E+02  0.45594000000E+02  0.51100000000E-03 0. -1.
         11   -1    0    0    0    0 -0.00000000000E+00 -0.00000000000E+00 -0.45593999997E+02  0.45594000000E+02  0.51100000000E-03 0.  1.
    9900012    2    1    2    0    0  0.29238758371E+02 -0.14833218078E+02  0.30889871560E+02  0.46142317470E+02  0.99999973462E+01 0.  0.
        -12    1    1    2    0    0 -0.29238758371E+02  0.14833218078E+02 -0.30889871560E+02  0.45045682530E+02  0.00000000000E+00 0.  1.
         11    1    3    3    0    0  0.17663133362E+02 -0.74999047320E+01  0.18158074787E+02  0.26418753403E+02  0.51100000000E-03 0. -1.
        -11    1    3    3    0    0  0.19152195121E+00  0.86323998665E+00  0.15496495330E+01  0.17841742820E+01  0.51100000000E-03 0.  1.
        -12    1    3    3    0    0  0.11384103058E+02 -0.81965533328E+01  0.11182147240E+02  0.17939389785E+02  0.00000000000E+00 0.  1.
</event>
<event>
 7    1  0.5743890E-009  0.4614232E+02  0.7816164E-02  0.1320468E+00
        -11   -1    0    0    0    0  0.00000000000E+00  0.00000000000E+00  0.45593999997E+02  0.45594000000E+02  0.51100000000E-03 0. -1.
         11   -1    0    0    0    0 -0.00000000000E+00 -0.00000000000E+00 -0.45593999997E+02  0.45594000000E+02  0.51100000000E-03 0.  1.
    9900012    2    1    2    0    0 -0.23372092540E+02  0.12617073938E+02  0.36382251134E+02  0.46142318053E+02  0.10000002663E+02 0.  0.
        -12    1    1    2    0    0  0.23372092540E+02 -0.12617073938E+02 -0.36382251134E+02  0.45045681947E+02  0.00000000000E+00 0.  1.
         11    1    3    3    0    0 -0.15137712965E+02  0.90036367504E+01  0.17013041128E+02  0.24487943916E+02  0.51100000000E-03 0. -1.
        -11    1    3    3    0    0 -0.29789131276E+01  0.26967296044E+01  0.56392948736E+01  0.69244437260E+01  0.51100000000E-03 0.  1.
         12    1    3    3    0    0 -0.52554664473E+01  0.91670758300E+00  0.13729915132E+02  0.14729930411E+02  0.00000000000E+00 0. -1.
</event>
<event>
 7    1  0.5743890E-009  0.4614232E+02  0.7816164E-02  0.1320468E+00
        -11   -1    0    0    0    0  0.00000000000E+00  0.00000000000E+00  0.45593999997E+02  0.45594000000E+02  0.51100000000E-03 0. -1.
         11   -1    0    0    0    0 -0.00000000000E+00 -0.00000000000E+00 -0.45593999997E+02  0.45594000000E+02  0.51100000000E-03 0.  1.
    9900012    2    1    2    0    0  0.14454743984E+02  0.54343331052E+01  0.42315976242E+02  0.46142318240E+02  0.10000004369E+02 0.  0.
        -12    1    1    2    0    0 -0.14454743984E+02 -0.54343331052E+01 -0.42315976242E+02  0.45045681760E+02  0.00000000000E+00 0.  1.
         11    1    3    3    0    0  0.60229744729E+01 -0.16247663825E+01  0.19471958946E+02  0.20446840166E+02  0.51100000000E-03 0. -1.
        -11    1    3    3    0    0  0.13319371713E+01  0.25568698154E+01  0.94650942471E+01  0.98944251601E+01  0.51100000000E-03 0.  1.
        -12    1    3    3    0    0  0.70998323397E+01  0.45022296724E+01  0.13378923048E+02  0.15801052915E+02  0.00000000000E+00 0.  1.
</event>
<event>
 7    1  0.5743890E-009  0.4614232E+02  0.7816164E-02  0.1320468E+00
        -11   -1    0    0    0    0  0.00000000000E+00  0.00000000000E+00  0.45593999997E+02  0.45594000000E+02  0.51100000000E-03 0. -1.
         11   -1    0    0    0    0 -0.00000000000E+00 -0.00000000000E+00 -0.45593999997E+02  0.45594000000E+02  0.51100000000E-03 0.  1.
    9900012    2    1    2    0    0 -0.38556801196E+02  0.19300191635E+02 -0.13037968608E+02  0.46142323836E+02  0.10000055395E+02 0.  0.
         12    1    1    2    0    0  0.38556801196E+02 -0.19300191635E+02  0.13037968608E+02  0.45045676164E+02  0.00000000000E+00 0. -1.
         11    1    3    3    0    0 -0.22523500260E+02  0.90895968301E+01 -0.82455462772E+01  0.25649909711E+02  0.51100000000E-03 0. -1.
        -11    1    3    3    0    0 -0.14887949993E+02  0.69954080674E+01 -0.33507469879E+01  0.16787325417E+02  0.51100000000E-03 0.  1.
         12    1    3    3    0    0 -0.11453509437E+01  0.32151867376E+01 -0.14416753431E+01  0.37050887083E+01  0.00000000000E+00 0. -1.
</event>
<event>
 7    1  0.5743890E-009  0.4614232E+02  0.7816164E-02  0.1320468E+00
        -11   -1    0    0    0    0  0.00000000000E+00  0.00000000000E+00  0.45593999997E+02  0.45594000000E+02  0.51100000000E-03 0. -1.
         11   -1    0    0    0    0 -0.00000000000E+00 -0.00000000000E+00 -0.45593999997E+02  0.45594000000E+02  0.51100000000E-03 0.  1.
    9900012    2    1    2    0    0 -0.29655874268E+02 -0.32100463480E+02  0.10918005968E+02  0.46142317759E+02  0.99999999796E+01 0.  0.
        -12    1    1    2    0    0  0.29655874268E+02  0.32100463480E+02 -0.10918005968E+02  0.45045682241E+02  0.00000000000E+00 0.  1.
         11    1    3    3    0    0 -0.96275039289E+01 -0.81073835188E+01  0.61948990358E+01  0.14028373881E+02  0.51100000000E-03 0. -1.
        -11    1    3    3    0    0 -0.30303021605E+01 -0.10459311280E+01  0.37030807403E+00  0.32270468604E+01  0.51100000000E-03 0.  1.
         12    1    3    3    0    0 -0.16998068179E+02 -0.22947148834E+02  0.43527988579E+01  0.28886897017E+02  0.00000000000E+00 0. -1.
</event>
<event>
 7    1  0.5743890E-009  0.4614232E+02  0.7816164E-02  0.1320468E+00
        -11   -1    0    0    0    0  0.00000000000E+00  0.00000000000E+00  0.45593999997E+02  0.45594000000E+02  0.51100000000E-03 0. -1.
         11   -1    0    0    0    0 -0.00000000000E+00 -0.00000000000E+00 -0.45593999997E+02  0.45594000000E+02  0.51100000000E-03 0.  1.
    9900012    2    1    2    0    0 -0.34226545101E+02  0.24777317563E+02  0.15612226871E+02  0.46142317820E+02  0.10000000539E+02 0.  0.
        -12    1    1    2    0    0  0.34226545101E+02 -0.24777317563E+02 -0.15612226871E+02  0.45045682180E+02  0.00000000000E+00 0.  1.
         11    1    3    3    0    0 -0.11919393177E+01  0.88949567755E+00 -0.81219462434E+00  0.16945743614E+01  0.51100000000E-03 0. -1.
        -11    1    3    3    0    0 -0.52281632597E+01  0.56357750783E+01  0.54467584188E+01  0.94214027266E+01  0.51100000000E-03 0.  1.
         12    1    3    3    0    0 -0.27806442524E+02  0.18252046807E+02  0.10977663076E+02  0.35026340732E+02  0.00000000000E+00 0. -1.
</event>
<event>
 7    1  0.5743890E-009  0.4614232E+02  0.7816164E-02  0.1320468E+00
        -11   -1    0    0    0    0  0.00000000000E+00  0.00000000000E+00  0.45593999997E+02  0.45594000000E+02  0.51100000000E-03 0.  1.
         11   -1    0    0    0    0 -0.00000000000E+00 -0.00000000000E+00 -0.45593999997E+02  0.45594000000E+02  0.51100000000E-03 0. -1.
    9900012    2    1    2    0    0  0.19503680782E+02  0.31087591705E+02  0.26120517735E+02  0.46142319088E+02  0.10000012099E+02 0.  0.
        -12    1    1    2    0    0 -0.19503680782E+02 -0.31087591705E+02 -0.26120517735E+02  0.45045680912E+02  0.00000000000E+00 0.  1.
         11    1    3    3    0    0  0.16437445181E+02  0.19305162078E+02  0.19862908084E+02  0.32208911883E+02  0.51100000000E-03 0. -1.
        -11    1    3    3    0    0 -0.24677601859E+00  0.12282112234E+01  0.13188375545E+01  0.18189925698E+01  0.51100000000E-03 0.  1.
        -12    1    3    3    0    0  0.33130116205E+01  0.10554218404E+02  0.49387720968E+01  0.12114414635E+02  0.00000000000E+00 0.  1.
</event>
<event>
 7    1  0.5743890E-009  0.4614231E+02  0.7816164E-02  0.1320468E+00
        -11   -1    0    0    0    0  0.00000000000E+00  0.00000000000E+00  0.45593999997E+02  0.45594000000E+02  0.51100000000E-03 0. -1.
         11   -1    0    0    0    0 -0.00000000000E+00 -0.00000000000E+00 -0.45593999997E+02  0.45594000000E+02  0.51100000000E-03 0.  1.
    9900012    2    1    2    0    0  0.38892615358E+02  0.74668428672E+01 -0.21464497740E+02  0.46142312803E+02  0.99999547924E+01 0.  0.
         12    1    1    2    0    0 -0.38892615358E+02 -0.74668428672E+01  0.21464497740E+02  0.45045687197E+02  0.00000000000E+00 0. -1.
         11    1    3    3    0    0  0.18632565770E+02  0.38862447945E+01 -0.49381209909E+01  0.19663683403E+02  0.51100000000E-03 0. -1.
        -11    1    3    3    0    0  0.83196637472E+01  0.19540225301E+01 -0.56446646402E+01  0.10241935758E+02  0.51100000000E-03 0.  1.
         12    1    3    3    0    0  0.11940385840E+02  0.16265755427E+01 -0.10881712109E+02  0.16236693642E+02  0.00000000000E+00 0. -1.
</event>
<event>
 7    1  0.5743890E-009  0.4614231E+02  0.7816164E-02  0.1320468E+00
        -11   -1    0    0    0    0  0.00000000000E+00  0.00000000000E+00  0.45593999997E+02  0.45594000000E+02  0.51100000000E-03 0.  1.
         11   -1    0    0    0    0 -0.00000000000E+00 -0.00000000000E+00 -0.45593999997E+02  0.45594000000E+02  0.51100000000E-03 0. -1.
    9900012    2    1    2    0    0  0.14457256991E+00  0.37094155542E+02 -0.25556148574E+02  0.46142312010E+02  0.99999475523E+01 0.  0.
        -12    1    1    2    0    0 -0.14457256991E+00 -0.37094155542E+02  0.25556148574E+02  0.45045687990E+02  0.00000000000E+00 0.  1.
         11    1    3    3    0    0  0.45263467600E+00  0.14655421081E+02 -0.11973132267E+02  0.18929927146E+02  0.51100000000E-03 0. -1.
        -11    1    3    3    0    0  0.16671293615E+01  0.13261121077E+02 -0.11417075957E+02  0.17578005467E+02  0.51100000000E-03 0.  1.
         12    1    3    3    0    0 -0.19751914676E+01  0.91776133835E+01 -0.21659403503E+01  0.96343793963E+01  0.00000000000E+00 0. -1.
</event>
<event>
 7    1  0.5743890E-009  0.4614232E+02  0.7816164E-02  0.1320468E+00
        -11   -1    0    0    0    0  0.00000000000E+00  0.00000000000E+00  0.45593999997E+02  0.45594000000E+02  0.51100000000E-03 0. -1.
         11   -1    0    0    0    0 -0.00000000000E+00 -0.00000000000E+00 -0.45593999997E+02  0.45594000000E+02  0.51100000000E-03 0.  1.
    9900012    2    1    2    0    0  0.13506798451E+02 -0.36770013827E+01 -0.42815412212E+02  0.46142318004E+02  0.10000002218E+02 0.  0.
         12    1    1    2    0    0 -0.13506798451E+02  0.36770013827E+01  0.42815412212E+02  0.45045681996E+02  0.00000000000E+00 0. -1.
         11    1    3    3    0    0  0.74439366517E+01 -0.39612856085E+01 -0.21543816130E+02  0.23135254272E+02  0.51100000000E-03 0. -1.
        -11    1    3    3    0    0 -0.68998889142E-01 -0.19377146002E+01 -0.78332925875E+01  0.80696946498E+01  0.51100000000E-03 0.  1.
        -12    1    3    3    0    0  0.61318606884E+01  0.22219988260E+01 -0.13438303494E+02  0.14937369082E+02  0.00000000000E+00 0.  1.
</event>
<event>
 7    1  0.5743890E-009  0.4614232E+02  0.7816164E-02  0.1320468E+00
        -11   -1    0    0    0    0  0.00000000000E+00  0.00000000000E+00  0.45593999997E+02  0.45594000000E+02  0.51100000000E-03 0. -1.
         11   -1    0    0    0    0 -0.00000000000E+00 -0.00000000000E+00 -0.45593999997E+02  0.45594000000E+02  0.51100000000E-03 0.  1.
    9900012    2    1    2    0    0  0.10560689324E+02 -0.39907691248E+02  0.18026691263E+02  0.46142316770E+02  0.99999909607E+01 0.  0.
        -12    1    1    2    0    0 -0.10560689324E+02  0.39907691248E+02 -0.18026691263E+02  0.45045683230E+02  0.00000000000E+00 0.  1.
         11    1    3    3    0    0  0.40320183200E+01 -0.16921363733E+02  0.53030737707E+01  0.18185497354E+02  0.51100000000E-03 0. -1.
        -11    1    3    3    0    0 -0.44769146947E+00 -0.11269030905E+01 -0.67283799144E+00  0.13867405854E+01  0.51100000000E-03 0.  1.
        -12    1    3    3    0    0  0.69763624739E+01 -0.21859424425E+02  0.13396455483E+02  0.26570078831E+02  0.00000000000E+00 0.  1.
</event>
<event>
 7    1  0.5743890E-009  0.4614232E+02  0.7816164E-02  0.1320468E+00
        -11   -1    0    0    0    0  0.00000000000E+00  0.00000000000E+00  0.45593999997E+02  0.45594000000E+02  0.51100000000E-03 0. -1.
         11   -1    0    0    0    0 -0.00000000000E+00 -0.00000000000E+00 -0.45593999997E+02  0.45594000000E+02  0.51100000000E-03 0.  1.
    9900012    2    1    2    0    0  0.24417960635E+02 -0.14971823232E+02  0.34766665283E+02  0.46142319770E+02  0.10000018318E+02 0.  0.
        -12    1    1    2    0    0 -0.24417960635E+02  0.14971823232E+02 -0.34766665283E+02  0.45045680230E+02  0.00000000000E+00 0.  1.
         11    1    3    3    0    0  0.11951810844E+02 -0.63420403131E+01  0.20467904620E+02  0.24535736744E+02  0.51100000000E-03 0. -1.
        -11    1    3    3    0    0  0.64060305059E+01 -0.15523787137E+01  0.39631569266E+01  0.76911455323E+01  0.51100000000E-03 0.  1.
        -12    1    3    3    0    0  0.60601192853E+01 -0.70774042051E+01  0.10335603736E+02  0.13915437493E+02  0.00000000000E+00 0.  1.
</event>
<event>
 7    1  0.5743890E-009  0.4614232E+02  0.7816164E-02  0.1320468E+00
        -11   -1    0    0    0    0  0.00000000000E+00  0.00000000000E+00  0.45593999997E+02  0.45594000000E+02  0.51100000000E-03 0. -1.
         11   -1    0    0    0    0 -0.00000000000E+00 -0.00000000000E+00 -0.45593999997E+02  0.45594000000E+02  0.51100000000E-03 0.  1.
    9900012    2    1    2    0    0  0.25494190858E+02  0.74210953974E+01  0.36388006500E+02  0.46142318282E+02  0.10000004749E+02 0.  0.
        -12    1    1    2    0    0 -0.25494190858E+02 -0.74210953974E+01 -0.36388006500E+02  0.45045681718E+02  0.00000000000E+00 0.  1.
         11    1    3    3    0    0  0.13483367400E+02  0.45269245843E+01  0.13989084607E+02  0.19949654911E+02  0.51100000000E-03 0. -1.
        -11    1    3    3    0    0  0.31596189950E+01  0.26513697091E+01  0.11073314688E+02  0.11816566844E+02  0.51100000000E-03 0.  1.
         12    1    3    3    0    0  0.88512044623E+01  0.24280110406E+00  0.11325607205E+02  0.14376096527E+02  0.00000000000E+00 0. -1.
</event>
<event>
 7    1  0.5743890E-009  0.4614232E+02  0.7816164E-02  0.1320468E+00
        -11   -1    0    0    0    0  0.00000000000E+00  0.00000000000E+00  0.45593999997E+02  0.45594000000E+02  0.51100000000E-03 0.  1.
         11   -1    0    0    0    0 -0.00000000000E+00 -0.00000000000E+00 -0.45593999997E+02  0.45594000000E+02  0.51100000000E-03 0. -1.
    9900012    2    1    2    0    0  0.29185961631E+02 -0.18658271498E+02  0.28795174219E+02  0.46142317522E+02  0.99999978153E+01 0.  0.
        -12    1    1    2    0    0 -0.29185961631E+02  0.18658271498E+02 -0.28795174219E+02  0.45045682478E+02  0.00000000000E+00 0.  1.
         11    1    3    3    0    0  0.17489140267E+02 -0.99225117082E+01  0.11473728776E+02  0.23151084600E+02  0.51100000000E-03 0. -1.
        -11    1    3    3    0    0  0.10128486201E+02 -0.60761867716E+01  0.11991550632E+02  0.16831623963E+02  0.51100000000E-03 0.  1.
        -12    1    3    3    0    0  0.15683351631E+01 -0.26595730179E+01  0.53298948108E+01  0.61596089580E+01  0.00000000000E+00 0.  1.
</event>
<event>
 7    1  0.5997597E-009  0.4614231E+02  0.7816164E-02  0.1320468E+00
        -11   -1    0    0    0    0  0.00000000000E+00  0.00000000000E+00  0.45593999997E+02  0.45594000000E+02  0.51100000000E-03 0. -1.
         11   -1    0    0    0    0 -0.00000000000E+00 -0.00000000000E+00 -0.45593999997E+02  0.45594000000E+02  0.51100000000E-03 0.  1.
    9900012    2    1    2    0    0  0.28174463228E+02  0.10481289884E+02  0.33547815581E+02  0.46142314901E+02  0.99999739157E+01 0.  0.
        -12    1    1    2    0    0 -0.28174463228E+02 -0.10481289884E+02 -0.33547815581E+02  0.45045685099E+02  0.00000000000E+00 0.  1.
         11    1    3    3    0    0  0.11878079815E+02  0.49766334908E+01  0.11402723544E+02  0.17201097799E+02  0.51100000000E-03 0. -1.
        -11    1    3    3    0    0  0.40950498610E+01  0.31658645236E+01  0.26267167206E+01  0.58044614339E+01  0.51100000000E-03 0.  1.
         12    1    3    3    0    0  0.12201333552E+02  0.23387918693E+01  0.19518375316E+02  0.23136755668E+02  0.00000000000E+00 0. -1.
</event>
<event>
 7    1  0.5743890E-009  0.4614232E+02  0.7816164E-02  0.1320468E+00
        -11   -1    0    0    0    0  0.00000000000E+00  0.00000000000E+00  0.45593999997E+02  0.45594000000E+02  0.51100000000E-03 0. -1.
         11   -1    0    0    0    0 -0.00000000000E+00 -0.00000000000E+00 -0.45593999997E+02  0.45594000000E+02  0.51100000000E-03 0.  1.
    9900012    2    1    2    0    0 -0.23801262112E+02  0.14448466394E+02  0.35409818872E+02  0.46142317279E+02  0.99999956012E+01 0.  0.
        -12    1    1    2    0    0  0.23801262112E+02 -0.14448466394E+02 -0.35409818872E+02  0.45045682721E+02  0.00000000000E+00 0.  1.
         11    1    3    3    0    0 -0.56068824363E+01  0.42605832040E+01  0.15889187792E+02  0.17379758021E+02  0.51100000000E-03 0. -1.
        -11    1    3    3    0    0 -0.69303233068E+01  0.29355791361E+01  0.89745050588E+01  0.11712760021E+02  0.51100000000E-03 0.  1.
        -12    1    3    3    0    0 -0.11264056369E+02  0.72523040535E+01  0.10546126021E+02  0.17049799237E+02  0.00000000000E+00 0.  1.
</event>
<event>
 7    1  0.5743890E-009  0.4614232E+02  0.7816164E-02  0.1320468E+00
        -11   -1    0    0    0    0  0.00000000000E+00  0.00000000000E+00  0.45593999997E+02  0.45594000000E+02  0.51100000000E-03 0. -1.
         11   -1    0    0    0    0 -0.00000000000E+00 -0.00000000000E+00 -0.45593999997E+02  0.45594000000E+02  0.51100000000E-03 0.  1.
    9900012    2    1    2    0    0  0.60554882073E+01  0.27121600465E+02 -0.35452269259E+02  0.46142317135E+02  0.99999942882E+01 0.  0.
         12    1    1    2    0    0 -0.60554882073E+01 -0.27121600465E+02  0.35452269259E+02  0.45045682865E+02  0.00000000000E+00 0. -1.
         11    1    3    3    0    0 -0.58918620985E+00  0.53464680372E+01 -0.42766920265E+01  0.68718233252E+01  0.51100000000E-03 0. -1.
        -11    1    3    3    0    0  0.76213204782E+00  0.14186356077E+02 -0.17095585386E+02  0.22228193448E+02  0.51100000000E-03 0.  1.
        -12    1    3    3    0    0  0.58825423693E+01  0.75887763505E+01 -0.14079991846E+02  0.17042300362E+02  0.00000000000E+00 0.  1.
</event>
<event>
 7    1  0.5743890E-009  0.4614232E+02  0.7816164E-02  0.1320468E+00
        -11   -1    0    0    0    0  0.00000000000E+00  0.00000000000E+00  0.45593999997E+02  0.45594000000E+02  0.51100000000E-03 0. -1.
         11   -1    0    0    0    0 -0.00000000000E+00 -0.00000000000E+00 -0.45593999997E+02  0.45594000000E+02  0.51100000000E-03 0.  1.
    9900012    2    1    2    0    0  0.13530678234E+02  0.87826472602E+01  0.42058285164E+02  0.46142317662E+02  0.99999990992E+01 0.  0.
        -12    1    1    2    0    0 -0.13530678234E+02 -0.87826472602E+01 -0.42058285164E+02  0.45045682338E+02  0.00000000000E+00 0.  1.
         11    1    3    3    0    0 -0.19755384097E+00  0.23005497692E+01  0.56636521969E+01  0.61162499319E+01  0.51100000000E-03 0. -1.
        -11    1    3    3    0    0  0.14875354312E+00  0.53211996226E-01  0.71140655972E+01  0.71158196095E+01  0.51100000000E-03 0.  1.
         12    1    3    3    0    0  0.13579478532E+02  0.64288854947E+01  0.29280567369E+02  0.32910248121E+02  0.00000000000E+00 0. -1.
</event>
<event>
 7    1  0.5743890E-009  0.4614232E+02  0.7816164E-02  0.1320468E+00
        -11   -1    0    0    0    0  0.00000000000E+00  0.00000000000E+00  0.45593999997E+02  0.45594000000E+02  0.51100000000E-03 0. -1.
         11   -1    0    0    0    0 -0.00000000000E+00 -0.00000000000E+00 -0.45593999997E+02  0.45594000000E+02  0.51100000000E-03 0.  1.
    9900012    2    1    2    0    0 -0.19724240364E+02 -0.19949647396E+02 -0.35243146788E+02  0.46142317801E+02  0.10000000366E+02 0.  0.
         12    1    1    2    0    0  0.19724240364E+02  0.19949647396E+02  0.35243146788E+02  0.45045682199E+02  0.00000000000E+00 0. -1.
         11    1    3    3    0    0 -0.54760826930E+01 -0.10236708067E+02 -0.95276192812E+01  0.15018428784E+02  0.51100000000E-03 0. -1.
        -11    1    3    3    0    0 -0.61158806607E+01 -0.43093241444E+01 -0.84283215906E+01  0.11269910201E+02  0.51100000000E-03 0.  1.
         12    1    3    3    0    0 -0.81322770108E+01 -0.54036151851E+01 -0.17287205917E+02  0.19853978817E+02  0.00000000000E+00 0. -1.
</event>
<event>
 7    1  0.5743890E-009  0.4614232E+02  0.7816164E-02  0.1320468E+00
        -11   -1    0    0    0    0  0.00000000000E+00  0.00000000000E+00  0.45593999997E+02  0.45594000000E+02  0.51100000000E-03 0. -1.
         11   -1    0    0    0    0 -0.00000000000E+00 -0.00000000000E+00 -0.45593999997E+02  0.45594000000E+02  0.51100000000E-03 0.  1.
    9900012    2    1    2    0    0  0.13910443916E+01 -0.85676416240E+01  0.44201515501E+02  0.46142318075E+02  0.10000002863E+02 0.  0.
        -12    1    1    2    0    0 -0.13910443916E+01  0.85676416240E+01 -0.44201515501E+02  0.45045681925E+02  0.00000000000E+00 0.  1.
         11    1    3    3    0    0  0.33231576001E+00  0.56823701253E+00  0.56317740100E+00  0.86631178734E+00  0.51100000000E-03 0. -1.
        -11    1    3    3    0    0  0.26057923036E+01 -0.74559471847E+01  0.19630883564E+02  0.21160172299E+02  0.51100000000E-03 0.  1.
         12    1    3    3    0    0 -0.15470636720E+01 -0.16799314518E+01  0.24007454536E+02  0.24115833989E+02  0.00000000000E+00 0. -1.
</event>
<event>
 7    1  0.5743890E-009  0.4614232E+02  0.7816164E-02  0.1320468E+00
        -11   -1    0    0    0    0  0.00000000000E+00  0.00000000000E+00  0.45593999997E+02  0.45594000000E+02  0.51100000000E-03 0. -1.
         11   -1    0    0    0    0 -0.00000000000E+00 -0.00000000000E+00 -0.45593999997E+02  0.45594000000E+02  0.51100000000E-03 0.  1.
    9900012    2    1    2    0    0 -0.17133898447E+02 -0.23719361379E+02 -0.34248136754E+02  0.46142318172E+02  0.10000003750E+02 0.  0.
         12    1    1    2    0    0  0.17133898447E+02  0.23719361379E+02  0.34248136754E+02  0.45045681828E+02  0.00000000000E+00 0. -1.
         11    1    3    3    0    0 -0.12185732513E+02 -0.11447170840E+02 -0.18764051176E+02  0.25132039589E+02  0.51100000000E-03 0. -1.
        -11    1    3    3    0    0 -0.54480699310E+01 -0.81040879822E+01 -0.12488555244E+02  0.15853129670E+02  0.51100000000E-03 0.  1.
        -12    1    3    3    0    0  0.49990399680E+00 -0.41681025569E+01 -0.29955303337E+01  0.51571489130E+01  0.00000000000E+00 0.  1.
</event>
<event>
 7    1  0.5743890E-009  0.4614232E+02  0.7816164E-02  0.1320468E+00
        -11   -1    0    0    0    0  0.00000000000E+00  0.00000000000E+00  0.45593999997E+02  0.45594000000E+02  0.51100000000E-03 0. -1.
         11   -1    0    0    0    0 -0.00000000000E+00 -0.00000000000E+00 -0.45593999997E+02  0.45594000000E+02  0.51100000000E-03 0.  1.
    9900012    2    1    2    0    0 -0.18314644083E+02 -0.17230023754E+02 -0.37373967758E+02  0.46142319048E+02  0.10000011732E+02 0.  0.
         12    1    1    2    0    0  0.18314644083E+02  0.17230023754E+02  0.37373967758E+02  0.45045680952E+02  0.00000000000E+00 0. -1.
         11    1    3    3    0    0 -0.52292569711E+01 -0.10570595016E+01 -0.11934584190E+02  0.13072750411E+02  0.51100000000E-03 0. -1.
        -11    1    3    3    0    0 -0.93394182001E+01 -0.86735813526E+01 -0.15428567258E+02  0.20012406994E+02  0.51100000000E-03 0.  1.
         12    1    3    3    0    0 -0.37459689121E+01 -0.74993828998E+01 -0.10010816310E+02  0.13057161643E+02  0.00000000000E+00 0. -1.
</event>
<event>
 7    1  0.5743890E-009  0.4614232E+02  0.7816164E-02  0.1320468E+00
        -11   -1    0    0    0    0  0.00000000000E+00  0.00000000000E+00  0.45593999997E+02  0.45594000000E+02  0.51100000000E-03 0. -1.
         11   -1    0    0    0    0 -0.00000000000E+00 -0.00000000000E+00 -0.45593999997E+02  0.45594000000E+02  0.51100000000E-03 0.  1.
    9900012    2    1    2    0    0 -0.28776388144E+02  0.17397466855E+02 -0.29972672477E+02  0.46142318043E+02  0.10000002566E+02 0.  0.
         12    1    1    2    0    0  0.28776388144E+02 -0.17397466855E+02  0.29972672477E+02  0.45045681957E+02  0.00000000000E+00 0. -1.
         11    1    3    3    0    0 -0.19019121497E+02  0.10197444942E+02 -0.16244953362E+02  0.27011356424E+02  0.51100000000E-03 0. -1.
        -11    1    3    3    0    0 -0.10459944080E+02  0.65983810129E+01 -0.13084526600E+02  0.18004274458E+02  0.51100000000E-03 0.  1.
         12    1    3    3    0    0  0.70267743245E+00  0.60164090098E+00 -0.64319251477E+00  0.11266871610E+01  0.00000000000E+00 0. -1.
</event>
<event>
 7    1  0.5743890E-009  0.4614232E+02  0.7816164E-02  0.1320468E+00
        -11   -1    0    0    0    0  0.00000000000E+00  0.00000000000E+00  0.45593999997E+02  0.45594000000E+02  0.51100000000E-03 0. -1.
         11   -1    0    0    0    0 -0.00000000000E+00 -0.00000000000E+00 -0.45593999997E+02  0.45594000000E+02  0.51100000000E-03 0.  1.
    9900012    2    1    2    0    0  0.47707432037E+01 -0.40562720788E+02  0.19000504258E+02  0.46142317959E+02  0.10000001805E+02 0.  0.
        -12    1    1    2    0    0 -0.47707432037E+01  0.40562720788E+02 -0.19000504258E+02  0.45045682041E+02  0.00000000000E+00 0.  1.
         11    1    3    3    0    0  0.92371286717E+00 -0.28216251545E+01  0.19763274675E+01  0.35666068599E+01  0.51100000000E-03 0. -1.
        -11    1    3    3    0    0  0.17792442055E+01 -0.36621282036E+02  0.16199519047E+02  0.40083767606E+02  0.51100000000E-03 0.  1.
        -12    1    3    3    0    0  0.20677861310E+01 -0.11198135981E+01  0.82465774321E+00  0.24919434929E+01  0.00000000000E+00 0.  1.
</event>
<event>
 7    1  0.5743890E-009  0.4614232E+02  0.7816164E-02  0.1320468E+00
        -11   -1    0    0    0    0  0.00000000000E+00  0.00000000000E+00  0.45593999997E+02  0.45594000000E+02  0.51100000000E-03 0. -1.
         11   -1    0    0    0    0 -0.00000000000E+00 -0.00000000000E+00 -0.45593999997E+02  0.45594000000E+02  0.51100000000E-03 0.  1.
    9900012    2    1    2    0    0  0.20691900218E+02 -0.34131264874E+02 -0.20880975532E+02  0.46142321898E+02  0.10000037726E+02 0.  0.
         12    1    1    2    0    0 -0.20691900218E+02  0.34131264874E+02  0.20880975532E+02  0.45045678102E+02  0.00000000000E+00 0. -1.
         11    1    3    3    0    0  0.37613276304E+01 -0.33002685846E+01 -0.13456920622E+01  0.51817222678E+01  0.51100000000E-03 0. -1.
        -11    1    3    3    0    0  0.12284599047E+02 -0.20290569204E+02 -0.90604441589E+01  0.25391144539E+02  0.51100000000E-03 0.  1.
        -12    1    3    3    0    0  0.46459735400E+01 -0.10540427084E+02 -0.10474839310E+02  0.15569455091E+02  0.00000000000E+00 0.  1.
</event>
<event>
 7    1  0.5743890E-009  0.4614230E+02  0.7816164E-02  0.1320468E+00
        -11   -1    0    0    0    0  0.00000000000E+00  0.00000000000E+00  0.45593999997E+02  0.45594000000E+02  0.51100000000E-03 0. -1.
         11   -1    0    0    0    0 -0.00000000000E+00 -0.00000000000E+00 -0.45593999997E+02  0.45594000000E+02  0.51100000000E-03 0.  1.
    9900012    2    1    2    0    0  0.39204766937E+02 -0.12079294153E+02 -0.18606224921E+02  0.46142304272E+02  0.99998769947E+01 0.  0.
         12    1    1    2    0    0 -0.39204766937E+02  0.12079294153E+02  0.18606224921E+02  0.45045695728E+02  0.00000000000E+00 0. -1.
         11    1    3    3    0    0  0.20644311143E+02 -0.33602756814E+01 -0.74202632401E+01  0.22193227392E+02  0.51100000000E-03 0.  1.
        -11    1    3    3    0    0  0.12403621387E+02 -0.36796019808E+01 -0.49979772054E+01  0.13869717757E+02  0.51100000000E-03 0. -1.
         12    1    3    3    0    0  0.61568344070E+01 -0.50394164906E+01 -0.61879844753E+01  0.10079359124E+02  0.00000000000E+00 0. -1.
</event>
<event>
 7    1  0.5743890E-009  0.4614231E+02  0.7816164E-02  0.1320468E+00
        -11   -1    0    0    0    0  0.00000000000E+00  0.00000000000E+00  0.45593999997E+02  0.45594000000E+02  0.51100000000E-03 0. -1.
         11   -1    0    0    0    0 -0.00000000000E+00 -0.00000000000E+00 -0.45593999997E+02  0.45594000000E+02  0.51100000000E-03 0.  1.
    9900012    2    1    2    0    0 -0.28236806402E+02  0.19307491397E+02 -0.29308997568E+02  0.46142314322E+02  0.99999686372E+01 0.  0.
         12    1    1    2    0    0  0.28236806402E+02 -0.19307491397E+02  0.29308997568E+02  0.45045685678E+02  0.00000000000E+00 0. -1.
         11    1    3    3    0    0 -0.15045082489E+02  0.78116498176E+01 -0.10234899477E+02  0.19802261173E+02  0.51100000000E-03 0. -1.
        -11    1    3    3    0    0 -0.67002439516E+01  0.45498025353E+01 -0.55879990486E+01  0.98397004908E+01  0.51100000000E-03 0.  1.
        -12    1    3    3    0    0 -0.64914799610E+01  0.69460390441E+01 -0.13486099042E+02  0.16500352658E+02  0.00000000000E+00 0.  1.
</event>
<event>
 7    1  0.5743890E-009  0.4614232E+02  0.7816164E-02  0.1320468E+00
        -11   -1    0    0    0    0  0.00000000000E+00  0.00000000000E+00  0.45593999997E+02  0.45594000000E+02  0.51100000000E-03 0. -1.
         11   -1    0    0    0    0 -0.00000000000E+00 -0.00000000000E+00 -0.45593999997E+02  0.45594000000E+02  0.51100000000E-03 0.  1.
    9900012    2    1    2    0    0  0.14619108469E+02 -0.76196692553E+01  0.41920589461E+02  0.46142317490E+02  0.99999975323E+01 0.  0.
        -12    1    1    2    0    0 -0.14619108469E+02  0.76196692553E+01 -0.41920589461E+02  0.45045682510E+02  0.00000000000E+00 0.  1.
         11    1    3    3    0    0  0.11669433121E+01 -0.34056119809E+01  0.66316396811E+01  0.75457666793E+01  0.51100000000E-03 0. -1.
        -11    1    3    3    0    0 -0.45837743988E+00 -0.55572302070E+00  0.51631914426E+01  0.52132028626E+01  0.51100000000E-03 0.  1.
         12    1    3    3    0    0  0.13910542597E+02 -0.36583342536E+01  0.30125758337E+02  0.33383347949E+02  0.00000000000E+00 0. -1.
</event>
<event>
 7    1  0.5743890E-009  0.4614232E+02  0.7816164E-02  0.1320468E+00
        -11   -1    0    0    0    0  0.00000000000E+00  0.00000000000E+00  0.45593999997E+02  0.45594000000E+02  0.51100000000E-03 0. -1.
         11   -1    0    0    0    0 -0.00000000000E+00 -0.00000000000E+00 -0.45593999997E+02  0.45594000000E+02  0.51100000000E-03 0.  1.
    9900012    2    1    2    0    0  0.37254593021E+01 -0.23688685017E+02  0.38132408784E+02  0.46142318247E+02  0.10000004433E+02 0.  0.
        -12    1    1    2    0    0 -0.37254593021E+01  0.23688685017E+02 -0.38132408784E+02  0.45045681753E+02  0.00000000000E+00 0.  1.
         11    1    3    3    0    0  0.16734788723E+01 -0.15004405374E+01  0.73071478994E+01  0.76450156329E+01  0.51100000000E-03 0. -1.
        -11    1    3    3    0    0 -0.18088177839E+01 -0.67847475136E+01  0.11623952756E+02  0.13580165629E+02  0.51100000000E-03 0.  1.
        -12    1    3    3    0    0  0.38607982138E+01 -0.15403496966E+02  0.19201308130E+02  0.24917136985E+02  0.00000000000E+00 0.  1.
</event>
<event>
 7    1  0.5743890E-009  0.4614232E+02  0.7816164E-02  0.1320468E+00
        -11   -1    0    0    0    0  0.00000000000E+00  0.00000000000E+00  0.45593999997E+02  0.45594000000E+02  0.51100000000E-03 0. -1.
         11   -1    0    0    0    0 -0.00000000000E+00 -0.00000000000E+00 -0.45593999997E+02  0.45594000000E+02  0.51100000000E-03 0.  1.
    9900012    2    1    2    0    0 -0.31791053780E+02 -0.55063892208E+01 -0.31434409482E+02  0.46142317386E+02  0.99999965771E+01 0.  0.
         12    1    1    2    0    0  0.31791053780E+02  0.55063892208E+01  0.31434409482E+02  0.45045682614E+02  0.00000000000E+00 0. -1.
         11    1    3    3    0    0 -0.36650147168E+01 -0.28109645835E+01 -0.52411535047E+01  0.69859534128E+01  0.51100000000E-03 0.  1.
        -11    1    3    3    0    0 -0.33914990491E+01  0.10468627594E+01 -0.10812763519E+01  0.37104374738E+01  0.51100000000E-03 0. -1.
        -12    1    3    3    0    0 -0.24734540014E+02 -0.37422873966E+01 -0.25111979625E+02  0.35445926499E+02  0.00000000000E+00 0.  1.
</event>
<event>
 7    1  0.5743890E-009  0.4614232E+02  0.7816164E-02  0.1320468E+00
        -11   -1    0    0    0    0  0.00000000000E+00  0.00000000000E+00  0.45593999997E+02  0.45594000000E+02  0.51100000000E-03 0. -1.
         11   -1    0    0    0    0 -0.00000000000E+00 -0.00000000000E+00 -0.45593999997E+02  0.45594000000E+02  0.51100000000E-03 0.  1.
    9900012    2    1    2    0    0  0.34920971229E+02 -0.94228936936E+01 -0.26848617025E+02  0.46142318817E+02  0.10000009627E+02 0.  0.
         12    1    1    2    0    0 -0.34920971229E+02  0.94228936936E+01  0.26848617025E+02  0.45045681183E+02  0.00000000000E+00 0. -1.
         11    1    3    3    0    0  0.94694986052E+01 -0.16068417166E+01 -0.83107467178E+01  0.12701254088E+02  0.51100000000E-03 0. -1.
        -11    1    3    3    0    0  0.21723819407E+02 -0.95065436825E+01 -0.15277454194E+02  0.28208142607E+02  0.51100000000E-03 0.  1.
        -12    1    3    3    0    0  0.37276532169E+01  0.16904917055E+01 -0.32604161126E+01  0.52329221224E+01  0.00000000000E+00 0.  1.
</event>
<event>
 7    1  0.5743890E-009  0.4614232E+02  0.7816164E-02  0.1320468E+00
        -11   -1    0    0    0    0  0.00000000000E+00  0.00000000000E+00  0.45593999997E+02  0.45594000000E+02  0.51100000000E-03 0. -1.
         11   -1    0    0    0    0 -0.00000000000E+00 -0.00000000000E+00 -0.45593999997E+02  0.45594000000E+02  0.51100000000E-03 0.  1.
    9900012    2    1    2    0    0  0.15424131975E+02 -0.27027226402E+02 -0.32568983497E+02  0.46142317630E+02  0.99999988029E+01 0.  0.
         12    1    1    2    0    0 -0.15424131975E+02  0.27027226402E+02  0.32568983497E+02  0.45045682370E+02  0.00000000000E+00 0. -1.
         11    1    3    3    0    0  0.11635405104E+01 -0.39307573532E+00 -0.14260928695E+00  0.12363950513E+01  0.51100000000E-03 0. -1.
        -11    1    3    3    0    0  0.12670262159E+02 -0.25652307196E+02 -0.27697921293E+02  0.39821492336E+02  0.51100000000E-03 0.  1.
        -12    1    3    3    0    0  0.15903293056E+01 -0.98184347067E+00 -0.47284529176E+01  0.50844302429E+01  0.00000000000E+00 0.  1.
</event>
<event>
 7    1  0.5743890E-009  0.4614232E+02  0.7816164E-02  0.1320468E+00
        -11   -1    0    0    0    0  0.00000000000E+00  0.00000000000E+00  0.45593999997E+02  0.45594000000E+02  0.51100000000E-03 0. -1.
         11   -1    0    0    0    0 -0.00000000000E+00 -0.00000000000E+00 -0.45593999997E+02  0.45594000000E+02  0.51100000000E-03 0.  1.
    9900012    2    1    2    0    0  0.33339458129E+02  0.21705732544E+02  0.21129484684E+02  0.46142318558E+02  0.10000007265E+02 0.  0.
        -12    1    1    2    0    0 -0.33339458129E+02 -0.21705732544E+02 -0.21129484684E+02  0.45045681442E+02  0.00000000000E+00 0.  1.
         11    1    3    3    0    0  0.76533881222E+01  0.86075244055E+01  0.88378802943E+01  0.14517987274E+02  0.51100000000E-03 0. -1.
        -11    1    3    3    0    0  0.67112906654E+00  0.69270881089E+00  0.12953228549E+01  0.16149678883E+01  0.51100000000E-03 0.  1.
        -12    1    3    3    0    0  0.25014940940E+02  0.12405499328E+02  0.10996281535E+02  0.30009363395E+02  0.00000000000E+00 0.  1.
</event>
<event>
 7    1  0.5743890E-009  0.4614232E+02  0.7816164E-02  0.1320468E+00
        -11   -1    0    0    0    0  0.00000000000E+00  0.00000000000E+00  0.45593999997E+02  0.45594000000E+02  0.51100000000E-03 0. -1.
         11   -1    0    0    0    0 -0.00000000000E+00 -0.00000000000E+00 -0.45593999997E+02  0.45594000000E+02  0.51100000000E-03 0.  1.
    9900012    2    1    2    0    0 -0.16475217147E+02  0.24479957357E+02 -0.34035458004E+02  0.46142317701E+02  0.99999994481E+01 0.  0.
         12    1    1    2    0    0  0.16475217147E+02 -0.24479957357E+02  0.34035458004E+02  0.45045682299E+02  0.00000000000E+00 0. -1.
         11    1    3    3    0    0 -0.61981996284E+01  0.58442768016E+01 -0.10411590410E+02  0.13452675017E+02  0.51100000000E-03 0.  1.
        -11    1    3    3    0    0 -0.42851123119E+01  0.18274346184E+01 -0.37504248315E+01  0.59805845440E+01  0.51100000000E-03 0. -1.
        -12    1    3    3    0    0 -0.59919052070E+01  0.16808245937E+02 -0.19873442762E+02  0.26709058140E+02  0.00000000000E+00 0.  1.
</event>
<event>
 7    1  0.5743890E-009  0.4614232E+02  0.7816164E-02  0.1320468E+00
        -11   -1    0    0    0    0  0.00000000000E+00  0.00000000000E+00  0.45593999997E+02  0.45594000000E+02  0.51100000000E-03 0. -1.
         11   -1    0    0    0    0 -0.00000000000E+00 -0.00000000000E+00 -0.45593999997E+02  0.45594000000E+02  0.51100000000E-03 0.  1.
    9900012    2    1    2    0    0  0.20909367295E+02  0.72462666968E+01  0.39235234109E+02  0.46142316330E+02  0.99999869517E+01 0.  0.
        -12    1    1    2    0    0 -0.20909367295E+02 -0.72462666968E+01 -0.39235234109E+02  0.45045683670E+02  0.00000000000E+00 0.  1.
         11    1    3    3    0    0  0.82129424838E+01  0.29204164451E+01  0.10906927246E+02  0.13962174568E+02  0.51100000000E-03 0.  1.
        -11    1    3    3    0    0  0.50801887130E+01  0.28262206571E+01  0.19855662555E+02  0.20689204342E+02  0.51100000000E-03 0. -1.
         12    1    3    3    0    0  0.76162360978E+01  0.14996295946E+01  0.84726443078E+01  0.11490937420E+02  0.00000000000E+00 0. -1.
</event>
<event>
 7    1  0.5743890E-009  0.4614232E+02  0.7816164E-02  0.1320468E+00
        -11   -1    0    0    0    0  0.00000000000E+00  0.00000000000E+00  0.45593999997E+02  0.45594000000E+02  0.51100000000E-03 0. -1.
         11   -1    0    0    0    0 -0.00000000000E+00 -0.00000000000E+00 -0.45593999997E+02  0.45594000000E+02  0.51100000000E-03 0.  1.
    9900012    2    1    2    0    0  0.28024555324E+02 -0.34212542455E+02  0.85580222491E+01  0.46142317552E+02  0.99999980957E+01 0.  0.
        -12    1    1    2    0    0 -0.28024555324E+02  0.34212542455E+02 -0.85580222491E+01  0.45045682448E+02  0.00000000000E+00 0.  1.
         11    1    3    3    0    0  0.42907620620E+01 -0.50793121532E+01  0.23002721904E+01  0.70357162701E+01  0.51100000000E-03 0. -1.
        -11    1    3    3    0    0  0.14377127550E+02 -0.12065328044E+02  0.57711026488E+01  0.19636179961E+02  0.51100000000E-03 0.  1.
         12    1    3    3    0    0  0.93566657117E+01 -0.17067902258E+02  0.48664740991E+00  0.19470421321E+02  0.00000000000E+00 0. -1.
</event>
<event>
 7    1  0.5743890E-009  0.4614232E+02  0.7816164E-02  0.1320468E+00
        -11   -1    0    0    0    0  0.00000000000E+00  0.00000000000E+00  0.45593999997E+02  0.45594000000E+02  0.51100000000E-03 0. -1.
         11   -1    0    0    0    0 -0.00000000000E+00 -0.00000000000E+00 -0.45593999997E+02  0.45594000000E+02  0.51100000000E-03 0.  1.
    9900012    2    1    2    0    0  0.26215728046E+02 -0.18169128114E+02  0.31807724939E+02  0.46142323413E+02  0.10000051539E+02 0.  0.
        -12    1    1    2    0    0 -0.26215728046E+02  0.18169128114E+02 -0.31807724939E+02  0.45045676587E+02  0.00000000000E+00 0.  1.
         11    1    3    3    0    0  0.46857443969E+01 -0.11975440637E+01  0.30647677089E+01  0.57256539983E+01  0.51100000000E-03 0. -1.
        -11    1    3    3    0    0  0.10143457295E+02 -0.83479189329E+01  0.85191724952E+01  0.15657387288E+02  0.51100000000E-03 0.  1.
         12    1    3    3    0    0  0.11386526354E+02 -0.86236651170E+01  0.20223784734E+02  0.24759282127E+02  0.00000000000E+00 0. -1.
</event>
<event>
 7    1  0.5743890E-009  0.4614231E+02  0.7816164E-02  0.1320468E+00
        -11   -1    0    0    0    0  0.00000000000E+00  0.00000000000E+00  0.45593999997E+02  0.45594000000E+02  0.51100000000E-03 0.  1.
         11   -1    0    0    0    0 -0.00000000000E+00 -0.00000000000E+00 -0.45593999997E+02  0.45594000000E+02  0.51100000000E-03 0. -1.
    9900012    2    1    2    0    0 -0.20165891701E+02  0.33213190874E+02  0.22788913025E+02  0.46142314380E+02  0.99999691708E+01 0.  0.
        -12    1    1    2    0    0  0.20165891701E+02 -0.33213190874E+02 -0.22788913025E+02  0.45045685620E+02  0.00000000000E+00 0.  1.
         11    1    3    3    0    0 -0.10425186716E+02  0.16184351357E+02  0.10523418442E+02  0.21939919847E+02  0.51100000000E-03 0. -1.
        -11    1    3    3    0    0 -0.72527123293E+01  0.92711609589E+01  0.10698008374E+02  0.15906088303E+02  0.51100000000E-03 0.  1.
         12    1    3    3    0    0 -0.24879926551E+01  0.77576785579E+01  0.15674862082E+01  0.82963062306E+01  0.00000000000E+00 0. -1.
</event>
<event>
 7    1  0.5743890E-009  0.4614232E+02  0.7816164E-02  0.1320468E+00
        -11   -1    0    0    0    0  0.00000000000E+00  0.00000000000E+00  0.45593999997E+02  0.45594000000E+02  0.51100000000E-03 0. -1.
         11   -1    0    0    0    0 -0.00000000000E+00 -0.00000000000E+00 -0.45593999997E+02  0.45594000000E+02  0.51100000000E-03 0.  1.
    9900012    2    1    2    0    0 -0.18662982528E+02  0.19610466743E+02 -0.36003278499E+02  0.46142318904E+02  0.10000010424E+02 0.  0.
         12    1    1    2    0    0  0.18662982528E+02 -0.19610466743E+02  0.36003278499E+02  0.45045681096E+02  0.00000000000E+00 0. -1.
         11    1    3    3    0    0 -0.56415229257E+01  0.13497705403E+01 -0.64649187629E+01  0.86858411397E+01  0.51100000000E-03 0. -1.
        -11    1    3    3    0    0 -0.47599474321E+01  0.72685972827E+01 -0.74877596223E+01  0.11469792955E+02  0.51100000000E-03 0.  1.
         12    1    3    3    0    0 -0.82615121700E+01  0.10992098920E+02 -0.22050600114E+02  0.25986684809E+02  0.00000000000E+00 0. -1.
</event>
<event>
 7    1  0.5743890E-009  0.4614232E+02  0.7816164E-02  0.1320468E+00
        -11   -1    0    0    0    0  0.00000000000E+00  0.00000000000E+00  0.45593999997E+02  0.45594000000E+02  0.51100000000E-03 0. -1.
         11   -1    0    0    0    0 -0.00000000000E+00 -0.00000000000E+00 -0.45593999997E+02  0.45594000000E+02  0.51100000000E-03 0.  1.
    9900012    2    1    2    0    0 -0.38823904408E+02 -0.19327896787E+02  0.12175812036E+02  0.46142317117E+02  0.99999941230E+01 0.  0.
        -12    1    1    2    0    0  0.38823904408E+02  0.19327896787E+02 -0.12175812036E+02  0.45045682883E+02  0.00000000000E+00 0.  1.
         11    1    3    3    0    0 -0.17068578412E+02 -0.96477403607E+01  0.52057461533E+01  0.20285833884E+02  0.51100000000E-03 0. -1.
        -11    1    3    3    0    0 -0.11397605708E+02 -0.25748261793E+01  0.42409018382E+00  0.11692518911E+02  0.51100000000E-03 0.  1.
        -12    1    3    3    0    0 -0.10357720288E+02 -0.71053302467E+01  0.65459756985E+01  0.14163964322E+02  0.00000000000E+00 0.  1.
</event>
<event>
 7    1  0.5743890E-009  0.4614231E+02  0.7816164E-02  0.1320468E+00
        -11   -1    0    0    0    0  0.00000000000E+00  0.00000000000E+00  0.45593999997E+02  0.45594000000E+02  0.51100000000E-03 0. -1.
         11   -1    0    0    0    0 -0.00000000000E+00 -0.00000000000E+00 -0.45593999997E+02  0.45594000000E+02  0.51100000000E-03 0.  1.
    9900012    2    1    2    0    0  0.13221291933E+02  0.23608791882E+02 -0.36012999628E+02  0.46142314782E+02  0.99999728367E+01 0.  0.
         12    1    1    2    0    0 -0.13221291933E+02 -0.23608791882E+02  0.36012999628E+02  0.45045685218E+02  0.00000000000E+00 0. -1.
         11    1    3    3    0    0  0.41089013111E+01  0.76502260000E+01 -0.18522873109E+02  0.20457415681E+02  0.51100000000E-03 0. -1.
        -11    1    3    3    0    0  0.45910423551E+01  0.44149745507E+01 -0.67703331640E+01  0.92955409526E+01  0.51100000000E-03 0.  1.
        -12    1    3    3    0    0  0.45213482673E+01  0.11543591331E+02 -0.10719793355E+02  0.16389358149E+02  0.00000000000E+00 0.  1.
</event>
<event>
 7    1  0.5743890E-009  0.4614231E+02  0.7816164E-02  0.1320468E+00
        -11   -1    0    0    0    0  0.00000000000E+00  0.00000000000E+00  0.45593999997E+02  0.45594000000E+02  0.51100000000E-03 0. -1.
         11   -1    0    0    0    0 -0.00000000000E+00 -0.00000000000E+00 -0.45593999997E+02  0.45594000000E+02  0.51100000000E-03 0.  1.
    9900012    2    1    2    0    0  0.67733719071E+01 -0.96200939387E+01  0.43482054197E+02  0.46142314173E+02  0.99999672819E+01 0.  0.
        -12    1    1    2    0    0 -0.67733719071E+01  0.96200939387E+01 -0.43482054197E+02  0.45045685827E+02  0.00000000000E+00 0.  1.
         11    1    3    3    0    0  0.93178561219E+00 -0.17443315179E+01  0.93258500108E+00  0.21864656221E+01  0.51100000000E-03 0.  1.
        -11    1    3    3    0    0 -0.83172395522E+00 -0.33374973912E+00  0.23760264284E+01  0.25394203031E+01  0.51100000000E-03 0. -1.
        -12    1    3    3    0    0  0.66733102501E+01 -0.75420126817E+01  0.40173442768E+02  0.41416428248E+02  0.00000000000E+00 0.  1.
</event>
<event>
 7    1  0.5743890E-009  0.4614232E+02  0.7816164E-02  0.1320468E+00
        -11   -1    0    0    0    0  0.00000000000E+00  0.00000000000E+00  0.45593999997E+02  0.45594000000E+02  0.51100000000E-03 0. -1.
         11   -1    0    0    0    0 -0.00000000000E+00 -0.00000000000E+00 -0.45593999997E+02  0.45594000000E+02  0.51100000000E-03 0.  1.
    9900012    2    1    2    0    0 -0.60856289910E+00  0.56674850174E+01  0.44683584675E+02  0.46142317913E+02  0.10000001386E+02 0.  0.
        -12    1    1    2    0    0  0.60856289910E+00 -0.56674850174E+01 -0.44683584675E+02  0.45045682087E+02  0.00000000000E+00 0.  1.
         11    1    3    3    0    0  0.16081260133E+01  0.16872340589E+01  0.13438861570E+02  0.13639495174E+02  0.51100000000E-03 0. -1.
        -11    1    3    3    0    0 -0.77286622658E+00 -0.23064837934E+01  0.68250646029E+01  0.72455984424E+01  0.51100000000E-03 0.  1.
        -12    1    3    3    0    0 -0.14438226859E+01  0.62867347519E+01  0.24419658502E+02  0.25257224297E+02  0.00000000000E+00 0.  1.
</event>
<event>
 7    1  0.5743890E-009  0.4614232E+02  0.7816164E-02  0.1320468E+00
        -11   -1    0    0    0    0  0.00000000000E+00  0.00000000000E+00  0.45593999997E+02  0.45594000000E+02  0.51100000000E-03 0. -1.
         11   -1    0    0    0    0 -0.00000000000E+00 -0.00000000000E+00 -0.45593999997E+02  0.45594000000E+02  0.51100000000E-03 0.  1.
    9900012    2    1    2    0    0 -0.58720289421E+01  0.68779267101E+01 -0.44128526744E+02  0.46142317939E+02  0.10000001624E+02 0.  0.
         12    1    1    2    0    0  0.58720289421E+01 -0.68779267101E+01  0.44128526744E+02  0.45045682061E+02  0.00000000000E+00 0. -1.
         11    1    3    3    0    0 -0.85400327343E+00  0.18018800789E+01 -0.56668841654E+01  0.60074678372E+01  0.51100000000E-03 0. -1.
        -11    1    3    3    0    0 -0.45461920006E+01  0.62387237505E+01 -0.38033608812E+02  0.38809083155E+02  0.51100000000E-03 0.  1.
        -12    1    3    3    0    0 -0.47183366798E+00 -0.11626771193E+01 -0.42803376616E+00  0.13257669475E+01  0.00000000000E+00 0.  1.
</event>
<event>
 7    1  0.5743890E-009  0.4614232E+02  0.7816164E-02  0.1320468E+00
        -11   -1    0    0    0    0  0.00000000000E+00  0.00000000000E+00  0.45593999997E+02  0.45594000000E+02  0.51100000000E-03 0. -1.
         11   -1    0    0    0    0 -0.00000000000E+00 -0.00000000000E+00 -0.45593999997E+02  0.45594000000E+02  0.51100000000E-03 0.  1.
    9900012    2    1    2    0    0  0.11366539432E+02 -0.68962062033E+01 -0.43039024211E+02  0.46142317813E+02  0.10000000469E+02 0.  0.
         12    1    1    2    0    0 -0.11366539432E+02  0.68962062033E+01  0.43039024211E+02  0.45045682187E+02  0.00000000000E+00 0. -1.
         11    1    3    3    0    0  0.16290718382E+01  0.31017047284E+00 -0.13730223307E+02  0.13830007705E+02  0.51100000000E-03 0. -1.
        -11    1    3    3    0    0  0.71128524605E+01 -0.14613839928E+01 -0.14658829083E+02  0.16358776961E+02  0.51100000000E-03 0.  1.
         12    1    3    3    0    0  0.26246151337E+01 -0.57449926833E+01 -0.14649971821E+02  0.15953533147E+02  0.00000000000E+00 0. -1.
</event>
<event>
 7    1  0.7675834E-009  0.4614232E+02  0.7816164E-02  0.1320468E+00
        -11   -1    0    0    0    0  0.00000000000E+00  0.00000000000E+00  0.45593999997E+02  0.45594000000E+02  0.51100000000E-03 0. -1.
         11   -1    0    0    0    0 -0.00000000000E+00 -0.00000000000E+00 -0.45593999997E+02  0.45594000000E+02  0.51100000000E-03 0.  1.
    9900012    2    1    2    0    0 -0.10023755240E+02 -0.52530846938E+00  0.43913117083E+02  0.46142317964E+02  0.10000001852E+02 0.  0.
        -12    1    1    2    0    0  0.10023755240E+02  0.52530846938E+00 -0.43913117083E+02  0.45045682036E+02  0.00000000000E+00 0.  1.
         11    1    3    3    0    0 -0.57099288965E+01  0.27164556542E+01  0.23910683479E+02  0.24732634393E+02  0.51100000000E-03 0. -1.
        -11    1    3    3    0    0  0.20596984896E+00  0.75562953796E+00  0.36111131840E+00  0.86243911247E+00  0.51100000000E-03 0.  1.
         12    1    3    3    0    0 -0.45197961925E+01 -0.39973936616E+01  0.19641322286E+02  0.20547244458E+02  0.00000000000E+00 0. -1.
</event>
<event>
 7    1  0.5743890E-009  0.4614232E+02  0.7816164E-02  0.1320468E+00
        -11   -1    0    0    0    0  0.00000000000E+00  0.00000000000E+00  0.45593999997E+02  0.45594000000E+02  0.51100000000E-03 0.  1.
         11   -1    0    0    0    0 -0.00000000000E+00 -0.00000000000E+00 -0.45593999997E+02  0.45594000000E+02  0.51100000000E-03 0. -1.
    9900012    2    1    2    0    0  0.43814210040E+02  0.88473740476E+01 -0.55814463276E+01  0.46142316832E+02  0.99999915291E+01 0.  0.
        -12    1    1    2    0    0 -0.43814210040E+02 -0.88473740476E+01  0.55814463276E+01  0.45045683168E+02  0.00000000000E+00 0.  1.
         11    1    3    3    0    0  0.17117200933E+02  0.19204601688E+01 -0.32539562398E+01  0.17529260295E+02  0.51100000000E-03 0. -1.
        -11    1    3    3    0    0  0.86055798079E+01 -0.40482602930E+00  0.14331941222E+01  0.87334949245E+01  0.51100000000E-03 0.  1.
         12    1    3    3    0    0  0.18091429299E+02  0.73317399082E+01 -0.37606842101E+01  0.19879561612E+02  0.00000000000E+00 0. -1.
</event>
<event>
 7    1  0.5743890E-009  0.4614232E+02  0.7816164E-02  0.1320468E+00
        -11   -1    0    0    0    0  0.00000000000E+00  0.00000000000E+00  0.45593999997E+02  0.45594000000E+02  0.51100000000E-03 0. -1.
         11   -1    0    0    0    0 -0.00000000000E+00 -0.00000000000E+00 -0.45593999997E+02  0.45594000000E+02  0.51100000000E-03 0.  1.
    9900012    2    1    2    0    0  0.24042004524E+02 -0.36195803912E+02 -0.11872626918E+02  0.46142317939E+02  0.10000001621E+02 0.  0.
         12    1    1    2    0    0 -0.24042004524E+02  0.36195803912E+02  0.11872626918E+02  0.45045682061E+02  0.00000000000E+00 0. -1.
         11    1    3    3    0    0  0.30537967192E+01 -0.12570821668E+01 -0.94150275711E+00  0.34340002445E+01  0.51100000000E-03 0. -1.
        -11    1    3    3    0    0  0.11239379656E+02 -0.15585176010E+02 -0.21823361316E+01  0.19338664834E+02  0.51100000000E-03 0.  1.
        -12    1    3    3    0    0  0.97488281488E+01 -0.19353545736E+02 -0.87487880297E+01  0.23369652860E+02  0.00000000000E+00 0.  1.
</event>
<event>
 7    1  0.5945655E-009  0.4614232E+02  0.7816164E-02  0.1320468E+00
        -11   -1    0    0    0    0  0.00000000000E+00  0.00000000000E+00  0.45593999997E+02  0.45594000000E+02  0.51100000000E-03 0. -1.
         11   -1    0    0    0    0 -0.00000000000E+00 -0.00000000000E+00 -0.45593999997E+02  0.45594000000E+02  0.51100000000E-03 0.  1.
    9900012    2    1    2    0    0  0.25630794878E+02  0.22939276056E+02  0.29085485290E+02  0.46142317781E+02  0.10000000177E+02 0.  0.
        -12    1    1    2    0    0 -0.25630794878E+02 -0.22939276056E+02 -0.29085485290E+02  0.45045682219E+02  0.00000000000E+00 0.  1.
         11    1    3    3    0    0  0.17417876996E+02  0.13494509585E+02  0.20166263918E+02  0.29869088180E+02  0.51100000000E-03 0. -1.
        -11    1    3    3    0    0  0.55669653265E+01  0.26957905205E+01  0.28125224146E+01  0.67947532751E+01  0.51100000000E-03 0.  1.
         12    1    3    3    0    0  0.26459525556E+01  0.67489759504E+01  0.61066989571E+01  0.94784763257E+01  0.00000000000E+00 0. -1.
</event>
<event>
 7    1  0.5743890E-009  0.4614233E+02  0.7816164E-02  0.1320468E+00
        -11   -1    0    0    0    0  0.00000000000E+00  0.00000000000E+00  0.45593999997E+02  0.45594000000E+02  0.51100000000E-03 0. -1.
         11   -1    0    0    0    0 -0.00000000000E+00 -0.00000000000E+00 -0.45593999997E+02  0.45594000000E+02  0.51100000000E-03 0.  1.
    9900012    2    1    2    0    0 -0.43600381770E+01 -0.18955516545E+02  0.40629922013E+02  0.46142333137E+02  0.10000140208E+02 0.  0.
        -12    1    1    2    0    0  0.43600381770E+01  0.18955516545E+02 -0.40629922013E+02  0.45045666863E+02  0.00000000000E+00 0.  1.
         11    1    3    3    0    0  0.44415788751E+00 -0.13501215651E+02  0.24484081686E+02  0.27963375271E+02  0.51100000000E-03 0. -1.
        -11    1    3    3    0    0  0.57056445275E-01 -0.40371498416E+00 -0.15384939932E+00  0.43578793602E+00  0.51100000000E-03 0.  1.
         12    1    3    3    0    0 -0.48612525098E+01 -0.50505859102E+01  0.16299689726E+02  0.17743169930E+02  0.00000000000E+00 0. -1.
</event>
<event>
 7    1  0.5743890E-009  0.4614232E+02  0.7816164E-02  0.1320468E+00
        -11   -1    0    0    0    0  0.00000000000E+00  0.00000000000E+00  0.45593999997E+02  0.45594000000E+02  0.51100000000E-03 0. -1.
         11   -1    0    0    0    0 -0.00000000000E+00 -0.00000000000E+00 -0.45593999997E+02  0.45594000000E+02  0.51100000000E-03 0.  1.
    9900012    2    1    2    0    0  0.54241472926E+01 -0.15578908004E+02  0.41916462745E+02  0.46142316549E+02  0.99999889490E+01 0.  0.
        -12    1    1    2    0    0 -0.54241472926E+01  0.15578908004E+02 -0.41916462745E+02  0.45045683451E+02  0.00000000000E+00 0.  1.
         11    1    3    3    0    0  0.45518533784E+01 -0.66486745193E+01  0.14924539331E+02  0.16960722760E+02  0.51100000000E-03 0. -1.
        -11    1    3    3    0    0  0.32298234879E+01 -0.62026459098E+01  0.13342760328E+02  0.15064323067E+02  0.51100000000E-03 0.  1.
         12    1    3    3    0    0 -0.23575295737E+01 -0.27275875753E+01  0.13649163087E+02  0.14117270722E+02  0.00000000000E+00 0. -1.
</event>
<event>
 7    1  0.5743890E-009  0.4614232E+02  0.7816164E-02  0.1320468E+00
        -11   -1    0    0    0    0  0.00000000000E+00  0.00000000000E+00  0.45593999997E+02  0.45594000000E+02  0.51100000000E-03 0. -1.
         11   -1    0    0    0    0 -0.00000000000E+00 -0.00000000000E+00 -0.45593999997E+02  0.45594000000E+02  0.51100000000E-03 0.  1.
    9900012    2    1    2    0    0 -0.50748810078E+00 -0.11081909117E+02 -0.43658300940E+02  0.46142317689E+02  0.99999993439E+01 0.  0.
         12    1    1    2    0    0  0.50748810078E+00  0.11081909117E+02  0.43658300940E+02  0.45045682311E+02  0.00000000000E+00 0. -1.
         11    1    3    3    0    0 -0.22495439050E+01  0.18941970882E+00 -0.54086537960E+01  0.58608756814E+01  0.51100000000E-03 0. -1.
        -11    1    3    3    0    0  0.30771967726E+01 -0.10131829810E+02 -0.29140254739E+02  0.31004476480E+02  0.51100000000E-03 0.  1.
        -12    1    3    3    0    0 -0.13351409684E+01 -0.11394990163E+01 -0.91093924055E+01  0.92769655282E+01  0.00000000000E+00 0.  1.
</event>
<event>
 7    1  0.5743890E-009  0.4614232E+02  0.7816164E-02  0.1320468E+00
        -11   -1    0    0    0    0  0.00000000000E+00  0.00000000000E+00  0.45593999997E+02  0.45594000000E+02  0.51100000000E-03 0. -1.
         11   -1    0    0    0    0 -0.00000000000E+00 -0.00000000000E+00 -0.45593999997E+02  0.45594000000E+02  0.51100000000E-03 0.  1.
    9900012    2    1    2    0    0 -0.28546561256E+02 -0.65862264584E+01 -0.34217378763E+02  0.46142317100E+02  0.99999939729E+01 0.  0.
         12    1    1    2    0    0  0.28546561256E+02  0.65862264584E+01  0.34217378763E+02  0.45045682900E+02  0.00000000000E+00 0. -1.
         11    1    3    3    0    0 -0.70613769353E+01 -0.93994356529E+00 -0.15225575956E+02  0.16809660960E+02  0.51100000000E-03 0. -1.
        -11    1    3    3    0    0 -0.16552421337E+02 -0.34326241089E+01 -0.15150691701E+02  0.22700418932E+02  0.51100000000E-03 0.  1.
         12    1    3    3    0    0 -0.49327629832E+01 -0.22136587843E+01 -0.38411111063E+01  0.66322372087E+01  0.00000000000E+00 0. -1.
</event>
<event>
 7    1  0.5743890E-009  0.4614231E+02  0.7816164E-02  0.1320468E+00
        -11   -1    0    0    0    0  0.00000000000E+00  0.00000000000E+00  0.45593999997E+02  0.45594000000E+02  0.51100000000E-03 0. -1.
         11   -1    0    0    0    0 -0.00000000000E+00 -0.00000000000E+00 -0.45593999997E+02  0.45594000000E+02  0.51100000000E-03 0.  1.
    9900012    2    1    2    0    0 -0.12063030382E+02  0.14801921292E+02 -0.40798286309E+02  0.46142314949E+02  0.99999743581E+01 0.  0.
         12    1    1    2    0    0  0.12063030382E+02 -0.14801921292E+02  0.40798286309E+02  0.45045685051E+02  0.00000000000E+00 0. -1.
         11    1    3    3    0    0 -0.39197950953E+01  0.45187803780E+01 -0.22351098078E+02  0.23137756055E+02  0.51100000000E-03 0. -1.
        -11    1    3    3    0    0 -0.64776955916E+01  0.49569766064E+01 -0.11318652140E+02  0.13951488945E+02  0.51100000000E-03 0.  1.
         12    1    3    3    0    0 -0.16655396946E+01  0.53261643073E+01 -0.71285360917E+01  0.90530699497E+01  0.00000000000E+00 0. -1.
</event>
<event>
 7    1  0.5743890E-009  0.4614232E+02  0.7816164E-02  0.1320468E+00
        -11   -1    0    0    0    0  0.00000000000E+00  0.00000000000E+00  0.45593999997E+02  0.45594000000E+02  0.51100000000E-03 0. -1.
         11   -1    0    0    0    0 -0.00000000000E+00 -0.00000000000E+00 -0.45593999997E+02  0.45594000000E+02  0.51100000000E-03 0.  1.
    9900012    2    1    2    0    0  0.19246334904E+02 -0.28115158152E+01  0.40629883705E+02  0.46142317873E+02  0.10000001021E+02 0.  0.
        -12    1    1    2    0    0 -0.19246334904E+02  0.28115158152E+01 -0.40629883705E+02  0.45045682127E+02  0.00000000000E+00 0.  1.
         11    1    3    3    0    0  0.69688574258E+01 -0.28765269069E+01  0.15571604876E+02  0.17300701129E+02  0.51100000000E-03 0. -1.
        -11    1    3    3    0    0  0.10213536375E+02  0.14496141100E+01  0.13343721523E+02  0.16866315861E+02  0.51100000000E-03 0.  1.
         12    1    3    3    0    0  0.20639411027E+01 -0.13846030183E+01  0.11714557305E+02  0.11975300884E+02  0.00000000000E+00 0. -1.
</event>
<event>
 7    1  0.5743890E-009  0.4614232E+02  0.7816164E-02  0.1320468E+00
        -11   -1    0    0    0    0  0.00000000000E+00  0.00000000000E+00  0.45593999997E+02  0.45594000000E+02  0.51100000000E-03 0. -1.
         11   -1    0    0    0    0 -0.00000000000E+00 -0.00000000000E+00 -0.45593999997E+02  0.45594000000E+02  0.51100000000E-03 0.  1.
    9900012    2    1    2    0    0  0.25276147917E+02 -0.32350513302E+02 -0.18538450603E+02  0.46142317463E+02  0.99999972800E+01 0.  0.
         12    1    1    2    0    0 -0.25276147917E+02  0.32350513302E+02  0.18538450603E+02  0.45045682537E+02  0.00000000000E+00 0. -1.
         11    1    3    3    0    0  0.21530468151E+00  0.37502734950E+00 -0.33744912500E+00  0.54851963669E+00  0.51100000000E-03 0. -1.
        -11    1    3    3    0    0  0.53229853139E+01 -0.82246488756E+01 -0.75807890380E+01  0.12387388122E+02  0.51100000000E-03 0.  1.
         12    1    3    3    0    0  0.19737857922E+02 -0.24500891776E+02 -0.10620212440E+02  0.33206409704E+02  0.00000000000E+00 0. -1.
</event>
<event>
 7    1  0.5743890E-009  0.4614232E+02  0.7816164E-02  0.1320468E+00
        -11   -1    0    0    0    0  0.00000000000E+00  0.00000000000E+00  0.45593999997E+02  0.45594000000E+02  0.51100000000E-03 0. -1.
         11   -1    0    0    0    0 -0.00000000000E+00 -0.00000000000E+00 -0.45593999997E+02  0.45594000000E+02  0.51100000000E-03 0.  1.
    9900012    2    1    2    0    0  0.16951369199E+02 -0.24831946380E+01  0.41660512048E+02  0.46142318326E+02  0.10000005153E+02 0.  0.
        -12    1    1    2    0    0 -0.16951369199E+02  0.24831946380E+01 -0.41660512048E+02  0.45045681674E+02  0.00000000000E+00 0.  1.
         11    1    3    3    0    0  0.12096196610E+02 -0.52205962808E+00  0.24664892731E+02  0.27476307110E+02  0.51100000000E-03 0. -1.
        -11    1    3    3    0    0  0.13671804241E+01  0.19802764568E+01  0.44012647761E+01  0.50161548070E+01  0.51100000000E-03 0.  1.
         12    1    3    3    0    0  0.34879921646E+01 -0.39414114667E+01  0.12594354541E+02  0.13649856409E+02  0.00000000000E+00 0. -1.
</event>
<event>
 7    1  0.5743890E-009  0.4614232E+02  0.7816164E-02  0.1320468E+00
        -11   -1    0    0    0    0  0.00000000000E+00  0.00000000000E+00  0.45593999997E+02  0.45594000000E+02  0.51100000000E-03 0. -1.
         11   -1    0    0    0    0 -0.00000000000E+00 -0.00000000000E+00 -0.45593999997E+02  0.45594000000E+02  0.51100000000E-03 0.  1.
    9900012    2    1    2    0    0  0.38985256393E+02  0.23097961882E+01  0.22448343626E+02  0.46142317565E+02  0.99999982159E+01 0.  0.
        -12    1    1    2    0    0 -0.38985256393E+02 -0.23097961882E+01 -0.22448343626E+02  0.45045682435E+02  0.00000000000E+00 0.  1.
         11    1    3    3    0    0  0.22584250697E+02 -0.12802844833E+01  0.95993925764E+01  0.24573071562E+02  0.51100000000E-03 0. -1.
        -11    1    3    3    0    0  0.77423268082E+01  0.24778640997E+01  0.37260948205E+01  0.89424391401E+01  0.51100000000E-03 0.  1.
         12    1    3    3    0    0  0.86586788875E+01  0.11122165719E+01  0.91228562295E+01  0.12626806863E+02  0.00000000000E+00 0. -1.
</event>
<event>
 7    1  0.5743890E-009  0.4614232E+02  0.7816164E-02  0.1320468E+00
        -11   -1    0    0    0    0  0.00000000000E+00  0.00000000000E+00  0.45593999997E+02  0.45594000000E+02  0.51100000000E-03 0. -1.
         11   -1    0    0    0    0 -0.00000000000E+00 -0.00000000000E+00 -0.45593999997E+02  0.45594000000E+02  0.51100000000E-03 0.  1.
    9900012    2    1    2    0    0 -0.63329488450E+01 -0.43958816752E+02 -0.75252669882E+01  0.46142318137E+02  0.10000003424E+02 0.  0.
         12    1    1    2    0    0  0.63329488450E+01  0.43958816752E+02  0.75252669882E+01  0.45045681863E+02  0.00000000000E+00 0. -1.
         11    1    3    3    0    0 -0.18344991000E+01 -0.22934567296E+02 -0.57784800524E+01  0.23722364890E+02  0.51100000000E-03 0. -1.
        -11    1    3    3    0    0 -0.18052448486E+00 -0.11129086870E+02 -0.30616240866E+01  0.11543946723E+02  0.51100000000E-03 0.  1.
         12    1    3    3    0    0 -0.43179252601E+01 -0.98951625859E+01  0.13148371508E+01  0.10876006523E+02  0.00000000000E+00 0. -1.
</event>
<event>
 7    1  0.5743890E-009  0.4614232E+02  0.7816164E-02  0.1320468E+00
        -11   -1    0    0    0    0  0.00000000000E+00  0.00000000000E+00  0.45593999997E+02  0.45594000000E+02  0.51100000000E-03 0. -1.
         11   -1    0    0    0    0 -0.00000000000E+00 -0.00000000000E+00 -0.45593999997E+02  0.45594000000E+02  0.51100000000E-03 0.  1.
    9900012    2    1    2    0    0  0.37161477929E+02 -0.15135649045E+02  0.20470715648E+02  0.46142317488E+02  0.99999975054E+01 0.  0.
        -12    1    1    2    0    0 -0.37161477929E+02  0.15135649045E+02 -0.20470715648E+02  0.45045682512E+02  0.00000000000E+00 0.  1.
         11    1    3    3    0    0  0.22361159462E+02 -0.10356030316E+02  0.88306917470E+01  0.26177278953E+02  0.51100000000E-03 0. -1.
        -11    1    3    3    0    0  0.29757410958E+01 -0.11234198041E+01  0.49824062976E+01  0.59111318630E+01  0.51100000000E-03 0.  1.
        -12    1    3    3    0    0  0.11824577371E+02 -0.36561989256E+01  0.66576176034E+01  0.14053906672E+02  0.00000000000E+00 0.  1.
</event>
<event>
 7    1  0.5743890E-009  0.4614232E+02  0.7816164E-02  0.1320468E+00
        -11   -1    0    0    0    0  0.00000000000E+00  0.00000000000E+00  0.45593999997E+02  0.45594000000E+02  0.51100000000E-03 0. -1.
         11   -1    0    0    0    0 -0.00000000000E+00 -0.00000000000E+00 -0.45593999997E+02  0.45594000000E+02  0.51100000000E-03 0.  1.
    9900012    2    1    2    0    0  0.26084529270E+02  0.88414982344E+01 -0.35644616297E+02  0.46142318418E+02  0.10000005987E+02 0.  0.
         12    1    1    2    0    0 -0.26084529270E+02 -0.88414982344E+01  0.35644616297E+02  0.45045681582E+02  0.00000000000E+00 0. -1.
         11    1    3    3    0    0  0.22493045446E+01  0.17884908205E+01 -0.57267940078E+01  0.64073582870E+01  0.51100000000E-03 0. -1.
        -11    1    3    3    0    0  0.21372609380E+02  0.36951720191E+01 -0.27082115796E+02  0.34697027599E+02  0.51100000000E-03 0.  1.
         12    1    3    3    0    0  0.24626153451E+01  0.33578353948E+01 -0.28357064930E+01  0.50379325314E+01  0.00000000000E+00 0. -1.
</event>
<event>
 7    1  0.5743890E-009  0.4614232E+02  0.7816164E-02  0.1320468E+00
        -11   -1    0    0    0    0  0.00000000000E+00  0.00000000000E+00  0.45593999997E+02  0.45594000000E+02  0.51100000000E-03 0. -1.
         11   -1    0    0    0    0 -0.00000000000E+00 -0.00000000000E+00 -0.45593999997E+02  0.45594000000E+02  0.51100000000E-03 0.  1.
    9900012    2    1    2    0    0  0.13451499849E+02 -0.10466599180E+02  0.41696774000E+02  0.46142317537E+02  0.99999979528E+01 0.  0.
        -12    1    1    2    0    0 -0.13451499849E+02  0.10466599180E+02 -0.41696774000E+02  0.45045682463E+02  0.00000000000E+00 0.  1.
         11    1    3    3    0    0  0.83445585998E+01 -0.73286196900E+01  0.20206378606E+02  0.23057277841E+02  0.51100000000E-03 0. -1.
        -11    1    3    3    0    0  0.29605007624E+01  0.92726046220E-01  0.30902359564E+01  0.42805048080E+01  0.51100000000E-03 0.  1.
        -12    1    3    3    0    0  0.21464404866E+01 -0.32307055366E+01  0.18400159438E+02  0.18804534888E+02  0.00000000000E+00 0.  1.
</event>
<event>
 7    1  0.5743890E-009  0.4614232E+02  0.7816164E-02  0.1320468E+00
        -11   -1    0    0    0    0  0.00000000000E+00  0.00000000000E+00  0.45593999997E+02  0.45594000000E+02  0.51100000000E-03 0. -1.
         11   -1    0    0    0    0 -0.00000000000E+00 -0.00000000000E+00 -0.45593999997E+02  0.45594000000E+02  0.51100000000E-03 0.  1.
    9900012    2    1    2    0    0 -0.39841994018E+02  0.48358568366E+01  0.20453445029E+02  0.46142318606E+02  0.10000007705E+02 0.  0.
        -12    1    1    2    0    0  0.39841994018E+02 -0.48358568366E+01 -0.20453445029E+02  0.45045681394E+02  0.00000000000E+00 0.  1.
         11    1    3    3    0    0 -0.53250697558E+01  0.26090184404E+01  0.46108798292E+01  0.75115616344E+01  0.51100000000E-03 0. -1.
        -11    1    3    3    0    0 -0.66856804449E+01 -0.33100066715E+00  0.41449393986E+00  0.67066899392E+01  0.51100000000E-03 0.  1.
         12    1    3    3    0    0 -0.27831243818E+02  0.25578390634E+01  0.15428071260E+02  0.31924067033E+02  0.00000000000E+00 0. -1.
</event>
<event>
 7    1  0.5743890E-009  0.4614232E+02  0.7816164E-02  0.1320468E+00
        -11   -1    0    0    0    0  0.00000000000E+00  0.00000000000E+00  0.45593999997E+02  0.45594000000E+02  0.51100000000E-03 0. -1.
         11   -1    0    0    0    0 -0.00000000000E+00 -0.00000000000E+00 -0.45593999997E+02  0.45594000000E+02  0.51100000000E-03 0.  1.
    9900012    2    1    2    0    0 -0.29430173682E+02 -0.29232821112E+01  0.33976944265E+02  0.46142318266E+02  0.10000004605E+02 0.  0.
        -12    1    1    2    0    0  0.29430173682E+02  0.29232821112E+01 -0.33976944265E+02  0.45045681734E+02  0.00000000000E+00 0.  1.
         11    1    3    3    0    0 -0.62967465103E+01 -0.17197956058E+01  0.83389059978E+01  0.10589809585E+02  0.51100000000E-03 0. -1.
        -11    1    3    3    0    0 -0.21969455192E+02 -0.96365160195E+00  0.19787888962E+02  0.29582868956E+02  0.51100000000E-03 0.  1.
         12    1    3    3    0    0 -0.11639719800E+01 -0.23983490346E+00  0.58501493057E+01  0.59696397253E+01  0.00000000000E+00 0. -1.
</event>
<event>
 7    1  0.5743890E-009  0.4614232E+02  0.7816164E-02  0.1320468E+00
        -11   -1    0    0    0    0  0.00000000000E+00  0.00000000000E+00  0.45593999997E+02  0.45594000000E+02  0.51100000000E-03 0. -1.
         11   -1    0    0    0    0 -0.00000000000E+00 -0.00000000000E+00 -0.45593999997E+02  0.45594000000E+02  0.51100000000E-03 0.  1.
    9900012    2    1    2    0    0 -0.17804894801E+02  0.19861461678E+02  0.36299056305E+02  0.46142318437E+02  0.10000006166E+02 0.  0.
        -12    1    1    2    0    0  0.17804894801E+02 -0.19861461678E+02 -0.36299056305E+02  0.45045681563E+02  0.00000000000E+00 0.  1.
         11    1    3    3    0    0 -0.16939140335E+02  0.17171991781E+02  0.33590401498E+02  0.41353680006E+02  0.51100000000E-03 0. -1.
        -11    1    3    3    0    0 -0.15627500965E+01  0.22052895950E+01  0.28504883004E+01  0.39282023718E+01  0.51100000000E-03 0.  1.
        -12    1    3    3    0    0  0.69699563015E+00  0.48418030153E+00 -0.14183349336E+00  0.86043605961E+00  0.00000000000E+00 0.  1.
</event>
<event>
 7    1  0.5743890E-009  0.4614232E+02  0.7816164E-02  0.1320468E+00
        -11   -1    0    0    0    0  0.00000000000E+00  0.00000000000E+00  0.45593999997E+02  0.45594000000E+02  0.51100000000E-03 0. -1.
         11   -1    0    0    0    0 -0.00000000000E+00 -0.00000000000E+00 -0.45593999997E+02  0.45594000000E+02  0.51100000000E-03 0.  1.
    9900012    2    1    2    0    0 -0.42249043301E+02 -0.26128892613E+01 -0.15404696144E+02  0.46142317483E+02  0.99999974644E+01 0.  0.
         12    1    1    2    0    0  0.42249043301E+02  0.26128892613E+01  0.15404696144E+02  0.45045682517E+02  0.00000000000E+00 0. -1.
         11    1    3    3    0    0 -0.19783359967E+01 -0.43506116553E+00  0.10582810070E+01  0.22853994146E+01  0.51100000000E-03 0. -1.
        -11    1    3    3    0    0 -0.22018547781E+02 -0.32815829723E+01 -0.74860488026E+01  0.23486723060E+02  0.51100000000E-03 0.  1.
         12    1    3    3    0    0 -0.18252159524E+02  0.11037548766E+01 -0.89769283483E+01  0.20370195008E+02  0.00000000000E+00 0. -1.
</event>
<event>
 7    1  0.5743890E-009  0.4614232E+02  0.7816164E-02  0.1320468E+00
        -11   -1    0    0    0    0  0.00000000000E+00  0.00000000000E+00  0.45593999997E+02  0.45594000000E+02  0.51100000000E-03 0. -1.
         11   -1    0    0    0    0 -0.00000000000E+00 -0.00000000000E+00 -0.45593999997E+02  0.45594000000E+02  0.51100000000E-03 0.  1.
    9900012    2    1    2    0    0 -0.31107402336E+01 -0.13425365645E+02 -0.42885852704E+02  0.46142317525E+02  0.99999978462E+01 0.  0.
         12    1    1    2    0    0  0.31107402336E+01  0.13425365645E+02  0.42885852704E+02  0.45045682475E+02  0.00000000000E+00 0. -1.
         11    1    3    3    0    0 -0.31641661119E+01  0.28729943073E+00 -0.62452950978E+01  0.70070107226E+01  0.51100000000E-03 0. -1.
        -11    1    3    3    0    0 -0.34412499746E+00 -0.61219526343E+01 -0.17317844140E+02  0.18371294238E+02  0.51100000000E-03 0.  1.
         12    1    3    3    0    0  0.39755087574E+00 -0.75907124413E+01 -0.19322713466E+02  0.20764012564E+02  0.00000000000E+00 0. -1.
</event>
<event>
 7    1  0.5743890E-009  0.4614232E+02  0.7816164E-02  0.1320468E+00
        -11   -1    0    0    0    0  0.00000000000E+00  0.00000000000E+00  0.45593999997E+02  0.45594000000E+02  0.51100000000E-03 0. -1.
         11   -1    0    0    0    0 -0.00000000000E+00 -0.00000000000E+00 -0.45593999997E+02  0.45594000000E+02  0.51100000000E-03 0.  1.
    9900012    2    1    2    0    0 -0.21921271598E+02  0.35147098682E+02  0.17698950049E+02  0.46142317331E+02  0.99999960809E+01 0.  0.
        -12    1    1    2    0    0  0.21921271598E+02 -0.35147098682E+02 -0.17698950049E+02  0.45045682669E+02  0.00000000000E+00 0.  1.
         11    1    3    3    0    0 -0.33629502364E+01  0.63684043847E+01  0.50353549410E+01  0.87875371033E+01  0.51100000000E-03 0. -1.
        -11    1    3    3    0    0 -0.94261298455E+01  0.85459998749E+01  0.26209284399E+01  0.12990585201E+02  0.51100000000E-03 0.  1.
         12    1    3    3    0    0 -0.91321915157E+01  0.20232694423E+02  0.10042666668E+02  0.24364195027E+02  0.00000000000E+00 0. -1.
</event>
<event>
 7    1  0.5743890E-009  0.4614232E+02  0.7816164E-02  0.1320468E+00
        -11   -1    0    0    0    0  0.00000000000E+00  0.00000000000E+00  0.45593999997E+02  0.45594000000E+02  0.51100000000E-03 0. -1.
         11   -1    0    0    0    0 -0.00000000000E+00 -0.00000000000E+00 -0.45593999997E+02  0.45594000000E+02  0.51100000000E-03 0.  1.
    9900012    2    1    2    0    0 -0.20123201626E+02  0.14509606552E+02  0.37598424789E+02  0.46142317936E+02  0.10000001591E+02 0.  0.
        -12    1    1    2    0    0  0.20123201626E+02 -0.14509606552E+02 -0.37598424789E+02  0.45045682064E+02  0.00000000000E+00 0.  1.
         11    1    3    3    0    0 -0.37336237420E+01  0.16428155237E+01  0.85701466923E+01  0.94913752260E+01  0.51100000000E-03 0. -1.
        -11    1    3    3    0    0 -0.10640007905E+02  0.11189914757E+02  0.25162867296E+02  0.29522768354E+02  0.51100000000E-03 0.  1.
        -12    1    3    3    0    0 -0.57495699793E+01  0.16768762713E+01  0.38654108011E+01  0.71281743552E+01  0.00000000000E+00 0.  1.
</event>
<event>
 7    1  0.5743890E-009  0.4614232E+02  0.7816164E-02  0.1320468E+00
        -11   -1    0    0    0    0  0.00000000000E+00  0.00000000000E+00  0.45593999997E+02  0.45594000000E+02  0.51100000000E-03 0. -1.
         11   -1    0    0    0    0 -0.00000000000E+00 -0.00000000000E+00 -0.45593999997E+02  0.45594000000E+02  0.51100000000E-03 0.  1.
    9900012    2    1    2    0    0 -0.74895986042E+01 -0.32847083430E+02  0.29901313408E+02  0.46142317402E+02  0.99999967298E+01 0.  0.
        -12    1    1    2    0    0  0.74895986042E+01  0.32847083430E+02 -0.29901313408E+02  0.45045682598E+02  0.00000000000E+00 0.  1.
         11    1    3    3    0    0 -0.78962071398E+01 -0.19042635285E+02  0.18041246705E+02  0.27394499972E+02  0.51100000000E-03 0. -1.
        -11    1    3    3    0    0 -0.12540293614E+01 -0.35926877136E+01  0.51999207972E+01  0.64435371656E+01  0.51100000000E-03 0.  1.
        -12    1    3    3    0    0  0.16606378970E+01 -0.10211760432E+02  0.66601459060E+01  0.12304280265E+02  0.00000000000E+00 0.  1.
</event>
<event>
 7    1  0.5743890E-009  0.4614230E+02  0.7816164E-02  0.1320468E+00
        -11   -1    0    0    0    0  0.00000000000E+00  0.00000000000E+00  0.45593999997E+02  0.45594000000E+02  0.51100000000E-03 0.  1.
         11   -1    0    0    0    0 -0.00000000000E+00 -0.00000000000E+00 -0.45593999997E+02  0.45594000000E+02  0.51100000000E-03 0. -1.
    9900012    2    1    2    0    0 -0.31388333422E+01  0.35764131326E+02 -0.27206425088E+02  0.46142301755E+02  0.99998540455E+01 0.  0.
         12    1    1    2    0    0  0.31388333422E+01 -0.35764131326E+02  0.27206425088E+02  0.45045698245E+02  0.00000000000E+00 0. -1.
         11    1    3    3    0    0 -0.21620402577E+01  0.13563189982E+02 -0.14972245124E+02  0.20317545740E+02  0.51100000000E-03 0. -1.
        -11    1    3    3    0    0 -0.53206650824E+00  0.13616357949E+02 -0.10116925522E+02  0.16971755385E+02  0.51100000000E-03 0.  1.
        -12    1    3    3    0    0 -0.44472657627E+00  0.85845833949E+01 -0.21172544418E+01  0.88530006305E+01  0.00000000000E+00 0.  1.
</event>
<event>
 7    1  0.5743890E-009  0.4614232E+02  0.7816164E-02  0.1320468E+00
        -11   -1    0    0    0    0  0.00000000000E+00  0.00000000000E+00  0.45593999997E+02  0.45594000000E+02  0.51100000000E-03 0. -1.
         11   -1    0    0    0    0 -0.00000000000E+00 -0.00000000000E+00 -0.45593999997E+02  0.45594000000E+02  0.51100000000E-03 0.  1.
    9900012    2    1    2    0    0  0.66763094563E+01 -0.65229963478E+01 -0.44068025285E+02  0.46142318278E+02  0.10000004709E+02 0.  0.
         12    1    1    2    0    0 -0.66763094563E+01  0.65229963478E+01  0.44068025285E+02  0.45045681722E+02  0.00000000000E+00 0. -1.
         11    1    3    3    0    0  0.42707836257E+01 -0.73574052814E+01 -0.22378887418E+02  0.23941295027E+02  0.51100000000E-03 0. -1.
        -11    1    3    3    0    0 -0.55191985539E+00 -0.25653732968E+00 -0.11927960909E+02  0.11943478498E+02  0.51100000000E-03 0.  1.
        -12    1    3    3    0    0  0.29574456860E+01  0.10909462633E+01 -0.97611769580E+01  0.10257544752E+02  0.00000000000E+00 0.  1.
</event>
<event>
 7    1  0.5743890E-009  0.4614232E+02  0.7816164E-02  0.1320468E+00
        -11   -1    0    0    0    0  0.00000000000E+00  0.00000000000E+00  0.45593999997E+02  0.45594000000E+02  0.51100000000E-03 0. -1.
         11   -1    0    0    0    0 -0.00000000000E+00 -0.00000000000E+00 -0.45593999997E+02  0.45594000000E+02  0.51100000000E-03 0.  1.
    9900012    2    1    2    0    0 -0.40884704611E+02  0.32086176996E+01  0.18634895831E+02  0.46142316064E+02  0.99999845214E+01 0.  0.
        -12    1    1    2    0    0  0.40884704611E+02 -0.32086176996E+01 -0.18634895831E+02  0.45045683936E+02  0.00000000000E+00 0.  1.
         11    1    3    3    0    0 -0.35976076149E+01 -0.40409688096E+00  0.18401263327E+01  0.40610515906E+01  0.51100000000E-03 0. -1.
        -11    1    3    3    0    0 -0.33790839090E+00 -0.36743675904E+00 -0.81615378171E+00  0.95671265752E+00  0.51100000000E-03 0.  1.
         12    1    3    3    0    0 -0.36949188605E+02  0.39801513396E+01  0.17610923280E+02  0.41124551816E+02  0.00000000000E+00 0. -1.
</event>
<event>
 7    1  0.5743890E-009  0.4614232E+02  0.7816164E-02  0.1320468E+00
        -11   -1    0    0    0    0  0.00000000000E+00  0.00000000000E+00  0.45593999997E+02  0.45594000000E+02  0.51100000000E-03 0. -1.
         11   -1    0    0    0    0 -0.00000000000E+00 -0.00000000000E+00 -0.45593999997E+02  0.45594000000E+02  0.51100000000E-03 0.  1.
    9900012    2    1    2    0    0 -0.21742481415E+02  0.33317194416E+02 -0.21126815192E+02  0.46142320274E+02  0.10000022917E+02 0.  0.
         12    1    1    2    0    0  0.21742481415E+02 -0.33317194416E+02  0.21126815192E+02  0.45045679726E+02  0.00000000000E+00 0. -1.
         11    1    3    3    0    0 -0.12150176418E+01  0.40854640026E+00 -0.12290555291E+00  0.12877437894E+01  0.51100000000E-03 0. -1.
        -11    1    3    3    0    0  0.20780663853E+00  0.36563523753E+01 -0.29905520126E+01  0.47281600959E+01  0.51100000000E-03 0.  1.
        -12    1    3    3    0    0 -0.20735270411E+02  0.29252295640E+02 -0.18013357626E+02  0.40126416389E+02  0.00000000000E+00 0.  1.
</event>
<event>
 7    1  0.5743890E-009  0.4614231E+02  0.7816164E-02  0.1320468E+00
        -11   -1    0    0    0    0  0.00000000000E+00  0.00000000000E+00  0.45593999997E+02  0.45594000000E+02  0.51100000000E-03 0. -1.
         11   -1    0    0    0    0 -0.00000000000E+00 -0.00000000000E+00 -0.45593999997E+02  0.45594000000E+02  0.51100000000E-03 0.  1.
    9900012    2    1    2    0    0 -0.54157641741E+00 -0.25538496676E+02  0.37102639629E+02  0.46142312250E+02  0.99999497415E+01 0.  0.
        -12    1    1    2    0    0  0.54157641741E+00  0.25538496676E+02 -0.37102639629E+02  0.45045687750E+02  0.00000000000E+00 0.  1.
         11    1    3    3    0    0  0.68419141247E+00 -0.14316207112E+02  0.14427169930E+02  0.20336300952E+02  0.51100000000E-03 0.  1.
        -11    1    3    3    0    0 -0.23001831623E+01 -0.10466826990E+02  0.17991062671E+02  0.20940956189E+02  0.51100000000E-03 0. -1.
        -12    1    3    3    0    0  0.10744153324E+01 -0.75546257414E+00  0.46844070280E+01  0.48650551088E+01  0.00000000000E+00 0.  1.
</event>
<event>
 7    1  0.6531426E-009  0.4614232E+02  0.7816164E-02  0.1320468E+00
        -11   -1    0    0    0    0  0.00000000000E+00  0.00000000000E+00  0.45593999997E+02  0.45594000000E+02  0.51100000000E-03 0. -1.
         11   -1    0    0    0    0 -0.00000000000E+00 -0.00000000000E+00 -0.45593999997E+02  0.45594000000E+02  0.51100000000E-03 0.  1.
    9900012    2    1    2    0    0  0.32658775731E+02 -0.51216313208E+01  0.30598802086E+02  0.46142318424E+02  0.10000006040E+02 0.  0.
        -12    1    1    2    0    0 -0.32658775731E+02  0.51216313208E+01 -0.30598802086E+02  0.45045681576E+02  0.00000000000E+00 0.  1.
         11    1    3    3    0    0  0.16361518877E+02 -0.15527858043E+01  0.16129608814E+02  0.23027694728E+02  0.51100000000E-03 0. -1.
        -11    1    3    3    0    0  0.12092824506E+02 -0.54779831457E+01  0.11910644948E+02  0.17835587100E+02  0.51100000000E-03 0.  1.
        -12    1    3    3    0    0  0.42044323474E+01  0.19091376291E+01  0.25585483242E+01  0.52790365957E+01  0.00000000000E+00 0.  1.
</event>
<event>
 7    1  0.5743890E-009  0.4614232E+02  0.7816164E-02  0.1320468E+00
        -11   -1    0    0    0    0  0.00000000000E+00  0.00000000000E+00  0.45593999997E+02  0.45594000000E+02  0.51100000000E-03 0. -1.
         11   -1    0    0    0    0 -0.00000000000E+00 -0.00000000000E+00 -0.45593999997E+02  0.45594000000E+02  0.51100000000E-03 0.  1.
    9900012    2    1    2    0    0 -0.22165297294E+02 -0.24415564441E+02  0.30687021696E+02  0.46142317724E+02  0.99999996633E+01 0.  0.
        -12    1    1    2    0    0  0.22165297294E+02  0.24415564441E+02 -0.30687021696E+02  0.45045682276E+02  0.00000000000E+00 0.  1.
         11    1    3    3    0    0 -0.10657064996E+02 -0.11924433048E+02  0.89303650156E+01  0.18317111056E+02  0.51100000000E-03 0. -1.
        -11    1    3    3    0    0  0.12292871599E+00 -0.72894550328E+00  0.15017545801E+01  0.16738399254E+01  0.51100000000E-03 0.  1.
         12    1    3    3    0    0 -0.11631161014E+02 -0.11762185890E+02  0.20254902100E+02  0.26151366743E+02  0.00000000000E+00 0. -1.
</event>
<event>
 7    1  0.5743890E-009  0.4614232E+02  0.7816164E-02  0.1320468E+00
        -11   -1    0    0    0    0  0.00000000000E+00  0.00000000000E+00  0.45593999997E+02  0.45594000000E+02  0.51100000000E-03 0. -1.
         11   -1    0    0    0    0 -0.00000000000E+00 -0.00000000000E+00 -0.45593999997E+02  0.45594000000E+02  0.51100000000E-03 0.  1.
    9900012    2    1    2    0    0  0.12584697907E+02  0.34048602235E+02 -0.26672673504E+02  0.46142318216E+02  0.10000004146E+02 0.  0.
         12    1    1    2    0    0 -0.12584697907E+02 -0.34048602235E+02  0.26672673504E+02  0.45045681784E+02  0.00000000000E+00 0. -1.
         11    1    3    3    0    0  0.54576437863E+01  0.19716310400E+02 -0.12072534654E+02  0.23754259928E+02  0.51100000000E-03 0. -1.
        -11    1    3    3    0    0  0.37047802518E+01  0.11437595683E+02 -0.81166473621E+01  0.14505997255E+02  0.51100000000E-03 0.  1.
        -12    1    3    3    0    0  0.34222738692E+01  0.28946961522E+01 -0.64834914878E+01  0.78820610326E+01  0.00000000000E+00 0.  1.
</event>
<event>
 7    1  0.5743890E-009  0.4614232E+02  0.7816164E-02  0.1320468E+00
        -11   -1    0    0    0    0  0.00000000000E+00  0.00000000000E+00  0.45593999997E+02  0.45594000000E+02  0.51100000000E-03 0. -1.
         11   -1    0    0    0    0 -0.00000000000E+00 -0.00000000000E+00 -0.45593999997E+02  0.45594000000E+02  0.51100000000E-03 0.  1.
    9900012    2    1    2    0    0  0.75946288804E+01  0.22244466963E+02  0.38426795618E+02  0.46142319632E+02  0.10000017064E+02 0.  0.
        -12    1    1    2    0    0 -0.75946288804E+01 -0.22244466963E+02 -0.38426795618E+02  0.45045680368E+02  0.00000000000E+00 0.  1.
         11    1    3    3    0    0  0.19012135724E+01  0.12094820270E+02  0.17136471410E+02  0.21060815346E+02  0.51100000000E-03 0. -1.
        -11    1    3    3    0    0 -0.62095781770E+00  0.12625794591E+01  0.31443308999E+00  0.14417225569E+01  0.51100000000E-03 0.  1.
        -12    1    3    3    0    0  0.63143731257E+01  0.88870672340E+01  0.20975891118E+02  0.23639781729E+02  0.00000000000E+00 0.  1.
</event>
<event>
 7    1  0.7524541E-009  0.4614232E+02  0.7816164E-02  0.1320468E+00
        -11   -1    0    0    0    0  0.00000000000E+00  0.00000000000E+00  0.45593999997E+02  0.45594000000E+02  0.51100000000E-03 0. -1.
         11   -1    0    0    0    0 -0.00000000000E+00 -0.00000000000E+00 -0.45593999997E+02  0.45594000000E+02  0.51100000000E-03 0.  1.
    9900012    2    1    2    0    0  0.89823196764E+01 -0.99605420712E+00  0.44129801574E+02  0.46142316769E+02  0.99999909531E+01 0.  0.
        -12    1    1    2    0    0 -0.89823196764E+01  0.99605420712E+00 -0.44129801574E+02  0.45045683231E+02  0.00000000000E+00 0.  1.
         11    1    3    3    0    0  0.32587748310E+01  0.25764320841E+01  0.93903620872E+01  0.10268228478E+02  0.51100000000E-03 0. -1.
        -11    1    3    3    0    0  0.13396475113E+01 -0.26766846194E+01  0.52185509392E+01  0.60160261114E+01  0.51100000000E-03 0.  1.
         12    1    3    3    0    0  0.43838973341E+01 -0.89580167177E+00  0.29520888548E+02  0.29858062180E+02  0.00000000000E+00 0. -1.
</event>
<event>
 7    1  0.5743890E-009  0.4614232E+02  0.7816164E-02  0.1320468E+00
        -11   -1    0    0    0    0  0.00000000000E+00  0.00000000000E+00  0.45593999997E+02  0.45594000000E+02  0.51100000000E-03 0. -1.
         11   -1    0    0    0    0 -0.00000000000E+00 -0.00000000000E+00 -0.45593999997E+02  0.45594000000E+02  0.51100000000E-03 0.  1.
    9900012    2    1    2    0    0 -0.29711907933E+02 -0.16369992063E+02  0.29636790532E+02  0.46142318007E+02  0.10000002243E+02 0.  0.
        -12    1    1    2    0    0  0.29711907933E+02  0.16369992063E+02 -0.29636790532E+02  0.45045681993E+02  0.00000000000E+00 0.  1.
         11    1    3    3    0    0 -0.19095981239E+01 -0.29628650583E+01  0.80414291098E+00  0.36154917274E+01  0.51100000000E-03 0. -1.
        -11    1    3    3    0    0 -0.10854562706E+02 -0.30586443276E+01  0.86438679416E+01  0.14208915860E+02  0.51100000000E-03 0.  1.
         12    1    3    3    0    0 -0.16947747103E+02 -0.10348482677E+02  0.20188779679E+02  0.28317910420E+02  0.00000000000E+00 0. -1.
</event>
<event>
 7    1  0.5743890E-009  0.4614232E+02  0.7816164E-02  0.1320468E+00
        -11   -1    0    0    0    0  0.00000000000E+00  0.00000000000E+00  0.45593999997E+02  0.45594000000E+02  0.51100000000E-03 0. -1.
         11   -1    0    0    0    0 -0.00000000000E+00 -0.00000000000E+00 -0.45593999997E+02  0.45594000000E+02  0.51100000000E-03 0.  1.
    9900012    2    1    2    0    0  0.22405886948E+01  0.26664995428E+02  0.36236325287E+02  0.46142317752E+02  0.99999999206E+01 0.  0.
        -12    1    1    2    0    0 -0.22405886948E+01 -0.26664995428E+02 -0.36236325287E+02  0.45045682248E+02  0.00000000000E+00 0.  1.
         11    1    3    3    0    0  0.39008801535E+01  0.13824268635E+02  0.24245401713E+02  0.28180964742E+02  0.51100000000E-03 0. -1.
        -11    1    3    3    0    0 -0.13361257305E+01  0.17390225054E+01  0.27205532622E+01  0.34944014589E+01  0.51100000000E-03 0.  1.
         12    1    3    3    0    0 -0.32416572830E+00  0.11101704287E+02  0.92703703114E+01  0.14466951552E+02  0.00000000000E+00 0. -1.
</event>
<event>
 7    1  0.5743890E-009  0.4614232E+02  0.7816164E-02  0.1320468E+00
        -11   -1    0    0    0    0  0.00000000000E+00  0.00000000000E+00  0.45593999997E+02  0.45594000000E+02  0.51100000000E-03 0. -1.
         11   -1    0    0    0    0 -0.00000000000E+00 -0.00000000000E+00 -0.45593999997E+02  0.45594000000E+02  0.51100000000E-03 0.  1.
    9900012    2    1    2    0    0 -0.27824292111E+02  0.16588707995E+02 -0.31300752486E+02  0.46142316848E+02  0.99999916722E+01 0.  0.
         12    1    1    2    0    0  0.27824292111E+02 -0.16588707995E+02  0.31300752486E+02  0.45045683152E+02  0.00000000000E+00 0. -1.
         11    1    3    3    0    0 -0.11194164918E+02  0.72982472159E+01 -0.75555850257E+01  0.15351241187E+02  0.51100000000E-03 0. -1.
        -11    1    3    3    0    0 -0.15008727715E+02  0.72091791611E+01 -0.18304559663E+02  0.24744516090E+02  0.51100000000E-03 0.  1.
         12    1    3    3    0    0 -0.16213994784E+01  0.20812816178E+01 -0.54406077973E+01  0.60465595710E+01  0.00000000000E+00 0. -1.
</event>
<event>
 7    1  0.5743890E-009  0.4614232E+02  0.7816164E-02  0.1320468E+00
        -11   -1    0    0    0    0  0.00000000000E+00  0.00000000000E+00  0.45593999997E+02  0.45594000000E+02  0.51100000000E-03 0. -1.
         11   -1    0    0    0    0 -0.00000000000E+00 -0.00000000000E+00 -0.45593999997E+02  0.45594000000E+02  0.51100000000E-03 0.  1.
    9900012    2    1    2    0    0  0.26019617723E+02 -0.10204162029E+02 -0.35326590001E+02  0.46142318850E+02  0.10000009931E+02 0.  0.
         12    1    1    2    0    0 -0.26019617723E+02  0.10204162029E+02  0.35326590001E+02  0.45045681150E+02  0.00000000000E+00 0. -1.
         11    1    3    3    0    0  0.29314865420E+01  0.73153309662E+00 -0.23720106608E+01  0.38412483457E+01  0.51100000000E-03 0. -1.
        -11    1    3    3    0    0  0.16249169542E+02 -0.64342233332E+01 -0.27057703217E+02  0.32211085737E+02  0.51100000000E-03 0.  1.
        -12    1    3    3    0    0  0.68389616386E+01 -0.45014717926E+01 -0.58968761228E+01  0.10089984767E+02  0.00000000000E+00 0.  1.
</event>
<event>
 7    1  0.5743890E-009  0.4614232E+02  0.7816164E-02  0.1320468E+00
        -11   -1    0    0    0    0  0.00000000000E+00  0.00000000000E+00  0.45593999997E+02  0.45594000000E+02  0.51100000000E-03 0. -1.
         11   -1    0    0    0    0 -0.00000000000E+00 -0.00000000000E+00 -0.45593999997E+02  0.45594000000E+02  0.51100000000E-03 0.  1.
    9900012    2    1    2    0    0  0.34510683883E+02 -0.10204657696E+01 -0.28932417536E+02  0.46142318332E+02  0.10000005206E+02 0.  0.
         12    1    1    2    0    0 -0.34510683883E+02  0.10204657696E+01  0.28932417536E+02  0.45045681668E+02  0.00000000000E+00 0. -1.
         11    1    3    3    0    0  0.64820598834E+01 -0.15246484774E+01 -0.98338951600E+01  0.11876327193E+02  0.51100000000E-03 0. -1.
        -11    1    3    3    0    0  0.14333498734E+02  0.26360033498E+01 -0.10365057783E+02  0.17883850892E+02  0.51100000000E-03 0.  1.
         12    1    3    3    0    0  0.13695125265E+02 -0.21318206419E+01 -0.87334645934E+01  0.16382140248E+02  0.00000000000E+00 0. -1.
</event>
<event>
 7    1  0.5743890E-009  0.4614232E+02  0.7816164E-02  0.1320468E+00
        -11   -1    0    0    0    0  0.00000000000E+00  0.00000000000E+00  0.45593999997E+02  0.45594000000E+02  0.51100000000E-03 0. -1.
         11   -1    0    0    0    0 -0.00000000000E+00 -0.00000000000E+00 -0.45593999997E+02  0.45594000000E+02  0.51100000000E-03 0.  1.
    9900012    2    1    2    0    0  0.10551770415E+02  0.12265756944E+02 -0.42039561663E+02  0.46142318774E+02  0.10000009235E+02 0.  0.
         12    1    1    2    0    0 -0.10551770415E+02 -0.12265756944E+02  0.42039561663E+02  0.45045681226E+02  0.00000000000E+00 0. -1.
         11    1    3    3    0    0  0.45360133325E+00  0.36355197916E+01 -0.49870750909E+01  0.61881884706E+01  0.51100000000E-03 0. -1.
        -11    1    3    3    0    0  0.16271225073E+01  0.57881171052E+01 -0.15066755901E+02  0.16222113331E+02  0.51100000000E-03 0.  1.
        -12    1    3    3    0    0  0.84710465747E+01  0.28421200477E+01 -0.21985730671E+02  0.23732016972E+02  0.00000000000E+00 0.  1.
</event>
<event>
 7    1  0.6396872E-009  0.4614232E+02  0.7816164E-02  0.1320468E+00
        -11   -1    0    0    0    0  0.00000000000E+00  0.00000000000E+00  0.45593999997E+02  0.45594000000E+02  0.51100000000E-03 0. -1.
         11   -1    0    0    0    0 -0.00000000000E+00 -0.00000000000E+00 -0.45593999997E+02  0.45594000000E+02  0.51100000000E-03 0.  1.
    9900012    2    1    2    0    0  0.17137922353E+02  0.24252074298E+02  0.33870960862E+02  0.46142317854E+02  0.10000000843E+02 0.  0.
        -12    1    1    2    0    0 -0.17137922353E+02 -0.24252074298E+02 -0.33870960862E+02  0.45045682146E+02  0.00000000000E+00 0.  1.
         11    1    3    3    0    0 -0.20050398028E-01  0.13591060338E+01  0.11158980791E+00  0.13638268863E+01  0.51100000000E-03 0. -1.
        -11    1    3    3    0    0  0.33509081749E+00  0.11701428858E+01  0.44128403205E+01  0.45776282270E+01  0.51100000000E-03 0.  1.
         12    1    3    3    0    0  0.16822881934E+02  0.21722825378E+02  0.29346530733E+02  0.40200862740E+02  0.00000000000E+00 0. -1.
</event>
<event>
 7    1  0.5743890E-009  0.4614232E+02  0.7816164E-02  0.1320468E+00
        -11   -1    0    0    0    0  0.00000000000E+00  0.00000000000E+00  0.45593999997E+02  0.45594000000E+02  0.51100000000E-03 0. -1.
         11   -1    0    0    0    0 -0.00000000000E+00 -0.00000000000E+00 -0.45593999997E+02  0.45594000000E+02  0.51100000000E-03 0.  1.
    9900012    2    1    2    0    0  0.31306694083E+02  0.11132473505E+02 -0.30414995428E+02  0.46142323097E+02  0.10000048657E+02 0.  0.
         12    1    1    2    0    0 -0.31306694083E+02 -0.11132473505E+02  0.30414995428E+02  0.45045676903E+02  0.00000000000E+00 0. -1.
         11    1    3    3    0    0  0.68547433736E+01  0.17206040612E+01 -0.10176762758E+02  0.12390096268E+02  0.51100000000E-03 0. -1.
        -11    1    3    3    0    0  0.74953109587E+01  0.62467056095E+01 -0.70013440593E+01  0.12009156350E+02  0.51100000000E-03 0.  1.
         12    1    3    3    0    0  0.16956639751E+02  0.31651638344E+01 -0.13236888612E+02  0.21743070479E+02  0.00000000000E+00 0. -1.
</event>
<event>
 7    1  0.5743890E-009  0.4614232E+02  0.7816164E-02  0.1320468E+00
        -11   -1    0    0    0    0  0.00000000000E+00  0.00000000000E+00  0.45593999997E+02  0.45594000000E+02  0.51100000000E-03 0. -1.
         11   -1    0    0    0    0 -0.00000000000E+00 -0.00000000000E+00 -0.45593999997E+02  0.45594000000E+02  0.51100000000E-03 0.  1.
    9900012    2    1    2    0    0 -0.91977994581E+01 -0.27816100796E+02  0.34216640640E+02  0.46142317908E+02  0.10000001344E+02 0.  0.
        -12    1    1    2    0    0  0.91977994581E+01  0.27816100796E+02 -0.34216640640E+02  0.45045682092E+02  0.00000000000E+00 0.  1.
         11    1    3    3    0    0 -0.50668660927E+01 -0.90276575908E+01  0.11815121939E+02  0.15708877754E+02  0.51100000000E-03 0. -1.
        -11    1    3    3    0    0 -0.44804952101E+01 -0.11882489045E+02  0.18659954683E+02  0.22571271393E+02  0.51100000000E-03 0.  1.
        -12    1    3    3    0    0  0.34956184469E+00 -0.69059541602E+01  0.37415640178E+01  0.78621687622E+01  0.00000000000E+00 0.  1.
</event>
<event>
 7    1  0.5743890E-009  0.4614232E+02  0.7816164E-02  0.1320468E+00
        -11   -1    0    0    0    0  0.00000000000E+00  0.00000000000E+00  0.45593999997E+02  0.45594000000E+02  0.51100000000E-03 0. -1.
         11   -1    0    0    0    0 -0.00000000000E+00 -0.00000000000E+00 -0.45593999997E+02  0.45594000000E+02  0.51100000000E-03 0.  1.
    9900012    2    1    2    0    0 -0.13287658514E+02 -0.40185019694E+02 -0.15418030653E+02  0.46142319343E+02  0.10000014428E+02 0.  0.
         12    1    1    2    0    0  0.13287658514E+02  0.40185019694E+02  0.15418030653E+02  0.45045680657E+02  0.00000000000E+00 0. -1.
         11    1    3    3    0    0 -0.12283557462E+01 -0.30847951976E+00  0.48060099766E+00  0.13546198852E+01  0.51100000000E-03 0. -1.
        -11    1    3    3    0    0 -0.10943786562E+02 -0.30282651811E+02 -0.12695960842E+02  0.34612033846E+02  0.51100000000E-03 0.  1.
         12    1    3    3    0    0 -0.11155162063E+01 -0.95938883635E+01 -0.32026708086E+01  0.10175665612E+02  0.00000000000E+00 0. -1.
</event>
<event>
 7    1  0.5743890E-009  0.4614232E+02  0.7816164E-02  0.1320468E+00
        -11   -1    0    0    0    0  0.00000000000E+00  0.00000000000E+00  0.45593999997E+02  0.45594000000E+02  0.51100000000E-03 0. -1.
         11   -1    0    0    0    0 -0.00000000000E+00 -0.00000000000E+00 -0.45593999997E+02  0.45594000000E+02  0.51100000000E-03 0.  1.
    9900012    2    1    2    0    0  0.69102258209E+01  0.29446323845E+02  0.33380775676E+02  0.46142318813E+02  0.10000009588E+02 0.  0.
        -12    1    1    2    0    0 -0.69102258209E+01 -0.29446323845E+02 -0.33380775676E+02  0.45045681187E+02  0.00000000000E+00 0.  1.
         11    1    3    3    0    0  0.27132234976E+01  0.54888405286E+01  0.11657093944E+02  0.13167262114E+02  0.51100000000E-03 0. -1.
        -11    1    3    3    0    0  0.32340732306E+01  0.12528037696E+02  0.14435693505E+02  0.19385566935E+02  0.51100000000E-03 0.  1.
        -12    1    3    3    0    0  0.96292909263E+00  0.11429445621E+02  0.72879882275E+01  0.13589489764E+02  0.00000000000E+00 0.  1.
</event>
<event>
 7    1  0.5743890E-009  0.4614232E+02  0.7816164E-02  0.1320468E+00
        -11   -1    0    0    0    0  0.00000000000E+00  0.00000000000E+00  0.45593999997E+02  0.45594000000E+02  0.51100000000E-03 0. -1.
         11   -1    0    0    0    0 -0.00000000000E+00 -0.00000000000E+00 -0.45593999997E+02  0.45594000000E+02  0.51100000000E-03 0.  1.
    9900012    2    1    2    0    0 -0.24698479805E+02  0.14826342093E+02  0.34630595428E+02  0.46142318029E+02  0.10000002446E+02 0.  0.
        -12    1    1    2    0    0  0.24698479805E+02 -0.14826342093E+02 -0.34630595428E+02  0.45045681971E+02  0.00000000000E+00 0.  1.
         11    1    3    3    0    0 -0.47543483818E+01  0.66060251372E+01  0.79675648838E+01  0.11389709702E+02  0.51100000000E-03 0. -1.
        -11    1    3    3    0    0 -0.25889427879E+01  0.33263612252E+01  0.42420147114E+01  0.59801331785E+01  0.51100000000E-03 0.  1.
         12    1    3    3    0    0 -0.17355188635E+02  0.48939557304E+01  0.22421015833E+02  0.28772475149E+02  0.00000000000E+00 0. -1.
</event>
<event>
 7    1  0.5743890E-009  0.4614232E+02  0.7816164E-02  0.1320468E+00
        -11   -1    0    0    0    0  0.00000000000E+00  0.00000000000E+00  0.45593999997E+02  0.45594000000E+02  0.51100000000E-03 0. -1.
         11   -1    0    0    0    0 -0.00000000000E+00 -0.00000000000E+00 -0.45593999997E+02  0.45594000000E+02  0.51100000000E-03 0.  1.
    9900012    2    1    2    0    0 -0.20135838302E+02 -0.83687607867E+01 -0.39416051149E+02  0.46142320635E+02  0.10000026206E+02 0.  0.
         12    1    1    2    0    0  0.20135838302E+02  0.83687607867E+01  0.39416051149E+02  0.45045679365E+02  0.00000000000E+00 0. -1.
         11    1    3    3    0    0 -0.98947934945E+00 -0.25567213430E+01 -0.57581783209E+01  0.63775003916E+01  0.51100000000E-03 0. -1.
        -11    1    3    3    0    0 -0.50683309708E+01  0.14668108159E+01 -0.72583727506E+01  0.89734880647E+01  0.51100000000E-03 0.  1.
        -12    1    3    3    0    0 -0.14078027982E+02 -0.72788502596E+01 -0.26399500078E+02  0.30791332179E+02  0.00000000000E+00 0.  1.
</event>
<event>
 7    1  0.5743890E-009  0.4614232E+02  0.7816164E-02  0.1320468E+00
        -11   -1    0    0    0    0  0.00000000000E+00  0.00000000000E+00  0.45593999997E+02  0.45594000000E+02  0.51100000000E-03 0. -1.
         11   -1    0    0    0    0 -0.00000000000E+00 -0.00000000000E+00 -0.45593999997E+02  0.45594000000E+02  0.51100000000E-03 0.  1.
    9900012    2    1    2    0    0  0.63939265451E+01 -0.10611844547E+02 -0.43308427147E+02  0.46142318705E+02  0.10000008610E+02 0.  0.
         12    1    1    2    0    0 -0.63939265451E+01  0.10611844547E+02  0.43308427147E+02  0.45045681295E+02  0.00000000000E+00 0. -1.
         11    1    3    3    0    0  0.42583683863E+00 -0.36335932451E+01 -0.29099695857E+01  0.46746401075E+01  0.51100000000E-03 0. -1.
        -11    1    3    3    0    0  0.17679216697E+01 -0.28090913920E+01 -0.17822623755E+02  0.18129050147E+02  0.51100000000E-03 0.  1.
        -12    1    3    3    0    0  0.42001680368E+01 -0.41691599103E+01 -0.22575833807E+02  0.23338628451E+02  0.00000000000E+00 0.  1.
</event>
<event>
 7    1  0.5743890E-009  0.4614232E+02  0.7816164E-02  0.1320468E+00
        -11   -1    0    0    0    0  0.00000000000E+00  0.00000000000E+00  0.45593999997E+02  0.45594000000E+02  0.51100000000E-03 0. -1.
         11   -1    0    0    0    0 -0.00000000000E+00 -0.00000000000E+00 -0.45593999997E+02  0.45594000000E+02  0.51100000000E-03 0.  1.
    9900012    2    1    2    0    0  0.36808932563E+01  0.93611643385E+01  0.43908237224E+02  0.46142315755E+02  0.99999817100E+01 0.  0.
        -12    1    1    2    0    0 -0.36808932563E+01 -0.93611643385E+01 -0.43908237224E+02  0.45045684245E+02  0.00000000000E+00 0.  1.
         11    1    3    3    0    0  0.33954636278E+01  0.63706302775E+01  0.19160552078E+02  0.20475372025E+02  0.51100000000E-03 0. -1.
        -11    1    3    3    0    0  0.21517841048E-01 -0.32577536539E-01  0.20198241854E+02  0.20198279594E+02  0.51100000000E-03 0.  1.
        -12    1    3    3    0    0  0.26391178749E+00  0.30231115975E+01  0.45494432926E+01  0.54686641362E+01  0.00000000000E+00 0.  1.
</event>
<event>
 7    1  0.5743890E-009  0.4614232E+02  0.7816164E-02  0.1320468E+00
        -11   -1    0    0    0    0  0.00000000000E+00  0.00000000000E+00  0.45593999997E+02  0.45594000000E+02  0.51100000000E-03 0. -1.
         11   -1    0    0    0    0 -0.00000000000E+00 -0.00000000000E+00 -0.45593999997E+02  0.45594000000E+02  0.51100000000E-03 0.  1.
    9900012    2    1    2    0    0 -0.13848294839E+02  0.13329014101E+02 -0.40739116563E+02  0.46142317574E+02  0.99999982971E+01 0.  0.
         12    1    1    2    0    0  0.13848294839E+02 -0.13329014101E+02  0.40739116563E+02  0.45045682426E+02  0.00000000000E+00 0. -1.
         11    1    3    3    0    0 -0.11068169106E+02  0.65843660260E+01 -0.28044480394E+02  0.30860186716E+02  0.51100000000E-03 0. -1.
        -11    1    3    3    0    0 -0.34084696088E+01  0.25260517356E+01 -0.64215689058E+01  0.76964374823E+01  0.51100000000E-03 0.  1.
         12    1    3    3    0    0  0.62834387654E+00  0.42185963393E+01 -0.62730672636E+01  0.75856933760E+01  0.00000000000E+00 0. -1.
</event>
<event>
 7    1  0.5743890E-009  0.4614232E+02  0.7816164E-02  0.1320468E+00
        -11   -1    0    0    0    0  0.00000000000E+00  0.00000000000E+00  0.45593999997E+02  0.45594000000E+02  0.51100000000E-03 0. -1.
         11   -1    0    0    0    0 -0.00000000000E+00 -0.00000000000E+00 -0.45593999997E+02  0.45594000000E+02  0.51100000000E-03 0.  1.
    9900012    2    1    2    0    0 -0.25571031020E+02  0.15059922238E+02 -0.33888560259E+02  0.46142318724E+02  0.10000008776E+02 0.  0.
         12    1    1    2    0    0  0.25571031020E+02 -0.15059922238E+02  0.33888560259E+02  0.45045681276E+02  0.00000000000E+00 0. -1.
         11    1    3    3    0    0 -0.72729044671E+01  0.68075474808E+01 -0.10813554052E+02  0.14702747825E+02  0.51100000000E-03 0. -1.
        -11    1    3    3    0    0 -0.61669466136E+01  0.19540633728E+01 -0.12792066844E+02  0.14334802706E+02  0.51100000000E-03 0.  1.
         12    1    3    3    0    0 -0.12131179940E+02  0.62983113841E+01 -0.10282939362E+02  0.17104768193E+02  0.00000000000E+00 0. -1.
</event>
<event>
 7    1  0.5743890E-009  0.4614232E+02  0.7816164E-02  0.1320468E+00
        -11   -1    0    0    0    0  0.00000000000E+00  0.00000000000E+00  0.45593999997E+02  0.45594000000E+02  0.51100000000E-03 0. -1.
         11   -1    0    0    0    0 -0.00000000000E+00 -0.00000000000E+00 -0.45593999997E+02  0.45594000000E+02  0.51100000000E-03 0.  1.
    9900012    2    1    2    0    0  0.89910089949E+01 -0.30845674144E+02  0.31572453116E+02  0.46142315946E+02  0.99999834457E+01 0.  0.
        -12    1    1    2    0    0 -0.89910089949E+01  0.30845674144E+02 -0.31572453116E+02  0.45045684054E+02  0.00000000000E+00 0.  1.
         11    1    3    3    0    0  0.20274294713E+00 -0.17579552141E+00  0.15736557859E+00  0.31108351677E+00  0.51100000000E-03 0.  1.
        -11    1    3    3    0    0  0.46617058791E+01 -0.14465641084E+02  0.83450946831E+01  0.17338595076E+02  0.51100000000E-03 0. -1.
        -12    1    3    3    0    0  0.41265601686E+01 -0.16204237539E+02  0.23069992854E+02  0.28492637353E+02  0.00000000000E+00 0.  1.
</event>
<event>
 7    1  0.5743890E-009  0.4614231E+02  0.7816164E-02  0.1320468E+00
        -11   -1    0    0    0    0  0.00000000000E+00  0.00000000000E+00  0.45593999997E+02  0.45594000000E+02  0.51100000000E-03 0. -1.
         11   -1    0    0    0    0 -0.00000000000E+00 -0.00000000000E+00 -0.45593999997E+02  0.45594000000E+02  0.51100000000E-03 0.  1.
    9900012    2    1    2    0    0 -0.68587473705E+01 -0.21900500565E+02 -0.38761316540E+02  0.46142312077E+02  0.99999481710E+01 0.  0.
         12    1    1    2    0    0  0.68587473705E+01  0.21900500565E+02  0.38761316540E+02  0.45045687923E+02  0.00000000000E+00 0. -1.
         11    1    3    3    0    0 -0.57733731817E+01 -0.10209015364E+02 -0.13137358120E+02  0.17610962813E+02  0.51100000000E-03 0. -1.
        -11    1    3    3    0    0 -0.13911677420E+01 -0.18602540530E+01 -0.82017316097E+01  0.85243354279E+01  0.51100000000E-03 0.  1.
        -12    1    3    3    0    0  0.30579355318E+00 -0.98312311489E+01 -0.17422226811E+02  0.20007013836E+02  0.00000000000E+00 0.  1.
</event>
<event>
 7    1  0.5743890E-009  0.4614232E+02  0.7816164E-02  0.1320468E+00
        -11   -1    0    0    0    0  0.00000000000E+00  0.00000000000E+00  0.45593999997E+02  0.45594000000E+02  0.51100000000E-03 0.  1.
         11   -1    0    0    0    0 -0.00000000000E+00 -0.00000000000E+00 -0.45593999997E+02  0.45594000000E+02  0.51100000000E-03 0. -1.
    9900012    2    1    2    0    0 -0.38490824718E+01 -0.43969036956E+02  0.90012156465E+01  0.46142317301E+02  0.99999958026E+01 0.  0.
         12    1    1    2    0    0  0.38490824718E+01  0.43969036956E+02 -0.90012156465E+01  0.45045682699E+02  0.00000000000E+00 0. -1.
         11    1    3    3    0    0 -0.22328514705E+01 -0.72625987658E+01  0.48198020380E+01  0.89978585490E+01  0.51100000000E-03 0. -1.
        -11    1    3    3    0    0  0.65006510588E+00 -0.17381909861E+02  0.94091619579E+00  0.17419491916E+02  0.51100000000E-03 0.  1.
         12    1    3    3    0    0 -0.22662961071E+01 -0.19324528329E+02  0.32404974127E+01  0.19724966836E+02  0.00000000000E+00 0. -1.
</event>
<event>
 7    1  0.5743890E-009  0.4614232E+02  0.7816164E-02  0.1320468E+00
        -11   -1    0    0    0    0  0.00000000000E+00  0.00000000000E+00  0.45593999997E+02  0.45594000000E+02  0.51100000000E-03 0.  1.
         11   -1    0    0    0    0 -0.00000000000E+00 -0.00000000000E+00 -0.45593999997E+02  0.45594000000E+02  0.51100000000E-03 0. -1.
    9900012    2    1    2    0    0 -0.44689639947E+02  0.55507319936E+01  0.10672773572E+01  0.46142316242E+02  0.99999861487E+01 0.  0.
        -12    1    1    2    0    0  0.44689639947E+02 -0.55507319936E+01 -0.10672773572E+01  0.45045683758E+02  0.00000000000E+00 0.  1.
         11    1    3    3    0    0 -0.82450393383E+01  0.29097372838E+01  0.17415834343E+01  0.89151757061E+01  0.51100000000E-03 0. -1.
        -11    1    3    3    0    0 -0.75985256524E+01 -0.20156617413E+01  0.11773708799E+01  0.79490053966E+01  0.51100000000E-03 0.  1.
         12    1    3    3    0    0 -0.28846074956E+02  0.46566564511E+01 -0.18516769570E+01  0.29278135139E+02  0.00000000000E+00 0. -1.
</event>
<event>
 7    1  0.5743890E-009  0.4614232E+02  0.7816164E-02  0.1320468E+00
        -11   -1    0    0    0    0  0.00000000000E+00  0.00000000000E+00  0.45593999997E+02  0.45594000000E+02  0.51100000000E-03 0. -1.
         11   -1    0    0    0    0 -0.00000000000E+00 -0.00000000000E+00 -0.45593999997E+02  0.45594000000E+02  0.51100000000E-03 0.  1.
    9900012    2    1    2    0    0  0.34833602737E+01 -0.39761147011E+02 -0.20881352483E+02  0.46142317722E+02  0.99999996432E+01 0.  0.
         12    1    1    2    0    0 -0.34833602737E+01  0.39761147011E+02  0.20881352483E+02  0.45045682278E+02  0.00000000000E+00 0. -1.
         11    1    3    3    0    0 -0.17539178324E+01 -0.25396355041E+02 -0.10111238927E+02  0.27391389706E+02  0.51100000000E-03 0. -1.
        -11    1    3    3    0    0  0.34035933713E+01 -0.10020749315E+02 -0.67302694519E+01  0.12541785831E+02  0.51100000000E-03 0.  1.
         12    1    3    3    0    0  0.18336847347E+01 -0.43440426542E+01 -0.40398441036E+01  0.62091421847E+01  0.00000000000E+00 0. -1.
</event>
<event>
 7    1  0.5743890E-009  0.4614232E+02  0.7816164E-02  0.1320468E+00
        -11   -1    0    0    0    0  0.00000000000E+00  0.00000000000E+00  0.45593999997E+02  0.45594000000E+02  0.51100000000E-03 0. -1.
         11   -1    0    0    0    0 -0.00000000000E+00 -0.00000000000E+00 -0.45593999997E+02  0.45594000000E+02  0.51100000000E-03 0.  1.
    9900012    2    1    2    0    0  0.21972233156E+02  0.58699328251E+01  0.38882880140E+02  0.46142317530E+02  0.99999978936E+01 0.  0.
        -12    1    1    2    0    0 -0.21972233156E+02 -0.58699328251E+01 -0.38882880140E+02  0.45045682470E+02  0.00000000000E+00 0.  1.
         11    1    3    3    0    0  0.64630788436E+01 -0.39548673140E+00  0.68458428681E+01  0.94230230143E+01  0.51100000000E-03 0. -1.
        -11    1    3    3    0    0  0.24811073247E+01 -0.13605947655E+00  0.10196586142E+02  0.10494988087E+02  0.51100000000E-03 0.  1.
        -12    1    3    3    0    0  0.13028046987E+02  0.64014790330E+01  0.21840451130E+02  0.26224306429E+02  0.00000000000E+00 0.  1.
</event>
<event>
 7    1  0.5743890E-009  0.4614232E+02  0.7816164E-02  0.1320468E+00
        -11   -1    0    0    0    0  0.00000000000E+00  0.00000000000E+00  0.45593999997E+02  0.45594000000E+02  0.51100000000E-03 0.  1.
         11   -1    0    0    0    0 -0.00000000000E+00 -0.00000000000E+00 -0.45593999997E+02  0.45594000000E+02  0.51100000000E-03 0. -1.
    9900012    2    1    2    0    0  0.23749542744E+02  0.36930978661E+02 -0.10058589371E+02  0.46142321123E+02  0.10000030654E+02 0.  0.
         12    1    1    2    0    0 -0.23749542744E+02 -0.36930978661E+02  0.10058589371E+02  0.45045678877E+02  0.00000000000E+00 0. -1.
         11    1    3    3    0    0  0.11753617989E+02  0.14577463481E+02 -0.75959452819E+01  0.20207631291E+02  0.51100000000E-03 0. -1.
        -11    1    3    3    0    0  0.58052864189E+01  0.10966005622E+02 -0.36105841200E+01  0.12922497733E+02  0.51100000000E-03 0.  1.
         12    1    3    3    0    0  0.61906383354E+01  0.11387509557E+02  0.11479400305E+01  0.13012192099E+02  0.00000000000E+00 0. -1.
</event>
<event>
 7    1  0.5743890E-009  0.4614232E+02  0.7816164E-02  0.1320468E+00
        -11   -1    0    0    0    0  0.00000000000E+00  0.00000000000E+00  0.45593999997E+02  0.45594000000E+02  0.51100000000E-03 0. -1.
         11   -1    0    0    0    0 -0.00000000000E+00 -0.00000000000E+00 -0.45593999997E+02  0.45594000000E+02  0.51100000000E-03 0.  1.
    9900012    2    1    2    0    0  0.12148591116E+02  0.29702424193E+01 -0.43274737774E+02  0.46142317237E+02  0.99999952235E+01 0.  0.
         12    1    1    2    0    0 -0.12148591116E+02 -0.29702424193E+01  0.43274737774E+02  0.45045682763E+02  0.00000000000E+00 0. -1.
         11    1    3    3    0    0  0.34906821450E+01 -0.13334608390E+01 -0.67014491638E+01  0.76728352519E+01  0.51100000000E-03 0. -1.
        -11    1    3    3    0    0  0.78339444530E+01  0.61107707666E+01 -0.29963194704E+02  0.31567471267E+02  0.51100000000E-03 0.  1.
        -12    1    3    3    0    0  0.82396451758E+00 -0.18070675083E+01 -0.66100939066E+01  0.69020107186E+01  0.00000000000E+00 0.  1.
</event>
<event>
 7    1  0.5743890E-009  0.4614232E+02  0.7816164E-02  0.1320468E+00
        -11   -1    0    0    0    0  0.00000000000E+00  0.00000000000E+00  0.45593999997E+02  0.45594000000E+02  0.51100000000E-03 0. -1.
         11   -1    0    0    0    0 -0.00000000000E+00 -0.00000000000E+00 -0.45593999997E+02  0.45594000000E+02  0.51100000000E-03 0.  1.
    9900012    2    1    2    0    0 -0.65998765868E+01  0.29965529317E+02 -0.32979116506E+02  0.46142318256E+02  0.10000004516E+02 0.  0.
         12    1    1    2    0    0  0.65998765868E+01 -0.29965529317E+02  0.32979116506E+02  0.45045681744E+02  0.00000000000E+00 0. -1.
         11    1    3    3    0    0 -0.28488299030E+00  0.15414696550E+02 -0.15798149984E+02  0.22074319270E+02  0.51100000000E-03 0. -1.
        -11    1    3    3    0    0 -0.52669265291E+01  0.14795095017E+02 -0.16572984404E+02  0.22831976785E+02  0.51100000000E-03 0.  1.
         12    1    3    3    0    0 -0.10480670673E+01 -0.24426225016E+00 -0.60798211831E+00  0.12360222007E+01  0.00000000000E+00 0. -1.
</event>
<event>
 7    1  0.5743890E-009  0.4614232E+02  0.7816164E-02  0.1320468E+00
        -11   -1    0    0    0    0  0.00000000000E+00  0.00000000000E+00  0.45593999997E+02  0.45594000000E+02  0.51100000000E-03 0. -1.
         11   -1    0    0    0    0 -0.00000000000E+00 -0.00000000000E+00 -0.45593999997E+02  0.45594000000E+02  0.51100000000E-03 0.  1.
    9900012    2    1    2    0    0 -0.27640410537E+02 -0.19178342187E+02  0.29955172537E+02  0.46142318016E+02  0.10000002323E+02 0.  0.
        -12    1    1    2    0    0  0.27640410537E+02  0.19178342187E+02 -0.29955172537E+02  0.45045681984E+02  0.00000000000E+00 0.  1.
         11    1    3    3    0    0 -0.84449432564E+01 -0.63898570599E+01  0.12889386080E+02  0.16681834840E+02  0.51100000000E-03 0. -1.
        -11    1    3    3    0    0 -0.18917654310E+02 -0.13172439378E+02  0.17399067016E+02  0.28881106922E+02  0.51100000000E-03 0.  1.
        -12    1    3    3    0    0 -0.27781297086E+00  0.38395425071E+00 -0.33328055850E+00  0.57937625434E+00  0.00000000000E+00 0.  1.
</event>
<event>
 7    1  0.5743890E-009  0.4614232E+02  0.7816164E-02  0.1320468E+00
        -11   -1    0    0    0    0  0.00000000000E+00  0.00000000000E+00  0.45593999997E+02  0.45594000000E+02  0.51100000000E-03 0. -1.
         11   -1    0    0    0    0 -0.00000000000E+00 -0.00000000000E+00 -0.45593999997E+02  0.45594000000E+02  0.51100000000E-03 0.  1.
    9900012    2    1    2    0    0  0.27715608185E+02  0.32550572311E+02 -0.14192208765E+02  0.46142317805E+02  0.10000000396E+02 0.  0.
         12    1    1    2    0    0 -0.27715608185E+02 -0.32550572311E+02  0.14192208765E+02  0.45045682195E+02  0.00000000000E+00 0. -1.
         11    1    3    3    0    0  0.18134789007E+02  0.17270377646E+02 -0.53761563791E+01  0.25613269491E+02  0.51100000000E-03 0. -1.
        -11    1    3    3    0    0  0.68207592919E+01  0.68673410277E+01 -0.48780277446E+01  0.10838740012E+02  0.51100000000E-03 0.  1.
         12    1    3    3    0    0  0.27600598857E+01  0.84128536373E+01 -0.39380246417E+01  0.96903083013E+01  0.00000000000E+00 0. -1.
</event>
<event>
 7    1  0.5743890E-009  0.4614232E+02  0.7816164E-02  0.1320468E+00
        -11   -1    0    0    0    0  0.00000000000E+00  0.00000000000E+00  0.45593999997E+02  0.45594000000E+02  0.51100000000E-03 0. -1.
         11   -1    0    0    0    0 -0.00000000000E+00 -0.00000000000E+00 -0.45593999997E+02  0.45594000000E+02  0.51100000000E-03 0.  1.
    9900012    2    1    2    0    0  0.24001681515E+02 -0.26236098918E+02  0.27653207363E+02  0.46142317860E+02  0.10000000901E+02 0.  0.
        -12    1    1    2    0    0 -0.24001681515E+02  0.26236098918E+02 -0.27653207363E+02  0.45045682140E+02  0.00000000000E+00 0.  1.
         11    1    3    3    0    0  0.19148117021E+02 -0.21743737963E+02  0.26455693679E+02  0.39234477878E+02  0.51100000000E-03 0. -1.
        -11    1    3    3    0    0  0.21118748490E+00 -0.56321082058E+00  0.50730409703E+00  0.78686993219E+00  0.51100000000E-03 0.  1.
        -12    1    3    3    0    0  0.46423770090E+01 -0.39291501345E+01  0.69020958696E+00  0.61209700495E+01  0.00000000000E+00 0.  1.
</event>
<event>
 7    1  0.5743890E-009  0.4614232E+02  0.7816164E-02  0.1320468E+00
        -11   -1    0    0    0    0  0.00000000000E+00  0.00000000000E+00  0.45593999997E+02  0.45594000000E+02  0.51100000000E-03 0. -1.
         11   -1    0    0    0    0 -0.00000000000E+00 -0.00000000000E+00 -0.45593999997E+02  0.45594000000E+02  0.51100000000E-03 0.  1.
    9900012    2    1    2    0    0  0.14455541851E+02  0.40793689322E+02 -0.12491033783E+02  0.46142315371E+02  0.99999782061E+01 0.  0.
         12    1    1    2    0    0 -0.14455541851E+02 -0.40793689322E+02  0.12491033783E+02  0.45045684629E+02  0.00000000000E+00 0. -1.
         11    1    3    3    0    0 -0.10878024315E+01  0.27539201230E+01 -0.98637073464E+00  0.31209481990E+01  0.51100000000E-03 0. -1.
        -11    1    3    3    0    0  0.81256742823E+01  0.13612272196E+02 -0.31748872272E+01  0.16167883165E+02  0.51100000000E-03 0.  1.
        -12    1    3    3    0    0  0.74176699998E+01  0.24427497004E+02 -0.83297758211E+01  0.26853484007E+02  0.00000000000E+00 0.  1.
</event>
<event>
 7    1  0.5743890E-009  0.4614232E+02  0.7816164E-02  0.1320468E+00
        -11   -1    0    0    0    0  0.00000000000E+00  0.00000000000E+00  0.45593999997E+02  0.45594000000E+02  0.51100000000E-03 0. -1.
         11   -1    0    0    0    0 -0.00000000000E+00 -0.00000000000E+00 -0.45593999997E+02  0.45594000000E+02  0.51100000000E-03 0.  1.
    9900012    2    1    2    0    0 -0.32151337652E+02 -0.11858447963E+02 -0.29236657665E+02  0.46142318161E+02  0.10000003647E+02 0.  0.
         12    1    1    2    0    0  0.32151337652E+02  0.11858447963E+02  0.29236657665E+02  0.45045681839E+02  0.00000000000E+00 0. -1.
         11    1    3    3    0    0 -0.15542943000E+02 -0.19351083935E+01 -0.10789656958E+02  0.19019579888E+02  0.51100000000E-03 0. -1.
        -11    1    3    3    0    0 -0.68259204440E+00 -0.37196547610E+00 -0.25875682077E+01  0.27018141507E+01  0.51100000000E-03 0.  1.
        -12    1    3    3    0    0 -0.15925802607E+02 -0.95513740939E+01 -0.15859432500E+02  0.24420924122E+02  0.00000000000E+00 0.  1.
</event>
<event>
 7    1  0.5743890E-009  0.4614232E+02  0.7816164E-02  0.1320468E+00
        -11   -1    0    0    0    0  0.00000000000E+00  0.00000000000E+00  0.45593999997E+02  0.45594000000E+02  0.51100000000E-03 0. -1.
         11   -1    0    0    0    0 -0.00000000000E+00 -0.00000000000E+00 -0.45593999997E+02  0.45594000000E+02  0.51100000000E-03 0.  1.
    9900012    2    1    2    0    0  0.18440981054E+02  0.21469822708E+02  0.35044122297E+02  0.46142316778E+02  0.99999910396E+01 0.  0.
        -12    1    1    2    0    0 -0.18440981054E+02 -0.21469822708E+02 -0.35044122297E+02  0.45045683222E+02  0.00000000000E+00 0.  1.
         11    1    3    3    0    0  0.52661134998E+01  0.95087574870E+01  0.11593058164E+02  0.15891740565E+02  0.51100000000E-03 0. -1.
        -11    1    3    3    0    0  0.10825410176E+02  0.11556565998E+02  0.22835166137E+02  0.27788280550E+02  0.51100000000E-03 0.  1.
        -12    1    3    3    0    0  0.23494573780E+01  0.40449922283E+00  0.61589799565E+00  0.24622956632E+01  0.00000000000E+00 0.  1.
</event>
<event>
 7    1  0.5743890E-009  0.4614232E+02  0.7816164E-02  0.1320468E+00
        -11   -1    0    0    0    0  0.00000000000E+00  0.00000000000E+00  0.45593999997E+02  0.45594000000E+02  0.51100000000E-03 0. -1.
         11   -1    0    0    0    0 -0.00000000000E+00 -0.00000000000E+00 -0.45593999997E+02  0.45594000000E+02  0.51100000000E-03 0.  1.
    9900012    2    1    2    0    0 -0.16573875387E+02 -0.51778772538E+01 -0.41564524734E+02  0.46142317914E+02  0.10000001393E+02 0.  0.
         12    1    1    2    0    0  0.16573875387E+02  0.51778772538E+01  0.41564524734E+02  0.45045682086E+02  0.00000000000E+00 0. -1.
         11    1    3    3    0    0 -0.25391572067E+01 -0.20072619996E+01 -0.40150148031E+01  0.51572050750E+01  0.51100000000E-03 0. -1.
        -11    1    3    3    0    0 -0.10285648460E+02 -0.12660188380E+01 -0.16241499786E+02  0.19266127880E+02  0.51100000000E-03 0.  1.
         12    1    3    3    0    0 -0.37490697206E+01 -0.19045964161E+01 -0.21308010146E+02  0.21718984959E+02  0.00000000000E+00 0. -1.
</event>
<event>
 7    1  0.5743890E-009  0.4614231E+02  0.7816164E-02  0.1320468E+00
        -11   -1    0    0    0    0  0.00000000000E+00  0.00000000000E+00  0.45593999997E+02  0.45594000000E+02  0.51100000000E-03 0. -1.
         11   -1    0    0    0    0 -0.00000000000E+00 -0.00000000000E+00 -0.45593999997E+02  0.45594000000E+02  0.51100000000E-03 0.  1.
    9900012    2    1    2    0    0  0.17684523820E+02 -0.84559057220E+01 -0.40556988170E+02  0.46142311930E+02  0.99999468266E+01 0.  0.
         12    1    1    2    0    0 -0.17684523820E+02  0.84559057220E+01  0.40556988170E+02  0.45045688070E+02  0.00000000000E+00 0. -1.
         11    1    3    3    0    0  0.22950987706E+01 -0.16747638002E+00 -0.38991267119E+01  0.45275507817E+01  0.51100000000E-03 0. -1.
        -11    1    3    3    0    0  0.13095955036E+02 -0.34522158007E+01 -0.30984058197E+02  0.33814696434E+02  0.51100000000E-03 0.  1.
        -12    1    3    3    0    0  0.22934700129E+01 -0.48362135412E+01 -0.56738032603E+01  0.78000647147E+01  0.00000000000E+00 0.  1.
</event>
<event>
 7    1  0.5743890E-009  0.4614231E+02  0.7816164E-02  0.1320468E+00
        -11   -1    0    0    0    0  0.00000000000E+00  0.00000000000E+00  0.45593999997E+02  0.45594000000E+02  0.51100000000E-03 0. -1.
         11   -1    0    0    0    0 -0.00000000000E+00 -0.00000000000E+00 -0.45593999997E+02  0.45594000000E+02  0.51100000000E-03 0.  1.
    9900012    2    1    2    0    0  0.42642643180E+02  0.89980778829E+01 -0.11390969588E+02  0.46142305299E+02  0.99998863581E+01 0.  0.
         12    1    1    2    0    0 -0.42642643180E+02 -0.89980778829E+01  0.11390969588E+02  0.45045694701E+02  0.00000000000E+00 0. -1.
         11    1    3    3    0    0  0.35296639896E+01 -0.20600819208E+00 -0.26352836157E+01  0.44097264372E+01  0.51100000000E-03 0. -1.
        -11    1    3    3    0    0  0.35544771141E+02  0.89173406692E+01 -0.58252609788E+01  0.37106379314E+02  0.51100000000E-03 0.  1.
        -12    1    3    3    0    0  0.35682080493E+01  0.28674540575E+00 -0.29304249931E+01  0.46261995473E+01  0.00000000000E+00 0.  1.
</event>
<event>
 7    1  0.5743890E-009  0.4614232E+02  0.7816164E-02  0.1320468E+00
        -11   -1    0    0    0    0  0.00000000000E+00  0.00000000000E+00  0.45593999997E+02  0.45594000000E+02  0.51100000000E-03 0. -1.
         11   -1    0    0    0    0 -0.00000000000E+00 -0.00000000000E+00 -0.45593999997E+02  0.45594000000E+02  0.51100000000E-03 0.  1.
    9900012    2    1    2    0    0 -0.36900805914E+01  0.46267429049E+01  0.44655235550E+02  0.46142317557E+02  0.99999981406E+01 0.  0.
        -12    1    1    2    0    0  0.36900805914E+01 -0.46267429049E+01 -0.44655235550E+02  0.45045682443E+02  0.00000000000E+00 0.  1.
         11    1    3    3    0    0 -0.86659153892E-01  0.33323704037E+01  0.30362890202E+02  0.30545331951E+02  0.51100000000E-03 0. -1.
        -11    1    3    3    0    0  0.89864012330E+00  0.11864391940E+01  0.19118241092E+01  0.24228627113E+01  0.51100000000E-03 0.  1.
        -12    1    3    3    0    0 -0.45020615608E+01  0.10793330720E+00  0.12380521239E+02  0.13174122895E+02  0.00000000000E+00 0.  1.
</event>
<event>
 7    1  0.5743890E-009  0.4614232E+02  0.7816164E-02  0.1320468E+00
        -11   -1    0    0    0    0  0.00000000000E+00  0.00000000000E+00  0.45593999997E+02  0.45594000000E+02  0.51100000000E-03 0. -1.
         11   -1    0    0    0    0 -0.00000000000E+00 -0.00000000000E+00 -0.45593999997E+02  0.45594000000E+02  0.51100000000E-03 0.  1.
    9900012    2    1    2    0    0 -0.15413864891E+02 -0.12537533279E+02 -0.40426927859E+02  0.46142317991E+02  0.10000002092E+02 0.  0.
         12    1    1    2    0    0  0.15413864891E+02  0.12537533279E+02  0.40426927859E+02  0.45045682009E+02  0.00000000000E+00 0. -1.
         11    1    3    3    0    0 -0.42050552022E+01 -0.39519316846E+01 -0.50821873969E+01  0.76895306938E+01  0.51100000000E-03 0. -1.
        -11    1    3    3    0    0 -0.85037139751E+01 -0.80449338137E+01 -0.32240625909E+02  0.34300030185E+02  0.51100000000E-03 0.  1.
        -12    1    3    3    0    0 -0.27050957141E+01 -0.54066778075E+00 -0.31041145532E+01  0.41527571120E+01  0.00000000000E+00 0.  1.
</event>
<event>
 7    1  0.5743890E-009  0.4614232E+02  0.7816164E-02  0.1320468E+00
        -11   -1    0    0    0    0  0.00000000000E+00  0.00000000000E+00  0.45593999997E+02  0.45594000000E+02  0.51100000000E-03 0. -1.
         11   -1    0    0    0    0 -0.00000000000E+00 -0.00000000000E+00 -0.45593999997E+02  0.45594000000E+02  0.51100000000E-03 0.  1.
    9900012    2    1    2    0    0  0.34092390579E+02  0.16918044756E+02  0.24095687672E+02  0.46142317652E+02  0.99999990039E+01 0.  0.
        -12    1    1    2    0    0 -0.34092390579E+02 -0.16918044756E+02 -0.24095687672E+02  0.45045682348E+02  0.00000000000E+00 0.  1.
         11    1    3    3    0    0  0.23588023048E+02  0.90079040806E+01  0.16874559311E+02  0.30369193592E+02  0.51100000000E-03 0. -1.
        -11    1    3    3    0    0  0.10467595880E+02  0.59552218458E+01  0.58779332532E+01  0.13400945128E+02  0.51100000000E-03 0.  1.
        -12    1    3    3    0    0  0.36771652102E-01  0.19549188301E+01  0.13431951083E+01  0.23721789321E+01  0.00000000000E+00 0.  1.
</event>
<event>
 7    1  0.5743890E-009  0.4614232E+02  0.7816164E-02  0.1320468E+00
        -11   -1    0    0    0    0  0.00000000000E+00  0.00000000000E+00  0.45593999997E+02  0.45594000000E+02  0.51100000000E-03 0. -1.
         11   -1    0    0    0    0 -0.00000000000E+00 -0.00000000000E+00 -0.45593999997E+02  0.45594000000E+02  0.51100000000E-03 0.  1.
    9900012    2    1    2    0    0 -0.83286421308E+01 -0.15716177290E+01 -0.44241125965E+02  0.46142317757E+02  0.99999999670E+01 0.  0.
         12    1    1    2    0    0  0.83286421308E+01  0.15716177290E+01  0.44241125965E+02  0.45045682243E+02  0.00000000000E+00 0. -1.
         11    1    3    3    0    0 -0.34708228222E+01 -0.24289278345E+01 -0.20007512880E+02  0.20451084895E+02  0.51100000000E-03 0.  1.
        -11    1    3    3    0    0 -0.51331794521E+01  0.25164810224E+01 -0.11453950416E+02  0.12801374474E+02  0.51100000000E-03 0. -1.
         12    1    3    3    0    0  0.27536014352E+00 -0.16591709168E+01 -0.12779662669E+02  0.12889858388E+02  0.00000000000E+00 0. -1.
</event>
<event>
 7    1  0.7008068E-009  0.4614232E+02  0.7816164E-02  0.1320468E+00
        -11   -1    0    0    0    0  0.00000000000E+00  0.00000000000E+00  0.45593999997E+02  0.45594000000E+02  0.51100000000E-03 0. -1.
         11   -1    0    0    0    0 -0.00000000000E+00 -0.00000000000E+00 -0.45593999997E+02  0.45594000000E+02  0.51100000000E-03 0.  1.
    9900012    2    1    2    0    0  0.14845923219E+02  0.26996265816E+02  0.32862037396E+02  0.46142319784E+02  0.10000018450E+02 0.  0.
        -12    1    1    2    0    0 -0.14845923219E+02 -0.26996265816E+02 -0.32862037396E+02  0.45045680216E+02  0.00000000000E+00 0.  1.
         11    1    3    3    0    0  0.95318741992E+01  0.12462088925E+02  0.16403207125E+02  0.22698579039E+02  0.51100000000E-03 0. -1.
        -11    1    3    3    0    0  0.52403296484E+01  0.82364746820E+01  0.67409648718E+01  0.11863438695E+02  0.51100000000E-03 0.  1.
        -12    1    3    3    0    0  0.73719371372E-01  0.62977022090E+01  0.97178653994E+01  0.11580302050E+02  0.00000000000E+00 0.  1.
</event>
<event>
 7    1  0.5743890E-009  0.4614232E+02  0.7816164E-02  0.1320468E+00
        -11   -1    0    0    0    0  0.00000000000E+00  0.00000000000E+00  0.45593999997E+02  0.45594000000E+02  0.51100000000E-03 0. -1.
         11   -1    0    0    0    0 -0.00000000000E+00 -0.00000000000E+00 -0.45593999997E+02  0.45594000000E+02  0.51100000000E-03 0.  1.
    9900012    2    1    2    0    0 -0.14560966664E+02  0.36904172955E+02  0.21334799925E+02  0.46142318525E+02  0.10000006968E+02 0.  0.
        -12    1    1    2    0    0  0.14560966664E+02 -0.36904172955E+02 -0.21334799925E+02  0.45045681475E+02  0.00000000000E+00 0.  1.
         11    1    3    3    0    0 -0.10818024307E+01  0.72807793185E+01  0.53854185153E+01  0.91204592444E+01  0.51100000000E-03 0.  1.
        -11    1    3    3    0    0 -0.31028407679E+00  0.52192164620E+01  0.49171087665E+01  0.71773571438E+01  0.51100000000E-03 0. -1.
        -12    1    3    3    0    0 -0.13168880156E+02  0.24404177174E+02  0.11032272644E+02  0.29844502137E+02  0.00000000000E+00 0.  1.
</event>
<event>
 7    1  0.5743890E-009  0.4614231E+02  0.7816164E-02  0.1320468E+00
        -11   -1    0    0    0    0  0.00000000000E+00  0.00000000000E+00  0.45593999997E+02  0.45594000000E+02  0.51100000000E-03 0. -1.
         11   -1    0    0    0    0 -0.00000000000E+00 -0.00000000000E+00 -0.45593999997E+02  0.45594000000E+02  0.51100000000E-03 0.  1.
    9900012    2    1    2    0    0 -0.44641581688E+02 -0.57610059054E+01 -0.17475356422E+01  0.46142313353E+02  0.99999598034E+01 0.  0.
         12    1    1    2    0    0  0.44641581688E+02  0.57610059054E+01  0.17475356422E+01  0.45045686647E+02  0.00000000000E+00 0. -1.
         11    1    3    3    0    0 -0.13948853464E+02  0.94913278533E+00 -0.28663165237E+01  0.14271900248E+02  0.51100000000E-03 0. -1.
        -11    1    3    3    0    0 -0.27802352096E+02 -0.67584467208E+01 -0.37927699373E+00  0.28614528398E+02  0.51100000000E-03 0.  1.
         12    1    3    3    0    0 -0.28903761284E+01  0.48308030105E-01  0.14980578753E+01  0.32558847073E+01  0.00000000000E+00 0. -1.
</event>
<event>
 7    1  0.5743890E-009  0.4614232E+02  0.7816164E-02  0.1320468E+00
        -11   -1    0    0    0    0  0.00000000000E+00  0.00000000000E+00  0.45593999997E+02  0.45594000000E+02  0.51100000000E-03 0. -1.
         11   -1    0    0    0    0 -0.00000000000E+00 -0.00000000000E+00 -0.45593999997E+02  0.45594000000E+02  0.51100000000E-03 0.  1.
    9900012    2    1    2    0    0 -0.25106952428E+02  0.38984256911E+01 -0.37196187889E+02  0.46142321222E+02  0.10000031559E+02 0.  0.
         12    1    1    2    0    0  0.25106952428E+02 -0.38984256911E+01  0.37196187889E+02  0.45045678778E+02  0.00000000000E+00 0. -1.
         11    1    3    3    0    0 -0.11459590221E+01  0.22092213044E+01 -0.53517344857E+01  0.59021134451E+01  0.51100000000E-03 0. -1.
        -11    1    3    3    0    0 -0.21728686519E+02  0.29289110091E+01 -0.27162745044E+02  0.34907435542E+02  0.51100000000E-03 0.  1.
        -12    1    3    3    0    0 -0.22323068875E+01 -0.12397066225E+01 -0.46817083594E+01  0.53327722352E+01  0.00000000000E+00 0.  1.
</event>
<event>
 7    1  0.5743890E-009  0.4614232E+02  0.7816164E-02  0.1320468E+00
        -11   -1    0    0    0    0  0.00000000000E+00  0.00000000000E+00  0.45593999997E+02  0.45594000000E+02  0.51100000000E-03 0. -1.
         11   -1    0    0    0    0 -0.00000000000E+00 -0.00000000000E+00 -0.45593999997E+02  0.45594000000E+02  0.51100000000E-03 0.  1.
    9900012    2    1    2    0    0  0.29214690986E+02  0.21955916083E+02  0.26335394947E+02  0.46142318215E+02  0.10000004142E+02 0.  0.
        -12    1    1    2    0    0 -0.29214690986E+02 -0.21955916083E+02 -0.26335394947E+02  0.45045681785E+02  0.00000000000E+00 0.  1.
         11    1    3    3    0    0  0.95830357938E+01  0.60623192635E+01  0.89191474570E+01  0.14426970628E+02  0.51100000000E-03 0. -1.
        -11    1    3    3    0    0  0.43629465110E+01  0.72465476812E+01  0.28997832438E+01  0.89418397814E+01  0.51100000000E-03 0.  1.
        -12    1    3    3    0    0  0.15268708681E+02  0.86470491379E+01  0.14516464246E+02  0.22773507806E+02  0.00000000000E+00 0.  1.
</event>
